Title t= 441.00000 step= 220500
19942
    1ASP      N    1   1.046   2.077   3.182
    1ASP    HT1    2   1.045   2.168   3.133
    1ASP    HT2    3   0.998   2.075   3.274
    1ASP    HT3    4   0.989   2.007   3.129
    1ASP     CA    5   1.186   2.027   3.209
    1ASP     HA    6   1.206   2.070   3.307
    1ASP     CB    7   1.197   1.874   3.205
    1ASP    HB1    8   1.179   1.838   3.101
    1ASP    HB2    9   1.114   1.835   3.268
    1ASP     CG   10   1.321   1.816   3.269
    1ASP    OD1   11   1.357   1.699   3.250
    1ASP    OD2   12   1.378   1.888   3.357
    1ASP      C   13   1.282   2.103   3.118
    1ASP      O   14   1.238   2.164   3.021
    2ALA      N   15   1.415   2.103   3.145
    2ALA     HN   16   1.442   2.055   3.228
    2ALA     CA   17   1.518   2.156   3.063
    2ALA     HA   18   1.497   2.261   3.050
    2ALA     CB   19   1.659   2.147   3.133
    2ALA    HB1   20   1.741   2.204   3.084
    2ALA    HB2   21   1.674   2.037   3.141
    2ALA    HB3   22   1.650   2.186   3.236
    2ALA      C   23   1.523   2.104   2.921
    2ALA      O   24   1.450   2.015   2.881
    3ASP      N   25   1.620   2.153   2.840
    3ASP     HN   26   1.686   2.224   2.867
    3ASP     CA   27   1.636   2.100   2.709
    3ASP     HA   28   1.542   2.116   2.658
    3ASP     CB   29   1.738   2.179   2.627
    3ASP    HB1   30   1.747   2.145   2.522
    3ASP    HB2   31   1.837   2.159   2.673
    3ASP     CG   32   1.714   2.329   2.605
    3ASP    OD1   33   1.791   2.387   2.527
    3ASP    OD2   34   1.621   2.387   2.673
    3ASP      C   35   1.677   1.953   2.697
    3ASP      O   36   1.775   1.908   2.761
    4GLY      N   37   1.601   1.877   2.612
    4GLY     HN   38   1.516   1.910   2.573
    4GLY     CA   39   1.627   1.740   2.588
    4GLY    HA1   40   1.530   1.716   2.547
    4GLY    HA2   41   1.650   1.686   2.678
    4GLY      C   42   1.739   1.728   2.484
    4GLY      O   43   1.762   1.831   2.420
    5PRO      N   44   1.807   1.613   2.456
    5PRO     CD   45   1.758   1.483   2.502
    5PRO    HD1   46   1.648   1.474   2.500
    5PRO    HD2   47   1.799   1.454   2.602
    5PRO     CA   48   1.893   1.597   2.338
    5PRO     HA   49   1.976   1.666   2.351
    5PRO     CB   50   1.941   1.450   2.339
    5PRO    HB1   51   2.021   1.442   2.415
    5PRO    HB2   52   1.969   1.413   2.238
    5PRO     CG   53   1.818   1.379   2.399
    5PRO    HG1   54   1.733   1.366   2.328
    5PRO    HG2   55   1.828   1.281   2.450
    5PRO      C   56   1.829   1.633   2.204
    5PRO      O   57   1.712   1.604   2.184
    6GLY      N   58   1.903   1.690   2.113
    6GLY     HN   59   2.002   1.696   2.126
    6GLY     CA   60   1.861   1.720   1.978
    6GLY    HA1   61   1.932   1.796   1.947
    6GLY    HA2   62   1.766   1.770   1.981
    6GLY      C   63   1.866   1.598   1.885
    6GLY      O   64   1.811   1.601   1.770
    7ASP      N   65   1.936   1.488   1.926
    7ASP     HN   66   1.989   1.502   2.010
    7ASP     CA   67   1.950   1.368   1.845
    7ASP     HA   68   1.976   1.392   1.743
    7ASP     CB   69   2.063   1.271   1.901
    7ASP    HB1   70   2.067   1.189   1.826
    7ASP    HB2   71   2.040   1.219   1.996
    7ASP     CG   72   2.190   1.347   1.904
    7ASP    OD1   73   2.225   1.416   1.803
    7ASP    OD2   74   2.264   1.341   2.006
    7ASP      C   75   1.818   1.290   1.844
    7ASP      O   76   1.770   1.267   1.956
    8PRO      N   77   1.760   1.244   1.736
    8PRO     CD   78   1.817   1.260   1.599
    8PRO    HD1   79   1.918   1.215   1.588
    8PRO    HD2   80   1.814   1.364   1.560
    8PRO     CA   81   1.624   1.194   1.732
    8PRO     HA   82   1.553   1.259   1.781
    8PRO     CB   83   1.590   1.199   1.576
    8PRO    HB1   84   1.558   1.301   1.547
    8PRO    HB2   85   1.505   1.133   1.549
    8PRO     CG   86   1.721   1.173   1.511
    8PRO    HG1   87   1.742   1.064   1.518
    8PRO    HG2   88   1.731   1.196   1.403
    8PRO      C   89   1.605   1.058   1.796
    8PRO      O   90   1.501   1.037   1.846
    9ASP      N   91   1.702   0.962   1.787
    9ASP     HN   92   1.789   0.970   1.739
    9ASP     CA   93   1.687   0.836   1.861
    9ASP     HA   94   1.592   0.795   1.831
    9ASP     CB   95   1.802   0.740   1.818
    9ASP    HB1   96   1.794   0.653   1.886
    9ASP    HB2   97   1.903   0.784   1.832
    9ASP     CG   98   1.790   0.680   1.673
    9ASP    OD1   99   1.899   0.641   1.628
    9ASP    OD2  100   1.680   0.645   1.627
    9ASP      C  101   1.704   0.850   2.012
    9ASP      O  102   1.659   0.768   2.091
   10ALA      N  103   1.772   0.949   2.071
   10ALA     HN  104   1.796   1.031   2.020
   10ALA     CA  105   1.801   0.962   2.214
   10ALA     HA  106   1.854   0.878   2.254
   10ALA     CB  107   1.895   1.079   2.226
   10ALA    HB1  108   1.993   1.048   2.185
   10ALA    HB2  109   1.908   1.108   2.332
   10ALA    HB3  110   1.856   1.171   2.176
   10ALA      C  111   1.670   0.989   2.295
   10ALA      O  112   1.570   1.015   2.224
   11GLY      N  113   1.672   0.979   2.430
   11GLY     HN  114   1.760   0.951   2.467
   11GLY     CA  115   1.572   1.000   2.534
   11GLY    HA1  116   1.554   1.107   2.536
   11GLY    HA2  117   1.607   0.969   2.631
   11GLY      C  118   1.438   0.928   2.509
   11GLY    OT1  119   1.348   0.998   2.453
   11GLY    OT2  120   1.427   0.804   2.525
   12LIT    LIT  121   4.837   5.001   1.944
   13LIT    LIT  122   2.912   4.808   5.086
   14LIT    LIT  123   5.249   0.533   3.979
   15LIT    LIT  124   3.012   5.568   4.375
   16LIT    LIT  125   4.560   5.776   4.224
   17LIT    LIT  126   4.799   0.464   2.526
   18LIT    LIT  127   1.685   1.811   4.369
   19LIT    LIT  128   4.652   5.394   2.280
   20LIT    LIT  129   2.513   1.917   4.186
   21LIT    LIT  130   4.946   4.119   0.910
   22LIT    LIT  131   5.810   4.042   3.583
   23LIT    LIT  132   0.728   2.732   1.151
   24LIT    LIT  133   0.454   4.568   4.752
   25LIT    LIT  134   0.328   3.957   2.575
   26LIT    LIT  135   3.902   1.146   4.896
   27LIT    LIT  136   0.924   1.097   3.778
   28LIT    LIT  137   1.529   1.762   3.332
   29LIT    LIT  138   2.635   5.766   3.694
   30LIT    LIT  139   5.393   3.571   0.981
   31LIT    LIT  140   5.591   2.734   2.539
   32LIT    LIT  141   6.273   0.153   1.843
   33LIT    LIT  142   4.718   4.349   5.087
   34CLA    CLA  143   1.956   3.751   2.562
   35CLA    CLA  144   4.525   5.220   2.189
   36CLA    CLA  145   5.225   3.180   2.389
   37CLA    CLA  146   4.231   0.643   3.467
   38CLA    CLA  147   2.375   1.839   4.350
   39CLA    CLA  148   0.202   5.956   2.608
   40CLA    CLA  149   1.699   4.578   0.090
   41CLA    CLA  150   4.977   0.564   4.317
   42CLA    CLA  151   4.442   5.800   0.585
   43CLA    CLA  152   1.361   1.766   5.172
   44CLA    CLA  153   1.305   5.383   0.518
   45CLA    CLA  154   1.838   2.129   4.048
   46CLA    CLA  155   4.364   0.920   2.367
   47CLA    CLA  156   3.992   1.108   5.111
   48CLA    CLA  157   5.556   4.607   0.275
   49CLA    CLA  158   6.282   5.768   3.306
   50CLA    CLA  159   5.130   0.053   1.246
   51CLA    CLA  160   4.346   5.489   0.248
   52TIP3   OH2  161   5.025   4.929   0.107
   52TIP3    H1  162   5.023   4.987   0.031
   52TIP3    H2  163   5.044   4.843   0.071
   53TIP3   OH2  164  -0.005   1.370   0.494
   53TIP3    H1  165   0.048   1.341   0.568
   53TIP3    H2  166   0.009   1.464   0.490
   54TIP3   OH2  167   0.504   2.824   4.169
   54TIP3    H1  168   0.588   2.863   4.194
   54TIP3    H2  169   0.446   2.899   4.156
   55TIP3   OH2  170   1.472   0.188   2.174
   55TIP3    H1  171   1.567   0.189   2.180
   55TIP3    H2  172   1.445   0.279   2.187
   56TIP3   OH2  173   5.822   4.091   4.828
   56TIP3    H1  174   5.883   4.139   4.883
   56TIP3    H2  175   5.803   4.011   4.877
   57TIP3   OH2  176   5.529   5.705   3.627
   57TIP3    H1  177   5.577   5.685   3.707
   57TIP3    H2  178   5.593   5.692   3.557
   58TIP3   OH2  179   2.933   3.868   1.569
   58TIP3    H1  180   2.842   3.855   1.544
   58TIP3    H2  181   2.959   3.949   1.524
   59TIP3   OH2  182   0.976   3.390   1.449
   59TIP3    H1  183   1.033   3.318   1.420
   59TIP3    H2  184   0.927   3.415   1.371
   60TIP3   OH2  185   4.132   3.105   0.640
   60TIP3    H1  186   4.114   3.011   0.636
   60TIP3    H2  187   4.219   3.111   0.681
   61TIP3   OH2  188   0.740   0.532   0.290
   61TIP3    H1  189   0.833   0.532   0.266
   61TIP3    H2  190   0.733   0.464   0.357
   62TIP3   OH2  191   4.787   3.756   1.953
   62TIP3    H1  192   4.704   3.768   1.998
   62TIP3    H2  193   4.805   3.662   1.960
   63TIP3   OH2  194   2.288   4.520   4.310
   63TIP3    H1  195   2.276   4.427   4.329
   63TIP3    H2  196   2.376   4.526   4.273
   64TIP3   OH2  197   2.582   0.476   4.229
   64TIP3    H1  198   2.493   0.511   4.226
   64TIP3    H2  199   2.592   0.429   4.146
   65TIP3   OH2  200   2.726   1.590   2.115
   65TIP3    H1  201   2.711   1.654   2.045
   65TIP3    H2  202   2.647   1.537   2.117
   66TIP3   OH2  203   0.741   1.382   0.130
   66TIP3    H1  204   0.712   1.333   0.053
   66TIP3    H2  205   0.714   1.329   0.205
   67TIP3   OH2  206   2.610   2.263   3.983
   67TIP3    H1  207   2.647   2.348   4.005
   67TIP3    H2  208   2.516   2.279   3.973
   68TIP3   OH2  209   3.415   1.924   4.935
   68TIP3    H1  210   3.496   1.968   4.907
   68TIP3    H2  211   3.397   1.961   5.021
   69TIP3   OH2  212   1.710   5.361   1.031
   69TIP3    H1  213   1.643   5.328   1.091
   69TIP3    H2  214   1.726   5.451   1.059
   70TIP3   OH2  215   4.667   1.081   2.172
   70TIP3    H1  216   4.703   1.015   2.114
   70TIP3    H2  217   4.625   1.032   2.243
   71TIP3   OH2  218   4.760   1.552   2.192
   71TIP3    H1  219   4.831   1.528   2.253
   71TIP3    H2  220   4.707   1.473   2.186
   72TIP3   OH2  221   5.512   4.904   0.519
   72TIP3    H1  222   5.556   4.823   0.548
   72TIP3    H2  223   5.448   4.875   0.455
   73TIP3   OH2  224   3.137   1.645   1.138
   73TIP3    H1  225   3.138   1.600   1.054
   73TIP3    H2  226   3.223   1.686   1.144
   74TIP3   OH2  227   4.735   2.766   1.970
   74TIP3    H1  228   4.806   2.709   1.941
   74TIP3    H2  229   4.726   2.747   2.063
   75TIP3   OH2  230   4.070   2.607   0.823
   75TIP3    H1  231   4.055   2.547   0.896
   75TIP3    H2  232   4.151   2.575   0.782
   76TIP3   OH2  233   2.415   2.139   5.003
   76TIP3    H1  234   2.389   2.189   5.080
   76TIP3    H2  235   2.340   2.082   4.985
   77TIP3   OH2  236   1.920   1.800   4.805
   77TIP3    H1  237   1.915   1.748   4.885
   77TIP3    H2  238   1.977   1.750   4.747
   78TIP3   OH2  239   5.888   2.388   2.940
   78TIP3    H1  240   5.911   2.438   2.862
   78TIP3    H2  241   5.972   2.363   2.978
   79TIP3   OH2  242   5.306   2.541   4.255
   79TIP3    H1  243   5.244   2.549   4.328
   79TIP3    H2  244   5.392   2.534   4.298
   80TIP3   OH2  245   6.220   4.762   0.138
   80TIP3    H1  246   6.193   4.807   0.218
   80TIP3    H2  247   6.316   4.762   0.142
   81TIP3   OH2  248   4.646   1.346   0.275
   81TIP3    H1  249   4.574   1.399   0.240
   81TIP3    H2  250   4.660   1.379   0.364
   82TIP3   OH2  251   1.151   1.543   2.170
   82TIP3    H1  252   1.218   1.539   2.239
   82TIP3    H2  253   1.111   1.456   2.170
   83TIP3   OH2  254   1.010   3.136   1.993
   83TIP3    H1  255   0.954   3.177   1.927
   83TIP3    H2  256   1.099   3.148   1.961
   84TIP3   OH2  257   2.155   1.271   2.248
   84TIP3    H1  258   2.203   1.303   2.172
   84TIP3    H2  259   2.150   1.177   2.235
   85TIP3   OH2  260   1.608   1.471   1.124
   85TIP3    H1  261   1.514   1.462   1.135
   85TIP3    H2  262   1.635   1.530   1.195
   86TIP3   OH2  263   3.199   4.395   2.023
   86TIP3    H1  264   3.137   4.460   1.989
   86TIP3    H2  265   3.173   4.314   1.980
   87TIP3   OH2  266   5.707   3.786   1.329
   87TIP3    H1  267   5.702   3.696   1.299
   87TIP3    H2  268   5.795   3.795   1.367
   88TIP3   OH2  269   2.220   0.364   1.254
   88TIP3    H1  270   2.174   0.393   1.175
   88TIP3    H2  271   2.166   0.396   1.326
   89TIP3   OH2  272   0.374   5.701   2.722
   89TIP3    H1  273   0.331   5.777   2.683
   89TIP3    H2  274   0.307   5.633   2.723
   90TIP3   OH2  275   4.913   5.741   2.734
   90TIP3    H1  276   4.975   5.749   2.806
   90TIP3    H2  277   4.831   5.714   2.775
   91TIP3   OH2  278   2.736   5.745   2.418
   91TIP3    H1  279   2.704   5.690   2.490
   91TIP3    H2  280   2.700   5.832   2.437
   92TIP3   OH2  281   1.286   4.215   0.342
   92TIP3    H1  282   1.301   4.126   0.375
   92TIP3    H2  283   1.328   4.272   0.406
   93TIP3   OH2  284   1.460   4.091   3.162
   93TIP3    H1  285   1.527   4.159   3.164
   93TIP3    H2  286   1.470   4.051   3.076
   94TIP3   OH2  287   4.913   3.888   3.179
   94TIP3    H1  288   5.007   3.904   3.167
   94TIP3    H2  289   4.873   3.919   3.098
   95TIP3   OH2  290   3.141   4.805   2.120
   95TIP3    H1  291   3.176   4.894   2.130
   95TIP3    H2  292   3.188   4.753   2.185
   96TIP3   OH2  293   5.752   4.890   0.739
   96TIP3    H1  294   5.811   4.849   0.803
   96TIP3    H2  295   5.693   4.820   0.711
   97TIP3   OH2  296   6.153   2.673   4.793
   97TIP3    H1  297   6.164   2.589   4.750
   97TIP3    H2  298   6.203   2.665   4.875
   98TIP3   OH2  299   1.698   0.454  -0.009
   98TIP3    H1  300   1.662   0.365  -0.003
   98TIP3    H2  301   1.746   0.466   0.072
   99TIP3   OH2  302   2.667   1.222   3.735
   99TIP3    H1  303   2.689   1.208   3.827
   99TIP3    H2  304   2.679   1.136   3.694
  100TIP3   OH2  305   5.236   5.038   4.194
  100TIP3    H1  306   5.164   5.076   4.246
  100TIP3    H2  307   5.213   5.058   4.103
  101TIP3   OH2  308   0.326   0.088   2.872
  101TIP3    H1  309   0.354   0.162   2.817
  101TIP3    H2  310   0.376   0.099   2.953
  102TIP3   OH2  311   5.296   4.001   4.372
  102TIP3    H1  312   5.234   4.060   4.415
  102TIP3    H2  313   5.251   3.972   4.293
  103TIP3   OH2  314   2.354   5.709   2.526
  103TIP3    H1  315   2.269   5.750   2.509
  103TIP3    H2  316   2.341   5.661   2.608
  104TIP3   OH2  317   1.517   4.715   2.373
  104TIP3    H1  318   1.504   4.651   2.302
  104TIP3    H2  319   1.579   4.672   2.432
  105TIP3   OH2  320   4.254   2.177   2.400
  105TIP3    H1  321   4.248   2.088   2.366
  105TIP3    H2  322   4.331   2.214   2.357
  106TIP3   OH2  323   0.285   4.861   1.646
  106TIP3    H1  324   0.344   4.936   1.638
  106TIP3    H2  325   0.233   4.864   1.566
  107TIP3   OH2  326   5.159   2.244   4.552
  107TIP3    H1  327   5.236   2.289   4.586
  107TIP3    H2  328   5.140   2.287   4.469
  108TIP3   OH2  329   4.471   1.939   1.738
  108TIP3    H1  330   4.461   1.906   1.649
  108TIP3    H2  331   4.387   1.920   1.780
  109TIP3   OH2  332   4.939   0.531   1.706
  109TIP3    H1  333   4.913   0.622   1.690
  109TIP3    H2  334   4.949   0.493   1.618
  110TIP3   OH2  335   0.762   4.454   0.771
  110TIP3    H1  336   0.826   4.493   0.710
  110TIP3    H2  337   0.769   4.507   0.850
  111TIP3   OH2  338   0.757   4.910   0.886
  111TIP3    H1  339   0.673   4.906   0.931
  111TIP3    H2  340   0.741   4.964   0.808
  112TIP3   OH2  341   6.357   0.505   0.708
  112TIP3    H1  342   6.382   0.574   0.769
  112TIP3    H2  343   6.300   0.548   0.644
  113TIP3   OH2  344   5.862   5.196   1.761
  113TIP3    H1  345   5.920   5.248   1.817
  113TIP3    H2  346   5.800   5.156   1.821
  114TIP3   OH2  347   3.964   1.839   0.941
  114TIP3    H1  348   3.987   1.832   1.034
  114TIP3    H2  349   3.890   1.899   0.939
  115TIP3   OH2  350   3.711   2.505   3.601
  115TIP3    H1  351   3.795   2.461   3.616
  115TIP3    H2  352   3.733   2.582   3.550
  116TIP3   OH2  353   1.617   4.256   1.036
  116TIP3    H1  354   1.692   4.315   1.046
  116TIP3    H2  355   1.544   4.313   1.012
  117TIP3   OH2  356   5.703   2.071   0.514
  117TIP3    H1  357   5.707   2.166   0.504
  117TIP3    H2  358   5.623   2.045   0.468
  118TIP3   OH2  359   0.066   0.204   4.275
  118TIP3    H1  360   0.027   0.166   4.197
  118TIP3    H2  361   0.088   0.294   4.249
  119TIP3   OH2  362   0.731   5.325   2.645
  119TIP3    H1  363   0.779   5.247   2.617
  119TIP3    H2  364   0.639   5.304   2.627
  120TIP3   OH2  365   5.271   2.150   2.742
  120TIP3    H1  366   5.205   2.082   2.753
  120TIP3    H2  367   5.340   2.127   2.805
  121TIP3   OH2  368   4.681   5.950   3.454
  121TIP3    H1  369   4.651   5.860   3.441
  121TIP3    H2  370   4.758   5.943   3.511
  122TIP3   OH2  371   0.206   0.099   1.023
  122TIP3    H1  372   0.138   0.166   1.014
  122TIP3    H2  373   0.206   0.054   0.938
  123TIP3   OH2  374   2.131   2.058   4.952
  123TIP3    H1  375   2.080   2.130   4.988
  123TIP3    H2  376   2.125   2.069   4.857
  124TIP3   OH2  377   0.188   4.825   2.650
  124TIP3    H1  378   0.160   4.751   2.705
  124TIP3    H2  379   0.208   4.785   2.565
  125TIP3   OH2  380   4.019   4.178   2.726
  125TIP3    H1  381   3.957   4.240   2.765
  125TIP3    H2  382   4.008   4.098   2.778
  126TIP3   OH2  383   2.265   0.118   3.705
  126TIP3    H1  384   2.191   0.121   3.644
  126TIP3    H2  385   2.292   0.026   3.705
  127TIP3   OH2  386   5.843   4.020   3.383
  127TIP3    H1  387   5.776   3.968   3.339
  127TIP3    H2  388   5.908   4.040   3.315
  128TIP3   OH2  389   2.506   2.238   1.465
  128TIP3    H1  390   2.475   2.228   1.555
  128TIP3    H2  391   2.554   2.321   1.465
  129TIP3   OH2  392   1.379   5.519   2.721
  129TIP3    H1  393   1.327   5.586   2.764
  129TIP3    H2  394   1.316   5.454   2.691
  130TIP3   OH2  395   5.821   3.273   3.772
  130TIP3    H1  396   5.830   3.292   3.865
  130TIP3    H2  397   5.822   3.359   3.730
  131TIP3   OH2  398   6.079   0.839   0.461
  131TIP3    H1  399   6.119   0.876   0.382
  131TIP3    H2  400   5.991   0.875   0.462
  132TIP3   OH2  401   0.750   5.081   4.497
  132TIP3    H1  402   0.741   5.177   4.490
  132TIP3    H2  403   0.660   5.049   4.494
  133TIP3   OH2  404   2.456   1.898   2.411
  133TIP3    H1  405   2.429   1.969   2.353
  133TIP3    H2  406   2.379   1.840   2.415
  134TIP3   OH2  407   5.701   1.276   1.437
  134TIP3    H1  408   5.744   1.279   1.352
  134TIP3    H2  409   5.622   1.224   1.422
  135TIP3   OH2  410   1.933   0.258   2.425
  135TIP3    H1  411   1.874   0.304   2.486
  135TIP3    H2  412   1.976   0.191   2.478
  136TIP3   OH2  413   4.823   1.810   4.120
  136TIP3    H1  414   4.834   1.848   4.207
  136TIP3    H2  415   4.736   1.841   4.091
  137TIP3   OH2  416   1.373   2.642   4.056
  137TIP3    H1  417   1.452   2.687   4.086
  137TIP3    H2  418   1.341   2.595   4.133
  138TIP3   OH2  419   2.960   3.540   0.080
  138TIP3    H1  420   2.901   3.609   0.047
  138TIP3    H2  421   2.995   3.499   0.001
  139TIP3   OH2  422   6.097   0.526   2.704
  139TIP3    H1  423   6.127   0.497   2.790
  139TIP3    H2  424   6.172   0.572   2.667
  140TIP3   OH2  425   0.535   0.529   2.214
  140TIP3    H1  426   0.615   0.568   2.250
  140TIP3    H2  427   0.484   0.504   2.291
  141TIP3   OH2  428   4.204   5.303   2.997
  141TIP3    H1  429   4.108   5.295   3.005
  141TIP3    H2  430   4.227   5.243   2.926
  142TIP3   OH2  431   2.301   1.522   0.735
  142TIP3    H1  432   2.245   1.532   0.659
  142TIP3    H2  433   2.315   1.611   0.767
  143TIP3   OH2  434   2.817   5.970   0.721
  143TIP3    H1  435   2.856   5.922   0.648
  143TIP3    H2  436   2.865   5.939   0.798
  144TIP3   OH2  437   0.719   5.205   3.406
  144TIP3    H1  438   0.695   5.287   3.449
  144TIP3    H2  439   0.728   5.142   3.477
  145TIP3   OH2  440   2.871   0.964   4.793
  145TIP3    H1  441   2.919   1.030   4.743
  145TIP3    H2  442   2.920   0.956   4.875
  146TIP3   OH2  443   4.321   5.146   0.218
  146TIP3    H1  444   4.249   5.208   0.211
  146TIP3    H2  445   4.395   5.191   0.176
  147TIP3   OH2  446   6.066   2.421   4.702
  147TIP3    H1  447   5.987   2.411   4.649
  147TIP3    H2  448   6.071   2.339   4.752
  148TIP3   OH2  449   5.899   4.229   2.526
  148TIP3    H1  450   5.988   4.254   2.547
  148TIP3    H2  451   5.881   4.153   2.582
  149TIP3   OH2  452   6.072   1.688   3.851
  149TIP3    H1  453   6.057   1.744   3.775
  149TIP3    H2  454   6.013   1.614   3.838
  150TIP3   OH2  455   0.021   5.852   4.390
  150TIP3    H1  456   0.065   5.771   4.418
  150TIP3    H2  457   0.060   5.871   4.304
  151TIP3   OH2  458   1.427   5.762   1.887
  151TIP3    H1  459   1.455   5.677   1.852
  151TIP3    H2  460   1.408   5.815   1.809
  152TIP3   OH2  461   1.026   0.484   0.294
  152TIP3    H1  462   1.040   0.479   0.389
  152TIP3    H2  463   1.025   0.392   0.266
  153TIP3   OH2  464   5.803   1.764   5.052
  153TIP3    H1  465   5.843   1.688   5.092
  153TIP3    H2  466   5.718   1.773   5.097
  154TIP3   OH2  467   1.513   5.554   4.680
  154TIP3    H1  468   1.550   5.642   4.671
  154TIP3    H2  469   1.542   5.508   4.601
  155TIP3   OH2  470   4.376   3.830   1.026
  155TIP3    H1  471   4.428   3.872   0.958
  155TIP3    H2  472   4.440   3.801   1.091
  156TIP3   OH2  473   0.152   4.121   2.444
  156TIP3    H1  474   0.076   4.128   2.387
  156TIP3    H2  475   0.127   4.170   2.523
  157TIP3   OH2  476   1.233   3.378   2.561
  157TIP3    H1  477   1.241   3.338   2.474
  157TIP3    H2  478   1.244   3.472   2.545
  158TIP3   OH2  479   2.728   0.261   4.546
  158TIP3    H1  480   2.734   0.356   4.537
  158TIP3    H2  481   2.661   0.246   4.612
  159TIP3   OH2  482   5.477   1.634   3.116
  159TIP3    H1  483   5.485   1.557   3.172
  159TIP3    H2  484   5.515   1.607   3.032
  160TIP3   OH2  485   0.578   3.786   1.424
  160TIP3    H1  486   0.551   3.695   1.415
  160TIP3    H2  487   0.621   3.807   1.341
  161TIP3   OH2  488   2.343   0.044   2.923
  161TIP3    H1  489   2.326   0.006   2.836
  161TIP3    H2  490   2.304   0.131   2.919
  162TIP3   OH2  491   0.202   1.441   2.343
  162TIP3    H1  492   0.177   1.431   2.251
  162TIP3    H2  493   0.285   1.394   2.350
  163TIP3   OH2  494   3.285   2.390   3.043
  163TIP3    H1  495   3.270   2.297   3.061
  163TIP3    H2  496   3.320   2.393   2.954
  164TIP3   OH2  497   1.441   1.067   3.975
  164TIP3    H1  498   1.490   1.028   4.047
  164TIP3    H2  499   1.501   1.063   3.900
  165TIP3   OH2  500   2.604   0.456   1.966
  165TIP3    H1  501   2.526   0.484   1.918
  165TIP3    H2  502   2.635   0.379   1.918
  166TIP3   OH2  503   3.907   1.972   4.917
  166TIP3    H1  504   3.956   1.960   4.999
  166TIP3    H2  505   3.947   2.049   4.876
  167TIP3   OH2  506   3.817   0.159   4.008
  167TIP3    H1  507   3.809   0.074   4.050
  167TIP3    H2  508   3.736   0.205   4.029
  168TIP3   OH2  509   1.016   5.014   0.112
  168TIP3    H1  510   1.030   5.089   0.169
  168TIP3    H2  511   1.060   4.942   0.156
  169TIP3   OH2  512   5.265   0.945   3.578
  169TIP3    H1  513   5.307   0.860   3.566
  169TIP3    H2  514   5.256   0.954   3.673
  170TIP3   OH2  515   6.177   4.370   4.941
  170TIP3    H1  516   6.245   4.310   4.911
  170TIP3    H2  517   6.149   4.416   4.861
  171TIP3   OH2  518   3.633   4.428   0.795
  171TIP3    H1  519   3.546   4.399   0.822
  171TIP3    H2  520   3.618   4.475   0.712
  172TIP3   OH2  521   3.239   3.935   4.468
  172TIP3    H1  522   3.271   3.867   4.409
  172TIP3    H2  523   3.150   3.954   4.437
  173TIP3   OH2  524   6.199   5.293   1.391
  173TIP3    H1  525   6.291   5.292   1.417
  173TIP3    H2  526   6.183   5.383   1.363
  174TIP3   OH2  527   4.283   0.673   0.786
  174TIP3    H1  528   4.227   0.651   0.711
  174TIP3    H2  529   4.366   0.698   0.747
  175TIP3   OH2  530   2.432   2.148   4.489
  175TIP3    H1  531   2.438   2.227   4.435
  175TIP3    H2  532   2.392   2.082   4.432
  176TIP3   OH2  533   3.584   2.170   1.250
  176TIP3    H1  534   3.576   2.239   1.184
  176TIP3    H2  535   3.551   2.211   1.330
  177TIP3   OH2  536   4.789   4.309   1.105
  177TIP3    H1  537   4.860   4.329   1.044
  177TIP3    H2  538   4.786   4.385   1.163
  178TIP3   OH2  539   0.995   3.035   4.455
  178TIP3    H1  540   0.920   3.090   4.475
  178TIP3    H2  541   0.970   2.989   4.375
  179TIP3   OH2  542   5.151   5.455   2.747
  179TIP3    H1  543   5.125   5.492   2.663
  179TIP3    H2  544   5.079   5.397   2.771
  180TIP3   OH2  545   1.985   5.325   0.438
  180TIP3    H1  546   1.905   5.284   0.471
  180TIP3    H2  547   1.960   5.416   0.422
  181TIP3   OH2  548   5.552   4.564   2.979
  181TIP3    H1  549   5.491   4.571   3.052
  181TIP3    H2  550   5.561   4.654   2.948
  182TIP3   OH2  551   1.576   1.317   5.071
  182TIP3    H1  552   1.605   1.301   4.982
  182TIP3    H2  553   1.657   1.319   5.122
  183TIP3   OH2  554   3.640   2.562   4.768
  183TIP3    H1  555   3.660   2.628   4.701
  183TIP3    H2  556   3.555   2.527   4.742
  184TIP3   OH2  557   1.203   5.248   0.242
  184TIP3    H1  558   1.283   5.204   0.212
  184TIP3    H2  559   1.233   5.306   0.312
  185TIP3   OH2  560   4.748   4.503   1.289
  185TIP3    H1  561   4.788   4.514   1.375
  185TIP3    H2  562   4.654   4.509   1.305
  186TIP3   OH2  563   3.950   5.609   1.467
  186TIP3    H1  564   3.951   5.664   1.545
  186TIP3    H2  565   4.016   5.542   1.483
  187TIP3   OH2  566   5.583   0.182   0.366
  187TIP3    H1  567   5.548   0.094   0.352
  187TIP3    H2  568   5.505   0.239   0.366
  188TIP3   OH2  569   1.542   3.517   2.596
  188TIP3    H1  570   1.569   3.436   2.638
  188TIP3    H2  571   1.489   3.489   2.521
  189TIP3   OH2  572   1.653   1.090   0.761
  189TIP3    H1  573   1.640   1.083   0.667
  189TIP3    H2  574   1.740   1.055   0.776
  190TIP3   OH2  575   4.343   0.147   0.530
  190TIP3    H1  576   4.379   0.107   0.451
  190TIP3    H2  577   4.352   0.080   0.598
  191TIP3   OH2  578   4.958   2.244   3.176
  191TIP3    H1  579   5.037   2.225   3.226
  191TIP3    H2  580   4.916   2.158   3.163
  192TIP3   OH2  581   6.210   0.474   3.208
  192TIP3    H1  582   6.234   0.444   3.296
  192TIP3    H2  583   6.129   0.522   3.221
  193TIP3   OH2  584   3.803   5.734   5.005
  193TIP3    H1  585   3.777   5.699   4.919
  193TIP3    H2  586   3.876   5.792   4.985
  194TIP3   OH2  587   6.039   0.837   2.489
  194TIP3    H1  588   6.043   0.889   2.409
  194TIP3    H2  589   6.015   0.749   2.459
  195TIP3   OH2  590   3.924   3.017   0.078
  195TIP3    H1  591   3.906   3.065   0.159
  195TIP3    H2  592   3.952   2.930   0.107
  196TIP3   OH2  593   3.866   5.224   3.608
  196TIP3    H1  594   3.888   5.133   3.587
  196TIP3    H2  595   3.789   5.243   3.555
  197TIP3   OH2  596   4.126   4.417   0.883
  197TIP3    H1  597   4.041   4.456   0.862
  197TIP3    H2  598   4.186   4.455   0.818
  198TIP3   OH2  599   5.806   5.837   1.144
  198TIP3    H1  600   5.768   5.907   1.197
  198TIP3    H2  601   5.896   5.865   1.129
  199TIP3   OH2  602   2.607   3.893   4.028
  199TIP3    H1  603   2.560   3.973   4.008
  199TIP3    H2  604   2.594   3.837   3.951
  200TIP3   OH2  605   5.840   4.228   1.694
  200TIP3    H1  606   5.850   4.323   1.700
  200TIP3    H2  607   5.926   4.193   1.716
  201TIP3   OH2  608   5.831   2.757   3.050
  201TIP3    H1  609   5.758   2.699   3.070
  201TIP3    H2  610   5.789   2.838   3.022
  202TIP3   OH2  611   2.341   5.501   3.040
  202TIP3    H1  612   2.366   5.422   3.087
  202TIP3    H2  613   2.411   5.564   3.059
  203TIP3   OH2  614   1.796   2.890   4.510
  203TIP3    H1  615   1.842   2.819   4.555
  203TIP3    H2  616   1.704   2.875   4.528
  204TIP3   OH2  617   0.507   5.354   2.187
  204TIP3    H1  618   0.539   5.275   2.231
  204TIP3    H2  619   0.583   5.388   2.139
  205TIP3   OH2  620   4.599   0.734   2.354
  205TIP3    H1  621   4.603   0.683   2.273
  205TIP3    H2  622   4.523   0.791   2.342
  206TIP3   OH2  623   1.406   2.118   3.481
  206TIP3    H1  624   1.437   2.090   3.567
  206TIP3    H2  625   1.402   2.037   3.429
  207TIP3   OH2  626   1.342   1.675   0.465
  207TIP3    H1  627   1.363   1.599   0.411
  207TIP3    H2  628   1.416   1.682   0.526
  208TIP3   OH2  629   3.953   2.113   3.461
  208TIP3    H1  630   3.967   2.028   3.503
  208TIP3    H2  631   4.041   2.146   3.443
  209TIP3   OH2  632   3.004   4.740   4.003
  209TIP3    H1  633   3.092   4.713   3.979
  209TIP3    H2  634   3.009   4.760   4.096
  210TIP3   OH2  635   4.383   3.827   3.080
  210TIP3    H1  636   4.336   3.744   3.082
  210TIP3    H2  637   4.455   3.816   3.142
  211TIP3   OH2  638   5.514   2.966   0.756
  211TIP3    H1  639   5.604   2.996   0.742
  211TIP3    H2  640   5.485   3.015   0.833
  212TIP3   OH2  641   2.757   3.974   1.180
  212TIP3    H1  642   2.711   3.899   1.218
  212TIP3    H2  643   2.850   3.954   1.193
  213TIP3   OH2  644   2.497   1.631   4.577
  213TIP3    H1  645   2.489   1.535   4.579
  213TIP3    H2  646   2.455   1.657   4.496
  214TIP3   OH2  647   2.088   3.084   3.423
  214TIP3    H1  648   2.118   3.174   3.414
  214TIP3    H2  649   2.169   3.032   3.427
  215TIP3   OH2  650   0.473   2.673   3.098
  215TIP3    H1  651   0.549   2.704   3.148
  215TIP3    H2  652   0.510   2.634   3.020
  216TIP3   OH2  653   4.130   0.362   0.714
  216TIP3    H1  654   4.187   0.403   0.651
  216TIP3    H2  655   4.188   0.332   0.784
  217TIP3   OH2  656   4.645   3.011   0.589
  217TIP3    H1  657   4.644   3.010   0.685
  217TIP3    H2  658   4.572   2.954   0.564
  218TIP3   OH2  659   2.367   2.868   2.847
  218TIP3    H1  660   2.432   2.932   2.818
  218TIP3    H2  661   2.298   2.872   2.781
  219TIP3   OH2  662   3.882   4.550   0.857
  219TIP3    H1  663   3.804   4.502   0.831
  219TIP3    H2  664   3.889   4.622   0.793
  220TIP3   OH2  665   6.006   3.819   4.622
  220TIP3    H1  666   5.989   3.851   4.534
  220TIP3    H2  667   6.101   3.826   4.632
  221TIP3   OH2  668   4.553   4.267   2.022
  221TIP3    H1  669   4.562   4.247   1.928
  221TIP3    H2  670   4.590   4.190   2.066
  222TIP3   OH2  671   5.994   3.983   1.843
  222TIP3    H1  672   6.016   4.058   1.787
  222TIP3    H2  673   6.072   3.970   1.897
  223TIP3   OH2  674   5.076   1.276   4.695
  223TIP3    H1  675   5.087   1.345   4.759
  223TIP3    H2  676   5.076   1.321   4.610
  224TIP3   OH2  677   3.014   1.797   0.564
  224TIP3    H1  678   3.007   1.704   0.587
  224TIP3    H2  679   3.086   1.800   0.501
  225TIP3   OH2  680   5.103   3.623   0.623
  225TIP3    H1  681   5.113   3.529   0.609
  225TIP3    H2  682   5.101   3.633   0.718
  226TIP3   OH2  683   4.771   5.904   5.087
  226TIP3    H1  684   4.817   5.917   5.171
  226TIP3    H2  685   4.730   5.989   5.070
  227TIP3   OH2  686   2.128   2.201   2.559
  227TIP3    H1  687   2.177   2.256   2.498
  227TIP3    H2  688   2.131   2.114   2.521
  228TIP3   OH2  689   4.610   0.267   4.920
  228TIP3    H1  690   4.570   0.327   4.857
  228TIP3    H2  691   4.553   0.272   4.997
  229TIP3   OH2  692   3.162   3.073   1.718
  229TIP3    H1  693   3.139   3.042   1.806
  229TIP3    H2  694   3.255   3.052   1.709
  230TIP3   OH2  695   0.526   2.762   1.481
  230TIP3    H1  696   0.556   2.673   1.498
  230TIP3    H2  697   0.471   2.783   1.556
  231TIP3   OH2  698   4.989   5.483   3.968
  231TIP3    H1  699   5.041   5.536   3.907
  231TIP3    H2  700   4.996   5.394   3.934
  232TIP3   OH2  701   2.953   2.483   1.145
  232TIP3    H1  702   3.041   2.482   1.108
  232TIP3    H2  703   2.923   2.573   1.131
  233TIP3   OH2  704   4.790   5.574   1.019
  233TIP3    H1  705   4.756   5.592   0.931
  233TIP3    H2  706   4.867   5.630   1.027
  234TIP3   OH2  707   2.307   4.166   5.076
  234TIP3    H1  708   2.269   4.230   5.138
  234TIP3    H2  709   2.325   4.217   4.997
  235TIP3   OH2  710   0.611   4.131   4.958
  235TIP3    H1  711   0.704   4.140   4.980
  235TIP3    H2  712   0.609   4.127   4.863
  236TIP3   OH2  713   2.281   5.140   1.148
  236TIP3    H1  714   2.277   5.172   1.238
  236TIP3    H2  715   2.207   5.182   1.104
  237TIP3   OH2  716   4.444   0.933   1.423
  237TIP3    H1  717   4.441   0.965   1.333
  237TIP3    H2  718   4.504   0.993   1.468
  238TIP3   OH2  719   5.653   5.386   2.903
  238TIP3    H1  720   5.705   5.316   2.944
  238TIP3    H2  721   5.587   5.409   2.968
  239TIP3   OH2  722   1.704   5.665   3.881
  239TIP3    H1  723   1.719   5.579   3.840
  239TIP3    H2  724   1.702   5.726   3.807
  240TIP3   OH2  725   3.925   1.887   1.720
  240TIP3    H1  726   4.012   1.856   1.694
  240TIP3    H2  727   3.940   1.978   1.748
  241TIP3   OH2  728   3.388   3.943   3.334
  241TIP3    H1  729   3.333   3.982   3.402
  241TIP3    H2  730   3.447   4.013   3.308
  242TIP3   OH2  731   2.237   3.913   3.447
  242TIP3    H1  732   2.185   3.984   3.410
  242TIP3    H2  733   2.172   3.855   3.488
  243TIP3   OH2  734   3.665   4.244   1.848
  243TIP3    H1  735   3.699   4.334   1.849
  243TIP3    H2  736   3.577   4.252   1.885
  244TIP3   OH2  737   4.759   2.412   3.179
  244TIP3    H1  738   4.837   2.364   3.154
  244TIP3    H2  739   4.773   2.500   3.145
  245TIP3   OH2  740   3.216   2.168   3.828
  245TIP3    H1  741   3.303   2.147   3.862
  245TIP3    H2  742   3.217   2.137   3.738
  246TIP3   OH2  743   0.922   4.854   3.682
  246TIP3    H1  744   0.980   4.808   3.621
  246TIP3    H2  745   0.944   4.817   3.768
  247TIP3   OH2  746   3.913   2.153   2.740
  247TIP3    H1  747   3.986   2.214   2.743
  247TIP3    H2  748   3.926   2.096   2.816
  248TIP3   OH2  749   3.182   5.383   1.552
  248TIP3    H1  750   3.114   5.332   1.597
  248TIP3    H2  751   3.187   5.344   1.465
  249TIP3   OH2  752   5.107   1.356   1.800
  249TIP3    H1  753   5.166   1.389   1.733
  249TIP3    H2  754   5.149   1.380   1.883
  250TIP3   OH2  755   3.750   5.055   1.146
  250TIP3    H1  756   3.730   4.968   1.110
  250TIP3    H2  757   3.703   5.115   1.088
  251TIP3   OH2  758   4.443   5.395   0.957
  251TIP3    H1  759   4.481   5.308   0.963
  251TIP3    H2  760   4.483   5.444   1.029
  252TIP3   OH2  761   5.494   4.461   4.050
  252TIP3    H1  762   5.579   4.460   4.094
  252TIP3    H2  763   5.500   4.532   3.987
  253TIP3   OH2  764   5.737   1.706   0.009
  253TIP3    H1  765   5.646   1.732  -0.008
  253TIP3    H2  766   5.757   1.744   0.095
  254TIP3   OH2  767   1.211   4.500   2.149
  254TIP3    H1  768   1.144   4.497   2.080
  254TIP3    H2  769   1.201   4.417   2.195
  255TIP3   OH2  770   3.221   3.539   3.417
  255TIP3    H1  771   3.223   3.589   3.335
  255TIP3    H2  772   3.292   3.577   3.469
  256TIP3   OH2  773   2.242   1.671   4.069
  256TIP3    H1  774   2.231   1.731   4.143
  256TIP3    H2  775   2.202   1.589   4.098
  257TIP3   OH2  776   1.568   3.086   2.345
  257TIP3    H1  777   1.649   3.129   2.371
  257TIP3    H2  778   1.554   3.019   2.412
  258TIP3   OH2  779   4.350   1.383   1.710
  258TIP3    H1  780   4.427   1.396   1.653
  258TIP3    H2  781   4.370   1.436   1.788
  259TIP3   OH2  782   3.607   5.403   3.030
  259TIP3    H1  783   3.633   5.395   3.122
  259TIP3    H2  784   3.545   5.331   3.017
  260TIP3   OH2  785   1.454   1.130   3.677
  260TIP3    H1  786   1.394   1.060   3.706
  260TIP3    H2  787   1.403   1.180   3.613
  261TIP3   OH2  788   1.912   4.397   3.186
  261TIP3    H1  789   2.001   4.364   3.171
  261TIP3    H2  790   1.916   4.489   3.158
  262TIP3   OH2  791   2.998   3.982   4.333
  262TIP3    H1  792   2.967   3.932   4.258
  262TIP3    H2  793   2.995   4.073   4.304
  263TIP3   OH2  794   5.159   3.945   3.112
  263TIP3    H1  795   5.252   3.966   3.102
  263TIP3    H2  796   5.114   4.028   3.096
  264TIP3   OH2  797   1.997   4.006   0.066
  264TIP3    H1  798   2.037   4.091   0.083
  264TIP3    H2  799   1.930   4.024   0.000
  265TIP3   OH2  800   3.956   2.779   1.597
  265TIP3    H1  801   3.988   2.866   1.623
  265TIP3    H2  802   4.007   2.718   1.651
  266TIP3   OH2  803   2.333   3.759   4.869
  266TIP3    H1  804   2.386   3.729   4.943
  266TIP3    H2  805   2.257   3.800   4.911
  267TIP3   OH2  806   4.376   0.964   1.140
  267TIP3    H1  807   4.294   0.927   1.172
  267TIP3    H2  808   4.424   0.890   1.103
  268TIP3   OH2  809   3.495   1.126   3.963
  268TIP3    H1  810   3.457   1.163   4.043
  268TIP3    H2  811   3.578   1.087   3.992
  269TIP3   OH2  812   4.301   1.468   3.423
  269TIP3    H1  813   4.212   1.433   3.428
  269TIP3    H2  814   4.332   1.466   3.513
  270TIP3   OH2  815   5.733   4.528   4.151
  270TIP3    H1  816   5.759   4.576   4.230
  270TIP3    H2  817   5.797   4.554   4.085
  271TIP3   OH2  818   1.091   3.608   4.988
  271TIP3    H1  819   1.096   3.626   5.082
  271TIP3    H2  820   1.109   3.692   4.946
  272TIP3   OH2  821   1.255   4.681   4.492
  272TIP3    H1  822   1.270   4.774   4.507
  272TIP3    H2  823   1.272   4.640   4.577
  273TIP3   OH2  824   0.722   0.812   4.949
  273TIP3    H1  825   0.759   0.743   5.003
  273TIP3    H2  826   0.794   0.842   4.894
  274TIP3   OH2  827   1.327   5.620   4.084
  274TIP3    H1  828   1.310   5.698   4.032
  274TIP3    H2  829   1.416   5.631   4.117
  275TIP3   OH2  830   3.107   0.172   4.834
  275TIP3    H1  831   3.131   0.080   4.844
  275TIP3    H2  832   3.073   0.179   4.745
  276TIP3   OH2  833   3.857   4.258   2.961
  276TIP3    H1  834   3.814   4.339   2.932
  276TIP3    H2  835   3.786   4.203   2.993
  277TIP3   OH2  836   0.165   4.429   4.886
  277TIP3    H1  837   0.222   4.410   4.961
  277TIP3    H2  838   0.119   4.346   4.870
  278TIP3   OH2  839   2.405   3.782   1.476
  278TIP3    H1  840   2.414   3.847   1.407
  278TIP3    H2  841   2.388   3.832   1.555
  279TIP3   OH2  842   4.399   0.385   2.159
  279TIP3    H1  843   4.359   0.426   2.235
  279TIP3    H2  844   4.453   0.455   2.120
  280TIP3   OH2  845   0.936   1.955   1.422
  280TIP3    H1  846   0.944   1.890   1.491
  280TIP3    H2  847   0.853   1.934   1.379
  281TIP3   OH2  848   3.692   4.203   4.510
  281TIP3    H1  849   3.599   4.182   4.511
  281TIP3    H2  850   3.716   4.212   4.603
  282TIP3   OH2  851   1.144   2.246   4.801
  282TIP3    H1  852   1.109   2.205   4.880
  282TIP3    H2  853   1.103   2.332   4.799
  283TIP3   OH2  854   4.194   0.475   0.351
  283TIP3    H1  855   4.257   0.459   0.421
  283TIP3    H2  856   4.114   0.431   0.381
  284TIP3   OH2  857   1.332   1.166   0.153
  284TIP3    H1  858   1.403   1.106   0.176
  284TIP3    H2  859   1.376   1.239   0.109
  285TIP3   OH2  860   5.303   3.804   2.654
  285TIP3    H1  861   5.218   3.830   2.620
  285TIP3    H2  862   5.342   3.752   2.584
  286TIP3   OH2  863   4.437   2.299   2.276
  286TIP3    H1  864   4.521   2.303   2.322
  286TIP3    H2  865   4.428   2.385   2.236
  287TIP3   OH2  866   5.024   5.124   3.455
  287TIP3    H1  867   4.954   5.089   3.401
  287TIP3    H2  868   4.981   5.153   3.535
  288TIP3   OH2  869   6.156   2.667   0.453
  288TIP3    H1  870   6.090   2.670   0.522
  288TIP3    H2  871   6.106   2.658   0.372
  289TIP3   OH2  872   5.032   2.410   1.462
  289TIP3    H1  873   5.060   2.452   1.544
  289TIP3    H2  874   5.091   2.446   1.396
  290TIP3   OH2  875   1.553   1.778   2.912
  290TIP3    H1  876   1.500   1.851   2.880
  290TIP3    H2  877   1.635   1.784   2.862
  291TIP3   OH2  878   1.627   0.176   0.033
  291TIP3    H1  879   1.699   0.176   0.096
  291TIP3    H2  880   1.591   0.088   0.038
  292TIP3   OH2  881   4.827   4.460   0.510
  292TIP3    H1  882   4.910   4.411   0.511
  292TIP3    H2  883   4.854   4.550   0.494
  293TIP3   OH2  884   0.532   3.365   4.257
  293TIP3    H1  885   0.495   3.453   4.263
  293TIP3    H2  886   0.545   3.350   4.163
  294TIP3   OH2  887   4.429   4.957   2.077
  294TIP3    H1  888   4.428   4.975   1.983
  294TIP3    H2  889   4.485   5.025   2.114
  295TIP3   OH2  890   0.399   1.550   4.064
  295TIP3    H1  891   0.327   1.571   4.004
  295TIP3    H2  892   0.478   1.578   4.018
  296TIP3   OH2  893   6.245   3.664   4.185
  296TIP3    H1  894   6.317   3.643   4.124
  296TIP3    H2  895   6.191   3.585   4.184
  297TIP3   OH2  896   3.607   5.881   5.124
  297TIP3    H1  897   3.575   5.826   5.195
  297TIP3    H2  898   3.676   5.830   5.082
  298TIP3   OH2  899   0.665   2.215   1.464
  298TIP3    H1  900   0.659   2.127   1.501
  298TIP3    H2  901   0.673   2.200   1.370
  299TIP3   OH2  902   2.943   5.976   4.246
  299TIP3    H1  903   2.997   5.899   4.263
  299TIP3    H2  904   2.853   5.947   4.264
  300TIP3   OH2  905   3.928   3.586   0.918
  300TIP3    H1  906   4.013   3.553   0.889
  300TIP3    H2  907   3.948   3.660   0.975
  301TIP3   OH2  908   2.481   5.732   3.331
  301TIP3    H1  909   2.514   5.686   3.253
  301TIP3    H2  910   2.422   5.669   3.373
  302TIP3   OH2  911   6.140   0.109   2.645
  302TIP3    H1  912   6.164   0.078   2.732
  302TIP3    H2  913   6.206   0.177   2.625
  303TIP3   OH2  914   1.772   5.550   4.264
  303TIP3    H1  915   1.847   5.594   4.224
  303TIP3    H2  916   1.803   5.523   4.351
  304TIP3   OH2  917   1.381   5.523   4.920
  304TIP3    H1  918   1.426   5.515   4.836
  304TIP3    H2  919   1.288   5.512   4.898
  305TIP3   OH2  920   3.946   3.494   1.538
  305TIP3    H1  921   3.883   3.439   1.584
  305TIP3    H2  922   3.899   3.524   1.460
  306TIP3   OH2  923   6.227   4.068   2.550
  306TIP3    H1  924   6.221   4.151   2.599
  306TIP3    H2  925   6.226   4.095   2.458
  307TIP3   OH2  926   5.040   5.021   0.409
  307TIP3    H1  927   4.977   4.977   0.466
  307TIP3    H2  928   5.011   5.000   0.320
  308TIP3   OH2  929   5.358   0.175   3.501
  308TIP3    H1  930   5.394   0.093   3.468
  308TIP3    H2  931   5.285   0.195   3.443
  309TIP3   OH2  932   3.668   4.940   2.220
  309TIP3    H1  933   3.755   4.949   2.181
  309TIP3    H2  934   3.621   5.019   2.192
  310TIP3   OH2  935   0.670   0.482   3.846
  310TIP3    H1  936   0.713   0.517   3.924
  310TIP3    H2  937   0.661   0.556   3.787
  311TIP3   OH2  938   4.984   5.991   1.792
  311TIP3    H1  939   4.930   5.964   1.718
  311TIP3    H2  940   5.058   5.930   1.791
  312TIP3   OH2  941   0.986   5.744   1.202
  312TIP3    H1  942   1.015   5.678   1.139
  312TIP3    H2  943   1.031   5.720   1.283
  313TIP3   OH2  944   4.449   0.389   4.703
  313TIP3    H1  945   4.471   0.371   4.612
  313TIP3    H2  946   4.461   0.484   4.712
  314TIP3   OH2  947   1.257   1.175   1.895
  314TIP3    H1  948   1.349   1.149   1.891
  314TIP3    H2  949   1.254   1.262   1.855
  315TIP3   OH2  950   2.504   4.457   5.072
  315TIP3    H1  951   2.560   4.534   5.074
  315TIP3    H2  952   2.560   4.387   5.040
  316TIP3   OH2  953   1.590   4.550   1.181
  316TIP3    H1  954   1.673   4.592   1.204
  316TIP3    H2  955   1.570   4.494   1.256
  317TIP3   OH2  956   4.777   4.010   4.856
  317TIP3    H1  957   4.700   4.005   4.799
  317TIP3    H2  958   4.842   3.955   4.813
  318TIP3   OH2  959   2.266   5.541   1.885
  318TIP3    H1  960   2.303   5.453   1.880
  318TIP3    H2  961   2.199   5.535   1.953
  319TIP3   OH2  962   0.493   5.686   2.961
  319TIP3    H1  963   0.566   5.624   2.962
  319TIP3    H2  964   0.466   5.690   2.870
  320TIP3   OH2  965   0.864   1.467   5.138
  320TIP3    H1  966   0.913   1.547   5.117
  320TIP3    H2  967   0.928   1.397   5.129
  321TIP3   OH2  968   0.210   0.334   3.897
  321TIP3    H1  969   0.231   0.242   3.884
  321TIP3    H2  970   0.116   0.335   3.915
  322TIP3   OH2  971   2.362   0.973   0.334
  322TIP3    H1  972   2.451   0.940   0.343
  322TIP3    H2  973   2.307   0.896   0.342
  323TIP3   OH2  974   1.462   0.926   4.839
  323TIP3    H1  975   1.382   0.873   4.837
  323TIP3    H2  976   1.533   0.863   4.822
  324TIP3   OH2  977   0.202   4.629   0.578
  324TIP3    H1  978   0.193   4.724   0.579
  324TIP3    H2  979   0.142   4.598   0.646
  325TIP3   OH2  980   4.875   3.953   0.502
  325TIP3    H1  981   4.836   3.876   0.541
  325TIP3    H2  982   4.951   3.921   0.454
  326TIP3   OH2  983   0.810   2.287   3.872
  326TIP3    H1  984   0.900   2.314   3.852
  326TIP3    H2  985   0.800   2.306   3.966
  327TIP3   OH2  986   3.941   5.772   0.305
  327TIP3    H1  987   3.902   5.686   0.289
  327TIP3    H2  988   4.035   5.756   0.310
  328TIP3   OH2  989   5.072   1.027   1.126
  328TIP3    H1  990   5.002   0.961   1.119
  328TIP3    H2  991   5.122   1.001   1.203
  329TIP3   OH2  992   3.534   3.544   1.332
  329TIP3    H1  993   3.498   3.594   1.258
  329TIP3    H2  994   3.488   3.461   1.329
  330TIP3   OH2  995   2.844   3.838   4.144
  330TIP3    H1  996   2.767   3.848   4.088
  330TIP3    H2  997   2.827   3.760   4.196
  331TIP3   OH2  998   3.747   5.112   4.607
  331TIP3    H1  999   3.771   5.160   4.686
  331TIP3    H2 1000   3.658   5.081   4.623
  332TIP3   OH2 1001   2.612   3.803   0.695
  332TIP3    H1 1002   2.517   3.804   0.686
  332TIP3    H2 1003   2.631   3.868   0.763
  333TIP3   OH2 1004   2.663   5.785   1.360
  333TIP3    H1 1005   2.643   5.877   1.377
  333TIP3    H2 1006   2.579   5.740   1.371
  334TIP3   OH2 1007   1.080   5.912   0.901
  334TIP3    H1 1008   1.171   5.901   0.928
  334TIP3    H2 1009   1.057   6.000   0.932
  335TIP3   OH2 1010   1.125   0.250   2.490
  335TIP3    H1 1011   1.140   0.339   2.524
  335TIP3    H2 1012   1.193   0.197   2.532
  336TIP3   OH2 1013   3.860   4.824   4.190
  336TIP3    H1 1014   3.809   4.818   4.109
  336TIP3    H2 1015   3.828   4.903   4.233
  337TIP3   OH2 1016   1.029   3.770   0.364
  337TIP3    H1 1017   0.967   3.722   0.309
  337TIP3    H2 1018   1.035   3.718   0.444
  338TIP3   OH2 1019   4.208   3.709   4.237
  338TIP3    H1 1020   4.137   3.708   4.302
  338TIP3    H2 1021   4.200   3.794   4.194
  339TIP3   OH2 1022   1.456   5.863   3.325
  339TIP3    H1 1023   1.408   5.931   3.276
  339TIP3    H2 1024   1.540   5.903   3.345
  340TIP3   OH2 1025   6.098   0.612   1.786
  340TIP3    H1 1026   6.115   0.705   1.803
  340TIP3    H2 1027   6.093   0.606   1.691
  341TIP3   OH2 1028   2.628   1.542   3.460
  341TIP3    H1 1029   2.593   1.627   3.433
  341TIP3    H2 1030   2.571   1.513   3.532
  342TIP3   OH2 1031   5.069   5.038   4.931
  342TIP3    H1 1032   5.015   5.020   5.008
  342TIP3    H2 1033   5.157   5.052   4.965
  343TIP3   OH2 1034   4.460   0.707   4.031
  343TIP3    H1 1035   4.368   0.698   4.008
  343TIP3    H2 1036   4.507   0.661   3.961
  344TIP3   OH2 1037   5.486   2.986   3.326
  344TIP3    H1 1038   5.547   2.912   3.328
  344TIP3    H2 1039   5.434   2.972   3.246
  345TIP3   OH2 1040   5.181   3.147   3.658
  345TIP3    H1 1041   5.249   3.158   3.725
  345TIP3    H2 1042   5.161   3.054   3.658
  346TIP3   OH2 1043   0.081   3.245   0.663
  346TIP3    H1 1044   0.050   3.164   0.623
  346TIP3    H2 1045   0.141   3.282   0.599
  347TIP3   OH2 1046   5.809   4.613   3.481
  347TIP3    H1 1047   5.755   4.681   3.440
  347TIP3    H2 1048   5.747   4.544   3.505
  348TIP3   OH2 1049   4.978   1.087   3.616
  348TIP3    H1 1050   5.050   1.062   3.674
  348TIP3    H2 1051   4.944   1.005   3.582
  349TIP3   OH2 1052   4.711   1.037   4.658
  349TIP3    H1 1053   4.768   0.962   4.640
  349TIP3    H2 1054   4.738   1.067   4.745
  350TIP3   OH2 1055   0.687   5.551   2.786
  350TIP3    H1 1056   0.717   5.462   2.767
  350TIP3    H2 1057   0.745   5.581   2.856
  351TIP3   OH2 1058   3.820   3.508   0.399
  351TIP3    H1 1059   3.901   3.527   0.444
  351TIP3    H2 1060   3.847   3.484   0.310
  352TIP3   OH2 1061   4.301   5.879   1.350
  352TIP3    H1 1062   4.321   5.869   1.257
  352TIP3    H2 1063   4.361   5.818   1.393
  353TIP3   OH2 1064   1.887   5.923   2.683
  353TIP3    H1 1065   1.917   6.014   2.674
  353TIP3    H2 1066   1.803   5.930   2.729
  354TIP3   OH2 1067   4.661   4.606   4.881
  354TIP3    H1 1068   4.615   4.655   4.950
  354TIP3    H2 1069   4.630   4.646   4.800
  355TIP3   OH2 1070   2.030   3.499   2.922
  355TIP3    H1 1071   2.003   3.540   3.004
  355TIP3    H2 1072   2.124   3.515   2.916
  356TIP3   OH2 1073   3.046   0.204   2.875
  356TIP3    H1 1074   3.138   0.187   2.893
  356TIP3    H2 1075   3.047   0.279   2.815
  357TIP3   OH2 1076   1.052   4.961   2.830
  357TIP3    H1 1077   1.146   4.945   2.829
  357TIP3    H2 1078   1.040   5.029   2.897
  358TIP3   OH2 1079   3.305   3.948   0.681
  358TIP3    H1 1080   3.270   3.959   0.769
  358TIP3    H2 1081   3.302   3.854   0.665
  359TIP3   OH2 1082   5.794   1.611   3.221
  359TIP3    H1 1083   5.718   1.667   3.237
  359TIP3    H2 1084   5.759   1.522   3.218
  360TIP3   OH2 1085   2.460   1.132   0.834
  360TIP3    H1 1086   2.371   1.103   0.815
  360TIP3    H2 1087   2.463   1.139   0.930
  361TIP3   OH2 1088   3.636   1.636   0.825
  361TIP3    H1 1089   3.667   1.723   0.849
  361TIP3    H2 1090   3.703   1.576   0.859
  362TIP3   OH2 1091   4.156   1.018   1.723
  362TIP3    H1 1092   4.188   0.928   1.712
  362TIP3    H2 1093   4.092   1.012   1.794
  363TIP3   OH2 1094   5.021   1.201   4.026
  363TIP3    H1 1095   5.033   1.168   4.115
  363TIP3    H2 1096   5.083   1.274   4.020
  364TIP3   OH2 1097   1.956   0.413   2.745
  364TIP3    H1 1098   2.045   0.434   2.719
  364TIP3    H2 1099   1.934   0.477   2.813
  365TIP3   OH2 1100   2.264   4.600   4.765
  365TIP3    H1 1101   2.338   4.563   4.715
  365TIP3    H2 1102   2.290   4.591   4.857
  366TIP3   OH2 1103   2.302   3.047   2.138
  366TIP3    H1 1104   2.239   3.118   2.125
  366TIP3    H2 1105   2.374   3.068   2.079
  367TIP3   OH2 1106   0.605   1.599   3.145
  367TIP3    H1 1107   0.635   1.606   3.235
  367TIP3    H2 1108   0.538   1.667   3.137
  368TIP3   OH2 1109   2.537   2.276   3.594
  368TIP3    H1 1110   2.601   2.205   3.598
  368TIP3    H2 1111   2.455   2.234   3.572
  369TIP3   OH2 1112   4.865   2.434   4.415
  369TIP3    H1 1113   4.797   2.445   4.348
  369TIP3    H2 1114   4.938   2.393   4.369
  370TIP3   OH2 1115   1.972   0.037   5.009
  370TIP3    H1 1116   2.057   0.007   5.042
  370TIP3    H2 1117   1.917   0.044   5.088
  371TIP3   OH2 1118   1.438   0.749   3.427
  371TIP3    H1 1119   1.442   0.829   3.375
  371TIP3    H2 1120   1.425   0.679   3.362
  372TIP3   OH2 1121   5.357   1.341   3.519
  372TIP3    H1 1122   5.410   1.338   3.598
  372TIP3    H2 1123   5.329   1.250   3.504
  373TIP3   OH2 1124   1.394   1.458   0.322
  373TIP3    H1 1125   1.312   1.412   0.333
  373TIP3    H2 1126   1.461   1.398   0.356
  374TIP3   OH2 1127   1.737   1.625   0.942
  374TIP3    H1 1128   1.729   1.566   1.017
  374TIP3    H2 1129   1.656   1.612   0.892
  375TIP3   OH2 1130   5.960   1.332   0.248
  375TIP3    H1 1131   6.048   1.298   0.230
  375TIP3    H2 1132   5.957   1.416   0.202
  376TIP3   OH2 1133   1.661   0.203   3.907
  376TIP3    H1 1134   1.718   0.199   3.831
  376TIP3    H2 1135   1.721   0.200   3.982
  377TIP3   OH2 1136   5.145   2.861   4.723
  377TIP3    H1 1137   5.168   2.787   4.666
  377TIP3    H2 1138   5.063   2.894   4.687
  378TIP3   OH2 1139   6.152   5.107   4.262
  378TIP3    H1 1140   6.067   5.065   4.258
  378TIP3    H2 1141   6.132   5.201   4.267
  379TIP3   OH2 1142   2.317   0.016   4.927
  379TIP3    H1 1143   2.353   0.075   4.993
  379TIP3    H2 1144   2.273  -0.053   4.976
  380TIP3   OH2 1145   0.742   0.216   0.154
  380TIP3    H1 1146   0.830   0.251   0.165
  380TIP3    H2 1147   0.700   0.228   0.239
  381TIP3   OH2 1148   1.947   3.944   4.412
  381TIP3    H1 1149   1.952   3.854   4.381
  381TIP3    H2 1150   1.946   3.997   4.332
  382TIP3   OH2 1151   4.780   0.038   2.688
  382TIP3    H1 1152   4.771   0.132   2.702
  382TIP3    H2 1153   4.703   0.014   2.635
  383TIP3   OH2 1154   1.970   0.937   3.040
  383TIP3    H1 1155   2.010   0.859   3.001
  383TIP3    H2 1156   1.978   0.923   3.134
  384TIP3   OH2 1157   0.311   1.043   2.502
  384TIP3    H1 1158   0.402   1.018   2.519
  384TIP3    H2 1159   0.315   1.105   2.430
  385TIP3   OH2 1160   3.961   3.638   4.576
  385TIP3    H1 1161   3.937   3.587   4.653
  385TIP3    H2 1162   3.938   3.728   4.599
  386TIP3   OH2 1163   4.779   2.555   1.497
  386TIP3    H1 1164   4.833   2.495   1.445
  386TIP3    H2 1165   4.725   2.498   1.551
  387TIP3   OH2 1166   3.312   4.253   4.282
  387TIP3    H1 1167   3.366   4.227   4.357
  387TIP3    H2 1168   3.374   4.263   4.210
  388TIP3   OH2 1169   2.152   5.514   0.277
  388TIP3    H1 1170   2.133   5.606   0.296
  388TIP3    H2 1171   2.234   5.517   0.227
  389TIP3   OH2 1172   2.847   3.254   4.193
  389TIP3    H1 1173   2.935   3.223   4.212
  389TIP3    H2 1174   2.801   3.178   4.158
  390TIP3   OH2 1175   5.491   4.032   4.655
  390TIP3    H1 1176   5.489   4.068   4.744
  390TIP3    H2 1177   5.434   4.091   4.605
  391TIP3   OH2 1178   4.369   0.467   1.701
  391TIP3    H1 1179   4.395   0.382   1.663
  391TIP3    H2 1180   4.280   0.453   1.731
  392TIP3   OH2 1181   2.584   5.163   3.013
  392TIP3    H1 1182   2.586   5.082   3.064
  392TIP3    H2 1183   2.515   5.149   2.948
  393TIP3   OH2 1184   1.661   2.225   1.724
  393TIP3    H1 1185   1.584   2.207   1.670
  393TIP3    H2 1186   1.640   2.186   1.809
  394TIP3   OH2 1187   6.122   1.649   1.964
  394TIP3    H1 1188   6.182   1.701   2.018
  394TIP3    H2 1189   6.035   1.676   1.992
  395TIP3   OH2 1190   4.454   2.519   3.105
  395TIP3    H1 1191   4.394   2.554   3.038
  395TIP3    H2 1192   4.541   2.538   3.072
  396TIP3   OH2 1193   0.914   1.228   0.551
  396TIP3    H1 1194   0.917   1.145   0.598
  396TIP3    H2 1195   1.002   1.265   0.561
  397TIP3   OH2 1196   1.506   0.273   3.521
  397TIP3    H1 1197   1.565   0.240   3.454
  397TIP3    H2 1198   1.538   0.362   3.540
  398TIP3   OH2 1199   1.679   1.276   4.362
  398TIP3    H1 1200   1.614   1.308   4.424
  398TIP3    H2 1201   1.731   1.213   4.412
  399TIP3   OH2 1202   4.892   0.283   4.983
  399TIP3    H1 1203   4.894   0.343   5.057
  399TIP3    H2 1204   4.799   0.277   4.959
  400TIP3   OH2 1205   4.940   3.243   2.496
  400TIP3    H1 1206   5.022   3.234   2.447
  400TIP3    H2 1207   4.927   3.337   2.504
  401TIP3   OH2 1208   3.217   1.923   4.073
  401TIP3    H1 1209   3.196   2.016   4.064
  401TIP3    H2 1210   3.226   1.892   3.982
  402TIP3   OH2 1211   4.600   0.156   1.164
  402TIP3    H1 1212   4.614   0.097   1.089
  402TIP3    H2 1213   4.587   0.242   1.124
  403TIP3   OH2 1214   2.928   0.847   1.437
  403TIP3    H1 1215   2.871   0.772   1.456
  403TIP3    H2 1216   2.872   0.923   1.450
  404TIP3   OH2 1217   2.152   5.828   2.751
  404TIP3    H1 1218   2.157   5.734   2.773
  404TIP3    H2 1219   2.059   5.844   2.738
  405TIP3   OH2 1220   3.852   3.018   4.500
  405TIP3    H1 1221   3.802   3.039   4.579
  405TIP3    H2 1222   3.893   3.100   4.475
  406TIP3   OH2 1223   1.619   3.184   4.226
  406TIP3    H1 1224   1.583   3.096   4.218
  406TIP3    H2 1225   1.579   3.219   4.305
  407TIP3   OH2 1226   5.919   4.534   1.783
  407TIP3    H1 1227   6.003   4.571   1.754
  407TIP3    H2 1228   5.856   4.566   1.719
  408TIP3   OH2 1229   1.897   0.548   2.962
  408TIP3    H1 1230   1.942   0.601   3.028
  408TIP3    H2 1231   1.849   0.483   3.013
  409TIP3   OH2 1232   0.472   2.838   4.644
  409TIP3    H1 1233   0.553   2.846   4.592
  409TIP3    H2 1234   0.402   2.854   4.581
  410TIP3   OH2 1235   5.477   2.183   2.546
  410TIP3    H1 1236   5.398   2.174   2.599
  410TIP3    H2 1237   5.539   2.122   2.585
  411TIP3   OH2 1238   5.123   0.851   3.217
  411TIP3    H1 1239   5.134   0.840   3.122
  411TIP3    H2 1240   5.184   0.788   3.256
  412TIP3   OH2 1241   1.115   4.918   0.439
  412TIP3    H1 1242   1.112   5.008   0.471
  412TIP3    H2 1243   1.202   4.886   0.464
  413TIP3   OH2 1244   5.504   2.962   0.094
  413TIP3    H1 1245   5.561   2.937   0.166
  413TIP3    H2 1246   5.531   2.905   0.021
  414TIP3   OH2 1247   6.333   0.743   3.583
  414TIP3    H1 1248   6.268   0.767   3.517
  414TIP3    H2 1249   6.384   0.822   3.598
  415TIP3   OH2 1250   2.383   4.246   0.042
  415TIP3    H1 1251   2.441   4.311   0.081
  415TIP3    H2 1252   2.339   4.206   0.117
  416TIP3   OH2 1253   4.897   2.402   3.510
  416TIP3    H1 1254   4.892   2.330   3.447
  416TIP3    H2 1255   4.956   2.466   3.469
  417TIP3   OH2 1256   3.478   2.081   4.088
  417TIP3    H1 1257   3.439   2.168   4.100
  417TIP3    H2 1258   3.488   2.047   4.176
  418TIP3   OH2 1259   1.978   1.286   4.622
  418TIP3    H1 1260   2.047   1.272   4.557
  418TIP3    H2 1261   2.022   1.275   4.706
  419TIP3   OH2 1262   4.086   2.653   3.318
  419TIP3    H1 1263   3.999   2.692   3.323
  419TIP3    H2 1264   4.070   2.559   3.319
  420TIP3   OH2 1265   1.866   1.852   0.967
  420TIP3    H1 1266   1.794   1.799   0.933
  420TIP3    H2 1267   1.838   1.875   1.056
  421TIP3   OH2 1268   1.843   1.271   4.128
  421TIP3    H1 1269   1.792   1.320   4.064
  421TIP3    H2 1270   1.790   1.273   4.207
  422TIP3   OH2 1271   2.473   5.352   2.625
  422TIP3    H1 1272   2.417   5.421   2.661
  422TIP3    H2 1273   2.418   5.306   2.562
  423TIP3   OH2 1274   3.828   1.421   0.875
  423TIP3    H1 1275   3.776   1.342   0.887
  423TIP3    H2 1276   3.916   1.396   0.905
  424TIP3   OH2 1277   5.291   4.872   3.003
  424TIP3    H1 1278   5.366   4.861   2.945
  424TIP3    H2 1279   5.316   4.827   3.084
  425TIP3   OH2 1280   2.066   0.578   4.288
  425TIP3    H1 1281   2.088   0.562   4.380
  425TIP3    H2 1282   1.970   0.574   4.285
  426TIP3   OH2 1283   4.949   5.860   4.184
  426TIP3    H1 1284   4.940   5.914   4.262
  426TIP3    H2 1285   5.029   5.809   4.200
  427TIP3   OH2 1286   4.257   1.146   3.357
  427TIP3    H1 1287   4.166   1.171   3.341
  427TIP3    H2 1288   4.272   1.168   3.449
  428TIP3   OH2 1289   4.452   5.708   3.509
  428TIP3    H1 1290   4.377   5.723   3.565
  428TIP3    H2 1291   4.426   5.743   3.424
  429TIP3   OH2 1292   3.953   3.768   1.567
  429TIP3    H1 1293   3.947   3.673   1.575
  429TIP3    H2 1294   4.018   3.794   1.633
  430TIP3   OH2 1295   0.466   5.867   2.452
  430TIP3    H1 1296   0.475   5.773   2.438
  430TIP3    H2 1297   0.375   5.879   2.478
  431TIP3   OH2 1298   0.928   0.144   0.577
  431TIP3    H1 1299   0.892   0.056   0.589
  431TIP3    H2 1300   1.015   0.130   0.540
  432TIP3   OH2 1301   1.360   5.387   1.018
  432TIP3    H1 1302   1.372   5.326   0.946
  432TIP3    H2 1303   1.408   5.349   1.091
  433TIP3   OH2 1304   4.105   3.940   4.425
  433TIP3    H1 1305   4.035   3.913   4.485
  433TIP3    H2 1306   4.185   3.908   4.465
  434TIP3   OH2 1307   4.531   0.793   0.281
  434TIP3    H1 1308   4.599   0.834   0.335
  434TIP3    H2 1309   4.492   0.726   0.337
  435TIP3   OH2 1310   5.631   5.603   3.391
  435TIP3    H1 1311   5.614   5.509   3.386
  435TIP3    H2 1312   5.636   5.632   3.300
  436TIP3   OH2 1313   0.729   5.960   0.331
  436TIP3    H1 1314   0.687   5.875   0.318
  436TIP3    H2 1315   0.818   5.938   0.361
  437TIP3   OH2 1316   4.825   1.967   4.357
  437TIP3    H1 1317   4.801   1.907   4.428
  437TIP3    H2 1318   4.841   2.051   4.401
  438TIP3   OH2 1319   1.356   4.816   1.849
  438TIP3    H1 1320   1.342   4.736   1.797
  438TIP3    H2 1321   1.270   4.858   1.851
  439TIP3   OH2 1322   2.234   4.858   3.746
  439TIP3    H1 1323   2.194   4.775   3.720
  439TIP3    H2 1324   2.160   4.918   3.754
  440TIP3   OH2 1325   2.927   5.772   1.431
  440TIP3    H1 1326   2.974   5.829   1.371
  440TIP3    H2 1327   2.834   5.786   1.410
  441TIP3   OH2 1328   1.114   0.445   1.463
  441TIP3    H1 1329   1.170   0.385   1.413
  441TIP3    H2 1330   1.170   0.475   1.535
  442TIP3   OH2 1331   3.361   3.587   2.379
  442TIP3    H1 1332   3.358   3.623   2.468
  442TIP3    H2 1333   3.370   3.663   2.322
  443TIP3   OH2 1334   1.885   5.712   0.902
  443TIP3    H1 1335   1.821   5.755   0.845
  443TIP3    H2 1336   1.915   5.637   0.851
  444TIP3   OH2 1337   2.905   2.164   2.254
  444TIP3    H1 1338   2.874   2.225   2.320
  444TIP3    H2 1339   2.962   2.103   2.302
  445TIP3   OH2 1340   5.272   1.893   1.264
  445TIP3    H1 1341   5.339   1.856   1.322
  445TIP3    H2 1342   5.203   1.923   1.323
  446TIP3   OH2 1343   5.206   4.130   5.025
  446TIP3    H1 1344   5.272   4.065   5.000
  446TIP3    H2 1345   5.189   4.179   4.945
  447TIP3   OH2 1346   0.704   5.885   3.563
  447TIP3    H1 1347   0.650   5.822   3.610
  447TIP3    H2 1348   0.641   5.939   3.515
  448TIP3   OH2 1349   2.486   4.523   0.134
  448TIP3    H1 1350   2.504   4.605   0.179
  448TIP3    H2 1351   2.566   4.503   0.086
  449TIP3   OH2 1352   2.543   0.005   3.516
  449TIP3    H1 1353   2.512   0.090   3.482
  449TIP3    H2 1354   2.470  -0.055   3.499
  450TIP3   OH2 1355   6.311   2.461   4.584
  450TIP3    H1 1356   6.385   2.402   4.599
  450TIP3    H2 1357   6.241   2.427   4.640
  451TIP3   OH2 1358   4.008   4.439   1.709
  451TIP3    H1 1359   3.920   4.467   1.732
  451TIP3    H2 1360   3.998   4.351   1.673
  452TIP3   OH2 1361   2.453   5.862   2.216
  452TIP3    H1 1362   2.503   5.902   2.145
  452TIP3    H2 1363   2.365   5.899   2.207
  453TIP3   OH2 1364   1.128   1.800   0.582
  453TIP3    H1 1365   1.203   1.761   0.537
  453TIP3    H2 1366   1.155   1.890   0.601
  454TIP3   OH2 1367   0.380   3.880   0.251
  454TIP3    H1 1368   0.461   3.930   0.256
  454TIP3    H2 1369   0.312   3.946   0.235
  455TIP3   OH2 1370   2.794   3.618   0.300
  455TIP3    H1 1371   2.769   3.673   0.225
  455TIP3    H2 1372   2.867   3.566   0.268
  456TIP3   OH2 1373   4.360   3.831   1.564
  456TIP3    H1 1374   4.330   3.772   1.495
  456TIP3    H2 1375   4.292   3.827   1.631
  457TIP3   OH2 1376   6.059   0.891   0.061
  457TIP3    H1 1377   6.064   0.796   0.076
  457TIP3    H2 1378   5.965   0.907   0.046
  458TIP3   OH2 1379   1.186   4.758   2.221
  458TIP3    H1 1380   1.256   4.793   2.277
  458TIP3    H2 1381   1.209   4.666   2.209
  459TIP3   OH2 1382   4.284   0.753   1.751
  459TIP3    H1 1383   4.342   0.678   1.757
  459TIP3    H2 1384   4.292   0.798   1.835
  460TIP3   OH2 1385   1.994   2.387   1.826
  460TIP3    H1 1386   1.968   2.382   1.734
  460TIP3    H2 1387   1.990   2.296   1.858
  461TIP3   OH2 1388   1.350   0.930   4.300
  461TIP3    H1 1389   1.356   0.995   4.370
  461TIP3    H2 1390   1.432   0.937   4.252
  462TIP3   OH2 1391   4.233   2.770   4.365
  462TIP3    H1 1392   4.182   2.780   4.446
  462TIP3    H2 1393   4.258   2.860   4.342
  463TIP3   OH2 1394   5.126   3.718   4.217
  463TIP3    H1 1395   5.040   3.692   4.182
  463TIP3    H2 1396   5.189   3.666   4.167
  464TIP3   OH2 1397   4.605   0.130   1.805
  464TIP3    H1 1398   4.517   0.136   1.840
  464TIP3    H2 1399   4.642   0.218   1.819
  465TIP3   OH2 1400   5.269   1.214   2.249
  465TIP3    H1 1401   5.183   1.172   2.243
  465TIP3    H2 1402   5.304   1.185   2.333
  466TIP3   OH2 1403   0.292   3.039   0.828
  466TIP3    H1 1404   0.326   3.003   0.910
  466TIP3    H2 1405   0.296   2.966   0.767
  467TIP3   OH2 1406   1.379   0.842   2.231
  467TIP3    H1 1407   1.456   0.894   2.205
  467TIP3    H2 1408   1.380   0.845   2.326
  468TIP3   OH2 1409   6.014   3.461   4.211
  468TIP3    H1 1410   5.979   3.503   4.290
  468TIP3    H2 1411   6.048   3.377   4.242
  469TIP3   OH2 1412   0.078   2.958   4.900
  469TIP3    H1 1413   0.137   3.033   4.914
  469TIP3    H2 1414   0.136   2.885   4.879
  470TIP3   OH2 1415   2.990   3.899   0.664
  470TIP3    H1 1416   2.972   3.916   0.757
  470TIP3    H2 1417   2.915   3.848   0.635
  471TIP3   OH2 1418   3.763   1.714   1.627
  471TIP3    H1 1419   3.727   1.755   1.547
  471TIP3    H2 1420   3.826   1.778   1.660
  472TIP3   OH2 1421   1.306   0.032   1.806
  472TIP3    H1 1422   1.337  -0.040   1.860
  472TIP3    H2 1423   1.330   0.008   1.716
  473TIP3   OH2 1424   5.217   1.990   4.088
  473TIP3    H1 1425   5.174   1.999   4.173
  473TIP3    H2 1426   5.263   1.906   4.093
  474TIP3   OH2 1427   6.158   4.367   3.659
  474TIP3    H1 1428   6.137   4.453   3.695
  474TIP3    H2 1429   6.170   4.310   3.735
  475TIP3   OH2 1430   2.075   2.373   3.277
  475TIP3    H1 1431   2.128   2.303   3.240
  475TIP3    H2 1432   2.138   2.431   3.321
  476TIP3   OH2 1433   6.108   3.162   0.194
  476TIP3    H1 1434   6.012   3.161   0.190
  476TIP3    H2 1435   6.128   3.177   0.286
  477TIP3   OH2 1436   0.499   0.064   0.988
  477TIP3    H1 1437   0.435   0.103   1.048
  477TIP3    H2 1438   0.451  -0.006   0.944
  478TIP3   OH2 1439   1.464   1.945   0.112
  478TIP3    H1 1440   1.498   1.966   0.025
  478TIP3    H2 1441   1.395   2.009   0.127
  479TIP3   OH2 1442   1.133   4.107   5.069
  479TIP3    H1 1443   1.210   4.049   5.066
  479TIP3    H2 1444   1.167   4.190   5.102
  480TIP3   OH2 1445   5.815   5.926   4.704
  480TIP3    H1 1446   5.855   5.923   4.791
  480TIP3    H2 1447   5.832   6.015   4.673
  481TIP3   OH2 1448   3.360   3.773   2.591
  481TIP3    H1 1449   3.388   3.785   2.682
  481TIP3    H2 1450   3.413   3.837   2.542
  482TIP3   OH2 1451   2.422   0.216   3.399
  482TIP3    H1 1452   2.344   0.205   3.344
  482TIP3    H2 1453   2.425   0.310   3.418
  483TIP3   OH2 1454   6.257   0.132   1.640
  483TIP3    H1 1455   6.309   0.138   1.559
  483TIP3    H2 1456   6.195   0.204   1.633
  484TIP3   OH2 1457   5.861   1.386   2.627
  484TIP3    H1 1458   5.887   1.477   2.643
  484TIP3    H2 1459   5.775   1.394   2.584
  485TIP3   OH2 1460   2.493   1.677   1.512
  485TIP3    H1 1461   2.586   1.693   1.496
  485TIP3    H2 1462   2.451   1.762   1.504
  486TIP3   OH2 1463   4.781   2.719   0.523
  486TIP3    H1 1464   4.826   2.636   0.542
  486TIP3    H2 1465   4.689   2.701   0.546
  487TIP3   OH2 1466   0.389   1.076   1.249
  487TIP3    H1 1467   0.477   1.115   1.257
  487TIP3    H2 1468   0.399   0.988   1.285
  488TIP3   OH2 1469   1.741   2.433   2.930
  488TIP3    H1 1470   1.702   2.435   2.842
  488TIP3    H2 1471   1.718   2.517   2.968
  489TIP3   OH2 1472   1.573   4.755   3.069
  489TIP3    H1 1473   1.644   4.708   3.111
  489TIP3    H2 1474   1.515   4.782   3.141
  490TIP3   OH2 1475   1.960   4.446   2.219
  490TIP3    H1 1476   1.957   4.474   2.127
  490TIP3    H2 1477   2.048   4.472   2.248
  491TIP3   OH2 1478   0.621   4.294   3.480
  491TIP3    H1 1479   0.592   4.303   3.389
  491TIP3    H2 1480   0.634   4.384   3.509
  492TIP3   OH2 1481   2.302   0.514   3.718
  492TIP3    H1 1482   2.245   0.442   3.744
  492TIP3    H2 1483   2.246   0.592   3.723
  493TIP3   OH2 1484   4.144   1.499   4.157
  493TIP3    H1 1485   4.204   1.472   4.226
  493TIP3    H2 1486   4.077   1.550   4.203
  494TIP3   OH2 1487   1.353   4.742   3.322
  494TIP3    H1 1488   1.436   4.716   3.363
  494TIP3    H2 1489   1.359   4.837   3.314
  495TIP3   OH2 1490   2.489   5.131   4.061
  495TIP3    H1 1491   2.448   5.051   4.093
  495TIP3    H2 1492   2.489   5.190   4.136
  496TIP3   OH2 1493   3.140   3.303   0.818
  496TIP3    H1 1494   3.072   3.355   0.774
  496TIP3    H2 1495   3.198   3.274   0.748
  497TIP3   OH2 1496   2.008   1.417   2.969
  497TIP3    H1 1497   2.019   1.362   2.892
  497TIP3    H2 1498   2.072   1.384   3.032
  498TIP3   OH2 1499   4.603   1.020   3.054
  498TIP3    H1 1500   4.514   1.005   3.085
  498TIP3    H2 1501   4.629   1.102   3.097
  499TIP3   OH2 1502   0.098   0.100   3.004
  499TIP3    H1 1503   0.156   0.068   2.935
  499TIP3    H2 1504   0.151   0.161   3.054
  500TIP3   OH2 1505   4.476   4.441   2.218
  500TIP3    H1 1506   4.443   4.527   2.193
  500TIP3    H2 1507   4.478   4.391   2.136
  501TIP3   OH2 1508   1.226   4.328   3.040
  501TIP3    H1 1509   1.212   4.299   2.949
  501TIP3    H2 1510   1.245   4.247   3.088
  502TIP3   OH2 1511   5.452   2.533   0.449
  502TIP3    H1 1512   5.465   2.628   0.440
  502TIP3    H2 1513   5.362   2.519   0.420
  503TIP3   OH2 1514   4.040   5.491   0.397
  503TIP3    H1 1515   4.116   5.519   0.347
  503TIP3    H2 1516   4.054   5.398   0.412
  504TIP3   OH2 1517   1.581   3.740   4.542
  504TIP3    H1 1518   1.609   3.679   4.611
  504TIP3    H2 1519   1.572   3.686   4.464
  505TIP3   OH2 1520   3.256   2.353   1.278
  505TIP3    H1 1521   3.209   2.273   1.253
  505TIP3    H2 1522   3.268   2.346   1.372
  506TIP3   OH2 1523   6.324   2.096   0.823
  506TIP3    H1 1524   6.282   2.010   0.824
  506TIP3    H2 1525   6.414   2.079   0.853
  507TIP3   OH2 1526   3.818   0.296   3.291
  507TIP3    H1 1527   3.906   0.323   3.264
  507TIP3    H2 1528   3.833   0.242   3.369
  508TIP3   OH2 1529   2.886   3.074   5.099
  508TIP3    H1 1530   2.924   3.117   5.175
  508TIP3    H2 1531   2.818   3.134   5.069
  509TIP3   OH2 1532   3.096   4.773   3.612
  509TIP3    H1 1533   3.008   4.763   3.575
  509TIP3    H2 1534   3.136   4.686   3.605
  510TIP3   OH2 1535   6.031   0.417   2.116
  510TIP3    H1 1536   5.967   0.410   2.046
  510TIP3    H2 1537   6.043   0.327   2.147
  511TIP3   OH2 1538   0.956   3.252   1.718
  511TIP3    H1 1539   0.969   3.330   1.665
  511TIP3    H2 1540   1.032   3.197   1.698
  512TIP3   OH2 1541   0.736   5.288   0.535
  512TIP3    H1 1542   0.800   5.353   0.506
  512TIP3    H2 1543   0.652   5.332   0.527
  513TIP3   OH2 1544   5.974   5.393   2.482
  513TIP3    H1 1545   6.069   5.385   2.493
  513TIP3    H2 1546   5.940   5.304   2.498
  514TIP3   OH2 1547   2.229   1.131   3.604
  514TIP3    H1 1548   2.233   1.188   3.528
  514TIP3    H2 1549   2.320   1.109   3.624
  515TIP3   OH2 1550   5.238   3.326   0.066
  515TIP3    H1 1551   5.211   3.238   0.041
  515TIP3    H2 1552   5.229   3.377  -0.014
  516TIP3   OH2 1553   0.124   3.803   0.623
  516TIP3    H1 1554   0.131   3.879   0.565
  516TIP3    H2 1555   0.103   3.730   0.565
  517TIP3   OH2 1556   2.313   1.230   0.448
  517TIP3    H1 1557   2.348   1.163   0.389
  517TIP3    H2 1558   2.294   1.183   0.529
  518TIP3   OH2 1559   4.103   1.843   0.699
  518TIP3    H1 1560   4.039   1.789   0.652
  518TIP3    H2 1561   4.074   1.839   0.790
  519TIP3   OH2 1562   1.393   0.371   3.035
  519TIP3    H1 1563   1.359   0.296   3.085
  519TIP3    H2 1564   1.460   0.334   2.978
  520TIP3   OH2 1565   5.301   4.547   4.476
  520TIP3    H1 1566   5.210   4.520   4.472
  520TIP3    H2 1567   5.324   4.568   4.385
  521TIP3   OH2 1568   6.315   2.955   1.726
  521TIP3    H1 1569   6.397   2.985   1.766
  521TIP3    H2 1570   6.278   2.894   1.791
  522TIP3   OH2 1571   5.866   3.938   4.371
  522TIP3    H1 1572   5.778   3.903   4.384
  522TIP3    H2 1573   5.854   4.033   4.371
  523TIP3   OH2 1574   2.809   0.982   1.034
  523TIP3    H1 1575   2.771   1.024   0.957
  523TIP3    H2 1576   2.759   0.902   1.045
  524TIP3   OH2 1577   4.030   0.957   4.584
  524TIP3    H1 1578   4.074   0.992   4.506
  524TIP3    H2 1579   4.085   0.885   4.613
  525TIP3   OH2 1580   3.028   3.586   0.711
  525TIP3    H1 1581   2.960   3.570   0.777
  525TIP3    H2 1582   2.984   3.640   0.644
  526TIP3   OH2 1583   0.152   2.068   2.368
  526TIP3    H1 1584   0.090   2.138   2.391
  526TIP3    H2 1585   0.123   1.993   2.420
  527TIP3   OH2 1586   3.312   3.034   3.337
  527TIP3    H1 1587   3.248   3.053   3.268
  527TIP3    H2 1588   3.258   3.013   3.414
  528TIP3   OH2 1589   2.868   1.650   1.008
  528TIP3    H1 1590   2.863   1.612   1.096
  528TIP3    H2 1591   2.850   1.576   0.950
  529TIP3   OH2 1592   4.297   4.193   2.334
  529TIP3    H1 1593   4.261   4.249   2.266
  529TIP3    H2 1594   4.267   4.233   2.416
  530TIP3   OH2 1595   2.303   0.788   0.068
  530TIP3    H1 1596   2.322   0.754  -0.019
  530TIP3    H2 1597   2.380   0.765   0.120
  531TIP3   OH2 1598   4.642   5.905   2.682
  531TIP3    H1 1599   4.625   5.975   2.745
  531TIP3    H2 1600   4.577   5.918   2.613
  532TIP3   OH2 1601   3.652   3.929   4.333
  532TIP3    H1 1602   3.647   3.928   4.429
  532TIP3    H2 1603   3.695   4.012   4.312
  533TIP3   OH2 1604   6.263   3.346   3.870
  533TIP3    H1 1605   6.299   3.267   3.829
  533TIP3    H2 1606   6.219   3.392   3.799
  534TIP3   OH2 1607   5.780   2.976   0.614
  534TIP3    H1 1608   5.762   3.032   0.539
  534TIP3    H2 1609   5.788   2.888   0.577
  535TIP3   OH2 1610   0.495   0.225   4.600
  535TIP3    H1 1611   0.406   0.239   4.567
  535TIP3    H2 1612   0.544   0.301   4.569
  536TIP3   OH2 1613   1.958   3.835   4.707
  536TIP3    H1 1614   1.959   3.873   4.619
  536TIP3    H2 1615   2.032   3.875   4.751
  537TIP3   OH2 1616   1.253   5.523   3.745
  537TIP3    H1 1617   1.197   5.481   3.810
  537TIP3    H2 1618   1.192   5.565   3.684
  538TIP3   OH2 1619   4.458   1.756   0.365
  538TIP3    H1 1620   4.421   1.669   0.373
  538TIP3    H2 1621   4.400   1.812   0.417
  539TIP3   OH2 1622   4.497   2.931   1.294
  539TIP3    H1 1623   4.555   2.855   1.289
  539TIP3    H2 1624   4.447   2.918   1.375
  540TIP3   OH2 1625   0.739   0.530   4.128
  540TIP3    H1 1626   0.659   0.582   4.130
  540TIP3    H2 1627   0.802   0.580   4.179
  541TIP3   OH2 1628   2.089   5.840   4.559
  541TIP3    H1 1629   2.152   5.910   4.578
  541TIP3    H2 1630   2.067   5.804   4.645
  542TIP3   OH2 1631   1.176   0.668   2.200
  542TIP3    H1 1632   1.239   0.740   2.209
  542TIP3    H2 1633   1.137   0.682   2.113
  543TIP3   OH2 1634   3.324   1.137   0.979
  543TIP3    H1 1635   3.341   1.204   1.046
  543TIP3    H2 1636   3.393   1.150   0.914
  544TIP3   OH2 1637   5.481   2.795   1.919
  544TIP3    H1 1638   5.491   2.829   2.009
  544TIP3    H2 1639   5.537   2.853   1.866
  545TIP3   OH2 1640   5.513   4.057   2.012
  545TIP3    H1 1641   5.517   4.059   2.108
  545TIP3    H2 1642   5.443   3.996   1.993
  546TIP3   OH2 1643   2.906   5.867   4.589
  546TIP3    H1 1644   2.901   5.787   4.537
  546TIP3    H2 1645   2.965   5.845   4.661
  547TIP3   OH2 1646   4.020   2.882   1.927
  547TIP3    H1 1647   4.020   2.795   1.887
  547TIP3    H2 1648   3.928   2.897   1.952
  548TIP3   OH2 1649   5.639   2.063   3.682
  548TIP3    H1 1650   5.588   2.030   3.757
  548TIP3    H2 1651   5.729   2.065   3.715
  549TIP3   OH2 1652   4.017   2.757   0.126
  549TIP3    H1 1653   4.101   2.714   0.139
  549TIP3    H2 1654   3.988   2.728   0.039
  550TIP3   OH2 1655   4.281   0.710   1.478
  550TIP3    H1 1656   4.259   0.701   1.570
  550TIP3    H2 1657   4.297   0.804   1.466
  551TIP3   OH2 1658   0.215   3.733   0.865
  551TIP3    H1 1659   0.181   3.769   0.783
  551TIP3    H2 1660   0.145   3.748   0.929
  552TIP3   OH2 1661   2.239   5.962   2.070
  552TIP3    H1 1662   2.213   6.051   2.047
  552TIP3    H2 1663   2.301   5.937   2.002
  553TIP3   OH2 1664   1.309   1.952   4.186
  553TIP3    H1 1665   1.272   2.031   4.146
  553TIP3    H2 1666   1.235   1.894   4.198
  554TIP3   OH2 1667   1.449   3.335   3.173
  554TIP3    H1 1668   1.462   3.240   3.183
  554TIP3    H2 1669   1.455   3.350   3.079
  555TIP3   OH2 1670   2.408   5.956   1.513
  555TIP3    H1 1671   2.421   5.920   1.425
  555TIP3    H2 1672   2.442   5.889   1.572
  556TIP3   OH2 1673   5.599   2.084   1.248
  556TIP3    H1 1674   5.540   2.120   1.315
  556TIP3    H2 1675   5.543   2.073   1.171
  557TIP3   OH2 1676   1.427   2.081   1.890
  557TIP3    H1 1677   1.353   2.117   1.841
  557TIP3    H2 1678   1.391   2.006   1.937
  558TIP3   OH2 1679   1.639   1.298   0.172
  558TIP3    H1 1680   1.660   1.227   0.111
  558TIP3    H2 1681   1.644   1.257   0.259
  559TIP3   OH2 1682   2.727   0.588   1.129
  559TIP3    H1 1683   2.745   0.565   1.220
  559TIP3    H2 1684   2.704   0.505   1.087
  560TIP3   OH2 1685   4.108   3.483   3.299
  560TIP3    H1 1686   4.134   3.392   3.310
  560TIP3    H2 1687   4.167   3.532   3.357
  561TIP3   OH2 1688   5.304   1.606   2.801
  561TIP3    H1 1689   5.349   1.685   2.830
  561TIP3    H2 1690   5.211   1.629   2.806
  562TIP3   OH2 1691   4.581   5.319   0.123
  562TIP3    H1 1692   4.519   5.381   0.162
  562TIP3    H2 1693   4.665   5.365   0.124
  563TIP3   OH2 1694   0.217   0.217   2.096
  563TIP3    H1 1695   0.141   0.241   2.042
  563TIP3    H2 1696   0.182   0.161   2.165
  564TIP3   OH2 1697   4.106   0.887   0.873
  564TIP3    H1 1698   4.164   0.817   0.844
  564TIP3    H2 1699   4.151   0.926   0.948
  565TIP3   OH2 1700   4.147   5.290   4.969
  565TIP3    H1 1701   4.094   5.245   5.035
  565TIP3    H2 1702   4.234   5.251   4.977
  566TIP3   OH2 1703   6.227   2.949   4.707
  566TIP3    H1 1704   6.280   2.965   4.785
  566TIP3    H2 1705   6.191   2.861   4.721
  567TIP3   OH2 1706   5.353   2.767   0.374
  567TIP3    H1 1707   5.291   2.740   0.307
  567TIP3    H2 1708   5.299   2.803   0.444
  568TIP3   OH2 1709   0.354   3.264   1.861
  568TIP3    H1 1710   0.370   3.296   1.772
  568TIP3    H2 1711   0.436   3.278   1.907
  569TIP3   OH2 1712   5.978   3.681   3.747
  569TIP3    H1 1713   6.071   3.663   3.739
  569TIP3    H2 1714   5.949   3.630   3.822
  570TIP3   OH2 1715   6.312   3.639   0.414
  570TIP3    H1 1716   6.328   3.716   0.359
  570TIP3    H2 1717   6.272   3.576   0.354
  571TIP3   OH2 1718   1.792   5.069   1.268
  571TIP3    H1 1719   1.825   5.154   1.296
  571TIP3    H2 1720   1.824   5.060   1.177
  572TIP3   OH2 1721   3.770   2.807   4.343
  572TIP3    H1 1722   3.820   2.873   4.392
  572TIP3    H2 1723   3.761   2.846   4.256
  573TIP3   OH2 1724   1.741   3.581   4.727
  573TIP3    H1 1725   1.726   3.598   4.820
  573TIP3    H2 1726   1.819   3.632   4.706
  574TIP3   OH2 1727   0.452   0.200   5.092
  574TIP3    H1 1728   0.532   0.229   5.137
  574TIP3    H2 1729   0.396   0.166   5.162
  575TIP3   OH2 1730   3.802   0.954   3.089
  575TIP3    H1 1731   3.739   0.922   3.024
  575TIP3    H2 1732   3.771   0.917   3.172
  576TIP3   OH2 1733   5.388   5.090   2.522
  576TIP3    H1 1734   5.463   5.117   2.576
  576TIP3    H2 1735   5.362   5.170   2.476
  577TIP3   OH2 1736   2.321   4.490   3.776
  577TIP3    H1 1737   2.395   4.504   3.835
  577TIP3    H2 1738   2.287   4.404   3.800
  578TIP3   OH2 1739   3.099   1.670   1.991
  578TIP3    H1 1740   3.050   1.746   2.023
  578TIP3    H2 1741   3.037   1.598   1.994
  579TIP3   OH2 1742   2.360   3.613   2.261
  579TIP3    H1 1743   2.325   3.667   2.190
  579TIP3    H2 1744   2.286   3.597   2.319
  580TIP3   OH2 1745   1.869   5.954   3.100
  580TIP3    H1 1746   1.858   6.032   3.045
  580TIP3    H2 1747   1.936   5.902   3.055
  581TIP3   OH2 1748   2.453   5.904   2.989
  581TIP3    H1 1749   2.534   5.861   2.962
  581TIP3    H2 1750   2.418   5.942   2.908
  582TIP3   OH2 1751   1.916   4.845   4.714
  582TIP3    H1 1752   1.918   4.861   4.808
  582TIP3    H2 1753   1.825   4.823   4.696
  583TIP3   OH2 1754   1.086   5.462   2.497
  583TIP3    H1 1755   1.054   5.453   2.407
  583TIP3    H2 1756   1.129   5.548   2.499
  584TIP3   OH2 1757   3.618   5.600   0.856
  584TIP3    H1 1758   3.627   5.505   0.844
  584TIP3    H2 1759   3.707   5.632   0.865
  585TIP3   OH2 1760   5.994   1.905   3.666
  585TIP3    H1 1761   5.914   1.857   3.689
  585TIP3    H2 1762   5.992   1.911   3.571
  586TIP3   OH2 1763   1.522   0.685   1.027
  586TIP3    H1 1764   1.469   0.725   1.097
  586TIP3    H2 1765   1.482   0.717   0.946
  587TIP3   OH2 1766   5.786   4.193   4.308
  587TIP3    H1 1767   5.701   4.193   4.266
  587TIP3    H2 1768   5.779   4.259   4.377
  588TIP3   OH2 1769   5.465   1.738   4.171
  588TIP3    H1 1770   5.471   1.742   4.266
  588TIP3    H2 1771   5.535   1.676   4.146
  589TIP3   OH2 1772   4.328   0.775   0.035
  589TIP3    H1 1773   4.374   0.804  -0.044
  589TIP3    H2 1774   4.399   0.746   0.094
  590TIP3   OH2 1775   2.671   1.837   1.955
  590TIP3    H1 1776   2.711   1.910   2.001
  590TIP3    H2 1777   2.644   1.874   1.870
  591TIP3   OH2 1778   3.825   4.755   3.794
  591TIP3    H1 1779   3.897   4.766   3.857
  591TIP3    H2 1780   3.746   4.759   3.848
  592TIP3   OH2 1781   2.434   0.859   4.882
  592TIP3    H1 1782   2.524   0.889   4.869
  592TIP3    H2 1783   2.412   0.884   4.972
  593TIP3   OH2 1784   3.128   1.311   4.329
  593TIP3    H1 1785   3.206   1.305   4.384
  593TIP3    H2 1786   3.161   1.340   4.244
  594TIP3   OH2 1787   3.974   0.564   3.623
  594TIP3    H1 1788   4.048   0.603   3.576
  594TIP3    H2 1789   4.014   0.497   3.679
  595TIP3   OH2 1790   4.182   4.319   4.356
  595TIP3    H1 1791   4.251   4.257   4.381
  595TIP3    H2 1792   4.216   4.361   4.277
  596TIP3   OH2 1793  -0.019   2.035   3.506
  596TIP3    H1 1794   0.056   1.995   3.551
  596TIP3    H2 1795  -0.021   2.125   3.539
  597TIP3   OH2 1796   6.332   5.333   0.718
  597TIP3    H1 1797   6.256   5.283   0.687
  597TIP3    H2 1798   6.380   5.356   0.639
  598TIP3   OH2 1799   1.745   3.355   2.975
  598TIP3    H1 1800   1.691   3.275   2.973
  598TIP3    H2 1801   1.835   3.323   2.977
  599TIP3   OH2 1802   6.084   2.637   1.688
  599TIP3    H1 1803   6.029   2.567   1.723
  599TIP3    H2 1804   6.135   2.595   1.618
  600TIP3   OH2 1805   3.112   2.212   4.249
  600TIP3    H1 1806   3.117   2.241   4.158
  600TIP3    H2 1807   3.201   2.223   4.282
  601TIP3   OH2 1808   3.363   5.040   1.301
  601TIP3    H1 1809   3.335   4.994   1.222
  601TIP3    H2 1810   3.389   5.127   1.271
  602TIP3   OH2 1811   5.255   3.264   1.154
  602TIP3    H1 1812   5.257   3.251   1.249
  602TIP3    H2 1813   5.162   3.270   1.132
  603TIP3   OH2 1814   3.676   1.336   2.825
  603TIP3    H1 1815   3.673   1.337   2.920
  603TIP3    H2 1816   3.631   1.255   2.800
  604TIP3   OH2 1817   6.126   0.296   0.075
  604TIP3    H1 1818   6.203   0.333   0.118
  604TIP3    H2 1819   6.079   0.252   0.146
  605TIP3   OH2 1820   5.996   1.299   1.552
  605TIP3    H1 1821   5.906   1.316   1.580
  605TIP3    H2 1822   5.992   1.301   1.456
  606TIP3   OH2 1823   5.943   1.301   3.002
  606TIP3    H1 1824   6.037   1.314   3.005
  606TIP3    H2 1825   5.925   1.278   2.911
  607TIP3   OH2 1826   1.295   2.133   4.601
  607TIP3    H1 1827   1.387   2.114   4.619
  607TIP3    H2 1828   1.266   2.184   4.677
  608TIP3   OH2 1829   2.248   5.228   1.862
  608TIP3    H1 1830   2.163   5.200   1.828
  608TIP3    H2 1831   2.282   5.151   1.908
  609TIP3   OH2 1832   3.673   5.972   3.711
  609TIP3    H1 1833   3.648   5.892   3.666
  609TIP3    H2 1834   3.593   6.000   3.757
  610TIP3   OH2 1835   0.305   2.586   1.028
  610TIP3    H1 1836   0.240   2.530   1.070
  610TIP3    H2 1837   0.277   2.592   0.937
  611TIP3   OH2 1838   2.388   5.807   4.678
  611TIP3    H1 1839   2.423   5.793   4.590
  611TIP3    H2 1840   2.388   5.902   4.689
  612TIP3   OH2 1841   0.154   5.133   2.070
  612TIP3    H1 1842   0.230   5.184   2.042
  612TIP3    H2 1843   0.098   5.129   1.992
  613TIP3   OH2 1844   2.851   1.342   4.370
  613TIP3    H1 1845   2.811   1.429   4.371
  613TIP3    H2 1846   2.930   1.354   4.317
  614TIP3   OH2 1847   5.097   1.521   2.278
  614TIP3    H1 1848   5.107   1.610   2.311
  614TIP3    H2 1849   5.146   1.467   2.340
  615TIP3   OH2 1850   4.285   4.688   2.542
  615TIP3    H1 1851   4.264   4.740   2.464
  615TIP3    H2 1852   4.314   4.603   2.507
  616TIP3   OH2 1853   5.012   0.736   4.977
  616TIP3    H1 1854   4.958   0.673   5.024
  616TIP3    H2 1855   5.079   0.762   5.041
  617TIP3   OH2 1856   5.786   2.540   4.370
  617TIP3    H1 1857   5.717   2.606   4.368
  617TIP3    H2 1858   5.789   2.512   4.462
  618TIP3   OH2 1859   3.843   5.297   4.357
  618TIP3    H1 1860   3.816   5.377   4.403
  618TIP3    H2 1861   3.760   5.251   4.340
  619TIP3   OH2 1862   0.434   2.063   4.707
  619TIP3    H1 1863   0.446   2.132   4.772
  619TIP3    H2 1864   0.519   2.055   4.665
  620TIP3   OH2 1865   5.313   0.326   4.844
  620TIP3    H1 1866   5.235   0.376   4.819
  620TIP3    H2 1867   5.381   0.358   4.785
  621TIP3   OH2 1868   1.855   0.248   0.947
  621TIP3    H1 1869   1.857   0.156   0.921
  621TIP3    H2 1870   1.888   0.249   1.037
  622TIP3   OH2 1871   0.691   1.598   3.400
  622TIP3    H1 1872   0.776   1.595   3.443
  622TIP3    H2 1873   0.630   1.628   3.468
  623TIP3   OH2 1874   4.678   2.979   2.256
  623TIP3    H1 1875   4.601   3.036   2.250
  623TIP3    H2 1876   4.737   3.012   2.188
  624TIP3   OH2 1877   2.055   5.538   2.804
  624TIP3    H1 1878   2.065   5.483   2.726
  624TIP3    H2 1879   1.960   5.544   2.817
  625TIP3   OH2 1880   5.581   4.616   2.483
  625TIP3    H1 1881   5.582   4.711   2.496
  625TIP3    H2 1882   5.496   4.588   2.518
  626TIP3   OH2 1883   5.261   3.455   0.885
  626TIP3    H1 1884   5.174   3.493   0.902
  626TIP3    H2 1885   5.245   3.362   0.875
  627TIP3   OH2 1886   0.636   5.082   1.381
  627TIP3    H1 1887   0.626   4.990   1.357
  627TIP3    H2 1888   0.567   5.097   1.445
  628TIP3   OH2 1889   1.338   3.558   0.138
  628TIP3    H1 1890   1.301   3.482   0.184
  628TIP3    H2 1891   1.410   3.523   0.086
  629TIP3   OH2 1892   0.902   5.186   2.363
  629TIP3    H1 1893   0.811   5.177   2.336
  629TIP3    H2 1894   0.908   5.135   2.444
  630TIP3   OH2 1895   4.765   3.708   3.314
  630TIP3    H1 1896   4.829   3.664   3.370
  630TIP3    H2 1897   4.803   3.794   3.296
  631TIP3   OH2 1898   5.803   4.793   0.349
  631TIP3    H1 1899   5.721   4.743   0.347
  631TIP3    H2 1900   5.775   4.884   0.345
  632TIP3   OH2 1901   3.472   1.224   3.679
  632TIP3    H1 1902   3.466   1.173   3.760
  632TIP3    H2 1903   3.560   1.206   3.646
  633TIP3   OH2 1904   5.174   0.215   5.113
  633TIP3    H1 1905   5.156   0.308   5.120
  633TIP3    H2 1906   5.264   0.209   5.082
  634TIP3   OH2 1907   5.191   5.255   0.143
  634TIP3    H1 1908   5.219   5.220   0.228
  634TIP3    H2 1909   5.106   5.294   0.160
  635TIP3   OH2 1910   4.394   2.819   5.124
  635TIP3    H1 1911   4.357   2.732   5.118
  635TIP3    H2 1912   4.400   2.836   5.218
  636TIP3   OH2 1913   3.065   3.419   1.063
  636TIP3    H1 1914   3.103   3.410   0.975
  636TIP3    H2 1915   3.031   3.509   1.065
  637TIP3   OH2 1916   0.823   4.623   1.021
  637TIP3    H1 1917   0.745   4.675   1.004
  637TIP3    H2 1918   0.891   4.662   0.966
  638TIP3   OH2 1919   2.059   4.186   4.612
  638TIP3    H1 1920   1.968   4.164   4.633
  638TIP3    H2 1921   2.093   4.227   4.691
  639TIP3   OH2 1922   4.813   0.753   4.528
  639TIP3    H1 1923   4.845   0.674   4.483
  639TIP3    H2 1924   4.881   0.774   4.591
  640TIP3   OH2 1925   5.806   3.872   3.654
  640TIP3    H1 1926   5.722   3.854   3.696
  640TIP3    H2 1927   5.867   3.811   3.695
  641TIP3   OH2 1928   1.124   4.817   1.548
  641TIP3    H1 1929   1.040   4.771   1.537
  641TIP3    H2 1930   1.101   4.910   1.542
  642TIP3   OH2 1931   5.897   4.388   0.019
  642TIP3    H1 1932   5.906   4.483   0.027
  642TIP3    H2 1933   5.804   4.371   0.033
  643TIP3   OH2 1934   2.244   4.467   5.034
  643TIP3    H1 1935   2.337   4.464   5.058
  643TIP3    H2 1936   2.202   4.510   5.109
  644TIP3   OH2 1937   3.082   3.411   2.639
  644TIP3    H1 1938   3.154   3.356   2.608
  644TIP3    H2 1939   3.121   3.498   2.650
  645TIP3   OH2 1940   3.212   2.111   3.127
  645TIP3    H1 1941   3.209   2.073   3.215
  645TIP3    H2 1942   3.124   2.147   3.113
  646TIP3   OH2 1943   2.349   5.947   5.212
  646TIP3    H1 1944   2.253   5.947   5.208
  646TIP3    H2 1945   2.377   5.939   5.121
  647TIP3   OH2 1946   6.154   4.066   0.248
  647TIP3    H1 1947   6.141   4.157   0.276
  647TIP3    H2 1948   6.144   4.070   0.153
  648TIP3   OH2 1949   4.811   2.172   4.541
  648TIP3    H1 1950   4.896   2.189   4.583
  648TIP3    H2 1951   4.781   2.258   4.513
  649TIP3   OH2 1952   2.103   3.744   1.393
  649TIP3    H1 1953   2.188   3.772   1.428
  649TIP3    H2 1954   2.088   3.658   1.432
  650TIP3   OH2 1955   1.570   0.241   2.698
  650TIP3    H1 1956   1.525   0.297   2.635
  650TIP3    H2 1957   1.600   0.166   2.646
  651TIP3   OH2 1958   0.671   1.918   2.436
  651TIP3    H1 1959   0.589   1.964   2.456
  651TIP3    H2 1960   0.645   1.849   2.376
  652TIP3   OH2 1961   1.843   4.431   4.536
  652TIP3    H1 1962   1.885   4.480   4.607
  652TIP3    H2 1963   1.892   4.349   4.531
  653TIP3   OH2 1964   1.348   5.535   1.562
  653TIP3    H1 1965   1.438   5.552   1.589
  653TIP3    H2 1966   1.317   5.469   1.624
  654TIP3   OH2 1967   2.108   2.871   4.617
  654TIP3    H1 1968   2.160   2.902   4.543
  654TIP3    H2 1969   2.092   2.949   4.670
  655TIP3   OH2 1970   1.021   1.390   1.118
  655TIP3    H1 1971   0.948   1.424   1.169
  655TIP3    H2 1972   0.985   1.317   1.069
  656TIP3   OH2 1973   2.770   2.914   0.605
  656TIP3    H1 1974   2.821   2.892   0.526
  656TIP3    H2 1975   2.802   3.000   0.632
  657TIP3   OH2 1976   4.061   2.563   2.522
  657TIP3    H1 1977   4.083   2.625   2.591
  657TIP3    H2 1978   4.086   2.478   2.558
  658TIP3   OH2 1979   1.411   5.793   2.506
  658TIP3    H1 1980   1.489   5.740   2.491
  658TIP3    H2 1981   1.398   5.840   2.423
  659TIP3   OH2 1982   5.198   2.845   3.570
  659TIP3    H1 1983   5.173   2.787   3.641
  659TIP3    H2 1984   5.123   2.844   3.511
  660TIP3   OH2 1985   3.770   2.743   1.360
  660TIP3    H1 1986   3.720   2.813   1.319
  660TIP3    H2 1987   3.827   2.710   1.291
  661TIP3   OH2 1988   2.484   4.266   1.872
  661TIP3    H1 1989   2.573   4.263   1.835
  661TIP3    H2 1990   2.482   4.347   1.923
  662TIP3   OH2 1991   5.966   2.046   0.760
  662TIP3    H1 1992   5.903   2.002   0.702
  662TIP3    H2 1993   5.956   2.001   0.844
  663TIP3   OH2 1994   3.638   5.919   3.312
  663TIP3    H1 1995   3.710   5.906   3.251
  663TIP3    H2 1996   3.640   5.841   3.369
  664TIP3   OH2 1997   4.081   1.904   4.142
  664TIP3    H1 1998   4.004   1.859   4.107
  664TIP3    H2 1999   4.114   1.957   4.069
  665TIP3   OH2 2000   0.762   4.877   3.107
  665TIP3    H1 2001   0.807   4.797   3.136
  665TIP3    H2 2002   0.778   4.881   3.013
  666TIP3   OH2 2003   4.280   4.488   1.890
  666TIP3    H1 2004   4.259   4.581   1.886
  666TIP3    H2 2005   4.223   4.447   1.824
  667TIP3   OH2 2006   4.950   4.518   1.546
  667TIP3    H1 2007   4.927   4.570   1.622
  667TIP3    H2 2008   4.982   4.435   1.582
  668TIP3   OH2 2009   2.126   5.675   3.081
  668TIP3    H1 2010   2.191   5.605   3.080
  668TIP3    H2 2011   2.095   5.680   2.991
  669TIP3   OH2 2012   4.968   3.062   0.702
  669TIP3    H1 2013   4.889   3.056   0.756
  669TIP3    H2 2014   4.938   3.040   0.614
  670TIP3   OH2 2015   0.462   0.515   2.488
  670TIP3    H1 2016   0.536   0.458   2.507
  670TIP3    H2 2017   0.462   0.578   2.560
  671TIP3   OH2 2018   3.895   4.649   0.517
  671TIP3    H1 2019   3.947   4.574   0.489
  671TIP3    H2 2020   3.924   4.721   0.461
  672TIP3   OH2 2021   5.420   3.284   4.171
  672TIP3    H1 2022   5.366   3.363   4.168
  672TIP3    H2 2023   5.505   3.314   4.204
  673TIP3   OH2 2024   5.620   5.717   3.144
  673TIP3    H1 2025   5.704   5.762   3.145
  673TIP3    H2 2026   5.556   5.785   3.164
  674TIP3   OH2 2027   0.837   1.344   4.726
  674TIP3    H1 2028   0.780   1.339   4.650
  674TIP3    H2 2029   0.780   1.374   4.797
  675TIP3   OH2 2030   1.183   2.836   0.064
  675TIP3    H1 2031   1.188   2.789   0.148
  675TIP3    H2 2032   1.111   2.898   0.076
  676TIP3   OH2 2033   2.872   3.193   2.706
  676TIP3    H1 2034   2.912   3.273   2.673
  676TIP3    H2 2035   2.805   3.224   2.768
  677TIP3   OH2 2036   1.609   4.648   3.335
  677TIP3    H1 2037   1.582   4.561   3.365
  677TIP3    H2 2038   1.702   4.653   3.357
  678TIP3   OH2 2039   0.653   0.753   3.020
  678TIP3    H1 2040   0.560   0.765   3.040
  678TIP3    H2 2041   0.657   0.673   2.968
  679TIP3   OH2 2042   4.255   3.414   4.235
  679TIP3    H1 2043   4.172   3.366   4.239
  679TIP3    H2 2044   4.229   3.506   4.225
  680TIP3   OH2 2045   4.663   1.269   4.159
  680TIP3    H1 2046   4.673   1.280   4.254
  680TIP3    H2 2047   4.677   1.175   4.144
  681TIP3   OH2 2048   2.187   2.932   3.076
  681TIP3    H1 2049   2.180   2.853   3.130
  681TIP3    H2 2050   2.242   2.905   3.002
  682TIP3   OH2 2051   0.693   1.927   4.775
  682TIP3    H1 2052   0.704   1.844   4.728
  682TIP3    H2 2053   0.663   1.901   4.862
  683TIP3   OH2 2054   4.242   3.650   4.978
  683TIP3    H1 2055   4.160   3.652   5.028
  683TIP3    H2 2056   4.227   3.588   4.907
  684TIP3   OH2 2057   5.779   4.944   1.680
  684TIP3    H1 2058   5.831   5.015   1.718
  684TIP3    H2 2059   5.731   4.985   1.608
  685TIP3   OH2 2060   6.154   0.982   3.704
  685TIP3    H1 2061   6.179   0.889   3.705
  685TIP3    H2 2062   6.130   0.999   3.613
  686TIP3   OH2 2063   3.161   0.847   4.838
  686TIP3    H1 2064   3.145   0.824   4.746
  686TIP3    H2 2065   3.246   0.806   4.858
  687TIP3   OH2 2066   2.263   4.892   2.530
  687TIP3    H1 2067   2.265   4.942   2.448
  687TIP3    H2 2068   2.306   4.809   2.508
  688TIP3   OH2 2069   0.299   0.333   4.904
  688TIP3    H1 2070   0.383   0.321   4.949
  688TIP3    H2 2071   0.299   0.425   4.877
  689TIP3   OH2 2072   1.093   3.963   3.509
  689TIP3    H1 2073   1.037   4.039   3.495
  689TIP3    H2 2074   1.171   3.980   3.457
  690TIP3   OH2 2075   3.146   5.559   3.626
  690TIP3    H1 2076   3.231   5.577   3.667
  690TIP3    H2 2077   3.145   5.465   3.613
  691TIP3   OH2 2078   1.328   1.722   4.794
  691TIP3    H1 2079   1.384   1.771   4.854
  691TIP3    H2 2080   1.252   1.779   4.779
  692TIP3   OH2 2081   3.184   3.053   0.936
  692TIP3    H1 2082   3.165   3.147   0.932
  692TIP3    H2 2083   3.255   3.040   0.874
  693TIP3   OH2 2084   5.668   0.086   1.225
  693TIP3    H1 2085   5.591   0.038   1.254
  693TIP3    H2 2086   5.740   0.023   1.234
  694TIP3   OH2 2087   6.197   4.402   1.488
  694TIP3    H1 2088   6.188   4.313   1.455
  694TIP3    H2 2089   6.114   4.420   1.531
  695TIP3   OH2 2090   0.947   1.565   4.354
  695TIP3    H1 2091   0.853   1.553   4.366
  695TIP3    H2 2092   0.983   1.559   4.443
  696TIP3   OH2 2093   5.719   2.407   2.598
  696TIP3    H1 2094   5.730   2.320   2.559
  696TIP3    H2 2095   5.800   2.453   2.578
  697TIP3   OH2 2096   2.288   4.867   1.162
  697TIP3    H1 2097   2.362   4.812   1.136
  697TIP3    H2 2098   2.308   4.953   1.125
  698TIP3   OH2 2099   1.744   3.315   4.676
  698TIP3    H1 2100   1.750   3.409   4.693
  698TIP3    H2 2101   1.806   3.275   4.739
  699TIP3   OH2 2102   2.682   3.357   3.417
  699TIP3    H1 2103   2.769   3.319   3.426
  699TIP3    H2 2104   2.647   3.320   3.335
  700TIP3   OH2 2105   1.878   5.308   0.834
  700TIP3    H1 2106   1.812   5.319   0.903
  700TIP3    H2 2107   1.827   5.283   0.756
  701TIP3   OH2 2108   5.580   3.512   3.743
  701TIP3    H1 2109   5.583   3.530   3.837
  701TIP3    H2 2110   5.672   3.514   3.715
  702TIP3   OH2 2111   3.144   0.688   4.266
  702TIP3    H1 2112   3.209   0.752   4.236
  702TIP3    H2 2113   3.065   0.710   4.216
  703TIP3   OH2 2114   3.320   3.452   0.138
  703TIP3    H1 2115   3.364   3.531   0.105
  703TIP3    H2 2116   3.268   3.421   0.064
  704TIP3   OH2 2117   2.031   2.892   2.260
  704TIP3    H1 2118   2.103   2.833   2.279
  704TIP3    H2 2119   2.071   2.966   2.215
  705TIP3   OH2 2120   6.183   5.147   4.649
  705TIP3    H1 2121   6.152   5.166   4.738
  705TIP3    H2 2122   6.278   5.155   4.654
  706TIP3   OH2 2123   6.176   3.520   4.699
  706TIP3    H1 2124   6.099   3.465   4.713
  706TIP3    H2 2125   6.213   3.489   4.616
  707TIP3   OH2 2126   4.887   4.953   0.612
  707TIP3    H1 2127   4.833   5.026   0.583
  707TIP3    H2 2128   4.913   4.976   0.701
  708TIP3   OH2 2129   1.633   5.769   3.614
  708TIP3    H1 2130   1.579   5.693   3.593
  708TIP3    H2 2131   1.696   5.774   3.543
  709TIP3   OH2 2132   0.929   3.188   2.827
  709TIP3    H1 2133   0.935   3.250   2.755
  709TIP3    H2 2134   0.837   3.163   2.830
  710TIP3   OH2 2135   1.834   1.442   4.938
  710TIP3    H1 2136   1.922   1.411   4.916
  710TIP3    H2 2137   1.846   1.494   5.018
  711TIP3   OH2 2138   3.299   0.803   3.583
  711TIP3    H1 2139   3.209   0.773   3.572
  711TIP3    H2 2140   3.303   0.837   3.672
  712TIP3   OH2 2141   2.345   3.812   0.631
  712TIP3    H1 2142   2.320   3.764   0.552
  712TIP3    H2 2143   2.326   3.904   0.610
  713TIP3   OH2 2144   0.154   3.208   1.510
  713TIP3    H1 2145   0.096   3.135   1.487
  713TIP3    H2 2146   0.242   3.175   1.493
  714TIP3   OH2 2147   1.974   1.909   3.565
  714TIP3    H1 2148   2.058   1.953   3.556
  714TIP3    H2 2149   1.912   1.978   3.587
  715TIP3   OH2 2150   1.893   0.384   1.204
  715TIP3    H1 2151   1.930   0.459   1.157
  715TIP3    H2 2152   1.930   0.390   1.292
  716TIP3   OH2 2153   4.563   3.302   5.170
  716TIP3    H1 2154   4.533   3.282   5.081
  716TIP3    H2 2155   4.598   3.390   5.164
  717TIP3   OH2 2156   2.456   1.399   4.964
  717TIP3    H1 2157   2.513   1.425   4.891
  717TIP3    H2 2158   2.504   1.328   5.007
  718TIP3   OH2 2159   3.286   1.865   3.818
  718TIP3    H1 2160   3.363   1.919   3.798
  718TIP3    H2 2161   3.222   1.888   3.752
  719TIP3   OH2 2162   2.539   3.399   0.589
  719TIP3    H1 2163   2.501   3.377   0.674
  719TIP3    H2 2164   2.623   3.440   0.611
  720TIP3   OH2 2165   4.150   4.008   3.481
  720TIP3    H1 2166   4.193   3.977   3.401
  720TIP3    H2 2167   4.087   4.074   3.450
  721TIP3   OH2 2168   3.001   3.682   4.828
  721TIP3    H1 2169   3.054   3.665   4.751
  721TIP3    H2 2170   2.950   3.602   4.842
  722TIP3   OH2 2171   3.279   2.249   0.871
  722TIP3    H1 2172   3.341   2.180   0.895
  722TIP3    H2 2173   3.207   2.203   0.828
  723TIP3   OH2 2174   2.906   1.454   1.868
  723TIP3    H1 2175   2.850   1.394   1.915
  723TIP3    H2 2176   2.897   1.429   1.776
  724TIP3   OH2 2177   6.232   5.384   3.543
  724TIP3    H1 2178   6.225   5.322   3.616
  724TIP3    H2 2179   6.298   5.345   3.485
  725TIP3   OH2 2180   6.035   3.490   3.951
  725TIP3    H1 2181   6.051   3.485   4.045
  725TIP3    H2 2182   6.041   3.399   3.921
  726TIP3   OH2 2183   5.998   1.034   5.096
  726TIP3    H1 2184   5.926   1.054   5.156
  726TIP3    H2 2185   5.978   0.947   5.063
  727TIP3   OH2 2186   3.839   2.565   4.478
  727TIP3    H1 2187   3.871   2.508   4.408
  727TIP3    H2 2188   3.818   2.647   4.434
  728TIP3   OH2 2189   5.037   4.894   3.053
  728TIP3    H1 2190   5.127   4.880   3.024
  728TIP3    H2 2191   4.990   4.920   2.974
  729TIP3   OH2 2192   1.267   1.704   2.606
  729TIP3    H1 2193   1.290   1.754   2.528
  729TIP3    H2 2194   1.271   1.768   2.677
  730TIP3   OH2 2195   0.230   4.886   3.015
  730TIP3    H1 2196   0.176   4.931   2.950
  730TIP3    H2 2197   0.300   4.948   3.035
  731TIP3   OH2 2198   4.477   4.127   3.087
  731TIP3    H1 2199   4.424   4.146   3.010
  731TIP3    H2 2200   4.469   4.032   3.098
  732TIP3   OH2 2201   2.610   2.006   5.129
  732TIP3    H1 2202   2.548   2.063   5.083
  732TIP3    H2 2203   2.622   2.048   5.215
  733TIP3   OH2 2204   5.896   3.487   2.675
  733TIP3    H1 2205   5.991   3.478   2.661
  733TIP3    H2 2206   5.875   3.418   2.739
  734TIP3   OH2 2207   5.861   4.042   2.737
  734TIP3    H1 2208   5.891   3.953   2.757
  734TIP3    H2 2209   5.904   4.097   2.802
  735TIP3   OH2 2210   4.169   0.616   2.561
  735TIP3    H1 2211   4.227   0.653   2.628
  735TIP3    H2 2212   4.109   0.560   2.611
  736TIP3   OH2 2213   0.760   0.740   2.240
  736TIP3    H1 2214   0.772   0.794   2.163
  736TIP3    H2 2215   0.822   0.775   2.304
  737TIP3   OH2 2216   2.102   4.942   1.986
  737TIP3    H1 2217   2.029   4.996   1.956
  737TIP3    H2 2218   2.091   4.939   2.081
  738TIP3   OH2 2219   5.256   3.078   0.332
  738TIP3    H1 2220   5.311   3.026   0.274
  738TIP3    H2 2221   5.167   3.058   0.305
  739TIP3   OH2 2222   2.242   4.848   0.506
  739TIP3    H1 2223   2.252   4.944   0.507
  739TIP3    H2 2224   2.220   4.828   0.415
  740TIP3   OH2 2225   3.517   5.623   2.601
  740TIP3    H1 2226   3.544   5.666   2.520
  740TIP3    H2 2227   3.421   5.627   2.599
  741TIP3   OH2 2228   3.022   1.981   2.463
  741TIP3    H1 2229   3.085   2.052   2.470
  741TIP3    H2 2230   3.006   1.954   2.553
  742TIP3   OH2 2231   3.149   5.310   3.816
  742TIP3    H1 2232   3.199   5.276   3.741
  742TIP3    H2 2233   3.067   5.261   3.814
  743TIP3   OH2 2234   0.380   3.475   0.820
  743TIP3    H1 2235   0.350   3.554   0.865
  743TIP3    H2 2236   0.301   3.437   0.783
  744TIP3   OH2 2237   1.181   4.749   1.092
  744TIP3    H1 2238   1.234   4.781   1.019
  744TIP3    H2 2239   1.113   4.816   1.103
  745TIP3   OH2 2240   5.838   0.628   0.646
  745TIP3    H1 2241   5.815   0.688   0.575
  745TIP3    H2 2242   5.762   0.627   0.704
  746TIP3   OH2 2243   1.484   3.804   3.683
  746TIP3    H1 2244   1.453   3.807   3.593
  746TIP3    H2 2245   1.462   3.716   3.713
  747TIP3   OH2 2246   2.165   2.380   1.517
  747TIP3    H1 2247   2.069   2.388   1.517
  747TIP3    H2 2248   2.184   2.327   1.439
  748TIP3   OH2 2249   1.340   0.620   4.158
  748TIP3    H1 2250   1.273   0.597   4.222
  748TIP3    H2 2251   1.422   0.593   4.199
  749TIP3   OH2 2252   2.061   1.125   5.090
  749TIP3    H1 2253   2.128   1.169   5.142
  749TIP3    H2 2254   2.085   1.032   5.093
  750TIP3   OH2 2255   4.782   4.017   0.267
  750TIP3    H1 2256   4.727   4.095   0.278
  750TIP3    H2 2257   4.810   3.996   0.356
  751TIP3   OH2 2258   5.343   0.110   1.002
  751TIP3    H1 2259   5.260   0.090   1.044
  751TIP3    H2 2260   5.318   0.157   0.922
  752TIP3   OH2 2261   4.876   4.039   1.262
  752TIP3    H1 2262   4.802   4.098   1.249
  752TIP3    H2 2263   4.942   4.093   1.306
  753TIP3   OH2 2264   4.095   1.750   4.833
  753TIP3    H1 2265   4.027   1.682   4.833
  753TIP3    H2 2266   4.046   1.833   4.829
  754TIP3   OH2 2267   5.950   2.279   0.436
  754TIP3    H1 2268   5.866   2.320   0.416
  754TIP3    H2 2269   5.969   2.306   0.526
  755TIP3   OH2 2270   0.381   5.237   1.956
  755TIP3    H1 2271   0.471   5.210   1.935
  755TIP3    H2 2272   0.392   5.308   2.020
  756TIP3   OH2 2273   0.669   4.139   0.047
  756TIP3    H1 2274   0.631   4.197  -0.019
  756TIP3    H2 2275   0.620   4.158   0.126
  757TIP3   OH2 2276   4.159   3.512   3.646
  757TIP3    H1 2277   4.146   3.592   3.697
  757TIP3    H2 2278   4.224   3.536   3.579
  758TIP3   OH2 2279   3.545   5.189   2.181
  758TIP3    H1 2280   3.511   5.172   2.094
  758TIP3    H2 2281   3.547   5.284   2.188
  759TIP3   OH2 2282   6.075   1.219   1.246
  759TIP3    H1 2283   6.169   1.203   1.260
  759TIP3    H2 2284   6.032   1.160   1.309
  760TIP3   OH2 2285   5.801   1.270   0.780
  760TIP3    H1 2286   5.800   1.329   0.855
  760TIP3    H2 2287   5.749   1.315   0.713
  761TIP3   OH2 2288   1.931   2.677   4.670
  761TIP3    H1 2289   1.989   2.607   4.698
  761TIP3    H2 2290   1.987   2.754   4.663
  762TIP3   OH2 2291   2.703   5.753   3.866
  762TIP3    H1 2292   2.714   5.790   3.954
  762TIP3    H2 2293   2.713   5.659   3.878
  763TIP3   OH2 2294   3.755   3.138   3.386
  763TIP3    H1 2295   3.711   3.208   3.338
  763TIP3    H2 2296   3.695   3.064   3.381
  764TIP3   OH2 2297   5.281   0.841   1.972
  764TIP3    H1 2298   5.277   0.759   1.923
  764TIP3    H2 2299   5.374   0.865   1.970
  765TIP3   OH2 2300   6.397   2.195   3.887
  765TIP3    H1 2301   6.372   2.287   3.873
  765TIP3    H2 2302   6.313   2.150   3.897
  766TIP3   OH2 2303   1.497   1.737   2.268
  766TIP3    H1 2304   1.457   1.651   2.278
  766TIP3    H2 2305   1.590   1.719   2.256
  767TIP3   OH2 2306   0.281   2.377   1.360
  767TIP3    H1 2307   0.255   2.454   1.310
  767TIP3    H2 2308   0.291   2.307   1.295
  768TIP3   OH2 2309   2.671   5.314   4.254
  768TIP3    H1 2310   2.682   5.408   4.245
  768TIP3    H2 2311   2.583   5.303   4.291
  769TIP3   OH2 2312   5.893   0.441   5.060
  769TIP3    H1 2313   5.878   0.528   5.097
  769TIP3    H2 2314   5.807   0.414   5.027
  770TIP3   OH2 2315   1.720   3.625   2.387
  770TIP3    H1 2316   1.803   3.657   2.422
  770TIP3    H2 2317   1.661   3.626   2.462
  771TIP3   OH2 2318   1.250   0.367   0.780
  771TIP3    H1 2319   1.177   0.305   0.779
  771TIP3    H2 2320   1.262   0.388   0.872
  772TIP3   OH2 2321   3.343   0.489   2.771
  772TIP3    H1 2322   3.256   0.457   2.746
  772TIP3    H2 2323   3.353   0.570   2.721
  773TIP3   OH2 2324   0.734   0.990   3.696
  773TIP3    H1 2325   0.688   1.015   3.776
  773TIP3    H2 2326   0.744   0.895   3.702
  774TIP3   OH2 2327   5.114   1.037   5.092
  774TIP3    H1 2328   5.030   1.044   5.136
  774TIP3    H2 2329   5.146   1.127   5.086
  775TIP3   OH2 2330   6.028   2.500   4.027
  775TIP3    H1 2331   6.083   2.446   4.084
  775TIP3    H2 2332   6.091   2.552   3.976
  776TIP3   OH2 2333   1.011   5.245   0.879
  776TIP3    H1 2334   0.949   5.190   0.928
  776TIP3    H2 2335   0.991   5.334   0.906
  777TIP3   OH2 2336   5.376   0.380   4.380
  777TIP3    H1 2337   5.324   0.300   4.371
  777TIP3    H2 2338   5.322   0.438   4.434
  778TIP3   OH2 2339   4.364   2.923   1.544
  778TIP3    H1 2340   4.407   2.974   1.613
  778TIP3    H2 2341   4.298   2.983   1.509
  779TIP3   OH2 2342   1.500   5.161   0.469
  779TIP3    H1 2343   1.440   5.095   0.433
  779TIP3    H2 2344   1.447   5.241   0.472
  780TIP3   OH2 2345   4.551   4.690   4.172
  780TIP3    H1 2346   4.505   4.764   4.133
  780TIP3    H2 2347   4.640   4.696   4.137
  781TIP3   OH2 2348   5.519   1.607   3.685
  781TIP3    H1 2349   5.587   1.672   3.704
  781TIP3    H2 2350   5.437   1.652   3.703
  782TIP3   OH2 2351   5.898   4.588   3.164
  782TIP3    H1 2352   5.832   4.522   3.141
  782TIP3    H2 2353   5.915   4.573   3.257
  783TIP3   OH2 2354   1.971   3.849   0.436
  783TIP3    H1 2355   1.898   3.849   0.374
  783TIP3    H2 2356   1.933   3.821   0.519
  784TIP3   OH2 2357   3.073   2.706   0.302
  784TIP3    H1 2358   3.011   2.640   0.331
  784TIP3    H2 2359   3.077   2.696   0.206
  785TIP3   OH2 2360   2.814   5.748   0.347
  785TIP3    H1 2361   2.783   5.838   0.351
  785TIP3    H2 2362   2.890   5.751   0.289
  786TIP3   OH2 2363   3.173   4.543   4.284
  786TIP3    H1 2364   3.197   4.461   4.240
  786TIP3    H2 2365   3.253   4.570   4.330
  787TIP3   OH2 2366   3.343   5.211   4.518
  787TIP3    H1 2367   3.398   5.139   4.550
  787TIP3    H2 2368   3.331   5.267   4.595
  788TIP3   OH2 2369   0.912   2.128   4.681
  788TIP3    H1 2370   0.850   2.056   4.672
  788TIP3    H2 2371   0.969   2.121   4.605
  789TIP3   OH2 2372   0.007   3.247   4.129
  789TIP3    H1 2373   0.082   3.303   4.112
  789TIP3    H2 2374  -0.025   3.222   4.042
  790TIP3   OH2 2375   2.323   5.532   2.747
  790TIP3    H1 2376   2.348   5.499   2.833
  790TIP3    H2 2377   2.228   5.544   2.753
  791TIP3   OH2 2378   2.978   0.128   5.122
  791TIP3    H1 2379   2.910   0.183   5.083
  791TIP3    H2 2380   2.974   0.046   5.074
  792TIP3   OH2 2381   5.722   0.141   4.979
  792TIP3    H1 2382   5.632   0.163   4.958
  792TIP3    H2 2383   5.717   0.064   5.036
  793TIP3   OH2 2384   0.367   5.810   3.758
  793TIP3    H1 2385   0.282   5.816   3.716
  793TIP3    H2 2386   0.355   5.745   3.827
  794TIP3   OH2 2387   4.708   3.054   1.683
  794TIP3    H1 2388   4.711   2.959   1.668
  794TIP3    H2 2389   4.799   3.077   1.704
  795TIP3   OH2 2390   0.415   5.956   1.464
  795TIP3    H1 2391   0.434   5.944   1.371
  795TIP3    H2 2392   0.446   5.875   1.505
  796TIP3   OH2 2393   0.027   4.926   2.255
  796TIP3    H1 2394  -0.010   4.975   2.329
  796TIP3    H2 2395   0.088   4.987   2.214
  797TIP3   OH2 2396   5.533   5.297   3.394
  797TIP3    H1 2397   5.569   5.262   3.476
  797TIP3    H2 2398   5.530   5.222   3.335
  798TIP3   OH2 2399   2.149   4.683   3.046
  798TIP3    H1 2400   2.141   4.588   3.033
  798TIP3    H2 2401   2.228   4.694   3.099
  799TIP3   OH2 2402   2.326   0.270   4.655
  799TIP3    H1 2403   2.359   0.303   4.739
  799TIP3    H2 2404   2.370   0.325   4.590
  800TIP3   OH2 2405   5.086   3.865   0.348
  800TIP3    H1 2406   5.119   3.919   0.276
  800TIP3    H2 2407   5.117   3.777   0.329
  801TIP3   OH2 2408   0.048   4.319   0.421
  801TIP3    H1 2409   0.020   4.315   0.330
  801TIP3    H2 2410   0.137   4.285   0.421
  802TIP3   OH2 2411   0.946   1.115   4.811
  802TIP3    H1 2412   1.001   1.162   4.874
  802TIP3    H2 2413   0.893   1.183   4.770
  803TIP3   OH2 2414   5.681   2.894   1.462
  803TIP3    H1 2415   5.668   2.806   1.427
  803TIP3    H2 2416   5.738   2.882   1.538
  804TIP3   OH2 2417   2.645   0.192   0.350
  804TIP3    H1 2418   2.658   0.159   0.261
  804TIP3    H2 2419   2.679   0.122   0.406
  805TIP3   OH2 2420   4.856   0.031   4.825
  805TIP3    H1 2421   4.827   0.077   4.746
  805TIP3    H2 2422   4.869   0.101   4.889
  806TIP3   OH2 2423   1.313   1.973   2.532
  806TIP3    H1 2424   1.269   1.979   2.447
  806TIP3    H2 2425   1.267   2.035   2.588
  807TIP3   OH2 2426   3.321   1.735   2.859
  807TIP3    H1 2427   3.237   1.731   2.814
  807TIP3    H2 2428   3.313   1.810   2.919
  808TIP3   OH2 2429   5.616   0.566   3.023
  808TIP3    H1 2430   5.557   0.496   2.995
  808TIP3    H2 2431   5.581   0.645   2.982
  809TIP3   OH2 2432   3.693   2.308   3.021
  809TIP3    H1 2433   3.631   2.276   2.955
  809TIP3    H2 2434   3.717   2.231   3.072
  810TIP3   OH2 2435   3.293   3.960   1.467
  810TIP3    H1 2436   3.274   3.871   1.498
  810TIP3    H2 2437   3.250   4.017   1.530
  811TIP3   OH2 2438   4.841   0.489   4.711
  811TIP3    H1 2439   4.806   0.520   4.627
  811TIP3    H2 2440   4.800   0.546   4.776
  812TIP3   OH2 2441   2.897   3.829   2.068
  812TIP3    H1 2442   2.969   3.839   2.131
  812TIP3    H2 2443   2.823   3.800   2.121
  813TIP3   OH2 2444   6.131   2.367   3.091
  813TIP3    H1 2445   6.148   2.330   3.178
  813TIP3    H2 2446   6.135   2.461   3.104
  814TIP3   OH2 2447   5.374   3.323   1.717
  814TIP3    H1 2448   5.396   3.269   1.641
  814TIP3    H2 2449   5.286   3.356   1.699
  815TIP3   OH2 2450   4.013   4.557   2.620
  815TIP3    H1 2451   4.071   4.634   2.617
  815TIP3    H2 2452   3.965   4.567   2.701
  816TIP3   OH2 2453   2.275   1.026   2.209
  816TIP3    H1 2454   2.357   1.056   2.248
  816TIP3    H2 2455   2.301   0.975   2.133
  817TIP3   OH2 2456   5.053   1.405   0.254
  817TIP3    H1 2457   5.010   1.332   0.298
  817TIP3    H2 2458   5.013   1.483   0.292
  818TIP3   OH2 2459   4.741   1.391   4.393
  818TIP3    H1 2460   4.826   1.409   4.353
  818TIP3    H2 2461   4.678   1.436   4.337
  819TIP3   OH2 2462   5.359   5.234   3.817
  819TIP3    H1 2463   5.299   5.284   3.872
  819TIP3    H2 2464   5.330   5.253   3.727
  820TIP3   OH2 2465   2.124   0.519   4.548
  820TIP3    H1 2466   2.075   0.482   4.620
  820TIP3    H2 2467   2.215   0.520   4.579
  821TIP3   OH2 2468   0.166   3.275   0.910
  821TIP3    H1 2469   0.132   3.262   0.821
  821TIP3    H2 2470   0.233   3.207   0.920
  822TIP3   OH2 2471   1.985   3.377   2.353
  822TIP3    H1 2472   1.972   3.404   2.263
  822TIP3    H2 2473   2.042   3.444   2.390
  823TIP3   OH2 2474   1.110   3.349   3.909
  823TIP3    H1 2475   1.054   3.419   3.944
  823TIP3    H2 2476   1.048   3.283   3.877
  824TIP3   OH2 2477   0.327   3.913   2.392
  824TIP3    H1 2478   0.350   3.832   2.347
  824TIP3    H2 2479   0.280   3.965   2.326
  825TIP3   OH2 2480   5.400   4.254   0.861
  825TIP3    H1 2481   5.403   4.176   0.806
  825TIP3    H2 2482   5.491   4.271   0.886
  826TIP3   OH2 2483   2.760   4.021   3.075
  826TIP3    H1 2484   2.844   4.027   3.029
  826TIP3    H2 2485   2.739   3.928   3.073
  827TIP3   OH2 2486   2.270   5.452   3.632
  827TIP3    H1 2487   2.188   5.481   3.672
  827TIP3    H2 2488   2.323   5.421   3.705
  828TIP3   OH2 2489   1.058   4.461   3.994
  828TIP3    H1 2490   1.020   4.390   3.941
  828TIP3    H2 2491   1.150   4.464   3.969
  829TIP3   OH2 2492   4.590   2.211   5.038
  829TIP3    H1 2493   4.594   2.141   5.103
  829TIP3    H2 2494   4.589   2.291   5.090
  830TIP3   OH2 2495   1.605   5.827   4.641
  830TIP3    H1 2496   1.529   5.882   4.625
  830TIP3    H2 2497   1.649   5.868   4.716
  831TIP3   OH2 2498   2.825   3.014   1.182
  831TIP3    H1 2499   2.846   3.007   1.089
  831TIP3    H2 2500   2.909   3.025   1.226
  832TIP3   OH2 2501   4.974   4.971   1.180
  832TIP3    H1 2502   4.990   5.065   1.172
  832TIP3    H2 2503   5.060   4.934   1.200
  833TIP3   OH2 2504   5.404   5.880   3.181
  833TIP3    H1 2505   5.342   5.842   3.244
  833TIP3    H2 2506   5.402   5.974   3.201
  834TIP3   OH2 2507   2.658   2.075   0.242
  834TIP3    H1 2508   2.751   2.063   0.256
  834TIP3    H2 2509   2.641   2.167   0.261
  835TIP3   OH2 2510   5.206   4.621   2.071
  835TIP3    H1 2511   5.293   4.633   2.109
  835TIP3    H2 2512   5.205   4.529   2.042
  836TIP3   OH2 2513   1.320   4.630   1.282
  836TIP3    H1 2514   1.269   4.669   1.211
  836TIP3    H2 2515   1.405   4.609   1.242
  837TIP3   OH2 2516   5.430   5.670   1.850
  837TIP3    H1 2517   5.376   5.691   1.926
  837TIP3    H2 2518   5.515   5.710   1.869
  838TIP3   OH2 2519   4.903   4.235   1.581
  838TIP3    H1 2520   4.876   4.203   1.667
  838TIP3    H2 2521   4.821   4.253   1.535
  839TIP3   OH2 2522   4.132   4.817   0.414
  839TIP3    H1 2523   4.190   4.826   0.338
  839TIP3    H2 2524   4.053   4.864   0.389
  840TIP3   OH2 2525   2.764   0.629   4.353
  840TIP3    H1 2526   2.715   0.572   4.294
  840TIP3    H2 2527   2.727   0.716   4.339
  841TIP3   OH2 2528   1.313   0.379   1.065
  841TIP3    H1 2529   1.273   0.466   1.064
  841TIP3    H2 2530   1.406   0.395   1.081
  842TIP3   OH2 2531   6.114   2.024   1.438
  842TIP3    H1 2532   6.023   1.998   1.454
  842TIP3    H2 2533   6.128   2.097   1.498
  843TIP3   OH2 2534   3.278   5.050   2.197
  843TIP3    H1 2535   3.309   5.067   2.286
  843TIP3    H2 2536   3.296   5.130   2.149
  844TIP3   OH2 2537   4.028   1.783   1.229
  844TIP3    H1 2538   4.020   1.865   1.278
  844TIP3    H2 2539   3.983   1.719   1.283
  845TIP3   OH2 2540   3.882   0.380   4.875
  845TIP3    H1 2541   3.938   0.312   4.912
  845TIP3    H2 2542   3.934   0.417   4.804
  846TIP3   OH2 2543   4.858   0.735   0.254
  846TIP3    H1 2544   4.927   0.670   0.270
  846TIP3    H2 2545   4.905   0.818   0.248
  847TIP3   OH2 2546   4.678   2.707   4.576
  847TIP3    H1 2547   4.630   2.701   4.494
  847TIP3    H2 2548   4.745   2.773   4.560
  848TIP3   OH2 2549   3.499   5.013   4.638
  848TIP3    H1 2550   3.526   4.921   4.641
  848TIP3    H2 2551   3.422   5.017   4.695
  849TIP3   OH2 2552   1.083   1.782   2.084
  849TIP3    H1 2553   1.030   1.827   2.150
  849TIP3    H2 2554   1.081   1.690   2.111
  850TIP3   OH2 2555   3.242   5.151   5.134
  850TIP3    H1 2556   3.272   5.117   5.218
  850TIP3    H2 2557   3.299   5.226   5.116
  851TIP3   OH2 2558   2.211   5.235   4.586
  851TIP3    H1 2559   2.147   5.278   4.529
  851TIP3    H2 2560   2.199   5.141   4.569
  852TIP3   OH2 2561   0.069   0.351   0.934
  852TIP3    H1 2562   0.060   0.407   0.857
  852TIP3    H2 2563  -0.009   0.296   0.933
  853TIP3   OH2 2564   2.256   3.015   1.527
  853TIP3    H1 2565   2.290   3.022   1.616
  853TIP3    H2 2566   2.172   2.970   1.538
  854TIP3   OH2 2567   6.243   0.992   4.841
  854TIP3    H1 2568   6.208   1.078   4.864
  854TIP3    H2 2569   6.336   0.996   4.865
  855TIP3   OH2 2570   2.390   5.289   0.163
  855TIP3    H1 2571   2.422   5.261   0.077
  855TIP3    H2 2572   2.448   5.246   0.226
  856TIP3   OH2 2573   1.276   2.518   4.926
  856TIP3    H1 2574   1.209   2.508   4.858
  856TIP3    H2 2575   1.309   2.607   4.914
  857TIP3   OH2 2576   0.610   3.364   2.479
  857TIP3    H1 2577   0.540   3.309   2.446
  857TIP3    H2 2578   0.646   3.407   2.401
  858TIP3   OH2 2579   1.065   0.124   1.355
  858TIP3    H1 2580   1.025   0.185   1.417
  858TIP3    H2 2581   1.157   0.119   1.382
  859TIP3   OH2 2582   2.009   0.742   0.167
  859TIP3    H1 2583   2.082   0.748   0.105
  859TIP3    H2 2584   2.048   0.761   0.252
  860TIP3   OH2 2585   1.537   5.690   2.132
  860TIP3    H1 2586   1.461   5.707   2.076
  860TIP3    H2 2587   1.502   5.699   2.221
  861TIP3   OH2 2588   0.501   0.954   1.988
  861TIP3    H1 2589   0.592   0.924   1.980
  861TIP3    H2 2590   0.462   0.892   2.050
  862TIP3   OH2 2591   0.089   5.145   3.076
  862TIP3    H1 2592   0.022   5.116   3.138
  862TIP3    H2 2593   0.065   5.103   2.993
  863TIP3   OH2 2594   0.111   1.037   0.954
  863TIP3    H1 2595   0.197   1.053   0.915
  863TIP3    H2 2596   0.049   1.050   0.882
  864TIP3   OH2 2597   1.671   4.834   5.008
  864TIP3    H1 2598   1.640   4.773   5.075
  864TIP3    H2 2599   1.765   4.843   5.026
  865TIP3   OH2 2600   2.009   1.342   3.848
  865TIP3    H1 2601   1.996   1.252   3.820
  865TIP3    H2 2602   1.963   1.394   3.782
  866TIP3   OH2 2603   5.025   1.282   3.234
  866TIP3    H1 2604   5.105   1.233   3.253
  866TIP3    H2 2605   5.056   1.371   3.217
  867TIP3   OH2 2606   4.905   2.054   3.873
  867TIP3    H1 2607   4.858   1.978   3.839
  867TIP3    H2 2608   4.884   2.125   3.811
  868TIP3   OH2 2609   0.147   2.974   2.575
  868TIP3    H1 2610   0.145   2.891   2.622
  868TIP3    H2 2611   0.234   3.011   2.594
  869TIP3   OH2 2612   1.289   2.621   2.938
  869TIP3    H1 2613   1.339   2.655   2.864
  869TIP3    H2 2614   1.248   2.698   2.977
  870TIP3   OH2 2615   3.109   4.402   1.068
  870TIP3    H1 2616   3.108   4.486   1.023
  870TIP3    H2 2617   3.201   4.388   1.091
  871TIP3   OH2 2618   0.899   0.088   3.682
  871TIP3    H1 2619   0.906   0.176   3.717
  871TIP3    H2 2620   0.990   0.058   3.674
  872TIP3   OH2 2621   4.474   0.138   3.803
  872TIP3    H1 2622   4.564   0.117   3.779
  872TIP3    H2 2623   4.428   0.144   3.720
  873TIP3   OH2 2624   1.185   5.335   4.690
  873TIP3    H1 2625   1.133   5.257   4.673
  873TIP3    H2 2626   1.276   5.307   4.679
  874TIP3   OH2 2627   2.334   0.284   4.312
  874TIP3    H1 2628   2.321   0.347   4.242
  874TIP3    H2 2629   2.326   0.199   4.270
  875TIP3   OH2 2630   2.764   5.769   4.957
  875TIP3    H1 2631   2.762   5.858   4.922
  875TIP3    H2 2632   2.710   5.718   4.897
  876TIP3   OH2 2633   3.680   5.502   1.295
  876TIP3    H1 2634   3.764   5.523   1.338
  876TIP3    H2 2635   3.681   5.406   1.287
  877TIP3   OH2 2636   3.043   0.157   2.121
  877TIP3    H1 2637   3.104   0.111   2.063
  877TIP3    H2 2638   3.041   0.104   2.201
  878TIP3   OH2 2639   0.301   1.974   4.195
  878TIP3    H1 2640   0.396   1.965   4.191
  878TIP3    H2 2641   0.279   1.953   4.286
  879TIP3   OH2 2642   6.157   3.359  -0.001
  879TIP3    H1 2643   6.242   3.394  -0.027
  879TIP3    H2 2644   6.171   3.326   0.088
  880TIP3   OH2 2645   2.808   4.909   3.527
  880TIP3    H1 2646   2.840   4.909   3.617
  880TIP3    H2 2647   2.754   4.987   3.520
  881TIP3   OH2 2648   4.668   0.662   1.122
  881TIP3    H1 2649   4.576   0.661   1.096
  881TIP3    H2 2650   4.693   0.570   1.126
  882TIP3   OH2 2651   3.350   1.580   1.972
  882TIP3    H1 2652   3.332   1.487   1.988
  882TIP3    H2 2653   3.266   1.623   1.984
  883TIP3   OH2 2654   0.692   2.036   3.047
  883TIP3    H1 2655   0.680   2.023   2.953
  883TIP3    H2 2656   0.663   2.126   3.063
  884TIP3   OH2 2657   4.039   2.606   4.809
  884TIP3    H1 2658   4.129   2.573   4.811
  884TIP3    H2 2659   3.986   2.527   4.796
  885TIP3   OH2 2660   5.229   1.869   2.493
  885TIP3    H1 2661   5.239   1.801   2.426
  885TIP3    H2 2662   5.227   1.951   2.444
  886TIP3   OH2 2663   1.070   2.133   4.457
  886TIP3    H1 2664   1.076   2.069   4.386
  886TIP3    H2 2665   1.153   2.125   4.504
  887TIP3   OH2 2666   3.219   2.065   0.271
  887TIP3    H1 2667   3.306   2.052   0.232
  887TIP3    H2 2668   3.230   2.139   0.330
  888TIP3   OH2 2669   5.510   4.458   4.739
  888TIP3    H1 2670   5.577   4.390   4.729
  888TIP3    H2 2671   5.524   4.516   4.664
  889TIP3   OH2 2672   5.264   4.900   3.553
  889TIP3    H1 2673   5.265   4.929   3.461
  889TIP3    H2 2674   5.171   4.890   3.574
  890TIP3   OH2 2675   1.464   2.806   0.492
  890TIP3    H1 2676   1.472   2.711   0.494
  890TIP3    H2 2677   1.487   2.830   0.402
  891TIP3   OH2 2678   2.593   0.143   4.787
  891TIP3    H1 2679   2.607   0.097   4.870
  891TIP3    H2 2680   2.534   0.087   4.738
  892TIP3   OH2 2681   4.614   3.934   3.568
  892TIP3    H1 2682   4.552   4.005   3.585
  892TIP3    H2 2683   4.587   3.864   3.628
  893TIP3   OH2 2684   2.977   0.026   4.303
  893TIP3    H1 2685   3.002   0.111   4.340
  893TIP3    H2 2686   2.882   0.032   4.292
  894TIP3   OH2 2687   5.398   5.286   5.080
  894TIP3    H1 2688   5.482   5.290   5.127
  894TIP3    H2 2689   5.354   5.368   5.103
  895TIP3   OH2 2690   0.670   3.723   4.343
  895TIP3    H1 2691   0.752   3.717   4.392
  895TIP3    H2 2692   0.697   3.735   4.252
  896TIP3   OH2 2693   3.749   4.672   3.196
  896TIP3    H1 2694   3.840   4.678   3.225
  896TIP3    H2 2695   3.740   4.740   3.130
  897TIP3   OH2 2696   3.690   2.850   1.629
  897TIP3    H1 2697   3.771   2.818   1.589
  897TIP3    H2 2698   3.624   2.784   1.605
  898TIP3   OH2 2699   4.614   1.331   1.904
  898TIP3    H1 2700   4.539   1.295   1.950
  898TIP3    H2 2701   4.690   1.304   1.955
  899TIP3   OH2 2702   2.967  -0.015   1.136
  899TIP3    H1 2703   3.008  -0.101   1.139
  899TIP3    H2 2704   3.017   0.038   1.197
  900TIP3   OH2 2705   5.793   1.624   4.802
  900TIP3    H1 2706   5.705   1.592   4.824
  900TIP3    H2 2707   5.819   1.677   4.878
  901TIP3   OH2 2708   1.458   5.048   1.594
  901TIP3    H1 2709   1.525   5.022   1.532
  901TIP3    H2 2710   1.403   4.970   1.604
  902TIP3   OH2 2711   5.637   3.216   3.389
  902TIP3    H1 2712   5.684   3.192   3.469
  902TIP3    H2 2713   5.604   3.133   3.355
  903TIP3   OH2 2714   0.808   3.696   3.326
  903TIP3    H1 2715   0.863   3.707   3.248
  903TIP3    H2 2716   0.762   3.613   3.311
  904TIP3   OH2 2717   5.007   1.678   1.572
  904TIP3    H1 2718   4.958   1.697   1.492
  904TIP3    H2 2719   5.062   1.603   1.549
  905TIP3   OH2 2720   5.850   4.684   1.203
  905TIP3    H1 2721   5.926   4.629   1.223
  905TIP3    H2 2722   5.777   4.641   1.246
  906TIP3   OH2 2723   1.614   4.317   2.157
  906TIP3    H1 2724   1.656   4.235   2.131
  906TIP3    H2 2725   1.661   4.344   2.236
  907TIP3   OH2 2726   2.105   3.034   3.924
  907TIP3    H1 2727   2.174   3.098   3.939
  907TIP3    H2 2728   2.064   3.061   3.842
  908TIP3   OH2 2729   2.357   1.449   1.575
  908TIP3    H1 2730   2.310   1.421   1.654
  908TIP3    H2 2731   2.385   1.538   1.594
  909TIP3   OH2 2732   5.608   3.607   2.023
  909TIP3    H1 2733   5.530   3.652   2.055
  909TIP3    H2 2734   5.574   3.538   1.967
  910TIP3   OH2 2735   5.596   1.047   4.018
  910TIP3    H1 2736   5.682   1.015   4.048
  910TIP3    H2 2737   5.545   1.055   4.098
  911TIP3   OH2 2738   3.519   2.609   0.964
  911TIP3    H1 2739   3.533   2.625   0.870
  911TIP3    H2 2740   3.580   2.668   1.007
  912TIP3   OH2 2741   5.231   0.503   5.175
  912TIP3    H1 2742   5.324   0.482   5.170
  912TIP3    H2 2743   5.227   0.598   5.158
  913TIP3   OH2 2744   0.768   4.891   0.060
  913TIP3    H1 2745   0.773   4.798   0.080
  913TIP3    H2 2746   0.858   4.917   0.041
  914TIP3   OH2 2747   5.490   1.337   4.144
  914TIP3    H1 2748   5.558   1.405   4.152
  914TIP3    H2 2749   5.483   1.321   4.050
  915TIP3   OH2 2750   1.868   1.053   1.093
  915TIP3    H1 2751   1.907   1.134   1.125
  915TIP3    H2 2752   1.775   1.071   1.087
  916TIP3   OH2 2753   4.185   0.279   0.041
  916TIP3    H1 2754   4.221   0.366   0.058
  916TIP3    H2 2755   4.094   0.295   0.015
  917TIP3   OH2 2756   2.718   0.662   3.641
  917TIP3    H1 2757   2.709   0.572   3.608
  917TIP3    H2 2758   2.733   0.715   3.563
  918TIP3   OH2 2759   2.354   2.427   4.864
  918TIP3    H1 2760   2.423   2.362   4.873
  918TIP3    H2 2761   2.308   2.424   4.948
  919TIP3   OH2 2762   5.469   1.027   4.557
  919TIP3    H1 2763   5.477   1.117   4.524
  919TIP3    H2 2764   5.385   1.026   4.603
  920TIP3   OH2 2765   0.051   1.987   1.375
  920TIP3    H1 2766   0.107   1.944   1.441
  920TIP3    H2 2767  -0.036   1.989   1.415
  921TIP3   OH2 2768   5.562   1.422   1.112
  921TIP3    H1 2769   5.520   1.498   1.151
  921TIP3    H2 2770   5.550   1.434   1.017
  922TIP3   OH2 2771   4.884   1.046   1.693
  922TIP3    H1 2772   4.975   1.062   1.668
  922TIP3    H2 2773   4.832   1.095   1.630
  923TIP3   OH2 2774   6.156   4.495   4.142
  923TIP3    H1 2775   6.229   4.497   4.080
  923TIP3    H2 2776   6.156   4.582   4.182
  924TIP3   OH2 2777   1.088   3.189   3.061
  924TIP3    H1 2778   1.020   3.162   3.001
  924TIP3    H2 2779   1.145   3.246   3.009
  925TIP3   OH2 2780   2.408   2.030   0.472
  925TIP3    H1 2781   2.340   2.068   0.527
  925TIP3    H2 2782   2.370   2.028   0.384
  926TIP3   OH2 2783   4.985   3.360   2.943
  926TIP3    H1 2784   4.904   3.324   2.906
  926TIP3    H2 2785   5.004   3.437   2.890
  927TIP3   OH2 2786   4.598   4.250   4.033
  927TIP3    H1 2787   4.651   4.250   4.113
  927TIP3    H2 2788   4.510   4.270   4.063
  928TIP3   OH2 2789   5.298   3.167   1.468
  928TIP3    H1 2790   5.203   3.163   1.455
  928TIP3    H2 2791   5.322   3.079   1.498
  929TIP3   OH2 2792   2.334   2.296   1.713
  929TIP3    H1 2793   2.269   2.312   1.644
  929TIP3    H2 2794   2.326   2.371   1.771
  930TIP3   OH2 2795   0.970   2.573   2.805
  930TIP3    H1 2796   1.049   2.521   2.813
  930TIP3    H2 2797   0.944   2.592   2.896
  931TIP3   OH2 2798   5.461   2.117   2.942
  931TIP3    H1 2799   5.442   2.169   3.020
  931TIP3    H2 2800   5.554   2.135   2.924
  932TIP3   OH2 2801   3.239   1.393   4.074
  932TIP3    H1 2802   3.159   1.445   4.088
  932TIP3    H2 2803   3.293   1.448   4.017
  933TIP3   OH2 2804   4.744   2.632   3.900
  933TIP3    H1 2805   4.729   2.629   3.805
  933TIP3    H2 2806   4.656   2.637   3.938
  934TIP3   OH2 2807   2.434   4.683   3.607
  934TIP3    H1 2808   2.477   4.745   3.666
  934TIP3    H2 2809   2.398   4.615   3.665
  935TIP3   OH2 2810   4.870   2.863   4.906
  935TIP3    H1 2811   4.885   2.769   4.910
  935TIP3    H2 2812   4.958   2.901   4.906
  936TIP3   OH2 2813   6.151   1.471   2.198
  936TIP3    H1 2814   6.115   1.384   2.180
  936TIP3    H2 2815   6.191   1.498   2.116
  937TIP3   OH2 2816   0.864   1.549   2.210
  937TIP3    H1 2817   0.843   1.535   2.117
  937TIP3    H2 2818   0.836   1.468   2.253
  938TIP3   OH2 2819   3.782   2.224   4.352
  938TIP3    H1 2820   3.814   2.277   4.278
  938TIP3    H2 2821   3.782   2.134   4.319
  939TIP3   OH2 2822   4.180   2.140   0.858
  939TIP3    H1 2823   4.248   2.077   0.881
  939TIP3    H2 2824   4.112   2.129   0.924
  940TIP3   OH2 2825   5.877   3.728   2.551
  940TIP3    H1 2826   5.887   3.633   2.554
  940TIP3    H2 2827   5.961   3.762   2.582
  941TIP3   OH2 2828   5.006   3.736   2.192
  941TIP3    H1 2829   5.056   3.706   2.115
  941TIP3    H2 2830   4.959   3.813   2.161
  942TIP3   OH2 2831   6.359   5.578   1.937
  942TIP3    H1 2832   6.343   5.637   1.863
  942TIP3    H2 2833   6.343   5.491   1.902
  943TIP3   OH2 2834   4.316   1.746   5.005
  943TIP3    H1 2835   4.247   1.735   4.939
  943TIP3    H2 2836   4.390   1.696   4.970
  944TIP3   OH2 2837   1.611   0.720   4.552
  944TIP3    H1 2838   1.596   0.803   4.506
  944TIP3    H2 2839   1.662   0.744   4.629
  945TIP3   OH2 2840   3.940   5.562   0.648
  945TIP3    H1 2841   3.973   5.524   0.567
  945TIP3    H2 2842   3.983   5.647   0.654
  946TIP3   OH2 2843   5.468   0.391   3.303
  946TIP3    H1 2844   5.538   0.343   3.257
  946TIP3    H2 2845   5.390   0.337   3.291
  947TIP3   OH2 2846   0.824   2.634   4.860
  947TIP3    H1 2847   0.823   2.542   4.835
  947TIP3    H2 2848   0.893   2.673   4.805
  948TIP3   OH2 2849   6.267   5.316   1.851
  948TIP3    H1 2850   6.344   5.270   1.817
  948TIP3    H2 2851   6.193   5.265   1.820
  949TIP3   OH2 2852   3.960   3.583   4.318
  949TIP3    H1 2853   3.965   3.619   4.407
  949TIP3    H2 2854   3.873   3.609   4.287
  950TIP3   OH2 2855   1.374   1.485   2.340
  950TIP3    H1 2856   1.387   1.497   2.434
  950TIP3    H2 2857   1.372   1.390   2.329
  951TIP3   OH2 2858   5.461   1.457   0.859
  951TIP3    H1 2859   5.370   1.465   0.831
  951TIP3    H2 2860   5.509   1.438   0.779
  952TIP3   OH2 2861   3.584   4.286   2.830
  952TIP3    H1 2862   3.633   4.368   2.844
  952TIP3    H2 2863   3.513   4.310   2.770
  953TIP3   OH2 2864   5.572   4.134   3.915
  953TIP3    H1 2865   5.491   4.092   3.888
  953TIP3    H2 2866   5.566   4.138   4.011
  954TIP3   OH2 2867   1.946   4.802   1.528
  954TIP3    H1 2868   2.015   4.789   1.463
  954TIP3    H2 2869   1.953   4.726   1.587
  955TIP3   OH2 2870   6.184   2.023   2.442
  955TIP3    H1 2871   6.193   2.046   2.535
  955TIP3    H2 2872   6.176   1.928   2.442
  956TIP3   OH2 2873   5.129   3.991   4.710
  956TIP3    H1 2874   5.224   3.990   4.702
  956TIP3    H2 2875   5.108   3.915   4.764
  957TIP3   OH2 2876   5.078   5.629   4.540
  957TIP3    H1 2877   5.102   5.548   4.586
  957TIP3    H2 2878   5.073   5.695   4.609
  958TIP3   OH2 2879   2.229   5.136   0.472
  958TIP3    H1 2880   2.170   5.191   0.422
  958TIP3    H2 2881   2.314   5.147   0.430
  959TIP3   OH2 2882   3.168   5.929   1.571
  959TIP3    H1 2883   3.103   5.954   1.506
  959TIP3    H2 2884   3.178   5.834   1.560
  960TIP3   OH2 2885   4.228   0.352   1.215
  960TIP3    H1 2886   4.276   0.407   1.277
  960TIP3    H2 2887   4.254   0.263   1.236
  961TIP3   OH2 2888   1.687   5.208   2.948
  961TIP3    H1 2889   1.712   5.116   2.948
  961TIP3    H2 2890   1.766   5.255   2.920
  962TIP3   OH2 2891   0.308   3.648   3.838
  962TIP3    H1 2892   0.370   3.683   3.774
  962TIP3    H2 2893   0.239   3.714   3.842
  963TIP3   OH2 2894   3.581   3.471   4.599
  963TIP3    H1 2895   3.519   3.398   4.598
  963TIP3    H2 2896   3.564   3.516   4.681
  964TIP3   OH2 2897   6.016   0.763   2.083
  964TIP3    H1 2898   6.060   0.777   1.999
  964TIP3    H2 2899   6.068   0.813   2.146
  965TIP3   OH2 2900   4.504   1.725   2.218
  965TIP3    H1 2901   4.578   1.667   2.199
  965TIP3    H2 2902   4.488   1.713   2.312
  966TIP3   OH2 2903   2.773   0.871   3.092
  966TIP3    H1 2904   2.857   0.834   3.120
  966TIP3    H2 2905   2.778   0.875   2.997
  967TIP3   OH2 2906   4.598   1.833   3.338
  967TIP3    H1 2907   4.565   1.877   3.260
  967TIP3    H2 2908   4.608   1.742   3.312
  968TIP3   OH2 2909   1.870   3.365   4.414
  968TIP3    H1 2910   1.948   3.380   4.467
  968TIP3    H2 2911   1.810   3.318   4.472
  969TIP3   OH2 2912   3.547   3.477   4.325
  969TIP3    H1 2913   3.590   3.393   4.308
  969TIP3    H2 2914   3.560   3.493   4.418
  970TIP3   OH2 2915   4.270   1.630   0.715
  970TIP3    H1 2916   4.261   1.604   0.807
  970TIP3    H2 2917   4.215   1.708   0.707
  971TIP3   OH2 2918   1.065   1.329   4.594
  971TIP3    H1 2919   0.989   1.305   4.647
  971TIP3    H2 2920   1.059   1.425   4.586
  972TIP3   OH2 2921   4.245   0.664   4.542
  972TIP3    H1 2922   4.253   0.722   4.466
  972TIP3    H2 2923   4.246   0.575   4.505
  973TIP3   OH2 2924   0.648   2.879   1.259
  973TIP3    H1 2925   0.611   2.858   1.345
  973TIP3    H2 2926   0.578   2.927   1.215
  974TIP3   OH2 2927   1.201   1.093   2.650
  974TIP3    H1 2928   1.170   1.168   2.598
  974TIP3    H2 2929   1.258   1.044   2.590
  975TIP3   OH2 2930   4.857   4.335   3.422
  975TIP3    H1 2931   4.910   4.279   3.479
  975TIP3    H2 2932   4.786   4.279   3.392
  976TIP3   OH2 2933   5.932   1.997   3.415
  976TIP3    H1 2934   5.850   1.995   3.365
  976TIP3    H2 2935   6.000   1.990   3.349
  977TIP3   OH2 2936   2.058   1.944   2.370
  977TIP3    H1 2937   1.988   1.914   2.428
  977TIP3    H2 2938   2.121   1.872   2.370
  978TIP3   OH2 2939   1.280   1.744   0.179
  978TIP3    H1 2940   1.286   1.726   0.272
  978TIP3    H2 2941   1.358   1.795   0.158
  979TIP3   OH2 2942   5.273   4.737   4.684
  979TIP3    H1 2943   5.276   4.811   4.622
  979TIP3    H2 2944   5.261   4.660   4.628
  980TIP3   OH2 2945   5.654   1.386   3.192
  980TIP3    H1 2946   5.716   1.322   3.228
  980TIP3    H2 2947   5.569   1.345   3.203
  981TIP3   OH2 2948   1.259   3.867   4.867
  981TIP3    H1 2949   1.300   3.791   4.826
  981TIP3    H2 2950   1.286   3.862   4.959
  982TIP3   OH2 2951   3.897   2.638   1.119
  982TIP3    H1 2952   3.930   2.553   1.089
  982TIP3    H2 2953   3.965   2.672   1.176
  983TIP3   OH2 2954   0.684   0.020   3.948
  983TIP3    H1 2955   0.684  -0.037   4.025
  983TIP3    H2 2956   0.744   0.091   3.971
  984TIP3   OH2 2957   2.123   5.241   0.197
  984TIP3    H1 2958   2.080   5.298   0.261
  984TIP3    H2 2959   2.214   5.271   0.195
  985TIP3   OH2 2960   5.566   1.459   1.922
  985TIP3    H1 2961   5.528   1.374   1.946
  985TIP3    H2 2962   5.503   1.497   1.861
  986TIP3   OH2 2963   6.074   1.222   2.094
  986TIP3    H1 2964   5.978   1.218   2.097
  986TIP3    H2 2965   6.093   1.258   2.007
  987TIP3   OH2 2966   2.938   3.438   2.406
  987TIP3    H1 2967   2.856   3.475   2.439
  987TIP3    H2 2968   2.995   3.433   2.483
  988TIP3   OH2 2969   3.301   3.680   0.663
  988TIP3    H1 2970   3.236   3.655   0.729
  988TIP3    H2 2971   3.289   3.617   0.592
  989TIP3   OH2 2972   2.796   2.907   4.516
  989TIP3    H1 2973   2.747   2.834   4.553
  989TIP3    H2 2974   2.743   2.936   4.442
  990TIP3   OH2 2975   0.672   2.404   0.429
  990TIP3    H1 2976   0.596   2.457   0.455
  990TIP3    H2 2977   0.707   2.371   0.512
  991TIP3   OH2 2978   4.928   5.283   2.630
  991TIP3    H1 2979   4.884   5.240   2.704
  991TIP3    H2 2980   4.970   5.212   2.583
  992TIP3   OH2 2981   3.932   4.261   2.255
  992TIP3    H1 2982   3.920   4.215   2.338
  992TIP3    H2 2983   4.026   4.276   2.248
  993TIP3   OH2 2984   1.604   1.715   1.279
  993TIP3    H1 2985   1.693   1.745   1.261
  993TIP3    H2 2986   1.601   1.706   1.375
  994TIP3   OH2 2987   2.157   2.094   3.724
  994TIP3    H1 2988   2.227   2.063   3.782
  994TIP3    H2 2989   2.120   2.169   3.770
  995TIP3   OH2 2990   0.621   4.583   3.464
  995TIP3    H1 2991   0.534   4.621   3.479
  995TIP3    H2 2992   0.629   4.578   3.369
  996TIP3   OH2 2993   1.757   0.475   4.247
  996TIP3    H1 2994   1.706   0.468   4.327
  996TIP3    H2 2995   1.710   0.539   4.194
  997TIP3   OH2 2996   5.578   0.717   4.117
  997TIP3    H1 2997   5.591   0.650   4.185
  997TIP3    H2 2998   5.640   0.786   4.139
  998TIP3   OH2 2999   5.671   4.892   1.216
  998TIP3    H1 3000   5.731   4.819   1.200
  998TIP3    H2 3001   5.640   4.916   1.128
  999TIP3   OH2 3002   1.892   2.309   2.295
  999TIP3    H1 3003   1.937   2.388   2.266
  999TIP3    H2 3004   1.854   2.333   2.380
 1000TIP3   OH2 3005   3.548   2.826   2.727
 1000TIP3    H1 3006   3.570   2.826   2.634
 1000TIP3    H2 3007   3.572   2.738   2.757
 1001TIP3   OH2 3008   5.367   3.393   2.199
 1001TIP3    H1 3009   5.419   3.429   2.271
 1001TIP3    H2 3010   5.305   3.333   2.241
 1002TIP3   OH2 3011   3.129   1.129   4.833
 1002TIP3    H1 3012   3.094   1.111   4.920
 1002TIP3    H2 3013   3.163   1.045   4.803
 1003TIP3   OH2 3014   3.687   1.914   1.126
 1003TIP3    H1 3015   3.714   1.924   1.034
 1003TIP3    H2 3016   3.641   1.995   1.147
 1004TIP3   OH2 3017   2.686   5.205   1.654
 1004TIP3    H1 3018   2.610   5.252   1.689
 1004TIP3    H2 3019   2.651   5.119   1.629
 1005TIP3   OH2 3020   3.028   0.048   4.013
 1005TIP3    H1 3021   3.006   0.061   4.105
 1005TIP3    H2 3022   3.075   0.127   3.988
 1006TIP3   OH2 3023   2.742   1.284   2.029
 1006TIP3    H1 3024   2.727   1.262   2.121
 1006TIP3    H2 3025   2.769   1.201   1.988
 1007TIP3   OH2 3026   5.815   1.246   4.246
 1007TIP3    H1 3027   5.808   1.192   4.325
 1007TIP3    H2 3028   5.844   1.331   4.278
 1008TIP3   OH2 3029   3.168   3.772   1.850
 1008TIP3    H1 3030   3.077   3.749   1.831
 1008TIP3    H2 3031   3.219   3.701   1.811
 1009TIP3   OH2 3032   2.011   1.840   2.644
 1009TIP3    H1 3033   1.935   1.890   2.672
 1009TIP3    H2 3034   2.008   1.761   2.698
 1010TIP3   OH2 3035   3.415   2.963   4.232
 1010TIP3    H1 3036   3.410   2.917   4.316
 1010TIP3    H2 3037   3.375   2.903   4.169
 1011TIP3   OH2 3038   5.633   2.700   4.924
 1011TIP3    H1 3039   5.720   2.681   4.960
 1011TIP3    H2 3040   5.609   2.784   4.962
 1012TIP3   OH2 3041   4.159   3.867   2.171
 1012TIP3    H1 3042   4.089   3.932   2.161
 1012TIP3    H2 3043   4.229   3.899   2.114
 1013TIP3   OH2 3044   1.699   2.804   0.825
 1013TIP3    H1 3045   1.763   2.762   0.882
 1013TIP3    H2 3046   1.738   2.888   0.803
 1014TIP3   OH2 3047   5.919   2.563   3.376
 1014TIP3    H1 3048   5.840   2.512   3.392
 1014TIP3    H2 3049   5.891   2.654   3.385
 1015TIP3   OH2 3050   3.001   3.602   3.651
 1015TIP3    H1 3051   3.001   3.631   3.742
 1015TIP3    H2 3052   3.092   3.580   3.633
 1016TIP3   OH2 3053   2.686   4.603   0.697
 1016TIP3    H1 3054   2.618   4.569   0.755
 1016TIP3    H2 3055   2.638   4.655   0.633
 1017TIP3   OH2 3056   0.659   4.330   0.527
 1017TIP3    H1 3057   0.705   4.332   0.611
 1017TIP3    H2 3058   0.583   4.387   0.540
 1018TIP3   OH2 3059   2.227   0.457   2.729
 1018TIP3    H1 3060   2.262   0.369   2.720
 1018TIP3    H2 3061   2.254   0.485   2.816
 1019TIP3   OH2 3062   1.861   2.543   3.167
 1019TIP3    H1 3063   1.919   2.475   3.200
 1019TIP3    H2 3064   1.805   2.498   3.104
 1020TIP3   OH2 3065   5.314   2.872   2.348
 1020TIP3    H1 3066   5.377   2.896   2.281
 1020TIP3    H2 3067   5.295   2.954   2.394
 1021TIP3   OH2 3068   5.922   2.856   1.628
 1021TIP3    H1 3069   5.964   2.772   1.610
 1021TIP3    H2 3070   5.992   2.921   1.614
 1022TIP3   OH2 3071   2.279   1.417   2.455
 1022TIP3    H1 3072   2.218   1.357   2.412
 1022TIP3    H2 3073   2.365   1.391   2.423
 1023TIP3   OH2 3074   2.127   0.491   0.765
 1023TIP3    H1 3075   2.032   0.477   0.762
 1023TIP3    H2 3076   2.137   0.585   0.779
 1024TIP3   OH2 3077   0.393   0.445   1.280
 1024TIP3    H1 3078   0.412   0.475   1.368
 1024TIP3    H2 3079   0.309   0.485   1.258
 1025TIP3   OH2 3080   5.049   0.151   3.377
 1025TIP3    H1 3081   5.088   0.183   3.295
 1025TIP3    H2 3082   5.005   0.070   3.353
 1026TIP3   OH2 3083   2.530   1.513   1.280
 1026TIP3    H1 3084   2.476   1.550   1.350
 1026TIP3    H2 3085   2.468   1.484   1.214
 1027TIP3   OH2 3086   5.547   0.974   1.685
 1027TIP3    H1 3087   5.460   0.958   1.648
 1027TIP3    H2 3088   5.547   0.926   1.768
 1028TIP3   OH2 3089   1.662   4.439   1.863
 1028TIP3    H1 3090   1.596   4.412   1.800
 1028TIP3    H2 3091   1.612   4.470   1.939
 1029TIP3   OH2 3092   3.571   4.984   0.199
 1029TIP3    H1 3093   3.552   5.075   0.175
 1029TIP3    H2 3094   3.541   4.933   0.123
 1030TIP3   OH2 3095   1.842   3.324   4.143
 1030TIP3    H1 3096   1.756   3.295   4.115
 1030TIP3    H2 3097   1.837   3.327   4.238
 1031TIP3   OH2 3098   1.374   0.333   4.592
 1031TIP3    H1 3099   1.295   0.283   4.573
 1031TIP3    H2 3100   1.405   0.298   4.676
 1032TIP3   OH2 3101   0.516   2.326   0.830
 1032TIP3    H1 3102   0.592   2.275   0.860
 1032TIP3    H2 3103   0.555   2.399   0.781
 1033TIP3   OH2 3104   4.009   1.168   2.479
 1033TIP3    H1 3105   3.974   1.222   2.408
 1033TIP3    H2 3106   3.937   1.163   2.543
 1034TIP3   OH2 3107   4.294   1.347   0.108
 1034TIP3    H1 3108   4.349   1.414   0.067
 1034TIP3    H2 3109   4.273   1.287   0.037
 1035TIP3   OH2 3110   1.584   2.376   4.203
 1035TIP3    H1 3111   1.626   2.323   4.135
 1035TIP3    H2 3112   1.602   2.328   4.284
 1036TIP3   OH2 3113   0.048   2.302   2.424
 1036TIP3    H1 3114   0.033   2.380   2.371
 1036TIP3    H2 3115  -0.032   2.293   2.476
 1037TIP3   OH2 3116   2.379   4.738   3.949
 1037TIP3    H1 3117   2.343   4.786   3.874
 1037TIP3    H2 3118   2.366   4.796   4.024
 1038TIP3   OH2 3119   6.140   4.189   3.868
 1038TIP3    H1 3120   6.076   4.136   3.820
 1038TIP3    H2 3121   6.087   4.234   3.934
 1039TIP3   OH2 3122   3.734   5.597   4.644
 1039TIP3    H1 3123   3.779   5.644   4.573
 1039TIP3    H2 3124   3.693   5.522   4.600
 1040TIP3   OH2 3125   4.622   5.717   3.702
 1040TIP3    H1 3126   4.656   5.803   3.728
 1040TIP3    H2 3127   4.572   5.735   3.623
 1041TIP3   OH2 3128   2.246   0.454   5.162
 1041TIP3    H1 3129   2.196   0.495   5.091
 1041TIP3    H2 3130   2.326   0.506   5.167
 1042TIP3   OH2 3131   5.208   0.984   2.736
 1042TIP3    H1 3132   5.118   1.011   2.719
 1042TIP3    H2 3133   5.261   1.056   2.701
 1043TIP3   OH2 3134   2.147   1.809   1.398
 1043TIP3    H1 3135   2.229   1.852   1.426
 1043TIP3    H2 3136   2.108   1.778   1.480
 1044TIP3   OH2 3137   4.283   1.100   4.544
 1044TIP3    H1 3138   4.304   1.073   4.633
 1044TIP3    H2 3139   4.349   1.165   4.521
 1045TIP3   OH2 3140   5.700   3.581   3.350
 1045TIP3    H1 3141   5.672   3.673   3.355
 1045TIP3    H2 3142   5.628   3.536   3.305
 1046TIP3   OH2 3143   1.632   5.858   1.589
 1046TIP3    H1 3144   1.631   5.924   1.520
 1046TIP3    H2 3145   1.539   5.837   1.604
 1047TIP3   OH2 3146   0.332   0.853   3.444
 1047TIP3    H1 3147   0.325   0.946   3.422
 1047TIP3    H2 3148   0.345   0.851   3.539
 1048TIP3   OH2 3149   2.962   0.581   3.727
 1048TIP3    H1 3150   2.873   0.617   3.718
 1048TIP3    H2 3151   2.973   0.569   3.822
 1049TIP3   OH2 3152   6.193   4.799   0.866
 1049TIP3    H1 3153   6.207   4.773   0.957
 1049TIP3    H2 3154   6.277   4.782   0.823
 1050TIP3   OH2 3155   0.823   5.545   3.527
 1050TIP3    H1 3156   0.762   5.564   3.598
 1050TIP3    H2 3157   0.777   5.571   3.448
 1051TIP3   OH2 3158   0.578   4.013   1.789
 1051TIP3    H1 3159   0.495   3.979   1.757
 1051TIP3    H2 3160   0.626   4.040   1.710
 1052TIP3   OH2 3161   2.871   4.581   2.373
 1052TIP3    H1 3162   2.963   4.564   2.393
 1052TIP3    H2 3163   2.846   4.652   2.432
 1053TIP3   OH2 3164   1.635   3.639   1.372
 1053TIP3    H1 3165   1.566   3.694   1.335
 1053TIP3    H2 3166   1.713   3.663   1.322
 1054TIP3   OH2 3167   4.032   0.112   4.591
 1054TIP3    H1 3168   4.113   0.060   4.593
 1054TIP3    H2 3169   4.008   0.116   4.498
 1055TIP3   OH2 3170   0.857   1.248   2.299
 1055TIP3    H1 3171   0.931   1.265   2.241
 1055TIP3    H2 3172   0.791   1.208   2.243
 1056TIP3   OH2 3173   3.945   5.657   2.400
 1056TIP3    H1 3174   3.893   5.602   2.459
 1056TIP3    H2 3175   4.029   5.612   2.393
 1057TIP3   OH2 3176   3.995   5.923   4.430
 1057TIP3    H1 3177   4.088   5.906   4.423
 1057TIP3    H2 3178   3.966   5.938   4.340
 1058TIP3   OH2 3179   2.021   3.969   1.602
 1058TIP3    H1 3180   1.997   3.996   1.514
 1058TIP3    H2 3181   2.117   3.970   1.602
 1059TIP3   OH2 3182   5.612   1.022   3.337
 1059TIP3    H1 3183   5.625   0.931   3.309
 1059TIP3    H2 3184   5.579   1.066   3.259
 1060TIP3   OH2 3185   0.060   2.975   1.373
 1060TIP3    H1 3186  -0.031   2.952   1.356
 1060TIP3    H2 3187   0.086   3.027   1.297
 1061TIP3   OH2 3188   0.275   5.520   1.988
 1061TIP3    H1 3189   0.190   5.556   1.962
 1061TIP3    H2 3190   0.290   5.554   2.077
 1062TIP3   OH2 3191   4.054   4.245   4.782
 1062TIP3    H1 3192   4.084   4.302   4.853
 1062TIP3    H2 3193   4.043   4.303   4.707
 1063TIP3   OH2 3194   0.721   2.512   0.760
 1063TIP3    H1 3195   0.786   2.577   0.735
 1063TIP3    H2 3196   0.739   2.494   0.853
 1064TIP3   OH2 3197   2.954   4.409   4.701
 1064TIP3    H1 3198   2.979   4.351   4.629
 1064TIP3    H2 3199   3.031   4.409   4.759
 1065TIP3   OH2 3200   2.030   5.895   4.281
 1065TIP3    H1 3201   2.049   5.884   4.374
 1065TIP3    H2 3202   1.948   5.944   4.279
 1066TIP3   OH2 3203   5.007   2.426   2.976
 1066TIP3    H1 3204   5.087   2.454   2.931
 1066TIP3    H2 3205   5.033   2.348   3.025
 1067TIP3   OH2 3206   4.431   0.608   4.312
 1067TIP3    H1 3207   4.411   0.636   4.223
 1067TIP3    H2 3208   4.456   0.688   4.358
 1068TIP3   OH2 3209   1.747   3.923   1.658
 1068TIP3    H1 3210   1.837   3.946   1.639
 1068TIP3    H2 3211   1.703   3.925   1.573
 1069TIP3   OH2 3212   4.431   3.126   2.321
 1069TIP3    H1 3213   4.488   3.198   2.351
 1069TIP3    H2 3214   4.366   3.169   2.265
 1070TIP3   OH2 3215   5.817   3.305   3.204
 1070TIP3    H1 3216   5.752   3.277   3.269
 1070TIP3    H2 3217   5.844   3.392   3.234
 1071TIP3   OH2 3218   0.723   3.037   2.536
 1071TIP3    H1 3219   0.786   3.091   2.489
 1071TIP3    H2 3220   0.713   2.959   2.482
 1072TIP3   OH2 3221   2.296   5.720   4.240
 1072TIP3    H1 3222   2.217   5.769   4.261
 1072TIP3    H2 3223   2.306   5.728   4.146
 1073TIP3   OH2 3224   4.892   3.224   0.273
 1073TIP3    H1 3225   4.961   3.290   0.285
 1073TIP3    H2 3226   4.844   3.255   0.197
 1074TIP3   OH2 3227   0.588   4.571   4.086
 1074TIP3    H1 3228   0.507   4.533   4.050
 1074TIP3    H2 3229   0.607   4.646   4.028
 1075TIP3   OH2 3230   2.482   3.915   3.315
 1075TIP3    H1 3231   2.394   3.895   3.347
 1075TIP3    H2 3232   2.530   3.944   3.392
 1076TIP3   OH2 3233   3.003   3.496   3.129
 1076TIP3    H1 3234   2.978   3.452   3.211
 1076TIP3    H2 3235   3.000   3.427   3.063
 1077TIP3   OH2 3236   6.270   4.185   0.628
 1077TIP3    H1 3237   6.194   4.139   0.592
 1077TIP3    H2 3238   6.291   4.251   0.563
 1078TIP3   OH2 3239   4.777   2.240   1.473
 1078TIP3    H1 3240   4.822   2.258   1.390
 1078TIP3    H2 3241   4.711   2.309   1.480
 1079TIP3   OH2 3242   4.847   2.051   2.312
 1079TIP3    H1 3243   4.853   1.975   2.255
 1079TIP3    H2 3244   4.818   2.122   2.255
 1080TIP3   OH2 3245   5.145   4.310   2.044
 1080TIP3    H1 3246   5.094   4.261   1.980
 1080TIP3    H2 3247   5.196   4.243   2.090
 1081TIP3   OH2 3248   4.259   1.746   4.322
 1081TIP3    H1 3249   4.204   1.734   4.399
 1081TIP3    H2 3250   4.209   1.805   4.265
 1082TIP3   OH2 3251   2.840   0.053   1.447
 1082TIP3    H1 3252   2.880   0.110   1.513
 1082TIP3    H2 3253   2.899  -0.022   1.441
 1083TIP3   OH2 3254   1.052   5.210   0.561
 1083TIP3    H1 3255   1.129   5.263   0.540
 1083TIP3    H2 3256   1.017   5.249   0.641
 1084TIP3   OH2 3257   2.601   1.556   4.812
 1084TIP3    H1 3258   2.621   1.647   4.834
 1084TIP3    H2 3259   2.577   1.559   4.719
 1085TIP3   OH2 3260   4.271   5.187   2.753
 1085TIP3    H1 3261   4.283   5.128   2.678
 1085TIP3    H2 3262   4.258   5.274   2.713
 1086TIP3   OH2 3263   4.396   1.982   3.056
 1086TIP3    H1 3264   4.491   1.982   3.067
 1086TIP3    H2 3265   4.378   2.053   2.995
 1087TIP3   OH2 3266   3.107   4.760   0.715
 1087TIP3    H1 3267   3.033   4.735   0.770
 1087TIP3    H2 3268   3.118   4.854   0.732
 1088TIP3   OH2 3269   3.964   0.145   5.012
 1088TIP3    H1 3270   3.892   0.089   5.040
 1088TIP3    H2 3271   3.992   0.190   5.092
 1089TIP3   OH2 3272   1.784   5.301   3.207
 1089TIP3    H1 3273   1.740   5.315   3.123
 1089TIP3    H2 3274   1.712   5.295   3.271
 1090TIP3   OH2 3275   3.398   3.845   0.285
 1090TIP3    H1 3276   3.459   3.825   0.355
 1090TIP3    H2 3277   3.311   3.830   0.323
 1091TIP3   OH2 3278   2.203   1.658   3.540
 1091TIP3    H1 3279   2.198   1.667   3.636
 1091TIP3    H2 3280   2.280   1.709   3.515
 1092TIP3   OH2 3281   4.210   3.049   4.417
 1092TIP3    H1 3282   4.130   3.101   4.425
 1092TIP3    H2 3283   4.254   3.060   4.501
 1093TIP3   OH2 3284   3.052   0.415   4.097
 1093TIP3    H1 3285   2.973   0.420   4.044
 1093TIP3    H2 3286   3.120   0.456   4.043
 1094TIP3   OH2 3287   3.499   5.279   5.106
 1094TIP3    H1 3288   3.515   5.343   5.037
 1094TIP3    H2 3289   3.573   5.290   5.166
 1095TIP3   OH2 3290   4.848   4.536   2.645
 1095TIP3    H1 3291   4.884   4.537   2.557
 1095TIP3    H2 3292   4.888   4.460   2.687
 1096TIP3   OH2 3293   3.327   5.401   4.720
 1096TIP3    H1 3294   3.410   5.399   4.767
 1096TIP3    H2 3295   3.261   5.414   4.788
 1097TIP3   OH2 3296   5.555   4.883   4.494
 1097TIP3    H1 3297   5.461   4.879   4.475
 1097TIP3    H2 3298   5.564   4.957   4.554
 1098TIP3   OH2 3299   5.937   5.432   0.570
 1098TIP3    H1 3300   5.925   5.384   0.652
 1098TIP3    H2 3301   5.950   5.523   0.597
 1099TIP3   OH2 3302   1.949   0.788   4.479
 1099TIP3    H1 3303   1.919   0.746   4.559
 1099TIP3    H2 3304   2.045   0.786   4.485
 1100TIP3   OH2 3305   4.582   0.839   4.409
 1100TIP3    H1 3306   4.557   0.926   4.441
 1100TIP3    H2 3307   4.638   0.803   4.478
 1101TIP3   OH2 3308   4.044   0.625   1.361
 1101TIP3    H1 3309   4.138   0.641   1.365
 1101TIP3    H2 3310   4.005   0.712   1.360
 1102TIP3   OH2 3311   2.259   3.643   0.816
 1102TIP3    H1 3312   2.284   3.718   0.762
 1102TIP3    H2 3313   2.286   3.666   0.904
 1103TIP3   OH2 3314   2.117   0.522   1.045
 1103TIP3    H1 3315   2.128   0.492   0.955
 1103TIP3    H2 3316   2.166   0.604   1.049
 1104TIP3   OH2 3317   5.956   3.643   0.887
 1104TIP3    H1 3318   5.896   3.582   0.930
 1104TIP3    H2 3319   5.973   3.711   0.951
 1105TIP3   OH2 3320   4.200   0.922   3.854
 1105TIP3    H1 3321   4.188   0.979   3.779
 1105TIP3    H2 3322   4.238   0.842   3.818
 1106TIP3   OH2 3323   1.596   4.955   1.881
 1106TIP3    H1 3324   1.622   4.962   1.790
 1106TIP3    H2 3325   1.514   4.906   1.879
 1107TIP3   OH2 3326   5.969   2.849   3.951
 1107TIP3    H1 3327   5.933   2.937   3.959
 1107TIP3    H2 3328   5.994   2.825   4.040
 1108TIP3   OH2 3329   1.890   1.236   3.442
 1108TIP3    H1 3330   1.809   1.278   3.471
 1108TIP3    H2 3331   1.894   1.154   3.491
 1109TIP3   OH2 3332   6.056   5.054   2.663
 1109TIP3    H1 3333   6.022   4.996   2.730
 1109TIP3    H2 3334   6.027   5.142   2.691
 1110TIP3   OH2 3335   3.821   0.565   0.922
 1110TIP3    H1 3336   3.903   0.554   0.972
 1110TIP3    H2 3337   3.778   0.639   0.964
 1111TIP3   OH2 3338   2.515   5.157   0.407
 1111TIP3    H1 3339   2.551   5.206   0.481
 1111TIP3    H2 3340   2.582   5.092   0.386
 1112TIP3   OH2 3341   5.068   3.547   1.977
 1112TIP3    H1 3342   4.973   3.555   1.969
 1112TIP3    H2 3343   5.084   3.452   1.978
 1113TIP3   OH2 3344   0.293   2.917   3.018
 1113TIP3    H1 3345   0.204   2.899   3.046
 1113TIP3    H2 3346   0.342   2.838   3.043
 1114TIP3   OH2 3347   3.266   1.323   3.346
 1114TIP3    H1 3348   3.269   1.359   3.258
 1114TIP3    H2 3349   3.226   1.393   3.399
 1115TIP3   OH2 3350   3.318   4.723   4.682
 1115TIP3    H1 3351   3.331   4.795   4.745
 1115TIP3    H2 3352   3.407   4.698   4.657
 1116TIP3   OH2 3353   3.461   1.900   4.329
 1116TIP3    H1 3354   3.440   1.878   4.420
 1116TIP3    H2 3355   3.405   1.842   4.277
 1117TIP3   OH2 3356   2.969   1.535   2.242
 1117TIP3    H1 3357   2.884   1.526   2.198
 1117TIP3    H2 3358   3.004   1.446   2.245
 1118TIP3   OH2 3359   0.833   5.485   0.759
 1118TIP3    H1 3360   0.792   5.510   0.676
 1118TIP3    H2 3361   0.927   5.490   0.742
 1119TIP3   OH2 3362   6.193   2.709   1.948
 1119TIP3    H1 3363   6.152   2.792   1.973
 1119TIP3    H2 3364   6.143   2.680   1.871
 1120TIP3   OH2 3365   4.782   4.021   2.972
 1120TIP3    H1 3366   4.763   4.003   2.880
 1120TIP3    H2 3367   4.737   4.104   2.990
 1121TIP3   OH2 3368   4.782   3.603   3.017
 1121TIP3    H1 3369   4.722   3.580   3.088
 1121TIP3    H2 3370   4.848   3.658   3.059
 1122TIP3   OH2 3371   0.939   4.195   3.900
 1122TIP3    H1 3372   0.890   4.147   3.833
 1122TIP3    H2 3373   0.880   4.266   3.926
 1123TIP3   OH2 3374   5.258   2.390   2.357
 1123TIP3    H1 3375   5.265   2.304   2.315
 1123TIP3    H2 3376   5.180   2.384   2.412
 1124TIP3   OH2 3377   6.220   2.866   0.885
 1124TIP3    H1 3378   6.305   2.870   0.929
 1124TIP3    H2 3379   6.216   2.778   0.849
 1125TIP3   OH2 3380   1.110   0.976   4.635
 1125TIP3    H1 3381   1.196   1.012   4.612
 1125TIP3    H2 3382   1.061   1.051   4.667
 1126TIP3   OH2 3383   1.559   2.640   3.064
 1126TIP3    H1 3384   1.471   2.603   3.053
 1126TIP3    H2 3385   1.560   2.674   3.153
 1127TIP3   OH2 3386   4.591   5.946   4.309
 1127TIP3    H1 3387   4.612   5.978   4.397
 1127TIP3    H2 3388   4.624   6.015   4.250
 1128TIP3   OH2 3389   5.960   5.915   4.166
 1128TIP3    H1 3390   5.958   6.003   4.128
 1128TIP3    H2 3391   5.990   5.929   4.256
 1129TIP3   OH2 3392   0.981   1.209   0.876
 1129TIP3    H1 3393   1.054   1.147   0.869
 1129TIP3    H2 3394   0.910   1.158   0.915
 1130TIP3   OH2 3395   0.063   3.687   4.397
 1130TIP3    H1 3396   0.036   3.715   4.310
 1130TIP3    H2 3397   0.019   3.603   4.410
 1131TIP3   OH2 3398   5.850   0.850   4.924
 1131TIP3    H1 3399   5.932   0.811   4.894
 1131TIP3    H2 3400   5.788   0.832   4.853
 1132TIP3   OH2 3401   3.951   0.755   3.336
 1132TIP3    H1 3402   4.041   0.725   3.349
 1132TIP3    H2 3403   3.925   0.790   3.421
 1133TIP3   OH2 3404   4.378   0.686   1.041
 1133TIP3    H1 3405   4.390   0.598   1.076
 1133TIP3    H2 3406   4.354   0.673   0.949
 1134TIP3   OH2 3407   1.579   1.646   0.616
 1134TIP3    H1 3408   1.661   1.614   0.578
 1134TIP3    H2 3409   1.550   1.574   0.673
 1135TIP3   OH2 3410   5.394   2.027   4.455
 1135TIP3    H1 3411   5.424   2.092   4.519
 1135TIP3    H2 3412   5.405   2.071   4.371
 1136TIP3   OH2 3413   3.233   2.122   3.570
 1136TIP3    H1 3414   3.315   2.095   3.528
 1136TIP3    H2 3415   3.164   2.088   3.513
 1137TIP3   OH2 3416   3.833   5.983   3.097
 1137TIP3    H1 3417   3.870   5.903   3.060
 1137TIP3    H2 3418   3.909   6.031   3.130
 1138TIP3   OH2 3419   1.957   3.446   2.093
 1138TIP3    H1 3420   2.013   3.520   2.116
 1138TIP3    H2 3421   1.869   3.475   2.115
 1139TIP3   OH2 3422   5.040   2.429   1.966
 1139TIP3    H1 3423   5.026   2.375   2.043
 1139TIP3    H2 3424   4.983   2.391   1.899
 1140TIP3   OH2 3425   0.658   3.354   4.003
 1140TIP3    H1 3426   0.609   3.413   3.946
 1140TIP3    H2 3427   0.731   3.408   4.036
 1141TIP3   OH2 3428   0.206   1.664   0.683
 1141TIP3    H1 3429   0.150   1.638   0.610
 1141TIP3    H2 3430   0.292   1.679   0.643
 1142TIP3   OH2 3431   5.164   4.134   3.350
 1142TIP3    H1 3432   5.122   4.170   3.272
 1142TIP3    H2 3433   5.096   4.081   3.392
 1143TIP3   OH2 3434   1.255   4.832   0.751
 1143TIP3    H1 3435   1.341   4.811   0.715
 1143TIP3    H2 3436   1.240   4.923   0.725
 1144TIP3   OH2 3437   0.053   5.693   2.708
 1144TIP3    H1 3438   0.076   5.785   2.698
 1144TIP3    H2 3439   0.054   5.678   2.803
 1145TIP3   OH2 3440   2.472   3.910  -0.009
 1145TIP3    H1 3441   2.388   3.912   0.037
 1145TIP3    H2 3442   2.527   3.973   0.038
 1146TIP3   OH2 3443   1.300   3.197   2.353
 1146TIP3    H1 3444   1.379   3.144   2.339
 1146TIP3    H2 3445   1.228   3.135   2.344
 1147TIP3   OH2 3446   1.281   2.418   1.052
 1147TIP3    H1 3447   1.343   2.488   1.071
 1147TIP3    H2 3448   1.336   2.343   1.029
 1148TIP3   OH2 3449   0.556   1.917   4.203
 1148TIP3    H1 3450   0.580   1.915   4.111
 1148TIP3    H2 3451   0.639   1.917   4.250
 1149TIP3   OH2 3452   1.015   4.480   1.980
 1149TIP3    H1 3453   1.038   4.492   1.888
 1149TIP3    H2 3454   0.921   4.465   1.980
 1150TIP3   OH2 3455   2.724   1.750   0.563
 1150TIP3    H1 3456   2.817   1.771   0.554
 1150TIP3    H2 3457   2.723   1.663   0.604
 1151TIP3   OH2 3458   1.392   2.967   3.571
 1151TIP3    H1 3459   1.379   2.978   3.477
 1151TIP3    H2 3460   1.483   2.993   3.586
 1152TIP3   OH2 3461   1.065   1.662   1.841
 1152TIP3    H1 3462   1.145   1.626   1.803
 1152TIP3    H2 3463   1.093   1.695   1.927
 1153TIP3   OH2 3464   3.042   5.516   4.711
 1153TIP3    H1 3465   2.947   5.533   4.707
 1153TIP3    H2 3466   3.059   5.492   4.802
 1154TIP3   OH2 3467   0.682   3.187   5.021
 1154TIP3    H1 3468   0.610   3.215   5.078
 1154TIP3    H2 3469   0.712   3.105   5.059
 1155TIP3   OH2 3470   5.649   4.364   1.015
 1155TIP3    H1 3471   5.647   4.420   1.093
 1155TIP3    H2 3472   5.711   4.407   0.956
 1156TIP3   OH2 3473   3.947   4.216   3.395
 1156TIP3    H1 3474   3.921   4.302   3.362
 1156TIP3    H2 3475   3.896   4.154   3.343
 1157TIP3   OH2 3476   1.015   0.851   3.289
 1157TIP3    H1 3477   1.087   0.913   3.277
 1157TIP3    H2 3478   1.022   0.790   3.216
 1158TIP3   OH2 3479   0.169   2.675   2.469
 1158TIP3    H1 3480   0.260   2.704   2.457
 1158TIP3    H2 3481   0.152   2.687   2.563
 1159TIP3   OH2 3482   3.825   3.104   1.191
 1159TIP3    H1 3483   3.767   3.084   1.265
 1159TIP3    H2 3484   3.912   3.076   1.220
 1160TIP3   OH2 3485   2.310   5.450   0.503
 1160TIP3    H1 3486   2.395   5.461   0.460
 1160TIP3    H2 3487   2.246   5.458   0.432
 1161TIP3   OH2 3488   1.925   2.967   1.219
 1161TIP3    H1 3489   1.876   3.033   1.268
 1161TIP3    H2 3490   1.930   3.002   1.130
 1162TIP3   OH2 3491   1.297   4.371   1.374
 1162TIP3    H1 3492   1.317   4.462   1.397
 1162TIP3    H2 3493   1.264   4.375   1.285
 1163TIP3   OH2 3494   5.263   5.915   2.552
 1163TIP3    H1 3495   5.190   5.973   2.531
 1163TIP3    H2 3496   5.332   5.973   2.584
 1164TIP3   OH2 3497   1.194   1.434   2.828
 1164TIP3    H1 3498   1.250   1.359   2.848
 1164TIP3    H2 3499   1.233   1.507   2.876
 1165TIP3   OH2 3500   3.892   0.182   0.109
 1165TIP3    H1 3501   3.827   0.136   0.056
 1165TIP3    H2 3502   3.842   0.217   0.183
 1166TIP3   OH2 3503   0.144   5.232   1.452
 1166TIP3    H1 3504   0.229   5.254   1.491
 1166TIP3    H2 3505   0.162   5.225   1.358
 1167TIP3   OH2 3506   2.545   2.443   4.634
 1167TIP3    H1 3507   2.527   2.379   4.703
 1167TIP3    H2 3508   2.461   2.452   4.588
 1168TIP3   OH2 3509   5.390   4.629   1.140
 1168TIP3    H1 3510   5.351   4.642   1.226
 1168TIP3    H2 3511   5.316   4.610   1.082
 1169TIP3   OH2 3512   0.977   3.168   1.119
 1169TIP3    H1 3513   1.068   3.140   1.106
 1169TIP3    H2 3514   0.948   3.119   1.196
 1170TIP3   OH2 3515   0.444   1.814   1.804
 1170TIP3    H1 3516   0.538   1.794   1.803
 1170TIP3    H2 3517   0.402   1.733   1.776
 1171TIP3   OH2 3518   3.637   4.863   2.979
 1171TIP3    H1 3519   3.595   4.782   2.949
 1171TIP3    H2 3520   3.623   4.925   2.907
 1172TIP3   OH2 3521   4.069   5.975   2.912
 1172TIP3    H1 3522   4.111   5.891   2.932
 1172TIP3    H2 3523   4.141   6.038   2.909
 1173TIP3   OH2 3524   2.176   2.506   4.070
 1173TIP3    H1 3525   2.271   2.507   4.074
 1173TIP3    H2 3526   2.148   2.533   4.158
 1174TIP3   OH2 3527   2.501   3.546   1.933
 1174TIP3    H1 3528   2.581   3.580   1.892
 1174TIP3    H2 3529   2.430   3.589   1.885
 1175TIP3   OH2 3530   0.025   4.100   1.778
 1175TIP3    H1 3531   0.091   4.138   1.836
 1175TIP3    H2 3532   0.066   4.022   1.742
 1176TIP3   OH2 3533   0.781   3.485   3.682
 1176TIP3    H1 3534   0.793   3.420   3.751
 1176TIP3    H2 3535   0.845   3.460   3.615
 1177TIP3   OH2 3536   0.500   2.250   3.014
 1177TIP3    H1 3537   0.455   2.261   3.097
 1177TIP3    H2 3538   0.434   2.214   2.955
 1178TIP3   OH2 3539   0.112   1.847   2.521
 1178TIP3    H1 3540   0.023   1.815   2.506
 1178TIP3    H2 3541   0.164   1.768   2.531
 1179TIP3   OH2 3542   0.171   4.601   2.784
 1179TIP3    H1 3543   0.238   4.583   2.851
 1179TIP3    H2 3544   0.089   4.580   2.827
 1180TIP3   OH2 3545   4.115   1.100   4.169
 1180TIP3    H1 3546   4.035   1.140   4.204
 1180TIP3    H2 3547   4.083   1.034   4.107
 1181TIP3   OH2 3548   3.593   4.703   4.606
 1181TIP3    H1 3549   3.575   4.708   4.512
 1181TIP3    H2 3550   3.687   4.686   4.611
 1182TIP3   OH2 3551   0.295   3.751   4.519
 1182TIP3    H1 3552   0.207   3.714   4.509
 1182TIP3    H2 3553   0.353   3.688   4.477
 1183TIP3   OH2 3554   4.278   1.880   1.363
 1183TIP3    H1 3555   4.251   1.790   1.341
 1183TIP3    H2 3556   4.196   1.925   1.383
 1184TIP3   OH2 3557   5.048   5.867   0.584
 1184TIP3    H1 3558   5.085   5.792   0.631
 1184TIP3    H2 3559   4.954   5.863   0.604
 1185TIP3   OH2 3560   1.002   5.410   2.781
 1185TIP3    H1 3561   1.052   5.399   2.700
 1185TIP3    H2 3562   0.911   5.411   2.753
 1186TIP3   OH2 3563   0.998   2.696   1.746
 1186TIP3    H1 3564   0.920   2.648   1.722
 1186TIP3    H2 3565   0.996   2.699   1.842
 1187TIP3   OH2 3566   5.444   3.504   2.975
 1187TIP3    H1 3567   5.414   3.434   3.033
 1187TIP3    H2 3568   5.535   3.482   2.956
 1188TIP3   OH2 3569   5.546   3.134   2.455
 1188TIP3    H1 3570   5.586   3.202   2.401
 1188TIP3    H2 3571   5.452   3.152   2.449
 1189TIP3   OH2 3572   1.683   0.823   2.881
 1189TIP3    H1 3573   1.736   0.763   2.933
 1189TIP3    H2 3574   1.653   0.889   2.943
 1190TIP3   OH2 3575   4.167   5.041   2.059
 1190TIP3    H1 3576   4.152   5.072   1.970
 1190TIP3    H2 3577   4.257   5.007   2.058
 1191TIP3   OH2 3578   5.188   3.481   5.054
 1191TIP3    H1 3579   5.210   3.392   5.082
 1191TIP3    H2 3580   5.093   3.487   5.064
 1192TIP3   OH2 3581   4.300   5.790   1.074
 1192TIP3    H1 3582   4.340   5.866   1.032
 1192TIP3    H2 3583   4.241   5.754   1.008
 1193TIP3   OH2 3584   2.053   4.186   1.798
 1193TIP3    H1 3585   2.021   4.135   1.724
 1193TIP3    H2 3586   2.085   4.267   1.760
 1194TIP3   OH2 3587   3.582   3.397   0.557
 1194TIP3    H1 3588   3.598   3.426   0.647
 1194TIP3    H2 3589   3.644   3.447   0.504
 1195TIP3   OH2 3590   5.583   3.935   4.394
 1195TIP3    H1 3591   5.591   3.950   4.488
 1195TIP3    H2 3592   5.490   3.923   4.379
 1196TIP3   OH2 3593   4.532   0.809   1.991
 1196TIP3    H1 3594   4.584   0.862   1.931
 1196TIP3    H2 3595   4.463   0.868   2.022
 1197TIP3   OH2 3596   6.030   3.098   2.898
 1197TIP3    H1 3597   6.019   3.125   2.807
 1197TIP3    H2 3598   6.092   3.161   2.934
 1198TIP3   OH2 3599   5.992   5.115   1.476
 1198TIP3    H1 3600   6.035   5.196   1.449
 1198TIP3    H2 3601   5.923   5.143   1.536
 1199TIP3   OH2 3602   4.213   2.422   1.925
 1199TIP3    H1 3603   4.300   2.404   1.963
 1199TIP3    H2 3604   4.203   2.355   1.857
 1200TIP3   OH2 3605   3.631   0.148   0.805
 1200TIP3    H1 3606   3.568   0.191   0.863
 1200TIP3    H2 3607   3.704   0.210   0.797
 1201TIP3   OH2 3608   4.248   5.821   4.405
 1201TIP3    H1 3609   4.299   5.858   4.478
 1201TIP3    H2 3610   4.308   5.760   4.363
 1202TIP3   OH2 3611   0.780   1.094   1.027
 1202TIP3    H1 3612   0.709   1.074   0.967
 1202TIP3    H2 3613   0.817   1.008   1.051
 1203TIP3   OH2 3614   4.721   2.792   1.624
 1203TIP3    H1 3615   4.737   2.721   1.562
 1203TIP3    H2 3616   4.806   2.835   1.633
 1204TIP3   OH2 3617   5.589   3.529   2.699
 1204TIP3    H1 3618   5.584   3.608   2.753
 1204TIP3    H2 3619   5.676   3.533   2.659
 1205TIP3   OH2 3620   6.345   3.355   1.118
 1205TIP3    H1 3621   6.402   3.360   1.041
 1205TIP3    H2 3622   6.269   3.407   1.095
 1206TIP3   OH2 3623   5.212   1.404   2.041
 1206TIP3    H1 3624   5.236   1.337   2.105
 1206TIP3    H2 3625   5.168   1.472   2.092
 1207TIP3   OH2 3626   4.384   4.022   0.211
 1207TIP3    H1 3627   4.289   4.030   0.203
 1207TIP3    H2 3628   4.399   3.928   0.216
 1208TIP3   OH2 3629   0.478   1.879   0.732
 1208TIP3    H1 3630   0.501   1.788   0.718
 1208TIP3    H2 3631   0.561   1.922   0.751
 1209TIP3   OH2 3632   2.375   2.856   0.807
 1209TIP3    H1 3633   2.373   2.943   0.848
 1209TIP3    H2 3634   2.449   2.811   0.848
 1210TIP3   OH2 3635   5.976   3.243   2.261
 1210TIP3    H1 3636   5.925   3.319   2.232
 1210TIP3    H2 3637   6.065   3.261   2.229
 1211TIP3   OH2 3638   4.493   5.648   3.191
 1211TIP3    H1 3639   4.451   5.587   3.132
 1211TIP3    H2 3640   4.584   5.618   3.197
 1212TIP3   OH2 3641   1.573   2.872   4.728
 1212TIP3    H1 3642   1.650   2.828   4.763
 1212TIP3    H2 3643   1.509   2.867   4.799
 1213TIP3   OH2 3644   2.366   4.277   1.229
 1213TIP3    H1 3645   2.354   4.366   1.197
 1213TIP3    H2 3646   2.460   4.265   1.235
 1214TIP3   OH2 3647   0.354   1.097   4.209
 1214TIP3    H1 3648   0.333   1.004   4.218
 1214TIP3    H2 3649   0.274   1.137   4.175
 1215TIP3   OH2 3650   0.374   3.122   0.356
 1215TIP3    H1 3651   0.419   3.191   0.307
 1215TIP3    H2 3652   0.322   3.076   0.291
 1216TIP3   OH2 3653   6.248   3.101   2.656
 1216TIP3    H1 3654   6.310   3.056   2.599
 1216TIP3    H2 3655   6.294   3.111   2.739
 1217TIP3   OH2 3656   1.399   2.977   3.301
 1217TIP3    H1 3657   1.492   2.958   3.312
 1217TIP3    H2 3658   1.380   2.950   3.211
 1218TIP3   OH2 3659   2.849   1.995   3.983
 1218TIP3    H1 3660   2.770   2.031   4.021
 1218TIP3    H2 3661   2.885   2.066   3.930
 1219TIP3   OH2 3662   3.020   1.272   2.215
 1219TIP3    H1 3663   2.927   1.256   2.224
 1219TIP3    H2 3664   3.061   1.186   2.224
 1220TIP3   OH2 3665   3.233   3.932   0.947
 1220TIP3    H1 3666   3.185   4.015   0.945
 1220TIP3    H2 3667   3.286   3.937   1.026
 1221TIP3   OH2 3668   4.334   0.966   4.789
 1221TIP3    H1 3669   4.329   0.976   4.884
 1221TIP3    H2 3670   4.389   0.890   4.775
 1222TIP3   OH2 3671   5.831   4.637   0.086
 1222TIP3    H1 3672   5.759   4.584   0.120
 1222TIP3    H2 3673   5.829   4.717   0.139
 1223TIP3   OH2 3674   1.537   1.649   3.493
 1223TIP3    H1 3675   1.496   1.688   3.570
 1223TIP3    H2 3676   1.548   1.556   3.515
 1224TIP3   OH2 3677   0.795   2.583   4.321
 1224TIP3    H1 3678   0.864   2.552   4.380
 1224TIP3    H2 3679   0.824   2.556   4.234
 1225TIP3   OH2 3680   1.638   0.875   3.635
 1225TIP3    H1 3681   1.632   0.884   3.730
 1225TIP3    H2 3682   1.551   0.900   3.602
 1226TIP3   OH2 3683   6.244   1.391   1.625
 1226TIP3    H1 3684   6.168   1.350   1.584
 1226TIP3    H2 3685   6.320   1.350   1.583
 1227TIP3   OH2 3686   1.571   1.405   0.826
 1227TIP3    H1 3687   1.597   1.369   0.910
 1227TIP3    H2 3688   1.570   1.329   0.767
 1228TIP3   OH2 3689   5.030   1.926   3.508
 1228TIP3    H1 3690   5.094   1.985   3.548
 1228TIP3    H2 3691   5.080   1.845   3.492
 1229TIP3   OH2 3692   1.359   2.604   1.835
 1229TIP3    H1 3693   1.339   2.597   1.742
 1229TIP3    H2 3694   1.275   2.592   1.879
 1230TIP3   OH2 3695   5.198   0.953   4.113
 1230TIP3    H1 3696   5.248   0.979   4.191
 1230TIP3    H2 3697   5.112   0.928   4.148
 1231TIP3   OH2 3698   5.283   0.206   3.207
 1231TIP3    H1 3699   5.303   0.113   3.222
 1231TIP3    H2 3700   5.214   0.205   3.141
 1232TIP3   OH2 3701   1.754   2.584   1.087
 1232TIP3    H1 3702   1.837   2.597   1.041
 1232TIP3    H2 3703   1.776   2.532   1.164
 1233TIP3   OH2 3704   3.135   2.969   1.999
 1233TIP3    H1 3705   3.123   2.878   1.973
 1233TIP3    H2 3706   3.104   2.973   2.089
 1234TIP3   OH2 3707   3.233   5.381   3.163
 1234TIP3    H1 3708   3.271   5.436   3.231
 1234TIP3    H2 3709   3.307   5.356   3.108
 1235TIP3   OH2 3710   6.272   5.652   3.607
 1235TIP3    H1 3711   6.246   5.560   3.599
 1235TIP3    H2 3712   6.279   5.682   3.516
 1236TIP3   OH2 3713   3.076   1.818   3.631
 1236TIP3    H1 3714   3.096   1.726   3.610
 1236TIP3    H2 3715   2.990   1.833   3.592
 1237TIP3   OH2 3716   1.156   1.066   2.924
 1237TIP3    H1 3717   1.179   1.090   2.834
 1237TIP3    H2 3718   1.061   1.052   2.922
 1238TIP3   OH2 3719   5.460   0.105   4.917
 1238TIP3    H1 3720   5.417   0.019   4.907
 1238TIP3    H2 3721   5.400   0.166   4.874
 1239TIP3   OH2 3722   5.801   3.332   2.899
 1239TIP3    H1 3723   5.807   3.251   2.951
 1239TIP3    H2 3724   5.834   3.400   2.958
 1240TIP3   OH2 3725   1.492   2.871   1.005
 1240TIP3    H1 3726   1.533   2.937   1.060
 1240TIP3    H2 3727   1.562   2.843   0.945
 1241TIP3   OH2 3728   3.430   2.506   3.565
 1241TIP3    H1 3729   3.523   2.526   3.560
 1241TIP3    H2 3730   3.398   2.517   3.475
 1242TIP3   OH2 3731   1.479   4.642   0.959
 1242TIP3    H1 3732   1.448   4.723   0.998
 1242TIP3    H2 3733   1.533   4.601   1.027
 1243TIP3   OH2 3734   0.494   4.599   1.561
 1243TIP3    H1 3735   0.440   4.643   1.496
 1243TIP3    H2 3736   0.530   4.669   1.615
 1244TIP3   OH2 3737   6.083   2.174   4.825
 1244TIP3    H1 3738   6.173   2.143   4.812
 1244TIP3    H2 3739   6.032   2.095   4.839
 1245TIP3   OH2 3740   4.609   0.180   2.321
 1245TIP3    H1 3741   4.583   0.267   2.289
 1245TIP3    H2 3742   4.614   0.126   2.242
 1246TIP3   OH2 3743   6.155   2.041   2.722
 1246TIP3    H1 3744   6.165   2.113   2.784
 1246TIP3    H2 3745   6.138   1.964   2.776
 1247TIP3   OH2 3746   0.060   1.882   0.132
 1247TIP3    H1 3747   0.102   1.944   0.071
 1247TIP3    H2 3748   0.117   1.883   0.209
 1248TIP3   OH2 3749   0.955   2.330   2.613
 1248TIP3    H1 3750   0.959   2.387   2.536
 1248TIP3    H2 3751   0.961   2.390   2.687
 1249TIP3   OH2 3752   4.225   0.062   4.932
 1249TIP3    H1 3753   4.186  -0.002   4.872
 1249TIP3    H2 3754   4.189   0.040   5.018
 1250TIP3   OH2 3755   2.456   5.031   4.372
 1250TIP3    H1 3756   2.544   5.010   4.403
 1250TIP3    H2 3757   2.403   4.955   4.398
 1251TIP3   OH2 3758   4.556   4.662   0.175
 1251TIP3    H1 3759   4.598   4.579   0.154
 1251TIP3    H2 3760   4.628   4.719   0.202
 1252TIP3   OH2 3761   3.020   5.522   4.191
 1252TIP3    H1 3762   3.091   5.461   4.170
 1252TIP3    H2 3763   3.015   5.581   4.116
 1253TIP3   OH2 3764   3.896   5.642   0.940
 1253TIP3    H1 3765   3.934   5.664   0.855
 1253TIP3    H2 3766   3.940   5.561   0.966
 1254TIP3   OH2 3767   3.703   1.632   0.296
 1254TIP3    H1 3768   3.792   1.606   0.271
 1254TIP3    H2 3769   3.700   1.618   0.391
 1255TIP3   OH2 3770   1.606   5.520   0.565
 1255TIP3    H1 3771   1.618   5.441   0.512
 1255TIP3    H2 3772   1.513   5.518   0.589
 1256TIP3   OH2 3773   2.387   2.312   1.240
 1256TIP3    H1 3774   2.326   2.238   1.232
 1256TIP3    H2 3775   2.427   2.300   1.326
 1257TIP3   OH2 3776   0.633   1.665   3.980
 1257TIP3    H1 3777   0.582   1.744   3.964
 1257TIP3    H2 3778   0.715   1.697   4.018
 1258TIP3   OH2 3779   1.561   2.977   2.106
 1258TIP3    H1 3780   1.469   3.000   2.092
 1258TIP3    H2 3781   1.583   3.019   2.189
 1259TIP3   OH2 3782   6.375   3.680   1.061
 1259TIP3    H1 3783   6.314   3.699   0.990
 1259TIP3    H2 3784   6.320   3.643   1.131
 1260TIP3   OH2 3785   3.495   5.821   1.409
 1260TIP3    H1 3786   3.578   5.868   1.398
 1260TIP3    H2 3787   3.436   5.861   1.345
 1261TIP3   OH2 3788   1.248   1.388   0.947
 1261TIP3    H1 3789   1.264   1.371   0.854
 1261TIP3    H2 3790   1.163   1.349   0.965
 1262TIP3   OH2 3791   0.323   4.305   0.085
 1262TIP3    H1 3792   0.410   4.345   0.085
 1262TIP3    H2 3793   0.263   4.378   0.071
 1263TIP3   OH2 3794   2.811   2.448   4.087
 1263TIP3    H1 3795   2.792   2.539   4.105
 1263TIP3    H2 3796   2.837   2.447   3.995
 1264TIP3   OH2 3797   2.306   4.655   0.712
 1264TIP3    H1 3798   2.289   4.720   0.644
 1264TIP3    H2 3799   2.400   4.640   0.707
 1265TIP3   OH2 3800   3.205   4.426   0.396
 1265TIP3    H1 3801   3.166   4.353   0.348
 1265TIP3    H2 3802   3.167   4.419   0.484
 1266TIP3   OH2 3803   5.957   3.084   3.245
 1266TIP3    H1 3804   5.909   3.166   3.232
 1266TIP3    H2 3805   6.030   3.088   3.184
 1267TIP3   OH2 3806   4.389   4.241   0.061
 1267TIP3    H1 3807   4.479   4.269   0.043
 1267TIP3    H2 3808   4.399   4.172   0.127
 1268TIP3   OH2 3809   2.082   1.342   4.915
 1268TIP3    H1 3810   2.159   1.396   4.932
 1268TIP3    H2 3811   2.095   1.263   4.966
 1269TIP3   OH2 3812   2.464   2.506   4.094
 1269TIP3    H1 3813   2.520   2.530   4.020
 1269TIP3    H2 3814   2.473   2.578   4.156
 1270TIP3   OH2 3815   5.417   2.450   3.353
 1270TIP3    H1 3816   5.332   2.473   3.317
 1270TIP3    H2 3817   5.415   2.484   3.443
 1271TIP3   OH2 3818   3.389   1.765   1.074
 1271TIP3    H1 3819   3.379   1.835   1.138
 1271TIP3    H2 3820   3.456   1.708   1.111
 1272TIP3   OH2 3821   0.818   1.414   1.946
 1272TIP3    H1 3822   0.790   1.322   1.952
 1272TIP3    H2 3823   0.888   1.413   1.881
 1273TIP3   OH2 3824   1.266   0.461   0.080
 1273TIP3    H1 3825   1.321   0.507   0.143
 1273TIP3    H2 3826   1.184   0.509   0.080
 1274TIP3   OH2 3827   2.493   0.457   4.492
 1274TIP3    H1 3828   2.434   0.395   4.449
 1274TIP3    H2 3829   2.558   0.479   4.425
 1275TIP3   OH2 3830   3.775   4.078   4.152
 1275TIP3    H1 3831   3.861   4.113   4.172
 1275TIP3    H2 3832   3.792   3.997   4.104
 1276TIP3   OH2 3833   1.520   0.549   3.812
 1276TIP3    H1 3834   1.521   0.575   3.720
 1276TIP3    H2 3835   1.446   0.490   3.819
 1277TIP3   OH2 3836   5.676   4.789   3.090
 1277TIP3    H1 3837   5.657   4.834   3.173
 1277TIP3    H2 3838   5.741   4.723   3.113
 1278TIP3   OH2 3839   5.210   4.138   0.602
 1278TIP3    H1 3840   5.228   4.136   0.508
 1278TIP3    H2 3841   5.294   4.120   0.643
 1279TIP3   OH2 3842   6.076   2.444   1.299
 1279TIP3    H1 3843   6.045   2.416   1.213
 1279TIP3    H2 3844   6.008   2.416   1.360
 1280TIP3   OH2 3845   5.101   0.622   3.512
 1280TIP3    H1 3846   5.057   0.701   3.542
 1280TIP3    H2 3847   5.194   0.643   3.517
 1281TIP3   OH2 3848   4.619   0.239   2.813
 1281TIP3    H1 3849   4.575   0.155   2.806
 1281TIP3    H2 3850   4.598   0.271   2.901
 1282TIP3   OH2 3851   5.972   3.176   2.548
 1282TIP3    H1 3852   5.980   3.223   2.465
 1282TIP3    H2 3853   6.061   3.175   2.584
 1283TIP3   OH2 3854   1.109   4.966   1.864
 1283TIP3    H1 3855   1.146   4.994   1.947
 1283TIP3    H2 3856   1.086   5.047   1.819
 1284TIP3   OH2 3857   5.633   5.344   1.642
 1284TIP3    H1 3858   5.694   5.310   1.708
 1284TIP3    H2 3859   5.661   5.302   1.560
 1285TIP3   OH2 3860   2.644   0.638   1.738
 1285TIP3    H1 3861   2.688   0.579   1.799
 1285TIP3    H2 3862   2.552   0.611   1.741
 1286TIP3   OH2 3863   4.677   3.235   2.022
 1286TIP3    H1 3864   4.620   3.237   1.944
 1286TIP3    H2 3865   4.743   3.169   2.001
 1287TIP3   OH2 3866   0.349   1.919   4.932
 1287TIP3    H1 3867   0.257   1.918   4.906
 1287TIP3    H2 3868   0.395   1.953   4.855
 1288TIP3   OH2 3869   6.305   1.100   4.338
 1288TIP3    H1 3870   6.331   1.019   4.382
 1288TIP3    H2 3871   6.231   1.074   4.283
 1289TIP3   OH2 3872   0.291   2.823   0.626
 1289TIP3    H1 3873   0.267   2.736   0.656
 1289TIP3    H2 3874   0.386   2.827   0.637
 1290TIP3   OH2 3875   1.875   2.641   1.913
 1290TIP3    H1 3876   1.906   2.557   1.880
 1290TIP3    H2 3877   1.851   2.624   2.004
 1291TIP3   OH2 3878   1.650   4.288   3.126
 1291TIP3    H1 3879   1.735   4.321   3.156
 1291TIP3    H2 3880   1.625   4.348   3.056
 1292TIP3   OH2 3881   2.519   5.199   0.951
 1292TIP3    H1 3882   2.430   5.205   0.986
 1292TIP3    H2 3883   2.545   5.290   0.937
 1293TIP3   OH2 3884   5.310   3.711   3.075
 1293TIP3    H1 3885   5.320   3.795   3.030
 1293TIP3    H2 3886   5.374   3.653   3.032
 1294TIP3   OH2 3887   3.904   5.642   3.823
 1294TIP3    H1 3888   3.916   5.737   3.821
 1294TIP3    H2 3889   3.988   5.609   3.855
 1295TIP3   OH2 3890   0.495   4.584   4.332
 1295TIP3    H1 3891   0.531   4.569   4.245
 1295TIP3    H2 3892   0.564   4.631   4.379
 1296TIP3   OH2 3893   2.208   1.721   1.155
 1296TIP3    H1 3894   2.280   1.659   1.164
 1296TIP3    H2 3895   2.190   1.751   1.244
 1297TIP3   OH2 3896   5.416   3.968   3.038
 1297TIP3    H1 3897   5.455   3.983   2.952
 1297TIP3    H2 3898   5.465   4.025   3.098
 1298TIP3   OH2 3899   0.589   4.769   3.900
 1298TIP3    H1 3900   0.524   4.839   3.901
 1298TIP3    H2 3901   0.659   4.800   3.958
 1299TIP3   OH2 3902   4.675   4.976   2.355
 1299TIP3    H1 3903   4.671   4.992   2.449
 1299TIP3    H2 3904   4.618   5.042   2.317
 1300TIP3   OH2 3905   3.523   2.029   3.540
 1300TIP3    H1 3906   3.570   2.084   3.603
 1300TIP3    H2 3907   3.542   1.939   3.568
 1301TIP3   OH2 3908   3.096   2.798   1.116
 1301TIP3    H1 3909   3.161   2.770   1.180
 1301TIP3    H2 3910   3.103   2.893   1.115
 1302TIP3   OH2 3911   4.820   1.351   5.020
 1302TIP3    H1 3912   4.894   1.412   5.019
 1302TIP3    H2 3913   4.750   1.397   4.973
 1303TIP3   OH2 3914   5.472   1.978   0.802
 1303TIP3    H1 3915   5.469   1.892   0.759
 1303TIP3    H2 3916   5.444   2.039   0.733
 1304TIP3   OH2 3917   3.787   5.602   3.470
 1304TIP3    H1 3918   3.843   5.577   3.544
 1304TIP3    H2 3919   3.817   5.690   3.446
 1305TIP3   OH2 3920   1.349   5.737   5.142
 1305TIP3    H1 3921   1.368   5.672   5.074
 1305TIP3    H2 3922   1.368   5.692   5.224
 1306TIP3   OH2 3923   0.658   1.700   4.626
 1306TIP3    H1 3924   0.684   1.626   4.570
 1306TIP3    H2 3925   0.562   1.694   4.629
 1307TIP3   OH2 3926   3.825   1.192   1.382
 1307TIP3    H1 3927   3.750   1.176   1.326
 1307TIP3    H2 3928   3.794   1.170   1.470
 1308TIP3   OH2 3929   4.658   0.205   0.133
 1308TIP3    H1 3930   4.654   0.292   0.172
 1308TIP3    H2 3931   4.593   0.208   0.063
 1309TIP3   OH2 3932   4.825   3.184   4.861
 1309TIP3    H1 3933   4.868   3.099   4.862
 1309TIP3    H2 3934   4.794   3.195   4.771
 1310TIP3   OH2 3935   4.152   3.864   1.776
 1310TIP3    H1 3936   4.134   3.942   1.828
 1310TIP3    H2 3937   4.221   3.818   1.824
 1311TIP3   OH2 3938   1.182   0.172   0.422
 1311TIP3    H1 3939   1.212   0.097   0.370
 1311TIP3    H2 3940   1.238   0.245   0.394
 1312TIP3   OH2 3941   0.943   4.556   4.229
 1312TIP3    H1 3942   0.985   4.640   4.248
 1312TIP3    H2 3943   0.986   4.525   4.149
 1313TIP3   OH2 3944   1.888   0.046   0.123
 1313TIP3    H1 3945   1.881  -0.031   0.066
 1313TIP3    H2 3946   1.930   0.112   0.069
 1314TIP3   OH2 3947   1.657   3.472   3.364
 1314TIP3    H1 3948   1.686   3.381   3.355
 1314TIP3    H2 3949   1.600   3.487   3.290
 1315TIP3   OH2 3950   5.277   4.868   4.424
 1315TIP3    H1 3951   5.297   4.954   4.388
 1315TIP3    H2 3952   5.201   4.837   4.375
 1316TIP3   OH2 3953   1.487   0.426   2.530
 1316TIP3    H1 3954   1.522   0.493   2.471
 1316TIP3    H2 3955   1.483   0.468   2.616
 1317TIP3   OH2 3956   4.090   4.779   3.874
 1317TIP3    H1 3957   4.140   4.810   3.950
 1317TIP3    H2 3958   4.145   4.800   3.799
 1318TIP3   OH2 3959   3.339   5.110   2.734
 1318TIP3    H1 3960   3.360   5.187   2.681
 1318TIP3    H2 3961   3.252   5.128   2.769
 1319TIP3   OH2 3962   4.546   1.251   4.531
 1319TIP3    H1 3963   4.591   1.174   4.566
 1319TIP3    H2 3964   4.617   1.311   4.508
 1320TIP3   OH2 3965   0.926   4.130   0.833
 1320TIP3    H1 3966   0.877   4.200   0.877
 1320TIP3    H2 3967   0.998   4.175   0.789
 1321TIP3   OH2 3968   5.705   1.545   1.504
 1321TIP3    H1 3969   5.699   1.466   1.450
 1321TIP3    H2 3970   5.757   1.606   1.453
 1322TIP3   OH2 3971   5.587   0.795   4.511
 1322TIP3    H1 3972   5.543   0.880   4.517
 1322TIP3    H2 3973   5.521   0.737   4.472
 1323TIP3   OH2 3974   2.187   0.371   4.067
 1323TIP3    H1 3975   2.099   0.398   4.093
 1323TIP3    H2 3976   2.173   0.292   4.013
 1324TIP3   OH2 3977   6.162   5.582   3.867
 1324TIP3    H1 3978   6.221   5.621   3.802
 1324TIP3    H2 3979   6.114   5.657   3.903
 1325TIP3   OH2 3980   0.231   3.332   3.919
 1325TIP3    H1 3981   0.318   3.298   3.898
 1325TIP3    H2 3982   0.171   3.259   3.900
 1326TIP3   OH2 3983   0.268   3.693   2.998
 1326TIP3    H1 3984   0.346   3.749   3.002
 1326TIP3    H2 3985   0.293   3.622   2.939
 1327TIP3   OH2 3986   3.140   4.308   4.528
 1327TIP3    H1 3987   3.204   4.316   4.458
 1327TIP3    H2 3988   3.183   4.344   4.605
 1328TIP3   OH2 3989   5.497   1.123   3.780
 1328TIP3    H1 3990   5.403   1.109   3.791
 1328TIP3    H2 3991   5.537   1.079   3.855
 1329TIP3   OH2 3992   0.945   2.083   3.448
 1329TIP3    H1 3993   0.971   2.003   3.493
 1329TIP3    H2 3994   0.851   2.089   3.461
 1330TIP3   OH2 3995   5.998   0.200   0.354
 1330TIP3    H1 3996   6.053   0.128   0.386
 1330TIP3    H2 3997   6.040   0.279   0.389
 1331TIP3   OH2 3998   1.857   0.435   0.740
 1331TIP3    H1 3999   1.765   0.440   0.714
 1331TIP3    H2 4000   1.860   0.364   0.803
 1332TIP3   OH2 4001   1.876   1.007   3.567
 1332TIP3    H1 4002   1.795   0.960   3.585
 1332TIP3    H2 4003   1.904   1.041   3.653
 1333TIP3   OH2 4004   1.137   3.701   0.790
 1333TIP3    H1 4005   1.198   3.671   0.857
 1333TIP3    H2 4006   1.059   3.728   0.838
 1334TIP3   OH2 4007   0.179   1.890   3.636
 1334TIP3    H1 4008   0.161   1.874   3.729
 1334TIP3    H2 4009   0.263   1.847   3.620
 1335TIP3   OH2 4010   3.247   0.506   1.292
 1335TIP3    H1 4011   3.209   0.525   1.206
 1335TIP3    H2 4012   3.214   0.576   1.349
 1336TIP3   OH2 4013   5.657   5.346   0.730
 1336TIP3    H1 4014   5.678   5.280   0.663
 1336TIP3    H2 4015   5.595   5.405   0.687
 1337TIP3   OH2 4016   4.007   3.399   3.915
 1337TIP3    H1 4017   4.042   3.399   3.826
 1337TIP3    H2 4018   4.024   3.487   3.947
 1338TIP3   OH2 4019   3.565   1.422   3.275
 1338TIP3    H1 4020   3.523   1.396   3.193
 1338TIP3    H2 4021   3.493   1.448   3.332
 1339TIP3   OH2 4022   3.037   3.417   0.391
 1339TIP3    H1 4023   3.041   3.435   0.297
 1339TIP3    H2 4024   3.118   3.452   0.426
 1340TIP3   OH2 4025   3.560   1.689   3.760
 1340TIP3    H1 4026   3.526   1.730   3.838
 1340TIP3    H2 4027   3.532   1.746   3.688
 1341TIP3   OH2 4028   5.765   2.353   0.138
 1341TIP3    H1 4029   5.857   2.336   0.157
 1341TIP3    H2 4030   5.755   2.330   0.045
 1342TIP3   OH2 4031   3.986   1.547   1.563
 1342TIP3    H1 4032   3.984   1.513   1.653
 1342TIP3    H2 4033   3.898   1.582   1.549
 1343TIP3   OH2 4034   3.631   4.501   0.528
 1343TIP3    H1 4035   3.722   4.486   0.502
 1343TIP3    H2 4036   3.579   4.452   0.464
 1344TIP3   OH2 4037   5.333   3.616   2.022
 1344TIP3    H1 4038   5.243   3.621   1.990
 1344TIP3    H2 4039   5.335   3.540   2.079
 1345TIP3   OH2 4040   3.843   3.929   4.924
 1345TIP3    H1 4041   3.829   3.839   4.954
 1345TIP3    H2 4042   3.931   3.951   4.953
 1346TIP3   OH2 4043   5.774   5.636   2.189
 1346TIP3    H1 4044   5.827   5.697   2.242
 1346TIP3    H2 4045   5.832   5.561   2.174
 1347TIP3   OH2 4046   6.244   6.007   2.553
 1347TIP3    H1 4047   6.200   5.922   2.548
 1347TIP3    H2 4048   6.336   5.985   2.571
 1348TIP3   OH2 4049   5.534   4.150   0.474
 1348TIP3    H1 4050   5.545   4.165   0.380
 1348TIP3    H2 4051   5.573   4.227   0.515
 1349TIP3   OH2 4052   3.402   3.901   4.200
 1349TIP3    H1 4053   3.347   3.971   4.234
 1349TIP3    H2 4054   3.483   3.908   4.250
 1350TIP3   OH2 4055   0.199   4.324   1.611
 1350TIP3    H1 4056   0.226   4.387   1.677
 1350TIP3    H2 4057   0.113   4.294   1.640
 1351TIP3   OH2 4058   5.184   5.536   2.467
 1351TIP3    H1 4059   5.262   5.581   2.498
 1351TIP3    H2 4060   5.117   5.604   2.461
 1352TIP3   OH2 4061   2.661   3.374   4.386
 1352TIP3    H1 4062   2.694   3.313   4.321
 1352TIP3    H2 4063   2.629   3.449   4.335
 1353TIP3   OH2 4064   2.953   4.105   4.599
 1353TIP3    H1 4065   2.918   4.042   4.536
 1353TIP3    H2 4066   3.000   4.169   4.545
 1354TIP3   OH2 4067   6.247   3.135   3.425
 1354TIP3    H1 4068   6.184   3.075   3.464
 1354TIP3    H2 4069   6.210   3.157   3.339
 1355TIP3   OH2 4070   0.496   3.200   4.511
 1355TIP3    H1 4071   0.438   3.124   4.503
 1355TIP3    H2 4072   0.484   3.249   4.430
 1356TIP3   OH2 4073   0.413   2.217  -0.032
 1356TIP3    H1 4074   0.485   2.159  -0.056
 1356TIP3    H2 4075   0.431   2.242   0.059
 1357TIP3   OH2 4076   3.555   3.894   1.497
 1357TIP3    H1 4077   3.463   3.903   1.472
 1357TIP3    H2 4078   3.572   3.800   1.496
 1358TIP3   OH2 4079   1.243   1.437   3.262
 1358TIP3    H1 4080   1.289   1.520   3.251
 1358TIP3    H2 4081   1.243   1.398   3.175
 1359TIP3   OH2 4082   0.882   0.600   4.658
 1359TIP3    H1 4083   0.917   0.668   4.715
 1359TIP3    H2 4084   0.915   0.518   4.695
 1360TIP3   OH2 4085   1.799   2.071   4.835
 1360TIP3    H1 4086   1.771   2.044   4.923
 1360TIP3    H2 4087   1.842   1.993   4.799
 1361TIP3   OH2 4088   1.768   4.377   3.489
 1361TIP3    H1 4089   1.679   4.409   3.471
 1361TIP3    H2 4090   1.797   4.338   3.407
 1362TIP3   OH2 4091   1.301   1.689   1.668
 1362TIP3    H1 4092   1.295   1.683   1.573
 1362TIP3    H2 4093   1.308   1.782   1.686
 1363TIP3   OH2 4094   5.312   4.595   4.203
 1363TIP3    H1 4095   5.385   4.551   4.159
 1363TIP3    H2 4096   5.244   4.602   4.136
 1364TIP3   OH2 4097   4.816   3.287   1.202
 1364TIP3    H1 4098   4.759   3.241   1.140
 1364TIP3    H2 4099   4.756   3.325   1.266
 1365TIP3   OH2 4100   0.321   0.263   0.445
 1365TIP3    H1 4101   0.375   0.293   0.373
 1365TIP3    H2 4102   0.264   0.197   0.406
 1366TIP3   OH2 4103   5.767   4.852   2.183
 1366TIP3    H1 4104   5.672   4.859   2.187
 1366TIP3    H2 4105   5.785   4.822   2.094
 1367TIP3   OH2 4106   1.730   5.103   2.088
 1367TIP3    H1 4107   1.679   5.038   2.040
 1367TIP3    H2 4108   1.667   5.170   2.112
 1368TIP3   OH2 4109   3.132   3.412   1.331
 1368TIP3    H1 4110   3.088   3.400   1.247
 1368TIP3    H2 4111   3.084   3.482   1.374
 1369TIP3   OH2 4112   2.279   5.510   1.107
 1369TIP3    H1 4113   2.362   5.472   1.079
 1369TIP3    H2 4114   2.220   5.495   1.033
 1370TIP3   OH2 4115   5.796   3.336   4.061
 1370TIP3    H1 4116   5.725   3.400   4.065
 1370TIP3    H2 4117   5.870   3.380   4.102
 1371TIP3   OH2 4118   0.088   3.071   4.326
 1371TIP3    H1 4119   0.055   3.120   4.251
 1371TIP3    H2 4120   0.140   3.134   4.376
 1372TIP3   OH2 4121   5.572   2.652   2.888
 1372TIP3    H1 4122   5.584   2.629   2.796
 1372TIP3    H2 4123   5.587   2.746   2.892
 1373TIP3   OH2 4124   4.465   5.936   1.692
 1373TIP3    H1 4125   4.555   5.961   1.715
 1373TIP3    H2 4126   4.474   5.882   1.614
 1374TIP3   OH2 4127   3.028   1.579   1.381
 1374TIP3    H1 4128   2.943   1.567   1.339
 1374TIP3    H2 4129   3.080   1.629   1.317
 1375TIP3   OH2 4130   5.516   0.951   0.328
 1375TIP3    H1 4131   5.517   0.990   0.415
 1375TIP3    H2 4132   5.423   0.935   0.311
 1376TIP3   OH2 4133   6.023   3.532   2.352
 1376TIP3    H1 4134   5.973   3.523   2.271
 1376TIP3    H2 4135   6.026   3.626   2.368
 1377TIP3   OH2 4136   5.903   2.816   4.918
 1377TIP3    H1 4137   5.897   2.731   4.963
 1377TIP3    H2 4138   5.985   2.812   4.870
 1378TIP3   OH2 4139   2.660   0.350   0.648
 1378TIP3    H1 4140   2.635   0.261   0.623
 1378TIP3    H2 4141   2.647   0.401   0.568
 1379TIP3   OH2 4142   1.085   0.201   2.975
 1379TIP3    H1 4143   1.157   0.210   3.037
 1379TIP3    H2 4144   1.089   0.110   2.947
 1380TIP3   OH2 4145   0.823   4.642   2.607
 1380TIP3    H1 4146   0.809   4.564   2.554
 1380TIP3    H2 4147   0.854   4.709   2.545
 1381TIP3   OH2 4148   3.872   5.146   4.952
 1381TIP3    H1 4149   3.923   5.156   4.872
 1381TIP3    H2 4150   3.924   5.087   5.007
 1382TIP3   OH2 4151   0.419   0.193   1.810
 1382TIP3    H1 4152   0.410   0.270   1.867
 1382TIP3    H2 4153   0.493   0.214   1.753
 1383TIP3   OH2 4154   4.175   2.778   3.084
 1383TIP3    H1 4155   4.103   2.839   3.067
 1383TIP3    H2 4156   4.144   2.726   3.158
 1384TIP3   OH2 4157   4.713   5.353   2.459
 1384TIP3    H1 4158   4.799   5.328   2.492
 1384TIP3    H2 4159   4.654   5.341   2.533
 1385TIP3   OH2 4160   0.298   1.157   4.592
 1385TIP3    H1 4161   0.362   1.113   4.536
 1385TIP3    H2 4162   0.245   1.208   4.531
 1386TIP3   OH2 4163   0.583   4.265   3.807
 1386TIP3    H1 4164   0.617   4.217   3.731
 1386TIP3    H2 4165   0.585   4.357   3.780
 1387TIP3   OH2 4166   2.182   3.874   2.365
 1387TIP3    H1 4167   2.256   3.917   2.408
 1387TIP3    H2 4168   2.138   3.825   2.434
 1388TIP3   OH2 4169   2.538   1.041   3.358
 1388TIP3    H1 4170   2.602   1.058   3.426
 1388TIP3    H2 4171   2.503   1.127   3.335
 1389TIP3   OH2 4172   2.049   3.695   2.188
 1389TIP3    H1 4173   2.111   3.739   2.247
 1389TIP3    H2 4174   2.054   3.744   2.107
 1390TIP3   OH2 4175   1.682   5.867   1.055
 1390TIP3    H1 4176   1.652   5.864   0.964
 1390TIP3    H2 4177   1.693   5.775   1.080
 1391TIP3   OH2 4178   0.274   1.178   2.263
 1391TIP3    H1 4179   0.256   1.246   2.199
 1391TIP3    H2 4180   0.194   1.126   2.266
 1392TIP3   OH2 4181   2.796   2.301   1.290
 1392TIP3    H1 4182   2.730   2.364   1.322
 1392TIP3    H2 4183   2.880   2.345   1.305
 1393TIP3   OH2 4184   5.015   0.019   3.876
 1393TIP3    H1 4185   4.920   0.015   3.868
 1393TIP3    H2 4186   5.030   0.090   3.939
 1394TIP3   OH2 4187   0.894   4.027   2.489
 1394TIP3    H1 4188   0.856   4.006   2.404
 1394TIP3    H2 4189   0.834   3.988   2.553
 1395TIP3   OH2 4190   1.443   1.078   5.093
 1395TIP3    H1 4191   1.461   1.170   5.073
 1395TIP3    H2 4192   1.418   1.039   5.010
 1396TIP3   OH2 4193   2.087   0.739   2.869
 1396TIP3    H1 4194   2.012   0.681   2.881
 1396TIP3    H2 4195   2.122   0.717   2.783
 1397TIP3   OH2 4196   3.662   2.588   2.200
 1397TIP3    H1 4197   3.707   2.613   2.281
 1397TIP3    H2 4198   3.608   2.513   2.225
 1398TIP3   OH2 4199   0.646   0.758   4.667
 1398TIP3    H1 4200   0.736   0.726   4.656
 1398TIP3    H2 4201   0.654   0.838   4.719
 1399TIP3   OH2 4202   1.160   1.113   1.534
 1399TIP3    H1 4203   1.153   1.032   1.485
 1399TIP3    H2 4204   1.111   1.097   1.615
 1400TIP3   OH2 4205   1.313   4.902   2.435
 1400TIP3    H1 4206   1.362   4.976   2.469
 1400TIP3    H2 4207   1.374   4.828   2.438
 1401TIP3   OH2 4208   6.218   0.593   1.226
 1401TIP3    H1 4209   6.216   0.655   1.153
 1401TIP3    H2 4210   6.231   0.648   1.303
 1402TIP3   OH2 4211   3.685   4.217   0.352
 1402TIP3    H1 4212   3.618   4.284   0.339
 1402TIP3    H2 4213   3.643   4.150   0.405
 1403TIP3   OH2 4214   1.442   5.450   1.943
 1403TIP3    H1 4215   1.444   5.355   1.947
 1403TIP3    H2 4216   1.359   5.475   1.983
 1404TIP3   OH2 4217   2.624   1.067   4.663
 1404TIP3    H1 4218   2.702   1.121   4.658
 1404TIP3    H2 4219   2.653   0.980   4.634
 1405TIP3   OH2 4220   4.558   0.784   2.874
 1405TIP3    H1 4221   4.577   0.864   2.921
 1405TIP3    H2 4222   4.556   0.810   2.782
 1406TIP3   OH2 4223   0.985   0.929   0.643
 1406TIP3    H1 4224   0.994   0.845   0.598
 1406TIP3    H2 4225   1.075   0.961   0.653
 1407TIP3   OH2 4226   4.688   1.075   2.783
 1407TIP3    H1 4227   4.682   1.055   2.876
 1407TIP3    H2 4228   4.599   1.068   2.750
 1408TIP3   OH2 4229   4.341   1.939   0.969
 1408TIP3    H1 4230   4.381   1.951   1.056
 1408TIP3    H2 4231   4.345   1.845   0.954
 1409TIP3   OH2 4232   4.150   5.065   1.738
 1409TIP3    H1 4233   4.085   4.996   1.722
 1409TIP3    H2 4234   4.111   5.144   1.701
 1410TIP3   OH2 4235   3.203   5.144   4.306
 1410TIP3    H1 4236   3.238   5.166   4.393
 1410TIP3    H2 4237   3.231   5.216   4.250
 1411TIP3   OH2 4238   0.361   5.363   1.547
 1411TIP3    H1 4239   0.408   5.360   1.464
 1411TIP3    H2 4240   0.429   5.362   1.614
 1412TIP3   OH2 4241   3.726   1.121   1.631
 1412TIP3    H1 4242   3.710   1.029   1.651
 1412TIP3    H2 4243   3.757   1.158   1.713
 1413TIP3   OH2 4244   5.095   1.510   4.508
 1413TIP3    H1 4245   5.037   1.478   4.438
 1413TIP3    H2 4246   5.183   1.505   4.471
 1414TIP3   OH2 4247   1.636   1.137   4.754
 1414TIP3    H1 4248   1.574   1.098   4.815
 1414TIP3    H2 4249   1.692   1.064   4.727
 1415TIP3   OH2 4250   1.775   4.962   2.930
 1415TIP3    H1 4251   1.870   4.964   2.946
 1415TIP3    H2 4252   1.759   4.874   2.895
 1416TIP3   OH2 4253   5.863   0.973   1.603
 1416TIP3    H1 4254   5.807   1.051   1.597
 1416TIP3    H2 4255   5.906   0.968   1.518
 1417TIP3   OH2 4256   6.273   0.687   2.568
 1417TIP3    H1 4257   6.194   0.726   2.532
 1417TIP3    H2 4258   6.299   0.620   2.505
 1418TIP3   OH2 4259   5.013   2.798   4.124
 1418TIP3    H1 4260   4.961   2.720   4.103
 1418TIP3    H2 4261   5.100   2.778   4.089
 1419TIP3   OH2 4262   3.944   1.919   3.794
 1419TIP3    H1 4263   4.033   1.941   3.766
 1419TIP3    H2 4264   3.909   1.869   3.721
 1420TIP3   OH2 4265   2.839   5.752   1.686
 1420TIP3    H1 4266   2.905   5.809   1.726
 1420TIP3    H2 4267   2.862   5.750   1.593
 1421TIP3   OH2 4268   0.261   2.262   0.777
 1421TIP3    H1 4269   0.241   2.177   0.816
 1421TIP3    H2 4270   0.355   2.275   0.794
 1422TIP3   OH2 4271   5.348   4.087   3.555
 1422TIP3    H1 4272   5.318   4.057   3.469
 1422TIP3    H2 4273   5.321   4.018   3.615
 1423TIP3   OH2 4274   5.195   0.376   2.877
 1423TIP3    H1 4275   5.282   0.408   2.902
 1423TIP3    H2 4276   5.176   0.421   2.795
 1424TIP3   OH2 4277   3.731   0.038   2.103
 1424TIP3    H1 4278   3.825   0.022   2.108
 1424TIP3    H2 4279   3.691  -0.046   2.125
 1425TIP3   OH2 4280   3.578   2.715   4.547
 1425TIP3    H1 4281   3.493   2.743   4.513
 1425TIP3    H2 4282   3.641   2.748   4.483
 1426TIP3   OH2 4283   3.802   5.233   2.660
 1426TIP3    H1 4284   3.772   5.193   2.741
 1426TIP3    H2 4285   3.838   5.160   2.609
 1427TIP3   OH2 4286   5.041   3.429   1.089
 1427TIP3    H1 4287   5.034   3.501   1.027
 1427TIP3    H2 4288   4.951   3.406   1.110
 1428TIP3   OH2 4289   4.040   5.824   0.580
 1428TIP3    H1 4290   4.003   5.805   0.494
 1428TIP3    H2 4291   4.055   5.918   0.580
 1429TIP3   OH2 4292   3.394   0.905   3.834
 1429TIP3    H1 4293   3.457   0.922   3.764
 1429TIP3    H2 4294   3.390   0.987   3.883
 1430TIP3   OH2 4295   4.902   3.090   3.927
 1430TIP3    H1 4296   4.914   3.040   3.846
 1430TIP3    H2 4297   4.976   3.064   3.982
 1431TIP3   OH2 4298   4.209   5.744   3.360
 1431TIP3    H1 4299   4.249   5.810   3.304
 1431TIP3    H2 4300   4.167   5.683   3.300
 1432TIP3   OH2 4301   1.470   0.033   3.341
 1432TIP3    H1 4302   1.495  -0.011   3.259
 1432TIP3    H2 4303   1.486  -0.032   3.409
 1433TIP3   OH2 4304   1.605   3.995   2.287
 1433TIP3    H1 4305   1.661   4.036   2.221
 1433TIP3    H2 4306   1.655   3.919   2.317
 1434TIP3   OH2 4307   5.418   1.085   2.448
 1434TIP3    H1 4308   5.420   1.126   2.535
 1434TIP3    H2 4309   5.493   1.026   2.448
 1435TIP3   OH2 4310   0.321   5.138   3.481
 1435TIP3    H1 4311   0.233   5.176   3.474
 1435TIP3    H2 4312   0.380   5.212   3.467
 1436TIP3   OH2 4313   3.998   4.996   4.526
 1436TIP3    H1 4314   4.018   5.050   4.449
 1436TIP3    H2 4315   3.918   5.035   4.562
 1437TIP3   OH2 4316   1.689   5.254   0.084
 1437TIP3    H1 4317   1.743   5.327   0.114
 1437TIP3    H2 4318   1.696   5.188   0.152
 1438TIP3   OH2 4319   5.657   4.578   1.961
 1438TIP3    H1 4320   5.739   4.541   1.929
 1438TIP3    H2 4321   5.668   4.583   2.056
 1439TIP3   OH2 4322   4.448   1.273   3.178
 1439TIP3    H1 4323   4.392   1.300   3.105
 1439TIP3    H2 4324   4.386   1.243   3.245
 1440TIP3   OH2 4325   2.811   1.268   2.955
 1440TIP3    H1 4326   2.822   1.346   3.009
 1440TIP3    H2 4327   2.770   1.203   3.012
 1441TIP3   OH2 4328   3.090   3.921   3.520
 1441TIP3    H1 4329   3.149   3.995   3.505
 1441TIP3    H2 4330   3.134   3.869   3.587
 1442TIP3   OH2 4331   0.996   0.297   4.103
 1442TIP3    H1 4332   1.057   0.249   4.048
 1442TIP3    H2 4333   0.990   0.246   4.184
 1443TIP3   OH2 4334   4.825   5.381   1.802
 1443TIP3    H1 4335   4.753   5.327   1.768
 1443TIP3    H2 4336   4.839   5.447   1.735
 1444TIP3   OH2 4337   1.971   2.113   1.910
 1444TIP3    H1 4338   1.891   2.065   1.931
 1444TIP3    H2 4339   2.027   2.102   1.987
 1445TIP3   OH2 4340   0.628   0.508   1.100
 1445TIP3    H1 4341   0.563   0.497   1.168
 1445TIP3    H2 4342   0.615   0.433   1.041
 1446TIP3   OH2 4343   2.395   4.331   3.104
 1446TIP3    H1 4344   2.482   4.298   3.080
 1446TIP3    H2 4345   2.367   4.382   3.028
 1447TIP3   OH2 4346   3.367   5.588   3.348
 1447TIP3    H1 4347   3.393   5.659   3.407
 1447TIP3    H2 4348   3.356   5.630   3.263
 1448TIP3   OH2 4349   4.584   3.585   2.256
 1448TIP3    H1 4350   4.580   3.630   2.340
 1448TIP3    H2 4351   4.618   3.498   2.277
 1449TIP3   OH2 4352   4.664   1.393   2.563
 1449TIP3    H1 4353   4.620   1.379   2.479
 1449TIP3    H2 4354   4.670   1.488   2.572
 1450TIP3   OH2 4355   3.075   1.603   2.738
 1450TIP3    H1 4356   3.074   1.566   2.650
 1450TIP3    H2 4357   3.051   1.530   2.795
 1451TIP3   OH2 4358   3.553   2.870   1.232
 1451TIP3    H1 4359   3.481   2.809   1.215
 1451TIP3    H2 4360   3.556   2.926   1.154
 1452TIP3   OH2 4361   3.797   1.299   4.936
 1452TIP3    H1 4362   3.815   1.349   5.016
 1452TIP3    H2 4363   3.703   1.308   4.922
 1453TIP3   OH2 4364   5.779   1.539   0.536
 1453TIP3    H1 4365   5.799   1.624   0.576
 1453TIP3    H2 4366   5.743   1.562   0.450
 1454TIP3   OH2 4367   5.048   5.767   2.489
 1454TIP3    H1 4368   5.002   5.751   2.572
 1454TIP3    H2 4369   5.134   5.798   2.516
 1455TIP3   OH2 4370   5.956   2.691   3.719
 1455TIP3    H1 4371   5.965   2.754   3.791
 1455TIP3    H2 4372   5.870   2.651   3.733
 1456TIP3   OH2 4373   0.451   3.388   0.267
 1456TIP3    H1 4374   0.416   3.477   0.266
 1456TIP3    H2 4375   0.535   3.395   0.310
 1457TIP3   OH2 4376   2.336   3.038   1.769
 1457TIP3    H1 4377   2.394   3.093   1.822
 1457TIP3    H2 4378   2.305   2.971   1.829
 1458TIP3   OH2 4379   5.489   4.917   2.124
 1458TIP3    H1 4380   5.515   4.982   2.058
 1458TIP3    H2 4381   5.398   4.896   2.102
 1459TIP3   OH2 4382   5.467   1.766   1.416
 1459TIP3    H1 4383   5.421   1.793   1.495
 1459TIP3    H2 4384   5.558   1.752   1.444
 1460TIP3   OH2 4385   3.899   5.578   0.087
 1460TIP3    H1 4386   3.881   5.672   0.080
 1460TIP3    H2 4387   3.984   5.567   0.046
 1461TIP3   OH2 4388   4.599   3.671   4.729
 1461TIP3    H1 4389   4.661   3.680   4.656
 1461TIP3    H2 4390   4.514   3.662   4.686
 1462TIP3   OH2 4391   5.531   3.364   1.937
 1462TIP3    H1 4392   5.479   3.339   1.861
 1462TIP3    H2 4393   5.481   3.334   2.012
 1463TIP3   OH2 4394   4.315   2.163   0.566
 1463TIP3    H1 4395   4.337   2.219   0.640
 1463TIP3    H2 4396   4.311   2.222   0.491
 1464TIP3   OH2 4397   3.888   0.583   5.176
 1464TIP3    H1 4398   3.931   0.498   5.175
 1464TIP3    H2 4399   3.798   0.565   5.149
 1465TIP3   OH2 4400   5.292   1.815   0.254
 1465TIP3    H1 4401   5.276   1.885   0.191
 1465TIP3    H2 4402   5.206   1.776   0.268
 1466TIP3   OH2 4403   5.759   4.329   3.854
 1466TIP3    H1 4404   5.804   4.361   3.932
 1466TIP3    H2 4405   5.702   4.259   3.886
 1467TIP3   OH2 4406   2.575   3.114   1.174
 1467TIP3    H1 4407   2.524   3.080   1.248
 1467TIP3    H2 4408   2.663   3.078   1.188
 1468TIP3   OH2 4409   1.299   2.130   1.461
 1468TIP3    H1 4410   1.388   2.100   1.441
 1468TIP3    H2 4411   1.309   2.184   1.540
 1469TIP3   OH2 4412   1.224   5.534   1.332
 1469TIP3    H1 4413   1.173   5.614   1.346
 1469TIP3    H2 4414   1.262   5.515   1.417
 1470TIP3   OH2 4415   2.514   2.495   2.637
 1470TIP3    H1 4416   2.426   2.528   2.654
 1470TIP3    H2 4417   2.518   2.486   2.542
 1471TIP3   OH2 4418   5.124   1.719   1.931
 1471TIP3    H1 4419   5.202   1.714   1.877
 1471TIP3    H2 4420   5.081   1.634   1.919
 1472TIP3   OH2 4421   0.692   1.281   2.861
 1472TIP3    H1 4422   0.738   1.238   2.933
 1472TIP3    H2 4423   0.718   1.373   2.868
 1473TIP3   OH2 4424   3.328   4.116   2.526
 1473TIP3    H1 4425   3.322   4.177   2.452
 1473TIP3    H2 4426   3.408   4.067   2.511
 1474TIP3   OH2 4427   5.617   1.267   4.869
 1474TIP3    H1 4428   5.659   1.295   4.788
 1474TIP3    H2 4429   5.681   1.287   4.937
 1475TIP3   OH2 4430   5.429   2.530   0.867
 1475TIP3    H1 4431   5.515   2.561   0.840
 1475TIP3    H2 4432   5.440   2.506   0.959
 1476TIP3   OH2 4433   0.044   4.933   1.826
 1476TIP3    H1 4434   0.128   4.939   1.780
 1476TIP3    H2 4435  -0.021   4.961   1.762
 1477TIP3   OH2 4436   2.165   3.548   2.450
 1477TIP3    H1 4437   2.098   3.606   2.487
 1477TIP3    H2 4438   2.216   3.519   2.525
 1478TIP3   OH2 4439   3.740   5.062   3.893
 1478TIP3    H1 4440   3.698   5.037   3.976
 1478TIP3    H2 4441   3.713   4.995   3.831
 1479TIP3   OH2 4442   4.396   1.106   2.810
 1479TIP3    H1 4443   4.342   1.101   2.889
 1479TIP3    H2 4444   4.435   1.193   2.813
 1480TIP3   OH2 4445   2.794   2.241   1.615
 1480TIP3    H1 4446   2.780   2.255   1.708
 1480TIP3    H2 4447   2.836   2.155   1.610
 1481TIP3   OH2 4448   4.441   0.983   4.026
 1481TIP3    H1 4449   4.486   0.980   3.941
 1481TIP3    H2 4450   4.435   0.891   4.053
 1482TIP3   OH2 4451   1.630   1.337   3.540
 1482TIP3    H1 4452   1.607   1.332   3.448
 1482TIP3    H2 4453   1.577   1.268   3.581
 1483TIP3   OH2 4454   1.076   5.984   0.134
 1483TIP3    H1 4455   1.132   5.908   0.120
 1483TIP3    H2 4456   1.008   5.953   0.194
 1484TIP3   OH2 4457   4.408   4.982   1.796
 1484TIP3    H1 4458   4.320   4.990   1.758
 1484TIP3    H2 4459   4.467   5.013   1.728
 1485TIP3   OH2 4460   4.144   5.727   0.851
 1485TIP3    H1 4461   4.147   5.780   0.771
 1485TIP3    H2 4462   4.211   5.659   0.837
 1486TIP3   OH2 4463   2.926   1.837   0.816
 1486TIP3    H1 4464   2.917   1.764   0.878
 1486TIP3    H2 4465   2.913   1.798   0.730
 1487TIP3   OH2 4466   4.092   4.218   1.116
 1487TIP3    H1 4467   4.176   4.173   1.104
 1487TIP3    H2 4468   4.092   4.287   1.050
 1488TIP3   OH2 4469   6.108   0.402   4.153
 1488TIP3    H1 4470   6.018   0.383   4.182
 1488TIP3    H2 4471   6.148   0.447   4.228
 1489TIP3   OH2 4472   4.690   4.960   1.329
 1489TIP3    H1 4473   4.683   4.978   1.235
 1489TIP3    H2 4474   4.758   4.892   1.335
 1490TIP3   OH2 4475   3.068   3.196   0.546
 1490TIP3    H1 4476   2.994   3.174   0.602
 1490TIP3    H2 4477   3.048   3.284   0.514
 1491TIP3   OH2 4478   4.243   2.847   3.489
 1491TIP3    H1 4479   4.169   2.897   3.524
 1491TIP3    H2 4480   4.205   2.762   3.465
 1492TIP3   OH2 4481   1.940   1.404   0.024
 1492TIP3    H1 4482   1.891   1.326  -0.005
 1492TIP3    H2 4483   2.030   1.386  -0.002
 1493TIP3   OH2 4484   0.560   3.380   2.773
 1493TIP3    H1 4485   0.559   3.346   2.684
 1493TIP3    H2 4486   0.480   3.433   2.780
 1494TIP3   OH2 4487   4.362   0.657   3.188
 1494TIP3    H1 4488   4.302   0.708   3.134
 1494TIP3    H2 4489   4.312   0.638   3.268
 1495TIP3   OH2 4490   2.708   5.070   1.103
 1495TIP3    H1 4491   2.648   5.132   1.062
 1495TIP3    H2 4492   2.794   5.111   1.093
 1496TIP3   OH2 4493   4.795   4.688   4.046
 1496TIP3    H1 4494   4.741   4.636   3.986
 1496TIP3    H2 4495   4.864   4.629   4.073
 1497TIP3   OH2 4496   6.205   2.966   3.824
 1497TIP3    H1 4497   6.140   2.915   3.872
 1497TIP3    H2 4498   6.164   2.982   3.739
 1498TIP3   OH2 4499   1.019   1.368   1.741
 1498TIP3    H1 4500   1.034   1.375   1.646
 1498TIP3    H2 4501   1.098   1.405   1.781
 1499TIP3   OH2 4502   3.434   3.635   3.558
 1499TIP3    H1 4503   3.495   3.654   3.487
 1499TIP3    H2 4504   3.429   3.718   3.607
 1500TIP3   OH2 4505   5.060   0.128   0.174
 1500TIP3    H1 4506   5.068   0.037   0.144
 1500TIP3    H2 4507   5.066   0.180   0.093
 1501TIP3   OH2 4508   2.961   0.060   0.665
 1501TIP3    H1 4509   2.881   0.011   0.686
 1501TIP3    H2 4510   2.932   0.126   0.602
 1502TIP3   OH2 4511   1.103   0.975   4.203
 1502TIP3    H1 4512   1.094   1.067   4.177
 1502TIP3    H2 4513   1.193   0.968   4.233
 1503TIP3   OH2 4514   4.274   2.872   3.839
 1503TIP3    H1 4515   4.314   2.851   3.754
 1503TIP3    H2 4516   4.291   2.794   3.893
 1504TIP3   OH2 4517   3.002   0.788   3.265
 1504TIP3    H1 4518   3.087   0.779   3.222
 1504TIP3    H2 4519   3.018   0.848   3.337
 1505TIP3   OH2 4520   1.041   2.005   2.434
 1505TIP3    H1 4521   1.109   2.033   2.373
 1505TIP3    H2 4522   1.005   1.926   2.394
 1506TIP3   OH2 4523   5.734   2.079   3.200
 1506TIP3    H1 4524   5.743   2.108   3.109
 1506TIP3    H2 4525   5.689   1.995   3.194
 1507TIP3   OH2 4526   4.677   1.559   1.209
 1507TIP3    H1 4527   4.678   1.466   1.231
 1507TIP3    H2 4528   4.588   1.574   1.177
 1508TIP3   OH2 4529   6.261   3.601   2.727
 1508TIP3    H1 4530   6.293   3.513   2.707
 1508TIP3    H2 4531   6.322   3.633   2.793
 1509TIP3   OH2 4532   6.317   3.238   2.327
 1509TIP3    H1 4533   6.305   3.144   2.345
 1509TIP3    H2 4534   6.272   3.251   2.243
 1510TIP3   OH2 4535   3.103   5.946   0.589
 1510TIP3    H1 4536   3.158   5.970   0.664
 1510TIP3    H2 4537   3.083   6.030   0.547
 1511TIP3   OH2 4538   1.851   3.830   1.884
 1511TIP3    H1 4539   1.821   3.896   1.822
 1511TIP3    H2 4540   1.780   3.767   1.889
 1512TIP3   OH2 4541   1.089   5.513   1.062
 1512TIP3    H1 4542   1.090   5.460   1.141
 1512TIP3    H2 4543   1.177   5.506   1.026
 1513TIP3   OH2 4544   3.427   0.388   4.762
 1513TIP3    H1 4545   3.375   0.311   4.782
 1513TIP3    H2 4546   3.464   0.371   4.675
 1514TIP3   OH2 4547   2.793   0.725   4.654
 1514TIP3    H1 4548   2.819   0.771   4.574
 1514TIP3    H2 4549   2.807   0.788   4.724
 1515TIP3   OH2 4550   6.198   3.207   4.619
 1515TIP3    H1 4551   6.114   3.206   4.573
 1515TIP3    H2 4552   6.210   3.117   4.648
 1516TIP3   OH2 4553   4.466   2.784   3.653
 1516TIP3    H1 4554   4.411   2.796   3.576
 1516TIP3    H2 4555   4.490   2.692   3.651
 1517TIP3   OH2 4556   1.492   2.804   4.487
 1517TIP3    H1 4557   1.525   2.717   4.466
 1517TIP3    H2 4558   1.533   2.826   4.571
 1518TIP3   OH2 4559   4.422   5.025   3.679
 1518TIP3    H1 4560   4.433   5.120   3.678
 1518TIP3    H2 4561   4.506   4.990   3.648
 1519TIP3   OH2 4562   5.765   3.515   1.055
 1519TIP3    H1 4563   5.796   3.448   1.117
 1519TIP3    H2 4564   5.715   3.576   1.109
 1520TIP3   OH2 4565   4.307   3.319   1.938
 1520TIP3    H1 4566   4.339   3.340   2.025
 1520TIP3    H2 4567   4.357   3.242   1.912
 1521TIP3   OH2 4568   4.480   1.501   0.853
 1521TIP3    H1 4569   4.526   1.436   0.800
 1521TIP3    H2 4570   4.407   1.529   0.798
 1522TIP3   OH2 4571   4.267   1.603   3.878
 1522TIP3    H1 4572   4.360   1.625   3.884
 1522TIP3    H2 4573   4.252   1.543   3.951
 1523TIP3   OH2 4574   1.433   3.799   2.539
 1523TIP3    H1 4575   1.498   3.748   2.587
 1523TIP3    H2 4576   1.481   3.876   2.509
 1524TIP3   OH2 4577   3.592   0.338   2.715
 1524TIP3    H1 4578   3.598   0.277   2.789
 1524TIP3    H2 4579   3.498   0.350   2.702
 1525TIP3   OH2 4580   4.119   1.414   5.065
 1525TIP3    H1 4581   4.059   1.359   5.116
 1525TIP3    H2 4582   4.079   1.501   5.067
 1526TIP3   OH2 4583   0.480   1.238   0.422
 1526TIP3    H1 4584   0.465   1.277   0.336
 1526TIP3    H2 4585   0.514   1.150   0.402
 1527TIP3   OH2 4586   5.042   5.068   4.406
 1527TIP3    H1 4587   5.042   4.975   4.382
 1527TIP3    H2 4588   5.089   5.071   4.489
 1528TIP3   OH2 4589   4.453   4.478   1.227
 1528TIP3    H1 4590   4.406   4.529   1.292
 1528TIP3    H2 4591   4.468   4.539   1.155
 1529TIP3   OH2 4592   5.446   1.177   1.393
 1529TIP3    H1 4593   5.445   1.190   1.298
 1529TIP3    H2 4594   5.356   1.195   1.420
 1530TIP3   OH2 4595   4.128   3.678   2.703
 1530TIP3    H1 4596   4.091   3.622   2.771
 1530TIP3    H2 4597   4.220   3.651   2.697
 1531TIP3   OH2 4598   2.674   4.885   4.583
 1531TIP3    H1 4599   2.606   4.891   4.650
 1531TIP3    H2 4600   2.667   4.795   4.550
 1532TIP3   OH2 4601   2.518   2.713   1.918
 1532TIP3    H1 4602   2.495   2.624   1.947
 1532TIP3    H2 4603   2.436   2.762   1.926
 1533TIP3   OH2 4604   2.747   4.569   4.810
 1533TIP3    H1 4605   2.667   4.522   4.785
 1533TIP3    H2 4606   2.818   4.514   4.779
 1534TIP3   OH2 4607   4.700   1.301   3.076
 1534TIP3    H1 4608   4.619   1.318   3.123
 1534TIP3    H2 4609   4.758   1.373   3.101
 1535TIP3   OH2 4610   0.626   3.181   1.103
 1535TIP3    H1 4611   0.681   3.153   1.030
 1535TIP3    H2 4612   0.684   3.176   1.179
 1536TIP3   OH2 4613   5.433   3.459   1.130
 1536TIP3    H1 4614   5.387   3.376   1.123
 1536TIP3    H2 4615   5.475   3.456   1.216
 1537TIP3   OH2 4616   4.563   1.754   0.935
 1537TIP3    H1 4617   4.573   1.762   0.840
 1537TIP3    H2 4618   4.546   1.661   0.949
 1538TIP3   OH2 4619   0.449   1.282   3.673
 1538TIP3    H1 4620   0.485   1.371   3.666
 1538TIP3    H2 4621   0.511   1.237   3.731
 1539TIP3   OH2 4622   5.218   5.575   0.103
 1539TIP3    H1 4623   5.178   5.590   0.189
 1539TIP3    H2 4624   5.290   5.515   0.121
 1540TIP3   OH2 4625   1.341   1.083   4.529
 1540TIP3    H1 4626   1.388   1.129   4.599
 1540TIP3    H2 4627   1.288   1.150   4.486
 1541TIP3   OH2 4628   6.167   3.467   3.306
 1541TIP3    H1 4629   6.154   3.386   3.256
 1541TIP3    H2 4630   6.080   3.507   3.309
 1542TIP3   OH2 4631   5.223   5.157   1.453
 1542TIP3    H1 4632   5.292   5.103   1.415
 1542TIP3    H2 4633   5.162   5.173   1.381
 1543TIP3   OH2 4634   3.995   1.202   3.704
 1543TIP3    H1 4635   4.002   1.255   3.784
 1543TIP3    H2 4636   4.084   1.200   3.669
 1544TIP3   OH2 4637   1.114   3.458   2.010
 1544TIP3    H1 4638   1.180   3.392   2.031
 1544TIP3    H2 4639   1.161   3.524   1.960
 1545TIP3   OH2 4640   3.289   2.763   3.122
 1545TIP3    H1 4641   3.254   2.844   3.085
 1545TIP3    H2 4642   3.290   2.701   3.048
 1546TIP3   OH2 4643   6.171   3.337   2.932
 1546TIP3    H1 4644   6.253   3.385   2.921
 1546TIP3    H2 4645   6.105   3.405   2.945
 1547TIP3   OH2 4646   6.167   2.561   3.630
 1547TIP3    H1 4647   6.134   2.493   3.571
 1547TIP3    H2 4648   6.092   2.618   3.647
 1548TIP3   OH2 4649   2.854   1.037   2.016
 1548TIP3    H1 4650   2.862   1.014   2.109
 1548TIP3    H2 4651   2.912   0.976   1.972
 1549TIP3   OH2 4652   4.955   3.612   3.470
 1549TIP3    H1 4653   4.975   3.546   3.537
 1549TIP3    H2 4654   5.032   3.612   3.413
 1550TIP3   OH2 4655   3.799   1.504   3.404
 1550TIP3    H1 4656   3.723   1.470   3.357
 1550TIP3    H2 4657   3.822   1.584   3.358
 1551TIP3   OH2 4658   3.321   4.906   4.339
 1551TIP3    H1 4659   3.291   4.865   4.420
 1551TIP3    H2 4660   3.271   4.988   4.334
 1552TIP3   OH2 4661   2.751   4.500   2.133
 1552TIP3    H1 4662   2.811   4.546   2.192
 1552TIP3    H2 4663   2.802   4.424   2.102
 1553TIP3   OH2 4664   3.915   0.219   1.517
 1553TIP3    H1 4665   3.937   0.170   1.597
 1553TIP3    H2 4666   3.952   0.167   1.446
 1554TIP3   OH2 4667   0.128   3.373   2.689
 1554TIP3    H1 4668   0.137   3.283   2.719
 1554TIP3    H2 4669   0.064   3.369   2.618
 1555TIP3   OH2 4670   3.926   0.438   2.675
 1555TIP3    H1 4671   3.878   0.456   2.756
 1555TIP3    H2 4672   3.874   0.481   2.607
 1556TIP3   OH2 4673   1.869   0.592   2.545
 1556TIP3    H1 4674   1.774   0.587   2.555
 1556TIP3    H2 4675   1.902   0.519   2.597
 1557TIP3   OH2 4676   5.619   5.025   4.971
 1557TIP3    H1 4677   5.535   5.004   4.931
 1557TIP3    H2 4678   5.682   4.969   4.925
 1558TIP3   OH2 4679   6.308   2.511   0.193
 1558TIP3    H1 4680   6.402   2.490   0.187
 1558TIP3    H2 4681   6.273   2.445   0.253
 1559TIP3   OH2 4682   4.805   4.834   0.251
 1559TIP3    H1 4683   4.878   4.847   0.191
 1559TIP3    H2 4684   4.759   4.918   0.250
 1560TIP3   OH2 4685   4.868   1.185   2.458
 1560TIP3    H1 4686   4.806   1.115   2.439
 1560TIP3    H2 4687   4.815   1.253   2.501
 1561TIP3   OH2 4688   2.528   4.734   4.917
 1561TIP3    H1 4689   2.497   4.814   4.875
 1561TIP3    H2 4690   2.602   4.706   4.863
 1562TIP3   OH2 4691   4.816   2.140   2.795
 1562TIP3    H1 4692   4.816   2.231   2.765
 1562TIP3    H2 4693   4.760   2.140   2.873
 1563TIP3   OH2 4694   1.236   3.657   4.635
 1563TIP3    H1 4695   1.163   3.596   4.627
 1563TIP3    H2 4696   1.314   3.601   4.641
 1564TIP3   OH2 4697   4.209   4.092   0.507
 1564TIP3    H1 4698   4.200   4.098   0.412
 1564TIP3    H2 4699   4.126   4.125   0.541
 1565TIP3   OH2 4700   2.980   5.175   0.993
 1565TIP3    H1 4701   2.936   5.251   0.956
 1565TIP3    H2 4702   3.045   5.212   1.054
 1566TIP3   OH2 4703   6.305   0.455   3.521
 1566TIP3    H1 4704   6.345   0.542   3.516
 1566TIP3    H2 4705   6.229   0.466   3.578
 1567TIP3   OH2 4706   2.847   5.643   4.449
 1567TIP3    H1 4707   2.814   5.627   4.537
 1567TIP3    H2 4708   2.770   5.630   4.392
 1568TIP3   OH2 4709   3.016   1.515   3.790
 1568TIP3    H1 4710   3.109   1.539   3.798
 1568TIP3    H2 4711   3.013   1.462   3.710
 1569TIP3   OH2 4712   4.067   2.527   2.170
 1569TIP3    H1 4713   4.097   2.485   2.089
 1569TIP3    H2 4714   4.060   2.456   2.233
 1570TIP3   OH2 4715   4.915   2.950   3.655
 1570TIP3    H1 4716   4.908   2.867   3.702
 1570TIP3    H2 4717   4.920   2.925   3.563
 1571TIP3   OH2 4718   1.726   5.340   2.447
 1571TIP3    H1 4719   1.668   5.285   2.394
 1571TIP3    H2 4720   1.799   5.361   2.388
 1572TIP3   OH2 4721   5.854   0.248   1.096
 1572TIP3    H1 4722   5.800   0.175   1.127
 1572TIP3    H2 4723   5.809   0.326   1.129
 1573TIP3   OH2 4724   3.694   4.807   1.038
 1573TIP3    H1 4725   3.755   4.735   1.055
 1573TIP3    H2 4726   3.690   4.811   0.942
 1574TIP3   OH2 4727   0.943   5.040   2.571
 1574TIP3    H1 4728   0.928   5.037   2.665
 1574TIP3    H2 4729   0.936   4.949   2.542
 1575TIP3   OH2 4730   3.603   1.283   2.393
 1575TIP3    H1 4731   3.567   1.371   2.397
 1575TIP3    H2 4732   3.690   1.295   2.353
 1576TIP3   OH2 4733   3.536   0.389   1.929
 1576TIP3    H1 4734   3.581   0.316   1.886
 1576TIP3    H2 4735   3.550   0.464   1.871
 1577TIP3   OH2 4736   0.758   3.747   3.603
 1577TIP3    H1 4737   0.764   3.717   3.512
 1577TIP3    H2 4738   0.772   3.668   3.655
 1578TIP3   OH2 4739   0.959   1.253   3.271
 1578TIP3    H1 4740   0.903   1.206   3.210
 1578TIP3    H2 4741   1.002   1.320   3.218
 1579TIP3   OH2 4742   6.211   0.085   4.693
 1579TIP3    H1 4743   6.290   0.046   4.655
 1579TIP3    H2 4744   6.143   0.072   4.627
 1580TIP3   OH2 4745   2.889   3.353   3.619
 1580TIP3    H1 4746   2.839   3.334   3.698
 1580TIP3    H2 4747   2.936   3.434   3.639
 1581TIP3   OH2 4748   0.483   5.669   1.483
 1581TIP3    H1 4749   0.415   5.677   1.416
 1581TIP3    H2 4750   0.455   5.595   1.537
 1582TIP3   OH2 4751   2.152   1.747   4.543
 1582TIP3    H1 4752   2.210   1.786   4.478
 1582TIP3    H2 4753   2.208   1.734   4.620
 1583TIP3   OH2 4754   1.942   3.318   1.342
 1583TIP3    H1 4755   1.951   3.393   1.401
 1583TIP3    H2 4756   1.874   3.264   1.382
 1584TIP3   OH2 4757   1.212   3.190   1.642
 1584TIP3    H1 4758   1.279   3.123   1.653
 1584TIP3    H2 4759   1.257   3.272   1.664
 1585TIP3   OH2 4760   3.518   3.420   1.798
 1585TIP3    H1 4761   3.429   3.447   1.817
 1585TIP3    H2 4762   3.570   3.501   1.801
 1586TIP3   OH2 4763   1.995   3.485   4.964
 1586TIP3    H1 4764   1.995   3.389   4.973
 1586TIP3    H2 4765   2.070   3.503   4.908
 1587TIP3   OH2 4766   2.838   2.356   3.594
 1587TIP3    H1 4767   2.874   2.378   3.508
 1587TIP3    H2 4768   2.858   2.432   3.649
 1588TIP3   OH2 4769   2.166   3.249   0.912
 1588TIP3    H1 4770   2.152   3.154   0.905
 1588TIP3    H2 4771   2.162   3.267   1.006
 1589TIP3   OH2 4772   5.429   4.944   1.380
 1589TIP3    H1 4773   5.519   4.945   1.345
 1589TIP3    H2 4774   5.436   4.893   1.461
 1590TIP3   OH2 4775   0.528   1.018   2.795
 1590TIP3    H1 4776   0.448   1.031   2.845
 1590TIP3    H2 4777   0.598   1.055   2.848
 1591TIP3   OH2 4778   2.685   4.624   4.489
 1591TIP3    H1 4779   2.752   4.556   4.498
 1591TIP3    H2 4780   2.672   4.632   4.394
 1592TIP3   OH2 4781   4.860   2.176   0.758
 1592TIP3    H1 4782   4.836   2.102   0.702
 1592TIP3    H2 4783   4.784   2.235   0.752
 1593TIP3   OH2 4784   3.087   0.772   0.049
 1593TIP3    H1 4785   3.102   0.706   0.117
 1593TIP3    H2 4786   3.174   0.801   0.023
 1594TIP3   OH2 4787   3.333   1.288   2.715
 1594TIP3    H1 4788   3.269   1.318   2.650
 1594TIP3    H2 4789   3.412   1.339   2.696
 1595TIP3   OH2 4790   0.642   3.497   4.679
 1595TIP3    H1 4791   0.572   3.527   4.737
 1595TIP3    H2 4792   0.703   3.451   4.737
 1596TIP3   OH2 4793   4.684   5.383   5.104
 1596TIP3    H1 4794   4.620   5.343   5.164
 1596TIP3    H2 4795   4.744   5.430   5.162
 1597TIP3   OH2 4796   1.607   5.891   0.449
 1597TIP3    H1 4797   1.557   5.811   0.434
 1597TIP3    H2 4798   1.555   5.960   0.408
 1598TIP3   OH2 4799   3.350   4.464   1.233
 1598TIP3    H1 4800   3.375   4.547   1.193
 1598TIP3    H2 4801   3.433   4.420   1.252
 1599TIP3   OH2 4802   3.060   2.719   3.633
 1599TIP3    H1 4803   3.132   2.748   3.577
 1599TIP3    H2 4804   3.099   2.707   3.719
 1600TIP3   OH2 4805   0.027   4.454   1.952
 1600TIP3    H1 4806   0.114   4.444   1.992
 1600TIP3    H2 4807  -0.012   4.528   1.999
 1601TIP3   OH2 4808   4.565   1.404   0.571
 1601TIP3    H1 4809   4.474   1.408   0.542
 1601TIP3    H2 4810   4.579   1.311   0.590
 1602TIP3   OH2 4811   2.774   4.908   5.003
 1602TIP3    H1 4812   2.775   4.999   4.975
 1602TIP3    H2 4813   2.708   4.866   4.947
 1603TIP3   OH2 4814   1.888   4.190   3.906
 1603TIP3    H1 4815   1.873   4.279   3.872
 1603TIP3    H2 4816   1.811   4.141   3.879
 1604TIP3   OH2 4817   3.643   4.771   4.007
 1604TIP3    H1 4818   3.569   4.826   4.032
 1604TIP3    H2 4819   3.606   4.683   3.997
 1605TIP3   OH2 4820   2.572   0.583   2.394
 1605TIP3    H1 4821   2.554   0.559   2.485
 1605TIP3    H2 4822   2.586   0.499   2.350
 1606TIP3   OH2 4823   4.821   0.135   1.626
 1606TIP3    H1 4824   4.815   0.120   1.531
 1606TIP3    H2 4825   4.730   0.128   1.657
 1607TIP3   OH2 4826   1.295   0.073   2.595
 1607TIP3    H1 4827   1.331   0.022   2.668
 1607TIP3    H2 4828   1.356   0.058   2.523
 1608TIP3   OH2 4829   2.695   1.108   4.087
 1608TIP3    H1 4830   2.675   1.202   4.082
 1608TIP3    H2 4831   2.636   1.068   4.024
 1609TIP3   OH2 4832   4.197   4.433   0.061
 1609TIP3    H1 4833   4.207   4.513   0.011
 1609TIP3    H2 4834   4.275   4.382   0.041
 1610TIP3   OH2 4835   4.160   3.242   3.734
 1610TIP3    H1 4836   4.243   3.225   3.778
 1610TIP3    H2 4837   4.175   3.325   3.688
 1611TIP3   OH2 4838   6.020   1.630   2.723
 1611TIP3    H1 4839   6.103   1.585   2.711
 1611TIP3    H2 4840   6.003   1.625   2.817
 1612TIP3   OH2 4841   3.299   4.398   1.605
 1612TIP3    H1 4842   3.295   4.441   1.690
 1612TIP3    H2 4843   3.385   4.422   1.570
 1613TIP3   OH2 4844   0.194   0.455   3.378
 1613TIP3    H1 4845   0.260   0.416   3.436
 1613TIP3    H2 4846   0.111   0.444   3.425
 1614TIP3   OH2 4847   3.200   2.399   3.964
 1614TIP3    H1 4848   3.289   2.396   4.001
 1614TIP3    H2 4849   3.196   2.322   3.907
 1615TIP3   OH2 4850   3.701   1.704   4.526
 1615TIP3    H1 4851   3.754   1.716   4.605
 1615TIP3    H2 4852   3.639   1.776   4.527
 1616TIP3   OH2 4853   0.527   2.574   4.318
 1616TIP3    H1 4854   0.515   2.664   4.287
 1616TIP3    H2 4855   0.621   2.565   4.328
 1617TIP3   OH2 4856   3.006   2.505   3.416
 1617TIP3    H1 4857   3.050   2.480   3.497
 1617TIP3    H2 4858   3.051   2.456   3.348
 1618TIP3   OH2 4859   2.969   3.586   4.251
 1618TIP3    H1 4860   2.959   3.504   4.202
 1618TIP3    H2 4861   2.909   3.578   4.325
 1619TIP3   OH2 4862   4.428   4.155   4.432
 1619TIP3    H1 4863   4.476   4.094   4.376
 1619TIP3    H2 4864   4.405   4.103   4.509
 1620TIP3   OH2 4865   4.685   3.095   2.554
 1620TIP3    H1 4866   4.690   2.999   2.548
 1620TIP3    H2 4867   4.757   3.126   2.499
 1621TIP3   OH2 4868   4.767   0.768   1.355
 1621TIP3    H1 4869   4.698   0.755   1.420
 1621TIP3    H2 4870   4.741   0.713   1.281
 1622TIP3   OH2 4871   5.921   3.513   1.538
 1622TIP3    H1 4872   5.996   3.547   1.489
 1622TIP3    H2 4873   5.890   3.588   1.589
 1623TIP3   OH2 4874   3.667   0.138   3.469
 1623TIP3    H1 4875   3.604   0.208   3.453
 1623TIP3    H2 4876   3.630   0.089   3.542
 1624TIP3   OH2 4877   4.926   5.869   0.119
 1624TIP3    H1 4878   4.898   5.960   0.109
 1624TIP3    H2 4879   4.899   5.826   0.038
 1625TIP3   OH2 4880   2.741   2.626   2.762
 1625TIP3    H1 4881   2.788   2.673   2.694
 1625TIP3    H2 4882   2.685   2.565   2.714
 1626TIP3   OH2 4883   5.929   3.781   2.911
 1626TIP3    H1 4884   5.969   3.806   2.828
 1626TIP3    H2 4885   5.988   3.816   2.977
 1627TIP3   OH2 4886   3.235   0.346   1.992
 1627TIP3    H1 4887   3.319   0.355   1.948
 1627TIP3    H2 4888   3.214   0.253   1.985
 1628TIP3   OH2 4889   4.959   4.115   0.697
 1628TIP3    H1 4890   4.934   4.087   0.609
 1628TIP3    H2 4891   5.051   4.141   0.689
 1629TIP3   OH2 4892   0.889   4.750   1.824
 1629TIP3    H1 4893   0.970   4.792   1.852
 1629TIP3    H2 4894   0.904   4.728   1.732
 1630TIP3   OH2 4895   5.440   1.148   0.698
 1630TIP3    H1 4896   5.367   1.182   0.751
 1630TIP3    H2 4897   5.486   1.227   0.668
 1631TIP3   OH2 4898   3.336   2.844   4.465
 1631TIP3    H1 4899   3.340   2.863   4.559
 1631TIP3    H2 4900   3.246   2.863   4.440
 1632TIP3   OH2 4901   0.020   0.652   3.843
 1632TIP3    H1 4902  -0.063   0.649   3.890
 1632TIP3    H2 4903  -0.004   0.655   3.750
 1633TIP3   OH2 4904   0.302   3.969   1.753
 1633TIP3    H1 4905   0.314   3.902   1.821
 1633TIP3    H2 4906   0.253   3.924   1.684
 1634TIP3   OH2 4907   2.358   2.212   0.012
 1634TIP3    H1 4908   2.269   2.218   0.049
 1634TIP3    H2 4909   2.345   2.209  -0.082
 1635TIP3   OH2 4910   2.623   0.327   5.219
 1635TIP3    H1 4911   2.559   0.272   5.173
 1635TIP3    H2 4912   2.689   0.348   5.152
 1636TIP3   OH2 4913   1.349   3.838   1.680
 1636TIP3    H1 4914   1.334   3.808   1.591
 1636TIP3    H2 4915   1.355   3.758   1.732
 1637TIP3   OH2 4916   1.819   5.574   3.004
 1637TIP3    H1 4917   1.808   5.634   3.078
 1637TIP3    H2 4918   1.761   5.610   2.936
 1638TIP3   OH2 4919   3.111   4.175   0.292
 1638TIP3    H1 4920   3.175   4.124   0.243
 1638TIP3    H2 4921   3.103   4.130   0.376
 1639TIP3   OH2 4922   6.229   2.735   2.718
 1639TIP3    H1 4923   6.288   2.661   2.733
 1639TIP3    H2 4924   6.238   2.790   2.795
 1640TIP3   OH2 4925   1.065   0.769   0.319
 1640TIP3    H1 4926   1.052   0.674   0.323
 1640TIP3    H2 4927   1.159   0.781   0.305
 1641TIP3   OH2 4928   0.930   5.713   2.340
 1641TIP3    H1 4929   1.005   5.705   2.399
 1641TIP3    H2 4930   0.865   5.652   2.375
 1642TIP3   OH2 4931   1.356   2.317   1.706
 1642TIP3    H1 4932   1.263   2.304   1.725
 1642TIP3    H2 4933   1.371   2.410   1.720
 1643TIP3   OH2 4934   5.662   4.309   5.070
 1643TIP3    H1 4935   5.739   4.349   5.029
 1643TIP3    H2 4936   5.696   4.232   5.115
 1644TIP3   OH2 4937   1.775   5.986   3.770
 1644TIP3    H1 4938   1.699   5.944   3.730
 1644TIP3    H2 4939   1.738   6.058   3.822
 1645TIP3   OH2 4940   1.772   0.637   5.161
 1645TIP3    H1 4941   1.696   0.591   5.125
 1645TIP3    H2 4942   1.742   0.727   5.173
 1646TIP3   OH2 4943   3.467   4.677   0.698
 1646TIP3    H1 4944   3.556   4.710   0.695
 1646TIP3    H2 4945   3.432   4.693   0.611
 1647TIP3   OH2 4946   4.138   0.773   3.095
 1647TIP3    H1 4947   4.169   0.857   3.130
 1647TIP3    H2 4948   4.049   0.792   3.064
 1648TIP3   OH2 4949   2.015   5.544   5.003
 1648TIP3    H1 4950   2.093   5.505   4.962
 1648TIP3    H2 4951   2.043   5.563   5.092
 1649TIP3   OH2 4952   1.218   5.191   2.299
 1649TIP3    H1 4953   1.149   5.254   2.281
 1649TIP3    H2 4954   1.217   5.180   2.394
 1650TIP3   OH2 4955   3.930   4.818   2.337
 1650TIP3    H1 4956   3.838   4.834   2.315
 1650TIP3    H2 4957   3.931   4.727   2.369
 1651TIP3   OH2 4958   3.632   2.560   2.718
 1651TIP3    H1 4959   3.715   2.544   2.763
 1651TIP3    H2 4960   3.580   2.482   2.735
 1652TIP3   OH2 4961   0.981   4.551   3.396
 1652TIP3    H1 4962   1.075   4.539   3.391
 1652TIP3    H2 4963   0.945   4.463   3.388
 1653TIP3   OH2 4964   4.805   2.663   3.176
 1653TIP3    H1 4965   4.738   2.726   3.204
 1653TIP3    H2 4966   4.859   2.710   3.113
 1654TIP3   OH2 4967   0.644   0.146   3.566
 1654TIP3    H1 4968   0.719   0.137   3.625
 1654TIP3    H2 4969   0.646   0.237   3.538
 1655TIP3   OH2 4970   1.196   4.732   2.700
 1655TIP3    H1 4971   1.259   4.702   2.765
 1655TIP3    H2 4972   1.112   4.697   2.730
 1656TIP3   OH2 4973   5.815   2.090   4.213
 1656TIP3    H1 4974   5.806   2.179   4.247
 1656TIP3    H2 4975   5.895   2.092   4.161
 1657TIP3   OH2 4976   2.896   0.478   0.170
 1657TIP3    H1 4977   2.990   0.483   0.186
 1657TIP3    H2 4978   2.887   0.416   0.098
 1658TIP3   OH2 4979   4.507   3.871   2.799
 1658TIP3    H1 4980   4.486   3.915   2.881
 1658TIP3    H2 4981   4.425   3.871   2.749
 1659TIP3   OH2 4982   5.916   5.743   0.404
 1659TIP3    H1 4983   5.889   5.717   0.316
 1659TIP3    H2 4984   6.012   5.750   0.398
 1660TIP3   OH2 4985   4.575   2.568   3.344
 1660TIP3    H1 4986   4.511   2.560   3.273
 1660TIP3    H2 4987   4.657   2.534   3.306
 1661TIP3   OH2 4988   5.593   1.842   3.245
 1661TIP3    H1 4989   5.599   1.828   3.340
 1661TIP3    H2 4990   5.555   1.761   3.211
 1662TIP3   OH2 4991   2.110   4.230   0.198
 1662TIP3    H1 4992   2.069   4.313   0.172
 1662TIP3    H2 4993   2.090   4.221   0.291
 1663TIP3   OH2 4994   6.069   1.095   3.463
 1663TIP3    H1 4995   6.016   1.128   3.391
 1663TIP3    H2 4996   6.145   1.054   3.422
 1664TIP3   OH2 4997   5.685   2.376   3.355
 1664TIP3    H1 4998   5.605   2.427   3.370
 1664TIP3    H2 4999   5.717   2.406   3.270
 1665TIP3   OH2 5000   2.772   5.860   3.277
 1665TIP3    H1 5001   2.744   5.893   3.192
 1665TIP3    H2 5002   2.708   5.792   3.298
 1666TIP3   OH2 5003   2.666   4.752   1.491
 1666TIP3    H1 5004   2.700   4.832   1.450
 1666TIP3    H2 5005   2.744   4.706   1.522
 1667TIP3   OH2 5006   5.157   1.093   1.451
 1667TIP3    H1 5007   5.104   1.172   1.462
 1667TIP3    H2 5008   5.093   1.024   1.434
 1668TIP3   OH2 5009   3.339   2.320   1.912
 1668TIP3    H1 5010   3.386   2.244   1.878
 1668TIP3    H2 5011   3.345   2.385   1.842
 1669TIP3   OH2 5012   6.273   5.544   1.257
 1669TIP3    H1 5013   6.241   5.563   1.169
 1669TIP3    H2 5014   6.368   5.553   1.250
 1670TIP3   OH2 5015   5.382   5.631   2.812
 1670TIP3    H1 5016   5.416   5.684   2.740
 1670TIP3    H2 5017   5.303   5.590   2.777
 1671TIP3   OH2 5018   1.525   5.303   5.039
 1671TIP3    H1 5019   1.594   5.345   4.987
 1671TIP3    H2 5020   1.444   5.329   4.995
 1672TIP3   OH2 5021   1.031   2.198   1.022
 1672TIP3    H1 5022   1.039   2.199   1.117
 1672TIP3    H2 5023   1.095   2.262   0.991
 1673TIP3   OH2 5024   5.730   4.645   4.852
 1673TIP3    H1 5025   5.661   4.599   4.804
 1673TIP3    H2 5026   5.793   4.576   4.875
 1674TIP3   OH2 5027   3.047   1.238   0.908
 1674TIP3    H1 5028   3.095   1.320   0.912
 1674TIP3    H2 5029   3.115   1.170   0.903
 1675TIP3   OH2 5030   3.651   2.883   4.911
 1675TIP3    H1 5031   3.699   2.830   4.976
 1675TIP3    H2 5032   3.649   2.828   4.833
 1676TIP3   OH2 5033   4.579   4.594   2.617
 1676TIP3    H1 5034   4.594   4.637   2.533
 1676TIP3    H2 5035   4.667   4.567   2.647
 1677TIP3   OH2 5036   2.747   5.273   3.294
 1677TIP3    H1 5037   2.687   5.219   3.242
 1677TIP3    H2 5038   2.725   5.254   3.385
 1678TIP3   OH2 5039   5.167   0.910   0.555
 1678TIP3    H1 5040   5.185   0.992   0.601
 1678TIP3    H2 5041   5.141   0.848   0.624
 1679TIP3   OH2 5042   3.410   4.683   1.066
 1679TIP3    H1 5043   3.485   4.727   1.106
 1679TIP3    H2 5044   3.344   4.752   1.059
 1680TIP3   OH2 5045   4.930   0.253   4.297
 1680TIP3    H1 5046   4.945   0.227   4.388
 1680TIP3    H2 5047   4.967   0.341   4.291
 1681TIP3   OH2 5048   2.547   3.420   2.564
 1681TIP3    H1 5049   2.630   3.464   2.585
 1681TIP3    H2 5050   2.481   3.488   2.575
 1682TIP3   OH2 5051   4.909   0.717   2.688
 1682TIP3    H1 5052   4.936   0.743   2.776
 1682TIP3    H2 5053   4.860   0.793   2.655
 1683TIP3   OH2 5054   0.413   3.566   4.105
 1683TIP3    H1 5055   0.374   3.589   4.021
 1683TIP3    H2 5056   0.382   3.633   4.166
 1684TIP3   OH2 5057   1.239   0.799   4.898
 1684TIP3    H1 5058   1.227   0.742   4.822
 1684TIP3    H2 5059   1.150   0.824   4.924
 1685TIP3   OH2 5060   0.325   2.839   2.003
 1685TIP3    H1 5061   0.389   2.872   2.067
 1685TIP3    H2 5062   0.256   2.800   2.056
 1686TIP3   OH2 5063   5.412   3.008   2.882
 1686TIP3    H1 5064   5.419   3.095   2.843
 1686TIP3    H2 5065   5.354   2.960   2.823
 1687TIP3   OH2 5066   4.955   4.721   0.826
 1687TIP3    H1 5067   4.925   4.811   0.838
 1687TIP3    H2 5068   4.877   4.673   0.798
 1688TIP3   OH2 5069   0.492   4.761   3.134
 1688TIP3    H1 5070   0.564   4.823   3.122
 1688TIP3    H2 5071   0.423   4.812   3.176
 1689TIP3   OH2 5072   3.571   0.266   4.101
 1689TIP3    H1 5073   3.495   0.255   4.044
 1689TIP3    H2 5074   3.585   0.360   4.105
 1690TIP3   OH2 5075   0.484   4.083   0.624
 1690TIP3    H1 5076   0.481   4.118   0.713
 1690TIP3    H2 5077   0.576   4.060   0.611
 1691TIP3   OH2 5078   6.264   3.900   4.538
 1691TIP3    H1 5079   6.308   3.825   4.497
 1691TIP3    H2 5080   6.305   3.976   4.497
 1692TIP3   OH2 5081   5.517   2.906   2.570
 1692TIP3    H1 5082   5.427   2.900   2.601
 1692TIP3    H2 5083   5.526   2.994   2.535
 1693TIP3   OH2 5084   1.608   5.702   4.148
 1693TIP3    H1 5085   1.665   5.641   4.195
 1693TIP3    H2 5086   1.626   5.684   4.056
 1694TIP3   OH2 5087   0.636   5.700   0.282
 1694TIP3    H1 5088   0.551   5.658   0.296
 1694TIP3    H2 5089   0.630   5.736   0.194
 1695TIP3   OH2 5090   5.089   5.532   0.355
 1695TIP3    H1 5091   5.122   5.466   0.415
 1695TIP3    H2 5092   5.003   5.556   0.391
 1696TIP3   OH2 5093   0.459   1.999   3.631
 1696TIP3    H1 5094   0.524   2.044   3.577
 1696TIP3    H2 5095   0.456   2.049   3.712
 1697TIP3   OH2 5096   2.318   2.544   2.966
 1697TIP3    H1 5097   2.228   2.573   2.983
 1697TIP3    H2 5098   2.330   2.555   2.872
 1698TIP3   OH2 5099   5.288   4.062   3.910
 1698TIP3    H1 5100   5.254   4.007   3.981
 1698TIP3    H2 5101   5.247   4.027   3.831
 1699TIP3   OH2 5102   1.645   4.127   5.086
 1699TIP3    H1 5103   1.735   4.119   5.119
 1699TIP3    H2 5104   1.629   4.044   5.040
 1700TIP3   OH2 5105   4.959   0.852   4.722
 1700TIP3    H1 5106   4.990   0.817   4.805
 1700TIP3    H2 5107   5.002   0.938   4.715
 1701TIP3   OH2 5108   4.070   4.464   1.242
 1701TIP3    H1 5109   4.111   4.378   1.242
 1701TIP3    H2 5110   4.097   4.504   1.325
 1702TIP3   OH2 5111   2.528   2.500   1.053
 1702TIP3    H1 5112   2.459   2.465   0.996
 1702TIP3    H2 5113   2.578   2.423   1.080
 1703TIP3   OH2 5114   0.809   5.504   1.271
 1703TIP3    H1 5115   0.875   5.572   1.259
 1703TIP3    H2 5116   0.746   5.543   1.332
 1704TIP3   OH2 5117   4.376   0.252   3.239
 1704TIP3    H1 5118   4.423   0.315   3.185
 1704TIP3    H2 5119   4.419   0.169   3.223
 1705TIP3   OH2 5120   5.915   1.803   4.085
 1705TIP3    H1 5121   5.969   1.799   4.164
 1705TIP3    H2 5122   5.970   1.769   4.015
 1706TIP3   OH2 5123   3.027   4.658   1.020
 1706TIP3    H1 5124   2.991   4.710   0.948
 1706TIP3    H2 5125   3.008   4.709   1.098
 1707TIP3   OH2 5126   1.213   2.715   1.593
 1707TIP3    H1 5127   1.131   2.703   1.641
 1707TIP3    H2 5128   1.201   2.666   1.512
 1708TIP3   OH2 5129   2.898   5.181   3.783
 1708TIP3    H1 5130   2.856   5.197   3.868
 1708TIP3    H2 5131   2.921   5.088   3.783
 1709TIP3   OH2 5132   1.702   5.676   3.225
 1709TIP3    H1 5133   1.739   5.689   3.312
 1709TIP3    H2 5134   1.638   5.606   3.237
 1710TIP3   OH2 5135   1.143   0.177   1.021
 1710TIP3    H1 5136   1.167   0.084   1.021
 1710TIP3    H2 5137   1.212   0.220   1.072
 1711TIP3   OH2 5138   3.068   2.610   4.512
 1711TIP3    H1 5139   3.131   2.542   4.536
 1711TIP3    H2 5140   2.999   2.603   4.577
 1712TIP3   OH2 5141   0.171   5.537   0.264
 1712TIP3    H1 5142   0.185   5.631   0.254
 1712TIP3    H2 5143   0.129   5.510   0.183
 1713TIP3   OH2 5144   3.134   4.907   4.530
 1713TIP3    H1 5145   3.177   4.936   4.610
 1713TIP3    H2 5146   3.098   4.821   4.551
 1714TIP3   OH2 5147   0.020   2.689   1.437
 1714TIP3    H1 5148  -0.014   2.708   1.350
 1714TIP3    H2 5149   0.046   2.775   1.472
 1715TIP3   OH2 5150   1.432   5.897   4.884
 1715TIP3    H1 5151   1.357   5.871   4.937
 1715TIP3    H2 5152   1.406   5.982   4.848
 1716TIP3   OH2 5153   4.478   5.637   1.822
 1716TIP3    H1 5154   4.533   5.594   1.887
 1716TIP3    H2 5155   4.534   5.704   1.783
 1717TIP3   OH2 5156   0.335   3.822   4.150
 1717TIP3    H1 5157   0.307   3.873   4.226
 1717TIP3    H2 5158   0.292   3.863   4.076
 1718TIP3   OH2 5159   3.896   5.279   3.899
 1718TIP3    H1 5160   3.867   5.303   3.811
 1718TIP3    H2 5161   3.872   5.187   3.908
 1719TIP3   OH2 5162   2.647   0.213   1.830
 1719TIP3    H1 5163   2.567   0.177   1.792
 1719TIP3    H2 5164   2.682   0.142   1.884
 1720TIP3   OH2 5165   2.862   4.134   2.678
 1720TIP3    H1 5166   2.851   4.177   2.593
 1720TIP3    H2 5167   2.917   4.194   2.728
 1721TIP3   OH2 5168   3.228   5.335   0.749
 1721TIP3    H1 5169   3.193   5.279   0.681
 1721TIP3    H2 5170   3.164   5.406   0.757
 1722TIP3   OH2 5171   5.256   1.486   0.087
 1722TIP3    H1 5172   5.194   1.439   0.143
 1722TIP3    H2 5173   5.207   1.561   0.053
 1723TIP3   OH2 5174   0.887   0.171   2.604
 1723TIP3    H1 5175   0.866   0.140   2.516
 1723TIP3    H2 5176   0.947   0.244   2.590
 1724TIP3   OH2 5177   0.722   2.815   2.361
 1724TIP3    H1 5178   0.818   2.812   2.361
 1724TIP3    H2 5179   0.696   2.744   2.304
 1725TIP3   OH2 5180   4.467   1.596   3.228
 1725TIP3    H1 5181   4.418   1.544   3.292
 1725TIP3    H2 5182   4.429   1.571   3.143
 1726TIP3   OH2 5183   5.938   4.874   3.764
 1726TIP3    H1 5184   5.858   4.845   3.720
 1726TIP3    H2 5185   6.003   4.882   3.695
 1727TIP3   OH2 5186   4.767   0.368   1.860
 1727TIP3    H1 5187   4.750   0.416   1.941
 1727TIP3    H2 5188   4.818   0.428   1.806
 1728TIP3   OH2 5189   4.433   0.033   4.044
 1728TIP3    H1 5190   4.449   0.100   3.977
 1728TIP3    H2 5191   4.383   0.079   4.112
 1729TIP3   OH2 5192   5.403   3.150   0.951
 1729TIP3    H1 5193   5.338   3.147   0.881
 1729TIP3    H2 5194   5.356   3.182   1.028
 1730TIP3   OH2 5195   2.969   2.176   0.502
 1730TIP3    H1 5196   2.953   2.115   0.430
 1730TIP3    H2 5197   2.891   2.231   0.505
 1731TIP3   OH2 5198   2.889   1.673   3.299
 1731TIP3    H1 5199   2.799   1.640   3.293
 1731TIP3    H2 5200   2.880   1.768   3.303
 1732TIP3   OH2 5201   4.815   5.005   3.304
 1732TIP3    H1 5202   4.766   4.974   3.381
 1732TIP3    H2 5203   4.755   5.067   3.262
 1733TIP3   OH2 5204   2.779   5.378   1.181
 1733TIP3    H1 5205   2.845   5.392   1.248
 1733TIP3    H2 5206   2.696   5.399   1.225
 1734TIP3   OH2 5207   4.083   4.484   0.371
 1734TIP3    H1 5208   4.037   4.406   0.339
 1734TIP3    H2 5209   4.142   4.508   0.299
 1735TIP3   OH2 5210   5.861   3.027   3.668
 1735TIP3    H1 5211   5.775   2.990   3.687
 1735TIP3    H2 5212   5.854   3.120   3.690
 1736TIP3   OH2 5213   2.762   1.786   1.481
 1736TIP3    H1 5214   2.804   1.808   1.565
 1736TIP3    H2 5215   2.766   1.867   1.430
 1737TIP3   OH2 5216   4.520   1.878   4.133
 1737TIP3    H1 5217   4.500   1.816   4.063
 1737TIP3    H2 5218   4.478   1.840   4.211
 1738TIP3   OH2 5219   0.666   2.827   3.390
 1738TIP3    H1 5220   0.578   2.828   3.353
 1738TIP3    H2 5221   0.659   2.878   3.471
 1739TIP3   OH2 5222   2.652   2.997   4.297
 1739TIP3    H1 5223   2.657   2.995   4.201
 1739TIP3    H2 5224   2.560   3.017   4.316
 1740TIP3   OH2 5225   0.055   3.561   3.978
 1740TIP3    H1 5226   0.129   3.521   3.934
 1740TIP3    H2 5227  -0.019   3.503   3.958
 1741TIP3   OH2 5228   1.699   2.824   3.855
 1741TIP3    H1 5229   1.660   2.741   3.881
 1741TIP3    H2 5230   1.782   2.828   3.903
 1742TIP3   OH2 5231   2.447   2.689   4.277
 1742TIP3    H1 5232   2.430   2.719   4.366
 1742TIP3    H2 5233   2.423   2.763   4.221
 1743TIP3   OH2 5234   2.030   5.100   3.233
 1743TIP3    H1 5235   2.052   5.178   3.181
 1743TIP3    H2 5236   2.022   5.132   3.323
 1744TIP3   OH2 5237   3.374   0.882   2.092
 1744TIP3    H1 5238   3.288   0.842   2.079
 1744TIP3    H2 5239   3.400   0.912   2.005
 1745TIP3   OH2 5240   2.491   3.357   4.048
 1745TIP3    H1 5241   2.486   3.407   4.129
 1745TIP3    H2 5242   2.536   3.415   3.986
 1746TIP3   OH2 5243   5.463   1.367   0.000
 1746TIP3    H1 5244   5.395   1.422   0.039
 1746TIP3    H2 5245   5.503   1.323   0.075
 1747TIP3   OH2 5246   1.843   0.238   1.771
 1747TIP3    H1 5247   1.818   0.258   1.681
 1747TIP3    H2 5248   1.785   0.292   1.824
 1748TIP3   OH2 5249   5.674   3.555   0.612
 1748TIP3    H1 5250   5.725   3.483   0.575
 1748TIP3    H2 5251   5.734   3.629   0.613
 1749TIP3   OH2 5252   1.268   5.885   3.549
 1749TIP3    H1 5253   1.314   5.843   3.477
 1749TIP3    H2 5254   1.192   5.830   3.565
 1750TIP3   OH2 5255   6.253   0.001   0.269
 1750TIP3    H1 5256   6.280  -0.085   0.300
 1750TIP3    H2 5257   6.334   0.053   0.270
 1751TIP3   OH2 5258   0.157   5.800   2.005
 1751TIP3    H1 5259   0.100   5.733   1.968
 1751TIP3    H2 5260   0.176   5.858   1.932
 1752TIP3   OH2 5261   2.026   3.132   2.742
 1752TIP3    H1 5262   1.965   3.206   2.734
 1752TIP3    H2 5263   2.041   3.103   2.652
 1753TIP3   OH2 5264   4.503   5.020   1.537
 1753TIP3    H1 5265   4.562   4.988   1.468
 1753TIP3    H2 5266   4.415   4.999   1.504
 1754TIP3   OH2 5267   0.788   3.301   4.304
 1754TIP3    H1 5268   0.701   3.337   4.290
 1754TIP3    H2 5269   0.845   3.355   4.249
 1755TIP3   OH2 5270   1.623   1.343   3.273
 1755TIP3    H1 5271   1.654   1.324   3.185
 1755TIP3    H2 5272   1.645   1.435   3.288
 1756TIP3   OH2 5273   0.897   0.331   3.786
 1756TIP3    H1 5274   0.804   0.353   3.782
 1756TIP3    H2 5275   0.936   0.399   3.841
 1757TIP3   OH2 5276   2.811   5.440   1.855
 1757TIP3    H1 5277   2.824   5.389   1.935
 1757TIP3    H2 5278   2.784   5.526   1.886
 1758TIP3   OH2 5279   2.590   2.389   2.056
 1758TIP3    H1 5280   2.665   2.447   2.037
 1758TIP3    H2 5281   2.624   2.325   2.118
 1759TIP3   OH2 5282   2.521   3.573   4.231
 1759TIP3    H1 5283   2.462   3.599   4.161
 1759TIP3    H2 5284   2.596   3.633   4.223
 1760TIP3   OH2 5285   0.356   5.903   0.399
 1760TIP3    H1 5286   0.443   5.870   0.420
 1760TIP3    H2 5287   0.332   5.955   0.476
 1761TIP3   OH2 5288   1.013   1.022   3.519
 1761TIP3    H1 5289   0.961   1.088   3.474
 1761TIP3    H2 5290   1.010   0.946   3.461
 1762TIP3   OH2 5291   2.058   2.131   1.665
 1762TIP3    H1 5292   2.018   2.116   1.751
 1762TIP3    H2 5293   2.148   2.098   1.674
 1763TIP3   OH2 5294   2.145   5.245   3.882
 1763TIP3    H1 5295   2.054   5.249   3.914
 1763TIP3    H2 5296   2.189   5.317   3.927
 1764TIP3   OH2 5297   0.866   1.776   4.042
 1764TIP3    H1 5298   0.899   1.863   4.019
 1764TIP3    H2 5299   0.945   1.723   4.051
 1765TIP3   OH2 5300   6.350   1.543   3.382
 1765TIP3    H1 5301   6.299   1.609   3.429
 1765TIP3    H2 5302   6.284   1.487   3.341
 1766TIP3   OH2 5303   2.096   1.738   3.295
 1766TIP3    H1 5304   2.139   1.742   3.381
 1766TIP3    H2 5305   2.039   1.661   3.301
 1767TIP3   OH2 5306   4.824   1.137   0.925
 1767TIP3    H1 5307   4.728   1.126   0.925
 1767TIP3    H2 5308   4.857   1.053   0.956
 1768TIP3   OH2 5309   2.181   5.309   2.150
 1768TIP3    H1 5310   2.114   5.271   2.093
 1768TIP3    H2 5311   2.169   5.403   2.143
 1769TIP3   OH2 5312   0.987   1.721   2.847
 1769TIP3    H1 5313   1.070   1.766   2.863
 1769TIP3    H2 5314   0.953   1.761   2.767
 1770TIP3   OH2 5315   0.309   0.589   4.793
 1770TIP3    H1 5316   0.337   0.628   4.710
 1770TIP3    H2 5317   0.353   0.641   4.860
 1771TIP3   OH2 5318   1.372   4.769   1.513
 1771TIP3    H1 5319   1.287   4.775   1.557
 1771TIP3    H2 5320   1.355   4.717   1.435
 1772TIP3   OH2 5321   0.189   0.037   0.318
 1772TIP3    H1 5322   0.203  -0.009   0.401
 1772TIP3    H2 5323   0.270   0.024   0.269
 1773TIP3   OH2 5324   4.096   3.070   2.284
 1773TIP3    H1 5325   4.045   2.990   2.275
 1773TIP3    H2 5326   4.144   3.077   2.202
 1774TIP3   OH2 5327   5.970   4.317   4.039
 1774TIP3    H1 5328   6.009   4.391   4.087
 1774TIP3    H2 5329   5.970   4.245   4.102
 1775TIP3   OH2 5330   3.080   5.479   1.903
 1775TIP3    H1 5331   3.029   5.453   1.980
 1775TIP3    H2 5332   3.019   5.471   1.830
 1776TIP3   OH2 5333  -0.039   0.673   2.882
 1776TIP3    H1 5334   0.004   0.591   2.906
 1776TIP3    H2 5335  -0.004   0.694   2.795
 1777TIP3   OH2 5336   0.676   5.903   4.745
 1777TIP3    H1 5337   0.629   5.986   4.743
 1777TIP3    H2 5338   0.743   5.912   4.678
 1778TIP3   OH2 5339   0.109   4.207   3.424
 1778TIP3    H1 5340   0.119   4.302   3.414
 1778TIP3    H2 5341   0.181   4.181   3.481
 1779TIP3   OH2 5342   0.061   0.853   2.229
 1779TIP3    H1 5343   0.134   0.840   2.290
 1779TIP3    H2 5344   0.027   0.765   2.213
 1780TIP3   OH2 5345   0.465   1.981   1.163
 1780TIP3    H1 5346   0.404   1.907   1.168
 1780TIP3    H2 5347   0.549   1.940   1.141
 1781TIP3   OH2 5348   0.533   2.478   3.791
 1781TIP3    H1 5349   0.526   2.452   3.883
 1781TIP3    H2 5350   0.524   2.574   3.793
 1782TIP3   OH2 5351   2.551   4.830   2.730
 1782TIP3    H1 5352   2.552   4.760   2.665
 1782TIP3    H2 5353   2.620   4.807   2.792
 1783TIP3   OH2 5354   1.815   1.042   4.490
 1783TIP3    H1 5355   1.878   1.112   4.506
 1783TIP3    H2 5356   1.868   0.963   4.483
 1784TIP3   OH2 5357   5.258   3.687   1.080
 1784TIP3    H1 5358   5.176   3.735   1.086
 1784TIP3    H2 5359   5.311   3.719   1.153
 1785TIP3   OH2 5360   1.317   3.344   0.546
 1785TIP3    H1 5361   1.396   3.379   0.506
 1785TIP3    H2 5362   1.267   3.307   0.473
 1786TIP3   OH2 5363   1.459   3.697   0.575
 1786TIP3    H1 5364   1.510   3.707   0.656
 1786TIP3    H2 5365   1.369   3.716   0.601
 1787TIP3   OH2 5366   5.007   1.697   4.718
 1787TIP3    H1 5367   5.077   1.756   4.746
 1787TIP3    H2 5368   5.040   1.656   4.638
 1788TIP3   OH2 5369   5.468   1.582   2.522
 1788TIP3    H1 5370   5.404   1.580   2.594
 1788TIP3    H2 5371   5.492   1.490   2.509
 1789TIP3   OH2 5372   0.895   0.382   0.695
 1789TIP3    H1 5373   0.925   0.308   0.642
 1789TIP3    H2 5374   0.869   0.343   0.779
 1790TIP3   OH2 5375   1.476   4.124   4.120
 1790TIP3    H1 5376   1.542   4.063   4.153
 1790TIP3    H2 5377   1.490   4.205   4.171
 1791TIP3   OH2 5378   2.546   0.722   1.309
 1791TIP3    H1 5379   2.585   0.665   1.243
 1791TIP3    H2 5380   2.595   0.703   1.389
 1792TIP3   OH2 5381   4.831   2.620   0.831
 1792TIP3    H1 5382   4.883   2.694   0.801
 1792TIP3    H2 5383   4.881   2.585   0.905
 1793TIP3   OH2 5384   2.248   1.197   1.339
 1793TIP3    H1 5385   2.203   1.259   1.282
 1793TIP3    H2 5386   2.242   1.236   1.426
 1794TIP3   OH2 5387   0.569   1.693   0.964
 1794TIP3    H1 5388   0.577   1.693   0.869
 1794TIP3    H2 5389   0.643   1.640   0.994
 1795TIP3   OH2 5390   1.377   0.052   1.240
 1795TIP3    H1 5391   1.369   0.118   1.310
 1795TIP3    H2 5392   1.438   0.090   1.178
 1796TIP3   OH2 5393   0.695   0.049   4.413
 1796TIP3    H1 5394   0.641   0.055   4.492
 1796TIP3    H2 5395   0.699   0.139   4.381
 1797TIP3   OH2 5396   0.648   2.071   0.113
 1797TIP3    H1 5397   0.725   2.123   0.090
 1797TIP3    H2 5398   0.679   1.981   0.116
 1798TIP3   OH2 5399   4.824   1.819   3.739
 1798TIP3    H1 5400   4.777   1.760   3.680
 1798TIP3    H2 5401   4.902   1.844   3.691
 1799TIP3   OH2 5402   5.352   2.159   1.508
 1799TIP3    H1 5403   5.310   2.184   1.590
 1799TIP3    H2 5404   5.302   2.083   1.477
 1800TIP3   OH2 5405   6.211   5.687   0.486
 1800TIP3    H1 5406   6.288   5.724   0.528
 1800TIP3    H2 5407   6.142   5.689   0.553
 1801TIP3   OH2 5408   3.244   4.624   2.618
 1801TIP3    H1 5409   3.255   4.709   2.576
 1801TIP3    H2 5410   3.172   4.638   2.680
 1802TIP3   OH2 5411   1.058   0.705   1.932
 1802TIP3    H1 5412   1.111   0.702   1.852
 1802TIP3    H2 5413   1.028   0.796   1.937
 1803TIP3   OH2 5414   2.133   4.718   4.224
 1803TIP3    H1 5415   2.053   4.701   4.273
 1803TIP3    H2 5416   2.196   4.655   4.258
 1804TIP3   OH2 5417   3.229   3.259   2.100
 1804TIP3    H1 5418   3.246   3.352   2.091
 1804TIP3    H2 5419   3.287   3.218   2.035
 1805TIP3   OH2 5420   4.060   2.058   1.383
 1805TIP3    H1 5421   4.108   2.112   1.446
 1805TIP3    H2 5422   3.971   2.093   1.385
 1806TIP3   OH2 5423   0.918   0.261   4.379
 1806TIP3    H1 5424   0.895   0.174   4.411
 1806TIP3    H2 5425   0.837   0.312   4.387
 1807TIP3   OH2 5426   2.702   0.044   1.218
 1807TIP3    H1 5427   2.769   0.016   1.155
 1807TIP3    H2 5428   2.746   0.042   1.302
 1808TIP3   OH2 5429   5.445   0.558   1.662
 1808TIP3    H1 5430   5.530   0.563   1.706
 1808TIP3    H2 5431   5.448   0.475   1.614
 1809TIP3   OH2 5432   4.281   2.739   2.016
 1809TIP3    H1 5433   4.190   2.747   1.988
 1809TIP3    H2 5434   4.282   2.660   2.071
 1810TIP3   OH2 5435   5.843   0.328   4.234
 1810TIP3    H1 5436   5.840   0.406   4.290
 1810TIP3    H2 5437   5.843   0.255   4.296
 1811TIP3   OH2 5438   3.728   3.358   1.625
 1811TIP3    H1 5439   3.655   3.392   1.677
 1811TIP3    H2 5440   3.745   3.271   1.661
 1812TIP3   OH2 5441   4.895   0.860   3.500
 1812TIP3    H1 5442   4.863   0.831   3.585
 1812TIP3    H2 5443   4.825   0.838   3.439
 1813TIP3   OH2 5444   5.479   2.166   4.684
 1813TIP3    H1 5445   5.514   2.088   4.727
 1813TIP3    H2 5446   5.500   2.238   4.744
 1814TIP3   OH2 5447   3.863   2.478   2.890
 1814TIP3    H1 5448   3.797   2.420   2.930
 1814TIP3    H2 5449   3.946   2.430   2.901
 1815TIP3   OH2 5450   1.285   1.448   1.816
 1815TIP3    H1 5451   1.321   1.498   1.743
 1815TIP3    H2 5452   1.321   1.490   1.894
 1816TIP3   OH2 5453   5.798   0.617   2.035
 1816TIP3    H1 5454   5.878   0.624   2.087
 1816TIP3    H2 5455   5.811   0.677   1.961
 1817TIP3   OH2 5456   2.694   0.753   0.714
 1817TIP3    H1 5457   2.770   0.772   0.658
 1817TIP3    H2 5458   2.634   0.826   0.698
 1818TIP3   OH2 5459   5.148   1.918   2.759
 1818TIP3    H1 5460   5.175   1.906   2.668
 1818TIP3    H2 5461   5.133   1.830   2.792
 1819TIP3   OH2 5462   4.006   0.312   0.472
 1819TIP3    H1 5463   4.012   0.318   0.568
 1819TIP3    H2 5464   4.046   0.228   0.451
 1820TIP3   OH2 5465   4.718   4.461   4.480
 1820TIP3    H1 5466   4.643   4.450   4.539
 1820TIP3    H2 5467   4.722   4.555   4.464
 1821TIP3   OH2 5468   3.236   2.214   0.522
 1821TIP3    H1 5469   3.251   2.306   0.541
 1821TIP3    H2 5470   3.141   2.208   0.510
 1822TIP3   OH2 5471   3.039   2.099   1.521
 1822TIP3    H1 5472   3.038   2.120   1.427
 1822TIP3    H2 5473   3.069   2.180   1.563
 1823TIP3   OH2 5474   5.230   4.036   1.237
 1823TIP3    H1 5475   5.311   3.986   1.240
 1823TIP3    H2 5476   5.256   4.127   1.255
 1824TIP3   OH2 5477   5.081   2.015   0.498
 1824TIP3    H1 5478   4.999   1.968   0.488
 1824TIP3    H2 5479   5.069   2.096   0.448
 1825TIP3   OH2 5480   2.247   4.286   2.314
 1825TIP3    H1 5481   2.266   4.268   2.222
 1825TIP3    H2 5482   2.215   4.376   2.315
 1826TIP3   OH2 5483   2.737   0.297   1.108
 1826TIP3    H1 5484   2.783   0.276   1.027
 1826TIP3    H2 5485   2.700   0.214   1.138
 1827TIP3   OH2 5486   3.680   4.109   3.113
 1827TIP3    H1 5487   3.708   4.060   3.190
 1827TIP3    H2 5488   3.637   4.045   3.057
 1828TIP3   OH2 5489   4.164   4.370   3.502
 1828TIP3    H1 5490   4.191   4.355   3.411
 1828TIP3    H2 5491   4.078   4.329   3.508
 1829TIP3   OH2 5492   1.252   2.536   3.495
 1829TIP3    H1 5493   1.315   2.584   3.549
 1829TIP3    H2 5494   1.261   2.575   3.408
 1830TIP3   OH2 5495   2.456   3.139   4.829
 1830TIP3    H1 5496   2.471   3.214   4.771
 1830TIP3    H2 5497   2.526   3.145   4.894
 1831TIP3   OH2 5498   0.385   3.606   4.758
 1831TIP3    H1 5499   0.433   3.655   4.824
 1831TIP3    H2 5500   0.374   3.667   4.685
 1832TIP3   OH2 5501   2.780   2.104   4.762
 1832TIP3    H1 5502   2.836   2.163   4.712
 1832TIP3    H2 5503   2.788   2.020   4.718
 1833TIP3   OH2 5504   3.830   2.534   0.526
 1833TIP3    H1 5505   3.837   2.619   0.570
 1833TIP3    H2 5506   3.748   2.539   0.477
 1834TIP3   OH2 5507   3.503   5.015   0.744
 1834TIP3    H1 5508   3.467   4.926   0.747
 1834TIP3    H2 5509   3.508   5.035   0.650
 1835TIP3   OH2 5510   2.098   5.692   1.717
 1835TIP3    H1 5511   2.170   5.647   1.760
 1835TIP3    H2 5512   2.032   5.702   1.785
 1836TIP3   OH2 5513   3.123   3.828   0.390
 1836TIP3    H1 5514   3.110   3.813   0.484
 1836TIP3    H2 5515   3.035   3.833   0.354
 1837TIP3   OH2 5516   4.468   2.957   3.126
 1837TIP3    H1 5517   4.479   2.956   3.031
 1837TIP3    H2 5518   4.411   2.883   3.145
 1838TIP3   OH2 5519   3.924   5.303   3.066
 1838TIP3    H1 5520   3.902   5.358   2.992
 1838TIP3    H2 5521   3.870   5.335   3.138
 1839TIP3   OH2 5522   3.740   1.003   1.179
 1839TIP3    H1 5523   3.809   0.992   1.243
 1839TIP3    H2 5524   3.667   1.040   1.228
 1840TIP3   OH2 5525   6.044   5.348   3.948
 1840TIP3    H1 5526   6.060   5.374   4.039
 1840TIP3    H2 5527   6.085   5.417   3.896
 1841TIP3   OH2 5528   3.287   0.660   2.564
 1841TIP3    H1 5529   3.329   0.617   2.490
 1841TIP3    H2 5530   3.194   0.662   2.541
 1842TIP3   OH2 5531   3.649   2.616   4.195
 1842TIP3    H1 5532   3.685   2.588   4.110
 1842TIP3    H2 5533   3.698   2.696   4.216
 1843TIP3   OH2 5534   1.332   2.411   2.395
 1843TIP3    H1 5535   1.364   2.342   2.336
 1843TIP3    H2 5536   1.362   2.383   2.482
 1844TIP3   OH2 5537   5.786   0.827   0.433
 1844TIP3    H1 5538   5.710   0.869   0.472
 1844TIP3    H2 5539   5.787   0.857   0.342
 1845TIP3   OH2 5540   4.835   3.626   1.694
 1845TIP3    H1 5541   4.813   3.661   1.781
 1845TIP3    H2 5542   4.857   3.704   1.642
 1846TIP3   OH2 5543   4.967   3.249   3.471
 1846TIP3    H1 5544   5.049   3.202   3.484
 1846TIP3    H2 5545   4.978   3.296   3.389
 1847TIP3   OH2 5546   5.226   4.370   2.909
 1847TIP3    H1 5547   5.182   4.445   2.869
 1847TIP3    H2 5548   5.293   4.345   2.846
 1848TIP3   OH2 5549   2.492   2.808   2.569
 1848TIP3    H1 5550   2.586   2.816   2.551
 1848TIP3    H2 5551   2.487   2.773   2.657
 1849TIP3   OH2 5552   4.036   4.564   2.910
 1849TIP3    H1 5553   4.107   4.629   2.909
 1849TIP3    H2 5554   4.080   4.481   2.890
 1850TIP3   OH2 5555   3.938   3.702   1.872
 1850TIP3    H1 5556   3.982   3.761   1.810
 1850TIP3    H2 5557   4.002   3.632   1.887
 1851TIP3   OH2 5558   3.983   0.377   2.072
 1851TIP3    H1 5559   3.925   0.446   2.105
 1851TIP3    H2 5560   4.002   0.323   2.148
 1852TIP3   OH2 5561   3.738   0.711   4.849
 1852TIP3    H1 5562   3.830   0.686   4.837
 1852TIP3    H2 5563   3.724   0.708   4.944
 1853TIP3   OH2 5564   5.153   4.613   2.863
 1853TIP3    H1 5565   5.111   4.659   2.790
 1853TIP3    H2 5566   5.202   4.682   2.908
 1854TIP3   OH2 5567   5.084   2.136   1.419
 1854TIP3    H1 5568   5.039   2.111   1.499
 1854TIP3    H2 5569   5.078   2.232   1.417
 1855TIP3   OH2 5570   4.753   2.924   3.216
 1855TIP3    H1 5571   4.796   3.009   3.225
 1855TIP3    H2 5572   4.666   2.945   3.182
 1856TIP3   OH2 5573   4.250   2.208   3.503
 1856TIP3    H1 5574   4.273   2.267   3.431
 1856TIP3    H2 5575   4.319   2.141   3.501
 1857TIP3   OH2 5576   1.492   4.124   3.861
 1857TIP3    H1 5577   1.486   4.151   3.953
 1857TIP3    H2 5578   1.562   4.059   3.859
 1858TIP3   OH2 5579   3.065   5.937   3.179
 1858TIP3    H1 5580   3.089   5.890   3.099
 1858TIP3    H2 5581   2.981   5.899   3.205
 1859TIP3   OH2 5582   2.668   5.791   2.892
 1859TIP3    H1 5583   2.653   5.831   2.806
 1859TIP3    H2 5584   2.749   5.831   2.923
 1860TIP3   OH2 5585   2.842   3.188   0.692
 1860TIP3    H1 5586   2.783   3.212   0.763
 1860TIP3    H2 5587   2.809   3.236   0.616
 1861TIP3   OH2 5588   4.835   4.902   1.773
 1861TIP3    H1 5589   4.881   4.921   1.691
 1861TIP3    H2 5590   4.798   4.814   1.760
 1862TIP3   OH2 5591   3.858   4.899   1.626
 1862TIP3    H1 5592   3.798   4.916   1.699
 1862TIP3    H2 5593   3.806   4.915   1.547
 1863TIP3   OH2 5594   6.065   1.766   2.259
 1863TIP3    H1 5595   6.025   1.680   2.245
 1863TIP3    H2 5596   6.121   1.754   2.336
 1864TIP3   OH2 5597   0.090   1.987   0.586
 1864TIP3    H1 5598   0.111   2.011   0.676
 1864TIP3    H2 5599  -0.006   1.984   0.583
 1865TIP3   OH2 5600   3.199   1.656   5.088
 1865TIP3    H1 5601   3.184   1.673   4.995
 1865TIP3    H2 5602   3.183   1.562   5.098
 1866TIP3   OH2 5603   4.206   0.686   4.140
 1866TIP3    H1 5604   4.152   0.617   4.178
 1866TIP3    H2 5605   4.213   0.752   4.208
 1867TIP3   OH2 5606   5.222   1.687   3.434
 1867TIP3    H1 5607   5.228   1.686   3.530
 1867TIP3    H2 5608   5.308   1.714   3.404
 1868TIP3   OH2 5609   4.898   4.470   1.952
 1868TIP3    H1 5610   4.865   4.462   2.041
 1868TIP3    H2 5611   4.927   4.382   1.929
 1869TIP3   OH2 5612   5.022   0.954   0.256
 1869TIP3    H1 5613   4.994   1.007   0.330
 1869TIP3    H2 5614   4.984   0.996   0.179
 1870TIP3   OH2 5615   0.573   4.459   0.109
 1870TIP3    H1 5616   0.584   4.411   0.027
 1870TIP3    H2 5617   0.656   4.506   0.122
 1871TIP3   OH2 5618   1.539   0.530   5.059
 1871TIP3    H1 5619   1.453   0.562   5.087
 1871TIP3    H2 5620   1.525   0.437   5.044
 1872TIP3   OH2 5621   0.978   2.543   3.603
 1872TIP3    H1 5622   0.950   2.627   3.639
 1872TIP3    H2 5623   1.062   2.562   3.561
 1873TIP3   OH2 5624   2.791   4.661   3.382
 1873TIP3    H1 5625   2.699   4.636   3.390
 1873TIP3    H2 5626   2.796   4.747   3.425
 1874TIP3   OH2 5627   3.073   4.163   0.894
 1874TIP3    H1 5628   3.069   4.208   0.809
 1874TIP3    H2 5629   3.070   4.233   0.959
 1875TIP3   OH2 5630   3.720   2.521   3.219
 1875TIP3    H1 5631   3.693   2.467   3.145
 1875TIP3    H2 5632   3.699   2.610   3.193
 1876TIP3   OH2 5633   2.226   1.674   1.808
 1876TIP3    H1 5634   2.314   1.687   1.845
 1876TIP3    H2 5635   2.221   1.579   1.794
 1877TIP3   OH2 5636   5.656   2.940   4.755
 1877TIP3    H1 5637   5.730   2.882   4.773
 1877TIP3    H2 5638   5.604   2.938   4.836
 1878TIP3   OH2 5639   1.909   5.313   1.263
 1878TIP3    H1 5640   1.911   5.349   1.174
 1878TIP3    H2 5641   1.947   5.383   1.318
 1879TIP3   OH2 5642   4.145   1.713   0.361
 1879TIP3    H1 5643   4.180   1.789   0.407
 1879TIP3    H2 5644   4.217   1.650   0.360
 1880TIP3   OH2 5645   0.689   1.502   4.413
 1880TIP3    H1 5646   0.673   1.489   4.319
 1880TIP3    H2 5647   0.634   1.437   4.456
 1881TIP3   OH2 5648   3.229   0.239   1.030
 1881TIP3    H1 5649   3.224   0.237   1.125
 1881TIP3    H2 5650   3.322   0.226   1.011
 1882TIP3   OH2 5651   0.881   4.563   4.584
 1882TIP3    H1 5652   0.966   4.534   4.618
 1882TIP3    H2 5653   0.845   4.485   4.542
 1883TIP3   OH2 5654   3.134   2.055  -0.013
 1883TIP3    H1 5655   3.143   2.004   0.067
 1883TIP3    H2 5656   3.223   2.075  -0.039
 1884TIP3   OH2 5657   2.631   0.026   0.623
 1884TIP3    H1 5658   2.552   0.019   0.675
 1884TIP3    H2 5659   2.679  -0.056   0.640
 1885TIP3   OH2 5660   3.554   5.796   2.943
 1885TIP3    H1 5661   3.617   5.728   2.965
 1885TIP3    H2 5662   3.584   5.832   2.860
 1886TIP3   OH2 5663   4.640   0.582   2.130
 1886TIP3    H1 5664   4.604   0.639   2.062
 1886TIP3    H2 5665   4.732   0.571   2.107
 1887TIP3   OH2 5666   5.441   5.882   0.016
 1887TIP3    H1 5667   5.354   5.863  -0.019
 1887TIP3    H2 5668   5.466   5.965  -0.027
 1888TIP3   OH2 5669   3.368   5.253   0.968
 1888TIP3    H1 5670   3.322   5.279   0.888
 1888TIP3    H2 5671   3.459   5.242   0.941
 1889TIP3   OH2 5672   3.707   5.802   0.564
 1889TIP3    H1 5673   3.779   5.812   0.627
 1889TIP3    H2 5674   3.691   5.890   0.531
 1890TIP3   OH2 5675   0.346   3.431   2.135
 1890TIP3    H1 5676   0.297   3.416   2.054
 1890TIP3    H2 5677   0.437   3.419   2.111
 1891TIP3   OH2 5678   5.069   4.352   0.533
 1891TIP3    H1 5679   5.119   4.274   0.558
 1891TIP3    H2 5680   5.093   4.417   0.599
 1892TIP3   OH2 5681   5.636   2.327   0.436
 1892TIP3    H1 5682   5.568   2.392   0.455
 1892TIP3    H2 5683   5.647   2.330   0.341
 1893TIP3   OH2 5684   2.566   1.922   1.101
 1893TIP3    H1 5685   2.638   1.943   1.161
 1893TIP3    H2 5686   2.594   1.956   1.016
 1894TIP3   OH2 5687   3.257   0.694   3.205
 1894TIP3    H1 5688   3.218   0.611   3.178
 1894TIP3    H2 5689   3.345   0.692   3.167
 1895TIP3   OH2 5690   5.292   3.780   2.277
 1895TIP3    H1 5691   5.265   3.770   2.186
 1895TIP3    H2 5692   5.243   3.713   2.325
 1896TIP3   OH2 5693   4.427   4.386   4.842
 1896TIP3    H1 5694   4.437   4.375   4.748
 1896TIP3    H2 5695   4.510   4.425   4.871
 1897TIP3   OH2 5696   5.982   1.185   2.497
 1897TIP3    H1 5697   5.968   1.264   2.550
 1897TIP3    H2 5698   5.895   1.161   2.466
 1898TIP3   OH2 5699   2.107   4.323   2.900
 1898TIP3    H1 5700   2.125   4.238   2.940
 1898TIP3    H2 5701   2.193   4.354   2.871
 1899TIP3   OH2 5702   3.442   4.082   2.942
 1899TIP3    H1 5703   3.403   4.119   3.020
 1899TIP3    H2 5704   3.471   4.158   2.891
 1900TIP3   OH2 5705   3.178   4.129   1.639
 1900TIP3    H1 5706   3.205   4.216   1.611
 1900TIP3    H2 5707   3.093   4.115   1.596
 1901TIP3   OH2 5708   4.709   4.278   4.273
 1901TIP3    H1 5709   4.731   4.203   4.329
 1901TIP3    H2 5710   4.718   4.354   4.329
 1902TIP3   OH2 5711   0.714   0.747   1.184
 1902TIP3    H1 5712   0.723   0.652   1.181
 1902TIP3    H2 5713   0.683   0.770   1.096
 1903TIP3   OH2 5714   1.785   0.806   4.780
 1903TIP3    H1 5715   1.826   0.893   4.777
 1903TIP3    H2 5716   1.857   0.747   4.806
 1904TIP3   OH2 5717   6.018   4.836   1.396
 1904TIP3    H1 5718   6.021   4.925   1.430
 1904TIP3    H2 5719   5.926   4.822   1.374
 1905TIP3   OH2 5720   3.506   1.743   2.189
 1905TIP3    H1 5721   3.430   1.800   2.174
 1905TIP3    H2 5722   3.498   1.676   2.121
 1906TIP3   OH2 5723   4.325   5.541   0.740
 1906TIP3    H1 5724   4.404   5.506   0.783
 1906TIP3    H2 5725   4.356   5.617   0.691
 1907TIP3   OH2 5726   4.675   3.110   2.964
 1907TIP3    H1 5727   4.667   3.145   3.053
 1907TIP3    H2 5728   4.662   3.186   2.907
 1908TIP3   OH2 5729   5.925   2.379   1.035
 1908TIP3    H1 5730   5.849   2.395   0.979
 1908TIP3    H2 5731   5.890   2.325   1.107
 1909TIP3   OH2 5732   1.228   2.664   3.262
 1909TIP3    H1 5733   1.150   2.697   3.307
 1909TIP3    H2 5734   1.247   2.730   3.196
 1910TIP3   OH2 5735   1.414   2.606   0.162
 1910TIP3    H1 5736   1.481   2.586   0.227
 1910TIP3    H2 5737   1.337   2.631   0.213
 1911TIP3   OH2 5738   0.087   3.857   1.603
 1911TIP3    H1 5739   0.061   3.873   1.513
 1911TIP3    H2 5740   0.011   3.814   1.643
 1912TIP3   OH2 5741   4.963   4.730   2.183
 1912TIP3    H1 5742   4.925   4.654   2.227
 1912TIP3    H2 5743   5.012   4.693   2.109
 1913TIP3   OH2 5744   0.086   5.154   0.232
 1913TIP3    H1 5745   0.177   5.184   0.231
 1913TIP3    H2 5746   0.089   5.066   0.196
 1914TIP3   OH2 5747   0.108   0.955   0.434
 1914TIP3    H1 5748   0.138   0.865   0.444
 1914TIP3    H2 5749   0.035   0.950   0.372
 1915TIP3   OH2 5750   2.067   3.891   5.098
 1915TIP3    H1 5751   1.990   3.881   5.154
 1915TIP3    H2 5752   2.032   3.892   5.009
 1916TIP3   OH2 5753   2.256   3.308   3.384
 1916TIP3    H1 5754   2.277   3.251   3.310
 1916TIP3    H2 5755   2.303   3.389   3.367
 1917TIP3   OH2 5756   6.232   1.375   3.931
 1917TIP3    H1 5757   6.158   1.381   3.992
 1917TIP3    H2 5758   6.205   1.312   3.866
 1918TIP3   OH2 5759   4.916   5.216   1.440
 1918TIP3    H1 5760   4.968   5.292   1.464
 1918TIP3    H2 5761   4.840   5.252   1.393
 1919TIP3   OH2 5762   2.000   1.193   0.367
 1919TIP3    H1 5763   1.976   1.208   0.459
 1919TIP3    H2 5764   2.094   1.171   0.371
 1920TIP3   OH2 5765   5.789   3.144   0.184
 1920TIP3    H1 5766   5.828   3.082   0.245
 1920TIP3    H2 5767   5.820   3.116   0.098
 1921TIP3   OH2 5768   3.865   5.840   2.743
 1921TIP3    H1 5769   3.933   5.891   2.699
 1921TIP3    H2 5770   3.786   5.893   2.734
 1922TIP3   OH2 5771   0.941   2.485   2.388
 1922TIP3    H1 5772   0.874   2.459   2.324
 1922TIP3    H2 5773   1.005   2.534   2.336
 1923TIP3   OH2 5774   4.832   1.544   3.118
 1923TIP3    H1 5775   4.854   1.589   3.199
 1923TIP3    H2 5776   4.901   1.571   3.057
 1924TIP3   OH2 5777   4.574   0.485   3.867
 1924TIP3    H1 5778   4.508   0.517   3.805
 1924TIP3    H2 5779   4.639   0.441   3.813
 1925TIP3   OH2 5780   4.269   3.681   3.438
 1925TIP3    H1 5781   4.340   3.643   3.491
 1925TIP3    H2 5782   4.314   3.736   3.375
 1926TIP3   OH2 5783   1.566   0.863   5.229
 1926TIP3    H1 5784   1.495   0.799   5.230
 1926TIP3    H2 5785   1.525   0.944   5.198
 1927TIP3   OH2 5786   4.045   5.427   1.033
 1927TIP3    H1 5787   4.116   5.440   1.096
 1927TIP3    H2 5788   4.088   5.397   0.953
 1928TIP3   OH2 5789   3.346   2.491   4.523
 1928TIP3    H1 5790   3.439   2.487   4.500
 1928TIP3    H2 5791   3.343   2.536   4.607
 1929TIP3   OH2 5792   5.607   3.150   0.466
 1929TIP3    H1 5793   5.653   3.230   0.490
 1929TIP3    H2 5794   5.571   3.168   0.380
 1930TIP3   OH2 5795   5.913   5.488   1.318
 1930TIP3    H1 5796   5.836   5.543   1.322
 1930TIP3    H2 5797   5.920   5.450   1.406
 1931TIP3   OH2 5798   5.150   4.494   5.165
 1931TIP3    H1 5799   5.198   4.554   5.109
 1931TIP3    H2 5800   5.175   4.406   5.135
 1932TIP3   OH2 5801   1.637   2.655   4.154
 1932TIP3    H1 5802   1.636   2.579   4.212
 1932TIP3    H2 5803   1.663   2.620   4.069
 1933TIP3   OH2 5804   3.021   4.614   1.981
 1933TIP3    H1 5805   2.971   4.664   1.917
 1933TIP3    H2 5806   3.061   4.680   2.038
 1934TIP3   OH2 5807   5.474   3.245   4.881
 1934TIP3    H1 5808   5.459   3.332   4.916
 1934TIP3    H2 5809   5.549   3.212   4.931
 1935TIP3   OH2 5810   2.380   4.972   1.961
 1935TIP3    H1 5811   2.427   4.898   2.000
 1935TIP3    H2 5812   2.289   4.944   1.958
 1936TIP3   OH2 5813   1.950   2.306   0.940
 1936TIP3    H1 5814   1.934   2.229   0.885
 1936TIP3    H2 5815   1.918   2.379   0.888
 1937TIP3   OH2 5816   4.616   1.331   2.290
 1937TIP3    H1 5817   4.525   1.358   2.276
 1937TIP3    H2 5818   4.613   1.235   2.283
 1938TIP3   OH2 5819   5.610   2.283   5.164
 1938TIP3    H1 5820   5.700   2.316   5.158
 1938TIP3    H2 5821   5.620   2.197   5.206
 1939TIP3   OH2 5822   2.444   3.085   0.926
 1939TIP3    H1 5823   2.436   3.181   0.927
 1939TIP3    H2 5824   2.510   3.066   0.994
 1940TIP3   OH2 5825   1.788   0.879   3.944
 1940TIP3    H1 5826   1.883   0.888   3.946
 1940TIP3    H2 5827   1.756   0.968   3.927
 1941TIP3   OH2 5828   3.466   3.424   3.919
 1941TIP3    H1 5829   3.423   3.417   3.834
 1941TIP3    H2 5830   3.553   3.386   3.906
 1942TIP3   OH2 5831   2.328   1.768   4.766
 1942TIP3    H1 5832   2.394   1.728   4.710
 1942TIP3    H2 5833   2.358   1.859   4.778
 1943TIP3   OH2 5834   0.597   2.748   1.912
 1943TIP3    H1 5835   0.596   2.685   1.985
 1943TIP3    H2 5836   0.594   2.833   1.955
 1944TIP3   OH2 5837   5.784   1.737   3.748
 1944TIP3    H1 5838   5.816   1.658   3.791
 1944TIP3    H2 5839   5.722   1.775   3.811
 1945TIP3   OH2 5840   1.582   5.570   0.146
 1945TIP3    H1 5841   1.646   5.526   0.202
 1945TIP3    H2 5842   1.628   5.648   0.113
 1946TIP3   OH2 5843   6.190   3.294   0.459
 1946TIP3    H1 5844   6.241   3.256   0.530
 1946TIP3    H2 5845   6.167   3.382   0.490
 1947TIP3   OH2 5846   5.226   1.339   2.782
 1947TIP3    H1 5847   5.260   1.421   2.819
 1947TIP3    H2 5848   5.133   1.340   2.802
 1948TIP3   OH2 5849   2.226   1.730   2.435
 1948TIP3    H1 5850   2.283   1.652   2.437
 1948TIP3    H2 5851   2.154   1.708   2.495
 1949TIP3   OH2 5852   5.513   0.052   2.980
 1949TIP3    H1 5853   5.560  -0.025   2.950
 1949TIP3    H2 5854   5.498   0.036   3.074
 1950TIP3   OH2 5855   0.078   0.194   4.998
 1950TIP3    H1 5856   0.039   0.153   4.922
 1950TIP3    H2 5857   0.120   0.273   4.964
 1951TIP3   OH2 5858   5.781   5.807   0.828
 1951TIP3    H1 5859   5.810   5.836   0.914
 1951TIP3    H2 5860   5.693   5.774   0.842
 1952TIP3   OH2 5861   0.252   5.166   1.228
 1952TIP3    H1 5862   0.223   5.161   1.137
 1952TIP3    H2 5863   0.347   5.155   1.223
 1953TIP3   OH2 5864   3.000   3.211   4.619
 1953TIP3    H1 5865   2.932   3.187   4.681
 1953TIP3    H2 5866   3.061   3.137   4.619
 1954TIP3   OH2 5867   6.273   5.736   0.179
 1954TIP3    H1 5868   6.365   5.762   0.169
 1954TIP3    H2 5869   6.254   5.751   0.272
 1955TIP3   OH2 5870   1.858   3.140   3.272
 1955TIP3    H1 5871   1.894   3.156   3.185
 1955TIP3    H2 5872   1.936   3.127   3.327
 1956TIP3   OH2 5873   2.033   1.491   4.109
 1956TIP3    H1 5874   1.992   1.513   4.025
 1956TIP3    H2 5875   2.017   1.397   4.120
 1957TIP3   OH2 5876   2.648   2.099   3.784
 1957TIP3    H1 5877   2.620   2.158   3.854
 1957TIP3    H2 5878   2.743   2.112   3.777
 1958TIP3   OH2 5879   0.893   1.875   3.068
 1958TIP3    H1 5880   0.908   1.813   2.997
 1958TIP3    H2 5881   0.809   1.916   3.047
 1959TIP3   OH2 5882   0.132   1.528   5.171
 1959TIP3    H1 5883   0.170   1.513   5.258
 1959TIP3    H2 5884   0.147   1.447   5.124
 1960TIP3   OH2 5885   2.319   1.338   3.106
 1960TIP3    H1 5886   2.249   1.281   3.137
 1960TIP3    H2 5887   2.395   1.313   3.158
 1961TIP3   OH2 5888   5.400   0.692   0.090
 1961TIP3    H1 5889   5.460   0.674   0.161
 1961TIP3    H2 5890   5.338   0.755   0.126
 1962TIP3   OH2 5891   2.916   5.536   4.990
 1962TIP3    H1 5892   2.879   5.623   5.005
 1962TIP3    H2 5893   2.864   5.477   5.044
 1963TIP3   OH2 5894   5.915   3.596   0.419
 1963TIP3    H1 5895   5.934   3.688   0.402
 1963TIP3    H2 5896   5.843   3.575   0.359
 1964TIP3   OH2 5897   1.192   1.145   3.187
 1964TIP3    H1 5898   1.181   1.138   3.092
 1964TIP3    H2 5899   1.127   1.209   3.215
 1965TIP3   OH2 5900   0.849   2.306   4.356
 1965TIP3    H1 5901   0.765   2.319   4.401
 1965TIP3    H2 5902   0.908   2.274   4.425
 1966TIP3   OH2 5903   5.650   1.158   3.550
 1966TIP3    H1 5904   5.627   1.123   3.463
 1966TIP3    H2 5905   5.570   1.147   3.601
 1967TIP3   OH2 5906   2.917   3.825   2.587
 1967TIP3    H1 5907   2.861   3.843   2.662
 1967TIP3    H2 5908   2.995   3.784   2.624
 1968TIP3   OH2 5909   2.525   3.412   3.629
 1968TIP3    H1 5910   2.476   3.330   3.629
 1968TIP3    H2 5911   2.593   3.400   3.562
 1969TIP3   OH2 5912   0.255   5.431   2.734
 1969TIP3    H1 5913   0.340   5.401   2.766
 1969TIP3    H2 5914   0.195   5.359   2.754
 1970TIP3   OH2 5915   3.826   0.655   4.342
 1970TIP3    H1 5916   3.830   0.748   4.366
 1970TIP3    H2 5917   3.762   0.617   4.402
 1971TIP3   OH2 5918   4.264   2.712   4.061
 1971TIP3    H1 5919   4.315   2.631   4.051
 1971TIP3    H2 5920   4.246   2.717   4.154
 1972TIP3   OH2 5921   1.607   1.561   0.091
 1972TIP3    H1 5922   1.639   1.473   0.110
 1972TIP3    H2 5923   1.588   1.598   0.177
 1973TIP3   OH2 5924   0.141   0.523   1.149
 1973TIP3    H1 5925   0.112   0.473   1.073
 1973TIP3    H2 5926   0.060   0.554   1.190
 1974TIP3   OH2 5927   3.966   0.032   0.883
 1974TIP3    H1 5928   3.934   0.120   0.904
 1974TIP3    H2 5929   3.954  -0.018   0.964
 1975TIP3   OH2 5930   4.845   1.722   1.353
 1975TIP3    H1 5931   4.837   1.810   1.314
 1975TIP3    H2 5932   4.783   1.669   1.304
 1976TIP3   OH2 5933   2.940   1.869   4.890
 1976TIP3    H1 5934   2.846   1.854   4.898
 1976TIP3    H2 5935   2.959   1.936   4.955
 1977TIP3   OH2 5936   4.195   5.634   1.791
 1977TIP3    H1 5937   4.142   5.709   1.765
 1977TIP3    H2 5938   4.285   5.665   1.786
 1978TIP3   OH2 5939   1.160   4.055   0.061
 1978TIP3    H1 5940   1.162   3.975   0.113
 1978TIP3    H2 5941   1.204   4.033  -0.020
 1979TIP3   OH2 5942   3.365   2.776   4.024
 1979TIP3    H1 5943   3.384   2.700   4.079
 1979TIP3    H2 5944   3.327   2.739   3.945
 1980TIP3   OH2 5945   4.282   4.487   0.638
 1980TIP3    H1 5946   4.211   4.509   0.577
 1980TIP3    H2 5947   4.346   4.557   0.628
 1981TIP3   OH2 5948   2.342   0.866   3.303
 1981TIP3    H1 5949   2.402   0.941   3.306
 1981TIP3    H2 5950   2.385   0.805   3.242
 1982TIP3   OH2 5951   1.408   1.453   4.368
 1982TIP3    H1 5952   1.385   1.497   4.450
 1982TIP3    H2 5953   1.431   1.364   4.395
 1983TIP3   OH2 5954   1.673   4.001   4.527
 1983TIP3    H1 5955   1.651   3.913   4.558
 1983TIP3    H2 5956   1.758   3.990   4.484
 1984TIP3   OH2 5957   1.402   0.282   1.659
 1984TIP3    H1 5958   1.375   0.210   1.716
 1984TIP3    H2 5959   1.476   0.322   1.703
 1985TIP3   OH2 5960   2.665   1.624   3.007
 1985TIP3    H1 5961   2.670   1.546   3.063
 1985TIP3    H2 5962   2.583   1.615   2.959
 1986TIP3   OH2 5963   4.718   5.966   0.297
 1986TIP3    H1 5964   4.785   5.912   0.255
 1986TIP3    H2 5965   4.764   6.015   0.364
 1987TIP3   OH2 5966   1.299   0.300   4.246
 1987TIP3    H1 5967   1.285   0.242   4.321
 1987TIP3    H2 5968   1.237   0.372   4.260
 1988TIP3   OH2 5969   1.866   3.129   1.001
 1988TIP3    H1 5970   1.955   3.100   0.979
 1988TIP3    H2 5971   1.822   3.137   0.917
 1989TIP3   OH2 5972   0.940   2.272   3.013
 1989TIP3    H1 5973   1.004   2.308   2.951
 1989TIP3    H2 5974   0.868   2.242   2.958
 1990TIP3   OH2 5975   4.171   4.902   2.307
 1990TIP3    H1 5976   4.077   4.882   2.307
 1990TIP3    H2 5977   4.180   4.974   2.245
 1991TIP3   OH2 5978   6.297   3.012   0.040
 1991TIP3    H1 5979   6.246   3.069   0.098
 1991TIP3    H2 5980   6.272   2.923   0.066
 1992TIP3   OH2 5981   1.124   2.221   0.394
 1992TIP3    H1 5982   1.117   2.260   0.481
 1992TIP3    H2 5983   1.035   2.224   0.359
 1993TIP3   OH2 5984   4.818   1.551   0.625
 1993TIP3    H1 5985   4.811   1.630   0.679
 1993TIP3    H2 5986   4.730   1.513   0.628
 1994TIP3   OH2 5987   3.291   3.241   2.575
 1994TIP3    H1 5988   3.362   3.260   2.636
 1994TIP3    H2 5989   3.319   3.162   2.529
 1995TIP3   OH2 5990   0.244   1.078   0.201
 1995TIP3    H1 5991   0.253   1.025   0.281
 1995TIP3    H2 5992   0.188   1.151   0.227
 1996TIP3   OH2 5993   0.378   4.209   5.093
 1996TIP3    H1 5994   0.348   4.134   5.145
 1996TIP3    H2 5995   0.456   4.177   5.048
 1997TIP3   OH2 5996   4.599   1.766   0.652
 1997TIP3    H1 5997   4.564   1.753   0.564
 1997TIP3    H2 5998   4.595   1.861   0.666
 1998TIP3   OH2 5999   6.336   1.939   4.258
 1998TIP3    H1 6000   6.305   1.894   4.180
 1998TIP3    H2 6001   6.384   1.871   4.307
 1999TIP3   OH2 6002   2.643   4.194   4.720
 1999TIP3    H1 6003   2.631   4.099   4.719
 1999TIP3    H2 6004   2.737   4.206   4.708
 2000TIP3   OH2 6005   3.662   3.593   3.341
 2000TIP3    H1 6006   3.646   3.629   3.254
 2000TIP3    H2 6007   3.724   3.654   3.380
 2001TIP3   OH2 6008   0.770   2.241   0.920
 2001TIP3    H1 6009   0.748   2.229   1.012
 2001TIP3    H2 6010   0.865   2.256   0.920
 2002TIP3   OH2 6011   0.146   4.915   0.111
 2002TIP3    H1 6012   0.239   4.924   0.094
 2002TIP3    H2 6013   0.141   4.867   0.194
 2003TIP3   OH2 6014   2.934   5.775   4.039
 2003TIP3    H1 6015   2.914   5.857   3.995
 2003TIP3    H2 6016   3.025   5.785   4.068
 2004TIP3   OH2 6017   3.543   1.158   1.308
 2004TIP3    H1 6018   3.490   1.091   1.352
 2004TIP3    H2 6019   3.508   1.241   1.340
 2005TIP3   OH2 6020   2.140   3.209   1.192
 2005TIP3    H1 6021   2.129   3.124   1.235
 2005TIP3    H2 6022   2.076   3.266   1.236
 2006TIP3   OH2 6023   3.719   4.432   2.218
 2006TIP3    H1 6024   3.768   4.470   2.292
 2006TIP3    H2 6025   3.781   4.372   2.177
 2007TIP3   OH2 6026   5.793   3.129   2.002
 2007TIP3    H1 6027   5.814   3.219   1.979
 2007TIP3    H2 6028   5.862   3.104   2.064
 2008TIP3   OH2 6029   2.531   1.761   3.716
 2008TIP3    H1 6030   2.621   1.795   3.723
 2008TIP3    H2 6031   2.538   1.670   3.743
 2009TIP3   OH2 6032   1.888   5.290   4.799
 2009TIP3    H1 6033   1.867   5.238   4.722
 2009TIP3    H2 6034   1.981   5.312   4.789
 2010TIP3   OH2 6035   3.328   3.008   3.875
 2010TIP3    H1 6036   3.297   3.085   3.923
 2010TIP3    H2 6037   3.340   2.941   3.942
 2011TIP3   OH2 6038   3.489   0.340   3.706
 2011TIP3    H1 6039   3.550   0.270   3.728
 2011TIP3    H2 6040   3.425   0.299   3.648
 2012TIP3   OH2 6041   3.026   4.783   4.293
 2012TIP3    H1 6042   3.057   4.693   4.303
 2012TIP3    H2 6043   3.064   4.831   4.366
 2013TIP3   OH2 6044   4.834   4.959   2.138
 2013TIP3    H1 6045   4.878   4.875   2.149
 2013TIP3    H2 6046   4.794   4.977   2.223
 2014TIP3   OH2 6047   4.671   3.322   2.283
 2014TIP3    H1 6048   4.763   3.315   2.310
 2014TIP3    H2 6049   4.665   3.266   2.206
 2015TIP3   OH2 6050   6.225   0.142   3.221
 2015TIP3    H1 6051   6.271   0.224   3.238
 2015TIP3    H2 6052   6.276   0.099   3.152
 2016TIP3   OH2 6053   3.442   1.065   2.510
 2016TIP3    H1 6054   3.518   1.120   2.492
 2016TIP3    H2 6055   3.371   1.127   2.527
 2017TIP3   OH2 6056   5.490   5.031   3.254
 2017TIP3    H1 6057   5.396   5.020   3.266
 2017TIP3    H2 6058   5.499   5.059   3.163
 2018TIP3   OH2 6059   1.231   3.428   4.451
 2018TIP3    H1 6060   1.155   3.483   4.429
 2018TIP3    H2 6061   1.306   3.478   4.419
 2019TIP3   OH2 6062   2.825   2.665   1.798
 2019TIP3    H1 6063   2.737   2.686   1.829
 2019TIP3    H2 6064   2.864   2.615   1.870
 2020TIP3   OH2 6065   3.842   2.219   1.368
 2020TIP3    H1 6066   3.751   2.194   1.350
 2020TIP3    H2 6067   3.836   2.298   1.422
 2021TIP3   OH2 6068   4.591   0.384   4.211
 2021TIP3    H1 6069   4.540   0.463   4.231
 2021TIP3    H2 6070   4.555   0.353   4.128
 2022TIP3   OH2 6071   4.982   1.564   5.019
 2022TIP3    H1 6072   4.944   1.647   5.046
 2022TIP3    H2 6073   5.015   1.580   4.931
 2023TIP3   OH2 6074   1.557   0.998   0.179
 2023TIP3    H1 6075   1.578   0.943   0.104
 2023TIP3    H2 6076   1.604   0.958   0.252
 2024TIP3   OH2 6077   1.714   0.239   4.638
 2024TIP3    H1 6078   1.795   0.258   4.590
 2024TIP3    H2 6079   1.645   0.268   4.579
 2025TIP3   OH2 6080   3.119   5.948   2.586
 2025TIP3    H1 6081   3.121   5.955   2.682
 2025TIP3    H2 6082   3.087   6.033   2.557
 2026TIP3   OH2 6083   5.599   2.637   4.044
 2026TIP3    H1 6084   5.623   2.714   4.096
 2026TIP3    H2 6085   5.623   2.563   4.100
 2027TIP3   OH2 6086   0.665   0.737   3.661
 2027TIP3    H1 6087   0.602   0.737   3.588
 2027TIP3    H2 6088   0.729   0.670   3.638
 2028TIP3   OH2 6089   0.466   3.415   1.069
 2028TIP3    H1 6090   0.417   3.411   0.988
 2028TIP3    H2 6091   0.499   3.325   1.081
 2029TIP3   OH2 6092   2.494   2.909   3.740
 2029TIP3    H1 6093   2.444   2.853   3.682
 2029TIP3    H2 6094   2.576   2.926   3.692
 2030TIP3   OH2 6095   6.098   5.570   4.776
 2030TIP3    H1 6096   6.005   5.588   4.766
 2030TIP3    H2 6097   6.141   5.652   4.753
 2031TIP3   OH2 6098   3.337   2.572   4.812
 2031TIP3    H1 6099   3.253   2.559   4.858
 2031TIP3    H2 6100   3.349   2.667   4.809
 2032TIP3   OH2 6101   3.752   3.998   3.371
 2032TIP3    H1 6102   3.701   4.021   3.449
 2032TIP3    H2 6103   3.792   3.914   3.392
 2033TIP3   OH2 6104   4.716   0.776   0.494
 2033TIP3    H1 6105   4.761   0.856   0.523
 2033TIP3    H2 6106   4.767   0.745   0.420
 2034TIP3   OH2 6107   5.378   0.435   3.874
 2034TIP3    H1 6108   5.368   0.340   3.872
 2034TIP3    H2 6109   5.462   0.451   3.830
 2035TIP3   OH2 6110   5.873   1.491   3.820
 2035TIP3    H1 6111   5.896   1.427   3.888
 2035TIP3    H2 6112   5.867   1.440   3.740
 2036TIP3   OH2 6113   5.415   4.618   2.225
 2036TIP3    H1 6114   5.509   4.601   2.236
 2036TIP3    H2 6115   5.399   4.697   2.278
 2037TIP3   OH2 6116   6.190   3.747   1.728
 2037TIP3    H1 6117   6.099   3.717   1.731
 2037TIP3    H2 6118   6.228   3.715   1.810
 2038TIP3   OH2 6119   1.232   2.385   3.229
 2038TIP3    H1 6120   1.246   2.480   3.220
 2038TIP3    H2 6121   1.151   2.377   3.279
 2039TIP3   OH2 6122   4.112   5.337   0.790
 2039TIP3    H1 6123   4.058   5.312   0.715
 2039TIP3    H2 6124   4.169   5.405   0.756
 2040TIP3   OH2 6125   6.273   2.565   2.403
 2040TIP3    H1 6126   6.357   2.609   2.388
 2040TIP3    H2 6127   6.281   2.525   2.489
 2041TIP3   OH2 6128   1.649   3.917   3.464
 2041TIP3    H1 6129   1.684   3.833   3.494
 2041TIP3    H2 6130   1.640   3.969   3.543
 2042TIP3   OH2 6131   6.055   5.610   1.781
 2042TIP3    H1 6132   6.010   5.676   1.834
 2042TIP3    H2 6133   6.125   5.658   1.737
 2043TIP3   OH2 6134   3.110   3.331   1.611
 2043TIP3    H1 6135   3.120   3.238   1.629
 2043TIP3    H2 6136   3.128   3.340   1.517
 2044TIP3   OH2 6137   4.018   0.194   2.266
 2044TIP3    H1 6138   4.094   0.202   2.323
 2044TIP3    H2 6139   3.943   0.214   2.322
 2045TIP3   OH2 6140   2.654   3.783   1.008
 2045TIP3    H1 6141   2.724   3.773   0.944
 2045TIP3    H2 6142   2.672   3.866   1.052
 2046TIP3   OH2 6143   1.469   3.590   4.837
 2046TIP3    H1 6144   1.486   3.496   4.835
 2046TIP3    H2 6145   1.441   3.609   4.926
 2047TIP3   OH2 6146   4.684   3.822   0.648
 2047TIP3    H1 6147   4.621   3.775   0.593
 2047TIP3    H2 6148   4.655   3.913   0.645
 2048TIP3   OH2 6149   5.425   4.463   1.447
 2048TIP3    H1 6150   5.478   4.448   1.525
 2048TIP3    H2 6151   5.445   4.389   1.389
 2049TIP3   OH2 6152   0.019   4.216   4.808
 2049TIP3    H1 6153  -0.032   4.136   4.796
 2049TIP3    H2 6154   0.027   4.253   4.720
 2050TIP3   OH2 6155   5.185   5.808   1.501
 2050TIP3    H1 6156   5.213   5.773   1.416
 2050TIP3    H2 6157   5.169   5.901   1.485
 2051TIP3   OH2 6158   2.042   4.921   2.990
 2051TIP3    H1 6159   2.100   4.996   3.005
 2051TIP3    H2 6160   2.091   4.846   3.022
 2052TIP3   OH2 6161   1.324   4.478   4.298
 2052TIP3    H1 6162   1.283   4.545   4.353
 2052TIP3    H2 6163   1.268   4.400   4.310
 2053TIP3   OH2 6164   0.889   1.702   4.864
 2053TIP3    H1 6165   0.949   1.683   4.936
 2053TIP3    H2 6166   0.807   1.659   4.889
 2054TIP3   OH2 6167   0.861   1.477   1.373
 2054TIP3    H1 6168   0.811   1.527   1.438
 2054TIP3    H2 6169   0.946   1.464   1.414
 2055TIP3   OH2 6170   3.724   0.963   0.540
 2055TIP3    H1 6171   3.793   0.993   0.599
 2055TIP3    H2 6172   3.653   1.026   0.551
 2056TIP3   OH2 6173   2.761   5.522   4.664
 2056TIP3    H1 6174   2.741   5.429   4.648
 2056TIP3    H2 6175   2.696   5.549   4.729
 2057TIP3   OH2 6176   6.130   3.169   1.114
 2057TIP3    H1 6177   6.131   3.157   1.019
 2057TIP3    H2 6178   6.205   3.227   1.131
 2058TIP3   OH2 6179   5.443   4.755   2.785
 2058TIP3    H1 6180   5.398   4.673   2.766
 2058TIP3    H2 6181   5.444   4.802   2.702
 2059TIP3   OH2 6182   1.451   3.290   2.907
 2059TIP3    H1 6183   1.364   3.314   2.875
 2059TIP3    H2 6184   1.504   3.280   2.828
 2060TIP3   OH2 6185   2.466   3.055   4.585
 2060TIP3    H1 6186   2.426   2.973   4.557
 2060TIP3    H2 6187   2.470   3.049   4.680
 2061TIP3   OH2 6188   2.860   1.194   4.623
 2061TIP3    H1 6189   2.934   1.171   4.566
 2061TIP3    H2 6190   2.835   1.282   4.596
 2062TIP3   OH2 6191   3.828   5.473   2.883
 2062TIP3    H1 6192   3.747   5.465   2.934
 2062TIP3    H2 6193   3.801   5.521   2.804
 2063TIP3   OH2 6194   4.653   4.088   0.697
 2063TIP3    H1 6195   4.603   4.150   0.644
 2063TIP3    H2 6196   4.744   4.116   0.689
 2064TIP3   OH2 6197   4.524   0.812   3.411
 2064TIP3    H1 6198   4.446   0.757   3.420
 2064TIP3    H2 6199   4.596   0.751   3.401
 2065TIP3   OH2 6200   3.196   0.509   0.195
 2065TIP3    H1 6201   3.224   0.513   0.286
 2065TIP3    H2 6202   3.212   0.418   0.169
 2066TIP3   OH2 6203   2.092   0.289   4.973
 2066TIP3    H1 6204   2.111   0.288   5.067
 2066TIP3    H2 6205   2.016   0.232   4.963
 2067TIP3   OH2 6206   3.495   3.333   2.277
 2067TIP3    H1 6207   3.475   3.419   2.313
 2067TIP3    H2 6208   3.466   3.271   2.345
 2068TIP3   OH2 6209   5.057   1.142   4.433
 2068TIP3    H1 6210   5.040   1.057   4.394
 2068TIP3    H2 6211   4.972   1.185   4.438
 2069TIP3   OH2 6212   2.167   1.726   3.819
 2069TIP3    H1 6213   2.212   1.756   3.898
 2069TIP3    H2 6214   2.089   1.781   3.813
 2070TIP3   OH2 6215   2.073   1.582   0.208
 2070TIP3    H1 6216   2.021   1.519   0.159
 2070TIP3    H2 6217   2.012   1.621   0.271
 2071TIP3   OH2 6218   5.479   1.754   4.431
 2071TIP3    H1 6219   5.436   1.835   4.460
 2071TIP3    H2 6220   5.572   1.774   4.434
 2072TIP3   OH2 6221   2.123   5.783   3.348
 2072TIP3    H1 6222   2.156   5.738   3.271
 2072TIP3    H2 6223   2.036   5.746   3.362
 2073TIP3   OH2 6224   2.097   2.988   0.953
 2073TIP3    H1 6225   2.171   2.937   0.988
 2073TIP3    H2 6226   2.051   2.926   0.895
 2074TIP3   OH2 6227   4.572   5.169   0.942
 2074TIP3    H1 6228   4.567   5.151   0.848
 2074TIP3    H2 6229   4.611   5.090   0.979
 2075TIP3   OH2 6230   2.945   5.457   1.387
 2075TIP3    H1 6231   2.870   5.453   1.447
 2075TIP3    H2 6232   2.947   5.548   1.358
 2076TIP3   OH2 6233   5.401   0.675   2.227
 2076TIP3    H1 6234   5.438   0.666   2.139
 2076TIP3    H2 6235   5.477   0.687   2.284
 2077TIP3   OH2 6236   5.320   2.598   1.805
 2077TIP3    H1 6237   5.264   2.657   1.754
 2077TIP3    H2 6238   5.384   2.656   1.846
 2078TIP3   OH2 6239   6.200   4.948   4.478
 2078TIP3    H1 6240   6.192   4.984   4.389
 2078TIP3    H2 6241   6.191   5.024   4.535
 2079TIP3   OH2 6242   0.075   4.027   0.450
 2079TIP3    H1 6243   0.012   4.089   0.488
 2079TIP3    H2 6244   0.148   4.082   0.422
 2080TIP3   OH2 6245   2.068   4.310   0.491
 2080TIP3    H1 6246   2.111   4.304   0.576
 2080TIP3    H2 6247   2.076   4.403   0.467
 2081TIP3   OH2 6248   5.223   0.466   4.145
 2081TIP3    H1 6249   5.150   0.512   4.185
 2081TIP3    H2 6250   5.286   0.454   4.216
 2082TIP3   OH2 6251   3.352   5.360   1.263
 2082TIP3    H1 6252   3.402   5.440   1.244
 2082TIP3    H2 6253   3.359   5.308   1.182
 2083TIP3   OH2 6254   3.410   0.577   3.809
 2083TIP3    H1 6255   3.367   0.614   3.732
 2083TIP3    H2 6256   3.435   0.489   3.782
 2084TIP3   OH2 6257   4.173   2.856   0.659
 2084TIP3    H1 6258   4.111   2.793   0.624
 2084TIP3    H2 6259   4.165   2.848   0.754
 2085TIP3   OH2 6260   4.508   2.792   1.025
 2085TIP3    H1 6261   4.482   2.882   1.047
 2085TIP3    H2 6262   4.471   2.739   1.095
 2086TIP3   OH2 6263   2.561   2.412   0.705
 2086TIP3    H1 6264   2.557   2.482   0.639
 2086TIP3    H2 6265   2.618   2.448   0.774
 2087TIP3   OH2 6266   2.481   0.315   3.686
 2087TIP3    H1 6267   2.439   0.400   3.677
 2087TIP3    H2 6268   2.411   0.252   3.673
 2088TIP3   OH2 6269   4.780   1.798   1.707
 2088TIP3    H1 6270   4.755   1.848   1.629
 2088TIP3    H2 6271   4.862   1.755   1.682
 2089TIP3   OH2 6272   3.738   5.754   4.116
 2089TIP3    H1 6273   3.698   5.670   4.090
 2089TIP3    H2 6274   3.676   5.820   4.084
 2090TIP3   OH2 6275   0.394   2.765   3.356
 2090TIP3    H1 6276   0.352   2.705   3.417
 2090TIP3    H2 6277   0.376   2.729   3.270
 2091TIP3   OH2 6278   3.264   3.777   2.138
 2091TIP3    H1 6279   3.359   3.787   2.151
 2091TIP3    H2 6280   3.252   3.791   2.044
 2092TIP3   OH2 6281   0.247   5.513   4.750
 2092TIP3    H1 6282   0.187   5.570   4.799
 2092TIP3    H2 6283   0.331   5.559   4.755
 2093TIP3   OH2 6284   3.709   0.172   3.044
 2093TIP3    H1 6285   3.782   0.164   2.983
 2093TIP3    H2 6286   3.750   0.178   3.130
 2094TIP3   OH2 6287   6.089   1.667   0.446
 2094TIP3    H1 6288   6.025   1.734   0.422
 2094TIP3    H2 6289   6.086   1.604   0.374
 2095TIP3   OH2 6290   2.683   2.563   0.106
 2095TIP3    H1 6291   2.755   2.515   0.148
 2095TIP3    H2 6292   2.624   2.585   0.177
 2096TIP3   OH2 6293   1.202   3.896   3.785
 2096TIP3    H1 6294   1.283   3.848   3.767
 2096TIP3    H2 6295   1.166   3.917   3.699
 2097TIP3   OH2 6296   3.159   0.371   3.400
 2097TIP3    H1 6297   3.223   0.302   3.418
 2097TIP3    H2 6298   3.163   0.383   3.305
 2098TIP3   OH2 6299   2.070   0.844   3.285
 2098TIP3    H1 6300   2.044   0.799   3.364
 2098TIP3    H2 6301   2.162   0.867   3.299
 2099TIP3   OH2 6302   2.892   3.475   4.525
 2099TIP3    H1 6303   2.951   3.409   4.562
 2099TIP3    H2 6304   2.822   3.424   4.485
 2100TIP3   OH2 6305   0.637   4.136   4.322
 2100TIP3    H1 6306   0.690   4.097   4.253
 2100TIP3    H2 6307   0.619   4.064   4.383
 2101TIP3   OH2 6308   3.927   5.826   3.394
 2101TIP3    H1 6309   3.994   5.800   3.457
 2101TIP3    H2 6310   3.964   5.902   3.349
 2102TIP3   OH2 6311   6.300   4.970   0.583
 2102TIP3    H1 6312   6.257   4.952   0.500
 2102TIP3    H2 6313   6.258   5.049   0.615
 2103TIP3   OH2 6314   1.433   2.768   4.943
 2103TIP3    H1 6315   1.354   2.807   4.980
 2103TIP3    H2 6316   1.474   2.722   5.016
 2104TIP3   OH2 6317   4.475   3.972   2.341
 2104TIP3    H1 6318   4.414   4.046   2.343
 2104TIP3    H2 6319   4.435   3.906   2.398
 2105TIP3   OH2 6320   5.446   2.670   1.353
 2105TIP3    H1 6321   5.492   2.724   1.289
 2105TIP3    H2 6322   5.516   2.625   1.401
 2106TIP3   OH2 6323   2.518   5.340   2.063
 2106TIP3    H1 6324   2.597   5.391   2.078
 2106TIP3    H2 6325   2.466   5.353   2.142
 2107TIP3   OH2 6326   5.003   3.084   1.078
 2107TIP3    H1 6327   4.982   3.176   1.067
 2107TIP3    H2 6328   4.922   3.044   1.111
 2108TIP3   OH2 6329   3.387   2.341   2.799
 2108TIP3    H1 6330   3.311   2.298   2.758
 2108TIP3    H2 6331   3.461   2.314   2.745
 2109TIP3   OH2 6332   2.652   2.059   4.146
 2109TIP3    H1 6333   2.715   2.099   4.206
 2109TIP3    H2 6334   2.623   2.131   4.090
 2110TIP3   OH2 6335   3.700   4.816   0.698
 2110TIP3    H1 6336   3.735   4.900   0.727
 2110TIP3    H2 6337   3.764   4.782   0.636
 2111TIP3   OH2 6338   2.391   4.249   4.793
 2111TIP3    H1 6339   2.479   4.228   4.761
 2111TIP3    H2 6340   2.362   4.321   4.738
 2112TIP3   OH2 6341   3.653   4.123   3.590
 2112TIP3    H1 6342   3.659   4.216   3.567
 2112TIP3    H2 6343   3.678   4.119   3.682
 2113TIP3   OH2 6344   1.924   3.053   3.650
 2113TIP3    H1 6345   1.967   3.058   3.564
 2113TIP3    H2 6346   1.937   3.140   3.688
 2114TIP3   OH2 6347   3.345   2.601   2.212
 2114TIP3    H1 6348   3.345   2.633   2.302
 2114TIP3    H2 6349   3.390   2.517   2.217
 2115TIP3   OH2 6350   0.243   0.841   4.205
 2115TIP3    H1 6351   0.198   0.870   4.284
 2115TIP3    H2 6352   0.197   0.761   4.179
 2116TIP3   OH2 6353   0.986   4.412   1.158
 2116TIP3    H1 6354   0.975   4.506   1.139
 2116TIP3    H2 6355   0.906   4.387   1.204
 2117TIP3   OH2 6356   6.300   3.995   2.812
 2117TIP3    H1 6357   6.374   4.054   2.826
 2117TIP3    H2 6358   6.252   4.034   2.739
 2118TIP3   OH2 6359   1.691   3.579   4.326
 2118TIP3    H1 6360   1.739   3.609   4.248
 2118TIP3    H2 6361   1.749   3.515   4.367
 2119TIP3   OH2 6362   5.341   5.467   4.334
 2119TIP3    H1 6363   5.420   5.422   4.361
 2119TIP3    H2 6364   5.270   5.421   4.380
 2120TIP3   OH2 6365   3.086   2.140   1.243
 2120TIP3    H1 6366   3.039   2.181   1.171
 2120TIP3    H2 6367   3.077   2.046   1.227
 2121TIP3   OH2 6368   1.288   5.270   1.330
 2121TIP3    H1 6369   1.230   5.220   1.273
 2121TIP3    H2 6370   1.249   5.357   1.334
 2122TIP3   OH2 6371   1.654   2.981   3.648
 2122TIP3    H1 6372   1.663   2.922   3.723
 2122TIP3    H2 6373   1.744   3.013   3.633
 2123TIP3   OH2 6374   4.532   5.167   2.878
 2123TIP3    H1 6375   4.510   5.185   2.969
 2123TIP3    H2 6376   4.451   5.184   2.830
 2124TIP3   OH2 6377   1.161   4.396   2.544
 2124TIP3    H1 6378   1.103   4.459   2.500
 2124TIP3    H2 6379   1.246   4.441   2.547
 2125TIP3   OH2 6380   2.662   3.179   0.443
 2125TIP3    H1 6381   2.614   3.105   0.480
 2125TIP3    H2 6382   2.607   3.255   0.463
 2126TIP3   OH2 6383   1.803   2.103   3.607
 2126TIP3    H1 6384   1.853   2.178   3.575
 2126TIP3    H2 6385   1.739   2.141   3.667
 2127TIP3   OH2 6386   2.768   1.110   1.425
 2127TIP3    H1 6387   2.677   1.110   1.397
 2127TIP3    H2 6388   2.813   1.167   1.361
 2128TIP3   OH2 6389   2.591   2.217   2.297
 2128TIP3    H1 6390   2.630   2.160   2.363
 2128TIP3    H2 6391   2.563   2.157   2.228
 2129TIP3   OH2 6392   5.489   0.356   2.165
 2129TIP3    H1 6393   5.396   0.374   2.148
 2129TIP3    H2 6394   5.523   0.327   2.080
 2130TIP3   OH2 6395   3.096   2.023   1.904
 2130TIP3    H1 6396   3.180   2.004   1.945
 2130TIP3    H2 6397   3.081   2.116   1.921
 2131TIP3   OH2 6398   0.576   1.341   4.628
 2131TIP3    H1 6399   0.572   1.263   4.573
 2131TIP3    H2 6400   0.486   1.354   4.659
 2132TIP3   OH2 6401   5.443   2.194   3.525
 2132TIP3    H1 6402   5.515   2.158   3.577
 2132TIP3    H2 6403   5.484   2.220   3.442
 2133TIP3   OH2 6404   1.602   5.604   2.438
 2133TIP3    H1 6405   1.628   5.512   2.440
 2133TIP3    H2 6406   1.677   5.649   2.398
 2134TIP3   OH2 6407   4.027   1.620   3.010
 2134TIP3    H1 6408   4.053   1.542   3.060
 2134TIP3    H2 6409   4.066   1.607   2.924
 2135TIP3   OH2 6410   3.316   0.228   3.960
 2135TIP3    H1 6411   3.324   0.304   3.903
 2135TIP3    H2 6412   3.300   0.155   3.900
 2136TIP3   OH2 6413   3.005   5.795   0.129
 2136TIP3    H1 6414   3.047   5.803   0.044
 2136TIP3    H2 6415   3.064   5.741   0.181
 2137TIP3   OH2 6416   6.016   0.046   4.189
 2137TIP3    H1 6417   5.957  -0.022   4.156
 2137TIP3    H2 6418   6.018   0.111   4.119
 2138TIP3   OH2 6419   2.606   0.726   2.141
 2138TIP3    H1 6420   2.564   0.657   2.089
 2138TIP3    H2 6421   2.586   0.703   2.232
 2139TIP3   OH2 6422   2.138   5.121   3.648
 2139TIP3    H1 6423   2.066   5.171   3.609
 2139TIP3    H2 6424   2.141   5.150   3.740
 2140TIP3   OH2 6425   5.816   1.913   1.214
 2140TIP3    H1 6426   5.802   1.955   1.298
 2140TIP3    H2 6427   5.753   1.955   1.155
 2141TIP3   OH2 6428   1.771   3.602   4.033
 2141TIP3    H1 6429   1.685   3.568   4.008
 2141TIP3    H2 6430   1.829   3.526   4.033
 2142TIP3   OH2 6431   6.128   3.979   0.918
 2142TIP3    H1 6432   6.147   3.885   0.914
 2142TIP3    H2 6433   6.099   4.001   0.829
 2143TIP3   OH2 6434   1.085   2.313   1.757
 2143TIP3    H1 6435   1.016   2.315   1.690
 2143TIP3    H2 6436   1.110   2.221   1.763
 2144TIP3   OH2 6437   3.716   3.344   2.068
 2144TIP3    H1 6438   3.648   3.311   2.127
 2144TIP3    H2 6439   3.667   3.378   1.993
 2145TIP3   OH2 6440   5.448   1.660   1.155
 2145TIP3    H1 6441   5.414   1.734   1.104
 2145TIP3    H2 6442   5.470   1.699   1.240
 2146TIP3   OH2 6443   1.474   0.627   3.178
 2146TIP3    H1 6444   1.429   0.697   3.131
 2146TIP3    H2 6445   1.442   0.547   3.138
 2147TIP3   OH2 6446   0.165   1.067   4.981
 2147TIP3    H1 6447   0.214   1.060   5.063
 2147TIP3    H2 6448   0.226   1.107   4.920
 2148TIP3   OH2 6449   6.016   4.837   4.683
 2148TIP3    H1 6450   6.065   4.840   4.601
 2148TIP3    H2 6451   6.070   4.885   4.745
 2149TIP3   OH2 6452   5.939   3.310   4.743
 2149TIP3    H1 6453   5.918   3.250   4.671
 2149TIP3    H2 6454   5.869   3.375   4.741
 2150TIP3   OH2 6455   0.112   5.186   4.388
 2150TIP3    H1 6456   0.101   5.167   4.294
 2150TIP3    H2 6457   0.155   5.272   4.390
 2151TIP3   OH2 6458   4.359   3.411   2.222
 2151TIP3    H1 6459   4.433   3.470   2.234
 2151TIP3    H2 6460   4.284   3.469   2.205
 2152TIP3   OH2 6461   3.431   1.773   4.624
 2152TIP3    H1 6462   3.365   1.713   4.588
 2152TIP3    H2 6463   3.446   1.741   4.713
 2153TIP3   OH2 6464   5.446   2.213   3.175
 2153TIP3    H1 6465   5.443   2.292   3.229
 2153TIP3    H2 6466   5.528   2.171   3.199
 2154TIP3   OH2 6467   6.045   3.688   2.045
 2154TIP3    H1 6468   6.074   3.743   2.118
 2154TIP3    H2 6469   6.124   3.672   1.994
 2155TIP3   OH2 6470   5.733   5.104   1.413
 2155TIP3    H1 6471   5.818   5.063   1.396
 2155TIP3    H2 6472   5.706   5.140   1.328
 2156TIP3   OH2 6473   0.060   5.230   2.713
 2156TIP3    H1 6474  -0.026   5.219   2.671
 2156TIP3    H2 6475   0.079   5.144   2.752
 2157TIP3   OH2 6476   2.692   5.574   4.208
 2157TIP3    H1 6477   2.631   5.649   4.206
 2157TIP3    H2 6478   2.730   5.573   4.120
 2158TIP3   OH2 6479   0.295   3.630   2.525
 2158TIP3    H1 6480   0.338   3.668   2.448
 2158TIP3    H2 6481   0.233   3.567   2.489
 2159TIP3   OH2 6482   0.799   0.782   0.478
 2159TIP3    H1 6483   0.851   0.746   0.406
 2159TIP3    H2 6484   0.835   0.743   0.557
 2160TIP3   OH2 6485   4.356   0.083   4.638
 2160TIP3    H1 6486   4.365   0.120   4.725
 2160TIP3    H2 6487   4.400   0.146   4.580
 2161TIP3   OH2 6488   1.728   2.288   3.789
 2161TIP3    H1 6489   1.782   2.264   3.865
 2161TIP3    H2 6490   1.638   2.281   3.821
 2162TIP3   OH2 6491   4.655   1.850   1.936
 2162TIP3    H1 6492   4.579   1.878   1.885
 2162TIP3    H2 6493   4.720   1.826   1.872
 2163TIP3   OH2 6494   2.260   1.276   0.109
 2163TIP3    H1 6495   2.208   1.312   0.180
 2163TIP3    H2 6496   2.229   1.186   0.099
 2164TIP3   OH2 6497   0.500   4.337   3.231
 2164TIP3    H1 6498   0.407   4.354   3.248
 2164TIP3    H2 6499   0.503   4.302   3.142
 2165TIP3   OH2 6500   3.128   0.256   4.335
 2165TIP3    H1 6501   3.217   0.276   4.363
 2165TIP3    H2 6502   3.107   0.324   4.271
 2166TIP3   OH2 6503   1.123   1.279   4.928
 2166TIP3    H1 6504   1.133   1.291   5.022
 2166TIP3    H2 6505   1.186   1.339   4.889
 2167TIP3   OH2 6506   0.702   0.405  -0.034
 2167TIP3    H1 6507   0.675   0.489   0.002
 2167TIP3    H2 6508   0.705   0.346   0.041
 2168TIP3   OH2 6509   2.771   5.357   5.123
 2168TIP3    H1 6510   2.714   5.395   5.189
 2168TIP3    H2 6511   2.842   5.317   5.173
 2169TIP3   OH2 6512   2.860   1.842   4.418
 2169TIP3    H1 6513   2.941   1.885   4.389
 2169TIP3    H2 6514   2.792   1.909   4.405
 2170TIP3   OH2 6515   1.807   3.694   3.433
 2170TIP3    H1 6516   1.736   3.635   3.407
 2170TIP3    H2 6517   1.853   3.715   3.352
 2171TIP3   OH2 6518   5.031   2.984   0.191
 2171TIP3    H1 6519   4.974   3.061   0.195
 2171TIP3    H2 6520   5.063   2.984   0.101
 2172TIP3   OH2 6521   3.201   3.012   3.018
 2172TIP3    H1 6522   3.109   3.037   3.007
 2172TIP3    H2 6523   3.239   3.018   2.931
 2173TIP3   OH2 6524   0.422   1.667   4.332
 2173TIP3    H1 6525   0.414   1.610   4.256
 2173TIP3    H2 6526   0.466   1.746   4.300
 2174TIP3   OH2 6527   5.601   4.030   0.212
 2174TIP3    H1 6528   5.596   3.938   0.237
 2174TIP3    H2 6529   5.622   4.029   0.119
 2175TIP3   OH2 6530   0.623   5.025   0.243
 2175TIP3    H1 6531   0.679   4.977   0.183
 2175TIP3    H2 6532   0.649   5.117   0.231
 2176TIP3   OH2 6533   0.555   2.704   1.031
 2176TIP3    H1 6534   0.543   2.719   0.937
 2176TIP3    H2 6535   0.487   2.641   1.054
 2177TIP3   OH2 6536   0.549   0.085   3.051
 2177TIP3    H1 6537   0.571   0.027   3.124
 2177TIP3    H2 6538   0.605   0.055   2.979
 2178TIP3   OH2 6539   5.098   5.366   4.174
 2178TIP3    H1 6540   5.043   5.432   4.131
 2178TIP3    H2 6541   5.167   5.347   4.111
 2179TIP3   OH2 6542   5.077   5.510   1.943
 2179TIP3    H1 6543   5.042   5.491   2.030
 2179TIP3    H2 6544   5.014   5.471   1.883
 2180TIP3   OH2 6545   3.703   1.542   0.557
 2180TIP3    H1 6546   3.785   1.591   0.556
 2180TIP3    H2 6547   3.666   1.559   0.643
 2181TIP3   OH2 6548   0.014   4.139   5.090
 2181TIP3    H1 6549  -0.017   4.049   5.092
 2181TIP3    H2 6550   0.020   4.160   4.997
 2182TIP3   OH2 6551   0.527   1.294   1.499
 2182TIP3    H1 6552   0.463   1.361   1.474
 2182TIP3    H2 6553   0.478   1.212   1.498
 2183TIP3   OH2 6554   0.762   3.655   0.225
 2183TIP3    H1 6555   0.703   3.724   0.196
 2183TIP3    H2 6556   0.750   3.651   0.320
 2184TIP3   OH2 6557   4.965   3.181   1.690
 2184TIP3    H1 6558   5.008   3.188   1.605
 2184TIP3    H2 6559   4.902   3.252   1.691
 2185TIP3   OH2 6560   1.738   0.244   2.128
 2185TIP3    H1 6561   1.690   0.321   2.098
 2185TIP3    H2 6562   1.829   0.273   2.134
 2186TIP3   OH2 6563   4.087   2.294   2.970
 2186TIP3    H1 6564   4.095   2.229   3.040
 2186TIP3    H2 6565   4.177   2.304   2.937
 2187TIP3   OH2 6566   5.704   0.451   4.860
 2187TIP3    H1 6567   5.774   0.510   4.830
 2187TIP3    H2 6568   5.698   0.384   4.791
 2188TIP3   OH2 6569   1.669   4.186   1.282
 2188TIP3    H1 6570   1.663   4.192   1.187
 2188TIP3    H2 6571   1.654   4.276   1.312
 2189TIP3   OH2 6572   1.095   1.271   2.115
 2189TIP3    H1 6573   1.132   1.263   2.027
 2189TIP3    H2 6574   1.163   1.239   2.173
 2190TIP3   OH2 6575   4.170   4.344   2.532
 2190TIP3    H1 6576   4.119   4.284   2.586
 2190TIP3    H2 6577   4.133   4.430   2.549
 2191TIP3   OH2 6578   2.089   2.707   3.202
 2191TIP3    H1 6579   2.008   2.664   3.174
 2191TIP3    H2 6580   2.075   2.726   3.295
 2192TIP3   OH2 6581   2.754   2.095   2.046
 2192TIP3    H1 6582   2.807   2.116   2.123
 2192TIP3    H2 6583   2.764   2.172   1.989
 2193TIP3   OH2 6584   3.586   0.569   1.736
 2193TIP3    H1 6585   3.547   0.654   1.716
 2193TIP3    H2 6586   3.621   0.539   1.652
 2194TIP3   OH2 6587   2.978   1.707   4.624
 2194TIP3    H1 6588   3.009   1.760   4.698
 2194TIP3    H2 6589   2.925   1.767   4.572
 2195TIP3   OH2 6590   5.340   3.378   4.476
 2195TIP3    H1 6591   5.313   3.379   4.568
 2195TIP3    H2 6592   5.398   3.303   4.469
 2196TIP3   OH2 6593   5.782   2.272   1.247
 2196TIP3    H1 6594   5.735   2.190   1.231
 2196TIP3    H2 6595   5.805   2.269   1.340
 2197TIP3   OH2 6596   3.441   4.803   3.172
 2197TIP3    H1 6597   3.471   4.739   3.237
 2197TIP3    H2 6598   3.512   4.866   3.164
 2198TIP3   OH2 6599   6.090   0.731   0.728
 2198TIP3    H1 6600   6.094   0.795   0.657
 2198TIP3    H2 6601   6.013   0.678   0.710
 2199TIP3   OH2 6602   2.406   1.983   3.821
 2199TIP3    H1 6603   2.404   1.900   3.774
 2199TIP3    H2 6604   2.490   2.022   3.797
 2200TIP3   OH2 6605   6.253   5.776   4.712
 2200TIP3    H1 6606   6.269   5.870   4.700
 2200TIP3    H2 6607   6.288   5.736   4.632
 2201TIP3   OH2 6608   3.914   3.497   2.621
 2201TIP3    H1 6609   3.933   3.404   2.610
 2201TIP3    H2 6610   4.000   3.537   2.636
 2202TIP3   OH2 6611   3.727   4.065   3.849
 2202TIP3    H1 6612   3.787   4.136   3.872
 2202TIP3    H2 6613   3.755   3.991   3.903
 2203TIP3   OH2 6614   2.278   2.282   3.060
 2203TIP3    H1 6615   2.274   2.213   2.993
 2203TIP3    H2 6616   2.310   2.359   3.013
 2204TIP3   OH2 6617   0.508   3.019   4.851
 2204TIP3    H1 6618   0.503   2.956   4.779
 2204TIP3    H2 6619   0.601   3.026   4.870
 2205TIP3   OH2 6620   2.033   4.594   1.682
 2205TIP3    H1 6621   2.099   4.657   1.710
 2205TIP3    H2 6622   2.071   4.509   1.704
 2206TIP3   OH2 6623   0.205   5.147   4.122
 2206TIP3    H1 6624   0.150   5.217   4.086
 2206TIP3    H2 6625   0.231   5.096   4.045
 2207TIP3   OH2 6626   3.755   1.177   0.959
 2207TIP3    H1 6627   3.684   1.149   0.900
 2207TIP3    H2 6628   3.741   1.127   1.039
 2208TIP3   OH2 6629   3.609   5.157   4.349
 2208TIP3    H1 6630   3.522   5.125   4.329
 2208TIP3    H2 6631   3.616   5.148   4.444
 2209TIP3   OH2 6632   0.590   5.322   4.829
 2209TIP3    H1 6633   0.668   5.348   4.779
 2209TIP3    H2 6634   0.555   5.405   4.864
 2210TIP3   OH2 6635   4.060   2.801   1.262
 2210TIP3    H1 6636   4.082   2.786   1.354
 2210TIP3    H2 6637   4.075   2.894   1.248
 2211TIP3   OH2 6638   4.209   1.830   2.539
 2211TIP3    H1 6639   4.176   1.833   2.629
 2211TIP3    H2 6640   4.184   1.914   2.502
 2212TIP3   OH2 6641   0.325   1.143   3.439
 2212TIP3    H1 6642   0.242   1.192   3.440
 2212TIP3    H2 6643   0.375   1.178   3.512
 2213TIP3   OH2 6644   2.771   3.087   4.733
 2213TIP3    H1 6645   2.709   3.037   4.786
 2213TIP3    H2 6646   2.770   3.043   4.648
 2214TIP3   OH2 6647   2.070   3.701   3.542
 2214TIP3    H1 6648   2.112   3.661   3.619
 2214TIP3    H2 6649   1.997   3.642   3.522
 2215TIP3   OH2 6650   4.165   5.516   5.176
 2215TIP3    H1 6651   4.155   5.494   5.269
 2215TIP3    H2 6652   4.137   5.437   5.129
 2216TIP3   OH2 6653   1.643   4.106   0.795
 2216TIP3    H1 6654   1.548   4.120   0.790
 2216TIP3    H2 6655   1.662   4.104   0.889
 2217TIP3   OH2 6656   3.395   3.829   2.856
 2217TIP3    H1 6657   3.312   3.806   2.899
 2217TIP3    H2 6658   3.416   3.916   2.891
 2218TIP3   OH2 6659   2.448   0.243   2.682
 2218TIP3    H1 6660   2.390   0.173   2.652
 2218TIP3    H2 6661   2.519   0.196   2.727
 2219TIP3   OH2 6662   1.311   5.721   0.758
 2219TIP3    H1 6663   1.314   5.748   0.666
 2219TIP3    H2 6664   1.325   5.801   0.807
 2220TIP3   OH2 6665   4.529   2.425   4.548
 2220TIP3    H1 6666   4.497   2.343   4.511
 2220TIP3    H2 6667   4.520   2.489   4.477
 2221TIP3   OH2 6668   1.442   3.436   2.298
 2221TIP3    H1 6669   1.373   3.500   2.278
 2221TIP3    H2 6670   1.401   3.351   2.283
 2222TIP3   OH2 6671   1.799   3.878   0.185
 2222TIP3    H1 6672   1.733   3.943   0.159
 2222TIP3    H2 6673   1.883   3.923   0.172
 2223TIP3   OH2 6674   2.615   5.088   2.097
 2223TIP3    H1 6675   2.619   5.172   2.144
 2223TIP3    H2 6676   2.535   5.095   2.045
 2224TIP3   OH2 6677   5.026   2.775   2.976
 2224TIP3    H1 6678   5.008   2.869   2.977
 2224TIP3    H2 6679   5.008   2.747   2.886
 2225TIP3   OH2 6680   4.644   3.834   1.160
 2225TIP3    H1 6681   4.701   3.781   1.215
 2225TIP3    H2 6682   4.654   3.924   1.193
 2226TIP3   OH2 6683   4.442   4.928   0.410
 2226TIP3    H1 6684   4.437   5.023   0.407
 2226TIP3    H2 6685   4.378   4.898   0.345
 2227TIP3   OH2 6686   3.104   2.642   4.969
 2227TIP3    H1 6687   3.155   2.614   5.045
 2227TIP3    H2 6688   3.083   2.734   4.987
 2228TIP3   OH2 6689   2.353   3.945   1.915
 2228TIP3    H1 6690   2.264   3.924   1.943
 2228TIP3    H2 6691   2.403   3.952   1.997
 2229TIP3   OH2 6692   3.516   3.854   1.769
 2229TIP3    H1 6693   3.465   3.931   1.796
 2229TIP3    H2 6694   3.520   3.860   1.674
 2230TIP3   OH2 6695   3.858   5.259   1.988
 2230TIP3    H1 6696   3.899   5.300   1.912
 2230TIP3    H2 6697   3.772   5.301   1.994
 2231TIP3   OH2 6698   5.919   0.540   4.720
 2231TIP3    H1 6699   5.901   0.610   4.658
 2231TIP3    H2 6700   6.008   0.558   4.751
 2232TIP3   OH2 6701   4.349   3.553   1.121
 2232TIP3    H1 6702   4.261   3.549   1.159
 2232TIP3    H2 6703   4.348   3.632   1.068
 2233TIP3   OH2 6704   2.292   4.277   4.471
 2233TIP3    H1 6705   2.328   4.197   4.434
 2233TIP3    H2 6706   2.215   4.249   4.520
 2234TIP3   OH2 6707   5.237   2.084   3.652
 2234TIP3    H1 6708   5.318   2.127   3.625
 2234TIP3    H2 6709   5.210   2.131   3.732
 2235TIP3   OH2 6710   1.095   0.217   2.225
 2235TIP3    H1 6711   1.113   0.248   2.313
 2235TIP3    H2 6712   1.159   0.262   2.170
 2236TIP3   OH2 6713   4.598   0.521   2.546
 2236TIP3    H1 6714   4.571   0.595   2.600
 2236TIP3    H2 6715   4.560   0.540   2.460
 2237TIP3   OH2 6716   2.784   5.042   1.867
 2237TIP3    H1 6717   2.747   5.066   1.952
 2237TIP3    H2 6718   2.755   5.110   1.807
 2238TIP3   OH2 6719   1.346   1.434   1.189
 2238TIP3    H1 6720   1.307   1.427   1.102
 2238TIP3    H2 6721   1.313   1.359   1.237
 2239TIP3   OH2 6722   3.452   2.035   2.993
 2239TIP3    H1 6723   3.366   2.073   3.014
 2239TIP3    H2 6724   3.489   2.013   3.079
 2240TIP3   OH2 6725   3.192   0.179   0.741
 2240TIP3    H1 6726   3.164   0.202   0.830
 2240TIP3    H2 6727   3.122   0.124   0.707
 2241TIP3   OH2 6728   5.037   0.860   2.124
 2241TIP3    H1 6729   5.128   0.843   2.100
 2241TIP3    H2 6730   5.042   0.918   2.200
 2242TIP3   OH2 6731   4.399   0.687   4.776
 2242TIP3    H1 6732   4.328   0.690   4.841
 2242TIP3    H2 6733   4.354   0.669   4.694
 2243TIP3   OH2 6734   0.557   5.409   3.734
 2243TIP3    H1 6735   0.490   5.392   3.800
 2243TIP3    H2 6736   0.564   5.504   3.730
 2244TIP3   OH2 6737   4.786   1.614   0.113
 2244TIP3    H1 6738   4.843   1.656   0.176
 2244TIP3    H2 6739   4.846   1.571   0.052
 2245TIP3   OH2 6740   4.722   2.950   0.833
 2245TIP3    H1 6741   4.751   2.861   0.854
 2245TIP3    H2 6742   4.712   2.993   0.918
 2246TIP3   OH2 6743   5.103   5.602   3.131
 2246TIP3    H1 6744   5.143   5.523   3.169
 2246TIP3    H2 6745   5.145   5.674   3.177
 2247TIP3   OH2 6746   3.039   3.712   5.116
 2247TIP3    H1 6747   3.004   3.710   5.027
 2247TIP3    H2 6748   3.059   3.804   5.132
 2248TIP3   OH2 6749   2.855   4.761   3.123
 2248TIP3    H1 6750   2.777   4.726   3.166
 2248TIP3    H2 6751   2.895   4.817   3.189
 2249TIP3   OH2 6752   1.113   3.022   3.319
 2249TIP3    H1 6753   1.091   3.077   3.244
 2249TIP3    H2 6754   1.205   3.040   3.337
 2250TIP3   OH2 6755   6.052   5.709   1.009
 2250TIP3    H1 6756   6.104   5.630   0.991
 2250TIP3    H2 6757   6.026   5.700   1.100
 2251TIP3   OH2 6758   3.158   5.232   3.545
 2251TIP3    H1 6759   3.122   5.232   3.457
 2251TIP3    H2 6760   3.116   5.158   3.589
 2252TIP3   OH2 6761   3.969   3.214   2.002
 2252TIP3    H1 6762   3.900   3.279   2.017
 2252TIP3    H2 6763   3.991   3.225   1.910
 2253TIP3   OH2 6764   4.728   4.298   3.037
 2253TIP3    H1 6765   4.648   4.322   3.084
 2253TIP3    H2 6766   4.772   4.381   3.020
 2254TIP3   OH2 6767   4.776   4.069   0.933
 2254TIP3    H1 6768   4.733   4.113   1.007
 2254TIP3    H2 6769   4.706   4.060   0.868
 2255TIP3   OH2 6770   4.685   2.412   0.144
 2255TIP3    H1 6771   4.763   2.466   0.150
 2255TIP3    H2 6772   4.612   2.473   0.152
 2256TIP3   OH2 6773   6.362   3.681   2.440
 2256TIP3    H1 6774   6.294   3.645   2.497
 2256TIP3    H2 6775   6.387   3.607   2.384
 2257TIP3   OH2 6776   2.170   0.565   3.276
 2257TIP3    H1 6777   2.139   0.531   3.360
 2257TIP3    H2 6778   2.126   0.649   3.266
 2258TIP3   OH2 6779   4.615   4.119   1.166
 2258TIP3    H1 6780   4.646   4.207   1.147
 2258TIP3    H2 6781   4.519   4.125   1.158
 2259TIP3   OH2 6782   1.526   1.504   4.123
 2259TIP3    H1 6783   1.509   1.597   4.107
 2259TIP3    H2 6784   1.469   1.481   4.196
 2260TIP3   OH2 6785   0.047   3.525   2.968
 2260TIP3    H1 6786   0.120   3.586   2.966
 2260TIP3    H2 6787   0.050   3.488   3.056
 2261TIP3   OH2 6788   4.041   1.347   3.437
 2261TIP3    H1 6789   4.053   1.391   3.521
 2261TIP3    H2 6790   3.968   1.394   3.395
 2262TIP3   OH2 6791   5.389   5.934   2.924
 2262TIP3    H1 6792   5.405   5.910   3.015
 2262TIP3    H2 6793   5.467   5.903   2.877
 2263TIP3   OH2 6794   5.216   0.433   2.156
 2263TIP3    H1 6795   5.203   0.473   2.070
 2263TIP3    H2 6796   5.216   0.508   2.217
 2264TIP3   OH2 6797   5.073   5.307   3.783
 2264TIP3    H1 6798   5.002   5.272   3.729
 2264TIP3    H2 6799   5.136   5.342   3.720
 2265TIP3   OH2 6800   2.170   1.470   0.489
 2265TIP3    H1 6801   2.105   1.468   0.420
 2265TIP3    H2 6802   2.212   1.384   0.486
 2266TIP3   OH2 6803   2.148   5.387   4.804
 2266TIP3    H1 6804   2.159   5.457   4.740
 2266TIP3    H2 6805   2.189   5.311   4.763
 2267TIP3   OH2 6806   1.060   2.520   4.398
 2267TIP3    H1 6807   1.082   2.611   4.418
 2267TIP3    H2 6808   1.142   2.482   4.367
 2268TIP3   OH2 6809   1.687   3.079   2.914
 2268TIP3    H1 6810   1.753   3.076   2.983
 2268TIP3    H2 6811   1.702   3.000   2.863
 2269TIP3   OH2 6812   6.134   1.145   0.753
 2269TIP3    H1 6813   6.127   1.120   0.845
 2269TIP3    H2 6814   6.136   1.240   0.753
 2270TIP3   OH2 6815   5.281   4.483   3.863
 2270TIP3    H1 6816   5.284   4.562   3.809
 2270TIP3    H2 6817   5.328   4.417   3.812
 2271TIP3   OH2 6818   1.522   1.727   1.837
 2271TIP3    H1 6819   1.489   1.682   1.915
 2271TIP3    H2 6820   1.503   1.667   1.765
 2272TIP3   OH2 6821   5.682   3.113   4.376
 2272TIP3    H1 6822   5.621   3.080   4.443
 2272TIP3    H2 6823   5.670   3.055   4.302
 2273TIP3   OH2 6824   1.251   3.111   0.035
 2273TIP3    H1 6825   1.251   3.026   0.077
 2273TIP3    H2 6826   1.241   3.092  -0.059
 2274TIP3   OH2 6827   1.130   3.206   0.695
 2274TIP3    H1 6828   1.049   3.236   0.654
 2274TIP3    H2 6829   1.200   3.254   0.650
 2275TIP3   OH2 6830   0.806   1.917   1.688
 2275TIP3    H1 6831   0.827   1.968   1.767
 2275TIP3    H2 6832   0.884   1.865   1.672
 2276TIP3   OH2 6833   3.316   0.178   3.520
 2276TIP3    H1 6834   3.250   0.159   3.587
 2276TIP3    H2 6835   3.382   0.110   3.531
 2277TIP3   OH2 6836   1.791   4.963   0.658
 2277TIP3    H1 6837   1.758   4.885   0.612
 2277TIP3    H2 6838   1.855   4.928   0.720
 2278TIP3   OH2 6839   5.864   5.694   3.490
 2278TIP3    H1 6840   5.902   5.628   3.549
 2278TIP3    H2 6841   5.786   5.651   3.454
 2279TIP3   OH2 6842   0.189   1.283   2.659
 2279TIP3    H1 6843   0.195   1.188   2.674
 2279TIP3    H2 6844   0.156   1.291   2.570
 2280TIP3   OH2 6845   1.191   3.197   4.953
 2280TIP3    H1 6846   1.270   3.247   4.932
 2280TIP3    H2 6847   1.153   3.176   4.868
 2281TIP3   OH2 6848   1.101   3.658   3.552
 2281TIP3    H1 6849   1.077   3.583   3.498
 2281TIP3    H2 6850   1.088   3.734   3.494
 2282TIP3   OH2 6851   0.871   3.445   1.897
 2282TIP3    H1 6852   0.959   3.437   1.932
 2282TIP3    H2 6853   0.883   3.442   1.802
 2283TIP3   OH2 6854   2.877   2.445   0.289
 2283TIP3    H1 6855   2.846   2.389   0.361
 2283TIP3    H2 6856   2.916   2.385   0.227
 2284TIP3   OH2 6857   6.123   0.810   4.388
 2284TIP3    H1 6858   6.082   0.862   4.318
 2284TIP3    H2 6859   6.090   0.849   4.469
 2285TIP3   OH2 6860   1.836   5.689   2.279
 2285TIP3    H1 6861   1.837   5.696   2.183
 2285TIP3    H2 6862   1.902   5.751   2.308
 2286TIP3   OH2 6863   6.243   1.832   4.029
 2286TIP3    H1 6864   6.202   1.764   3.976
 2286TIP3    H2 6865   6.234   1.911   3.977
 2287TIP3   OH2 6866   0.760   3.711   2.347
 2287TIP3    H1 6867   0.740   3.675   2.261
 2287TIP3    H2 6868   0.708   3.791   2.353
 2288TIP3   OH2 6869   3.865   1.795   2.649
 2288TIP3    H1 6870   3.774   1.798   2.681
 2288TIP3    H2 6871   3.914   1.846   2.714
 2289TIP3   OH2 6872   3.546   5.477   2.166
 2289TIP3    H1 6873   3.629   5.522   2.180
 2289TIP3    H2 6874   3.483   5.525   2.220
 2290TIP3   OH2 6875   4.167   3.323   0.113
 2290TIP3    H1 6876   4.181   3.344   0.205
 2290TIP3    H2 6877   4.246   3.357   0.069
 2291TIP3   OH2 6878   3.832   0.842   2.507
 2291TIP3    H1 6879   3.840   0.901   2.582
 2291TIP3    H2 6880   3.745   0.804   2.515
 2292TIP3   OH2 6881   2.300   2.323   2.381
 2292TIP3    H1 6882   2.291   2.379   2.304
 2292TIP3    H2 6883   2.392   2.298   2.383
 2293TIP3   OH2 6884   3.850   1.014   3.578
 2293TIP3    H1 6885   3.928   0.959   3.566
 2293TIP3    H2 6886   3.878   1.084   3.636
 2294TIP3   OH2 6887   2.040   5.534   0.706
 2294TIP3    H1 6888   2.129   5.526   0.672
 2294TIP3    H2 6889   1.998   5.451   0.684
 2295TIP3   OH2 6890   3.733   5.937   4.539
 2295TIP3    H1 6891   3.750   5.960   4.631
 2295TIP3    H2 6892   3.820   5.935   4.499
 2296TIP3   OH2 6893   1.833   2.457   0.718
 2296TIP3    H1 6894   1.758   2.445   0.776
 2296TIP3    H2 6895   1.806   2.526   0.658
 2297TIP3   OH2 6896   3.413   3.253   4.592
 2297TIP3    H1 6897   3.473   3.239   4.519
 2297TIP3    H2 6898   3.422   3.174   4.646
 2298TIP3   OH2 6899   1.472   2.608   2.700
 2298TIP3    H1 6900   1.528   2.533   2.677
 2298TIP3    H2 6901   1.534   2.679   2.718
 2299TIP3   OH2 6902   6.201   0.766   1.463
 2299TIP3    H1 6903   6.122   0.713   1.471
 2299TIP3    H2 6904   6.255   0.740   1.539
 2300TIP3   OH2 6905   4.571   1.877   1.296
 2300TIP3    H1 6906   4.586   1.805   1.235
 2300TIP3    H2 6907   4.479   1.867   1.323
 2301TIP3   OH2 6908   1.736   2.458   3.412
 2301TIP3    H1 6909   1.645   2.439   3.389
 2301TIP3    H2 6910   1.776   2.486   3.329
 2302TIP3   OH2 6911   3.581   3.162   2.493
 2302TIP3    H1 6912   3.657   3.188   2.442
 2302TIP3    H2 6913   3.581   3.221   2.569
 2303TIP3   OH2 6914  -0.031   3.388   1.646
 2303TIP3    H1 6915   0.054   3.389   1.690
 2303TIP3    H2 6916  -0.018   3.333   1.569
 2304TIP3   OH2 6917   2.329   0.567   4.204
 2304TIP3    H1 6918   2.247   0.600   4.240
 2304TIP3    H2 6919   2.302   0.499   4.142
 2305TIP3   OH2 6920   1.190   0.428   3.755
 2305TIP3    H1 6921   1.228   0.347   3.790
 2305TIP3    H2 6922   1.157   0.474   3.832
 2306TIP3   OH2 6923   5.573   2.987   3.620
 2306TIP3    H1 6924   5.523   2.908   3.643
 2306TIP3    H2 6925   5.566   2.992   3.525
 2307TIP3   OH2 6926   1.301   4.266   3.539
 2307TIP3    H1 6927   1.320   4.188   3.488
 2307TIP3    H2 6928   1.262   4.233   3.620
 2308TIP3   OH2 6929   3.713   0.779   2.142
 2308TIP3    H1 6930   3.658   0.808   2.215
 2308TIP3    H2 6931   3.764   0.706   2.178
 2309TIP3   OH2 6932   0.451   5.852   0.902
 2309TIP3    H1 6933   0.411   5.859   0.988
 2309TIP3    H2 6934   0.527   5.909   0.905
 2310TIP3   OH2 6935   5.520   0.333   4.635
 2310TIP3    H1 6936   5.564   0.255   4.602
 2310TIP3    H2 6937   5.483   0.374   4.557
 2311TIP3   OH2 6938   0.385   2.112   2.791
 2311TIP3    H1 6939   0.463   2.132   2.738
 2311TIP3    H2 6940   0.312   2.138   2.736
 2312TIP3   OH2 6941   4.314   5.537   3.006
 2312TIP3    H1 6942   4.272   5.451   3.006
 2312TIP3    H2 6943   4.250   5.595   2.965
 2313TIP3   OH2 6944   5.203   2.661   4.506
 2313TIP3    H1 6945   5.147   2.728   4.467
 2313TIP3    H2 6946   5.145   2.609   4.561
 2314TIP3   OH2 6947   1.427   1.817   0.794
 2314TIP3    H1 6948   1.481   1.764   0.735
 2314TIP3    H2 6949   1.443   1.779   0.881
 2315TIP3   OH2 6950   3.152   3.511   2.072
 2315TIP3    H1 6951   3.208   3.581   2.105
 2315TIP3    H2 6952   3.075   3.514   2.129
 2316TIP3   OH2 6953   3.937   4.957   3.640
 2316TIP3    H1 6954   3.874   4.905   3.690
 2316TIP3    H2 6955   4.011   4.897   3.626
 2317TIP3   OH2 6956   3.474   4.618   5.124
 2317TIP3    H1 6957   3.445   4.671   5.198
 2317TIP3    H2 6958   3.559   4.583   5.152
 2318TIP3   OH2 6959   0.799   1.507   3.775
 2318TIP3    H1 6960   0.738   1.576   3.799
 2318TIP3    H2 6961   0.839   1.538   3.693
 2319TIP3   OH2 6962   0.621   4.265   2.235
 2319TIP3    H1 6963   0.568   4.259   2.155
 2319TIP3    H2 6964   0.711   4.271   2.203
 2320TIP3   OH2 6965   2.928   2.499   0.601
 2320TIP3    H1 6966   2.899   2.543   0.680
 2320TIP3    H2 6967   2.851   2.450   0.571
 2321TIP3   OH2 6968   0.562   0.852   2.422
 2321TIP3    H1 6969   0.604   0.822   2.342
 2321TIP3    H2 6970   0.628   0.841   2.490
 2322TIP3   OH2 6971   0.993   1.864   3.620
 2322TIP3    H1 6972   1.078   1.842   3.659
 2322TIP3    H2 6973   0.960   1.937   3.674
 2323TIP3   OH2 6974   4.568   5.443   2.989
 2323TIP3    H1 6975   4.474   5.460   2.977
 2323TIP3    H2 6976   4.610   5.485   2.915
 2324TIP3   OH2 6977   1.638   2.753   1.762
 2324TIP3    H1 6978   1.614   2.665   1.735
 2324TIP3    H2 6979   1.703   2.740   1.831
 2325TIP3   OH2 6980   0.471   3.747   3.640
 2325TIP3    H1 6981   0.444   3.759   3.549
 2325TIP3    H2 6982   0.567   3.746   3.636
 2326TIP3   OH2 6983   0.492   5.377   0.731
 2326TIP3    H1 6984   0.465   5.303   0.786
 2326TIP3    H2 6985   0.428   5.446   0.752
 2327TIP3   OH2 6986   6.350   1.103   2.276
 2327TIP3    H1 6987   6.337   1.008   2.279
 2327TIP3    H2 6988   6.264   1.139   2.293
 2328TIP3   OH2 6989   6.029   0.309   2.469
 2328TIP3    H1 6990   6.057   0.260   2.392
 2328TIP3    H2 6991   6.045   0.248   2.542
 2329TIP3   OH2 6992   1.818   0.224   4.143
 2329TIP3    H1 6993   1.813   0.305   4.193
 2329TIP3    H2 6994   1.890   0.176   4.183
 2330TIP3   OH2 6995   4.445   0.222   3.512
 2330TIP3    H1 6996   4.431   0.314   3.536
 2330TIP3    H2 6997   4.432   0.220   3.417
 2331TIP3   OH2 6998   3.357   2.209   4.351
 2331TIP3    H1 6999   3.391   2.128   4.388
 2331TIP3    H2 7000   3.384   2.277   4.413
 2332TIP3   OH2 7001   0.666   2.125   3.506
 2332TIP3    H1 7002   0.669   2.220   3.494
 2332TIP3    H2 7003   0.620   2.092   3.429
 2333TIP3   OH2 7004   0.483   1.071   3.208
 2333TIP3    H1 7005   0.427   1.128   3.261
 2333TIP3    H2 7006   0.540   1.028   3.272
 2334TIP3   OH2 7007   0.052   2.521   2.037
 2334TIP3    H1 7008  -0.008   2.479   2.098
 2334TIP3    H2 7009  -0.002   2.581   1.986
 2335TIP3   OH2 7010   5.426   0.235   1.269
 2335TIP3    H1 7011   5.516   0.211   1.244
 2335TIP3    H2 7012   5.371   0.190   1.205
 2336TIP3   OH2 7013   5.234   4.081   2.129
 2336TIP3    H1 7014   5.294   4.079   2.204
 2336TIP3    H2 7015   5.267   4.012   2.071
 2337TIP3   OH2 7016   4.501   3.180  -0.019
 2337TIP3    H1 7017   4.530   3.129   0.057
 2337TIP3    H2 7018   4.461   3.258   0.019
 2338TIP3   OH2 7019   0.902   2.553   4.063
 2338TIP3    H1 7020   0.885   2.603   3.983
 2338TIP3    H2 7021   0.960   2.609   4.114
 2339TIP3   OH2 7022   4.163   4.106   0.813
 2339TIP3    H1 7023   4.229   4.171   0.791
 2339TIP3    H2 7024   4.081   4.143   0.782
 2340TIP3   OH2 7025   2.422   0.413   1.488
 2340TIP3    H1 7026   2.371   0.441   1.412
 2340TIP3    H2 7027   2.505   0.383   1.452
 2341TIP3   OH2 7028   6.124   3.059   1.577
 2341TIP3    H1 7029   6.192   3.015   1.628
 2341TIP3    H2 7030   6.147   3.044   1.486
 2342TIP3   OH2 7031   0.791   3.121   1.321
 2342TIP3    H1 7032   0.777   3.029   1.297
 2342TIP3    H2 7033   0.837   3.117   1.405
 2343TIP3   OH2 7034   1.617   2.408   2.108
 2343TIP3    H1 7035   1.708   2.422   2.134
 2343TIP3    H2 7036   1.580   2.496   2.100
 2344TIP3   OH2 7037   5.473   5.695   1.516
 2344TIP3    H1 7038   5.490   5.714   1.609
 2344TIP3    H2 7039   5.380   5.713   1.505
 2345TIP3   OH2 7040   5.250   5.120   1.069
 2345TIP3    H1 7041   5.253   5.142   0.976
 2345TIP3    H2 7042   5.327   5.065   1.083
 2346TIP3   OH2 7043   4.770   2.376   1.240
 2346TIP3    H1 7044   4.713   2.423   1.180
 2346TIP3    H2 7045   4.858   2.391   1.206
 2347TIP3   OH2 7046   3.636   0.509   3.212
 2347TIP3    H1 7047   3.598   0.550   3.290
 2347TIP3    H2 7048   3.677   0.429   3.245
 2348TIP3   OH2 7049   2.921   5.902   0.972
 2348TIP3    H1 7050   2.913   5.939   1.060
 2348TIP3    H2 7051   2.973   5.823   0.983
 2349TIP3   OH2 7052   5.398   2.899   1.545
 2349TIP3    H1 7053   5.492   2.881   1.548
 2349TIP3    H2 7054   5.370   2.865   1.460
 2350TIP3   OH2 7055   3.848   4.351   4.310
 2350TIP3    H1 7056   3.809   4.330   4.395
 2350TIP3    H2 7057   3.891   4.270   4.282
 2351TIP3   OH2 7058   0.130   0.259   1.792
 2351TIP3    H1 7059   0.105   0.269   1.700
 2351TIP3    H2 7060   0.225   0.251   1.791
 2352TIP3   OH2 7061   4.548   1.129   0.982
 2352TIP3    H1 7062   4.490   1.203   0.994
 2352TIP3    H2 7063   4.528   1.071   1.056
 2353TIP3   OH2 7064   0.816   4.020   3.718
 2353TIP3    H1 7065   0.854   4.060   3.640
 2353TIP3    H2 7066   0.796   3.930   3.692
 2354TIP3   OH2 7067   1.365   5.863   1.655
 2354TIP3    H1 7068   1.328   5.946   1.625
 2354TIP3    H2 7069   1.310   5.796   1.615
 2355TIP3   OH2 7070   0.791   1.816   0.105
 2355TIP3    H1 7071   0.761   1.784   0.191
 2355TIP3    H2 7072   0.884   1.793   0.103
 2356TIP3   OH2 7073   4.368   0.052   0.238
 2356TIP3    H1 7074   4.283   0.094   0.226
 2356TIP3    H2 7075   4.413   0.063   0.154
 2357TIP3   OH2 7076   1.514   4.723   3.723
 2357TIP3    H1 7077   1.527   4.734   3.817
 2357TIP3    H2 7078   1.485   4.633   3.713
 2358TIP3   OH2 7079   4.016   4.489   3.226
 2358TIP3    H1 7080   4.033   4.582   3.238
 2358TIP3    H2 7081   4.103   4.450   3.217
 2359TIP3   OH2 7082   6.276   2.437   3.861
 2359TIP3    H1 7083   6.327   2.505   3.905
 2359TIP3    H2 7084   6.248   2.478   3.779
 2360TIP3   OH2 7085   5.358   3.841   3.326
 2360TIP3    H1 7086   5.338   3.794   3.245
 2360TIP3    H2 7087   5.316   3.789   3.394
 2361TIP3   OH2 7088   1.894   2.580   0.301
 2361TIP3    H1 7089   1.854   2.549   0.219
 2361TIP3    H2 7090   1.870   2.673   0.305
 2362TIP3   OH2 7091   2.028   1.716   1.622
 2362TIP3    H1 7092   1.947   1.687   1.664
 2362TIP3    H2 7093   2.094   1.713   1.692
 2363TIP3   OH2 7094   1.664   3.601   2.920
 2363TIP3    H1 7095   1.682   3.507   2.916
 2363TIP3    H2 7096   1.732   3.636   2.977
 2364TIP3   OH2 7097   4.845   1.818   2.146
 2364TIP3    H1 7098   4.847   1.724   2.162
 2364TIP3    H2 7099   4.769   1.832   2.090
 2365TIP3   OH2 7100   0.509   1.421   2.261
 2365TIP3    H1 7101   0.524   1.330   2.236
 2365TIP3    H2 7102   0.518   1.422   2.356
 2366TIP3   OH2 7103   0.368   3.105   2.652
 2366TIP3    H1 7104   0.445   3.062   2.690
 2366TIP3    H2 7105   0.401   3.144   2.571
 2367TIP3   OH2 7106   2.141   3.618   0.137
 2367TIP3    H1 7107   2.203   3.566   0.086
 2367TIP3    H2 7108   2.058   3.608   0.091
 2368TIP3   OH2 7109   0.482   5.372   1.299
 2368TIP3    H1 7110   0.467   5.351   1.207
 2368TIP3    H2 7111   0.577   5.367   1.309
 2369TIP3   OH2 7112   6.123   5.169   2.200
 2369TIP3    H1 7113   6.080   5.129   2.276
 2369TIP3    H2 7114   6.172   5.097   2.159
 2370TIP3   OH2 7115   2.286   2.854   1.955
 2370TIP3    H1 7116   2.191   2.842   1.951
 2370TIP3    H2 7117   2.298   2.919   2.024
 2371TIP3   OH2 7118   3.975   1.415   1.188
 2371TIP3    H1 7119   3.897   1.374   1.225
 2371TIP3    H2 7120   4.048   1.364   1.223
 2372TIP3   OH2 7121   1.035   1.622   4.638
 2372TIP3    H1 7122   1.095   1.696   4.640
 2372TIP3    H2 7123   0.968   1.643   4.703
 2373TIP3   OH2 7124   5.161   0.530   1.900
 2373TIP3    H1 7125   5.111   0.567   1.827
 2373TIP3    H2 7126   5.196   0.448   1.866
 2374TIP3   OH2 7127   0.499   5.033   1.620
 2374TIP3    H1 7128   0.558   5.094   1.662
 2374TIP3    H2 7129   0.513   4.950   1.666
 2375TIP3   OH2 7130   4.219   1.901   3.717
 2375TIP3    H1 7131   4.305   1.910   3.676
 2375TIP3    H2 7132   4.170   1.844   3.657
 2376TIP3   OH2 7133   1.705   3.095   4.921
 2376TIP3    H1 7134   1.778   3.130   4.973
 2376TIP3    H2 7135   1.736   3.010   4.890
 2377TIP3   OH2 7136   0.682   5.091   2.891
 2377TIP3    H1 7137   0.754   5.027   2.896
 2377TIP3    H2 7138   0.708   5.161   2.951
 2378TIP3   OH2 7139   4.275   0.140   2.401
 2378TIP3    H1 7140   4.271   0.160   2.495
 2378TIP3    H2 7141   4.352   0.187   2.369
 2379TIP3   OH2 7142   3.058   2.118   0.770
 2379TIP3    H1 7143   3.032   2.027   0.783
 2379TIP3    H2 7144   3.034   2.138   0.680
 2380TIP3   OH2 7145   4.434   4.461   3.067
 2380TIP3    H1 7146   4.372   4.534   3.078
 2380TIP3    H2 7147   4.437   4.447   2.973
 2381TIP3   OH2 7148   3.748   4.398   3.569
 2381TIP3    H1 7149   3.707   4.450   3.500
 2381TIP3    H2 7150   3.838   4.430   3.572
 2382TIP3   OH2 7151   0.026   2.500   2.725
 2382TIP3    H1 7152   0.078   2.460   2.795
 2382TIP3    H2 7153  -0.020   2.426   2.685
 2383TIP3   OH2 7154   1.940   4.437   1.920
 2383TIP3    H1 7155   1.948   4.347   1.891
 2383TIP3    H2 7156   1.850   4.462   1.899
 2384TIP3   OH2 7157   2.192   4.276   0.755
 2384TIP3    H1 7158   2.156   4.208   0.812
 2384TIP3    H2 7159   2.259   4.232   0.703
 2385TIP3   OH2 7160   0.818   4.847   4.040
 2385TIP3    H1 7161   0.830   4.937   4.071
 2385TIP3    H2 7162   0.898   4.827   3.993
 2386TIP3   OH2 7163   4.607   3.569   0.066
 2386TIP3    H1 7164   4.659   3.490   0.078
 2386TIP3    H2 7165   4.657   3.638   0.110
 2387TIP3   OH2 7166   3.387   1.719   2.595
 2387TIP3    H1 7167   3.301   1.719   2.552
 2387TIP3    H2 7168   3.367   1.713   2.688
 2388TIP3   OH2 7169   5.513   4.141   4.908
 2388TIP3    H1 7170   5.546   4.068   4.960
 2388TIP3    H2 7171   5.570   4.214   4.929
 2389TIP3   OH2 7172   5.004   0.841   2.905
 2389TIP3    H1 7173   4.957   0.922   2.921
 2389TIP3    H2 7174   5.079   0.867   2.851
 2390TIP3   OH2 7175   0.043   0.101   2.289
 2390TIP3    H1 7176   0.007   0.032   2.346
 2390TIP3    H2 7177   0.050   0.178   2.346
 2391TIP3   OH2 7178   2.971   2.264   3.058
 2391TIP3    H1 7179   3.001   2.329   2.995
 2391TIP3    H2 7180   2.885   2.296   3.087
 2392TIP3   OH2 7181   5.266   1.092   3.315
 2392TIP3    H1 7182   5.313   1.053   3.388
 2392TIP3    H2 7183   5.198   1.029   3.293
 2393TIP3   OH2 7184   3.215   3.250   4.090
 2393TIP3    H1 7185   3.231   3.331   4.138
 2393TIP3    H2 7186   3.162   3.197   4.149
 2394TIP3   OH2 7187   2.889   3.634   1.182
 2394TIP3    H1 7188   2.928   3.720   1.195
 2394TIP3    H2 7189   2.894   3.591   1.267
 2395TIP3   OH2 7190   6.339   2.726   3.363
 2395TIP3    H1 7191   6.264   2.686   3.408
 2395TIP3    H2 7192   6.416   2.692   3.410
 2396TIP3   OH2 7193   1.527   2.654   3.324
 2396TIP3    H1 7194   1.514   2.579   3.382
 2396TIP3    H2 7195   1.606   2.696   3.358
 2397TIP3   OH2 7196   3.424   3.655   4.787
 2397TIP3    H1 7197   3.356   3.705   4.741
 2397TIP3    H2 7198   3.376   3.604   4.852
 2398TIP3   OH2 7199   2.229   4.193   2.020
 2398TIP3    H1 7200   2.320   4.201   1.993
 2398TIP3    H2 7201   2.179   4.204   1.938
 2399TIP3   OH2 7202   1.337   2.895   1.257
 2399TIP3    H1 7203   1.381   2.964   1.307
 2399TIP3    H2 7204   1.386   2.890   1.175
 2400TIP3   OH2 7205   4.143   1.335   0.467
 2400TIP3    H1 7206   4.069   1.394   0.481
 2400TIP3    H2 7207   4.109   1.267   0.409
 2401TIP3   OH2 7208   4.664   5.111   1.940
 2401TIP3    H1 7209   4.613   5.147   1.868
 2401TIP3    H2 7210   4.629   5.155   2.018
 2402TIP3   OH2 7211   0.582   0.974   0.462
 2402TIP3    H1 7212   0.510   0.946   0.518
 2402TIP3    H2 7213   0.649   0.906   0.475
 2403TIP3   OH2 7214   3.814   1.275   0.450
 2403TIP3    H1 7215   3.812   1.361   0.491
 2403TIP3    H2 7216   3.735   1.271   0.396
 2404TIP3   OH2 7217   1.034   1.401   3.046
 2404TIP3    H1 7218   1.089   1.445   2.980
 2404TIP3    H2 7219   0.944   1.420   3.018
 2405TIP3   OH2 7220   0.933   2.574   3.080
 2405TIP3    H1 7221   0.964   2.495   3.126
 2405TIP3    H2 7222   0.935   2.643   3.147
 2406TIP3   OH2 7223   3.005   1.082   2.463
 2406TIP3    H1 7224   2.914   1.108   2.476
 2406TIP3    H2 7225   3.006   1.040   2.377
 2407TIP3   OH2 7226   5.758   1.797   4.385
 2407TIP3    H1 7227   5.793   1.835   4.466
 2407TIP3    H2 7228   5.765   1.868   4.321
 2408TIP3   OH2 7229   5.512   0.612   1.954
 2408TIP3    H1 7230   5.474   0.565   1.880
 2408TIP3    H2 7231   5.597   0.572   1.968
 2409TIP3   OH2 7232   2.337   0.919   2.993
 2409TIP3    H1 7233   2.351   0.855   2.923
 2409TIP3    H2 7234   2.265   0.973   2.962
 2410TIP3   OH2 7235   3.519   1.068   1.885
 2410TIP3    H1 7236   3.483   1.121   1.814
 2410TIP3    H2 7237   3.605   1.108   1.902
 2411TIP3   OH2 7238   0.107   1.222   1.503
 2411TIP3    H1 7239   0.056   1.142   1.491
 2411TIP3    H2 7240   0.195   1.192   1.525
 2412TIP3   OH2 7241   1.095   2.451   0.858
 2412TIP3    H1 7242   1.133   2.448   0.946
 2412TIP3    H2 7243   1.132   2.530   0.819
 2413TIP3   OH2 7244   3.527   2.186   0.294
 2413TIP3    H1 7245   3.561   2.184   0.384
 2413TIP3    H2 7246   3.550   2.101   0.258
 2414TIP3   OH2 7247   4.136   1.985  -0.009
 2414TIP3    H1 7248   4.041   1.990   0.003
 2414TIP3    H2 7249   4.158   1.894   0.008
 2415TIP3   OH2 7250   5.546   5.148   2.768
 2415TIP3    H1 7251   5.616   5.085   2.785
 2415TIP3    H2 7252   5.582   5.232   2.799
 2416TIP3   OH2 7253   0.194   4.594   1.699
 2416TIP3    H1 7254   0.149   4.565   1.619
 2416TIP3    H2 7255   0.215   4.686   1.682
 2417TIP3   OH2 7256   5.132   5.802   0.274
 2417TIP3    H1 7257   5.045   5.823   0.240
 2417TIP3    H2 7258   5.119   5.722   0.324
 2418TIP3   OH2 7259   5.403   3.525   0.516
 2418TIP3    H1 7260   5.359   3.440   0.520
 2418TIP3    H2 7261   5.462   3.526   0.592
 2419TIP3   OH2 7262   2.243   5.906   3.554
 2419TIP3    H1 7263   2.271   5.991   3.521
 2419TIP3    H2 7264   2.189   5.870   3.483
 2420TIP3   OH2 7265   3.851   1.162   4.250
 2420TIP3    H1 7266   3.809   1.125   4.172
 2420TIP3    H2 7267   3.809   1.247   4.263
 2421TIP3   OH2 7268   0.121   3.104   1.167
 2421TIP3    H1 7269   0.071   3.186   1.167
 2421TIP3    H2 7270   0.170   3.105   1.085
 2422TIP3   OH2 7271   4.937   4.735   3.241
 2422TIP3    H1 7272   4.944   4.798   3.313
 2422TIP3    H2 7273   4.948   4.788   3.162
 2423TIP3   OH2 7274   0.828   4.825   2.832
 2423TIP3    H1 7275   0.911   4.871   2.841
 2423TIP3    H2 7276   0.850   4.745   2.785
 2424TIP3   OH2 7277   6.290   4.313   3.094
 2424TIP3    H1 7278   6.314   4.226   3.125
 2424TIP3    H2 7279   6.245   4.354   3.168
 2425TIP3   OH2 7280   1.090   1.214   3.836
 2425TIP3    H1 7281   1.104   1.243   3.746
 2425TIP3    H2 7282   1.168   1.244   3.883
 2426TIP3   OH2 7283   1.122   0.839   1.393
 2426TIP3    H1 7284   1.028   0.836   1.376
 2426TIP3    H2 7285   1.133   0.791   1.475
 2427TIP3   OH2 7286   3.041   3.376   4.981
 2427TIP3    H1 7287   2.976   3.424   5.031
 2427TIP3    H2 7288   2.996   3.349   4.901
 2428TIP3   OH2 7289   0.994   3.420   2.245
 2428TIP3    H1 7290   1.069   3.436   2.304
 2428TIP3    H2 7291   1.027   3.444   2.158
 2429TIP3   OH2 7292   3.969   0.775   1.639
 2429TIP3    H1 7293   3.921   0.780   1.721
 2429TIP3    H2 7294   4.012   0.689   1.641
 2430TIP3   OH2 7295   3.405   3.170   1.897
 2430TIP3    H1 7296   3.447   3.094   1.857
 2430TIP3    H2 7297   3.439   3.245   1.849
 2431TIP3   OH2 7298   4.364   2.016   4.996
 2431TIP3    H1 7299   4.335   1.927   5.015
 2431TIP3    H2 7300   4.432   2.034   5.060
 2432TIP3   OH2 7301   4.131   3.076   1.775
 2432TIP3    H1 7302   4.087   3.015   1.834
 2432TIP3    H2 7303   4.194   3.122   1.830
 2433TIP3   OH2 7304   4.115   5.328   3.639
 2433TIP3    H1 7305   4.029   5.311   3.602
 2433TIP3    H2 7306   4.133   5.252   3.695
 2434TIP3   OH2 7307   1.457   2.371   3.878
 2434TIP3    H1 7308   1.417   2.387   3.964
 2434TIP3    H2 7309   1.387   2.389   3.815
 2435TIP3   OH2 7310   5.840   2.177   2.475
 2435TIP3    H1 7311   5.856   2.098   2.527
 2435TIP3    H2 7312   5.918   2.185   2.419
 2436TIP3   OH2 7313   3.318   5.911   3.386
 2436TIP3    H1 7314   3.410   5.887   3.392
 2436TIP3    H2 7315   3.288   5.870   3.304
 2437TIP3   OH2 7316   6.174   4.723   4.339
 2437TIP3    H1 7317   6.265   4.702   4.318
 2437TIP3    H2 7318   6.179   4.792   4.405
 2438TIP3   OH2 7319   2.856   0.557   3.228
 2438TIP3    H1 7320   2.891   0.486   3.282
 2438TIP3    H2 7321   2.918   0.629   3.239
 2439TIP3   OH2 7322   2.589   3.012   2.738
 2439TIP3    H1 7323   2.529   3.068   2.688
 2439TIP3    H2 7324   2.644   2.972   2.671
 2440TIP3   OH2 7325   2.665   3.773   1.423
 2440TIP3    H1 7326   2.676   3.681   1.401
 2440TIP3    H2 7327   2.573   3.782   1.447
 2441TIP3   OH2 7328   1.337   3.611   0.936
 2441TIP3    H1 7329   1.301   3.526   0.963
 2441TIP3    H2 7330   1.426   3.591   0.908
 2442TIP3   OH2 7331   4.736   3.215   3.240
 2442TIP3    H1 7332   4.675   3.273   3.285
 2442TIP3    H2 7333   4.823   3.243   3.270
 2443TIP3   OH2 7334   4.408   3.445   4.008
 2443TIP3    H1 7335   4.374   3.387   3.940
 2443TIP3    H2 7336   4.345   3.437   4.080
 2444TIP3   OH2 7337   3.431   3.001   3.616
 2444TIP3    H1 7338   3.382   3.032   3.692
 2444TIP3    H2 7339   3.380   2.927   3.584
 2445TIP3   OH2 7340   5.922   3.564   4.460
 2445TIP3    H1 7341   5.829   3.586   4.466
 2445TIP3    H2 7342   5.965   3.622   4.523
 2446TIP3   OH2 7343   1.633   1.691   3.181
 2446TIP3    H1 7344   1.708   1.749   3.169
 2446TIP3    H2 7345   1.645   1.622   3.116
 2447TIP3   OH2 7346   2.914   5.658   3.065
 2447TIP3    H1 7347   2.941   5.736   3.016
 2447TIP3    H2 7348   2.960   5.665   3.149
 2448TIP3   OH2 7349   0.939   4.266   3.015
 2448TIP3    H1 7350   1.014   4.267   2.955
 2448TIP3    H2 7351   0.875   4.325   2.975
 2449TIP3   OH2 7352   6.208   3.208   3.180
 2449TIP3    H1 7353   6.200   3.247   3.092
 2449TIP3    H2 7354   6.303   3.206   3.196
 2450TIP3   OH2 7355   2.541   1.102   1.696
 2450TIP3    H1 7356   2.570   1.172   1.636
 2450TIP3    H2 7357   2.516   1.148   1.776
 2451TIP3   OH2 7358   5.202   1.389   2.491
 2451TIP3    H1 7359   5.221   1.395   2.584
 2451TIP3    H2 7360   5.146   1.313   2.482
 2452TIP3   OH2 7361   4.298   1.900   0.525
 2452TIP3    H1 7362   4.330   1.989   0.544
 2452TIP3    H2 7363   4.217   1.893   0.575
 2453TIP3   OH2 7364   0.523   2.237   1.862
 2453TIP3    H1 7365   0.494   2.214   1.773
 2453TIP3    H2 7366   0.479   2.174   1.919
 2454TIP3   OH2 7367   4.936   1.035   2.668
 2454TIP3    H1 7368   4.924   1.087   2.589
 2454TIP3    H2 7369   4.851   1.037   2.711
 2455TIP3   OH2 7370   1.289   2.164   0.191
 2455TIP3    H1 7371   1.366   2.219   0.196
 2455TIP3    H2 7372   1.239   2.185   0.270
 2456TIP3   OH2 7373   2.858   4.150   3.344
 2456TIP3    H1 7374   2.809   4.129   3.264
 2456TIP3    H2 7375   2.917   4.076   3.356
 2457TIP3   OH2 7376   0.002   1.799   0.854
 2457TIP3    H1 7377  -0.063   1.748   0.806
 2457TIP3    H2 7378   0.086   1.769   0.819
 2458TIP3   OH2 7379   4.206   0.692   4.985
 2458TIP3    H1 7380   4.178   0.767   5.038
 2458TIP3    H2 7381   4.218   0.621   5.049
 2459TIP3   OH2 7382   0.179   2.332   0.213
 2459TIP3    H1 7383   0.165   2.307   0.305
 2459TIP3    H2 7384   0.271   2.314   0.197
 2460TIP3   OH2 7385   5.859   2.261   4.953
 2460TIP3    H1 7386   5.851   2.184   5.009
 2460TIP3    H2 7387   5.931   2.240   4.893
 2461TIP3   OH2 7388   3.458   5.794   4.880
 2461TIP3    H1 7389   3.423   5.737   4.948
 2461TIP3    H2 7390   3.497   5.867   4.928
 2462TIP3   OH2 7391   4.500   3.817   3.331
 2462TIP3    H1 7392   4.585   3.781   3.305
 2462TIP3    H2 7393   4.517   3.862   3.414
 2463TIP3   OH2 7394   5.027   2.347   2.527
 2463TIP3    H1 7395   4.974   2.356   2.606
 2463TIP3    H2 7396   5.030   2.253   2.511
 2464TIP3   OH2 7397   2.188   0.822   1.826
 2464TIP3    H1 7398   2.260   0.864   1.874
 2464TIP3    H2 7399   2.160   0.751   1.883
 2465TIP3   OH2 7400   5.192   0.138   2.067
 2465TIP3    H1 7401   5.222   0.216   2.020
 2465TIP3    H2 7402   5.109   0.115   2.025
 2466TIP3   OH2 7403   2.687   2.024   1.381
 2466TIP3    H1 7404   2.595   2.045   1.395
 2466TIP3    H2 7405   2.732   2.108   1.381
 2467TIP3   OH2 7406   1.498   1.837   4.362
 2467TIP3    H1 7407   1.433   1.873   4.302
 2467TIP3    H2 7408   1.448   1.776   4.417
 2468TIP3   OH2 7409   1.105   1.022   2.336
 2468TIP3    H1 7410   1.195   1.003   2.360
 2468TIP3    H2 7411   1.088   1.110   2.371
 2469TIP3   OH2 7412   4.037   5.914   1.411
 2469TIP3    H1 7413   4.131   5.913   1.390
 2469TIP3    H2 7414   4.003   5.835   1.369
 2470TIP3   OH2 7415   3.722   5.417   3.269
 2470TIP3    H1 7416   3.750   5.493   3.320
 2470TIP3    H2 7417   3.675   5.361   3.332
 2471TIP3   OH2 7418   5.985   2.516   2.554
 2471TIP3    H1 7419   6.013   2.575   2.484
 2471TIP3    H2 7420   5.986   2.569   2.633
 2472TIP3   OH2 7421   1.925   5.325   4.029
 2472TIP3    H1 7422   1.880   5.294   4.108
 2472TIP3    H2 7423   1.879   5.405   4.005
 2473TIP3   OH2 7424   2.568   3.237   3.208
 2473TIP3    H1 7425   2.607   3.164   3.159
 2473TIP3    H2 7426   2.477   3.240   3.179
 2474TIP3   OH2 7427   4.227   5.746   0.347
 2474TIP3    H1 7428   4.255   5.667   0.301
 2474TIP3    H2 7429   4.288   5.754   0.420
 2475TIP3   OH2 7430   0.070   2.712   4.612
 2475TIP3    H1 7431   0.115   2.718   4.697
 2475TIP3    H2 7432   0.021   2.630   4.617
 2476TIP3   OH2 7433   0.322   4.469   5.188
 2476TIP3    H1 7434   0.346   4.379   5.163
 2476TIP3    H2 7435   0.405   4.511   5.208
 2477TIP3   OH2 7436   6.092   4.592   4.816
 2477TIP3    H1 7437   6.017   4.562   4.868
 2477TIP3    H2 7438   6.064   4.675   4.779
 2478TIP3   OH2 7439   0.144   1.728   4.716
 2478TIP3    H1 7440   0.059   1.745   4.756
 2478TIP3    H2 7441   0.131   1.648   4.665
 2479TIP3   OH2 7442   6.072   0.141   2.221
 2479TIP3    H1 7443   5.987   0.128   2.178
 2479TIP3    H2 7444   6.105   0.053   2.236
 2480TIP3   OH2 7445   2.163   2.770   5.026
 2480TIP3    H1 7446   2.119   2.851   5.052
 2480TIP3    H2 7447   2.251   2.778   5.062
 2481TIP3   OH2 7448   5.218   1.944   4.683
 2481TIP3    H1 7449   5.138   1.951   4.734
 2481TIP3    H2 7450   5.226   2.028   4.639
 2482TIP3   OH2 7451   3.091   5.306   1.225
 2482TIP3    H1 7452   3.178   5.330   1.257
 2482TIP3    H2 7453   3.034   5.377   1.253
 2483TIP3   OH2 7454   5.971   5.094   2.408
 2483TIP3    H1 7455   5.987   5.062   2.496
 2483TIP3    H2 7456   5.875   5.099   2.401
 2484TIP3   OH2 7457   4.860   2.420   2.755
 2484TIP3    H1 7458   4.767   2.442   2.759
 2484TIP3    H2 7459   4.894   2.444   2.841
 2485TIP3   OH2 7460   0.888   1.805   0.685
 2485TIP3    H1 7461   0.971   1.781   0.643
 2485TIP3    H2 7462   0.910   1.816   0.777
 2486TIP3   OH2 7463   5.750   1.874   0.697
 2486TIP3    H1 7464   5.675   1.823   0.728
 2486TIP3    H2 7465   5.712   1.948   0.650
 2487TIP3   OH2 7466   0.230   2.485   2.913
 2487TIP3    H1 7467   0.318   2.485   2.876
 2487TIP3    H2 7468   0.239   2.530   2.996
 2488TIP3   OH2 7469   6.099   4.777   3.137
 2488TIP3    H1 7470   6.168   4.754   3.199
 2488TIP3    H2 7471   6.036   4.704   3.143
 2489TIP3   OH2 7472   3.888   1.973   0.088
 2489TIP3    H1 7473   3.807   2.008   0.125
 2489TIP3    H2 7474   3.860   1.900   0.033
 2490TIP3   OH2 7475   0.859   5.133   3.645
 2490TIP3    H1 7476   0.886   5.041   3.654
 2490TIP3    H2 7477   0.840   5.161   3.734
 2491TIP3   OH2 7478   3.320   2.675   3.755
 2491TIP3    H1 7479   3.389   2.616   3.785
 2491TIP3    H2 7480   3.330   2.677   3.660
 2492TIP3   OH2 7481   1.659   4.502   3.981
 2492TIP3    H1 7482   1.635   4.436   4.047
 2492TIP3    H2 7483   1.657   4.455   3.898
 2493TIP3   OH2 7484   2.106   2.765   0.785
 2493TIP3    H1 7485   2.196   2.758   0.754
 2493TIP3    H2 7486   2.054   2.780   0.705
 2494TIP3   OH2 7487   1.388   4.550   2.593
 2494TIP3    H1 7488   1.431   4.544   2.678
 2494TIP3    H2 7489   1.332   4.627   2.600
 2495TIP3   OH2 7490   2.769   3.687   4.674
 2495TIP3    H1 7491   2.813   3.604   4.658
 2495TIP3    H2 7492   2.810   3.722   4.754
 2496TIP3   OH2 7493   3.246   5.477   2.445
 2496TIP3    H1 7494   3.150   5.478   2.444
 2496TIP3    H2 7495   3.271   5.541   2.378
 2497TIP3   OH2 7496   5.797   1.910   2.274
 2497TIP3    H1 7497   5.822   1.933   2.364
 2497TIP3    H2 7498   5.838   1.825   2.259
 2498TIP3   OH2 7499   2.389   1.946   1.484
 2498TIP3    H1 7500   2.357   2.014   1.426
 2498TIP3    H2 7501   2.347   1.963   1.568
 2499TIP3   OH2 7502   5.148   1.753   0.543
 2499TIP3    H1 7503   5.136   1.719   0.632
 2499TIP3    H2 7504   5.127   1.846   0.550
 2500TIP3   OH2 7505   3.556   0.545   0.901
 2500TIP3    H1 7506   3.643   0.535   0.862
 2500TIP3    H2 7507   3.549   0.639   0.920
 2501TIP3   OH2 7508   1.630   3.055   1.124
 2501TIP3    H1 7509   1.653   3.090   1.210
 2501TIP3    H2 7510   1.704   3.079   1.068
 2502TIP3   OH2 7511   0.558   1.431   2.526
 2502TIP3    H1 7512   0.631   1.488   2.550
 2502TIP3    H2 7513   0.507   1.423   2.607
 2503TIP3   OH2 7514   5.518   5.761   0.480
 2503TIP3    H1 7515   5.445   5.803   0.434
 2503TIP3    H2 7516   5.551   5.829   0.539
 2504TIP3   OH2 7517   0.048   3.809   3.134
 2504TIP3    H1 7518   0.015   3.751   3.202
 2504TIP3    H2 7519   0.115   3.758   3.089
 2505TIP3   OH2 7520   0.617   3.781   0.753
 2505TIP3    H1 7521   0.544   3.825   0.794
 2505TIP3    H2 7522   0.642   3.838   0.680
 2506TIP3   OH2 7523   3.207   3.860   3.783
 2506TIP3    H1 7524   3.283   3.852   3.725
 2506TIP3    H2 7525   3.242   3.836   3.870
 2507TIP3   OH2 7526   0.028   1.987   2.927
 2507TIP3    H1 7527   0.114   1.968   2.890
 2507TIP3    H2 7528   0.042   1.981   3.022
 2508TIP3   OH2 7529   0.056   4.952   3.595
 2508TIP3    H1 7530   0.060   4.859   3.619
 2508TIP3    H2 7531   0.141   4.971   3.555
 2509TIP3   OH2 7532   0.580   1.349   4.197
 2509TIP3    H1 7533   0.499   1.398   4.182
 2509TIP3    H2 7534   0.550   1.262   4.222
 2510TIP3   OH2 7535   3.808   3.834   4.019
 2510TIP3    H1 7536   3.756   3.772   3.967
 2510TIP3    H2 7537   3.803   3.801   4.109
 2511TIP3   OH2 7538   4.320   1.029   5.068
 2511TIP3    H1 7539   4.360   0.968   5.130
 2511TIP3    H2 7540   4.228   1.031   5.092
 2512TIP3   OH2 7541   2.709   5.188   0.038
 2512TIP3    H1 7542   2.665   5.109   0.071
 2512TIP3    H2 7543   2.663   5.210  -0.043
 2513TIP3   OH2 7544   2.089   1.430   1.504
 2513TIP3    H1 7545   2.047   1.515   1.509
 2513TIP3    H2 7546   2.182   1.447   1.519
 2514TIP3   OH2 7547   6.004   4.104   5.043
 2514TIP3    H1 7548   6.061   4.028   5.027
 2514TIP3    H2 7549   6.032   4.137   5.128
 2515TIP3   OH2 7550   3.049   4.328   3.431
 2515TIP3    H1 7551   3.023   4.397   3.369
 2515TIP3    H2 7552   3.010   4.249   3.395
 2516TIP3   OH2 7553   0.746   1.600   1.601
 2516TIP3    H1 7554   0.819   1.649   1.639
 2516TIP3    H2 7555   0.690   1.579   1.675
 2517TIP3   OH2 7556   5.952   3.330   0.803
 2517TIP3    H1 7557   5.943   3.411   0.853
 2517TIP3    H2 7558   6.046   3.309   0.807
 2518TIP3   OH2 7559   5.700   0.492   1.080
 2518TIP3    H1 7560   5.607   0.515   1.076
 2518TIP3    H2 7561   5.745   0.575   1.087
 2519TIP3   OH2 7562   4.887   0.559   2.981
 2519TIP3    H1 7563   4.949   0.633   2.983
 2519TIP3    H2 7564   4.828   0.576   3.054
 2520TIP3   OH2 7565   3.462   0.351   4.500
 2520TIP3    H1 7566   3.488   0.274   4.449
 2520TIP3    H2 7567   3.407   0.401   4.440
 2521TIP3   OH2 7568   0.283   3.613   1.541
 2521TIP3    H1 7569   0.202   3.576   1.506
 2521TIP3    H2 7570   0.294   3.695   1.492
 2522TIP3   OH2 7571   1.887   2.747   1.394
 2522TIP3    H1 7572   1.883   2.819   1.331
 2522TIP3    H2 7573   1.978   2.747   1.423
 2523TIP3   OH2 7574   4.279   5.902   3.722
 2523TIP3    H1 7575   4.216   5.862   3.782
 2523TIP3    H2 7576   4.229   5.917   3.642
 2524TIP3   OH2 7577   1.047   4.731   3.905
 2524TIP3    H1 7578   1.121   4.789   3.924
 2524TIP3    H2 7579   1.086   4.643   3.900
 2525TIP3   OH2 7580   2.648   0.269   3.261
 2525TIP3    H1 7581   2.684   0.294   3.346
 2525TIP3    H2 7582   2.569   0.219   3.283
 2526TIP3   OH2 7583   5.476   2.534   2.166
 2526TIP3    H1 7584   5.457   2.518   2.073
 2526TIP3    H2 7585   5.465   2.448   2.207
 2527TIP3   OH2 7586   5.162   5.824   3.345
 2527TIP3    H1 7587   5.104   5.894   3.316
 2527TIP3    H2 7588   5.148   5.818   3.439
 2528TIP3   OH2 7589   1.674   4.753   2.071
 2528TIP3    H1 7590   1.664   4.826   2.011
 2528TIP3    H2 7591   1.589   4.710   2.072
 2529TIP3   OH2 7592   4.121   0.866   0.595
 2529TIP3    H1 7593   4.079   0.943   0.555
 2529TIP3    H2 7594   4.110   0.879   0.689
 2530TIP3   OH2 7595   3.640   3.300   0.167
 2530TIP3    H1 7596   3.726   3.332   0.139
 2530TIP3    H2 7597   3.583   3.376   0.159
 2531TIP3   OH2 7598   5.274   3.634   0.298
 2531TIP3    H1 7599   5.329   3.583   0.238
 2531TIP3    H2 7600   5.300   3.604   0.385
 2532TIP3   OH2 7601   2.255   2.726   2.224
 2532TIP3    H1 7602   2.255   2.656   2.160
 2532TIP3    H2 7603   2.347   2.744   2.241
 2533TIP3   OH2 7604   3.269   3.869   4.915
 2533TIP3    H1 7605   3.320   3.789   4.929
 2533TIP3    H2 7606   3.197   3.843   4.858
 2534TIP3   OH2 7607   5.908   4.480   1.469
 2534TIP3    H1 7608   5.864   4.562   1.490
 2534TIP3    H2 7609   5.842   4.428   1.422
 2535TIP3   OH2 7610   5.699   4.267   1.469
 2535TIP3    H1 7611   5.758   4.256   1.543
 2535TIP3    H2 7612   5.670   4.178   1.447
 2536TIP3   OH2 7613   6.007   5.359   1.914
 2536TIP3    H1 7614   6.015   5.440   1.863
 2536TIP3    H2 7615   6.049   5.379   1.997
 2537TIP3   OH2 7616   0.342   4.558   2.994
 2537TIP3    H1 7617   0.287   4.510   3.056
 2537TIP3    H2 7618   0.380   4.629   3.045
 2538TIP3   OH2 7619   1.661   0.460   0.440
 2538TIP3    H1 7620   1.655   0.551   0.471
 2538TIP3    H2 7621   1.717   0.465   0.363
 2539TIP3   OH2 7622   2.502   0.728   4.478
 2539TIP3    H1 7623   2.585   0.755   4.517
 2539TIP3    H2 7624   2.485   0.641   4.512
 2540TIP3   OH2 7625   3.651   3.578   2.626
 2540TIP3    H1 7626   3.598   3.499   2.625
 2540TIP3    H2 7627   3.741   3.547   2.636
 2541TIP3   OH2 7628   0.679   2.178   1.181
 2541TIP3    H1 7629   0.684   2.082   1.177
 2541TIP3    H2 7630   0.587   2.198   1.164
 2542TIP3   OH2 7631   1.744   2.360   4.825
 2542TIP3    H1 7632   1.800   2.405   4.762
 2542TIP3    H2 7633   1.723   2.276   4.785
 2543TIP3   OH2 7634   0.622   5.670   3.738
 2543TIP3    H1 7635   0.533   5.695   3.714
 2543TIP3    H2 7636   0.655   5.745   3.788
 2544TIP3   OH2 7637   1.956   1.282   1.211
 2544TIP3    H1 7638   1.981   1.276   1.304
 2544TIP3    H2 7639   1.956   1.376   1.193
 2545TIP3   OH2 7640   3.749   3.629   4.818
 2545TIP3    H1 7641   3.763   3.571   4.743
 2545TIP3    H2 7642   3.668   3.675   4.798
 2546TIP3   OH2 7643   5.292   3.876   1.935
 2546TIP3    H1 7644   5.202   3.880   1.901
 2546TIP3    H2 7645   5.314   3.783   1.933
 2547TIP3   OH2 7646   3.408   3.250   0.280
 2547TIP3    H1 7647   3.363   3.313   0.223
 2547TIP3    H2 7648   3.497   3.245   0.244
 2548TIP3   OH2 7649   1.805   5.584   1.480
 2548TIP3    H1 7650   1.876   5.649   1.486
 2548TIP3    H2 7651   1.725   5.635   1.483
 2549TIP3   OH2 7652   5.603   3.557   4.072
 2549TIP3    H1 7653   5.598   3.546   4.167
 2549TIP3    H2 7654   5.650   3.640   4.060
 2550TIP3   OH2 7655   0.175   4.190   1.172
 2550TIP3    H1 7656   0.145   4.280   1.160
 2550TIP3    H2 7657   0.267   4.192   1.146
 2551TIP3   OH2 7658   5.800   3.849   2.162
 2551TIP3    H1 7659   5.822   3.914   2.228
 2551TIP3    H2 7660   5.798   3.897   2.080
 2552TIP3   OH2 7661   2.525   1.370   0.721
 2552TIP3    H1 7662   2.486   1.290   0.756
 2552TIP3    H2 7663   2.460   1.438   0.740
 2553TIP3   OH2 7664   5.396   0.393   0.348
 2553TIP3    H1 7665   5.436   0.422   0.265
 2553TIP3    H2 7666   5.450   0.434   0.416
 2554TIP3   OH2 7667   5.818   1.505   1.803
 2554TIP3    H1 7668   5.800   1.524   1.711
 2554TIP3    H2 7669   5.736   1.468   1.836
 2555TIP3   OH2 7670   3.603   0.184   2.324
 2555TIP3    H1 7671   3.601   0.276   2.295
 2555TIP3    H2 7672   3.644   0.137   2.251
 2556TIP3   OH2 7673   3.773   3.114   1.723
 2556TIP3    H1 7674   3.748   3.041   1.667
 2556TIP3    H2 7675   3.759   3.082   1.812
 2557TIP3   OH2 7676   5.203   4.603   1.406
 2557TIP3    H1 7677   5.130   4.546   1.431
 2557TIP3    H2 7678   5.281   4.555   1.435
 2558TIP3   OH2 7679   4.915   5.478   2.969
 2558TIP3    H1 7680   4.979   5.545   2.996
 2558TIP3    H2 7681   4.962   5.395   2.980
 2559TIP3   OH2 7682   4.343   0.564   2.353
 2559TIP3    H1 7683   4.284   0.557   2.428
 2559TIP3    H2 7684   4.352   0.658   2.337
 2560TIP3   OH2 7685   4.324   2.358   0.804
 2560TIP3    H1 7686   4.351   2.357   0.896
 2560TIP3    H2 7687   4.254   2.294   0.799
 2561TIP3   OH2 7688   2.793   0.536   0.430
 2561TIP3    H1 7689   2.701   0.513   0.425
 2561TIP3    H2 7690   2.825   0.527   0.340
 2562TIP3   OH2 7691   6.177   0.594   0.440
 2562TIP3    H1 7692   6.254   0.636   0.402
 2562TIP3    H2 7693   6.128   0.666   0.479
 2563TIP3   OH2 7694   2.433   5.096   3.729
 2563TIP3    H1 7695   2.369   5.166   3.714
 2563TIP3    H2 7696   2.388   5.016   3.705
 2564TIP3   OH2 7697   1.490   5.016   3.299
 2564TIP3    H1 7698   1.479   5.109   3.280
 2564TIP3    H2 7699   1.583   4.999   3.282
 2565TIP3   OH2 7700   3.336   3.689   1.515
 2565TIP3    H1 7701   3.418   3.649   1.486
 2565TIP3    H2 7702   3.298   3.625   1.575
 2566TIP3   OH2 7703   6.141   4.401   2.268
 2566TIP3    H1 7704   6.092   4.417   2.348
 2566TIP3    H2 7705   6.158   4.488   2.231
 2567TIP3   OH2 7706   2.509   4.959   3.256
 2567TIP3    H1 7707   2.481   4.891   3.195
 2567TIP3    H2 7708   2.508   4.918   3.342
 2568TIP3   OH2 7709   1.439   5.581   3.272
 2568TIP3    H1 7710   1.461   5.670   3.301
 2568TIP3    H2 7711   1.355   5.590   3.228
 2569TIP3   OH2 7712   4.858   1.289   3.497
 2569TIP3    H1 7713   4.932   1.246   3.539
 2569TIP3    H2 7714   4.868   1.268   3.404
 2570TIP3   OH2 7715   1.319   0.050   5.126
 2570TIP3    H1 7716   1.290   0.037   5.216
 2570TIP3    H2 7717   1.238   0.055   5.075
 2571TIP3   OH2 7718   0.994   1.111   1.204
 2571TIP3    H1 7719   0.980   1.029   1.252
 2571TIP3    H2 7720   0.906   1.141   1.183
 2572TIP3   OH2 7721   3.526   5.847   1.012
 2572TIP3    H1 7722   3.594   5.898   0.966
 2572TIP3    H2 7723   3.537   5.758   0.979
 2573TIP3   OH2 7724   6.160   2.029   1.161
 2573TIP3    H1 7725   6.203   2.114   1.146
 2573TIP3    H2 7726   6.151   2.025   1.257
 2574TIP3   OH2 7727   1.196   0.477   1.735
 2574TIP3    H1 7728   1.282   0.434   1.730
 2574TIP3    H2 7729   1.165   0.456   1.823
 2575TIP3   OH2 7730   5.063   5.661   1.092
 2575TIP3    H1 7731   5.084   5.596   1.026
 2575TIP3    H2 7732   5.141   5.665   1.148
 2576TIP3   OH2 7733   1.810   1.894   4.240
 2576TIP3    H1 7734   1.899   1.866   4.218
 2576TIP3    H2 7735   1.801   1.981   4.201
 2577TIP3   OH2 7736   1.628   2.564   2.392
 2577TIP3    H1 7737   1.557   2.502   2.374
 2577TIP3    H2 7738   1.687   2.516   2.450
 2578TIP3   OH2 7739   4.164   5.094   3.804
 2578TIP3    H1 7740   4.086   5.040   3.797
 2578TIP3    H2 7741   4.233   5.043   3.762
 2579TIP3   OH2 7742   4.656   2.324   4.011
 2579TIP3    H1 7743   4.677   2.278   4.092
 2579TIP3    H2 7744   4.716   2.288   3.946
 2580TIP3   OH2 7745   6.138   4.811   2.866
 2580TIP3    H1 7746   6.136   4.806   2.961
 2580TIP3    H2 7747   6.099   4.729   2.837
 2581TIP3   OH2 7748   2.044   1.064   3.806
 2581TIP3    H1 7749   2.092   1.017   3.874
 2581TIP3    H2 7750   2.109   1.079   3.737
 2582TIP3   OH2 7751   0.134   1.775   5.034
 2582TIP3    H1 7752   0.115   1.845   5.096
 2582TIP3    H2 7753   0.129   1.695   5.086
 2583TIP3   OH2 7754   1.742   1.631   4.319
 2583TIP3    H1 7755   1.674   1.580   4.274
 2583TIP3    H2 7756   1.820   1.576   4.313
 2584TIP3   OH2 7757   1.751   5.454   4.965
 2584TIP3    H1 7758   1.806   5.401   4.908
 2584TIP3    H2 7759   1.808   5.526   4.992
 2585TIP3   OH2 7760   4.541   1.451   1.527
 2585TIP3    H1 7761   4.550   1.421   1.437
 2585TIP3    H2 7762   4.632   1.458   1.558
 2586TIP3   OH2 7763   0.499   1.192   1.788
 2586TIP3    H1 7764   0.510   1.110   1.836
 2586TIP3    H2 7765   0.588   1.218   1.764
 2587TIP3   OH2 7766   0.175   5.209   1.778
 2587TIP3    H1 7767   0.188   5.258   1.696
 2587TIP3    H2 7768   0.246   5.239   1.834
 2588TIP3   OH2 7769   1.281   0.176   3.199
 2588TIP3    H1 7770   1.353   0.129   3.243
 2588TIP3    H2 7771   1.253   0.241   3.263
 2589TIP3   OH2 7772   3.788   0.795   1.876
 2589TIP3    H1 7773   3.778   0.795   1.971
 2589TIP3    H2 7774   3.714   0.742   1.844
 2590TIP3   OH2 7775   3.307   5.925   1.232
 2590TIP3    H1 7776   3.301   5.938   1.138
 2590TIP3    H2 7777   3.218   5.942   1.264
 2591TIP3   OH2 7778   1.779   2.249   4.339
 2591TIP3    H1 7779   1.823   2.191   4.278
 2591TIP3    H2 7780   1.802   2.214   4.426
 2592TIP3   OH2 7781   6.048   3.848   0.367
 2592TIP3    H1 7782   6.074   3.928   0.321
 2592TIP3    H2 7783   6.123   3.789   0.356
 2593TIP3   OH2 7784   1.149   4.283   4.389
 2593TIP3    H1 7785   1.208   4.210   4.408
 2593TIP3    H2 7786   1.072   4.242   4.349
 2594TIP3   OH2 7787   2.011   0.550   1.397
 2594TIP3    H1 7788   1.998   0.581   1.487
 2594TIP3    H2 7789   2.014   0.630   1.345
 2595TIP3   OH2 7790   5.715   5.136   2.391
 2595TIP3    H1 7791   5.701   5.229   2.405
 2595TIP3    H2 7792   5.627   5.099   2.384
 2596TIP3   OH2 7793   0.477   5.799   2.065
 2596TIP3    H1 7794   0.501   5.891   2.067
 2596TIP3    H2 7795   0.432   5.784   2.148
 2597TIP3   OH2 7796   4.115   3.886   0.962
 2597TIP3    H1 7797   4.132   3.955   0.897
 2597TIP3    H2 7798   4.201   3.850   0.981
 2598TIP3   OH2 7799   3.312   2.570   0.345
 2598TIP3    H1 7800   3.244   2.636   0.332
 2598TIP3    H2 7801   3.286   2.524   0.424
 2599TIP3   OH2 7802   2.270   3.277   2.894
 2599TIP3    H1 7803   2.339   3.257   2.831
 2599TIP3    H2 7804   2.189   3.269   2.843
 2600TIP3   OH2 7805   1.612   4.996   3.743
 2600TIP3    H1 7806   1.627   4.909   3.708
 2600TIP3    H2 7807   1.518   5.010   3.732
 2601TIP3   OH2 7808   0.854   0.911   1.341
 2601TIP3    H1 7809   0.792   0.957   1.398
 2601TIP3    H2 7810   0.803   0.840   1.303
 2602TIP3   OH2 7811   4.673   3.436   1.358
 2602TIP3    H1 7812   4.715   3.522   1.363
 2602TIP3    H2 7813   4.579   3.454   1.366
 2603TIP3   OH2 7814   4.655   0.644   4.878
 2603TIP3    H1 7815   4.560   0.654   4.870
 2603TIP3    H2 7816   4.687   0.732   4.896
 2604TIP3   OH2 7817   1.493   3.148   1.650
 2604TIP3    H1 7818   1.484   3.086   1.722
 2604TIP3    H2 7819   1.539   3.222   1.687
 2605TIP3   OH2 7820   6.215   4.474   2.533
 2605TIP3    H1 7821   6.203   4.566   2.513
 2605TIP3    H2 7822   6.307   4.456   2.515
 2606TIP3   OH2 7823   4.348   4.241   1.333
 2606TIP3    H1 7824   4.317   4.196   1.255
 2606TIP3    H2 7825   4.379   4.326   1.300
 2607TIP3   OH2 7826   1.189   3.918   2.152
 2607TIP3    H1 7827   1.266   3.862   2.163
 2607TIP3    H2 7828   1.146   3.917   2.238
 2608TIP3   OH2 7829   2.306   0.611   2.214
 2608TIP3    H1 7830   2.269   0.522   2.209
 2608TIP3    H2 7831   2.378   0.603   2.276
 2609TIP3   OH2 7832   1.502   3.548   3.989
 2609TIP3    H1 7833   1.468   3.506   4.069
 2609TIP3    H2 7834   1.423   3.579   3.943
 2610TIP3   OH2 7835   1.760   3.381   1.124
 2610TIP3    H1 7836   1.811   3.410   1.199
 2610TIP3    H2 7837   1.807   3.304   1.091
 2611TIP3   OH2 7838   5.533   2.502   4.768
 2611TIP3    H1 7839   5.569   2.575   4.818
 2611TIP3    H2 7840   5.452   2.479   4.813
 2612TIP3   OH2 7841   4.788   0.595   4.009
 2612TIP3    H1 7842   4.709   0.565   3.963
 2612TIP3    H2 7843   4.757   0.662   4.069
 2613TIP3   OH2 7844   2.570   5.922   0.160
 2613TIP3    H1 7845   2.550   5.921   0.067
 2613TIP3    H2 7846   2.578   6.015   0.182
 2614TIP3   OH2 7847   4.265   5.052   1.340
 2614TIP3    H1 7848   4.286   5.138   1.303
 2614TIP3    H2 7849   4.173   5.037   1.318
 2615TIP3   OH2 7850   2.802   1.760   3.824
 2615TIP3    H1 7851   2.890   1.722   3.834
 2615TIP3    H2 7852   2.810   1.848   3.861
 2616TIP3   OH2 7853   0.613   4.818   1.775
 2616TIP3    H1 7854   0.707   4.805   1.787
 2616TIP3    H2 7855   0.575   4.804   1.862
 2617TIP3   OH2 7856   2.070   2.723   3.466
 2617TIP3    H1 7857   2.124   2.766   3.532
 2617TIP3    H2 7858   1.990   2.699   3.513
 2618TIP3   OH2 7859   0.487   3.420   3.731
 2618TIP3    H1 7860   0.434   3.484   3.777
 2618TIP3    H2 7861   0.541   3.472   3.671
 2619TIP3   OH2 7862   3.479   2.051   0.866
 2619TIP3    H1 7863   3.420   1.992   0.913
 2619TIP3    H2 7864   3.462   2.033   0.773
 2620TIP3   OH2 7865   4.760   0.124   3.795
 2620TIP3    H1 7866   4.747   0.157   3.707
 2620TIP3    H2 7867   4.764   0.202   3.851
 2621TIP3   OH2 7868   2.617   3.919   1.740
 2621TIP3    H1 7869   2.544   3.941   1.797
 2621TIP3    H2 7870   2.600   3.829   1.712
 2622TIP3   OH2 7871   3.194   3.674   0.940
 2622TIP3    H1 7872   3.103   3.660   0.913
 2622TIP3    H2 7873   3.205   3.769   0.937
 2623TIP3   OH2 7874   6.139   0.974   3.180
 2623TIP3    H1 7875   6.122   0.934   3.095
 2623TIP3    H2 7876   6.203   1.043   3.162
 2624TIP3   OH2 7877   4.673   4.795   0.820
 2624TIP3    H1 7878   4.604   4.758   0.875
 2624TIP3    H2 7879   4.639   4.791   0.731
 2625TIP3   OH2 7880   4.188   2.040   4.623
 2625TIP3    H1 7881   4.129   2.082   4.560
 2625TIP3    H2 7882   4.228   1.969   4.573
 2626TIP3   OH2 7883   1.054   5.690   3.635
 2626TIP3    H1 7884   1.024   5.709   3.724
 2626TIP3    H2 7885   0.981   5.642   3.595
 2627TIP3   OH2 7886   5.791   5.682   4.960
 2627TIP3    H1 7887   5.853   5.755   4.960
 2627TIP3    H2 7888   5.721   5.710   5.019
 2628TIP3   OH2 7889   0.018   5.827   0.714
 2628TIP3    H1 7890  -0.052   5.862   0.769
 2628TIP3    H2 7891   0.035   5.740   0.749
 2629TIP3   OH2 7892   6.061   3.818   2.314
 2629TIP3    H1 7893   6.138   3.872   2.293
 2629TIP3    H2 7894   5.992   3.881   2.333
 2630TIP3   OH2 7895   5.547   0.951   1.023
 2630TIP3    H1 7896   5.585   0.865   1.044
 2630TIP3    H2 7897   5.600   0.984   0.951
 2631TIP3   OH2 7898   5.005   0.138   4.541
 2631TIP3    H1 7899   5.017   0.044   4.552
 2631TIP3    H2 7900   5.064   0.177   4.606
 2632TIP3   OH2 7901   3.678   4.971   1.439
 2632TIP3    H1 7902   3.597   4.921   1.431
 2632TIP3    H2 7903   3.698   4.999   1.350
 2633TIP3   OH2 7904   3.308   0.250   2.272
 2633TIP3    H1 7905   3.382   0.271   2.216
 2633TIP3    H2 7906   3.231   0.255   2.215
 2634TIP3   OH2 7907   3.799   4.166   4.791
 2634TIP3    H1 7908   3.818   4.086   4.839
 2634TIP3    H2 7909   3.884   4.208   4.779
 2635TIP3   OH2 7910   1.826   2.986   2.022
 2635TIP3    H1 7911   1.852   2.943   2.103
 2635TIP3    H2 7912   1.731   3.000   2.031
 2636TIP3   OH2 7913   1.797   5.379   2.692
 2636TIP3    H1 7914   1.795   5.376   2.596
 2636TIP3    H2 7915   1.797   5.287   2.718
 2637TIP3   OH2 7916   0.364   2.062   1.706
 2637TIP3    H1 7917   0.418   1.983   1.698
 2637TIP3    H2 7918   0.304   2.042   1.778
 2638TIP3   OH2 7919   4.512   5.475   4.546
 2638TIP3    H1 7920   4.594   5.428   4.559
 2638TIP3    H2 7921   4.453   5.440   4.612
 2639TIP3   OH2 7922   5.025   5.223   2.998
 2639TIP3    H1 7923   5.090   5.163   2.962
 2639TIP3    H2 7924   4.943   5.198   2.955
 2640TIP3   OH2 7925   0.038   2.930   3.142
 2640TIP3    H1 7926   0.019   2.897   3.230
 2640TIP3    H2 7927   0.079   3.015   3.156
 2641TIP3   OH2 7928   1.022   0.440   1.959
 2641TIP3    H1 7929   0.948   0.409   1.907
 2641TIP3    H2 7930   1.028   0.534   1.940
 2642TIP3   OH2 7931   1.573   3.984   1.427
 2642TIP3    H1 7932   1.485   4.008   1.455
 2642TIP3    H2 7933   1.594   4.047   1.358
 2643TIP3   OH2 7934   1.526   1.996   1.425
 2643TIP3    H1 7935   1.557   1.979   1.514
 2643TIP3    H2 7936   1.605   2.021   1.377
 2644TIP3   OH2 7937   0.911   1.613   3.565
 2644TIP3    H1 7938   1.000   1.594   3.535
 2644TIP3    H2 7939   0.909   1.708   3.576
 2645TIP3   OH2 7940   6.158   4.611   1.687
 2645TIP3    H1 7941   6.206   4.686   1.650
 2645TIP3    H2 7942   6.211   4.535   1.664
 2646TIP3   OH2 7943   0.954   1.005   2.093
 2646TIP3    H1 7944   1.007   1.041   2.021
 2646TIP3    H2 7945   1.017   0.988   2.163
 2647TIP3   OH2 7946   3.501   2.612   0.130
 2647TIP3    H1 7947   3.584   2.629   0.174
 2647TIP3    H2 7948   3.440   2.592   0.201
 2648TIP3   OH2 7949   0.702   4.761   2.374
 2648TIP3    H1 7950   0.713   4.819   2.449
 2648TIP3    H2 7951   0.772   4.786   2.314
 2649TIP3   OH2 7952   1.798   3.778   3.114
 2649TIP3    H1 7953   1.819   3.862   3.156
 2649TIP3    H2 7954   1.881   3.731   3.112
 2650TIP3   OH2 7955   2.991   5.193   1.623
 2650TIP3    H1 7956   3.027   5.156   1.704
 2650TIP3    H2 7957   2.898   5.201   1.640
 2651TIP3   OH2 7958   4.098   5.467   3.267
 2651TIP3    H1 7959   4.114   5.377   3.295
 2651TIP3    H2 7960   4.013   5.489   3.305
 2652TIP3   OH2 7961   2.519   5.016   1.583
 2652TIP3    H1 7962   2.578   5.014   1.508
 2652TIP3    H2 7963   2.480   4.929   1.586
 2653TIP3   OH2 7964   4.021   4.175   1.646
 2653TIP3    H1 7965   3.954   4.117   1.611
 2653TIP3    H2 7966   4.098   4.159   1.591
 2654TIP3   OH2 7967   3.541   5.019   0.479
 2654TIP3    H1 7968   3.551   4.924   0.472
 2654TIP3    H2 7969   3.534   5.049   0.388
 2655TIP3   OH2 7970   2.081   5.556   2.085
 2655TIP3    H1 7971   1.989   5.529   2.083
 2655TIP3    H2 7972   2.079   5.648   2.111
 2656TIP3   OH2 7973   3.638   5.410   1.872
 2656TIP3    H1 7974   3.667   5.500   1.886
 2656TIP3    H2 7975   3.551   5.417   1.833
 2657TIP3   OH2 7976   4.008   0.703   2.350
 2657TIP3    H1 7977   4.069   0.660   2.411
 2657TIP3    H2 7978   3.949   0.752   2.406
 2658TIP3   OH2 7979   5.234   0.779   5.159
 2658TIP3    H1 7980   5.216   0.869   5.132
 2658TIP3    H2 7981   5.293   0.788   5.234
 2659TIP3   OH2 7982   0.928   2.493   0.281
 2659TIP3    H1 7983   0.875   2.432   0.331
 2659TIP3    H2 7984   0.876   2.574   0.279
 2660TIP3   OH2 7985   4.048   4.732   4.374
 2660TIP3    H1 7986   4.101   4.811   4.387
 2660TIP3    H2 7987   3.988   4.754   4.303
 2661TIP3   OH2 7988   0.226   0.206   4.522
 2661TIP3    H1 7989   0.208   0.122   4.563
 2661TIP3    H2 7990   0.189   0.199   4.434
 2662TIP3   OH2 7991   5.587   2.875   0.346
 2662TIP3    H1 7992   5.504   2.839   0.375
 2662TIP3    H2 7993   5.599   2.955   0.397
 2663TIP3   OH2 7994   5.735   5.577   3.798
 2663TIP3    H1 7995   5.821   5.535   3.800
 2663TIP3    H2 7996   5.674   5.506   3.818
 2664TIP3   OH2 7997   2.493   4.142   2.426
 2664TIP3    H1 7998   2.543   4.221   2.447
 2664TIP3    H2 7999   2.441   4.166   2.350
 2665TIP3   OH2 8000   1.409   1.260   2.801
 2665TIP3    H1 8001   1.469   1.258   2.876
 2665TIP3    H2 8002   1.403   1.169   2.772
 2666TIP3   OH2 8003   6.131   3.538   0.264
 2666TIP3    H1 8004   6.072   3.558   0.191
 2666TIP3    H2 8005   6.074   3.496   0.329
 2667TIP3   OH2 8006   3.468   2.395   0.695
 2667TIP3    H1 8007   3.419   2.314   0.710
 2667TIP3    H2 8008   3.402   2.464   0.701
 2668TIP3   OH2 8009   1.357   0.419   2.274
 2668TIP3    H1 8010   1.387   0.412   2.365
 2668TIP3    H2 8011   1.291   0.489   2.276
 2669TIP3   OH2 8012   0.128   0.194   0.018
 2669TIP3    H1 8013   0.219   0.222   0.011
 2669TIP3    H2 8014   0.088   0.256   0.078
 2670TIP3   OH2 8015   1.900   2.922   2.494
 2670TIP3    H1 8016   1.949   2.913   2.412
 2670TIP3    H2 8017   1.880   3.015   2.501
 2671TIP3   OH2 8018   4.507   2.610   0.778
 2671TIP3    H1 8019   4.483   2.641   0.866
 2671TIP3    H2 8020   4.532   2.689   0.731
 2672TIP3   OH2 8021   0.245   2.731   3.891
 2672TIP3    H1 8022   0.164   2.742   3.841
 2672TIP3    H2 8023   0.223   2.667   3.959
 2673TIP3   OH2 8024   3.943   3.835   1.153
 2673TIP3    H1 8025   3.870   3.897   1.151
 2673TIP3    H2 8026   4.005   3.867   1.088
 2674TIP3   OH2 8027   3.945   4.553   4.125
 2674TIP3    H1 8028   3.899   4.634   4.146
 2674TIP3    H2 8029   3.913   4.490   4.190
 2675TIP3   OH2 8030   2.920   0.404   2.381
 2675TIP3    H1 8031   2.846   0.409   2.321
 2675TIP3    H2 8032   2.997   0.411   2.325
 2676TIP3   OH2 8033   3.872   4.162   5.141
 2676TIP3    H1 8034   3.805   4.125   5.084
 2676TIP3    H2 8035   3.951   4.113   5.120
 2677TIP3   OH2 8036   0.323   5.602   3.562
 2677TIP3    H1 8037   0.259   5.653   3.611
 2677TIP3    H2 8038   0.283   5.586   3.477
 2678TIP3   OH2 8039   0.530   1.046   4.483
 2678TIP3    H1 8040   0.552   0.976   4.421
 2678TIP3    H2 8041   0.590   1.032   4.557
 2679TIP3   OH2 8042   2.881   5.054   2.658
 2679TIP3    H1 8043   2.895   5.122   2.724
 2679TIP3    H2 8044   2.787   5.058   2.638
 2680TIP3   OH2 8045   4.186   4.855   0.857
 2680TIP3    H1 8046   4.165   4.801   0.933
 2680TIP3    H2 8047   4.186   4.945   0.891
 2681TIP3   OH2 8048   2.295   3.596   3.705
 2681TIP3    H1 8049   2.338   3.541   3.639
 2681TIP3    H2 8050   2.302   3.545   3.786
 2682TIP3   OH2 8051   5.895   0.355   1.853
 2682TIP3    H1 8052   5.851   0.434   1.887
 2682TIP3    H2 8053   5.844   0.331   1.776
 2683TIP3   OH2 8054   4.460   5.253   4.242
 2683TIP3    H1 8055   4.552   5.278   4.256
 2683TIP3    H2 8056   4.462   5.158   4.235
 2684TIP3   OH2 8057   2.056   3.458   4.601
 2684TIP3    H1 8058   2.066   3.511   4.522
 2684TIP3    H2 8059   2.139   3.468   4.647
 2685TIP3   OH2 8060   6.075   4.623  -0.057
 2685TIP3    H1 8061   5.992   4.649  -0.017
 2685TIP3    H2 8062   6.142   4.658   0.003
 2686TIP3   OH2 8063   4.279   1.133   3.651
 2686TIP3    H1 8064   4.364   1.091   3.642
 2686TIP3    H2 8065   4.284   1.179   3.735
 2687TIP3   OH2 8066   4.072   2.251   4.483
 2687TIP3    H1 8067   4.138   2.321   4.483
 2687TIP3    H2 8068   3.991   2.296   4.458
 2688TIP3   OH2 8069   2.501   4.803   3.035
 2688TIP3    H1 8070   2.561   4.729   3.033
 2688TIP3    H2 8071   2.449   4.794   2.955
 2689TIP3   OH2 8072   2.075   2.326   4.524
 2689TIP3    H1 8073   2.160   2.361   4.495
 2689TIP3    H2 8074   2.063   2.247   4.471
 2690TIP3   OH2 8075   5.399   4.882   0.959
 2690TIP3    H1 8076   5.340   4.874   0.884
 2690TIP3    H2 8077   5.374   4.811   1.017
 2691TIP3   OH2 8078   4.752   2.831   2.872
 2691TIP3    H1 8079   4.769   2.833   2.778
 2691TIP3    H2 8080   4.743   2.923   2.898
 2692TIP3   OH2 8081   5.880   2.799   0.062
 2692TIP3    H1 8082   5.842   2.723   0.019
 2692TIP3    H2 8083   5.873   2.869  -0.002
 2693TIP3   OH2 8084   0.959   3.958   1.043
 2693TIP3    H1 8085   1.043   3.954   1.090
 2693TIP3    H2 8086   0.976   4.018   0.970
 2694TIP3   OH2 8087   0.191   3.131   5.160
 2694TIP3    H1 8088   0.211   3.187   5.085
 2694TIP3    H2 8089   0.101   3.152   5.183
 2695TIP3   OH2 8090   5.930   0.129   4.809
 2695TIP3    H1 8091   5.987   0.197   4.846
 2695TIP3    H2 8092   5.854   0.128   4.867
 2696TIP3   OH2 8093   3.600   1.252   0.275
 2696TIP3    H1 8094   3.615   1.226   0.184
 2696TIP3    H2 8095   3.507   1.276   0.278
 2697TIP3   OH2 8096   0.444   1.738   2.727
 2697TIP3    H1 8097   0.414   1.724   2.637
 2697TIP3    H2 8098   0.456   1.650   2.762
 2698TIP3   OH2 8099   1.203   3.023   0.322
 2698TIP3    H1 8100   1.200   3.111   0.359
 2698TIP3    H2 8101   1.128   3.019   0.263
 2699TIP3   OH2 8102   4.432   0.048   2.770
 2699TIP3    H1 8103   4.358  -0.014   2.768
 2699TIP3    H2 8104   4.455   0.060   2.678
 2700TIP3   OH2 8105   0.760   3.624   0.501
 2700TIP3    H1 8106   0.686   3.643   0.558
 2700TIP3    H2 8107   0.835   3.616   0.559
 2701TIP3   OH2 8108   2.744   1.487  -0.037
 2701TIP3    H1 8109   2.836   1.480  -0.059
 2701TIP3    H2 8110   2.743   1.502   0.058
 2702TIP3   OH2 8111   4.550   3.815   2.101
 2702TIP3    H1 8112   4.568   3.735   2.150
 2702TIP3    H2 8113   4.478   3.857   2.149
 2703TIP3   OH2 8114   0.480   0.813   1.328
 2703TIP3    H1 8115   0.559   0.798   1.276
 2703TIP3    H2 8116   0.513   0.835   1.415
 2704TIP3   OH2 8117   4.988   3.821   2.472
 2704TIP3    H1 8118   5.012   3.799   2.382
 2704TIP3    H2 8119   4.917   3.884   2.463
 2705TIP3   OH2 8120   3.769   3.998   1.790
 2705TIP3    H1 8121   3.716   4.077   1.773
 2705TIP3    H2 8122   3.709   3.939   1.835
 2706TIP3   OH2 8123   2.764   1.799   0.209
 2706TIP3    H1 8124   2.734   1.711   0.185
 2706TIP3    H2 8125   2.743   1.807   0.302
 2707TIP3   OH2 8126   5.263   0.966   1.680
 2707TIP3    H1 8127   5.237   1.025   1.751
 2707TIP3    H2 8128   5.231   1.009   1.600
 2708TIP3   OH2 8129   1.696   2.569   0.082
 2708TIP3    H1 8130   1.700   2.570  -0.014
 2708TIP3    H2 8131   1.625   2.509   0.103
 2709TIP3   OH2 8132   6.016   2.217   3.632
 2709TIP3    H1 8133   6.000   2.133   3.588
 2709TIP3    H2 8134   6.106   2.211   3.664
 2710TIP3   OH2 8135   4.088   1.403   3.160
 2710TIP3    H1 8136   4.164   1.407   3.219
 2710TIP3    H2 8137   4.045   1.321   3.183
 2711TIP3   OH2 8138   3.636   0.713   3.922
 2711TIP3    H1 8139   3.670   0.773   3.856
 2711TIP3    H2 8140   3.550   0.687   3.890
 2712TIP3   OH2 8141   1.076   1.613   5.055
 2712TIP3    H1 8142   1.122   1.530   5.039
 2712TIP3    H2 8143   1.141   1.669   5.097
 2713TIP3   OH2 8144   0.847   5.728   4.299
 2713TIP3    H1 8145   0.921   5.700   4.246
 2713TIP3    H2 8146   0.839   5.821   4.282
 2714TIP3   OH2 8147   2.434   4.949   4.794
 2714TIP3    H1 8148   2.341   4.941   4.771
 2714TIP3    H2 8149   2.457   5.038   4.768
 2715TIP3   OH2 8150   3.623   0.389   0.502
 2715TIP3    H1 8151   3.694   0.446   0.529
 2715TIP3    H2 8152   3.553   0.406   0.565
 2716TIP3   OH2 8153   1.147   5.648   4.420
 2716TIP3    H1 8154   1.090   5.571   4.422
 2716TIP3    H2 8155   1.232   5.615   4.449
 2717TIP3   OH2 8156   0.559   1.367   0.866
 2717TIP3    H1 8157   0.484   1.380   0.808
 2717TIP3    H2 8158   0.628   1.424   0.831
 2718TIP3   OH2 8159   2.692   2.047   0.900
 2718TIP3    H1 8160   2.781   2.031   0.868
 2718TIP3    H2 8161   2.636   2.033   0.823
 2719TIP3   OH2 8162   1.894   5.398   2.209
 2719TIP3    H1 8163   1.938   5.330   2.156
 2719TIP3    H2 8164   1.812   5.414   2.162
 2720TIP3   OH2 8165   4.641   2.685   5.115
 2720TIP3    H1 8166   4.660   2.666   5.023
 2720TIP3    H2 8167   4.553   2.722   5.115
 2721TIP3   OH2 8168   6.144   5.928   0.847
 2721TIP3    H1 8169   6.104   5.848   0.882
 2721TIP3    H2 8170   6.097   5.944   0.765
 2722TIP3   OH2 8171   3.546   4.694   4.319
 2722TIP3    H1 8172   3.610   4.630   4.288
 2722TIP3    H2 8173   3.535   4.755   4.247
 2723TIP3   OH2 8174   0.310   5.333   3.897
 2723TIP3    H1 8175   0.222   5.335   3.933
 2723TIP3    H2 8176   0.322   5.242   3.870
 2724TIP3   OH2 8177   3.413   5.903   0.324
 2724TIP3    H1 8178   3.355   5.837   0.362
 2724TIP3    H2 8179   3.484   5.853   0.284
 2725TIP3   OH2 8180   6.097   2.878   2.550
 2725TIP3    H1 8181   6.129   2.965   2.573
 2725TIP3    H2 8182   6.124   2.822   2.622
 2726TIP3   OH2 8183   0.738   1.156   2.047
 2726TIP3    H1 8184   0.815   1.102   2.066
 2726TIP3    H2 8185   0.667   1.113   2.096
 2727TIP3   OH2 8186   3.725   1.978   0.516
 2727TIP3    H1 8187   3.762   2.066   0.515
 2727TIP3    H2 8188   3.648   1.985   0.573
 2728TIP3   OH2 8189   6.227   0.570   4.339
 2728TIP3    H1 8190   6.208   0.663   4.349
 2728TIP3    H2 8191   6.291   0.551   4.409
 2729TIP3   OH2 8192   2.688   4.530   1.871
 2729TIP3    H1 8193   2.700   4.514   1.965
 2729TIP3    H2 8194   2.696   4.443   1.831
 2730TIP3   OH2 8195   5.681   5.715   2.552
 2730TIP3    H1 8196   5.767   5.720   2.509
 2730TIP3    H2 8197   5.692   5.648   2.619
 2731TIP3   OH2 8198   2.474   0.539   3.459
 2731TIP3    H1 8199   2.412   0.596   3.503
 2731TIP3    H2 8200   2.511   0.594   3.389
 2732TIP3   OH2 8201   5.468   0.625   1.089
 2732TIP3    H1 8202   5.441   0.644   1.178
 2732TIP3    H2 8203   5.395   0.574   1.052
 2733TIP3   OH2 8204   1.478   4.568   2.137
 2733TIP3    H1 8205   1.385   4.551   2.150
 2733TIP3    H2 8206   1.518   4.481   2.135
 2734TIP3   OH2 8207   0.751   1.338   3.448
 2734TIP3    H1 8208   0.791   1.341   3.361
 2734TIP3    H2 8209   0.709   1.423   3.457
 2735TIP3   OH2 8210   5.930   4.176   3.666
 2735TIP3    H1 8211   5.884   4.218   3.738
 2735TIP3    H2 8212   6.000   4.237   3.642
 2736TIP3   OH2 8213   4.859   4.538   2.969
 2736TIP3    H1 8214   4.886   4.536   3.061
 2736TIP3    H2 8215   4.941   4.548   2.920
 2737TIP3   OH2 8216   4.841   1.562   3.530
 2737TIP3    H1 8217   4.789   1.482   3.540
 2737TIP3    H2 8218   4.914   1.551   3.591
 2738TIP3   OH2 8219   2.799   2.463   0.849
 2738TIP3    H1 8220   2.738   2.446   0.921
 2738TIP3    H2 8221   2.855   2.534   0.881
 2739TIP3   OH2 8222   1.190   5.729   3.042
 2739TIP3    H1 8223   1.100   5.714   3.012
 2739TIP3    H2 8224   1.196   5.682   3.125
 2740TIP3   OH2 8225   4.651   0.482   0.233
 2740TIP3    H1 8226   4.713   0.552   0.215
 2740TIP3    H2 8227   4.587   0.489   0.162
 2741TIP3   OH2 8228   5.525   4.145   2.528
 2741TIP3    H1 8229   5.598   4.109   2.578
 2741TIP3    H2 8230   5.484   4.208   2.587
 2742TIP3   OH2 8231   6.271   1.026   1.382
 2742TIP3    H1 8232   6.265   0.951   1.440
 2742TIP3    H2 8233   6.319   0.995   1.306
 2743TIP3   OH2 8234   2.698   4.783   4.005
 2743TIP3    H1 8235   2.662   4.846   4.067
 2743TIP3    H2 8236   2.773   4.744   4.049
 2744TIP3   OH2 8237   2.249   1.581   4.992
 2744TIP3    H1 8238   2.278   1.637   4.920
 2744TIP3    H2 8239   2.317   1.514   4.998
 2745TIP3   OH2 8240   0.401   1.673   0.210
 2745TIP3    H1 8241   0.354   1.719   0.279
 2745TIP3    H2 8242   0.369   1.712   0.128
 2746TIP3   OH2 8243   3.564   4.205   4.955
 2746TIP3    H1 8244   3.504   4.280   4.958
 2746TIP3    H2 8245   3.641   4.238   4.907
 2747TIP3   OH2 8246   2.856   4.766   0.822
 2747TIP3    H1 8247   2.786   4.702   0.815
 2747TIP3    H2 8248   2.827   4.841   0.771
 2748TIP3   OH2 8249   4.582   4.032   4.671
 2748TIP3    H1 8250   4.520   4.021   4.743
 2748TIP3    H2 8251   4.548   3.975   4.602
 2749TIP3   OH2 8252   0.075   1.105   0.672
 2749TIP3    H1 8253  -0.009   1.150   0.658
 2749TIP3    H2 8254   0.084   1.047   0.597
 2750TIP3   OH2 8255   3.614   2.460   0.353
 2750TIP3    H1 8256   3.605   2.371   0.319
 2750TIP3    H2 8257   3.524   2.491   0.363
 2751TIP3   OH2 8258   2.394   1.800   2.035
 2751TIP3    H1 8259   2.482   1.804   1.997
 2751TIP3    H2 8260   2.392   1.873   2.096
 2752TIP3   OH2 8261   0.752   5.289   3.083
 2752TIP3    H1 8262   0.700   5.366   3.060
 2752TIP3    H2 8263   0.730   5.272   3.174
 2753TIP3   OH2 8264   6.183   3.551   1.445
 2753TIP3    H1 8265   6.215   3.554   1.535
 2753TIP3    H2 8266   6.262   3.538   1.392
 2754TIP3   OH2 8267   5.604   2.721   2.342
 2754TIP3    H1 8268   5.650   2.781   2.284
 2754TIP3    H2 8269   5.554   2.664   2.283
 2755TIP3   OH2 8270   1.299   0.893   3.718
 2755TIP3    H1 8271   1.261   0.812   3.683
 2755TIP3    H2 8272   1.305   0.877   3.812
 2756TIP3   OH2 8273   5.861   0.472   3.084
 2756TIP3    H1 8274   5.784   0.523   3.056
 2756TIP3    H2 8275   5.832   0.381   3.080
 2757TIP3   OH2 8276   4.012   0.473   1.583
 2757TIP3    H1 8277   4.020   0.526   1.504
 2757TIP3    H2 8278   3.962   0.396   1.555
 2758TIP3   OH2 8279   2.980   5.439   2.403
 2758TIP3    H1 8280   3.034   5.390   2.465
 2758TIP3    H2 8281   2.895   5.447   2.447
 2759TIP3   OH2 8282   2.873   4.233   0.184
 2759TIP3    H1 8283   2.848   4.302   0.245
 2759TIP3    H2 8284   2.968   4.226   0.193
 2760TIP3   OH2 8285   5.226   2.200   3.900
 2760TIP3    H1 8286   5.178   2.135   3.953
 2760TIP3    H2 8287   5.198   2.284   3.935
 2761TIP3   OH2 8288   3.406   5.331   3.408
 2761TIP3    H1 8289   3.322   5.287   3.422
 2761TIP3    H2 8290   3.385   5.424   3.413
 2762TIP3   OH2 8291   2.541   5.748   1.630
 2762TIP3    H1 8292   2.625   5.716   1.664
 2762TIP3    H2 8293   2.507   5.675   1.578
 2763TIP3   OH2 8294   4.628   2.376   4.803
 2763TIP3    H1 8295   4.574   2.307   4.842
 2763TIP3    H2 8296   4.598   2.382   4.713
 2764TIP3   OH2 8297   2.384   3.159   3.682
 2764TIP3    H1 8298   2.343   3.135   3.599
 2764TIP3    H2 8299   2.425   3.078   3.712
 2765TIP3   OH2 8300   4.403   1.808   4.667
 2765TIP3    H1 8301   4.328   1.836   4.721
 2765TIP3    H2 8302   4.410   1.714   4.683
 2766TIP3   OH2 8303   4.395   5.904   4.623
 2766TIP3    H1 8304   4.353   5.822   4.650
 2766TIP3    H2 8305   4.465   5.917   4.687
 2767TIP3   OH2 8306   2.887   0.660   2.078
 2767TIP3    H1 8307   2.879   0.565   2.091
 2767TIP3    H2 8308   2.811   0.697   2.123
 2768TIP3   OH2 8309   1.205   0.660   3.591
 2768TIP3    H1 8310   1.300   0.652   3.587
 2768TIP3    H2 8311   1.176   0.574   3.622
 2769TIP3   OH2 8312   0.668   5.777   0.617
 2769TIP3    H1 8313   0.760   5.793   0.638
 2769TIP3    H2 8314   0.659   5.681   0.617
 2770TIP3   OH2 8315   0.500   5.383   3.477
 2770TIP3    H1 8316   0.440   5.456   3.489
 2770TIP3    H2 8317   0.535   5.367   3.565
 2771TIP3   OH2 8318   1.660   3.511   2.140
 2771TIP3    H1 8319   1.578   3.470   2.167
 2771TIP3    H2 8320   1.692   3.555   2.219
 2772TIP3   OH2 8321   1.348   5.251   2.807
 2772TIP3    H1 8322   1.424   5.307   2.794
 2772TIP3    H2 8323   1.382   5.175   2.854
 2773TIP3   OH2 8324   1.350   3.856   5.152
 2773TIP3    H1 8325   1.284   3.844   5.221
 2773TIP3    H2 8326   1.401   3.775   5.154
 2774TIP3   OH2 8327   1.594   2.292   0.116
 2774TIP3    H1 8328   1.680   2.256   0.093
 2774TIP3    H2 8329   1.585   2.275   0.209
 2775TIP3   OH2 8330   5.438   4.281   1.197
 2775TIP3    H1 8331   5.372   4.313   1.135
 2775TIP3    H2 8332   5.521   4.290   1.150
 2776TIP3   OH2 8333   3.030   4.376   2.708
 2776TIP3    H1 8334   3.088   4.319   2.758
 2776TIP3    H2 8335   3.053   4.361   2.617
 2777TIP3   OH2 8336   3.351   5.678   0.728
 2777TIP3    H1 8337   3.426   5.649   0.781
 2777TIP3    H2 8338   3.389   5.697   0.642
 2778TIP3   OH2 8339   4.384   3.031   4.054
 2778TIP3    H1 8340   4.456   3.079   4.013
 2778TIP3    H2 8341   4.361   2.964   3.989
 2779TIP3   OH2 8342   5.990   1.555   3.553
 2779TIP3    H1 8343   6.076   1.518   3.572
 2779TIP3    H2 8344   6.005   1.613   3.478
 2780TIP3   OH2 8345   0.294   4.559   1.970
 2780TIP3    H1 8346   0.382   4.528   1.945
 2780TIP3    H2 8347   0.241   4.547   1.891
 2781TIP3   OH2 8348   5.762   4.028   0.785
 2781TIP3    H1 8349   5.743   4.106   0.733
 2781TIP3    H2 8350   5.781   4.061   0.872
 2782TIP3   OH2 8351   5.285   5.097   0.365
 2782TIP3    H1 8352   5.203   5.094   0.414
 2782TIP3    H2 8353   5.307   5.004   0.351
 2783TIP3   OH2 8354   3.981   4.811   3.246
 2783TIP3    H1 8355   4.063   4.855   3.269
 2783TIP3    H2 8356   3.934   4.875   3.192
 2784TIP3   OH2 8357   4.757   0.045   4.343
 2784TIP3    H1 8358   4.824   0.103   4.308
 2784TIP3    H2 8359   4.751   0.069   4.436
 2785TIP3   OH2 8360   4.281   0.656   3.805
 2785TIP3    H1 8361   4.292   0.650   3.710
 2785TIP3    H2 8362   4.200   0.609   3.823
 2786TIP3   OH2 8363   1.968   3.753   4.198
 2786TIP3    H1 8364   2.050   3.790   4.166
 2786TIP3    H2 8365   1.927   3.714   4.120
 2787TIP3   OH2 8366   2.746   1.191   2.291
 2787TIP3    H1 8367   2.722   1.134   2.364
 2787TIP3    H2 8368   2.674   1.255   2.287
 2788TIP3   OH2 8369   1.930   5.678   4.083
 2788TIP3    H1 8370   1.972   5.749   4.130
 2788TIP3    H2 8371   1.873   5.722   4.019
 2789TIP3   OH2 8372   0.353   4.135   1.497
 2789TIP3    H1 8373   0.304   4.201   1.546
 2789TIP3    H2 8374   0.289   4.095   1.440
 2790TIP3   OH2 8375   4.317   5.256   4.685
 2790TIP3    H1 8376   4.326   5.234   4.592
 2790TIP3    H2 8377   4.239   5.310   4.691
 2791TIP3   OH2 8378   5.712   2.559   1.938
 2791TIP3    H1 8379   5.731   2.526   2.026
 2791TIP3    H2 8380   5.721   2.654   1.945
 2792TIP3   OH2 8381   5.355   0.653   2.914
 2792TIP3    H1 8382   5.346   0.649   2.819
 2792TIP3    H2 8383   5.351   0.746   2.936
 2793TIP3   OH2 8384   4.404   4.159   3.552
 2793TIP3    H1 8385   4.340   4.090   3.531
 2793TIP3    H2 8386   4.365   4.204   3.627
 2794TIP3   OH2 8387   5.310   3.164   3.912
 2794TIP3    H1 8388   5.237   3.112   3.944
 2794TIP3    H2 8389   5.377   3.155   3.979
 2795TIP3   OH2 8390   1.671   4.321   4.886
 2795TIP3    H1 8391   1.689   4.247   4.943
 2795TIP3    H2 8392   1.577   4.337   4.895
 2796TIP3   OH2 8393   2.731   0.883   1.658
 2796TIP3    H1 8394   2.659   0.944   1.642
 2796TIP3    H2 8395   2.689   0.799   1.675
 2797TIP3   OH2 8396   0.140   1.695   4.345
 2797TIP3    H1 8397   0.124   1.632   4.274
 2797TIP3    H2 8398   0.235   1.711   4.342
 2798TIP3   OH2 8399   3.339   1.381   1.146
 2798TIP3    H1 8400   3.245   1.379   1.166
 2798TIP3    H2 8401   3.373   1.451   1.201
 2799TIP3   OH2 8402   4.672   0.594   5.143
 2799TIP3    H1 8403   4.757   0.557   5.166
 2799TIP3    H2 8404   4.675   0.605   5.048
 2800TIP3   OH2 8405   4.743   5.692   4.199
 2800TIP3    H1 8406   4.822   5.731   4.161
 2800TIP3    H2 8407   4.774   5.612   4.242
 2801TIP3   OH2 8408   4.085   1.172   1.316
 2801TIP3    H1 8409   4.143   1.159   1.391
 2801TIP3    H2 8410   3.999   1.189   1.354
 2802TIP3   OH2 8411   4.067   2.421   1.022
 2802TIP3    H1 8412   4.029   2.333   1.019
 2802TIP3    H2 8413   4.143   2.412   1.080
 2803TIP3   OH2 8414   5.945   5.317   1.097
 2803TIP3    H1 8415   5.954   5.362   1.181
 2803TIP3    H2 8416   5.852   5.294   1.092
 2804TIP3   OH2 8417   1.453   0.716   1.550
 2804TIP3    H1 8418   1.543   0.689   1.569
 2804TIP3    H2 8419   1.461   0.770   1.471
 2805TIP3   OH2 8420   1.967   3.218   5.012
 2805TIP3    H1 8421   2.022   3.141   5.029
 2805TIP3    H2 8422   1.947   3.252   5.100
 2806TIP3   OH2 8423   4.470   0.496   3.603
 2806TIP3    H1 8424   4.546   0.513   3.547
 2806TIP3    H2 8425   4.401   0.551   3.566
 2807TIP3   OH2 8426   5.348   2.474   2.946
 2807TIP3    H1 8427   5.318   2.479   2.855
 2807TIP3    H2 8428   5.433   2.517   2.946
 2808TIP3   OH2 8429   0.242   3.362   0.468
 2808TIP3    H1 8430   0.287   3.446   0.465
 2808TIP3    H2 8431   0.271   3.316   0.389
 2809TIP3   OH2 8432   0.254   3.927   3.698
 2809TIP3    H1 8433   0.261   3.847   3.646
 2809TIP3    H2 8434   0.219   3.898   3.782
 2810TIP3   OH2 8435   4.621   2.065   2.149
 2810TIP3    H1 8436   4.609   1.984   2.100
 2810TIP3    H2 8437   4.552   2.123   2.118
 2811TIP3   OH2 8438   0.467   2.211   3.827
 2811TIP3    H1 8439   0.404   2.240   3.894
 2811TIP3    H2 8440   0.489   2.290   3.779
 2812TIP3   OH2 8441   4.766   5.518   0.092
 2812TIP3    H1 8442   4.798   5.570   0.018
 2812TIP3    H2 8443   4.705   5.576   0.138
 2813TIP3   OH2 8444   5.115   2.304   4.288
 2813TIP3    H1 8445   5.207   2.298   4.261
 2813TIP3    H2 8446   5.067   2.254   4.222
 2814TIP3   OH2 8447   4.614   5.925   2.197
 2814TIP3    H1 8448   4.651   5.990   2.257
 2814TIP3    H2 8449   4.662   5.938   2.115
 2815TIP3   OH2 8450   3.248   0.039   3.781
 2815TIP3    H1 8451   3.157   0.057   3.757
 2815TIP3    H2 8452   3.278  -0.025   3.717
 2816TIP3   OH2 8453   3.746   5.216   0.505
 2816TIP3    H1 8454   3.725   5.263   0.424
 2816TIP3    H2 8455   3.679   5.148   0.510
 2817TIP3   OH2 8456   0.841   1.133   3.956
 2817TIP3    H1 8457   0.753   1.111   3.987
 2817TIP3    H2 8458   0.889   1.161   4.034
 2818TIP3   OH2 8459   0.156   2.488   4.024
 2818TIP3    H1 8460   0.245   2.458   4.002
 2818TIP3    H2 8461   0.151   2.475   4.119
 2819TIP3   OH2 8462   5.482   1.541   4.734
 2819TIP3    H1 8463   5.469   1.515   4.825
 2819TIP3    H2 8464   5.565   1.501   4.709
 2820TIP3   OH2 8465   1.879   4.047   1.373
 2820TIP3    H1 8466   1.785   4.055   1.357
 2820TIP3    H2 8467   1.908   4.136   1.394
 2821TIP3   OH2 8468   5.602   0.859   4.784
 2821TIP3    H1 8469   5.561   0.930   4.735
 2821TIP3    H2 8470   5.593   0.782   4.727
 2822TIP3   OH2 8471   5.765   1.015   2.926
 2822TIP3    H1 8472   5.827   0.987   2.858
 2822TIP3    H2 8473   5.802   0.980   3.007
 2823TIP3   OH2 8474   1.987   5.245   3.462
 2823TIP3    H1 8475   1.893   5.261   3.472
 2823TIP3    H2 8476   2.025   5.332   3.449
 2824TIP3   OH2 8477   3.770   3.108   3.937
 2824TIP3    H1 8478   3.692   3.146   3.898
 2824TIP3    H2 8479   3.782   3.154   4.020
 2825TIP3   OH2 8480   3.268   1.329   4.729
 2825TIP3    H1 8481   3.236   1.245   4.763
 2825TIP3    H2 8482   3.300   1.308   4.641
 2826TIP3   OH2 8483   6.175   0.223   0.960
 2826TIP3    H1 8484   6.106   0.238   0.895
 2826TIP3    H2 8485   6.142   0.152   1.015
 2827TIP3   OH2 8486   4.975   5.619   3.466
 2827TIP3    H1 8487   4.982   5.679   3.540
 2827TIP3    H2 8488   5.044   5.554   3.481
 2828TIP3   OH2 8489   3.444   2.933   0.821
 2828TIP3    H1 8490   3.497   2.868   0.775
 2828TIP3    H2 8491   3.507   2.983   0.872
 2829TIP3   OH2 8492   0.361   0.581   0.978
 2829TIP3    H1 8493   0.434   0.642   0.982
 2829TIP3    H2 8494   0.338   0.566   1.070
 2830TIP3   OH2 8495   0.942   2.751   3.317
 2830TIP3    H1 8496   0.862   2.800   3.338
 2830TIP3    H2 8497   1.013   2.812   3.334
 2831TIP3   OH2 8498   3.971   2.401   3.298
 2831TIP3    H1 8499   3.971   2.306   3.287
 2831TIP3    H2 8500   3.892   2.431   3.252
 2832TIP3   OH2 8501   1.481   4.846   4.079
 2832TIP3    H1 8502   1.570   4.813   4.088
 2832TIP3    H2 8503   1.468   4.901   4.157
 2833TIP3   OH2 8504   1.647   1.927   1.685
 2833TIP3    H1 8505   1.623   1.874   1.761
 2833TIP3    H2 8506   1.686   2.006   1.722
 2834TIP3   OH2 8507   1.091   5.999   3.141
 2834TIP3    H1 8508   1.173   6.049   3.134
 2834TIP3    H2 8509   1.107   5.920   3.090
 2835TIP3   OH2 8510   2.237   2.086   2.824
 2835TIP3    H1 8511   2.224   2.143   2.748
 2835TIP3    H2 8512   2.298   2.018   2.792
 2836TIP3   OH2 8513   2.681   5.563   2.155
 2836TIP3    H1 8514   2.727   5.647   2.146
 2836TIP3    H2 8515   2.609   5.582   2.216
 2837TIP3   OH2 8516   5.806   0.105   0.535
 2837TIP3    H1 8517   5.867   0.154   0.480
 2837TIP3    H2 8518   5.720   0.122   0.496
 2838TIP3   OH2 8519   1.495   5.919   3.969
 2838TIP3    H1 8520   1.401   5.931   3.977
 2838TIP3    H2 8521   1.519   5.862   4.043
 2839TIP3   OH2 8522   3.090   1.985   4.402
 2839TIP3    H1 8523   3.158   2.003   4.466
 2839TIP3    H2 8524   3.097   2.056   4.339
 2840TIP3   OH2 8525   6.310   4.755   2.025
 2840TIP3    H1 8526   6.326   4.826   1.963
 2840TIP3    H2 8527   6.369   4.771   2.098
 2841TIP3   OH2 8528   4.406   5.169   4.931
 2841TIP3    H1 8529   4.412   5.076   4.910
 2841TIP3    H2 8530   4.425   5.214   4.848
 2842TIP3   OH2 8531   2.879   0.009   2.943
 2842TIP3    H1 8532   2.933   0.086   2.960
 2842TIP3    H2 8533   2.816   0.007   3.016
 2843TIP3   OH2 8534   1.670   4.931   0.108
 2843TIP3    H1 8535   1.736   4.908   0.042
 2843TIP3    H2 8536   1.624   4.849   0.126
 2844TIP3   OH2 8537   5.262   4.565   4.887
 2844TIP3    H1 8538   5.228   4.602   4.805
 2844TIP3    H2 8539   5.353   4.595   4.891
 2845TIP3   OH2 8540   5.226   1.287   4.220
 2845TIP3    H1 8541   5.217   1.264   4.312
 2845TIP3    H2 8542   5.306   1.340   4.216
 2846TIP3   OH2 8543   3.117   4.125   0.542
 2846TIP3    H1 8544   3.056   4.068   0.588
 2846TIP3    H2 8545   3.204   4.093   0.567
 2847TIP3   OH2 8546   4.468   4.397   4.571
 2847TIP3    H1 8547   4.455   4.313   4.527
 2847TIP3    H2 8548   4.397   4.452   4.539
 2848TIP3   OH2 8549   1.370   4.373   0.879
 2848TIP3    H1 8550   1.320   4.332   0.949
 2848TIP3    H2 8551   1.374   4.466   0.903
 2849TIP3   OH2 8552   0.083   2.914   2.152
 2849TIP3    H1 8553   0.036   2.944   2.230
 2849TIP3    H2 8554   0.019   2.862   2.103
 2850TIP3   OH2 8555   2.375   2.882   4.087
 2850TIP3    H1 8556   2.453   2.911   4.040
 2850TIP3    H2 8557   2.309   2.870   4.019
 2851TIP3   OH2 8558   2.921   1.266   3.417
 2851TIP3    H1 8559   2.932   1.212   3.495
 2851TIP3    H2 8560   2.978   1.226   3.351
 2852TIP3   OH2 8561   3.554   4.688   1.644
 2852TIP3    H1 8562   3.522   4.767   1.600
 2852TIP3    H2 8563   3.482   4.660   1.700
 2853TIP3   OH2 8564   0.189   1.607   3.893
 2853TIP3    H1 8565   0.146   1.581   3.812
 2853TIP3    H2 8566   0.135   1.677   3.928
 2854TIP3   OH2 8567   1.016   5.411   2.237
 2854TIP3    H1 8568   0.960   5.338   2.262
 2854TIP3    H2 8569   0.955   5.477   2.204
 2855TIP3   OH2 8570   3.002   1.501   0.254
 2855TIP3    H1 8571   3.007   1.511   0.159
 2855TIP3    H2 8572   2.941   1.430   0.268
 2856TIP3   OH2 8573   1.215   1.841   1.350
 2856TIP3    H1 8574   1.250   1.916   1.303
 2856TIP3    H2 8575   1.120   1.847   1.336
 2857TIP3   OH2 8576   2.463   1.901   2.693
 2857TIP3    H1 8577   2.424   1.814   2.693
 2857TIP3    H2 8578   2.479   1.921   2.601
 2858TIP3   OH2 8579   4.755   3.949   2.693
 2858TIP3    H1 8580   4.674   3.908   2.722
 2858TIP3    H2 8581   4.768   3.917   2.604
 2859TIP3   OH2 8582   3.246   1.926   1.503
 2859TIP3    H1 8583   3.159   1.965   1.499
 2859TIP3    H2 8584   3.252   1.889   1.591
 2860TIP3   OH2 8585   0.908   4.255   2.146
 2860TIP3    H1 8586   0.890   4.161   2.146
 2860TIP3    H2 8587   1.003   4.261   2.139
 2861TIP3   OH2 8588   4.781   3.262   2.774
 2861TIP3    H1 8589   4.756   3.208   2.699
 2861TIP3    H2 8590   4.775   3.352   2.742
 2862TIP3   OH2 8591   4.528   4.707   1.447
 2862TIP3    H1 8592   4.610   4.753   1.428
 2862TIP3    H2 8593   4.476   4.717   1.367
 2863TIP3   OH2 8594   1.008   4.937   1.251
 2863TIP3    H1 8595   1.064   5.010   1.225
 2863TIP3    H2 8596   1.047   4.904   1.332
 2864TIP3   OH2 8597   1.804   5.167   4.282
 2864TIP3    H1 8598   1.720   5.156   4.328
 2864TIP3    H2 8599   1.815   5.087   4.232
 2865TIP3   OH2 8600   3.359   4.500   0.854
 2865TIP3    H1 8601   3.398   4.552   0.784
 2865TIP3    H2 8602   3.368   4.554   0.932
 2866TIP3   OH2 8603   3.465   0.109   0.123
 2866TIP3    H1 8604   3.380   0.066   0.135
 2866TIP3    H2 8605   3.501   0.114   0.211
 2867TIP3   OH2 8606   5.705   2.568   3.755
 2867TIP3    H1 8607   5.737   2.495   3.702
 2867TIP3    H2 8608   5.617   2.542   3.781
 2868TIP3   OH2 8609   4.603   4.281   2.406
 2868TIP3    H1 8610   4.614   4.217   2.336
 2868TIP3    H2 8611   4.524   4.330   2.381
 2869TIP3   OH2 8612   1.033   4.583   2.867
 2869TIP3    H1 8613   1.005   4.593   2.958
 2869TIP3    H2 8614   1.026   4.489   2.850
 2870TIP3   OH2 8615   6.225   3.944   2.035
 2870TIP3    H1 8616   6.217   4.039   2.028
 2870TIP3    H2 8617   6.255   3.916   1.948
 2871TIP3   OH2 8618   5.574   0.190   3.843
 2871TIP3    H1 8619   5.553   0.229   3.758
 2871TIP3    H2 8620   5.640   0.249   3.881
 2872TIP3   OH2 8621   3.177   0.899   1.741
 2872TIP3    H1 8622   3.089   0.870   1.762
 2872TIP3    H2 8623   3.180   0.991   1.768
 2873TIP3   OH2 8624   0.731   2.693   0.262
 2873TIP3    H1 8625   0.681   2.620   0.225
 2873TIP3    H2 8626   0.665   2.751   0.299
 2874TIP3   OH2 8627   3.328   0.742   0.540
 2874TIP3    H1 8628   3.406   0.788   0.571
 2874TIP3    H2 8629   3.356   0.652   0.527
 2875TIP3   OH2 8630   0.053   0.716   1.661
 2875TIP3    H1 8631   0.045   0.803   1.700
 2875TIP3    H2 8632   0.113   0.728   1.588
 2876TIP3   OH2 8633   2.507   4.592   4.188
 2876TIP3    H1 8634   2.587   4.540   4.177
 2876TIP3    H2 8635   2.482   4.617   4.099
 2877TIP3   OH2 8636   2.968   5.602   0.524
 2877TIP3    H1 8637   2.931   5.517   0.547
 2877TIP3    H2 8638   2.915   5.631   0.449
 2878TIP3   OH2 8639   0.627   2.518   2.935
 2878TIP3    H1 8640   0.563   2.509   2.864
 2878TIP3    H2 8641   0.625   2.434   2.980
 2879TIP3   OH2 8642   2.724   0.787   5.048
 2879TIP3    H1 8643   2.817   0.778   5.027
 2879TIP3    H2 8644   2.715   0.751   5.136
 2880TIP3   OH2 8645   4.371   0.473   1.390
 2880TIP3    H1 8646   4.465   0.475   1.373
 2880TIP3    H2 8647   4.351   0.559   1.426
 2881TIP3   OH2 8648   0.691   4.534   3.190
 2881TIP3    H1 8649   0.636   4.583   3.130
 2881TIP3    H2 8650   0.645   4.450   3.201
 2882TIP3   OH2 8651   5.830   3.339   0.529
 2882TIP3    H1 8652   5.831   3.321   0.623
 2882TIP3    H2 8653   5.899   3.405   0.517
 2883TIP3   OH2 8654   6.257   2.082   2.172
 2883TIP3    H1 8655   6.236   2.073   2.264
 2883TIP3    H2 8656   6.174   2.069   2.126
 2884TIP3   OH2 8657   0.901   5.698   3.868
 2884TIP3    H1 8658   0.953   5.708   3.947
 2884TIP3    H2 8659   0.816   5.737   3.890
 2885TIP3   OH2 8660   5.252   1.200   0.319
 2885TIP3    H1 8661   5.197   1.251   0.261
 2885TIP3    H2 8662   5.280   1.262   0.387
 2886TIP3   OH2 8663   4.695   2.425   2.151
 2886TIP3    H1 8664   4.752   2.501   2.139
 2886TIP3    H2 8665   4.652   2.413   2.066
 2887TIP3   OH2 8666   6.281   4.949   4.026
 2887TIP3    H1 8667   6.217   4.993   3.970
 2887TIP3    H2 8668   6.248   4.962   4.115
 2888TIP3   OH2 8669   3.618   2.772   3.072
 2888TIP3    H1 8670   3.547   2.752   3.010
 2888TIP3    H2 8671   3.697   2.771   3.019
 2889TIP3   OH2 8672   0.702   0.284   0.436
 2889TIP3    H1 8673   0.635   0.275   0.505
 2889TIP3    H2 8674   0.779   0.241   0.473
 2890TIP3   OH2 8675   3.259   2.957   0.198
 2890TIP3    H1 8676   3.285   2.992   0.282
 2890TIP3    H2 8677   3.165   2.975   0.191
 2891TIP3   OH2 8678   1.207   5.122   1.104
 2891TIP3    H1 8679   1.198   5.176   1.026
 2891TIP3    H2 8680   1.276   5.060   1.083
 2892TIP3   OH2 8681   2.858   4.578   2.762
 2892TIP3    H1 8682   2.880   4.613   2.848
 2892TIP3    H2 8683   2.926   4.512   2.746
 2893TIP3   OH2 8684   6.310   3.292   4.866
 2893TIP3    H1 8685   6.257   3.291   4.786
 2893TIP3    H2 8686   6.266   3.230   4.925
 2894TIP3   OH2 8687   2.733   5.855   3.567
 2894TIP3    H1 8688   2.816   5.845   3.521
 2894TIP3    H2 8689   2.696   5.937   3.532
 2895TIP3   OH2 8690   1.314   0.849   1.970
 2895TIP3    H1 8691   1.383   0.910   1.944
 2895TIP3    H2 8692   1.327   0.837   2.064
 2896TIP3   OH2 8693   3.398   3.229   0.741
 2896TIP3    H1 8694   3.451   3.304   0.768
 2896TIP3    H2 8695   3.440   3.197   0.661
 2897TIP3   OH2 8696   5.640   3.400   4.303
 2897TIP3    H1 8697   5.724   3.356   4.317
 2897TIP3    H2 8698   5.605   3.412   4.392
 2898TIP3   OH2 8699   3.593   4.349   3.801
 2898TIP3    H1 8700   3.619   4.415   3.737
 2898TIP3    H2 8701   3.668   4.340   3.859
 2899TIP3   OH2 8702   5.270   0.121   4.380
 2899TIP3    H1 8703   5.197   0.082   4.333
 2899TIP3    H2 8704   5.288   0.061   4.452
 2900TIP3   OH2 8705   2.042   5.869   3.805
 2900TIP3    H1 8706   1.949   5.890   3.811
 2900TIP3    H2 8707   2.079   5.933   3.745
 2901TIP3   OH2 8708   1.591   0.685   0.565
 2901TIP3    H1 8709   1.543   0.764   0.589
 2901TIP3    H2 8710   1.553   0.616   0.620
 2902TIP3   OH2 8711   2.767   1.254   0.315
 2902TIP3    H1 8712   2.748   1.252   0.409
 2902TIP3    H2 8713   2.827   1.181   0.301
 2903TIP3   OH2 8714   0.631   3.944   2.303
 2903TIP3    H1 8715   0.589   3.915   2.222
 2903TIP3    H2 8716   0.596   4.031   2.318
 2904TIP3   OH2 8717   3.476   2.166   2.399
 2904TIP3    H1 8718   3.545   2.227   2.426
 2904TIP3    H2 8719   3.498   2.083   2.443
 2905TIP3   OH2 8720   1.157   2.141   2.668
 2905TIP3    H1 8721   1.072   2.148   2.624
 2905TIP3    H2 8722   1.206   2.216   2.635
 2906TIP3   OH2 8723   1.804   2.602   4.951
 2906TIP3    H1 8724   1.761   2.533   4.900
 2906TIP3    H2 8725   1.870   2.556   5.003
 2907TIP3   OH2 8726   4.897   4.038   3.435
 2907TIP3    H1 8727   4.877   3.997   3.351
 2907TIP3    H2 8728   4.840   3.992   3.497
 2908TIP3   OH2 8729   1.651   5.384   4.032
 2908TIP3    H1 8730   1.663   5.314   3.968
 2908TIP3    H2 8731   1.596   5.449   3.986
 2909TIP3   OH2 8732   1.272   5.247   1.618
 2909TIP3    H1 8733   1.301   5.259   1.527
 2909TIP3    H2 8734   1.316   5.168   1.647
 2910TIP3   OH2 8735   0.194   4.086   0.160
 2910TIP3    H1 8736   0.114   4.134   0.138
 2910TIP3    H2 8737   0.264   4.149   0.148
 2911TIP3   OH2 8738   2.858   2.608   2.065
 2911TIP3    H1 8739   2.923   2.570   2.124
 2911TIP3    H2 8740   2.843   2.696   2.098
 2912TIP3   OH2 8741   4.622   2.058   0.629
 2912TIP3    H1 8742   4.557   2.123   0.655
 2912TIP3    H2 8743   4.626   2.065   0.534
 2913TIP3   OH2 8744   4.797   1.586   2.824
 2913TIP3    H1 8745   4.759   1.590   2.736
 2913TIP3    H2 8746   4.734   1.634   2.879
 2914TIP3   OH2 8747   4.759   3.757   0.205
 2914TIP3    H1 8748   4.782   3.849   0.215
 2914TIP3    H2 8749   4.787   3.716   0.288
 2915TIP3   OH2 8750   5.251   2.847   4.983
 2915TIP3    H1 8751   5.271   2.760   5.016
 2915TIP3    H2 8752   5.224   2.833   4.892
 2916TIP3   OH2 8753   0.296   4.629   4.641
 2916TIP3    H1 8754   0.276   4.722   4.628
 2916TIP3    H2 8755   0.263   4.586   4.563
 2917TIP3   OH2 8756   1.836   3.746   0.687
 2917TIP3    H1 8757   1.882   3.662   0.683
 2917TIP3    H2 8758   1.743   3.722   0.691
 2918TIP3   OH2 8759   4.962   3.841   1.535
 2918TIP3    H1 8760   5.037   3.780   1.539
 2918TIP3    H2 8761   5.002   3.926   1.517
 2919TIP3   OH2 8762   0.619   3.857   0.097
 2919TIP3    H1 8763   0.626   3.948   0.069
 2919TIP3    H2 8764   0.529   3.832   0.077
 2920TIP3   OH2 8765   1.617   3.157   0.032
 2920TIP3    H1 8766   1.584   3.202  -0.045
 2920TIP3    H2 8767   1.703   3.124   0.006
 2921TIP3   OH2 8768   4.951   1.626   0.372
 2921TIP3    H1 8769   4.896   1.614   0.449
 2921TIP3    H2 8770   5.026   1.676   0.404
 2922TIP3   OH2 8771   0.209   0.312   3.140
 2922TIP3    H1 8772   0.166   0.381   3.190
 2922TIP3    H2 8773   0.291   0.296   3.186
 2923TIP3   OH2 8774   6.083   5.079   3.902
 2923TIP3    H1 8775   6.048   5.165   3.925
 2923TIP3    H2 8776   6.012   5.036   3.854
 2924TIP3   OH2 8777   3.843   3.775   2.697
 2924TIP3    H1 8778   3.938   3.762   2.686
 2924TIP3    H2 8779   3.804   3.696   2.661
 2925TIP3   OH2 8780   3.541   1.560   2.418
 2925TIP3    H1 8781   3.549   1.624   2.347
 2925TIP3    H2 8782   3.496   1.608   2.488
 2926TIP3   OH2 8783   4.014   0.623   4.777
 2926TIP3    H1 8784   4.070   0.610   4.700
 2926TIP3    H2 8785   4.075   0.634   4.850
 2927TIP3   OH2 8786   3.843   1.310   2.289
 2927TIP3    H1 8787   3.870   1.361   2.212
 2927TIP3    H2 8788   3.812   1.227   2.254
 2928TIP3   OH2 8789   3.499   0.116   4.354
 2928TIP3    H1 8790   3.420   0.069   4.327
 2928TIP3    H2 8791   3.544   0.137   4.272
 2929TIP3   OH2 8792   5.532   5.707   0.880
 2929TIP3    H1 8793   5.472   5.732   0.810
 2929TIP3    H2 8794   5.524   5.612   0.885
 2930TIP3   OH2 8795   4.802   4.266   4.935
 2930TIP3    H1 8796   4.800   4.171   4.930
 2930TIP3    H2 8797   4.877   4.292   4.882
 2931TIP3   OH2 8798   0.624   5.172   4.060
 2931TIP3    H1 8799   0.603   5.082   4.084
 2931TIP3    H2 8800   0.565   5.225   4.113
 2932TIP3   OH2 8801   0.543   2.850   0.379
 2932TIP3    H1 8802   0.631   2.887   0.377
 2932TIP3    H2 8803   0.487   2.924   0.401
 2933TIP3   OH2 8804   3.423   4.421   2.662
 2933TIP3    H1 8805   3.346   4.478   2.665
 2933TIP3    H2 8806   3.399   4.352   2.600
 2934TIP3   OH2 8807   0.703   0.776   3.369
 2934TIP3    H1 8808   0.784   0.778   3.318
 2934TIP3    H2 8809   0.694   0.865   3.403
 2935TIP3   OH2 8810   6.019   5.908   3.416
 2935TIP3    H1 8811   5.965   5.832   3.439
 2935TIP3    H2 8812   6.105   5.872   3.396
 2936TIP3   OH2 8813   2.454   3.985   3.051
 2936TIP3    H1 8814   2.535   4.016   3.010
 2936TIP3    H2 8815   2.477   3.975   3.143
 2937TIP3   OH2 8816   0.997   5.132   3.363
 2937TIP3    H1 8817   0.975   5.039   3.360
 2937TIP3    H2 8818   0.913   5.176   3.373
 2938TIP3   OH2 8819   4.338   4.180   2.871
 2938TIP3    H1 8820   4.380   4.262   2.843
 2938TIP3    H2 8821   4.313   4.137   2.789
 2939TIP3   OH2 8822   4.910   0.179   0.912
 2939TIP3    H1 8823   4.817   0.203   0.910
 2939TIP3    H2 8824   4.915   0.098   0.862
 2940TIP3   OH2 8825   3.894   4.916   0.344
 2940TIP3    H1 8826   3.930   4.908   0.256
 2940TIP3    H2 8827   3.820   4.976   0.334
 2941TIP3   OH2 8828   3.438   5.602   1.178
 2941TIP3    H1 8829   3.423   5.695   1.161
 2941TIP3    H2 8830   3.533   5.592   1.177
 2942TIP3   OH2 8831   4.700   2.406   0.709
 2942TIP3    H1 8832   4.605   2.413   0.718
 2942TIP3    H2 8833   4.735   2.482   0.755
 2943TIP3   OH2 8834   4.087   5.295   0.147
 2943TIP3    H1 8835   4.111   5.381   0.112
 2943TIP3    H2 8836   3.995   5.305   0.174
 2944TIP3   OH2 8837   1.107   2.991   2.221
 2944TIP3    H1 8838   1.071   2.927   2.282
 2944TIP3    H2 8839   1.030   3.041   2.192
 2945TIP3   OH2 8840   2.269   3.253   3.921
 2945TIP3    H1 8841   2.335   3.289   3.981
 2945TIP3    H2 8842   2.320   3.216   3.849
 2946TIP3   OH2 8843   5.523   2.577   2.621
 2946TIP3    H1 8844   5.574   2.497   2.621
 2946TIP3    H2 8845   5.432   2.548   2.617
 2947TIP3   OH2 8846   5.467   0.326   2.576
 2947TIP3    H1 8847   5.499   0.316   2.486
 2947TIP3    H2 8848   5.380   0.288   2.575
 2948TIP3   OH2 8849   5.598   0.273   3.560
 2948TIP3    H1 8850   5.511   0.245   3.533
 2948TIP3    H2 8851   5.658   0.218   3.511
 2949TIP3   OH2 8852   4.323   2.449   4.250
 2949TIP3    H1 8853   4.262   2.447   4.324
 2949TIP3    H2 8854   4.273   2.415   4.176
 2950TIP3   OH2 8855   5.060   5.819   4.781
 2950TIP3    H1 8856   4.984   5.866   4.745
 2950TIP3    H2 8857   5.026   5.777   4.860
 2951TIP3   OH2 8858   5.165   4.668   0.994
 2951TIP3    H1 8859   5.121   4.678   1.078
 2951TIP3    H2 8860   5.097   4.689   0.929
 2952TIP3   OH2 8861   3.289   5.349   4.155
 2952TIP3    H1 8862   3.325   5.347   4.066
 2952TIP3    H2 8863   3.348   5.406   4.204
 2953TIP3   OH2 8864   5.416   4.656   3.204
 2953TIP3    H1 8865   5.357   4.580   3.199
 2953TIP3    H2 8866   5.421   4.676   3.297
 2954TIP3   OH2 8867   4.713   1.052   1.235
 2954TIP3    H1 8868   4.725   1.012   1.321
 2954TIP3    H2 8869   4.755   0.990   1.175
 2955TIP3   OH2 8870   6.032   4.779   3.529
 2955TIP3    H1 8871   6.103   4.765   3.467
 2955TIP3    H2 8872   5.972   4.705   3.513
 2956TIP3   OH2 8873   5.571   5.762   5.092
 2956TIP3    H1 8874   5.596   5.851   5.117
 2956TIP3    H2 8875   5.589   5.709   5.169
 2957TIP3   OH2 8876   1.473   0.262   0.477
 2957TIP3    H1 8877   1.532   0.195   0.443
 2957TIP3    H2 8878   1.525   0.342   0.478
 2958TIP3   OH2 8879   0.873   1.888   2.645
 2958TIP3    H1 8880   0.956   1.916   2.609
 2958TIP3    H2 8881   0.809   1.907   2.577
 2959TIP3   OH2 8882   1.276   5.258   3.836
 2959TIP3    H1 8883   1.271   5.191   3.768
 2959TIP3    H2 8884   1.327   5.328   3.796
 2960TIP3   OH2 8885   4.064   0.839   5.190
 2960TIP3    H1 8886   4.022   0.905   5.136
 2960TIP3    H2 8887   3.995   0.774   5.206
 2961TIP3   OH2 8888   6.177   1.896   0.621
 2961TIP3    H1 8889   6.133   1.819   0.586
 2961TIP3    H2 8890   6.118   1.930   0.688
 2962TIP3   OH2 8891   1.967   0.394   0.463
 2962TIP3    H1 8892   1.919   0.455   0.520
 2962TIP3    H2 8893   2.016   0.339   0.524
 2963TIP3   OH2 8894   4.243   4.319   3.217
 2963TIP3    H1 8895   4.195   4.261   3.158
 2963TIP3    H2 8896   4.330   4.327   3.177
 2964TIP3   OH2 8897   3.836   3.981   1.449
 2964TIP3    H1 8898   3.747   3.993   1.483
 2964TIP3    H2 8899   3.864   3.897   1.485
 2965TIP3   OH2 8900   2.835   4.380   4.394
 2965TIP3    H1 8901   2.869   4.435   4.324
 2965TIP3    H2 8902   2.903   4.315   4.409
 2966TIP3   OH2 8903   4.317   3.086   4.688
 2966TIP3    H1 8904   4.367   3.033   4.750
 2966TIP3    H2 8905   4.248   3.126   4.740
 2967TIP3   OH2 8906   2.822   0.359   5.009
 2967TIP3    H1 8907   2.794   0.401   4.928
 2967TIP3    H2 8908   2.907   0.400   5.029
 2968TIP3   OH2 8909   3.831   1.749   2.147
 2968TIP3    H1 8910   3.772   1.675   2.134
 2968TIP3    H2 8911   3.900   1.716   2.204
 2969TIP3   OH2 8912   1.546   1.586   3.796
 2969TIP3    H1 8913   1.470   1.537   3.826
 2969TIP3    H2 8914   1.547   1.665   3.849
 2970TIP3   OH2 8915   2.577   2.543   3.574
 2970TIP3    H1 8916   2.570   2.450   3.598
 2970TIP3    H2 8917   2.619   2.584   3.650
 2971TIP3   OH2 8918   4.344   2.631   4.712
 2971TIP3    H1 8919   4.369   2.723   4.714
 2971TIP3    H2 8920   4.422   2.585   4.683
 2972TIP3   OH2 8921   3.857   0.030   4.787
 2972TIP3    H1 8922   3.914   0.061   4.857
 2972TIP3    H2 8923   3.912   0.032   4.708
 2973TIP3   OH2 8924   5.645   4.512   1.254
 2973TIP3    H1 8925   5.613   4.470   1.335
 2973TIP3    H2 8926   5.575   4.572   1.229
 2974TIP3   OH2 8927   5.387   5.958   3.724
 2974TIP3    H1 8928   5.425   5.878   3.689
 2974TIP3    H2 8929   5.441   6.028   3.687
 2975TIP3   OH2 8930   5.447   2.440   3.808
 2975TIP3    H1 8931   5.446   2.345   3.801
 2975TIP3    H2 8932   5.375   2.461   3.867
 2976TIP3   OH2 8933   4.191   3.505   0.827
 2976TIP3    H1 8934   4.243   3.443   0.878
 2976TIP3    H2 8935   4.254   3.571   0.798
 2977TIP3   OH2 8936   2.717   5.032   0.711
 2977TIP3    H1 8937   2.793   5.078   0.674
 2977TIP3    H2 8938   2.666   5.100   0.754
 2978TIP3   OH2 8939   3.876   5.727   2.999
 2978TIP3    H1 8940   3.954   5.672   3.004
 2978TIP3    H2 8941   3.872   5.755   2.908
 2979TIP3   OH2 8942   2.404   2.776   5.161
 2979TIP3    H1 8943   2.401   2.733   5.247
 2979TIP3    H2 8944   2.489   2.751   5.124
 2980TIP3   OH2 8945   2.794   0.460   3.984
 2980TIP3    H1 8946   2.699   0.450   3.982
 2980TIP3    H2 8947   2.808   0.551   4.008
 2981TIP3   OH2 8948   4.967   5.044   0.861
 2981TIP3    H1 8949   4.942   5.129   0.898
 2981TIP3    H2 8950   5.057   5.057   0.830
 2982TIP3   OH2 8951   0.006   5.755   1.730
 2982TIP3    H1 8952  -0.024   5.846   1.742
 2982TIP3    H2 8953   0.030   5.751   1.637
 2983TIP3   OH2 8954   0.895   1.703   1.143
 2983TIP3    H1 8955   0.867   1.633   1.085
 2983TIP3    H2 8956   0.840   1.693   1.221
 2984TIP3   OH2 8957   5.252   5.936   4.494
 2984TIP3    H1 8958   5.163   5.923   4.527
 2984TIP3    H2 8959   5.301   5.860   4.526
 2985TIP3   OH2 8960   4.830   1.110   4.889
 2985TIP3    H1 8961   4.905   1.057   4.914
 2985TIP3    H2 8962   4.848   1.197   4.926
 2986TIP3   OH2 8963   0.759   4.590   1.315
 2986TIP3    H1 8964   0.687   4.558   1.368
 2986TIP3    H2 8965   0.731   4.574   1.224
 2987TIP3   OH2 8966   3.079   3.121   4.323
 2987TIP3    H1 8967   3.059   3.148   4.413
 2987TIP3    H2 8968   3.086   3.026   4.327
 2988TIP3   OH2 8969   1.308   0.781   1.206
 2988TIP3    H1 8970   1.239   0.836   1.244
 2988TIP3    H2 8971   1.262   0.705   1.170
 2989TIP3   OH2 8972   5.091   4.276   3.777
 2989TIP3    H1 8973   5.162   4.285   3.841
 2989TIP3    H2 8974   5.012   4.267   3.830
 2990TIP3   OH2 8975   0.592   5.396   4.397
 2990TIP3    H1 8976   0.547   5.332   4.453
 2990TIP3    H2 8977   0.563   5.375   4.308
 2991TIP3   OH2 8978   5.466   5.433   0.911
 2991TIP3    H1 8979   5.518   5.372   0.859
 2991TIP3    H2 8980   5.489   5.415   1.002
 2992TIP3   OH2 8981   0.223   3.775   0.010
 2992TIP3    H1 8982   0.258   3.720  -0.060
 2992TIP3    H2 8983   0.292   3.778   0.076
 2993TIP3   OH2 8984   5.712   5.431   4.893
 2993TIP3    H1 8985   5.738   5.368   4.959
 2993TIP3    H2 8986   5.746   5.515   4.925
 2994TIP3   OH2 8987   1.979   4.476   0.162
 2994TIP3    H1 8988   2.014   4.531   0.232
 2994TIP3    H2 8989   1.884   4.488   0.168
 2995TIP3   OH2 8990   1.414   4.931   1.049
 2995TIP3    H1 8991   1.460   4.945   1.132
 2995TIP3    H2 8992   1.472   4.969   0.983
 2996TIP3   OH2 8993   2.136   4.098   0.946
 2996TIP3    H1 8994   2.064   4.044   0.913
 2996TIP3    H2 8995   2.117   4.108   1.039
 2997TIP3   OH2 8996   3.728   1.262   3.072
 2997TIP3    H1 8997   3.688   1.279   3.157
 2997TIP3    H2 8998   3.763   1.174   3.079
 2998TIP3   OH2 8999   3.982   2.238   4.915
 2998TIP3    H1 9000   3.945   2.295   4.848
 2998TIP3    H2 9001   4.071   2.220   4.884
 2999TIP3   OH2 9002   4.855   0.624   2.424
 2999TIP3    H1 9003   4.899   0.682   2.487
 2999TIP3    H2 9004   4.819   0.683   2.358
 3000TIP3   OH2 9005   1.030   5.691   1.475
 3000TIP3    H1 9006   1.041   5.601   1.506
 3000TIP3    H2 9007   0.946   5.718   1.511
 3001TIP3   OH2 9008   1.104   0.107   3.939
 3001TIP3    H1 9009   1.087   0.043   3.870
 3001TIP3    H2 9010   1.197   0.129   3.929
 3002TIP3   OH2 9011   1.952   5.775   4.830
 3002TIP3    H1 9012   1.998   5.696   4.859
 3002TIP3    H2 9013   1.872   5.777   4.882
 3003TIP3   OH2 9014   2.552   4.125   1.519
 3003TIP3    H1 9015   2.616   4.077   1.571
 3003TIP3    H2 9016   2.603   4.169   1.452
 3004TIP3   OH2 9017   4.190   0.396   4.465
 3004TIP3    H1 9018   4.156   0.452   4.396
 3004TIP3    H2 9019   4.115   0.343   4.492
 3005TIP3   OH2 9020   4.492   3.310   4.632
 3005TIP3    H1 9021   4.568   3.267   4.593
 3005TIP3    H2 9022   4.422   3.245   4.626
 3006TIP3   OH2 9023   2.482   5.802   4.429
 3006TIP3    H1 9024   2.416   5.780   4.363
 3006TIP3    H2 9025   2.525   5.880   4.395
 3007TIP3   OH2 9026   0.339   0.305   3.647
 3007TIP3    H1 9027   0.414   0.257   3.680
 3007TIP3    H2 9028   0.281   0.315   3.722
 3008TIP3   OH2 9029   0.074   3.121   3.813
 3008TIP3    H1 9030   0.112   3.135   3.725
 3008TIP3    H2 9031   0.004   3.058   3.799
 3009TIP3   OH2 9032   2.250   0.138   0.172
 3009TIP3    H1 9033   2.318   0.205   0.161
 3009TIP3    H2 9034   2.169   0.187   0.181
 3010TIP3   OH2 9035   2.755   3.723   0.040
 3010TIP3    H1 9036   2.713   3.808   0.053
 3010TIP3    H2 9037   2.698   3.676  -0.021
 3011TIP3   OH2 9038   3.418   2.965   1.445
 3011TIP3    H1 9039   3.475   2.941   1.372
 3011TIP3    H2 9040   3.457   3.046   1.480
 3012TIP3   OH2 9041   3.033   3.062   3.502
 3012TIP3    H1 9042   2.978   3.117   3.559
 3012TIP3    H2 9043   2.979   2.985   3.486
 3013TIP3   OH2 9044   1.642   5.249   1.629
 3013TIP3    H1 9045   1.553   5.217   1.623
 3013TIP3    H2 9046   1.695   5.183   1.584
 3014TIP3   OH2 9047   2.076   2.137   0.051
 3014TIP3    H1 9048   2.144   2.072   0.069
 3014TIP3    H2 9049   1.995   2.087   0.042
 3015TIP3   OH2 9050   1.869   1.858   3.180
 3015TIP3    H1 9051   1.914   1.922   3.124
 3015TIP3    H2 9052   1.939   1.804   3.215
 3016TIP3   OH2 9053   2.452   5.582   2.281
 3016TIP3    H1 9054   2.386   5.567   2.348
 3016TIP3    H2 9055   2.468   5.676   2.282
 3017TIP3   OH2 9056   2.033   0.664   3.795
 3017TIP3    H1 9057   2.057   0.719   3.869
 3017TIP3    H2 9058   1.998   0.584   3.835
 3018TIP3   OH2 9059   2.697   0.103   4.312
 3018TIP3    H1 9060   2.708   0.177   4.372
 3018TIP3    H2 9061   2.649   0.038   4.363
 3019TIP3   OH2 9062   3.084   3.047   1.279
 3019TIP3    H1 9063   3.047   3.060   1.366
 3019TIP3    H2 9064   3.157   3.109   1.275
 3020TIP3   OH2 9065   2.968   4.027   2.904
 3020TIP3    H1 9066   3.048   4.049   2.857
 3020TIP3    H2 9067   2.910   3.989   2.837
 3021TIP3   OH2 9068   0.443   3.203   0.624
 3021TIP3    H1 9069   0.380   3.214   0.695
 3021TIP3    H2 9070   0.390   3.178   0.549
 3022TIP3   OH2 9071   6.100   0.346   1.228
 3022TIP3    H1 9072   6.148   0.428   1.225
 3022TIP3    H2 9073   6.067   0.334   1.138
 3023TIP3   OH2 9074   6.128   5.012   3.458
 3023TIP3    H1 9075   6.089   4.929   3.483
 3023TIP3    H2 9076   6.222   4.999   3.472
 3024TIP3   OH2 9077   2.093   2.472   0.669
 3024TIP3    H1 9078   2.081   2.557   0.629
 3024TIP3    H2 9079   2.004   2.441   0.688
 3025TIP3   OH2 9080   1.382   2.325   2.649
 3025TIP3    H1 9081   1.355   2.345   2.739
 3025TIP3    H2 9082   1.475   2.348   2.646
 3026TIP3   OH2 9083   0.920   3.330   2.584
 3026TIP3    H1 9084   0.848   3.309   2.524
 3026TIP3    H2 9085   0.993   3.353   2.527
 3027TIP3   OH2 9086   1.650   0.122   1.578
 3027TIP3    H1 9087   1.621   0.140   1.667
 3027TIP3    H2 9088   1.684   0.206   1.547
 3028TIP3   OH2 9089   0.726   2.393   3.577
 3028TIP3    H1 9090   0.802   2.445   3.603
 3028TIP3    H2 9091   0.661   2.409   3.645
 3029TIP3   OH2 9092   5.943   1.127   0.573
 3029TIP3    H1 9093   6.021   1.107   0.624
 3029TIP3    H2 9094   5.889   1.182   0.630
 3030TIP3   OH2 9095   5.189   1.029   4.629
 3030TIP3    H1 9096   5.169   1.080   4.707
 3030TIP3    H2 9097   5.164   1.086   4.556
 3031TIP3   OH2 9098   5.145   1.747   1.052
 3031TIP3    H1 9099   5.050   1.758   1.059
 3031TIP3    H2 9100   5.180   1.791   1.129
 3032TIP3   OH2 9101   4.286   1.923   2.263
 3032TIP3    H1 9102   4.302   1.838   2.224
 3032TIP3    H2 9103   4.193   1.940   2.248
 3033TIP3   OH2 9104   5.212   5.161   0.792
 3033TIP3    H1 9105   5.262   5.095   0.743
 3033TIP3    H2 9106   5.211   5.238   0.735
 3034TIP3   OH2 9107   3.902   3.387   4.732
 3034TIP3    H1 9108   3.982   3.368   4.684
 3034TIP3    H2 9109   3.909   3.335   4.812
 3035TIP3   OH2 9110   2.372   1.773   0.816
 3035TIP3    H1 9111   2.456   1.734   0.840
 3035TIP3    H2 9112   2.384   1.867   0.830
 3036TIP3   OH2 9113   2.002   4.966   3.983
 3036TIP3    H1 9114   1.949   5.043   3.963
 3036TIP3    H2 9115   1.951   4.892   3.949
 3037TIP3   OH2 9116   0.575   4.300   2.960
 3037TIP3    H1 9117   0.635   4.354   2.909
 3037TIP3    H2 9118   0.488   4.331   2.935
 3038TIP3   OH2 9119   4.189   5.563   1.217
 3038TIP3    H1 9120   4.224   5.580   1.305
 3038TIP3    H2 9121   4.243   5.617   1.160
 3039TIP3   OH2 9122   3.372   5.473   1.754
 3039TIP3    H1 9123   3.427   5.520   1.692
 3039TIP3    H2 9124   3.309   5.426   1.700
 3040TIP3   OH2 9125   1.815   2.633   2.671
 3040TIP3    H1 9126   1.895   2.667   2.631
 3040TIP3    H2 9127   1.797   2.552   2.623
 3041TIP3   OH2 9128   2.221   5.837   0.635
 3041TIP3    H1 9129   2.258   5.801   0.554
 3041TIP3    H2 9130   2.126   5.834   0.620
 3042TIP3   OH2 9131   3.480   2.368   2.206
 3042TIP3    H1 9132   3.475   2.301   2.273
 3042TIP3    H2 9133   3.514   2.323   2.129
 3043TIP3   OH2 9134   1.015   5.619   4.117
 3043TIP3    H1 9135   1.016   5.546   4.056
 3043TIP3    H2 9136   1.107   5.644   4.126
 3044TIP3   OH2 9137   3.848   3.473   2.259
 3044TIP3    H1 9138   3.799   3.457   2.179
 3044TIP3    H2 9139   3.842   3.391   2.308
 3045TIP3   OH2 9140   1.498   0.270   4.866
 3045TIP3    H1 9141   1.524   0.205   4.932
 3045TIP3    H2 9142   1.578   0.286   4.816
 3046TIP3   OH2 9143   1.965   4.739   0.796
 3046TIP3    H1 9144   2.047   4.773   0.758
 3046TIP3    H2 9145   1.984   4.728   0.889
 3047TIP3   OH2 9146   4.478   5.253   0.468
 3047TIP3    H1 9147   4.399   5.284   0.423
 3047TIP3    H2 9148   4.451   5.241   0.559
 3048TIP3   OH2 9149   4.511   3.718   4.974
 3048TIP3    H1 9150   4.531   3.710   4.880
 3048TIP3    H2 9151   4.439   3.656   4.988
 3049TIP3   OH2 9152   4.374   1.261   2.046
 3049TIP3    H1 9153   4.357   1.300   2.132
 3049TIP3    H2 9154   4.342   1.171   2.055
 3050TIP3   OH2 9155   0.514   3.968   3.860
 3050TIP3    H1 9156   0.460   3.951   3.782
 3050TIP3    H2 9157   0.548   4.056   3.846
 3051TIP3   OH2 9158   2.583   5.402   1.362
 3051TIP3    H1 9159   2.515   5.335   1.376
 3051TIP3    H2 9160   2.635   5.400   1.442
 3052TIP3   OH2 9161   2.351   0.451   0.584
 3052TIP3    H1 9162   2.377   0.522   0.642
 3052TIP3    H2 9163   2.291   0.398   0.636
 3053TIP3   OH2 9164   5.222   0.700   1.565
 3053TIP3    H1 9165   5.281   0.632   1.599
 3053TIP3    H2 9166   5.233   0.773   1.626
 3054TIP3   OH2 9167   2.635   1.359   4.118
 3054TIP3    H1 9168   2.653   1.430   4.056
 3054TIP3    H2 9169   2.572   1.396   4.179
 3055TIP3   OH2 9170   4.092   4.020   5.039
 3055TIP3    H1 9171   4.156   4.085   5.069
 3055TIP3    H2 9172   4.134   3.978   4.964
 3056TIP3   OH2 9173   1.970   4.975   2.272
 3056TIP3    H1 9174   1.900   5.038   2.293
 3056TIP3    H2 9175   1.929   4.890   2.281
 3057TIP3   OH2 9176   5.573   4.710   5.104
 3057TIP3    H1 9177   5.550   4.715   5.011
 3057TIP3    H2 9178   5.515   4.644   5.140
 3058TIP3   OH2 9179   4.137   1.336   0.791
 3058TIP3    H1 9180   4.216   1.303   0.747
 3058TIP3    H2 9181   4.075   1.264   0.784
 3059TIP3   OH2 9182   1.628   3.662   1.905
 3059TIP3    H1 9183   1.646   3.600   1.975
 3059TIP3    H2 9184   1.570   3.727   1.945
 3060TIP3   OH2 9185   3.548   2.641   1.479
 3060TIP3    H1 9186   3.482   2.642   1.409
 3060TIP3    H2 9187   3.624   2.683   1.440
 3061TIP3   OH2 9188   3.864   3.757   3.436
 3061TIP3    H1 9189   3.938   3.701   3.416
 3061TIP3    H2 9190   3.852   3.749   3.531
 3062TIP3   OH2 9191   1.645   0.785   0.012
 3062TIP3    H1 9192   1.735   0.782  -0.021
 3062TIP3    H2 9193   1.601   0.711  -0.031
 3063TIP3   OH2 9194   1.139   0.591   1.084
 3063TIP3    H1 9195   1.081   0.643   1.029
 3063TIP3    H2 9196   1.083   0.523   1.122
 3064TIP3   OH2 9197   2.958   3.606   1.466
 3064TIP3    H1 9198   2.889   3.552   1.506
 3064TIP3    H2 9199   2.970   3.679   1.527
 3065TIP3   OH2 9200   0.279   3.264   4.291
 3065TIP3    H1 9201   0.252   3.309   4.371
 3065TIP3    H2 9202   0.354   3.315   4.259
 3066TIP3   OH2 9203   1.911   1.059   4.841
 3066TIP3    H1 9204   1.874   1.147   4.833
 3066TIP3    H2 9205   1.984   1.070   4.902
 3067TIP3   OH2 9206   0.289   5.549   3.093
 3067TIP3    H1 9207   0.354   5.479   3.100
 3067TIP3    H2 9208   0.338   5.623   3.056
 3068TIP3   OH2 9209   2.228   3.691   0.413
 3068TIP3    H1 9210   2.150   3.726   0.457
 3068TIP3    H2 9211   2.196   3.664   0.327
 3069TIP3   OH2 9212   0.402   0.336   0.201
 3069TIP3    H1 9213   0.421   0.426   0.228
 3069TIP3    H2 9214   0.386   0.341   0.107
 3070TIP3   OH2 9215   5.449   3.855   1.223
 3070TIP3    H1 9216   5.489   3.901   1.297
 3070TIP3    H2 9217   5.524   3.821   1.173
 3071TIP3   OH2 9218   1.046   1.525   2.626
 3071TIP3    H1 9219   1.081   1.477   2.701
 3071TIP3    H2 9220   1.111   1.593   2.609
 3072TIP3   OH2 9221   1.027   4.794   2.490
 3072TIP3    H1 9222   1.085   4.811   2.416
 3072TIP3    H2 9223   1.084   4.797   2.567
 3073TIP3   OH2 9224   0.807   4.586   0.196
 3073TIP3    H1 9225   0.872   4.528   0.234
 3073TIP3    H2 9226   0.794   4.655   0.261
 3074TIP3   OH2 9227   5.274   5.204   3.559
 3074TIP3    H1 9228   5.300   5.112   3.564
 3074TIP3    H2 9229   5.209   5.207   3.488
 3075TIP3   OH2 9230   1.007   1.998   4.011
 3075TIP3    H1 9231   1.019   2.093   4.000
 3075TIP3    H2 9232   1.086   1.960   3.973
 3076TIP3   OH2 9233   4.337   3.695   0.698
 3076TIP3    H1 9234   4.325   3.789   0.710
 3076TIP3    H2 9235   4.366   3.686   0.607
 3077TIP3   OH2 9236   2.305   0.044   1.001
 3077TIP3    H1 9237   2.243   0.022   1.070
 3077TIP3    H2 9238   2.261   0.113   0.951
 3078TIP3   OH2 9239   3.306   1.601   0.303
 3078TIP3    H1 9240   3.211   1.591   0.300
 3078TIP3    H2 9241   3.337   1.560   0.222
 3079TIP3   OH2 9242   2.135   5.035   0.733
 3079TIP3    H1 9243   2.142   5.054   0.640
 3079TIP3    H2 9244   2.192   5.100   0.775
 3080TIP3   OH2 9245   5.257   0.844   1.264
 3080TIP3    H1 9246   5.206   0.795   1.328
 3080TIP3    H2 9247   5.318   0.896   1.317
 3081TIP3   OH2 9248   5.246   0.818   0.304
 3081TIP3    H1 9249   5.165   0.838   0.257
 3081TIP3    H2 9250   5.236   0.862   0.388
 3082TIP3   OH2 9251   2.774   5.439   1.585
 3082TIP3    H1 9252   2.793   5.515   1.640
 3082TIP3    H2 9253   2.755   5.369   1.647
 3083TIP3   OH2 9254   5.233   2.331   0.841
 3083TIP3    H1 9255   5.287   2.410   0.845
 3083TIP3    H2 9256   5.289   2.266   0.800
 3084TIP3   OH2 9257   5.442   3.884   5.138
 3084TIP3    H1 9258   5.490   3.963   5.165
 3084TIP3    H2 9259   5.481   3.861   5.054
 3085TIP3   OH2 9260   0.541   3.929   4.482
 3085TIP3    H1 9261   0.481   3.866   4.522
 3085TIP3    H2 9262   0.588   3.877   4.416
 3086TIP3   OH2 9263   4.368   2.441   2.739
 3086TIP3    H1 9264   4.343   2.508   2.802
 3086TIP3    H2 9265   4.425   2.486   2.677
 3087TIP3   OH2 9266   5.518   1.030   4.976
 3087TIP3    H1 9267   5.542   1.111   4.931
 3087TIP3    H2 9268   5.565   0.961   4.930
 3088TIP3   OH2 9269   0.254   5.398   4.487
 3088TIP3    H1 9270   0.343   5.365   4.493
 3088TIP3    H2 9271   0.234   5.431   4.575
 3089TIP3   OH2 9272   1.536   2.073   3.984
 3089TIP3    H1 9273   1.469   2.132   4.019
 3089TIP3    H2 9274   1.619   2.114   4.008
 3090TIP3   OH2 9275   2.157   2.220   4.075
 3090TIP3    H1 9276   2.179   2.306   4.041
 3090TIP3    H2 9277   2.068   2.204   4.044
 3091TIP3   OH2 9278   3.138   0.248   0.033
 3091TIP3    H1 9279   3.184   0.167   0.055
 3091TIP3    H2 9280   3.049   0.235   0.067
 3092TIP3   OH2 9281   1.647   3.916   4.206
 3092TIP3    H1 9282   1.651   3.826   4.238
 3092TIP3    H2 9283   1.738   3.939   4.187
 3093TIP3   OH2 9284   5.732   1.005   0.813
 3093TIP3    H1 9285   5.744   1.095   0.784
 3093TIP3    H2 9286   5.705   0.957   0.735
 3094TIP3   OH2 9287   3.817   1.846   4.000
 3094TIP3    H1 9288   3.852   1.845   3.911
 3094TIP3    H2 9289   3.724   1.825   3.990
 3095TIP3   OH2 9290   3.679   1.983   2.791
 3095TIP3    H1 9291   3.625   2.001   2.867
 3095TIP3    H2 9292   3.761   1.949   2.826
 3096TIP3   OH2 9293   1.019   2.348   3.378
 3096TIP3    H1 9294   1.010   2.403   3.455
 3096TIP3    H2 9295   0.996   2.260   3.409
 3097TIP3   OH2 9296   2.037   2.984   1.828
 3097TIP3    H1 9297   1.948   2.980   1.862
 3097TIP3    H2 9298   2.057   3.078   1.825
 3098TIP3   OH2 9299   3.557   3.969   2.478
 3098TIP3    H1 9300   3.616   3.941   2.408
 3098TIP3    H2 9301   3.607   4.033   2.528
 3099TIP3   OH2 9302   4.932   4.881   5.150
 3099TIP3    H1 9303   4.858   4.939   5.133
 3099TIP3    H2 9304   4.914   4.844   5.236
 3100TIP3   OH2 9305   4.996   0.877   1.441
 3100TIP3    H1 9306   4.920   0.844   1.392
 3100TIP3    H2 9307   5.023   0.803   1.496
 3101TIP3   OH2 9308   0.262   0.686   3.257
 3101TIP3    H1 9309   0.229   0.610   3.304
 3101TIP3    H2 9310   0.270   0.755   3.323
 3102TIP3   OH2 9311   6.002   5.493   3.629
 3102TIP3    H1 9312   6.052   5.541   3.696
 3102TIP3    H2 9313   6.068   5.441   3.583
 3103TIP3   OH2 9314   0.148   1.239   4.080
 3103TIP3    H1 9315   0.078   1.292   4.042
 3103TIP3    H2 9316   0.183   1.189   4.006
 3104TIP3   OH2 9317   2.897   3.206   0.277
 3104TIP3    H1 9318   2.917   3.295   0.305
 3104TIP3    H2 9319   2.824   3.179   0.332
 3105TIP3   OH2 9320   1.493   2.235   4.837
 3105TIP3    H1 9321   1.570   2.286   4.863
 3105TIP3    H2 9322   1.423   2.265   4.895
 3106TIP3   OH2 9323   4.981   0.930   4.261
 3106TIP3    H1 9324   5.004   0.838   4.265
 3106TIP3    H2 9325   4.886   0.930   4.244
 3107TIP3   OH2 9326   6.338   4.672   3.945
 3107TIP3    H1 9327   6.259   4.692   3.895
 3107TIP3    H2 9328   6.327   4.720   4.027
 3108TIP3   OH2 9329   6.157   0.871   1.855
 3108TIP3    H1 9330   6.121   0.955   1.827
 3108TIP3    H2 9331   6.243   0.893   1.892
 3109TIP3   OH2 9332   0.657   0.572   1.666
 3109TIP3    H1 9333   0.747   0.600   1.648
 3109TIP3    H2 9334   0.642   0.600   1.756
 3110TIP3   OH2 9335   0.623   5.668   4.445
 3110TIP3    H1 9336   0.706   5.688   4.402
 3110TIP3    H2 9337   0.605   5.577   4.423
 3111TIP3   OH2 9338   4.672   0.402   1.413
 3111TIP3    H1 9339   4.625   0.326   1.448
 3111TIP3    H2 9340   4.757   0.401   1.459
 3112TIP3   OH2 9341   4.839   5.235   3.627
 3112TIP3    H1 9342   4.822   5.325   3.599
 3112TIP3    H2 9343   4.755   5.205   3.660
 3113TIP3   OH2 9344   5.239   4.300   2.587
 3113TIP3    H1 9345   5.196   4.247   2.653
 3113TIP3    H2 9346   5.178   4.300   2.513
 3114TIP3   OH2 9347   0.724   3.771   2.046
 3114TIP3    H1 9348   0.786   3.786   1.974
 3114TIP3    H2 9349   0.649   3.727   2.004
 3115TIP3   OH2 9350   4.536   1.326   2.829
 3115TIP3    H1 9351   4.600   1.328   2.899
 3115TIP3    H2 9352   4.587   1.333   2.749
 3116TIP3   OH2 9353   2.123   0.789   0.418
 3116TIP3    H1 9354   2.049   0.797   0.479
 3116TIP3    H2 9355   2.156   0.700   0.432
 3117TIP3   OH2 9356   0.425   3.163   0.063
 3117TIP3    H1 9357   0.392   3.253   0.069
 3117TIP3    H2 9358   0.346   3.109   0.057
 3118TIP3   OH2 9359   3.996   2.147   1.837
 3118TIP3    H1 9360   3.905   2.159   1.809
 3118TIP3    H2 9361   3.998   2.174   1.928
 3119TIP3   OH2 9362   0.329   2.478   1.824
 3119TIP3    H1 9363   0.312   2.570   1.801
 3119TIP3    H2 9364   0.279   2.428   1.760
 3120TIP3   OH2 9365   4.241   2.949   0.377
 3120TIP3    H1 9366   4.177   2.901   0.430
 3120TIP3    H2 9367   4.243   3.036   0.416
 3121TIP3   OH2 9368   3.331   4.723   1.850
 3121TIP3    H1 9369   3.311   4.736   1.942
 3121TIP3    H2 9370   3.345   4.811   1.815
 3122TIP3   OH2 9371   4.304   0.983   2.062
 3122TIP3    H1 9372   4.338   0.971   2.150
 3122TIP3    H2 9373   4.209   0.969   2.070
 3123TIP3   OH2 9374   5.029   1.995   1.990
 3123TIP3    H1 9375   5.084   1.925   1.956
 3123TIP3    H2 9376   4.951   1.952   2.023
 3124TIP3   OH2 9377   4.891   1.713   3.326
 3124TIP3    H1 9378   4.829   1.679   3.390
 3124TIP3    H2 9379   4.957   1.759   3.378
 3125TIP3   OH2 9380   4.734   0.304   3.188
 3125TIP3    H1 9381   4.666   0.354   3.144
 3125TIP3    H2 9382   4.773   0.365   3.251
 3126TIP3   OH2 9383   3.278   1.593   3.804
 3126TIP3    H1 9384   3.294   1.688   3.804
 3126TIP3    H2 9385   3.338   1.559   3.737
 3127TIP3   OH2 9386   1.675   5.605   2.763
 3127TIP3    H1 9387   1.721   5.523   2.747
 3127TIP3    H2 9388   1.583   5.586   2.744
 3128TIP3   OH2 9389   4.734   0.406   4.447
 3128TIP3    H1 9390   4.696   0.406   4.359
 3128TIP3    H2 9391   4.825   0.433   4.434
 3129TIP3   OH2 9392   3.470   4.406   0.301
 3129TIP3    H1 9393   3.459   4.413   0.206
 3129TIP3    H2 9394   3.380   4.408   0.335
 3130TIP3   OH2 9395   5.756   2.772   2.619
 3130TIP3    H1 9396   5.841   2.751   2.657
 3130TIP3    H2 9397   5.732   2.855   2.659
 3131TIP3   OH2 9398   3.785   3.039   2.745
 3131TIP3    H1 9399   3.738   2.961   2.715
 3131TIP3    H2 9400   3.721   3.087   2.798
 3132TIP3   OH2 9401   4.703   3.461   3.655
 3132TIP3    H1 9402   4.793   3.482   3.683
 3132TIP3    H2 9403   4.708   3.369   3.629
 3133TIP3   OH2 9404   4.463   5.651   4.323
 3133TIP3    H1 9405   4.421   5.579   4.275
 3133TIP3    H2 9406   4.485   5.613   4.408
 3134TIP3   OH2 9407   6.138   1.847   0.159
 3134TIP3    H1 9408   6.228   1.875   0.142
 3134TIP3    H2 9409   6.097   1.922   0.202
 3135TIP3   OH2 9410   0.135   4.477   2.530
 3135TIP3    H1 9411   0.184   4.473   2.448
 3135TIP3    H2 9412   0.179   4.544   2.581
 3136TIP3   OH2 9413   4.950   1.354   2.843
 3136TIP3    H1 9414   4.888   1.284   2.864
 3136TIP3    H2 9415   4.895   1.433   2.836
 3137TIP3   OH2 9416   0.487   3.897   4.820
 3137TIP3    H1 9417   0.529   3.878   4.904
 3137TIP3    H2 9418   0.558   3.929   4.765
 3138TIP3   OH2 9419   4.656   2.710   2.275
 3138TIP3    H1 9420   4.741   2.694   2.314
 3138TIP3    H2 9421   4.650   2.805   2.267
 3139TIP3   OH2 9422   2.931   0.814   1.835
 3139TIP3    H1 9423   2.851   0.843   1.792
 3139TIP3    H2 9424   2.901   0.751   1.901
 3140TIP3   OH2 9425   2.300   4.000   4.420
 3140TIP3    H1 9426   2.334   3.922   4.464
 3140TIP3    H2 9427   2.205   3.996   4.434
 3141TIP3   OH2 9428   1.689   2.056   1.985
 3141TIP3    H1 9429   1.595   2.062   1.973
 3141TIP3    H2 9430   1.702   2.062   2.080
 3142TIP3   OH2 9431   5.516   4.233   1.800
 3142TIP3    H1 9432   5.496   4.180   1.878
 3142TIP3    H2 9433   5.610   4.223   1.787
 3143TIP3   OH2 9434   0.170   1.300   4.391
 3143TIP3    H1 9435   0.101   1.250   4.348
 3143TIP3    H2 9436   0.219   1.340   4.320
 3144TIP3   OH2 9437   4.433   3.208   4.270
 3144TIP3    H1 9438   4.383   3.290   4.268
 3144TIP3    H2 9439   4.395   3.156   4.200
 3145TIP3   OH2 9440   4.592   4.194   2.675
 3145TIP3    H1 9441   4.650   4.117   2.673
 3145TIP3    H2 9442   4.602   4.234   2.589
 3146TIP3   OH2 9443   0.494   4.376   1.401
 3146TIP3    H1 9444   0.457   4.293   1.432
 3146TIP3    H2 9445   0.485   4.436   1.475
 3147TIP3   OH2 9446   4.230   3.724   4.558
 3147TIP3    H1 9447   4.144   3.685   4.574
 3147TIP3    H2 9448   4.279   3.656   4.511
 3148TIP3   OH2 9449   3.165   2.323   5.035
 3148TIP3    H1 9450   3.242   2.284   4.992
 3148TIP3    H2 9451   3.162   2.283   5.121
 3149TIP3   OH2 9452   3.357   5.768   3.127
 3149TIP3    H1 9453   3.428   5.782   3.065
 3149TIP3    H2 9454   3.278   5.769   3.074
 3150TIP3   OH2 9455   2.153   4.790   0.236
 3150TIP3    H1 9456   2.076   4.846   0.231
 3150TIP3    H2 9457   2.118   4.701   0.231
 3151TIP3   OH2 9458   2.553   4.919   0.109
 3151TIP3    H1 9459   2.462   4.907   0.082
 3151TIP3    H2 9460   2.557   4.879   0.196
 3152TIP3   OH2 9461   1.313   3.575   3.759
 3152TIP3    H1 9462   1.260   3.593   3.681
 3152TIP3    H2 9463   1.290   3.485   3.783
 3153TIP3   OH2 9464   5.137   3.657   3.824
 3153TIP3    H1 9465   5.085   3.654   3.743
 3153TIP3    H2 9466   5.178   3.571   3.829
 3154TIP3   OH2 9467   2.196   3.214   0.565
 3154TIP3    H1 9468   2.168   3.305   0.557
 3154TIP3    H2 9469   2.292   3.218   0.569
 3155TIP3   OH2 9470   3.709   0.810   0.978
 3155TIP3    H1 9471   3.750   0.853   0.903
 3155TIP3    H2 9472   3.716   0.873   1.049
 3156TIP3   OH2 9473   0.651   1.917   1.479
 3156TIP3    H1 9474   0.709   1.899   1.553
 3156TIP3    H2 9475   0.574   1.861   1.494
 3157TIP3   OH2 9476   1.218   1.906   2.814
 3157TIP3    H1 9477   1.295   1.949   2.851
 3157TIP3    H2 9478   1.172   1.976   2.767
 3158TIP3   OH2 9479   4.857   5.502   4.424
 3158TIP3    H1 9480   4.821   5.571   4.481
 3158TIP3    H2 9481   4.951   5.502   4.443
 3159TIP3   OH2 9482   0.097   1.515   4.556
 3159TIP3    H1 9483   0.109   1.589   4.497
 3159TIP3    H2 9484   0.099   1.438   4.500
 3160TIP3   OH2 9485   3.508   0.064   4.637
 3160TIP3    H1 9486   3.576   0.123   4.672
 3160TIP3    H2 9487   3.452   0.121   4.584
 3161TIP3   OH2 9488   0.414   4.025   3.249
 3161TIP3    H1 9489   0.477   4.036   3.320
 3161TIP3    H2 9490   0.466   3.995   3.174
 3162TIP3   OH2 9491   6.134   3.540   0.595
 3162TIP3    H1 9492   6.056   3.561   0.543
 3162TIP3    H2 9493   6.205   3.585   0.549
 3163TIP3   OH2 9494   1.933   4.109   2.519
 3163TIP3    H1 9495   1.920   4.015   2.536
 3163TIP3    H2 9496   1.993   4.112   2.445
 3164TIP3   OH2 9497   1.036   2.107   5.016
 3164TIP3    H1 9498   0.963   2.168   5.026
 3164TIP3    H2 9499   1.017   2.037   5.078
 3165TIP3   OH2 9500   1.658   3.893   4.932
 3165TIP3    H1 9501   1.649   3.798   4.938
 3165TIP3    H2 9502   1.698   3.907   4.846
 3166TIP3   OH2 9503   5.636   3.183   1.351
 3166TIP3    H1 9504   5.653   3.096   1.388
 3166TIP3    H2 9505   5.647   3.171   1.256
 3167TIP3   OH2 9506   3.320   5.014   1.720
 3167TIP3    H1 9507   3.231   5.028   1.753
 3167TIP3    H2 9508   3.366   5.095   1.740
 3168TIP3   OH2 9509   5.011   4.405   0.262
 3168TIP3    H1 9510   5.063   4.485   0.253
 3168TIP3    H2 9511   5.018   4.383   0.355
 3169TIP3   OH2 9512   1.758   2.884   5.193
 3169TIP3    H1 9513   1.776   2.873   5.099
 3169TIP3    H2 9514   1.693   2.955   5.196
 3170TIP3   OH2 9515   0.255   4.939   4.367
 3170TIP3    H1 9516   0.214   5.019   4.334
 3170TIP3    H2 9517   0.196   4.906   4.434
 3171TIP3   OH2 9518   3.550   1.897   1.659
 3171TIP3    H1 9519   3.481   1.834   1.680
 3171TIP3    H2 9520   3.630   1.860   1.698
 3172TIP3   OH2 9521   4.160   0.562   0.064
 3172TIP3    H1 9522   4.200   0.648   0.051
 3172TIP3    H2 9523   4.166   0.547   0.158
 3173TIP3   OH2 9524   5.774   2.398   4.680
 3173TIP3    H1 9525   5.685   2.433   4.681
 3173TIP3    H2 9526   5.777   2.338   4.754
 3174TIP3   OH2 9527   2.618   5.622   3.108
 3174TIP3    H1 9528   2.710   5.597   3.114
 3174TIP3    H2 9529   2.614   5.678   3.030
 3175TIP3   OH2 9530   5.002   1.333   1.472
 3175TIP3    H1 9531   4.966   1.347   1.385
 3175TIP3    H2 9532   4.935   1.366   1.531
 3176TIP3   OH2 9533   3.627   1.535   1.975
 3176TIP3    H1 9534   3.572   1.463   2.003
 3176TIP3    H2 9535   3.569   1.591   1.923
 3177TIP3   OH2 9536   0.153   3.203   3.520
 3177TIP3    H1 9537   0.070   3.170   3.485
 3177TIP3    H2 9538   0.218   3.137   3.497
 3178TIP3   OH2 9539   5.100   0.212   1.668
 3178TIP3    H1 9540   5.006   0.202   1.654
 3178TIP3    H2 9541   5.132   0.253   1.588
 3179TIP3   OH2 9542   1.650   5.887   4.378
 3179TIP3    H1 9543   1.642   5.875   4.473
 3179TIP3    H2 9544   1.630   5.801   4.341
 3180TIP3   OH2 9545   1.219   2.587   3.813
 3180TIP3    H1 9546   1.263   2.606   3.896
 3180TIP3    H2 9547   1.241   2.661   3.757
 3181TIP3   OH2 9548   0.506   3.807   2.967
 3181TIP3    H1 9549   0.557   3.888   2.962
 3181TIP3    H2 9550   0.561   3.741   2.924
 3182TIP3   OH2 9551   6.352   2.484   4.956
 3182TIP3    H1 9552   6.291   2.539   5.005
 3182TIP3    H2 9553   6.319   2.395   4.968
 3183TIP3   OH2 9554   2.922   0.398   1.340
 3183TIP3    H1 9555   3.005   0.367   1.376
 3183TIP3    H2 9556   2.923   0.369   1.248
 3184TIP3   OH2 9557   3.424   2.007   0.605
 3184TIP3    H1 9558   3.376   2.087   0.585
 3184TIP3    H2 9559   3.361   1.937   0.590
 3185TIP3   OH2 9560   6.209   3.217   2.053
 3185TIP3    H1 9561   6.173   3.260   1.976
 3185TIP3    H2 9562   6.303   3.215   2.038
 3186TIP3   OH2 9563   0.558   4.796   1.066
 3186TIP3    H1 9564   0.634   4.786   1.123
 3186TIP3    H2 9565   0.504   4.720   1.084
 3187TIP3   OH2 9566   5.314   5.701   1.258
 3187TIP3    H1 9567   5.317   5.774   1.196
 3187TIP3    H2 9568   5.404   5.670   1.264
 3188TIP3   OH2 9569   1.830   5.462   0.204
 3188TIP3    H1 9570   1.871   5.483   0.288
 3188TIP3    H2 9571   1.887   5.504   0.139
 3189TIP3   OH2 9572   4.443   5.833   4.077
 3189TIP3    H1 9573   4.377   5.780   4.032
 3189TIP3    H2 9574   4.458   5.907   4.019
 3190TIP3   OH2 9575   4.737   5.817   1.752
 3190TIP3    H1 9576   4.751   5.755   1.680
 3190TIP3    H2 9577   4.759   5.768   1.830
 3191TIP3   OH2 9578   3.722   0.755   0.383
 3191TIP3    H1 9579   3.811   0.723   0.401
 3191TIP3    H2 9580   3.714   0.834   0.436
 3192TIP3   OH2 9581   5.601   0.597   0.778
 3192TIP3    H1 9582   5.601   0.601   0.874
 3192TIP3    H2 9583   5.547   0.671   0.751
 3193TIP3   OH2 9584   4.649   0.491   0.522
 3193TIP3    H1 9585   4.660   0.468   0.430
 3193TIP3    H2 9586   4.679   0.582   0.527
 3194TIP3   OH2 9587   5.468   2.586   4.492
 3194TIP3    H1 9588   5.395   2.646   4.506
 3194TIP3    H2 9589   5.486   2.551   4.579
 3195TIP3   OH2 9590   2.106   4.993   4.372
 3195TIP3    H1 9591   2.103   4.945   4.289
 3195TIP3    H2 9592   2.189   4.966   4.412
 3196TIP3   OH2 9593   4.426   2.236   3.809
 3196TIP3    H1 9594   4.465   2.222   3.895
 3196TIP3    H2 9595   4.388   2.324   3.814
 3197TIP3   OH2 9596   4.158   1.469   2.802
 3197TIP3    H1 9597   4.072   1.429   2.800
 3197TIP3    H2 9598   4.196   1.450   2.716
 3198TIP3   OH2 9599   4.750   2.631   3.618
 3198TIP3    H1 9600   4.704   2.658   3.538
 3198TIP3    H2 9601   4.780   2.542   3.599
 3199TIP3   OH2 9602   5.268   3.094   2.087
 3199TIP3    H1 9603   5.241   3.106   2.178
 3199TIP3    H2 9604   5.354   3.052   2.092
 3200TIP3   OH2 9605   0.868   0.573   3.595
 3200TIP3    H1 9606   0.953   0.609   3.571
 3200TIP3    H2 9607   0.884   0.480   3.607
 3201TIP3   OH2 9608   2.869   2.816   3.446
 3201TIP3    H1 9609   2.788   2.786   3.406
 3201TIP3    H2 9610   2.929   2.742   3.438
 3202TIP3   OH2 9611   4.278   1.285   4.846
 3202TIP3    H1 9612   4.243   1.334   4.921
 3202TIP3    H2 9613   4.366   1.258   4.875
 3203TIP3   OH2 9614   3.306   2.006   4.584
 3203TIP3    H1 9615   3.347   1.920   4.599
 3203TIP3    H2 9616   3.258   2.024   4.665
 3204TIP3   OH2 9617   5.029   0.577   1.234
 3204TIP3    H1 9618   4.977   0.515   1.183
 3204TIP3    H2 9619   5.120   0.548   1.220
 3205TIP3   OH2 9620   3.758   4.741   0.098
 3205TIP3    H1 9621   3.673   4.729   0.056
 3205TIP3    H2 9622   3.739   4.741   0.192
 3206TIP3   OH2 9623   5.979   3.658   3.259
 3206TIP3    H1 9624   6.030   3.729   3.300
 3206TIP3    H2 9625   5.889   3.676   3.286
 3207TIP3   OH2 9626   2.936   3.226   1.972
 3207TIP3    H1 9627   2.912   3.280   2.047
 3207TIP3    H2 9628   3.032   3.219   1.978
 3208TIP3   OH2 9629   2.301   5.273   0.737
 3208TIP3    H1 9630   2.387   5.309   0.761
 3208TIP3    H2 9631   2.299   5.280   0.642
 3209TIP3   OH2 9632   0.389   1.791   1.452
 3209TIP3    H1 9633   0.354   1.855   1.391
 3209TIP3    H2 9634   0.428   1.723   1.397
 3210TIP3   OH2 9635   0.347   3.062   3.398
 3210TIP3    H1 9636   0.375   2.971   3.392
 3210TIP3    H2 9637   0.427   3.113   3.386
 3211TIP3   OH2 9638   4.029   2.011   0.330
 3211TIP3    H1 9639   4.055   2.103   0.320
 3211TIP3    H2 9640   3.982   1.990   0.250
 3212TIP3   OH2 9641   4.210   0.895   0.243
 3212TIP3    H1 9642   4.119   0.879   0.218
 3212TIP3    H2 9643   4.261   0.866   0.167
 3213TIP3   OH2 9644   2.710   3.189   1.625
 3213TIP3    H1 9645   2.792   3.142   1.613
 3213TIP3    H2 9646   2.645   3.136   1.577
 3214TIP3   OH2 9647   2.566   4.755   0.320
 3214TIP3    H1 9648   2.523   4.729   0.401
 3214TIP3    H2 9649   2.657   4.725   0.330
 3215TIP3   OH2 9650   4.809   0.309   4.013
 3215TIP3    H1 9651   4.804   0.393   4.057
 3215TIP3    H2 9652   4.867   0.256   4.068
 3216TIP3   OH2 9653   2.913   2.984   0.935
 3216TIP3    H1 9654   3.001   3.015   0.915
 3216TIP3    H2 9655   2.902   2.906   0.882
 3217TIP3   OH2 9656   1.338   0.192   3.705
 3217TIP3    H1 9657   1.401   0.188   3.776
 3217TIP3    H2 9658   1.390   0.216   3.628
 3218TIP3   OH2 9659   3.632   0.409   4.970
 3218TIP3    H1 9660   3.598   0.361   4.894
 3218TIP3    H2 9661   3.722   0.429   4.947
 3219TIP3   OH2 9662   1.973   0.234   4.509
 3219TIP3    H1 9663   2.013   0.167   4.564
 3219TIP3    H2 9664   2.024   0.313   4.526
 3220TIP3   OH2 9665   1.818   4.170   4.705
 3220TIP3    H1 9666   1.776   4.230   4.768
 3220TIP3    H2 9667   1.745   4.127   4.661
 3221TIP3   OH2 9668   2.426   2.771   4.559
 3221TIP3    H1 9669   2.361   2.741   4.623
 3221TIP3    H2 9670   2.510   2.737   4.591
 3222TIP3   OH2 9671   0.882   5.943   2.663
 3222TIP3    H1 9672   0.819   5.873   2.649
 3222TIP3    H2 9673   0.850   5.988   2.741
 3223TIP3   OH2 9674   3.939   4.302   0.032
 3223TIP3    H1 9675   4.014   4.248   0.005
 3223TIP3    H2 9676   3.971   4.392   0.027
 3224TIP3   OH2 9677   1.986   5.230   1.738
 3224TIP3    H1 9678   1.891   5.243   1.732
 3224TIP3    H2 9679   2.023   5.292   1.676
 3225TIP3   OH2 9680   0.076   4.549   1.440
 3225TIP3    H1 9681   0.137   4.501   1.384
 3225TIP3    H2 9682  -0.007   4.501   1.432
 3226TIP3   OH2 9683   4.112   5.911   2.464
 3226TIP3    H1 9684   4.039   5.856   2.431
 3226TIP3    H2 9685   4.070   5.974   2.522
 3227TIP3   OH2 9686   6.082   1.384   1.875
 3227TIP3    H1 9687   5.996   1.377   1.832
 3227TIP3    H2 9688   6.091   1.477   1.894
 3228TIP3   OH2 9689   0.444   1.351   3.036
 3228TIP3    H1 9690   0.462   1.260   3.058
 3228TIP3    H2 9691   0.521   1.399   3.069
 3229TIP3   OH2 9692   0.192   2.795   0.334
 3229TIP3    H1 9693   0.144   2.718   0.363
 3229TIP3    H2 9694   0.231   2.831   0.413
 3230TIP3   OH2 9695   1.696   3.919   1.046
 3230TIP3    H1 9696   1.730   3.866   1.119
 3230TIP3    H2 9697   1.769   3.975   1.020
 3231TIP3   OH2 9698   2.407   1.178   3.955
 3231TIP3    H1 9699   2.315   1.180   3.979
 3231TIP3    H2 9700   2.435   1.270   3.960
 3232TIP3   OH2 9701   0.331   1.103   1.599
 3232TIP3    H1 9702   0.384   1.139   1.670
 3232TIP3    H2 9703   0.347   1.009   1.602
 3233TIP3   OH2 9704   5.497   5.423   1.192
 3233TIP3    H1 9705   5.435   5.415   1.264
 3233TIP3    H2 9706   5.549   5.500   1.214
 3234TIP3   OH2 9707   0.328   4.903   3.300
 3234TIP3    H1 9708   0.320   4.995   3.326
 3234TIP3    H2 9709   0.238   4.876   3.278
 3235TIP3   OH2 9710   3.002   2.610   3.963
 3235TIP3    H1 9711   2.998   2.640   4.054
 3235TIP3    H2 9712   3.092   2.580   3.951
 3236TIP3   OH2 9713   0.791   1.517   2.940
 3236TIP3    H1 9714   0.720   1.540   2.999
 3236TIP3    H2 9715   0.816   1.600   2.900
 3237TIP3   OH2 9716   3.426   1.095   5.009
 3237TIP3    H1 9717   3.455   1.174   4.963
 3237TIP3    H2 9718   3.506   1.063   5.052
 3238TIP3   OH2 9719   3.279   1.263   0.266
 3238TIP3    H1 9720   3.266   1.215   0.348
 3238TIP3    H2 9721   3.224   1.217   0.203
 3239TIP3   OH2 9722   2.860   4.854   0.103
 3239TIP3    H1 9723   2.821   4.928   0.150
 3239TIP3    H2 9724   2.834   4.867   0.012
 3240TIP3   OH2 9725   3.565   0.933   0.245
 3240TIP3    H1 9726   3.608   0.856   0.282
 3240TIP3    H2 9727   3.489   0.947   0.302
 3241TIP3   OH2 9728   5.753   2.015   1.934
 3241TIP3    H1 9729   5.692   1.941   1.926
 3241TIP3    H2 9730   5.699   2.092   1.921
 3242TIP3   OH2 9731   4.549   3.037   0.222
 3242TIP3    H1 9732   4.457   3.012   0.215
 3242TIP3    H2 9733   4.597   2.954   0.220
 3243TIP3   OH2 9734   4.363   1.152   0.319
 3243TIP3    H1 9735   4.339   1.226   0.263
 3243TIP3    H2 9736   4.308   1.080   0.289
 3244TIP3   OH2 9737   1.168   3.924   1.880
 3244TIP3    H1 9738   1.187   3.935   1.973
 3244TIP3    H2 9739   1.126   3.838   1.873
 3245TIP3   OH2 9740   5.825   2.724   0.517
 3245TIP3    H1 9741   5.756   2.688   0.461
 3245TIP3    H2 9742   5.853   2.650   0.571
 3246TIP3   OH2 9743   3.107   1.996   3.349
 3246TIP3    H1 9744   3.135   1.906   3.365
 3246TIP3    H2 9745   3.012   1.991   3.342
 3247TIP3   OH2 9746   5.222   5.111   2.163
 3247TIP3    H1 9747   5.240   5.043   2.098
 3247TIP3    H2 9748   5.286   5.179   2.144
 3248TIP3   OH2 9749   4.469   5.846   5.048
 3248TIP3    H1 9750   4.383   5.803   5.053
 3248TIP3    H2 9751   4.527   5.779   5.014
 3249TIP3   OH2 9752   2.499   4.092   2.747
 3249TIP3    H1 9753   2.418   4.068   2.792
 3249TIP3    H2 9754   2.472   4.115   2.659
 3250TIP3   OH2 9755   5.190   1.674   4.220
 3250TIP3    H1 9756   5.156   1.739   4.282
 3250TIP3    H2 9757   5.281   1.699   4.208
 3251TIP3   OH2 9758   1.069   1.939   0.911
 3251TIP3    H1 9759   1.022   2.020   0.931
 3251TIP3    H2 9760   1.138   1.934   0.977
 3252TIP3   OH2 9761   2.562   2.902   1.689
 3252TIP3    H1 9762   2.553   2.840   1.761
 3252TIP3    H2 9763   2.491   2.965   1.703
 3253TIP3   OH2 9764   4.246   4.596   4.573
 3253TIP3    H1 9765   4.182   4.632   4.512
 3253TIP3    H2 9766   4.319   4.658   4.571
 3254TIP3   OH2 9767   4.410   3.954   0.798
 3254TIP3    H1 9768   4.489   3.986   0.754
 3254TIP3    H2 9769   4.346   4.024   0.786
 3255TIP3   OH2 9770   0.703   2.934   5.070
 3255TIP3    H1 9771   0.772   2.868   5.071
 3255TIP3    H2 9772   0.629   2.892   5.113
 3256TIP3   OH2 9773   5.213   5.169   1.723
 3256TIP3    H1 9774   5.192   5.196   1.633
 3256TIP3    H2 9775   5.262   5.243   1.759
 3257TIP3   OH2 9776   0.419   4.955   3.650
 3257TIP3    H1 9777   0.377   5.017   3.590
 3257TIP3    H2 9778   0.486   4.912   3.597
 3258TIP3   OH2 9779   2.003   4.098   2.240
 3258TIP3    H1 9780   2.069   4.038   2.276
 3258TIP3    H2 9781   2.054   4.163   2.192
 3259TIP3   OH2 9782   5.063   4.203   3.098
 3259TIP3    H1 9783   5.105   4.274   3.048
 3259TIP3    H2 9784   4.969   4.218   3.088
 3260TIP3   OH2 9785   4.114   0.913   3.542
 3260TIP3    H1 9786   4.181   0.982   3.541
 3260TIP3    H2 9787   4.151   0.843   3.487
 3261TIP3   OH2 9788   4.045   5.132   4.273
 3261TIP3    H1 9789   4.121   5.190   4.283
 3261TIP3    H2 9790   3.970   5.187   4.292
 3262TIP3   OH2 9791   2.719   1.209   0.603
 3262TIP3    H1 9792   2.752   1.182   0.689
 3262TIP3    H2 9793   2.642   1.263   0.624
 3263TIP3   OH2 9794   0.070   4.279   2.711
 3263TIP3    H1 9795  -0.011   4.312   2.749
 3263TIP3    H2 9796   0.097   4.347   2.649
 3264TIP3   OH2 9797   4.038   0.905   2.836
 3264TIP3    H1 9798   4.049   0.900   2.741
 3264TIP3    H2 9799   4.117   0.949   2.867
 3265TIP3   OH2 9800   4.121   5.130   0.950
 3265TIP3    H1 9801   4.135   5.221   0.922
 3265TIP3    H2 9802   4.098   5.137   1.042
 3266TIP3   OH2 9803   2.781   3.038   2.504
 3266TIP3    H1 9804   2.725   3.075   2.436
 3266TIP3    H2 9805   2.805   3.113   2.559
 3267TIP3   OH2 9806   5.541   1.106   3.041
 3267TIP3    H1 9807   5.528   1.198   3.019
 3267TIP3    H2 9808   5.611   1.077   2.983
 3268TIP3   OH2 9809   6.291   5.215   3.773
 3268TIP3    H1 9810   6.230   5.150   3.808
 3268TIP3    H2 9811   6.338   5.168   3.704
 3269TIP3   OH2 9812   2.158   0.274   2.911
 3269TIP3    H1 9813   2.071   0.312   2.912
 3269TIP3    H2 9814   2.215   0.345   2.942
 3270TIP3   OH2 9815   6.294   5.393   5.041
 3270TIP3    H1 9816   6.357   5.322   5.029
 3270TIP3    H2 9817   6.293   5.439   4.958
 3271TIP3   OH2 9818   5.618   0.418   0.529
 3271TIP3    H1 9819   5.571   0.341   0.559
 3271TIP3    H2 9820   5.634   0.470   0.608
 3272TIP3   OH2 9821   1.551   1.822   4.937
 3272TIP3    H1 9822   1.641   1.797   4.962
 3272TIP3    H2 9823   1.501   1.814   5.019
 3273TIP3   OH2 9824   3.421   5.320   2.593
 3273TIP3    H1 9825   3.504   5.367   2.606
 3273TIP3    H2 9826   3.364   5.384   2.552
 3274TIP3   OH2 9827   5.824   0.235   1.595
 3274TIP3    H1 9828   5.788   0.146   1.596
 3274TIP3    H2 9829   5.896   0.232   1.532
 3275TIP3   OH2 9830   0.403   2.270   2.356
 3275TIP3    H1 9831   0.361   2.346   2.316
 3275TIP3    H2 9832   0.340   2.199   2.342
 3276TIP3   OH2 9833   5.456   3.871   0.463
 3276TIP3    H1 9834   5.520   3.941   0.447
 3276TIP3    H2 9835   5.375   3.903   0.424
 3277TIP3   OH2 9836   3.645   1.937   0.243
 3277TIP3    H1 9837   3.628   1.846   0.219
 3277TIP3    H2 9838   3.686   1.931   0.330
 3278TIP3   OH2 9839   3.241   2.982   0.588
 3278TIP3    H1 9840   3.301   2.999   0.660
 3278TIP3    H2 9841   3.198   3.067   0.572
 3279TIP3   OH2 9842   2.213   5.488   4.009
 3279TIP3    H1 9843   2.220   5.579   3.981
 3279TIP3    H2 9844   2.124   5.480   4.044
 3280TIP3   OH2 9845   1.365   4.115   0.776
 3280TIP3    H1 9846   1.278   4.098   0.739
 3280TIP3    H2 9847   1.371   4.210   0.782
 3281TIP3   OH2 9848   2.704   2.532   4.963
 3281TIP3    H1 9849   2.646   2.486   4.904
 3281TIP3    H2 9850   2.772   2.469   4.985
 3282TIP3   OH2 9851   0.497   3.852   2.626
 3282TIP3    H1 9852   0.585   3.881   2.650
 3282TIP3    H2 9853   0.506   3.759   2.606
 3283TIP3   OH2 9854   0.822   2.986   0.384
 3283TIP3    H1 9855   0.851   3.024   0.302
 3283TIP3    H2 9856   0.826   3.058   0.447
 3284TIP3   OH2 9857   4.328   4.175   4.076
 3284TIP3    H1 9858   4.261   4.140   4.016
 3284TIP3    H2 9859   4.313   4.270   4.074
 3285TIP3   OH2 9860   4.397   5.047   4.467
 3285TIP3    H1 9861   4.492   5.062   4.464
 3285TIP3    H2 9862   4.374   5.058   4.559
 3286TIP3   OH2 9863   4.325   1.210   3.928
 3286TIP3    H1 9864   4.361   1.129   3.964
 3286TIP3    H2 9865   4.395   1.274   3.941
 3287TIP3   OH2 9866   3.287   5.921   1.877
 3287TIP3    H1 9867   3.283   5.830   1.906
 3287TIP3    H2 9868   3.196   5.944   1.860
 3288TIP3   OH2 9869   1.255   2.021   0.725
 3288TIP3    H1 9870   1.178   2.003   0.779
 3288TIP3    H2 9871   1.313   1.946   0.741
 3289TIP3   OH2 9872   5.075   5.305   1.189
 3289TIP3    H1 9873   5.003   5.277   1.133
 3289TIP3    H2 9874   5.148   5.247   1.166
 3290TIP3   OH2 9875   4.857   4.922   4.789
 3290TIP3    H1 9876   4.894   4.834   4.793
 3290TIP3    H2 9877   4.927   4.979   4.821
 3291TIP3   OH2 9878   0.751   5.753   1.502
 3291TIP3    H1 9879   0.746   5.759   1.598
 3291TIP3    H2 9880   0.662   5.728   1.476
 3292TIP3   OH2 9881   1.728   2.677   0.576
 3292TIP3    H1 9882   1.694   2.731   0.648
 3292TIP3    H2 9883   1.760   2.741   0.512
 3293TIP3   OH2 9884   3.871   4.684   4.597
 3293TIP3    H1 9885   3.923   4.735   4.659
 3293TIP3    H2 9886   3.906   4.708   4.511
 3294TIP3   OH2 9887   5.982   2.186   3.974
 3294TIP3    H1 9888   5.918   2.247   3.937
 3294TIP3    H2 9889   6.008   2.226   4.057
 3295TIP3   OH2 9890   1.201   4.001   1.188
 3295TIP3    H1 9891   1.237   4.026   1.273
 3295TIP3    H2 9892   1.278   3.982   1.134
 3296TIP3   OH2 9893   5.846   0.454   2.630
 3296TIP3    H1 9894   5.918   0.477   2.689
 3296TIP3    H2 9895   5.886   0.398   2.564
 3297TIP3   OH2 9896   4.727   2.105   1.812
 3297TIP3    H1 9897   4.687   2.026   1.849
 3297TIP3    H2 9898   4.693   2.110   1.723
 3298TIP3   OH2 9899   4.695   0.163   4.639
 3298TIP3    H1 9900   4.696   0.240   4.582
 3298TIP3    H2 9901   4.684   0.199   4.727
 3299TIP3   OH2 9902   2.069   4.613   3.848
 3299TIP3    H1 9903   2.129   4.571   3.785
 3299TIP3    H2 9904   2.106   4.593   3.934
 3300TIP3   OH2 9905   5.487   3.598   2.434
 3300TIP3    H1 9906   5.557   3.660   2.416
 3300TIP3    H2 9907   5.520   3.544   2.506
 3301TIP3   OH2 9908   0.344   4.146   3.579
 3301TIP3    H1 9909   0.430   4.119   3.547
 3301TIP3    H2 9910   0.319   4.078   3.642
 3302TIP3   OH2 9911   5.652   5.164   0.485
 3302TIP3    H1 9912   5.581   5.108   0.517
 3302TIP3    H2 9913   5.686   5.117   0.408
 3303TIP3   OH2 9914   6.212   2.487   4.300
 3303TIP3    H1 9915   6.305   2.470   4.289
 3303TIP3    H2 9916   6.200   2.492   4.395
 3304TIP3   OH2 9917   3.816   0.997   4.809
 3304TIP3    H1 9918   3.728   0.960   4.819
 3304TIP3    H2 9919   3.854   0.949   4.735
 3305TIP3   OH2 9920   4.257   4.832   2.857
 3305TIP3    H1 9921   4.306   4.791   2.786
 3305TIP3    H2 9922   4.303   4.914   2.875
 3306TIP3   OH2 9923   3.180   0.401   0.455
 3306TIP3    H1 9924   3.100   0.350   0.467
 3306TIP3    H2 9925   3.224   0.397   0.540
 3307TIP3   OH2 9926   2.832   4.378   1.084
 3307TIP3    H1 9927   2.917   4.412   1.111
 3307TIP3    H2 9928   2.832   4.388   0.989
 3308TIP3   OH2 9929   4.789   2.842   2.614
 3308TIP3    H1 9930   4.799   2.766   2.557
 3308TIP3    H2 9931   4.865   2.896   2.595
 3309TIP3   OH2 9932   1.926   0.834   1.283
 3309TIP3    H1 9933   1.937   0.894   1.209
 3309TIP3    H2 9934   1.967   0.879   1.356
 3310TIP3   OH2 9935   2.844   2.248   4.283
 3310TIP3    H1 9936   2.936   2.223   4.274
 3310TIP3    H2 9937   2.840   2.339   4.252
 3311TIP3   OH2 9938   0.370   2.933   5.092
 3311TIP3    H1 9939   0.409   2.959   5.008
 3311TIP3    H2 9940   0.297   2.994   5.104
 3312TIP3   OH2 9941   2.751   2.849   0.162
 3312TIP3    H1 9942   2.767   2.869   0.254
 3312TIP3    H2 9943   2.738   2.754   0.160
 3313TIP3   OH2 9944   3.087   4.886   5.070
 3313TIP3    H1 9945   3.102   4.980   5.066
 3313TIP3    H2 9946   3.174   4.848   5.055
 3314TIP3   OH2 9947   0.221   0.098   2.557
 3314TIP3    H1 9948   0.138   0.146   2.555
 3314TIP3    H2 9949   0.278   0.145   2.496
 3315TIP3   OH2 9950   1.446   3.474   4.247
 3315TIP3    H1 9951   1.527   3.524   4.252
 3315TIP3    H2 9952   1.469   3.387   4.278
 3316TIP3   OH2 9953   3.571   1.065   2.785
 3316TIP3    H1 9954   3.575   1.018   2.868
 3316TIP3    H2 9955   3.512   1.012   2.731
 3317TIP3   OH2 9956   5.208   0.257   2.551
 3317TIP3    H1 9957   5.168   0.340   2.578
 3317TIP3    H2 9958   5.163   0.234   2.469
 3318TIP3   OH2 9959   3.952   4.652   5.123
 3318TIP3    H1 9960   3.862   4.650   5.158
 3318TIP3    H2 9961   3.987   4.565   5.142
 3319TIP3   OH2 9962   5.118   1.920   4.342
 3319TIP3    H1 9963   5.175   1.971   4.399
 3319TIP3    H2 9964   5.029   1.942   4.372
 3320TIP3   OH2 9965   0.423   2.367   4.746
 3320TIP3    H1 9966   0.474   2.447   4.761
 3320TIP3    H2 9967   0.407   2.366   4.651
 3321TIP3   OH2 9968   4.818   1.547   4.017
 3321TIP3    H1 9969   4.859   1.623   4.059
 3321TIP3    H2 9970   4.829   1.476   4.080
 3322TIP3   OH2 9971   0.271   5.541   4.240
 3322TIP3    H1 9972   0.181   5.571   4.228
 3322TIP3    H2 9973   0.276   5.521   4.334
 3323TIP3   OH2 9974   3.956   4.197   0.626
 3323TIP3    H1 9975   3.889   4.212   0.693
 3323TIP3    H2 9976   3.908   4.202   0.543
 3324TIP3   OH2 9977   5.756   2.839   2.137
 3324TIP3    H1 9978   5.831   2.856   2.194
 3324TIP3    H2 9979   5.795   2.821   2.052
 3325TIP3   OH2 9980   4.069   1.530   3.657
 3325TIP3    H1 9981   3.983   1.554   3.691
 3325TIP3    H2 9982   4.131   1.576   3.713
 3326TIP3   OH2 9983   1.862   0.801   0.529
 3326TIP3    H1 9984   1.789   0.751   0.491
 3326TIP3    H2 9985   1.841   0.806   0.622
 3327TIP3   OH2 9986   4.438   3.249   3.778
 3327TIP3    H1 9987   4.441   3.169   3.725
 3327TIP3    H2 9988   4.511   3.240   3.839
 3328TIP3   OH2 9989   4.061   0.564   1.083
 3328TIP3    H1 9990   4.146   0.608   1.089
 3328TIP3    H2 9991   4.075   0.479   1.124
 3329TIP3   OH2 9992   3.533   1.961   2.566
 3329TIP3    H1 9993   3.589   1.979   2.642
 3329TIP3    H2 9994   3.477   1.889   2.594
 3330TIP3   OH2 9995   5.701   1.376   4.640
 3330TIP3    H1 9996   5.780   1.429   4.628
 3330TIP3    H2 9997   5.694   1.324   4.560
 3331TIP3   OH2 9998   3.765   2.479   1.765
 3331TIP3    H1 9999   3.709   2.538   1.816
 3331TIP3    H210000   3.759   2.395   1.812
 3332TIP3   OH210001   4.657   5.051   0.203
 3332TIP3    H110002   4.615   5.137   0.196
 3332TIP3    H210003   4.587   4.993   0.231
 3333TIP3   OH210004   5.879   1.870   2.524
 3333TIP3    H110005   5.955   1.815   2.509
 3333TIP3    H210006   5.850   1.847   2.613
 3334TIP3   OH210007   3.909   3.064   0.874
 3334TIP3    H110008   3.896   3.153   0.906
 3334TIP3    H210009   3.860   3.061   0.792
 3335TIP3   OH210010   5.388   3.761   4.662
 3335TIP3    H110011   5.415   3.850   4.642
 3335TIP3    H210012   5.384   3.717   4.577
 3336TIP3   OH210013   2.899   0.628   0.864
 3336TIP3    H110014   2.854   0.615   0.948
 3336TIP3    H210015   2.844   0.584   0.800
 3337TIP3   OH210016   5.667   3.116   1.076
 3337TIP3    H110017   5.729   3.141   1.007
 3337TIP3    H210018   5.581   3.142   1.041
 3338TIP3   OH210019   0.345   3.266   2.432
 3338TIP3    H110020   0.284   3.340   2.433
 3338TIP3    H210021   0.326   3.221   2.350
 3339TIP3   OH210022   1.579   2.884   0.243
 3339TIP3    H110023   1.620   2.885   0.156
 3339TIP3    H210024   1.527   2.964   0.245
 3340TIP3   OH210025   4.541   2.606   4.305
 3340TIP3    H110026   4.473   2.544   4.280
 3340TIP3    H210027   4.549   2.665   4.230
 3341TIP3   OH210028   4.639   5.245   3.163
 3341TIP3    H110029   4.631   5.305   3.089
 3341TIP3    H210030   4.686   5.296   3.230
 3342TIP3   OH210031   0.304   5.933   4.674
 3342TIP3    H110032   0.257   5.930   4.758
 3342TIP3    H210033   0.241   5.970   4.612
 3343TIP3   OH210034   2.177   3.798   3.860
 3343TIP3    H110035   2.228   3.876   3.838
 3343TIP3    H210036   2.186   3.741   3.784
 3344TIP3   OH210037   3.629   5.514   0.472
 3344TIP3    H110038   3.654   5.600   0.505
 3344TIP3    H210039   3.569   5.532   0.400
 3345TIP3   OH210040   5.074   4.025   3.678
 3345TIP3    H110041   5.020   4.053   3.604
 3345TIP3    H210042   5.096   4.107   3.724
 3346TIP3   OH210043   6.212   4.799   1.151
 3346TIP3    H110044   6.161   4.725   1.184
 3346TIP3    H210045   6.163   4.876   1.179
 3347TIP3   OH210046   3.751   5.910   1.319
 3347TIP3    H110047   3.797   5.830   1.293
 3347TIP3    H210048   3.821   5.974   1.333
 3348TIP3   OH210049   5.287   4.305   4.822
 3348TIP3    H110050   5.361   4.289   4.880
 3348TIP3    H210051   5.273   4.399   4.826
 3349TIP3   OH210052   3.990   2.802   2.228
 3349TIP3    H110053   3.896   2.808   2.210
 3349TIP3    H210054   4.010   2.709   2.216
 3350TIP3   OH210055   2.070   2.345   3.800
 3350TIP3    H110056   2.018   2.328   3.722
 3350TIP3    H210057   2.040   2.431   3.830
 3351TIP3   OH210058   4.953   2.190   0.325
 3351TIP3    H110059   4.917   2.272   0.359
 3351TIP3    H210060   4.886   2.159   0.263
 3352TIP3   OH210061   1.284   2.224   4.115
 3352TIP3    H110062   1.191   2.203   4.128
 3352TIP3    H210063   1.312   2.262   4.198
 3353TIP3   OH210064   3.384   4.283   2.319
 3353TIP3    H110065   3.446   4.354   2.336
 3353TIP3    H210066   3.432   4.222   2.264
 3354TIP3   OH210067   0.163   5.136   0.529
 3354TIP3    H110068   0.124   5.223   0.516
 3354TIP3    H210069   0.091   5.083   0.564
 3355TIP3   OH210070   0.159   3.458   2.360
 3355TIP3    H110071   0.098   3.384   2.351
 3355TIP3    H210072   0.201   3.464   2.274
 3356TIP3   OH210073   2.192   0.094   1.244
 3356TIP3    H110074   2.125   0.109   1.310
 3356TIP3    H210075   2.232   0.180   1.230
 3357TIP3   OH210076   5.773   0.242   0.186
 3357TIP3    H110077   5.722   0.214   0.263
 3357TIP3    H210078   5.863   0.241   0.217
 3358TIP3   OH210079   4.005   2.625   1.818
 3358TIP3    H110080   3.927   2.577   1.843
 3358TIP3    H210081   4.077   2.565   1.834
 3359TIP3   OH210082   5.593   2.216   1.501
 3359TIP3    H110083   5.608   2.301   1.543
 3359TIP3    H210084   5.499   2.200   1.513
 3360TIP3   OH210085   5.902   3.169   4.526
 3360TIP3    H110086   5.956   3.119   4.466
 3360TIP3    H210087   5.816   3.175   4.483
 3361TIP3   OH210088   4.499   5.547   3.867
 3361TIP3    H110089   4.533   5.620   3.816
 3361TIP3    H210090   4.406   5.568   3.878
 3362TIP3   OH210091   6.180   2.946   5.072
 3362TIP3    H110092   6.252   2.954   5.009
 3362TIP3    H210093   6.128   3.026   5.060
 3363TIP3   OH210094   0.719   5.763   1.764
 3363TIP3    H110095   0.753   5.848   1.790
 3363TIP3    H210096   0.685   5.725   1.844
 3364TIP3   OH210097   2.654   2.013   2.871
 3364TIP3    H110098   2.581   1.988   2.814
 3364TIP3    H210099   2.639   2.106   2.890
 3365TIP3   OH210100   5.925   4.780   0.947
 3365TIP3    H110101   6.016   4.803   0.927
 3365TIP3    H210102   5.927   4.753   1.039
 3366TIP3   OH210103   0.623   5.822   0.047
 3366TIP3    H110104   0.557   5.766   0.005
 3366TIP3    H210105   0.675   5.856  -0.026
 3367TIP3   OH210106   2.091   4.580   0.449
 3367TIP3    H110107   2.137   4.604   0.529
 3367TIP3    H210108   2.037   4.656   0.428
 3368TIP3   OH210109   3.117   1.195   1.751
 3368TIP3    H110110   3.149   1.256   1.685
 3368TIP3    H210111   3.047   1.147   1.708
 3369TIP3   OH210112   6.381   1.546   4.133
 3369TIP3    H110113   6.362   1.504   4.049
 3369TIP3    H210114   6.327   1.499   4.197
 3370TIP3   OH210115   2.238   0.541   0.356
 3370TIP3    H110116   2.279   0.504   0.434
 3370TIP3    H210117   2.302   0.604   0.323
 3371TIP3   OH210118   1.628   4.106   0.144
 3371TIP3    H110119   1.551   4.151   0.109
 3371TIP3    H210120   1.654   4.159   0.220
 3372TIP3   OH210121   0.108   4.012   1.349
 3372TIP3    H110122   0.140   4.086   1.297
 3372TIP3    H210123   0.166   3.939   1.325
 3373TIP3   OH210124   4.843   2.086   5.002
 3373TIP3    H110125   4.751   2.111   5.004
 3373TIP3    H210126   4.889   2.159   5.043
 3374TIP3   OH210127   6.029   1.618   2.991
 3374TIP3    H110128   5.974   1.608   3.069
 3374TIP3    H210129   6.096   1.550   3.001
 3375TIP3   OH210130   2.976   2.469   2.854
 3375TIP3    H110131   3.012   2.554   2.879
 3375TIP3    H210132   2.888   2.488   2.822
 3376TIP3   OH210133   2.804   3.550   2.936
 3376TIP3    H110134   2.872   3.538   3.003
 3376TIP3    H210135   2.725   3.573   2.986
 3377TIP3   OH210136   6.226   3.414   2.495
 3377TIP3    H110137   6.159   3.457   2.441
 3377TIP3    H210138   6.268   3.352   2.435
 3378TIP3   OH210139   0.704   3.537  -0.013
 3378TIP3    H110140   0.783   3.492  -0.044
 3378TIP3    H210141   0.725   3.563   0.076
 3379TIP3   OH210142   0.832   1.404   4.075
 3379TIP3    H110143   0.744   1.371   4.094
 3379TIP3    H210144   0.822   1.455   3.995
 3380TIP3   OH210145   5.040   5.818   3.639
 3380TIP3    H110146   5.083   5.772   3.711
 3380TIP3    H210147   5.065   5.909   3.650
 3381TIP3   OH210148   3.244   5.062   3.169
 3381TIP3    H110149   3.277   5.062   3.259
 3381TIP3    H210150   3.180   4.991   3.168
 3382TIP3   OH210151   1.233   0.561   0.555
 3382TIP3    H110152   1.242   0.494   0.623
 3382TIP3    H210153   1.159   0.614   0.585
 3383TIP3   OH210154   0.826   2.180   0.339
 3383TIP3    H110155   0.800   2.093   0.370
 3383TIP3    H210156   0.766   2.240   0.382
 3384TIP3   OH210157   0.428   4.843   0.334
 3384TIP3    H110158   0.364   4.876   0.397
 3384TIP3    H210159   0.488   4.917   0.320
 3385TIP3   OH210160   2.811   2.733   1.131
 3385TIP3    H110161   2.762   2.809   1.164
 3385TIP3    H210162   2.902   2.762   1.131
 3386TIP3   OH210163   0.685   1.434   0.445
 3386TIP3    H110164   0.609   1.377   0.447
 3386TIP3    H210165   0.754   1.385   0.489
 3387TIP3   OH210166   1.218   5.745   2.777
 3387TIP3    H110167   1.277   5.819   2.762
 3387TIP3    H210168   1.218   5.734   2.872
 3388TIP3   OH210169   3.699   5.495   4.058
 3388TIP3    H110170   3.665   5.407   4.076
 3388TIP3    H210171   3.793   5.483   4.047
 3389TIP3   OH210172   6.319   2.028   4.762
 3389TIP3    H110173   6.312   1.937   4.789
 3389TIP3    H210174   6.401   2.059   4.802
 3390TIP3   OH210175   5.367   4.897   4.884
 3390TIP3    H110176   5.301   4.873   4.949
 3390TIP3    H210177   5.348   4.841   4.808
 3391TIP3   OH210178   1.095   2.253   0.671
 3391TIP3    H110179   1.163   2.186   0.685
 3391TIP3    H210180   1.104   2.312   0.745
 3392TIP3   OH210181   4.248   2.580   0.082
 3392TIP3    H110182   4.261   2.508   0.021
 3392TIP3    H210183   4.321   2.572   0.144
 3393TIP3   OH210184   1.839   2.861   4.916
 3393TIP3    H110185   1.831   2.766   4.927
 3393TIP3    H210186   1.922   2.873   4.870
 3394TIP3   OH210187   0.164   1.369   0.132
 3394TIP3    H110188   0.244   1.371   0.185
 3394TIP3    H210189   0.142   1.461   0.119
 3395TIP3   OH210190   1.527   5.812   3.047
 3395TIP3    H110191   1.594   5.809   3.115
 3395TIP3    H210192   1.517   5.721   3.019
 3396TIP3   OH210193   3.887   2.318   2.046
 3396TIP3    H110194   3.816   2.263   2.079
 3396TIP3    H210195   3.858   2.408   2.062
 3397TIP3   OH210196   4.863   5.124   4.047
 3397TIP3    H110197   4.780   5.117   3.999
 3397TIP3    H210198   4.848   5.196   4.108
 3398TIP3   OH210199   3.344   4.222   3.763
 3398TIP3    H110200   3.418   4.283   3.763
 3398TIP3    H210201   3.369   4.153   3.824
 3399TIP3   OH210202   3.033   5.859   3.526
 3399TIP3    H110203   3.042   5.814   3.609
 3399TIP3    H210204   3.121   5.889   3.505
 3400TIP3   OH210205   3.081   5.675   2.688
 3400TIP3    H110206   2.988   5.655   2.687
 3400TIP3    H210207   3.093   5.742   2.621
 3401TIP3   OH210208   1.476   3.878   2.040
 3401TIP3    H110209   1.493   3.906   2.129
 3401TIP3    H210210   1.440   3.955   1.997
 3402TIP3   OH210211   4.485   4.696   0.987
 3402TIP3    H110212   4.391   4.683   0.976
 3402TIP3    H210213   4.523   4.609   0.976
 3403TIP3   OH210214   5.103   2.709   0.537
 3403TIP3    H110215   5.054   2.792   0.531
 3403TIP3    H210216   5.158   2.719   0.614
 3404TIP3   OH210217   1.259   2.273   3.645
 3404TIP3    H110218   1.314   2.204   3.609
 3404TIP3    H210219   1.267   2.345   3.583
 3405TIP3   OH210220   1.290   4.950   4.532
 3405TIP3    H110221   1.319   4.978   4.619
 3405TIP3    H210222   1.208   4.997   4.517
 3406TIP3   OH210223   2.251   4.521   2.616
 3406TIP3    H110224   2.250   4.429   2.588
 3406TIP3    H210225   2.162   4.552   2.601
 3407TIP3   OH210226   1.016   1.687   0.109
 3407TIP3    H110227   1.101   1.723   0.136
 3407TIP3    H210228   1.035   1.595   0.089
 3408TIP3   OH210229   2.527   0.955   0.640
 3408TIP3    H110230   2.487   1.006   0.710
 3408TIP3    H210231   2.596   1.012   0.605
 3409TIP3   OH210232   5.695   4.215   3.222
 3409TIP3    H110233   5.607   4.239   3.251
 3409TIP3    H210234   5.696   4.119   3.224
 3410TIP3   OH210235   1.562   3.206   0.306
 3410TIP3    H110236   1.528   3.294   0.288
 3410TIP3    H210237   1.604   3.179   0.225
 3411TIP3   OH210238   3.093   4.702   0.451
 3411TIP3    H110239   3.103   4.715   0.545
 3411TIP3    H210240   3.135   4.618   0.433
 3412TIP3   OH210241   0.060   5.371   3.980
 3412TIP3    H110242  -0.009   5.430   4.009
 3412TIP3    H210243   0.017   5.310   3.921
 3413TIP3   OH210244   1.857   2.112   0.339
 3413TIP3    H110245   1.915   2.189   0.333
 3413TIP3    H210246   1.902   2.054   0.401
 3414TIP3   OH210247   6.071   2.452   0.066
 3414TIP3    H110248   6.166   2.467   0.069
 3414TIP3    H210249   6.054   2.415  -0.020
 3415TIP3   OH210250   2.633   5.263   2.346
 3415TIP3    H110251   2.602   5.353   2.348
 3415TIP3    H210252   2.587   5.220   2.419
 3416TIP3   OH210253   5.222   3.330   3.142
 3416TIP3    H110254   5.138   3.305   3.179
 3416TIP3    H210255   5.207   3.329   3.047
 3417TIP3   OH210256   0.368   5.889   3.125
 3417TIP3    H110257   0.409   5.812   3.085
 3417TIP3    H210258   0.321   5.931   3.054
 3418TIP3   OH210259   4.987   2.687   3.742
 3418TIP3    H110260   4.942   2.665   3.661
 3418TIP3    H210261   4.943   2.634   3.809
 3419TIP3   OH210262   3.877   1.832   3.562
 3419TIP3    H110263   3.853   1.837   3.469
 3419TIP3    H210264   3.877   1.738   3.582
 3420TIP3   OH210265   5.068   3.592   3.207
 3420TIP3    H110266   5.085   3.686   3.192
 3420TIP3    H210267   5.138   3.548   3.158
 3421TIP3   OH210268   2.605   4.526   3.900
 3421TIP3    H110269   2.669   4.498   3.834
 3421TIP3    H210270   2.626   4.618   3.916
 3422TIP3   OH210271   2.815   1.861   3.043
 3422TIP3    H110272   2.784   1.927   2.981
 3422TIP3    H210273   2.772   1.780   3.015
 3423TIP3   OH210274   4.806   1.237   3.784
 3423TIP3    H110275   4.802   1.209   3.693
 3423TIP3    H210276   4.842   1.325   3.781
 3424TIP3   OH210277   3.148   0.493   2.215
 3424TIP3    H110278   3.168   0.456   2.129
 3424TIP3    H210279   3.233   0.500   2.259
 3425TIP3   OH210280   2.463   1.775   3.451
 3425TIP3    H110281   2.496   1.778   3.541
 3425TIP3    H210282   2.501   1.853   3.409
 3426TIP3   OH210283   0.761   0.778   3.925
 3426TIP3    H110284   0.764   0.768   3.830
 3426TIP3    H210285   0.668   0.794   3.945
 3427TIP3   OH210286   0.206   3.019   1.834
 3427TIP3    H110287   0.245   3.106   1.829
 3427TIP3    H210288   0.254   2.974   1.903
 3428TIP3   OH210289   1.156   4.109   2.504
 3428TIP3    H110290   1.061   4.114   2.508
 3428TIP3    H210291   1.185   4.197   2.530
 3429TIP3   OH210292   2.107   3.123   2.490
 3429TIP3    H110293   2.187   3.095   2.444
 3429TIP3    H210294   2.095   3.214   2.462
 3430TIP3   OH210295   4.102   4.005   0.228
 3430TIP3    H110296   4.032   3.941   0.212
 3430TIP3    H210297   4.056   4.086   0.252
 3431TIP3   OH210298   1.097   0.970   1.769
 3431TIP3    H110299   1.153   1.011   1.835
 3431TIP3    H210300   1.146   0.893   1.741
 3432TIP3   OH210301   6.289   5.673   2.234
 3432TIP3    H110302   6.252   5.700   2.150
 3432TIP3    H210303   6.287   5.577   2.231
 3433TIP3   OH210304   5.405   5.222   3.042
 3433TIP3    H110305   5.397   5.311   3.010
 3433TIP3    H210306   5.347   5.171   2.986
 3434TIP3   OH210307   3.240   5.902   4.546
 3434TIP3    H110308   3.334   5.889   4.552
 3434TIP3    H210309   3.206   5.866   4.627
 3435TIP3   OH210310   1.384   4.474   3.749
 3435TIP3    H110311   1.336   4.394   3.726
 3435TIP3    H210312   1.372   4.483   3.843
 3436TIP3   OH210313   0.292   3.431   5.153
 3436TIP3    H110314   0.230   3.446   5.082
 3436TIP3    H210315   0.354   3.504   5.147
 3437TIP3   OH210316   2.742   3.995   4.975
 3437TIP3    H110317   2.670   3.977   5.035
 3437TIP3    H210318   2.702   3.986   4.888
 3438TIP3   OH210319   0.197   1.335   0.734
 3438TIP3    H110320   0.168   1.244   0.733
 3438TIP3    H210321   0.197   1.359   0.827
 3439TIP3   OH210322   0.560   1.127   2.250
 3439TIP3    H110323   0.478   1.080   2.233
 3439TIP3    H210324   0.586   1.098   2.338
 3440TIP3   OH210325   5.364   2.851   3.102
 3440TIP3    H110326   5.278   2.889   3.121
 3440TIP3    H210327   5.395   2.901   3.026
 3441TIP3   OH210328   1.983   0.396   2.162
 3441TIP3    H110329   2.021   0.347   2.235
 3441TIP3    H210330   1.932   0.465   2.203
 3442TIP3   OH210331   2.475   5.186   4.685
 3442TIP3    H110332   2.404   5.209   4.625
 3442TIP3    H210333   2.452   5.229   4.767
 3443TIP3   OH210334   4.792   2.036   3.407
 3443TIP3    H110335   4.885   2.018   3.421
 3443TIP3    H210336   4.752   1.950   3.395
 3444TIP3   OH210337   1.052   3.601   4.327
 3444TIP3    H110338   1.001   3.619   4.406
 3444TIP3    H210339   1.101   3.682   4.311
 3445TIP3   OH210340   1.863   5.709   2.019
 3445TIP3    H110341   1.881   5.665   1.936
 3445TIP3    H210342   1.790   5.768   1.999
 3446TIP3   OH210343   4.954   2.816   3.417
 3446TIP3    H110344   4.897   2.848   3.348
 3446TIP3    H210345   4.972   2.725   3.392
 3447TIP3   OH210346   3.730   1.830   1.908
 3447TIP3    H110347   3.782   1.841   1.988
 3447TIP3    H210348   3.794   1.814   1.839
 3448TIP3   OH210349   1.686   2.544   3.876
 3448TIP3    H110350   1.605   2.494   3.877
 3448TIP3    H210351   1.755   2.480   3.892
 3449TIP3   OH210352   0.451   5.247   4.599
 3449TIP3    H110353   0.469   5.275   4.688
 3449TIP3    H210354   0.402   5.165   4.609
 3450TIP3   OH210355   0.404   4.571   1.067
 3450TIP3    H110356   0.364   4.602   0.986
 3450TIP3    H210357   0.417   4.477   1.053
 3451TIP3   OH210358   3.038   1.508   0.587
 3451TIP3    H110359   3.059   1.474   0.500
 3451TIP3    H210360   3.110   1.477   0.642
 3452TIP3   OH210361   4.720   5.315   4.259
 3452TIP3    H110362   4.781   5.363   4.315
 3452TIP3    H210363   4.708   5.372   4.183
 3453TIP3   OH210364   1.027   2.777   4.734
 3453TIP3    H110365   0.989   2.864   4.748
 3453TIP3    H210366   1.081   2.787   4.656
 3454TIP3   OH210367   4.215   1.656   2.021
 3454TIP3    H110368   4.301   1.631   2.053
 3454TIP3    H210369   4.229   1.740   1.978
 3455TIP3   OH210370   3.816   0.935   4.387
 3455TIP3    H110371   3.836   1.000   4.320
 3455TIP3    H210372   3.881   0.951   4.456
 3456TIP3   OH210373   5.770   1.923   0.218
 3456TIP3    H110374   5.703   1.980   0.182
 3456TIP3    H210375   5.850   1.946   0.171
 3457TIP3   OH210376   5.614   0.271   1.902
 3457TIP3    H110377   5.646   0.181   1.905
 3457TIP3    H210378   5.667   0.313   1.833
 3458TIP3   OH210379   0.794   0.487   4.988
 3458TIP3    H110380   0.714   0.445   4.957
 3458TIP3    H210381   0.865   0.430   4.959
 3459TIP3   OH210382   3.794   1.201   1.903
 3459TIP3    H110383   3.805   1.280   1.955
 3459TIP3    H210384   3.883   1.165   1.896
 3460TIP3   OH210385   0.951   5.356   0.099
 3460TIP3    H110386   0.873   5.305   0.122
 3460TIP3    H210387   1.012   5.340   0.171
 3461TIP3   OH210388   3.541   5.571   1.583
 3461TIP3    H110389   3.619   5.520   1.561
 3461TIP3    H210390   3.535   5.637   1.514
 3462TIP3   OH210391   4.355   0.444   0.568
 3462TIP3    H110392   4.446   0.471   0.558
 3462TIP3    H210393   4.355   0.350   0.552
 3463TIP3   OH210394   4.596   5.231   1.694
 3463TIP3    H110395   4.504   5.255   1.691
 3463TIP3    H210396   4.601   5.149   1.645
 3464TIP3   OH210397   6.099   1.843   1.743
 3464TIP3    H110398   6.102   1.766   1.800
 3464TIP3    H210399   6.190   1.856   1.715
 3465TIP3   OH210400   2.236   2.368   5.105
 3465TIP3    H110401   2.240   2.424   5.183
 3465TIP3    H210402   2.144   2.342   5.099
 3466TIP3   OH210403   3.225   4.327   3.989
 3466TIP3    H110404   3.256   4.255   3.934
 3466TIP3    H210405   3.132   4.307   4.004
 3467TIP3   OH210406   2.146   4.201   4.173
 3467TIP3    H110407   2.241   4.189   4.163
 3467TIP3    H210408   2.137   4.284   4.220
 3468TIP3   OH210409   1.489   5.668   1.059
 3468TIP3    H110410   1.429   5.592   1.058
 3468TIP3    H210411   1.542   5.655   1.137
 3469TIP3   OH210412   3.102   5.789   4.757
 3469TIP3    H110413   3.092   5.696   4.737
 3469TIP3    H210414   3.139   5.791   4.845
 3470TIP3   OH210415   0.741   4.957   5.075
 3470TIP3    H110416   0.814   4.998   5.029
 3470TIP3    H210417   0.667   4.965   5.015
 3471TIP3   OH210418   0.295   1.267   1.041
 3471TIP3    H110419   0.289   1.333   1.111
 3471TIP3    H210420   0.348   1.197   1.079
 3472TIP3   OH210421   2.760   1.217   0.881
 3472TIP3    H110422   2.714   1.281   0.935
 3472TIP3    H210423   2.852   1.237   0.894
 3473TIP3   OH210424   4.693   5.421   3.993
 3473TIP3    H110425   4.621   5.471   3.956
 3473TIP3    H210426   4.772   5.464   3.961
 3474TIP3   OH210427   6.108   0.739   4.874
 3474TIP3    H110428   6.167   0.679   4.920
 3474TIP3    H210429   6.155   0.823   4.873
 3475TIP3   OH210430   1.569   5.501   1.707
 3475TIP3    H110431   1.533   5.476   1.792
 3475TIP3    H210432   1.582   5.418   1.661
 3476TIP3   OH210433   1.260   1.552   3.832
 3476TIP3    H110434   1.203   1.550   3.909
 3476TIP3    H210435   1.273   1.460   3.809
 3477TIP3   OH210436   2.195   4.955   3.413
 3477TIP3    H110437   2.199   5.025   3.479
 3477TIP3    H210438   2.166   4.999   3.333
 3478TIP3   OH210439   4.513   4.986   4.118
 3478TIP3    H110440   4.572   4.979   4.193
 3478TIP3    H210441   4.554   5.051   4.061
 3479TIP3   OH210442   4.123   2.896   0.949
 3479TIP3    H110443   4.065   2.820   0.945
 3479TIP3    H210444   4.064   2.971   0.946
 3480TIP3   OH210445   5.672   2.945   2.903
 3480TIP3    H110446   5.699   3.011   2.839
 3480TIP3    H210447   5.585   2.974   2.932
 3481TIP3   OH210448   3.262   4.135   3.504
 3481TIP3    H110449   3.227   4.212   3.460
 3481TIP3    H210450   3.291   4.166   3.589
 3482TIP3   OH210451   4.132   0.385   3.750
 3482TIP3    H110452   4.129   0.301   3.706
 3482TIP3    H210453   4.223   0.394   3.778
 3483TIP3   OH210454   3.457   4.228   3.209
 3483TIP3    H110455   3.550   4.237   3.189
 3483TIP3    H210456   3.431   4.313   3.243
 3484TIP3   OH210457   5.046   3.873   1.845
 3484TIP3    H110458   4.963   3.839   1.879
 3484TIP3    H210459   5.019   3.932   1.774
 3485TIP3   OH210460   4.103   3.060   1.292
 3485TIP3    H110461   4.053   3.060   1.374
 3485TIP3    H210462   4.181   3.112   1.312
 3486TIP3   OH210463   3.830   0.717   0.075
 3486TIP3    H110464   3.738   0.720   0.101
 3486TIP3    H210465   3.843   0.628   0.042
 3487TIP3   OH210466   0.398   1.655   4.610
 3487TIP3    H110467   0.416   1.653   4.516
 3487TIP3    H210468   0.325   1.716   4.619
 3488TIP3   OH210469   0.677   3.113   0.087
 3488TIP3    H110470   0.697   3.154   0.003
 3488TIP3    H210471   0.582   3.098   0.084
 3489TIP3   OH210472   2.029   3.913   2.965
 3489TIP3    H110473   1.953   3.971   2.954
 3489TIP3    H210474   2.096   3.968   3.003
 3490TIP3   OH210475   3.248   4.631   4.013
 3490TIP3    H110476   3.341   4.619   4.028
 3490TIP3    H210477   3.208   4.548   4.040
 3491TIP3   OH210478   3.606   5.367   4.832
 3491TIP3    H110479   3.655   5.340   4.754
 3491TIP3    H210480   3.672   5.400   4.892
 3492TIP3   OH210481   2.392   5.990   3.238
 3492TIP3    H110482   2.407   5.918   3.300
 3492TIP3    H210483   2.419   5.955   3.153
 3493TIP3   OH210484   2.310   4.554   1.086
 3493TIP3    H110485   2.400   4.551   1.052
 3493TIP3    H210486   2.254   4.556   1.009
 3494TIP3   OH210487   4.483   3.152   1.829
 3494TIP3    H110488   4.483   3.068   1.875
 3494TIP3    H210489   4.550   3.141   1.761
 3495TIP3   OH210490   5.013   4.062   4.432
 3495TIP3    H110491   5.000   3.967   4.438
 3495TIP3    H210492   4.940   4.099   4.482
 3496TIP3   OH210493   0.534   5.085   1.146
 3496TIP3    H110494   0.588   5.099   1.223
 3496TIP3    H210495   0.543   4.991   1.127
 3497TIP3   OH210496   0.349   4.699   0.804
 3497TIP3    H110497   0.405   4.777   0.799
 3497TIP3    H210498   0.371   4.649   0.725
 3498TIP3   OH210499   4.073   5.521   2.728
 3498TIP3    H110500   4.047   5.519   2.636
 3498TIP3    H210501   4.002   5.477   2.774
 3499TIP3   OH210502   1.802   0.106   0.631
 3499TIP3    H110503   1.825   0.057   0.552
 3499TIP3    H210504   1.773   0.191   0.599
 3500TIP3   OH210505   1.338   4.563   4.736
 3500TIP3    H110506   1.429   4.561   4.707
 3500TIP3    H210507   1.334   4.497   4.806
 3501TIP3   OH210508   5.326   4.605   3.525
 3501TIP3    H110509   5.243   4.653   3.521
 3501TIP3    H210510   5.383   4.662   3.576
 3502TIP3   OH210511   4.608   1.250   3.552
 3502TIP3    H110512   4.561   1.333   3.563
 3502TIP3    H210513   4.697   1.276   3.526
 3503TIP3   OH210514   0.675   1.680   0.324
 3503TIP3    H110515   0.596   1.687   0.270
 3503TIP3    H210516   0.677   1.589   0.352
 3504TIP3   OH210517   4.711   5.703   4.564
 3504TIP3    H110518   4.658   5.676   4.640
 3504TIP3    H210519   4.716   5.798   4.571
 3505TIP3   OH210520   4.775   0.405   1.122
 3505TIP3    H110521   4.765   0.394   1.216
 3505TIP3    H210522   4.852   0.352   1.099
 3506TIP3   OH210523   4.643   2.187   2.995
 3506TIP3    H110524   4.676   2.235   3.071
 3506TIP3    H210525   4.554   2.221   2.982
 3507TIP3   OH210526   1.382   2.895   1.757
 3507TIP3    H110527   1.325   2.848   1.697
 3507TIP3    H210528   1.460   2.840   1.764
 3508TIP3   OH210529   1.278   5.074   4.785
 3508TIP3    H110530   1.327   5.155   4.774
 3508TIP3    H210531   1.304   5.041   4.871
 3509TIP3   OH210532   0.726   5.580   3.090
 3509TIP3    H110533   0.773   5.660   3.066
 3509TIP3    H210534   0.712   5.588   3.185
 3510TIP3   OH210535   4.981   2.522   4.646
 3510TIP3    H110536   4.933   2.499   4.567
 3510TIP3    H210537   4.975   2.445   4.702
 3511TIP3   OH210538   2.789   3.257   0.031
 3511TIP3    H110539   2.796   3.229   0.122
 3511TIP3    H210540   2.879   3.251  -0.003
 3512TIP3   OH210541   5.844   0.757   1.790
 3512TIP3    H110542   5.912   0.712   1.740
 3512TIP3    H210543   5.858   0.850   1.771
 3513TIP3   OH210544   4.687   0.111   3.490
 3513TIP3    H110545   4.608   0.164   3.482
 3513TIP3    H210546   4.708   0.086   3.401
 3514TIP3   OH210547   2.685   3.628   1.766
 3514TIP3    H110548   2.701   3.564   1.696
 3514TIP3    H210549   2.772   3.664   1.785
 3515TIP3   OH210550   1.165   3.227   4.667
 3515TIP3    H110551   1.153   3.311   4.623
 3515TIP3    H210552   1.259   3.210   4.661
 3516TIP3   OH210553   5.826   1.697   1.998
 3516TIP3    H110554   5.739   1.730   2.017
 3516TIP3    H210555   5.813   1.634   1.927
 3517TIP3   OH210556   0.492   2.450   1.499
 3517TIP3    H110557   0.534   2.365   1.495
 3517TIP3    H210558   0.410   2.439   1.450
 3518TIP3   OH210559   4.125   0.373   3.304
 3518TIP3    H110560   4.208   0.344   3.266
 3518TIP3    H210561   4.150   0.442   3.365
 3519TIP3   OH210562   5.608   3.514   1.608
 3519TIP3    H110563   5.613   3.566   1.688
 3519TIP3    H210564   5.625   3.424   1.636
 3520TIP3   OH210565   0.438   2.421   3.245
 3520TIP3    H110566   0.516   2.443   3.296
 3520TIP3    H210567   0.423   2.497   3.189
 3521TIP3   OH210568   3.522   5.256   0.206
 3521TIP3    H110569   3.502   5.302   0.125
 3521TIP3    H210570   3.585   5.313   0.251
 3522TIP3   OH210571   0.935   4.629   3.112
 3522TIP3    H110572   1.000   4.645   3.181
 3522TIP3    H210573   0.864   4.583   3.158
 3523TIP3   OH210574   6.091   4.599   3.812
 3523TIP3    H110575   6.037   4.637   3.880
 3523TIP3    H210576   6.053   4.631   3.730
 3524TIP3   OH210577   3.619   3.679   3.886
 3524TIP3    H110578   3.610   3.595   3.931
 3524TIP3    H210579   3.553   3.676   3.816
 3525TIP3   OH210580   2.733   3.703   4.367
 3525TIP3    H110581   2.751   3.690   4.461
 3525TIP3    H210582   2.680   3.782   4.364
 3526TIP3   OH210583   2.535   1.391   2.320
 3526TIP3    H110584   2.510   1.383   2.228
 3526TIP3    H210585   2.547   1.484   2.334
 3527TIP3   OH210586   2.173   4.967   4.671
 3527TIP3    H110587   2.112   4.985   4.742
 3527TIP3    H210588   2.156   4.876   4.647
 3528TIP3   OH210589   0.278   3.152   4.897
 3528TIP3    H110590   0.365   3.119   4.874
 3528TIP3    H210591   0.272   3.237   4.855
 3529TIP3   OH210592   4.111   5.314   1.585
 3529TIP3    H110593   4.168   5.276   1.519
 3529TIP3    H210594   4.169   5.367   1.640
 3530TIP3   OH210595   2.063   1.790   0.787
 3530TIP3    H110596   2.153   1.767   0.809
 3530TIP3    H210597   2.030   1.835   0.865
 3531TIP3   OH210598   2.815   0.249   3.796
 3531TIP3    H110599   2.834   0.322   3.855
 3531TIP3    H210600   2.741   0.205   3.837
 3532TIP3   OH210601   4.913   5.585   1.606
 3532TIP3    H110602   4.977   5.542   1.549
 3532TIP3    H210603   4.882   5.660   1.554
 3533TIP3   OH210604   2.445   5.372   3.850
 3533TIP3    H110605   2.386   5.414   3.913
 3533TIP3    H210606   2.444   5.279   3.875
 3534TIP3   OH210607   4.574   4.195   1.758
 3534TIP3    H110608   4.655   4.182   1.709
 3534TIP3    H210609   4.505   4.168   1.697
 3535TIP3   OH210610   5.099   3.266   1.964
 3535TIP3    H110611   5.152   3.207   2.018
 3535TIP3    H210612   5.072   3.213   1.889
 3536TIP3   OH210613   3.500   2.494   3.851
 3536TIP3    H110614   3.496   2.474   3.758
 3536TIP3    H210615   3.593   2.498   3.871
 3537TIP3   OH210616   3.544   4.700   2.778
 3537TIP3    H110617   3.460   4.732   2.811
 3537TIP3    H210618   3.560   4.752   2.699
 3538TIP3   OH210619   2.612   5.734   0.564
 3538TIP3    H110620   2.698   5.753   0.526
 3538TIP3    H210621   2.554   5.799   0.525
 3539TIP3   OH210622   2.223   1.080   2.693
 3539TIP3    H110623   2.286   1.117   2.756
 3539TIP3    H210624   2.248   0.988   2.686
 3540TIP3   OH210625   1.335   4.386   0.548
 3540TIP3    H110626   1.361   4.413   0.636
 3540TIP3    H210627   1.375   4.451   0.490
 3541TIP3   OH210628   1.718   0.639   1.362
 3541TIP3    H110629   1.800   0.679   1.334
 3541TIP3    H210630   1.721   0.642   1.457
 3542TIP3   OH210631   3.325   0.460   4.284
 3542TIP3    H110632   3.272   0.531   4.247
 3542TIP3    H210633   3.386   0.436   4.214
 3543TIP3   OH210634   1.677   1.555   4.731
 3543TIP3    H110635   1.762   1.567   4.688
 3543TIP3    H210636   1.697   1.505   4.810
 3544TIP3   OH210637   0.413   1.459   0.607
 3544TIP3    H110638   0.432   1.423   0.521
 3544TIP3    H210639   0.335   1.413   0.636
 3545TIP3   OH210640   2.074   4.089   3.636
 3545TIP3    H110641   2.054   4.008   3.683
 3545TIP3    H210642   2.081   4.156   3.704
 3546TIP3   OH210643   2.500   5.568   4.773
 3546TIP3    H110644   2.482   5.528   4.688
 3546TIP3    H210645   2.445   5.645   4.777
 3547TIP3   OH210646   2.206   4.556   2.215
 3547TIP3    H110647   2.239   4.637   2.254
 3547TIP3    H210648   2.249   4.550   2.130
 3548TIP3   OH210649   3.075   3.727   3.273
 3548TIP3    H110650   3.095   3.743   3.365
 3548TIP3    H210651   3.022   3.647   3.274
 3549TIP3   OH210652   4.783   2.952   4.136
 3549TIP3    H110653   4.733   2.978   4.059
 3549TIP3    H210654   4.862   2.912   4.100
 3550TIP3   OH210655   6.306   2.976   2.393
 3550TIP3    H110656   6.388   2.981   2.442
 3550TIP3    H210657   6.265   2.895   2.424
 3551TIP3   OH210658   1.609   4.610   4.394
 3551TIP3    H110659   1.578   4.700   4.382
 3551TIP3    H210660   1.586   4.566   4.313
 3552TIP3   OH210661   5.750   1.937   4.644
 3552TIP3    H110662   5.659   1.915   4.663
 3552TIP3    H210663   5.745   1.998   4.571
 3553TIP3   OH210664   0.496   3.558   4.460
 3553TIP3    H110665   0.557   3.512   4.518
 3553TIP3    H210666   0.553   3.603   4.397
 3554TIP3   OH210667   2.674   0.920   2.711
 3554TIP3    H110668   2.753   0.888   2.755
 3554TIP3    H210669   2.603   0.866   2.747
 3555TIP3   OH210670   0.158   3.469   4.928
 3555TIP3    H110671   0.205   3.519   4.861
 3555TIP3    H210672   0.100   3.411   4.878
 3556TIP3   OH210673   4.782   4.158   4.522
 3556TIP3    H110674   4.747   4.088   4.576
 3556TIP3    H210675   4.754   4.239   4.566
 3557TIP3   OH210676   2.717   0.904   3.857
 3557TIP3    H110677   2.805   0.888   3.824
 3557TIP3    H210678   2.693   0.823   3.903
 3558TIP3   OH210679   5.366   1.332   3.179
 3558TIP3    H110680   5.339   1.244   3.206
 3558TIP3    H210681   5.285   1.383   3.183
 3559TIP3   OH210682   3.091   5.097   1.857
 3559TIP3    H110683   3.012   5.053   1.889
 3559TIP3    H210684   3.133   5.131   1.936
 3560TIP3   OH210685   5.195   1.402   3.917
 3560TIP3    H110686   5.173   1.496   3.916
 3560TIP3    H210687   5.290   1.399   3.908
 3561TIP3   OH210688   1.808   3.177   2.439
 3561TIP3    H110689   1.799   3.218   2.525
 3561TIP3    H210690   1.866   3.235   2.390
 3562TIP3   OH210691   0.183   2.216   4.157
 3562TIP3    H110692   0.229   2.132   4.164
 3562TIP3    H210693   0.126   2.206   4.081
 3563TIP3   OH210694   6.183   3.909   5.046
 3563TIP3    H110695   6.180   3.814   5.055
 3563TIP3    H210696   6.211   3.924   4.956
 3564TIP3   OH210697   5.672   4.835   3.371
 3564TIP3    H110698   5.627   4.918   3.355
 3564TIP3    H210699   5.681   4.831   3.466
 3565TIP3   OH210700   4.004   3.055   3.497
 3565TIP3    H110701   3.922   3.103   3.480
 3565TIP3    H210702   4.012   3.056   3.592
 3566TIP3   OH210703   4.439   1.458   3.673
 3566TIP3    H110704   4.402   1.532   3.721
 3566TIP3    H210705   4.480   1.403   3.740
 3567TIP3   OH210706   3.152   5.813   2.924
 3567TIP3    H110707   3.167   5.899   2.885
 3567TIP3    H210708   3.130   5.756   2.850
 3568TIP3   OH210709   1.026   5.447   3.901
 3568TIP3    H110710   0.993   5.357   3.901
 3568TIP3    H210711   0.948   5.500   3.882
 3569TIP3   OH210712   0.667   0.537   0.749
 3569TIP3    H110713   0.633   0.517   0.837
 3569TIP3    H210714   0.646   0.459   0.698
 3570TIP3   OH210715   5.509   2.980   2.176
 3570TIP3    H110716   5.520   3.028   2.258
 3570TIP3    H210717   5.598   2.957   2.150
 3571TIP3   OH210718   1.451   3.129   1.378
 3571TIP3    H110719   1.472   3.221   1.362
 3571TIP3    H210720   1.435   3.124   1.472
 3572TIP3   OH210721   5.086   5.330   4.437
 3572TIP3    H110722   5.089   5.362   4.347
 3572TIP3    H210723   5.038   5.248   4.432
 3573TIP3   OH210724   0.936   5.007   4.244
 3573TIP3    H110725   0.873   4.995   4.315
 3573TIP3    H210726   0.992   4.930   4.249
 3574TIP3   OH210727   4.446   5.102   3.327
 3574TIP3    H110728   4.516   5.113   3.262
 3574TIP3    H210729   4.434   5.190   3.363
 3575TIP3   OH210730   2.118   5.363   2.590
 3575TIP3    H110731   2.183   5.321   2.534
 3575TIP3    H210732   2.070   5.422   2.532
 3576TIP3   OH210733   4.576   4.711   4.628
 3576TIP3    H110734   4.651   4.767   4.611
 3576TIP3    H210735   4.514   4.732   4.559
 3577TIP3   OH210736   6.004   4.632   0.411
 3577TIP3    H110737   6.085   4.682   0.407
 3577TIP3    H210738   5.934   4.698   0.408
 3578TIP3   OH210739   1.379   5.427   2.388
 3578TIP3    H110740   1.432   5.469   2.456
 3578TIP3    H210741   1.315   5.374   2.437
 3579TIP3   OH210742   5.870   0.717   1.061
 3579TIP3    H110743   5.957   0.711   1.022
 3579TIP3    H210744   5.854   0.811   1.071
 3580TIP3   OH210745   0.329   4.596   3.783
 3580TIP3    H110746   0.424   4.603   3.772
 3580TIP3    H210747   0.314   4.505   3.809
 3581TIP3   OH210748   2.583   1.754   4.111
 3581TIP3    H110749   2.672   1.719   4.107
 3581TIP3    H210750   2.533   1.700   4.050
 3582TIP3   OH210751   4.883   2.622   0.193
 3582TIP3    H110752   4.895   2.574   0.275
 3582TIP3    H210753   4.966   2.668   0.179
 3583TIP3   OH210754   0.306   1.617   1.661
 3583TIP3    H110755   0.316   1.690   1.600
 3583TIP3    H210756   0.305   1.539   1.605
 3584TIP3   OH210757   2.366   2.702   4.824
 3584TIP3    H110758   2.363   2.606   4.820
 3584TIP3    H210759   2.291   2.726   4.879
 3585TIP3   OH210760   1.538   5.225   2.286
 3585TIP3    H110761   1.482   5.159   2.326
 3585TIP3    H210762   1.483   5.304   2.283
 3586TIP3   OH210763   5.402   3.624   3.541
 3586TIP3    H110764   5.498   3.624   3.542
 3586TIP3    H210765   5.378   3.533   3.526
 3587TIP3   OH210766   2.427   3.501   4.499
 3587TIP3    H110767   2.471   3.520   4.416
 3587TIP3    H210768   2.360   3.436   4.476
 3588TIP3   OH210769   4.576   5.700   0.234
 3588TIP3    H110770   4.562   5.763   0.305
 3588TIP3    H210771   4.515   5.629   0.253
 3589TIP3   OH210772   5.332   5.409   4.045
 3589TIP3    H110773   5.339   5.497   4.008
 3589TIP3    H210774   5.337   5.423   4.140
 3590TIP3   OH210775   0.727   4.760   4.328
 3590TIP3    H110776   0.673   4.794   4.257
 3590TIP3    H210777   0.769   4.682   4.291
 3591TIP3   OH210778   1.751   3.610   5.001
 3591TIP3    H110779   1.842   3.581   5.000
 3591TIP3    H210780   1.703   3.539   5.043
 3592TIP3   OH210781   2.221   1.436   4.323
 3592TIP3    H110782   2.167   1.439   4.245
 3592TIP3    H210783   2.231   1.342   4.342
 3593TIP3   OH210784   6.240   5.337   2.451
 3593TIP3    H110785   6.278   5.349   2.364
 3593TIP3    H210786   6.274   5.411   2.502
 3594TIP3   OH210787   4.050   4.945   2.670
 3594TIP3    H110788   4.072   4.925   2.761
 3594TIP3    H210789   4.133   4.972   2.631
 3595TIP3   OH210790   3.863   0.839   1.361
 3595TIP3    H110791   3.781   0.791   1.350
 3595TIP3    H210792   3.871   0.852   1.455
 3596TIP3   OH210793   3.348   3.513   4.161
 3596TIP3    H110794   3.417   3.506   4.227
 3596TIP3    H210795   3.384   3.469   4.084
 3597TIP3   OH210796   0.604   3.793   4.038
 3597TIP3    H110797   0.593   3.824   3.948
 3597TIP3    H210798   0.514   3.779   4.069
 3598TIP3   OH210799   1.921   4.045   4.136
 3598TIP3    H110800   1.895   4.049   4.044
 3598TIP3    H210801   1.991   4.110   4.144
 3599TIP3   OH210802   0.744   1.082   0.096
 3599TIP3    H110803   0.789   1.060   0.015
 3599TIP3    H210804   0.810   1.067   0.164
 3600TIP3   OH210805   2.514   3.123   1.980
 3600TIP3    H110806   2.510   3.200   2.036
 3600TIP3    H210807   2.608   3.109   1.965
 3601TIP3   OH210808   0.775   1.595   2.629
 3601TIP3    H110809   0.869   1.588   2.639
 3601TIP3    H210810   0.754   1.683   2.661
 3602TIP3   OH210811   5.642   1.571   0.266
 3602TIP3    H110812   5.627   1.477   0.261
 3602TIP3    H210813   5.672   1.596   0.179
 3603TIP3   OH210814   3.200   2.517   0.592
 3603TIP3    H110815   3.105   2.510   0.586
 3603TIP3    H210816   3.215   2.593   0.648
 3604TIP3   OH210817   5.780   4.389   3.022
 3604TIP3    H110818   5.707   4.427   2.972
 3604TIP3    H210819   5.738   4.335   3.089
 3605TIP3   OH210820   4.859   0.050   3.079
 3605TIP3    H110821   4.933   0.101   3.046
 3605TIP3    H210822   4.803   0.115   3.122
 3606TIP3   OH210823   1.518   3.391   1.316
 3606TIP3    H110824   1.573   3.398   1.239
 3606TIP3    H210825   1.545   3.464   1.372
 3607TIP3   OH210826   4.375   3.736   2.432
 3607TIP3    H110827   4.407   3.673   2.497
 3607TIP3    H210828   4.297   3.694   2.394
 3608TIP3   OH210829   1.248   5.546   2.171
 3608TIP3    H110830   1.162   5.517   2.202
 3608TIP3    H210831   1.310   5.495   2.223
 3609TIP3   OH210832   5.977   5.651   2.900
 3609TIP3    H110833   5.969   5.744   2.877
 3609TIP3    H210834   6.039   5.650   2.973
 3610TIP3   OH210835   3.660   3.640   1.850
 3610TIP3    H110836   3.616   3.703   1.793
 3610TIP3    H210837   3.749   3.675   1.858
 3611TIP3   OH210838   1.094   5.462   1.943
 3611TIP3    H110839   1.062   5.548   1.917
 3611TIP3    H210840   1.148   5.479   2.020
 3612TIP3   OH210841   0.763   3.971   4.155
 3612TIP3    H110842   0.842   3.950   4.105
 3612TIP3    H210843   0.692   3.939   4.099
 3613TIP3   OH210844   4.500   2.282   1.045
 3613TIP3    H110845   4.446   2.265   1.122
 3613TIP3    H210846   4.540   2.197   1.024
 3614TIP3   OH210847   2.915   4.279   2.062
 3614TIP3    H110848   2.889   4.194   2.026
 3614TIP3    H210849   2.991   4.260   2.117
 3615TIP3   OH210850   4.317   2.483   3.783
 3615TIP3    H110851   4.336   2.492   3.689
 3615TIP3    H210852   4.229   2.519   3.793
 3616TIP3   OH210853   2.489   4.423   0.744
 3616TIP3    H110854   2.508   4.379   0.826
 3616TIP3    H210855   2.432   4.363   0.697
 3617TIP3   OH210856   1.696   0.178   3.321
 3617TIP3    H110857   1.763   0.114   3.347
 3617TIP3    H210858   1.616   0.127   3.313
 3618TIP3   OH210859   2.370   0.865   4.280
 3618TIP3    H110860   2.367   0.823   4.194
 3618TIP3    H210861   2.418   0.803   4.335
 3619TIP3   OH210862   6.148   2.219   1.634
 3619TIP3    H110863   6.170   2.300   1.586
 3619TIP3    H210864   6.204   2.221   1.711
 3620TIP3   OH210865   3.316   0.962   0.361
 3620TIP3    H110866   3.270   0.886   0.397
 3620TIP3    H210867   3.268   0.984   0.281
 3621TIP3   OH210868   3.951   4.246   0.294
 3621TIP3    H110869   3.857   4.236   0.309
 3621TIP3    H210870   3.958   4.271   0.202
 3622TIP3   OH210871   5.969   4.207   2.922
 3622TIP3    H110872   5.914   4.281   2.945
 3622TIP3    H210873   5.996   4.169   3.006
 3623TIP3   OH210874   5.199   2.465   0.425
 3623TIP3    H110875   5.165   2.546   0.462
 3623TIP3    H210876   5.179   2.399   0.491
 3624TIP3   OH210877   3.466   4.007   3.932
 3624TIP3    H110878   3.549   4.050   3.952
 3624TIP3    H210879   3.440   3.966   4.015
 3625TIP3   OH210880   5.848   4.491   4.509
 3625TIP3    H110881   5.756   4.516   4.504
 3625TIP3    H210882   5.854   4.437   4.587
 3626TIP3   OH210883   0.492   1.551   3.587
 3626TIP3    H110884   0.418   1.587   3.539
 3626TIP3    H210885   0.525   1.624   3.639
 3627TIP3   OH210886   2.451   1.929   3.099
 3627TIP3    H110887   2.375   1.893   3.053
 3627TIP3    H210888   2.523   1.872   3.072
 3628TIP3   OH210889   2.397   1.578   2.968
 3628TIP3    H110890   2.335   1.650   2.985
 3628TIP3    H210891   2.374   1.511   3.033
 3629TIP3   OH210892   1.225   5.007   2.100
 3629TIP3    H110893   1.223   5.071   2.171
 3629TIP3    H210894   1.209   4.923   2.143
 3630TIP3   OH210895   0.535   4.446   4.621
 3630TIP3    H110896   0.488   4.405   4.548
 3630TIP3    H210897   0.627   4.433   4.601
 3631TIP3   OH210898   0.049   5.586   0.830
 3631TIP3    H110899  -0.024   5.582   0.892
 3631TIP3    H210900   0.052   5.498   0.791
 3632TIP3   OH210901   5.709   0.515   1.727
 3632TIP3    H110902   5.736   0.604   1.751
 3632TIP3    H210903   5.732   0.507   1.634
 3633TIP3   OH210904   1.780   4.852   4.197
 3633TIP3    H110905   1.824   4.832   4.114
 3633TIP3    H210906   1.810   4.785   4.258
 3634TIP3   OH210907   4.536   2.651   1.767
 3634TIP3    H110908   4.479   2.672   1.693
 3634TIP3    H210909   4.618   2.697   1.747
 3635TIP3   OH210910   2.868   0.287   0.862
 3635TIP3    H110911   2.931   0.334   0.917
 3635TIP3    H210912   2.856   0.343   0.785
 3636TIP3   OH210913   1.192   4.236   2.238
 3636TIP3    H110914   1.233   4.180   2.171
 3636TIP3    H210915   1.203   4.186   2.320
 3637TIP3   OH210916   6.351   1.217   3.352
 3637TIP3    H110917   6.392   1.237   3.268
 3637TIP3    H210918   6.268   1.264   3.350
 3638TIP3   OH210919   1.593   0.526   3.520
 3638TIP3    H110920   1.686   0.516   3.501
 3638TIP3    H210921   1.570   0.611   3.480
 3639TIP3   OH210922   5.784   1.265   1.186
 3639TIP3    H110923   5.714   1.323   1.155
 3639TIP3    H210924   5.858   1.284   1.128
 3640TIP3   OH210925   0.144   4.679   5.146
 3640TIP3    H110926   0.218   4.625   5.118
 3640TIP3    H210927   0.184   4.755   5.189
 3641TIP3   OH210928   4.334   2.575   1.161
 3641TIP3    H110929   4.423   2.547   1.143
 3641TIP3    H210930   4.298   2.507   1.218
 3642TIP3   OH210931   2.487   1.070   1.380
 3642TIP3    H110932   2.397   1.094   1.399
 3642TIP3    H210933   2.490   0.975   1.390
 3643TIP3   OH210934   1.277   3.208   1.138
 3643TIP3    H110935   1.346   3.147   1.166
 3643TIP3    H210936   1.314   3.251   1.060
 3644TIP3   OH210937   5.708   5.401   2.499
 3644TIP3    H110938   5.795   5.431   2.472
 3644TIP3    H210939   5.706   5.416   2.594
 3645TIP3   OH210940   3.069   2.929   2.302
 3645TIP3    H110941   3.026   3.014   2.314
 3645TIP3    H210942   3.162   2.951   2.291
 3646TIP3   OH210943   4.415   3.316   3.121
 3646TIP3    H110944   4.402   3.243   3.182
 3646TIP3    H210945   4.463   3.381   3.173
 3647TIP3   OH210946   0.217   4.346   3.760
 3647TIP3    H110947   0.267   4.277   3.717
 3647TIP3    H210948   0.164   4.300   3.825
 3648TIP3   OH210949   1.654   5.742   4.927
 3648TIP3    H110950   1.575   5.786   4.895
 3648TIP3    H210951   1.637   5.649   4.913
 3649TIP3   OH210952   4.949   1.955   1.253
 3649TIP3    H110953   4.956   1.989   1.164
 3649TIP3    H210954   4.992   2.020   1.308
 3650TIP3   OH210955   2.452   1.132   1.105
 3650TIP3    H110956   2.490   1.065   1.162
 3650TIP3    H210957   2.439   1.207   1.163
 3651TIP3   OH210958   0.528   4.125   0.289
 3651TIP3    H110959   0.589   4.185   0.331
 3651TIP3    H210960   0.442   4.150   0.323
 3652TIP3   OH210961   5.352   1.431   0.499
 3652TIP3    H110962   5.261   1.436   0.526
 3652TIP3    H210963   5.374   1.520   0.470
 3653TIP3   OH210964   2.158   2.800   3.715
 3653TIP3    H110965   2.122   2.727   3.765
 3653TIP3    H210966   2.145   2.876   3.771
 3654TIP3   OH210967   0.130   3.830   3.939
 3654TIP3    H110968   0.060   3.879   3.982
 3654TIP3    H210969   0.110   3.738   3.956
 3655TIP3   OH210970   0.422   4.371   4.026
 3655TIP3    H110971   0.465   4.304   3.974
 3655TIP3    H210972   0.408   4.331   4.112
 3656TIP3   OH210973   0.085   4.739   3.224
 3656TIP3    H110974   0.106   4.784   3.141
 3656TIP3    H210975   0.107   4.648   3.208
 3657TIP3   OH210976   0.382   2.243   1.141
 3657TIP3    H110977   0.396   2.148   1.144
 3657TIP3    H210978   0.389   2.264   1.048
 3658TIP3   OH210979   5.952   0.325   0.835
 3658TIP3    H110980   5.873   0.350   0.787
 3658TIP3    H210981   5.923   0.316   0.926
 3659TIP3   OH210982   3.997   5.456   1.802
 3659TIP3    H110983   4.067   5.521   1.811
 3659TIP3    H210984   4.026   5.399   1.732
 3660TIP3   OH210985   0.400   5.580   0.399
 3660TIP3    H110986   0.349   5.590   0.479
 3660TIP3    H210987   0.339   5.544   0.335
 3661TIP3   OH210988   1.348   5.914   0.972
 3661TIP3    H110989   1.420   5.856   0.996
 3661TIP3    H210990   1.391   5.995   0.946
 3662TIP3   OH210991   1.488   0.470   0.710
 3662TIP3    H110992   1.406   0.485   0.757
 3662TIP3    H210993   1.494   0.374   0.703
 3663TIP3   OH210994   2.729   5.152   4.944
 3663TIP3    H110995   2.736   5.230   4.999
 3663TIP3    H210996   2.736   5.186   4.854
 3664TIP3   OH210997   3.795   0.365   0.298
 3664TIP3    H110998   3.878   0.386   0.340
 3664TIP3    H210999   3.729   0.380   0.367
 3665TIP3   OH211000   3.328   1.752   1.730
 3665TIP3    H111001   3.359   1.693   1.798
 3665TIP3    H211002   3.251   1.707   1.693
 3666TIP3   OH211003   3.090   1.126   0.129
 3666TIP3    H111004   3.072   1.122   0.035
 3666TIP3    H211005   3.017   1.079   0.169
 3667TIP3   OH211006   4.632   3.629   2.539
 3667TIP3    H111007   4.554   3.585   2.571
 3667TIP3    H211008   4.693   3.627   2.613
 3668TIP3   OH211009   2.617   2.726   3.389
 3668TIP3    H111010   2.590   2.715   3.298
 3668TIP3    H211011   2.574   2.654   3.436
 3669TIP3   OH211012   2.875   3.435   2.124
 3669TIP3    H111013   2.880   3.433   2.220
 3669TIP3    H211014   2.800   3.491   2.105
 3670TIP3   OH211015   0.479   0.632   4.196
 3670TIP3    H111016   0.417   0.632   4.124
 3670TIP3    H211017   0.429   0.665   4.271
 3671TIP3   OH211018   6.134   1.958   5.118
 3671TIP3    H111019   6.132   1.969   5.023
 3671TIP3    H211020   6.145   1.863   5.130
 3672TIP3   OH211021   6.231   2.460   1.525
 3672TIP3    H111022   6.297   2.529   1.518
 3672TIP3    H211023   6.194   2.454   1.437
 3673TIP3   OH211024   1.782   1.495   0.506
 3673TIP3    H111025   1.830   1.544   0.439
 3673TIP3    H211026   1.827   1.515   0.588
 3674TIP3   OH211027   4.980   0.226   3.632
 3674TIP3    H111028   4.968   0.144   3.680
 3674TIP3    H211029   4.980   0.201   3.540
 3675TIP3   OH211030   0.004   0.295   0.484
 3675TIP3    H111031   0.083   0.315   0.533
 3675TIP3    H211032  -0.059   0.361   0.512
 3676TIP3   OH211033   5.697   5.221   1.123
 3676TIP3    H111034   5.615   5.268   1.137
 3676TIP3    H211035   5.676   5.154   1.058
 3677TIP3   OH211036   2.604   1.921   1.708
 3677TIP3    H111037   2.697   1.945   1.700
 3677TIP3    H211038   2.567   1.942   1.622
 3678TIP3   OH211039   6.179   0.652   0.105
 3678TIP3    H111040   6.191   0.570   0.152
 3678TIP3    H211041   6.228   0.641   0.024
 3679TIP3   OH211042   1.954   4.857   4.977
 3679TIP3    H111043   1.997   4.795   5.035
 3679TIP3    H211044   1.988   4.942   5.003
 3680TIP3   OH211045   1.825   0.534   0.217
 3680TIP3    H111046   1.855   0.615   0.178
 3680TIP3    H211047   1.902   0.497   0.260
 3681TIP3   OH211048   3.541   4.529   3.994
 3681TIP3    H111049   3.581   4.449   4.028
 3681TIP3    H211050   3.505   4.503   3.909
 3682TIP3   OH211051   0.746   3.007   3.125
 3682TIP3    H111052   0.666   3.060   3.118
 3682TIP3    H211053   0.745   2.973   3.214
 3683TIP3   OH211054   1.676   5.117   3.971
 3683TIP3    H111055   1.681   5.083   3.882
 3683TIP3    H211056   1.650   5.041   4.024
 3684TIP3   OH211057   1.136   2.050   1.841
 3684TIP3    H111058   1.174   1.985   1.901
 3684TIP3    H211059   1.045   2.057   1.868
 3685TIP3   OH211060   4.798   5.104   2.893
 3685TIP3    H111061   4.712   5.146   2.887
 3685TIP3    H211062   4.781   5.011   2.879
 3686TIP3   OH211063   4.849   3.381   4.187
 3686TIP3    H111064   4.778   3.333   4.229
 3686TIP3    H211065   4.928   3.358   4.236
 3687TIP3   OH211066   5.952   1.604   0.999
 3687TIP3    H111067   5.968   1.695   0.975
 3687TIP3    H211068   5.893   1.608   1.074
 3688TIP3   OH211069   4.780   4.158   3.700
 3688TIP3    H111070   4.740   4.071   3.701
 3688TIP3    H211071   4.789   4.181   3.793
 3689TIP3   OH211072   5.040   4.540   3.994
 3689TIP3    H111073   5.053   4.633   3.974
 3689TIP3    H211074   5.124   4.499   3.973
 3690TIP3   OH211075   4.186   1.857   3.186
 3690TIP3    H111076   4.155   1.779   3.139
 3690TIP3    H211077   4.265   1.883   3.138
 3691TIP3   OH211078   5.961   5.919   4.928
 3691TIP3    H111079   5.910   5.983   4.978
 3691TIP3    H211080   6.051   5.933   4.957
 3692TIP3   OH211081   5.190   1.905   1.611
 3692TIP3    H111082   5.126   1.834   1.609
 3692TIP3    H211083   5.142   1.980   1.645
 3693TIP3   OH211084   1.743   5.791   0.056
 3693TIP3    H111085   1.806   5.836   0.112
 3693TIP3    H211086   1.725   5.853  -0.014
 3694TIP3   OH211087   4.551   0.759   0.728
 3694TIP3    H111088   4.547   0.742   0.633
 3694TIP3    H211089   4.574   0.851   0.735
 3695TIP3   OH211090   3.099   1.807   3.071
 3695TIP3    H111091   3.021   1.831   3.021
 3695TIP3    H211092   3.124   1.888   3.116
 3696TIP3   OH211093   4.666   1.920   3.080
 3696TIP3    H111094   4.762   1.918   3.081
 3696TIP3    H211095   4.644   1.970   3.002
 3697TIP3   OH211096   3.586   5.411   4.499
 3697TIP3    H111097   3.499   5.389   4.533
 3697TIP3    H211098   3.575   5.412   4.404
 3698TIP3   OH211099   3.550   3.151   0.508
 3698TIP3    H111100   3.579   3.241   0.520
 3698TIP3    H211101   3.486   3.155   0.436
 3699TIP3   OH211102   3.781   1.769   3.306
 3699TIP3    H111103   3.793   1.792   3.214
 3699TIP3    H211104   3.692   1.799   3.328
 3700TIP3   OH211105   2.975   1.167   4.057
 3700TIP3    H111106   2.884   1.142   4.072
 3700TIP3    H211107   2.974   1.263   4.062
 3701TIP3   OH211108   1.469   4.426   2.829
 3701TIP3    H111109   1.407   4.416   2.901
 3701TIP3    H211110   1.480   4.337   2.795
 3702TIP3   OH211111   2.426   4.768   5.159
 3702TIP3    H111112   2.387   4.856   5.163
 3702TIP3    H211113   2.459   4.760   5.070
 3703TIP3   OH211114   0.756   5.880   5.001
 3703TIP3    H111115   0.747   5.880   4.905
 3703TIP3    H211116   0.787   5.792   5.022
 3704TIP3   OH211117   3.458   4.934   4.102
 3704TIP3    H111118   3.382   4.982   4.069
 3704TIP3    H211119   3.442   4.926   4.196
 3705TIP3   OH211120   6.240   1.419   2.741
 3705TIP3    H111121   6.315   1.448   2.690
 3705TIP3    H211122   6.230   1.327   2.718
 3706TIP3   OH211123   0.056   0.647   4.122
 3706TIP3    H111124   0.032   0.675   4.034
 3706TIP3    H211125  -0.027   0.623   4.163
 3707TIP3   OH211126   3.771   1.064   2.204
 3707TIP3    H111127   3.714   1.043   2.130
 3707TIP3    H211128   3.738   1.009   2.275
 3708TIP3   OH211129   4.304   4.827   4.026
 3708TIP3    H111130   4.305   4.856   4.117
 3708TIP3    H211131   4.377   4.873   3.985
 3709TIP3   OH211132   2.284   4.751   1.642
 3709TIP3    H111133   2.337   4.673   1.660
 3709TIP3    H211134   2.299   4.808   1.717
 3710TIP3   OH211135   3.826   0.480   1.291
 3710TIP3    H111136   3.912   0.521   1.297
 3710TIP3    H211137   3.766   0.545   1.327
 3711TIP3   OH211138   1.610   0.171   2.963
 3711TIP3    H111139   1.619   0.192   2.870
 3711TIP3    H211140   1.694   0.197   3.002
 3712TIP3   OH211141   1.819   2.914   1.635
 3712TIP3    H111142   1.832   2.869   1.552
 3712TIP3    H211143   1.759   2.859   1.685
 3713TIP3   OH211144   3.370   5.706   3.773
 3713TIP3    H111145   3.317   5.785   3.787
 3713TIP3    H211146   3.342   5.646   3.842
 3714TIP3   OH211147   5.282   3.460   4.737
 3714TIP3    H111148   5.274   3.502   4.823
 3714TIP3    H211149   5.253   3.370   4.752
 3715TIP3   OH211150   2.421   1.506   0.313
 3715TIP3    H111151   2.438   1.560   0.390
 3715TIP3    H211152   2.389   1.423   0.348
 3716TIP3   OH211153   2.187   1.029   0.969
 3716TIP3    H111154   2.194   0.987   1.055
 3716TIP3    H211155   2.228   1.115   0.981
 3717TIP3   OH211156   4.189   1.565   0.966
 3717TIP3    H111157   4.159   1.510   0.894
 3717TIP3    H211158   4.110   1.587   1.015
 3718TIP3   OH211159   6.238   5.330   0.279
 3718TIP3    H111160   6.301   5.260   0.268
 3718TIP3    H211161   6.208   5.351   0.191
 3719TIP3   OH211162   1.391  -0.007   0.640
 3719TIP3    H111163   1.393   0.087   0.624
 3719TIP3    H211164   1.462  -0.023   0.703
 3720TIP3   OH211165   3.172   5.566   3.930
 3720TIP3    H111166   3.096   5.553   3.874
 3720TIP3    H211167   3.210   5.478   3.941
 3721TIP3   OH211168   3.607   2.728   3.403
 3721TIP3    H111169   3.572   2.806   3.360
 3721TIP3    H211170   3.617   2.664   3.333
 3722TIP3   OH211171   0.990   3.670   1.275
 3722TIP3    H111172   1.082   3.660   1.298
 3722TIP3    H211173   0.968   3.588   1.230
 3723TIP3   OH211174   5.503   3.770   4.905
 3723TIP3    H111175   5.467   3.763   4.817
 3723TIP3    H211176   5.497   3.682   4.941
 3724TIP3   OH211177   3.539   1.089   0.818
 3724TIP3    H111178   3.484   1.011   0.829
 3724TIP3    H211179   3.532   1.110   0.725
 3725TIP3   OH211180   4.582   5.852   0.860
 3725TIP3    H111181   4.531   5.859   0.780
 3725TIP3    H211182   4.642   5.779   0.845
 3726TIP3   OH211183   5.101   0.743   0.776
 3726TIP3    H111184   5.178   0.769   0.827
 3726TIP3    H211185   5.091   0.649   0.792
 3727TIP3   OH211186   2.765   1.407   3.246
 3727TIP3    H111187   2.844   1.356   3.265
 3727TIP3    H211188   2.736   1.438   3.332
 3728TIP3   OH211189   0.516   4.465   1.838
 3728TIP3    H111190   0.593   4.502   1.882
 3728TIP3    H211191   0.511   4.513   1.755
 3729TIP3   OH211192   4.804   4.834   4.476
 3729TIP3    H111193   4.887   4.822   4.429
 3729TIP3    H211194   4.830   4.873   4.560
 3730TIP3   OH211195   0.858   4.147   3.489
 3730TIP3    H111196   0.907   4.205   3.432
 3730TIP3    H211197   0.767   4.175   3.480
 3731TIP3   OH211198   0.589   1.936   3.919
 3731TIP3    H111199   0.677   1.975   3.919
 3731TIP3    H211200   0.531   2.009   3.896
 3732TIP3   OH211201   6.340   5.597   4.207
 3732TIP3    H111202   6.269   5.545   4.245
 3732TIP3    H211203   6.304   5.686   4.204
 3733TIP3   OH211204   3.479   1.309   2.095
 3733TIP3    H111205   3.393   1.272   2.077
 3733TIP3    H211206   3.502   1.278   2.182
 3734TIP3   OH211207   0.098   4.840   4.591
 3734TIP3    H111208   0.019   4.895   4.582
 3734TIP3    H211209   0.074   4.774   4.655
 3735TIP3   OH211210   0.130   3.195   3.215
 3735TIP3    H111211   0.203   3.219   3.272
 3735TIP3    H211212   0.136   3.256   3.141
 3736TIP3   OH211213   3.482   3.539   2.889
 3736TIP3    H111214   3.506   3.551   2.981
 3736TIP3    H211215   3.457   3.626   2.859
 3737TIP3   OH211216   4.343   5.370   1.739
 3737TIP3    H111217   4.334   5.338   1.828
 3737TIP3    H211218   4.363   5.463   1.748
 3738TIP3   OH211219   5.799   0.022   0.815
 3738TIP3    H111220   5.868   0.088   0.811
 3738TIP3    H211221   5.751   0.032   0.732
 3739TIP3   OH211222   1.331   1.419   4.840
 3739TIP3    H111223   1.342   1.397   4.748
 3739TIP3    H211224   1.330   1.515   4.842
 3740TIP3   OH211225   4.699   3.171   4.315
 3740TIP3    H111226   4.608   3.173   4.285
 3740TIP3    H211227   4.742   3.107   4.258
 3741TIP3   OH211228   5.341   3.829   3.714
 3741TIP3    H111229   5.370   3.769   3.645
 3741TIP3    H211230   5.270   3.782   3.758
 3742TIP3   OH211231   0.482   4.404   2.636
 3742TIP3    H111232   0.429   4.430   2.712
 3742TIP3    H211233   0.471   4.476   2.574
 3743TIP3   OH211234   3.005   5.645   1.009
 3743TIP3    H111235   3.063   5.632   1.084
 3743TIP3    H211236   3.051   5.603   0.936
 3744TIP3   OH211237   1.228   1.072   0.662
 3744TIP3    H111238   1.232   1.168   0.659
 3744TIP3    H211239   1.294   1.048   0.727
 3745TIP3   OH211240   1.508   5.248   4.253
 3745TIP3    H111241   1.427   5.287   4.221
 3745TIP3    H211242   1.574   5.273   4.188
 3746TIP3   OH211243   2.515   6.040   0.655
 3746TIP3    H111244   2.609   6.041   0.638
 3746TIP3    H211245   2.480   5.975   0.595
 3747TIP3   OH211246   0.738   1.930   1.106
 3747TIP3    H111247   0.787   1.848   1.109
 3747TIP3    H211248   0.720   1.943   1.013
 3748TIP3   OH211249   1.719   1.433   3.959
 3748TIP3    H111250   1.654   1.472   4.018
 3748TIP3    H211251   1.706   1.479   3.876
 3749TIP3   OH211252   5.850   2.561   5.042
 3749TIP3    H111253   5.810   2.559   5.129
 3749TIP3    H211254   5.871   2.470   5.023
 3750TIP3   OH211255   2.969   0.238   1.601
 3750TIP3    H111256   2.935   0.316   1.645
 3750TIP3    H211257   3.046   0.270   1.553
 3751TIP3   OH211258   2.175   4.471   3.232
 3751TIP3    H111259   2.246   4.408   3.220
 3751TIP3    H211260   2.214   4.542   3.283
 3752TIP3   OH211261   2.732   1.002   3.576
 3752TIP3    H111262   2.827   1.008   3.580
 3752TIP3    H211263   2.715   0.925   3.522
 3753TIP3   OH211264   0.861   2.024   1.940
 3753TIP3    H111265   0.803   2.093   1.975
 3753TIP3    H211266   0.830   1.944   1.982
 3754TIP3   OH211267   5.588   2.486   1.706
 3754TIP3    H111268   5.493   2.488   1.714
 3754TIP3    H211269   5.621   2.511   1.792
 3755TIP3   OH211270   5.546   3.512   0.874
 3755TIP3    H111271   5.590   3.507   0.789
 3755TIP3    H211272   5.605   3.467   0.935
 3756TIP3   OH211273   1.931   0.073   0.387
 3756TIP3    H111274   1.944   0.068   0.292
 3756TIP3    H211275   2.016   0.102   0.421
 3757TIP3   OH211276   1.347   4.541   4.020
 3757TIP3    H111277   1.369   4.627   4.054
 3757TIP3    H211278   1.354   4.482   4.095
 3758TIP3   OH211279   5.939   3.682   4.916
 3758TIP3    H111280   6.016   3.646   4.960
 3758TIP3    H211281   5.969   3.703   4.828
 3759TIP3   OH211282   5.981   3.542   3.011
 3759TIP3    H111283   5.953   3.616   2.957
 3759TIP3    H211284   5.967   3.571   3.101
 3760TIP3   OH211285   2.097   0.506   1.760
 3760TIP3    H111286   2.021   0.549   1.722
 3760TIP3    H211287   2.098   0.535   1.851
 3761TIP3   OH211288   5.767   1.754   2.773
 3761TIP3    H111289   5.678   1.783   2.751
 3761TIP3    H211290   5.755   1.679   2.830
 3762TIP3   OH211291   1.280   0.567   2.887
 3762TIP3    H111292   1.323   0.508   2.949
 3762TIP3    H211293   1.285   0.653   2.929
 3763TIP3   OH211294   0.891   2.801   3.665
 3763TIP3    H111295   0.933   2.873   3.618
 3763TIP3    H211296   0.799   2.824   3.666
 3764TIP3   OH211297   3.188   2.952   2.571
 3764TIP3    H111298   3.236   2.973   2.491
 3764TIP3    H211299   3.096   2.966   2.549
 3765TIP3   OH211300   3.497   5.352   0.665
 3765TIP3    H111301   3.541   5.391   0.590
 3765TIP3    H211302   3.415   5.401   0.673
 3766TIP3   OH211303   0.358   0.845   4.616
 3766TIP3    H111304   0.437   0.825   4.665
 3766TIP3    H211305   0.362   0.939   4.600
 3767TIP3   OH211306   3.616   2.384   1.076
 3767TIP3    H111307   3.712   2.383   1.072
 3767TIP3    H211308   3.591   2.458   1.021
 3768TIP3   OH211309   4.610   2.195   3.317
 3768TIP3    H111310   4.662   2.127   3.359
 3768TIP3    H211311   4.673   2.262   3.291
 3769TIP3   OH211312   2.364   1.467   1.079
 3769TIP3    H111313   2.321   1.406   1.019
 3769TIP3    H211314   2.417   1.523   1.022
 3770TIP3   OH211315   6.354   2.735   3.751
 3770TIP3    H111316   6.317   2.822   3.766
 3770TIP3    H211317   6.295   2.695   3.687
 3771TIP3   OH211318   5.099   4.497   0.761
 3771TIP3    H111319   5.187   4.519   0.792
 3771TIP3    H211320   5.047   4.575   0.779
 3772TIP3   OH211321   0.967   4.739   0.795
 3772TIP3    H111322   1.061   4.754   0.788
 3772TIP3    H211323   0.927   4.825   0.780
 3773TIP3   OH211324   1.925   2.246   1.218
 3773TIP3    H111325   1.922   2.245   1.122
 3773TIP3    H211326   1.887   2.331   1.242
 3774TIP3   OH211327   2.999   5.703   2.243
 3774TIP3    H111328   3.026   5.611   2.244
 3774TIP3    H211329   2.922   5.705   2.300
 3775TIP3   OH211330   5.967   4.184   0.524
 3775TIP3    H111331   5.899   4.226   0.576
 3775TIP3    H211332   5.991   4.249   0.458
 3776TIP3   OH211333   3.068   5.188   2.525
 3776TIP3    H111334   2.991   5.145   2.563
 3776TIP3    H211335   3.097   5.249   2.593
 3777TIP3   OH211336   5.930   5.021   0.551
 3777TIP3    H111337   5.876   4.949   0.583
 3777TIP3    H211338   5.910   5.094   0.609
 3778TIP3   OH211339   2.415   4.524   2.018
 3778TIP3    H111340   2.351   4.557   1.955
 3778TIP3    H211341   2.495   4.572   1.998
 3779TIP3   OH211342   2.013   1.654   2.854
 3779TIP3    H111343   1.984   1.602   2.929
 3779TIP3    H211344   2.063   1.593   2.800
 3780TIP3   OH211345   0.689   1.892   2.134
 3780TIP3    H111346   0.630   1.959   2.100
 3780TIP3    H211347   0.640   1.810   2.124
 3781TIP3   OH211348   5.528   4.355   2.797
 3781TIP3    H111349   5.597   4.404   2.754
 3781TIP3    H211350   5.507   4.405   2.876
 3782TIP3   OH211351   0.209   2.586   0.740
 3782TIP3    H111352   0.188   2.502   0.780
 3782TIP3    H211353   0.126   2.617   0.703
 3783TIP3   OH211354   1.429   1.744   1.050
 3783TIP3    H111355   1.341   1.704   1.051
 3783TIP3    H211356   1.471   1.711   1.129
 3784TIP3   OH211357   5.551   4.827   0.031
 3784TIP3    H111358   5.560   4.780   0.115
 3784TIP3    H211359   5.526   4.759  -0.031
 3785TIP3   OH211360   5.325   1.744   1.775
 3785TIP3    H111361   5.299   1.818   1.720
 3785TIP3    H211362   5.368   1.683   1.716
 3786TIP3   OH211363   5.248   1.453   1.481
 3786TIP3    H111364   5.251   1.479   1.389
 3786TIP3    H211365   5.169   1.399   1.488
 3787TIP3   OH211366   3.450   4.434   1.879
 3787TIP3    H111367   3.465   4.524   1.908
 3787TIP3    H211368   3.358   4.417   1.898
 3788TIP3   OH211369   4.468   3.544   3.554
 3788TIP3    H111370   4.553   3.503   3.568
 3788TIP3    H211371   4.453   3.594   3.635
 3789TIP3   OH211372   5.978   0.969   1.357
 3789TIP3    H111373   5.947   0.954   1.268
 3789TIP3    H211374   6.068   0.934   1.358
 3790TIP3   OH211375   0.074   3.087   2.864
 3790TIP3    H111376   0.041   3.005   2.903
 3790TIP3    H211377   0.150   3.060   2.812
 3791TIP3   OH211378   1.648   5.072   5.175
 3791TIP3    H111379   1.606   5.150   5.139
 3791TIP3    H211380   1.630   5.003   5.110
 3792TIP3   OH211381   5.636   4.138   3.636
 3792TIP3    H111382   5.599   4.123   3.723
 3792TIP3    H211383   5.559   4.153   3.580
 3793TIP3   OH211384   4.266   2.531   0.600
 3793TIP3    H111385   4.197   2.465   0.596
 3793TIP3    H211386   4.319   2.505   0.676
 3794TIP3   OH211387   5.685   2.834   4.209
 3794TIP3    H111388   5.721   2.835   4.298
 3794TIP3    H211389   5.754   2.872   4.154
 3795TIP3   OH211390   0.302   3.007   4.129
 3795TIP3    H111391   0.324   3.092   4.168
 3795TIP3    H211392   0.209   2.995   4.149
 3796TIP3   OH211393   3.879   1.438   2.678
 3796TIP3    H111394   3.863   1.463   2.588
 3796TIP3    H211395   3.794   1.407   2.710
 3797TIP3   OH211396   1.040   5.659   5.041
 3797TIP3    H111397   1.040   5.592   4.973
 3797TIP3    H211398   0.980   5.626   5.108
 3798TIP3   OH211399   2.647   3.207   5.021
 3798TIP3    H111400   2.626   3.286   5.071
 3798TIP3    H211401   2.605   3.136   5.070
 3799TIP3   OH211402   0.988   5.826   4.590
 3799TIP3    H111403   1.062   5.778   4.552
 3799TIP3    H211404   0.931   5.845   4.516
 3800TIP3   OH211405   0.495   3.156   3.654
 3800TIP3    H111406   0.490   3.250   3.671
 3800TIP3    H211407   0.455   3.116   3.731
 3801TIP3   OH211408   3.874   2.528   1.497
 3801TIP3    H111409   3.823   2.537   1.577
 3801TIP3    H211410   3.884   2.618   1.464
 3802TIP3   OH211411   4.818   5.639   4.971
 3802TIP3    H111412   4.804   5.716   5.026
 3802TIP3    H211413   4.799   5.564   5.027
 3803TIP3   OH211414   1.344   5.926   2.272
 3803TIP3    H111415   1.372   6.013   2.299
 3803TIP3    H211416   1.258   5.914   2.312
 3804TIP3   OH211417   3.742   4.382   1.476
 3804TIP3    H111418   3.773   4.470   1.455
 3804TIP3    H211419   3.798   4.353   1.548
 3805TIP3   OH211420   3.636   5.737   1.955
 3805TIP3    H111421   3.653   5.736   2.049
 3805TIP3    H211422   3.555   5.688   1.944
 3806TIP3   OH211423   5.132   3.983   4.134
 3806TIP3    H111424   5.112   3.892   4.114
 3806TIP3    H211425   5.047   4.026   4.137
 3807TIP3   OH211426   2.497   0.301   2.407
 3807TIP3    H111427   2.569   0.252   2.366
 3807TIP3    H211428   2.469   0.248   2.481
 3808TIP3   OH211429   2.174   1.243   4.053
 3808TIP3    H111430   2.135   1.182   4.114
 3808TIP3    H211431   2.102   1.269   3.995
 3809TIP3   OH211432   5.051   2.564   3.319
 3809TIP3    H111433   4.983   2.564   3.252
 3809TIP3    H211434   5.133   2.565   3.269
 3810TIP3   OH211435   4.607   2.536   2.621
 3810TIP3    H111436   4.581   2.613   2.569
 3810TIP3    H211437   4.641   2.474   2.556
 3811TIP3   OH211438   1.467   4.149   2.532
 3811TIP3    H111439   1.509   4.106   2.458
 3811TIP3    H211440   1.466   4.242   2.508
 3812TIP3   OH211441   5.739   5.869   3.809
 3812TIP3    H111442   5.743   5.778   3.835
 3812TIP3    H211443   5.701   5.914   3.884
 3813TIP3   OH211444   4.921   2.606   1.814
 3813TIP3    H111445   4.984   2.561   1.870
 3813TIP3    H211446   4.875   2.535   1.768
 3814TIP3   OH211447   2.203   4.000   0.407
 3814TIP3    H111448   2.233   3.982   0.318
 3814TIP3    H211449   2.114   3.966   0.410
 3815TIP3   OH211450   4.175   4.279   2.093
 3815TIP3    H111451   4.197   4.252   2.004
 3815TIP3    H211452   4.190   4.374   2.093
 3816TIP3   OH211453   5.307   2.752   0.761
 3816TIP3    H111454   5.371   2.821   0.745
 3816TIP3    H211455   5.358   2.682   0.802
 3817TIP3   OH211456   5.389   5.670   2.529
 3817TIP3    H111457   5.483   5.683   2.538
 3817TIP3    H211458   5.355   5.756   2.506
 3818TIP3   OH211459   4.368   3.526   2.612
 3818TIP3    H111460   4.408   3.503   2.696
 3818TIP3    H211461   4.328   3.444   2.581
 3819TIP3   OH211462   6.244   0.066   3.486
 3819TIP3    H111463   6.211   0.088   3.399
 3819TIP3    H211464   6.339   0.081   3.479
 3820TIP3   OH211465   4.452   3.654   0.456
 3820TIP3    H111466   4.411   3.669   0.370
 3820TIP3    H211467   4.536   3.613   0.436
 3821TIP3   OH211468   1.379   3.946   0.402
 3821TIP3    H111469   1.351   3.902   0.482
 3821TIP3    H211470   1.396   3.875   0.340
 3822TIP3   OH211471   1.744   4.675   0.654
 3822TIP3    H111472   1.816   4.702   0.711
 3822TIP3    H211473   1.778   4.599   0.607
 3823TIP3   OH211474   5.682   4.894   3.663
 3823TIP3    H111475   5.652   4.882   3.753
 3823TIP3    H211476   5.679   4.989   3.650
 3824TIP3   OH211477   5.066   5.319   2.233
 3824TIP3    H111478   5.115   5.241   2.209
 3824TIP3    H211479   5.082   5.330   2.326
 3825TIP3   OH211480   4.448   2.516   3.560
 3825TIP3    H111481   4.484   2.561   3.484
 3825TIP3    H211482   4.509   2.444   3.577
 3826TIP3   OH211483   2.524   5.035   2.526
 3826TIP3    H111484   2.514   4.979   2.603
 3826TIP3    H211485   2.575   4.983   2.464
 3827TIP3   OH211486   1.334   4.045   3.405
 3827TIP3    H111487   1.386   4.083   3.334
 3827TIP3    H211488   1.379   3.963   3.426
 3828TIP3   OH211489   0.465   5.886   4.467
 3828TIP3    H111490   0.503   5.798   4.474
 3828TIP3    H211491   0.432   5.905   4.555
 3829TIP3   OH211492   4.020   0.941   2.167
 3829TIP3    H111493   4.029   0.868   2.229
 3829TIP3    H211494   3.944   0.989   2.198
 3830TIP3   OH211495   0.473   0.364   2.962
 3830TIP3    H111496   0.544   0.393   2.906
 3830TIP3    H211497   0.505   0.283   3.002
 3831TIP3   OH211498   5.273   2.602   3.191
 3831TIP3    H111499   5.308   2.551   3.118
 3831TIP3    H211500   5.297   2.692   3.171
 3832TIP3   OH211501   4.596   4.714   2.353
 3832TIP3    H111502   4.661   4.782   2.333
 3832TIP3    H211503   4.538   4.713   2.277
 3833TIP3   OH211504   0.225   2.287   1.661
 3833TIP3    H111505   0.256   2.200   1.688
 3833TIP3    H211506   0.278   2.309   1.585
 3834TIP3   OH211507   1.594   3.529   1.624
 3834TIP3    H111508   1.612   3.590   1.696
 3834TIP3    H211509   1.646   3.564   1.551
 3835TIP3   OH211510   2.762   1.507   5.024
 3835TIP3    H111511   2.691   1.489   4.962
 3835TIP3    H211512   2.841   1.474   4.981
 3836TIP3   OH211513   6.031   2.467   2.276
 3836TIP3    H111514   6.107   2.469   2.334
 3836TIP3    H211515   6.067   2.444   2.190
 3837TIP3   OH211516   1.857   2.096   0.806
 3837TIP3    H111517   1.846   2.009   0.846
 3837TIP3    H211518   1.805   2.092   0.726
 3838TIP3   OH211519   5.667   3.801   2.395
 3838TIP3    H111520   5.715   3.804   2.313
 3838TIP3    H211521   5.734   3.790   2.462
 3839TIP3   OH211522   0.188   2.167   4.872
 3839TIP3    H111523   0.228   2.168   4.958
 3839TIP3    H211524   0.208   2.253   4.835
 3840TIP3   OH211525   6.015   4.875   2.266
 3840TIP3    H111526   6.014   4.951   2.325
 3840TIP3    H211527   5.923   4.856   2.250
 3841TIP3   OH211528   4.096   2.206   3.741
 3841TIP3    H111529   4.136   2.148   3.806
 3841TIP3    H211530   4.154   2.201   3.665
 3842TIP3   OH211531   4.014   4.132   4.273
 3842TIP3    H111532   4.072   4.207   4.281
 3842TIP3    H211533   4.034   4.078   4.349
 3843TIP3   OH211534   4.847   0.890   3.187
 3843TIP3    H111535   4.943   0.894   3.193
 3843TIP3    H211536   4.823   0.964   3.132
 3844TIP3   OH211537   1.603   0.465   2.072
 3844TIP3    H111538   1.607   0.514   2.154
 3844TIP3    H211539   1.510   0.469   2.047
 3845TIP3   OH211540   0.742   1.259   1.670
 3845TIP3    H111541   0.823   1.309   1.676
 3845TIP3    H211542   0.684   1.314   1.619
 3846TIP3   OH211543   3.990   4.028   3.705
 3846TIP3    H111544   4.055   4.009   3.637
 3846TIP3    H211545   3.910   4.048   3.657
 3847TIP3   OH211546   4.958   4.045   2.215
 3847TIP3    H111547   4.953   4.107   2.288
 3847TIP3    H211548   5.052   4.033   2.200
 3848TIP3   OH211549   1.501   4.457   3.502
 3848TIP3    H111550   1.428   4.398   3.489
 3848TIP3    H211551   1.515   4.459   3.597
 3849TIP3   OH211552   0.715   3.479   1.533
 3849TIP3    H111553   0.803   3.452   1.508
 3849TIP3    H211554   0.670   3.495   1.450
 3850TIP3   OH211555   3.490   1.473   3.551
 3850TIP3    H111556   3.457   1.388   3.581
 3850TIP3    H211557   3.582   1.474   3.578
 3851TIP3   OH211558   3.426   0.551   5.045
 3851TIP3    H111559   3.500   0.493   5.025
 3851TIP3    H211560   3.386   0.569   4.960
 3852TIP3   OH211561   5.944   1.518   4.349
 3852TIP3    H111562   5.941   1.512   4.445
 3852TIP3    H211563   5.950   1.611   4.331
 3853TIP3   OH211564   6.012   2.629   0.989
 3853TIP3    H111565   6.074   2.668   1.051
 3853TIP3    H211566   6.001   2.539   1.021
 3854TIP3   OH211567   5.461   0.996   4.264
 3854TIP3    H111568   5.411   0.918   4.287
 3854TIP3    H211569   5.507   1.019   4.344
 3855TIP3   OH211570   4.450   2.531   0.249
 3855TIP3    H111571   4.459   2.587   0.326
 3855TIP3    H211572   4.403   2.454   0.281
 3856TIP3   OH211573   4.037   1.321   3.953
 3856TIP3    H111574   4.062   1.391   4.013
 3856TIP3    H211575   4.101   1.252   3.969
 3857TIP3   OH211576   6.266   1.707   2.809
 3857TIP3    H111577   6.266   1.771   2.880
 3857TIP3    H211578   6.357   1.702   2.781
 3858TIP3   OH211579   5.145   1.825   4.937
 3858TIP3    H111580   5.219   1.786   4.983
 3858TIP3    H211581   5.183   1.894   4.883
 3859TIP3   OH211582   3.429   0.836   0.810
 3859TIP3    H111583   3.338   0.823   0.784
 3859TIP3    H211584   3.431   0.809   0.902
 3860TIP3   OH211585   0.466  -0.010   3.769
 3860TIP3    H111586   0.540  -0.017   3.830
 3860TIP3    H211587   0.484   0.068   3.718
 3861TIP3   OH211588   6.135   1.119   1.721
 3861TIP3    H111589   6.122   1.202   1.768
 3861TIP3    H211590   6.091   1.133   1.637
 3862TIP3   OH211591   0.390   0.658   2.988
 3862TIP3    H111592   0.402   0.565   3.006
 3862TIP3    H211593   0.315   0.684   3.041
 3863TIP3   OH211594   3.693   0.495   2.509
 3863TIP3    H111595   3.660   0.434   2.575
 3863TIP3    H211596   3.651   0.578   2.530
 3864TIP3   OH211597   0.679   0.550   2.834
 3864TIP3    H111598   0.742   0.488   2.799
 3864TIP3    H211599   0.681   0.623   2.773
 3865TIP3   OH211600   0.365   0.186   1.238
 3865TIP3    H111601   0.376   0.280   1.251
 3865TIP3    H211602   0.295   0.178   1.174
 3866TIP3   OH211603   2.733   0.798   3.405
 3866TIP3    H111604   2.789   0.833   3.336
 3866TIP3    H211605   2.669   0.745   3.359
 3867TIP3   OH211606   0.632   3.534   1.268
 3867TIP3    H111607   0.703   3.473   1.247
 3867TIP3    H211608   0.571   3.526   1.195
 3868TIP3   OH211609   3.522   3.750   2.087
 3868TIP3    H111610   3.547   3.725   1.998
 3868TIP3    H211611   3.606   3.767   2.131
 3869TIP3   OH211612   3.617   1.671   2.855
 3869TIP3    H111613   3.647   1.581   2.866
 3869TIP3    H211614   3.522   1.667   2.867
 3870TIP3   OH211615   3.829   1.091   2.668
 3870TIP3    H111616   3.867   1.122   2.750
 3870TIP3    H211617   3.734   1.096   2.682
 3871TIP3   OH211618   3.257   3.203   4.941
 3871TIP3    H111619   3.188   3.268   4.950
 3871TIP3    H211620   3.311   3.234   4.868
 3872TIP3   OH211621   3.423   0.917   1.431
 3872TIP3    H111622   3.461   0.922   1.518
 3872TIP3    H211623   3.335   0.882   1.446
 3873TIP3   OH211624   3.611   0.682   2.721
 3873TIP3    H111625   3.685   0.727   2.762
 3873TIP3    H211626   3.596   0.605   2.777
 3874TIP3   OH211627   2.742   4.814   1.123
 3874TIP3    H111628   2.820   4.808   1.180
 3874TIP3    H211629   2.728   4.908   1.112
 3875TIP3   OH211630   0.864   0.631   4.385
 3875TIP3    H111631   0.942   0.687   4.388
 3875TIP3    H211632   0.853   0.602   4.476
 3876TIP3   OH211633   0.121   4.709   4.265
 3876TIP3    H111634   0.125   4.634   4.206
 3876TIP3    H211635   0.210   4.716   4.300
 3877TIP3   OH211636   5.333   0.632   3.219
 3877TIP3    H111637   5.379   0.556   3.255
 3877TIP3    H211638   5.351   0.629   3.125
 3878TIP3   OH211639   1.999   5.583   3.704
 3878TIP3    H111640   1.985   5.664   3.752
 3878TIP3    H211641   1.916   5.536   3.709
 3879TIP3   OH211642   3.005   0.632   2.509
 3879TIP3    H111643   2.934   0.697   2.514
 3879TIP3    H211644   2.964   0.555   2.469
 3880TIP3   OH211645   3.280   1.936   2.119
 3880TIP3    H111646   3.256   2.023   2.149
 3880TIP3    H211647   3.226   1.877   2.171
 3881TIP3   OH211648   4.704   0.977   3.847
 3881TIP3    H111649   4.641   0.997   3.778
 3881TIP3    H211650   4.767   1.049   3.844
 3882TIP3   OH211651   5.846   2.969   1.250
 3882TIP3    H111652   5.796   2.920   1.315
 3882TIP3    H211653   5.780   3.007   1.192
 3883TIP3   OH211654   3.547   2.331   1.462
 3883TIP3    H111655   3.580   2.420   1.471
 3883TIP3    H211656   3.521   2.305   1.551
 3884TIP3   OH211657   5.242   3.042   4.418
 3884TIP3    H111658   5.305   3.099   4.463
 3884TIP3    H211659   5.295   2.975   4.376
 3885TIP3   OH211660   6.221   1.759   4.808
 3885TIP3    H111661   6.224   1.745   4.903
 3885TIP3    H211662   6.193   1.675   4.773
 3886TIP3   OH211663   1.377   3.010   2.891
 3886TIP3    H111664   1.435   3.084   2.906
 3886TIP3    H211665   1.393   2.985   2.800
 3887TIP3   OH211666   4.193   2.492   4.482
 3887TIP3    H111667   4.170   2.488   4.574
 3887TIP3    H211668   4.220   2.582   4.467
 3888TIP3   OH211669   2.312   0.753   1.036
 3888TIP3    H111670   2.268   0.789   1.113
 3888TIP3    H211671   2.402   0.783   1.043
 3889TIP3   OH211672   0.430   3.393   1.634
 3889TIP3    H111673   0.407   3.473   1.588
 3889TIP3    H211674   0.458   3.332   1.566
 3890TIP3   OH211675   1.016   0.204   0.182
 3890TIP3    H111676   1.103   0.198   0.143
 3890TIP3    H211677   1.013   0.131   0.245
 3891TIP3   OH211678   3.069   1.507   3.413
 3891TIP3    H111679   2.989   1.524   3.363
 3891TIP3    H211680   3.061   1.416   3.442
 3892TIP3   OH211681   3.871   4.029   2.426
 3892TIP3    H111682   3.808   4.026   2.498
 3892TIP3    H211683   3.847   3.956   2.370
 3893TIP3   OH211684   3.823   3.651   3.679
 3893TIP3    H111685   3.827   3.558   3.655
 3893TIP3    H211686   3.774   3.652   3.761
 3894TIP3   OH211687   0.246   2.693   4.383
 3894TIP3    H111688   0.233   2.600   4.362
 3894TIP3    H211689   0.193   2.707   4.462
 3895TIP3   OH211690   1.468   2.619   1.146
 3895TIP3    H111691   1.559   2.590   1.146
 3895TIP3    H211692   1.473   2.713   1.130
 3896TIP3   OH211693   5.045   0.296   1.099
 3896TIP3    H111694   5.098   0.249   1.163
 3896TIP3    H211695   4.992   0.228   1.057
 3897TIP3   OH211696   1.032   0.532   3.957
 3897TIP3    H111697   1.021   0.614   4.005
 3897TIP3    H211698   1.024   0.464   4.025
 3898TIP3   OH211699   3.608   3.587   0.235
 3898TIP3    H111700   3.545   3.653   0.264
 3898TIP3    H211701   3.676   3.589   0.302
 3899TIP3   OH211702   4.784   3.759   0.889
 3899TIP3    H111703   4.738   3.792   0.812
 3899TIP3    H211704   4.748   3.809   0.962
 3900TIP3   OH211705   4.816   0.765   1.674
 3900TIP3    H111706   4.737   0.715   1.657
 3900TIP3    H211707   4.793   0.855   1.651
 3901TIP3   OH211708   5.475   0.250   0.662
 3901TIP3    H111709   5.536   0.247   0.736
 3901TIP3    H211710   5.433   0.163   0.663
 3902TIP3   OH211711   1.379   5.967   2.743
 3902TIP3    H111712   1.465   5.945   2.779
 3902TIP3    H211713   1.389   5.959   2.648
 3903TIP3   OH211714   2.062   3.726   1.722
 3903TIP3    H111715   2.028   3.757   1.806
 3903TIP3    H211716   2.066   3.804   1.668
 3904TIP3   OH211717   2.961   3.099   3.794
 3904TIP3    H111718   3.031   3.035   3.787
 3904TIP3    H211719   3.004   3.184   3.780
 3905TIP3   OH211720   2.991   3.020   0.103
 3905TIP3    H111721   2.982   3.070   0.184
 3905TIP3    H211722   2.919   2.957   0.106
 3906TIP3   OH211723   4.443   2.575   2.197
 3906TIP3    H111724   4.406   2.572   2.285
 3906TIP3    H211725   4.530   2.614   2.210
 3907TIP3   OH211726   3.240   1.063   2.998
 3907TIP3    H111727   3.199   1.044   2.914
 3907TIP3    H211728   3.318   1.008   2.999
 3908TIP3   OH211729   0.869   3.626   4.550
 3908TIP3    H111730   0.782   3.622   4.590
 3908TIP3    H211731   0.924   3.573   4.608
 3909TIP3   OH211732   0.698   1.908   0.465
 3909TIP3    H111733   0.759   1.888   0.536
 3909TIP3    H211734   0.684   1.824   0.422
 3910TIP3   OH211735   4.992   2.075   1.712
 3910TIP3    H111736   4.984   2.131   1.788
 3910TIP3    H211737   4.923   2.009   1.723
 3911TIP3   OH211738   2.338   0.473   3.000
 3911TIP3    H111739   2.319   0.506   3.087
 3911TIP3    H211740   2.434   0.464   2.998
 3912TIP3   OH211741   4.854   1.160   0.348
 3912TIP3    H111742   4.814   1.156   0.434
 3912TIP3    H211743   4.787   1.199   0.291
 3913TIP3   OH211744   0.310   3.520   2.795
 3913TIP3    H111745   0.289   3.575   2.720
 3913TIP3    H211746   0.255   3.442   2.784
 3914TIP3   OH211747   2.087   0.851   5.060
 3914TIP3    H111748   2.085   0.835   4.966
 3914TIP3    H211749   1.995   0.851   5.087
 3915TIP3   OH211750   0.360   5.068   2.301
 3915TIP3    H111751   0.302   5.139   2.326
 3915TIP3    H211752   0.314   5.022   2.231
 3916TIP3   OH211753   4.052   3.684   0.277
 3916TIP3    H111754   4.031   3.593   0.256
 3916TIP3    H211755   3.967   3.727   0.286
 3917TIP3   OH211756   0.395   3.056   1.081
 3917TIP3    H111757   0.477   3.105   1.091
 3917TIP3    H211758   0.376   3.022   1.168
 3918TIP3   OH211759   4.953   1.983   4.757
 3918TIP3    H111760   4.933   2.018   4.844
 3918TIP3    H211761   4.874   1.933   4.734
 3919TIP3   OH211762   2.261   2.605   2.685
 3919TIP3    H111763   2.237   2.697   2.671
 3919TIP3    H211764   2.187   2.556   2.648
 3920TIP3   OH211765   4.029   5.932   4.965
 3920TIP3    H111766   4.026   5.975   5.050
 3920TIP3    H211767   4.025   6.003   4.901
 3921TIP3   OH211768   5.297   2.114   2.331
 3921TIP3    H111769   5.360   2.161   2.387
 3921TIP3    H211770   5.349   2.045   2.290
 3922TIP3   OH211771   5.852   4.485   0.869
 3922TIP3    H111772   5.849   4.581   0.876
 3922TIP3    H211773   5.938   4.466   0.833
 3923TIP3   OH211774   4.287   2.518   5.191
 3923TIP3    H111775   4.197   2.507   5.221
 3923TIP3    H211776   4.284   2.502   5.097
 3924TIP3   OH211777   1.126   4.403   0.122
 3924TIP3    H111778   1.177   4.324   0.142
 3924TIP3    H211779   1.063   4.409   0.195
 3925TIP3   OH211780   2.133   5.923   0.886
 3925TIP3    H111781   2.048   5.958   0.859
 3925TIP3    H211782   2.178   5.902   0.804
 3926TIP3   OH211783   3.034   4.255   4.241
 3926TIP3    H111784   3.008   4.240   4.151
 3926TIP3    H211785   3.129   4.251   4.240
 3927TIP3   OH211786   1.008   2.917   2.727
 3927TIP3    H111787   1.019   2.871   2.810
 3927TIP3    H211788   0.994   3.009   2.751
 3928TIP3   OH211789   1.936   4.222   5.083
 3928TIP3    H111790   1.983   4.249   5.004
 3928TIP3    H211791   2.002   4.175   5.135
 3929TIP3   OH211792   4.629   2.015   0.375
 3929TIP3    H111793   4.659   2.056   0.293
 3929TIP3    H211794   4.547   1.972   0.352
 3930TIP3   OH211795   3.821   3.800   2.113
 3930TIP3    H111796   3.836   3.894   2.102
 3930TIP3    H211797   3.870   3.759   2.042
 3931TIP3   OH211798   1.343   4.116   4.787
 3931TIP3    H111799   1.319   4.031   4.823
 3931TIP3    H211800   1.346   4.102   4.693
 3932TIP3   OH211801   2.875   2.358   2.457
 3932TIP3    H111802   2.864   2.281   2.514
 3932TIP3    H211803   2.914   2.424   2.514
 3933TIP3   OH211804   5.405   2.232   4.260
 3933TIP3    H111805   5.427   2.166   4.194
 3933TIP3    H211806   5.453   2.310   4.233
 3934TIP3   OH211807   1.063   4.005   1.598
 3934TIP3    H111808   1.120   3.978   1.669
 3934TIP3    H211809   1.031   3.923   1.560
 3935TIP3   OH211810   3.823   3.804   0.266
 3935TIP3    H111811   3.752   3.839   0.320
 3935TIP3    H211812   3.791   3.810   0.177
 3936TIP3   OH211813   6.116   1.397   0.612
 3936TIP3    H111814   6.182   1.403   0.544
 3936TIP3    H211815   6.037   1.434   0.573
 3937TIP3   OH211816   2.322   0.583   4.834
 3937TIP3    H111817   2.380   0.519   4.874
 3937TIP3    H211818   2.369   0.666   4.839
 3938TIP3   OH211819   3.881   5.012   2.062
 3938TIP3    H111820   3.864   5.099   2.025
 3938TIP3    H211821   3.975   5.000   2.054
 3939TIP3   OH211822   5.754   1.404   5.071
 3939TIP3    H111823   5.818   1.464   5.110
 3939TIP3    H211824   5.718   1.356   5.146
 3940TIP3   OH211825   1.422   4.010   1.021
 3940TIP3    H111826   1.516   4.027   1.029
 3940TIP3    H211827   1.399   4.045   0.935
 3941TIP3   OH211828   0.299   3.806   1.337
 3941TIP3    H111829   0.377   3.859   1.324
 3941TIP3    H211830   0.308   3.734   1.275
 3942TIP3   OH211831   2.778   4.410   1.526
 3942TIP3    H111832   2.832   4.489   1.523
 3942TIP3    H211833   2.719   4.418   1.451
 3943TIP3   OH211834   3.434   2.992   2.094
 3943TIP3    H111835   3.389   2.921   2.049
 3943TIP3    H211836   3.413   3.070   2.043
 3944TIP3   OH211837   3.329   0.291   2.568
 3944TIP3    H111838   3.324   0.248   2.483
 3944TIP3    H211839   3.242   0.330   2.581
 3945TIP3   OH211840   5.633   4.845   4.169
 3945TIP3    H111841   5.589   4.816   4.249
 3945TIP3    H211842   5.583   4.921   4.140
 3946TIP3   OH211843   1.468   5.283   4.725
 3946TIP3    H111844   1.502   5.370   4.704
 3946TIP3    H211845   1.541   5.224   4.708
 3947TIP3   OH211846   2.586   3.065   4.041
 3947TIP3    H111847   2.652   3.027   3.982
 3947TIP3    H211848   2.572   3.153   4.007
 3948TIP3   OH211849   5.484   0.240   1.570
 3948TIP3    H111850   5.472   0.218   1.477
 3948TIP3    H211851   5.518   0.160   1.609
 3949TIP3   OH211852   3.341   0.797   2.798
 3949TIP3    H111853   3.436   0.797   2.790
 3949TIP3    H211854   3.309   0.766   2.713
 3950TIP3   OH211855   4.112   3.550   2.249
 3950TIP3    H111856   4.029   3.503   2.252
 3950TIP3    H211857   4.088   3.640   2.229
 3951TIP3   OH211858   3.444   0.833   4.877
 3951TIP3    H111859   3.530   0.813   4.915
 3951TIP3    H211860   3.428   0.924   4.902
 3952TIP3   OH211861   4.556   1.838   0.083
 3952TIP3    H111862   4.543   1.763   0.141
 3952TIP3    H211863   4.517   1.912   0.130
 3953TIP3   OH211864   0.534   1.093   0.852
 3953TIP3    H111865   0.452   1.089   0.802
 3953TIP3    H211866   0.548   1.187   0.867
 3954TIP3   OH211867   0.070   0.939   2.666
 3954TIP3    H111868   0.142   0.962   2.607
 3954TIP3    H211869   0.024   0.868   2.621
 3955TIP3   OH211870   0.724   2.593   1.702
 3955TIP3    H111871   0.695   2.664   1.759
 3955TIP3    H211872   0.667   2.519   1.723
 3956TIP3   OH211873   6.221   2.773   1.209
 3956TIP3    H111874   6.173   2.856   1.208
 3956TIP3    H211875   6.221   2.744   1.117
 3957TIP3   OH211876   0.573   1.407   5.173
 3957TIP3    H111877   0.661   1.426   5.207
 3957TIP3    H211878   0.582   1.323   5.127
 3958TIP3   OH211879   3.632   5.028   5.025
 3958TIP3    H111880   3.576   5.104   5.044
 3958TIP3    H211881   3.716   5.066   4.999
 3959TIP3   OH211882   2.404   0.935   1.966
 3959TIP3    H111883   2.430   1.027   1.963
 3959TIP3    H211884   2.480   0.890   2.004
 3960TIP3   OH211885   0.397   5.012   0.082
 3960TIP3    H111886   0.474   4.972   0.122
 3960TIP3    H211887   0.396   5.102   0.116
 3961TIP3   OH211888   5.201   4.886   2.007
 3961TIP3    H111889   5.192   4.919   1.917
 3961TIP3    H211890   5.191   4.791   1.999
 3962TIP3   OH211891   5.406   5.936   4.171
 3962TIP3    H111892   5.331   5.916   4.226
 3962TIP3    H211893   5.397   6.030   4.152
 3963TIP3   OH211894   3.879   2.179   3.909
 3963TIP3    H111895   3.866   2.085   3.926
 3963TIP3    H211896   3.967   2.185   3.872
 3964TIP3   OH211897   0.874   4.182   1.511
 3964TIP3    H111898   0.929   4.109   1.540
 3964TIP3    H211899   0.784   4.151   1.524
 3965TIP3   OH211900   3.201   5.046   0.762
 3965TIP3    H111901   3.180   5.122   0.816
 3965TIP3    H211902   3.278   5.073   0.712
 3966TIP3   OH211903   0.214   1.108   3.839
 3966TIP3    H111904   0.217   1.030   3.784
 3966TIP3    H211905   0.184   1.177   3.781
 3967TIP3   OH211906   4.433   1.993   3.496
 3967TIP3    H111907   4.511   1.971   3.445
 3967TIP3    H211908   4.365   1.937   3.459
 3968TIP3   OH211909   0.949   0.824   4.784
 3968TIP3    H111910   0.973   0.880   4.859
 3968TIP3    H211911   1.006   0.854   4.713
 3969TIP3   OH211912   1.333   1.624   2.961
 3969TIP3    H111913   1.321   1.632   3.056
 3969TIP3    H211914   1.413   1.674   2.943
 3970TIP3   OH211915   2.275   4.927   4.117
 3970TIP3    H111916   2.238   4.849   4.160
 3970TIP3    H211917   2.200   4.966   4.071
 3971TIP3   OH211918   2.583   4.565   1.289
 3971TIP3    H111919   2.574   4.624   1.215
 3971TIP3    H211920   2.622   4.619   1.358
 3972TIP3   OH211921   1.636   1.211   1.063
 3972TIP3    H111922   1.546   1.180   1.072
 3972TIP3    H211923   1.633   1.303   1.088
 3973TIP3   OH211924   3.091   2.534   3.122
 3973TIP3    H111925   3.166   2.477   3.102
 3973TIP3    H211926   3.090   2.598   3.051
 3974TIP3   OH211927   3.861   5.426   4.901
 3974TIP3    H111928   3.940   5.372   4.902
 3974TIP3    H211929   3.875   5.488   4.830
 3975TIP3   OH211930   2.146   0.208   0.576
 3975TIP3    H111931   2.229   0.163   0.561
 3975TIP3    H211932   2.137   0.208   0.672
 3976TIP3   OH211933   5.919   1.869   0.437
 3976TIP3    H111934   5.880   1.902   0.356
 3976TIP3    H211935   5.863   1.903   0.506
 3977TIP3   OH211936   5.099   1.179   0.637
 3977TIP3    H111937   5.129   1.204   0.725
 3977TIP3    H211938   5.121   1.255   0.583
 3978TIP3   OH211939   5.590   0.556   3.481
 3978TIP3    H111940   5.600   0.522   3.570
 3978TIP3    H211941   5.570   0.478   3.428
 3979TIP3   OH211942   5.261   4.028   2.464
 3979TIP3    H111943   5.346   4.068   2.485
 3979TIP3    H211944   5.283   3.946   2.420
 3980TIP3   OH211945   1.037   3.615   3.860
 3980TIP3    H111946   1.119   3.647   3.822
 3980TIP3    H211947   0.976   3.616   3.786
 3981TIP3   OH211948   6.142   0.757   1.004
 3981TIP3    H111949   6.181   0.734   0.920
 3981TIP3    H211950   6.141   0.853   1.005
 3982TIP3   OH211951   2.169   3.074   4.835
 3982TIP3    H111952   2.263   3.085   4.826
 3982TIP3    H211953   2.133   3.161   4.817
 3983TIP3   OH211954   1.270   0.360   3.372
 3983TIP3    H111955   1.267   0.454   3.387
 3983TIP3    H211956   1.352   0.331   3.413
 3984TIP3   OH211957   6.162   4.453   4.426
 3984TIP3    H111958   6.158   4.469   4.332
 3984TIP3    H211959   6.072   4.465   4.456
 3985TIP3   OH211960   5.005   4.507   3.666
 3985TIP3    H111961   4.918   4.473   3.644
 3985TIP3    H211962   5.050   4.434   3.709
 3986TIP3   OH211963   4.021   1.364   4.425
 3986TIP3    H111964   3.986   1.311   4.353
 3986TIP3    H211965   3.951   1.366   4.490
 3987TIP3   OH211966   2.322   3.648   3.355
 3987TIP3    H111967   2.290   3.686   3.436
 3987TIP3    H211968   2.417   3.642   3.368
 3988TIP3   OH211969   3.251   4.931   2.530
 3988TIP3    H111970   3.172   4.984   2.530
 3988TIP3    H211971   3.312   4.980   2.585
 3989TIP3   OH211972   3.232   1.167   3.897
 3989TIP3    H111973   3.147   1.154   3.938
 3989TIP3    H211974   3.271   1.241   3.944
 3990TIP3   OH211975   1.742   3.073   0.775
 3990TIP3    H111976   1.676   3.099   0.711
 3990TIP3    H211977   1.825   3.076   0.727
 3991TIP3   OH211978   3.918   2.069   2.479
 3991TIP3    H111979   3.849   2.004   2.495
 3991TIP3    H211980   3.922   2.120   2.560
 3992TIP3   OH211981   5.302   4.884   0.698
 3992TIP3    H111982   5.256   4.814   0.654
 3992TIP3    H211983   5.388   4.887   0.655
 3993TIP3   OH211984   0.076   4.183   0.843
 3993TIP3    H111985   0.024   4.149   0.916
 3993TIP3    H211986   0.015   4.186   0.769
 3994TIP3   OH211987   4.511   5.289   3.679
 3994TIP3    H111988   4.552   5.365   3.721
 3994TIP3    H211989   4.469   5.325   3.601
 3995TIP3   OH211990   0.259   0.394   2.318
 3995TIP3    H111991   0.278   0.305   2.288
 3995TIP3    H211992   0.333   0.417   2.373
 3996TIP3   OH211993   0.126   0.956   1.208
 3996TIP3    H111994   0.184   1.032   1.220
 3996TIP3    H211995   0.094   0.964   1.118
 3997TIP3   OH211996   1.032   4.269   3.311
 3997TIP3    H111997   0.997   4.259   3.222
 3997TIP3    H211998   1.105   4.331   3.301
 3998TIP3   OH211999   5.266   0.872   2.342
 3998TIP3    H112000   5.324   0.946   2.361
 3998TIP3    H212001   5.316   0.818   2.280
 3999TIP3   OH212002   1.178   5.306   3.255
 3999TIP3    H112003   1.107   5.243   3.266
 3999TIP3    H212004   1.172   5.334   3.164
 4000TIP3   OH212005   3.396   0.756   4.159
 4000TIP3    H112006   3.445   0.780   4.081
 4000TIP3    H212007   3.450   0.786   4.232
 4001TIP3   OH212008   5.056   2.832   1.204
 4001TIP3    H112009   4.997   2.862   1.273
 4001TIP3    H212010   5.070   2.910   1.149
 4002TIP3   OH212011   3.940   2.444   4.260
 4002TIP3    H112012   3.883   2.491   4.199
 4002TIP3    H212013   4.023   2.433   4.213
 4003TIP3   OH212014   6.110   1.006   4.173
 4003TIP3    H112015   6.189   0.989   4.122
 4003TIP3    H212016   6.042   1.022   4.107
 4004TIP3   OH212017   3.962   0.231   2.943
 4004TIP3    H112018   4.051   0.232   2.979
 4004TIP3    H212019   3.975   0.245   2.849
 4005TIP3   OH212020   3.118   4.276   1.337
 4005TIP3    H112021   3.090   4.354   1.290
 4005TIP3    H212022   3.210   4.292   1.358
 4006TIP3   OH212023   1.502   4.045   1.785
 4006TIP3    H112024   1.425   3.994   1.760
 4006TIP3    H212025   1.576   3.991   1.758
 4007TIP3   OH212026   0.616   3.378   0.733
 4007TIP3    H112027   0.573   3.314   0.676
 4007TIP3    H212028   0.545   3.431   0.768
 4008TIP3   OH212029   3.809   0.296   4.451
 4008TIP3    H112030   3.786   0.387   4.468
 4008TIP3    H212031   3.735   0.245   4.488
 4009TIP3   OH212032   1.203   4.507   3.246
 4009TIP3    H112033   1.226   4.453   3.171
 4009TIP3    H212034   1.274   4.571   3.252
 4010TIP3   OH212035   2.529   4.030   2.100
 4010TIP3    H112036   2.617   4.058   2.075
 4010TIP3    H212037   2.541   3.986   2.184
 4011TIP3   OH212038   5.622   3.478   1.323
 4011TIP3    H112039   5.663   3.395   1.348
 4011TIP3    H212040   5.625   3.531   1.402
 4012TIP3   OH212041   0.651   0.367   3.373
 4012TIP3    H112042   0.721   0.376   3.308
 4012TIP3    H212043   0.609   0.453   3.375
 4013TIP3   OH212044   0.341   1.659   2.460
 4013TIP3    H112045   0.313   1.568   2.471
 4013TIP3    H212046   0.316   1.681   2.370
 4014TIP3   OH212047   5.472   3.287   2.796
 4014TIP3    H112048   5.554   3.337   2.794
 4014TIP3    H212049   5.410   3.343   2.750
 4015TIP3   OH212050   6.166   5.428   0.969
 4015TIP3    H112051   6.095   5.385   1.016
 4015TIP3    H212052   6.170   5.383   0.885
 4016TIP3   OH212053   4.045   5.246   0.493
 4016TIP3    H112054   4.078   5.164   0.530
 4016TIP3    H212055   3.951   5.244   0.509
 4017TIP3   OH212056   4.882   4.071   4.122
 4017TIP3    H112057   4.895   4.051   4.030
 4017TIP3    H212058   4.807   4.017   4.148
 4018TIP3   OH212059   0.978   3.017   0.154
 4018TIP3    H112060   0.971   3.091   0.093
 4018TIP3    H212061   0.911   2.955   0.124
 4019TIP3   OH212062   0.540   0.281   0.642
 4019TIP3    H112063   0.559   0.262   0.733
 4019TIP3    H212064   0.444   0.277   0.636
 4020TIP3   OH212065   3.400   5.634   5.096
 4020TIP3    H112066   3.365   5.714   5.137
 4020TIP3    H212067   3.457   5.596   5.163
 4021TIP3   OH212068   2.607   0.444   3.043
 4021TIP3    H112069   2.635   0.393   3.119
 4021TIP3    H212070   2.674   0.429   2.977
 4022TIP3   OH212071   1.133   4.766   4.242
 4022TIP3    H112072   1.151   4.716   4.322
 4022TIP3    H212073   1.201   4.833   4.240
 4023TIP3   OH212074   0.932   0.173   4.928
 4023TIP3    H112075   0.965   0.084   4.912
 4023TIP3    H212076   0.848   0.160   4.971
 4024TIP3   OH212077   5.280   4.421   3.188
 4024TIP3    H112078   5.260   4.386   3.101
 4024TIP3    H212079   5.196   4.454   3.221
 4025TIP3   OH212080   2.551   0.523   2.662
 4025TIP3    H112081   2.620   0.486   2.717
 4025TIP3    H212082   2.505   0.447   2.627
 4026TIP3   OH212083   6.095   5.252   4.899
 4026TIP3    H112084   6.126   5.220   4.983
 4026TIP3    H212085   6.005   5.280   4.916
 4027TIP3   OH212086   0.102   1.427   4.837
 4027TIP3    H112087   0.194   1.406   4.855
 4027TIP3    H212088   0.100   1.449   4.744
 4028TIP3   OH212089   4.534   1.621   3.909
 4028TIP3    H112090   4.627   1.601   3.902
 4028TIP3    H212091   4.516   1.621   4.003
 4029TIP3   OH212092   0.570   2.966   2.753
 4029TIP3    H112093   0.637   3.006   2.697
 4029TIP3    H212094   0.615   2.893   2.795
 4030TIP3   OH212095   2.449   2.954   3.404
 4030TIP3    H112096   2.481   2.972   3.316
 4030TIP3    H212097   2.505   2.883   3.435
 4031TIP3   OH212098   5.231   0.095   2.837
 4031TIP3    H112099   5.202   0.186   2.843
 4031TIP3    H212100   5.317   0.094   2.879
 4032TIP3   OH212101   1.506   5.087   2.565
 4032TIP3    H112102   1.440   5.135   2.615
 4032TIP3    H212103   1.589   5.130   2.588
 4033TIP3   OH212104   0.182   3.992   2.150
 4033TIP3    H112105   0.099   3.957   2.184
 4033TIP3    H212106   0.167   4.086   2.144
 4034TIP3   OH212107   4.650   2.681   1.311
 4034TIP3    H112108   4.665   2.638   1.226
 4034TIP3    H212109   4.696   2.626   1.374
 4035TIP3   OH212110   5.014   4.243   4.777
 4035TIP3    H112111   5.103   4.272   4.796
 4035TIP3    H212112   5.026   4.161   4.727
 4036TIP3   OH212113   3.303   4.942   1.030
 4036TIP3    H112114   3.362   5.008   0.995
 4036TIP3    H212115   3.221   4.955   0.983
 4037TIP3   OH212116   5.214   0.536   4.536
 4037TIP3    H112117   5.151   0.566   4.470
 4037TIP3    H212118   5.159   0.496   4.604
 4038TIP3   OH212119   5.796   0.917   0.142
 4038TIP3    H112120   5.734   0.940   0.073
 4038TIP3    H212121   5.813   0.999   0.188
 4039TIP3   OH212122   2.089   5.117   4.937
 4039TIP3    H112123   2.021   5.143   4.874
 4039TIP3    H212124   2.119   5.200   4.975
 4040TIP3   OH212125   4.114   4.155   3.030
 4040TIP3    H112126   4.023   4.177   3.006
 4040TIP3    H212127   4.161   4.156   2.946
 4041TIP3   OH212128   0.001   0.505   2.355
 4041TIP3    H112129  -0.031   0.539   2.272
 4041TIP3    H212130   0.089   0.471   2.334
 4042TIP3   OH212131   2.426   4.127   3.924
 4042TIP3    H112132   2.505   4.154   3.877
 4042TIP3    H212133   2.385   4.061   3.868
 4043TIP3   OH212134   0.739   0.066   1.516
 4043TIP3    H112135   0.662   0.119   1.540
 4043TIP3    H212136   0.814   0.118   1.545
 4044TIP3   OH212137   0.349   2.703   0.126
 4044TIP3    H112138   0.350   2.780   0.070
 4044TIP3    H212139   0.297   2.729   0.202
 4045TIP3   OH212140   5.573   1.773   3.915
 4045TIP3    H112141   5.520   1.848   3.890
 4045TIP3    H212142   5.551   1.758   4.007
 4046TIP3   OH212143   5.803   3.347   1.848
 4046TIP3    H112144   5.716   3.351   1.888
 4046TIP3    H212145   5.787   3.338   1.754
 4047TIP3   OH212146   0.536   0.882   0.173
 4047TIP3    H112147   0.555   0.952   0.110
 4047TIP3    H212148   0.601   0.893   0.242
 4048TIP3   OH212149   2.364   0.907   5.121
 4048TIP3    H112150   2.366   0.982   5.180
 4048TIP3    H212151   2.271   0.892   5.103
 4049TIP3   OH212152   0.064   0.022   0.787
 4049TIP3    H112153  -0.020   0.055   0.756
 4049TIP3    H212154   0.102  -0.021   0.711
 4050TIP3   OH212155   5.793   4.100   2.030
 4050TIP3    H112156   5.834   4.072   1.948
 4050TIP3    H212157   5.699   4.099   2.011
 4051TIP3   OH212158   1.213   3.899   2.671
 4051TIP3    H112159   1.181   3.967   2.612
 4051TIP3    H212160   1.291   3.864   2.628
 4052TIP3   OH212161   1.301   5.525   0.144
 4052TIP3    H112162   1.379   5.508   0.197
 4052TIP3    H212163   1.308   5.462   0.071
 4053TIP3   OH212164   1.816   2.626   2.190
 4053TIP3    H112165   1.893   2.637   2.246
 4053TIP3    H212166   1.742   2.642   2.248
 4054TIP3   OH212167   4.500   2.542   4.002
 4054TIP3    H112168   4.548   2.462   4.025
 4054TIP3    H212169   4.440   2.515   3.933
 4055TIP3   OH212170   3.984   2.106   0.623
 4055TIP3    H112171   4.022   2.096   0.535
 4055TIP3    H212172   4.027   2.038   0.675
 4056TIP3   OH212173   5.189   2.169   3.300
 4056TIP3    H112174   5.227   2.106   3.239
 4056TIP3    H212175   5.258   2.183   3.365
 4057TIP3   OH212176   6.068   4.127   4.694
 4057TIP3    H112177   6.099   4.064   4.628
 4057TIP3    H212178   5.992   4.085   4.734
 4058TIP3   OH212179   0.604   3.646   1.709
 4058TIP3    H112180   0.640   3.564   1.672
 4058TIP3    H212181   0.594   3.703   1.633
 4059TIP3   OH212182   6.144   3.913   3.007
 4059TIP3    H112183   6.211   3.873   3.063
 4059TIP3    H212184   6.193   3.946   2.931
 4060TIP3   OH212185   5.666   2.774   3.434
 4060TIP3    H112186   5.577   2.740   3.423
 4060TIP3    H212187   5.695   2.738   3.518
 4061TIP3   OH212188   0.861   4.102   4.565
 4061TIP3    H112189   0.920   4.060   4.627
 4061TIP3    H212190   0.905   4.094   4.481
 4062TIP3   OH212191   5.084   0.250   2.304
 4062TIP3    H112192   5.099   0.178   2.243
 4062TIP3    H212193   5.127   0.325   2.263
 4063TIP3   OH212194   0.532   1.598   1.290
 4063TIP3    H112195   0.492   1.622   1.207
 4063TIP3    H212196   0.599   1.534   1.267
 4064TIP3   OH212197   4.120   0.368   1.803
 4064TIP3    H112198   4.062   0.371   1.879
 4064TIP3    H212199   4.066   0.397   1.730
 4065TIP3   OH212200   4.226   3.594   3.080
 4065TIP3    H112201   4.152   3.569   3.026
 4065TIP3    H212202   4.208   3.554   3.165
 4066TIP3   OH212203   1.275   2.345   4.377
 4066TIP3    H112204   1.327   2.402   4.433
 4066TIP3    H212205   1.260   2.266   4.430
 4067TIP3   OH212206   2.634   4.570   3.079
 4067TIP3    H112207   2.712   4.515   3.093
 4067TIP3    H212208   2.568   4.533   3.137
 4068TIP3   OH212209   5.020   3.280   1.420
 4068TIP3    H112210   4.981   3.278   1.333
 4068TIP3    H212211   5.009   3.370   1.449
 4069TIP3   OH212212   2.784   0.594   1.451
 4069TIP3    H112213   2.857   0.535   1.433
 4069TIP3    H212214   2.721   0.540   1.500
 4070TIP3   OH212215   1.946   3.408   3.434
 4070TIP3    H112216   1.862   3.447   3.459
 4070TIP3    H212217   1.984   3.378   3.516
 4071TIP3   OH212218   6.287   3.935   4.799
 4071TIP3    H112219   6.278   3.913   4.706
 4071TIP3    H212220   6.380   3.920   4.818
 4072TIP3   OH212221   0.194   0.575   0.178
 4072TIP3    H112222   0.289   0.572   0.178
 4072TIP3    H212223   0.173   0.658   0.134
 4073TIP3   OH212224   4.610   5.481   1.501
 4073TIP3    H112225   4.620   5.407   1.562
 4073TIP3    H212226   4.636   5.445   1.416
 4074TIP3   OH212227   6.120   4.524   0.803
 4074TIP3    H112228   6.140   4.618   0.799
 4074TIP3    H212229   6.198   4.482   0.768
 4075TIP3   OH212230   3.709   3.210   4.666
 4075TIP3    H112231   3.720   3.194   4.759
 4075TIP3    H212232   3.732   3.302   4.654
 4076TIP3   OH212233   4.838   3.613   2.762
 4076TIP3    H112234   4.885   3.695   2.751
 4076TIP3    H212235   4.809   3.614   2.853
 4077TIP3   OH212236   1.981   0.127   1.423
 4077TIP3    H112237   2.035   0.108   1.501
 4077TIP3    H212238   1.909   0.180   1.456
 4078TIP3   OH212239   1.841   3.514   3.669
 4078TIP3    H112240   1.762   3.461   3.666
 4078TIP3    H212241   1.810   3.604   3.675
 4079TIP3   OH212242   4.721   4.953   1.041
 4079TIP3    H112243   4.814   4.972   1.054
 4079TIP3    H212244   4.720   4.892   0.967
 4080TIP3   OH212245   0.614   5.106   2.373
 4080TIP3    H112246   0.520   5.111   2.354
 4080TIP3    H212247   0.621   5.046   2.447
 4081TIP3   OH212248   4.078  -0.004   0.168
 4081TIP3    H112249   4.022   0.073   0.172
 4081TIP3    H212250   4.094  -0.017   0.074
 4082TIP3   OH212251   6.279   4.502   2.887
 4082TIP3    H112252   6.188   4.483   2.865
 4082TIP3    H212253   6.294   4.455   2.969
 4083TIP3   OH212254   5.325   3.510   1.409
 4083TIP3    H112255   5.385   3.568   1.456
 4083TIP3    H212256   5.369   3.425   1.410
 4084TIP3   OH212257   0.018   1.686   0.468
 4084TIP3    H112258   0.048   1.766   0.425
 4084TIP3    H212259  -0.078   1.694   0.468
 4085TIP3   OH212260   5.685   0.768   3.860
 4085TIP3    H112261   5.645   0.777   3.947
 4085TIP3    H212262   5.722   0.854   3.841
 4086TIP3   OH212263   6.273   3.943   4.114
 4086TIP3    H112264   6.212   3.996   4.166
 4086TIP3    H212265   6.250   3.853   4.135
 4087TIP3   OH212266   2.377   3.826   0.967
 4087TIP3    H112267   2.469   3.801   0.978
 4087TIP3    H212268   2.376   3.921   0.978
 4088TIP3   OH212269   2.604   3.571   3.843
 4088TIP3    H112270   2.675   3.512   3.868
 4088TIP3    H212271   2.564   3.528   3.767
 4089TIP3   OH212272   4.873   5.747   2.170
 4089TIP3    H112273   4.928   5.821   2.197
 4089TIP3    H212274   4.794   5.754   2.225
 4090TIP3   OH212275   2.782   0.919   4.425
 4090TIP3    H112276   2.727   0.983   4.378
 4090TIP3    H212277   2.858   0.969   4.453
 4091TIP3   OH212278   1.434   3.765   1.181
 4091TIP3    H112279   1.387   3.725   1.107
 4091TIP3    H212280   1.456   3.853   1.149
 4092TIP3   OH212281   5.770   4.308   0.683
 4092TIP3    H112282   5.755   4.378   0.619
 4092TIP3    H212283   5.775   4.353   0.767
 4093TIP3   OH212284   4.123   3.589   1.293
 4093TIP3    H112285   4.033   3.559   1.297
 4093TIP3    H212286   4.120   3.680   1.323
 4094TIP3   OH212287   1.940   0.859   2.490
 4094TIP3    H112288   2.033   0.875   2.476
 4094TIP3    H212289   1.934   0.768   2.518
 4095TIP3   OH212290   4.786   0.114   1.363
 4095TIP3    H112291   4.869   0.104   1.317
 4095TIP3    H212292   4.722   0.129   1.294
 4096TIP3   OH212293   0.053   3.493   0.044
 4096TIP3    H112294   0.030   3.455   0.129
 4096TIP3    H212295   0.101   3.573   0.065
 4097TIP3   OH212296   1.861   1.795   1.250
 4097TIP3    H112297   1.953   1.791   1.274
 4097TIP3    H212298   1.828   1.872   1.297
 4098TIP3   OH212299   3.000   3.303   2.948
 4098TIP3    H112300   3.026   3.323   2.858
 4098TIP3    H212301   2.943   3.227   2.940
 4099TIP3   OH212302   0.456   2.400   4.063
 4099TIP3    H112303   0.460   2.459   4.138
 4099TIP3    H212304   0.516   2.329   4.084
 4100TIP3   OH212305   1.211   0.717   2.661
 4100TIP3    H112306   1.253   0.659   2.725
 4100TIP3    H212307   1.284   0.757   2.614
 4101TIP3   OH212308   5.132   5.738   1.805
 4101TIP3    H112309   5.137   5.734   1.710
 4101TIP3    H212310   5.128   5.646   1.832
 4102TIP3   OH212311   6.087   0.299   4.952
 4102TIP3    H112312   6.161   0.345   4.914
 4102TIP3    H212313   6.027   0.369   4.979
 4103TIP3   OH212314   6.261   1.287   0.246
 4103TIP3    H112315   6.270   1.275   0.340
 4103TIP3    H212316   6.334   1.346   0.223
 4104TIP3   OH212317   4.423   4.809   1.228
 4104TIP3    H112318   4.406   4.902   1.242
 4104TIP3    H212319   4.425   4.799   1.133
 4105TIP3   OH212320   4.773   3.253   0.545
 4105TIP3    H112321   4.827   3.251   0.466
 4105TIP3    H212322   4.731   3.167   0.547
 4106TIP3   OH212323   3.853   0.212   2.484
 4106TIP3    H112324   3.828   0.256   2.565
 4106TIP3    H212325   3.774   0.166   2.456
 4107TIP3   OH212326   6.134   0.162   5.177
 4107TIP3    H112327   6.204   0.220   5.205
 4107TIP3    H212328   6.103   0.200   5.094
 4108TIP3   OH212329   1.549   0.144   1.064
 4108TIP3    H112330   1.581   0.219   1.014
 4108TIP3    H212331   1.625   0.113   1.113
 4109TIP3   OH212332   3.033   4.825   2.930
 4109TIP3    H112333   2.979   4.781   2.996
 4109TIP3    H212334   2.990   4.909   2.916
 4110TIP3   OH212335   0.785   5.292   3.862
 4110TIP3    H112336   0.734   5.359   3.818
 4110TIP3    H212337   0.720   5.237   3.906
 4111TIP3   OH212338   3.907   3.394   0.112
 4111TIP3    H112339   3.996   3.358   0.105
 4111TIP3    H212340   3.908   3.470   0.053
 4112TIP3   OH212341   3.747   3.661   0.672
 4112TIP3    H112342   3.831   3.634   0.635
 4112TIP3    H212343   3.762   3.663   0.766
 4113TIP3   OH212344   5.823   5.892   0.063
 4113TIP3    H112345   5.861   5.821   0.010
 4113TIP3    H212346   5.762   5.848   0.122
 4114TIP3   OH212347   4.165   0.068   3.362
 4114TIP3    H112348   4.213  -0.004   3.322
 4114TIP3    H212349   4.154   0.132   3.291
 4115TIP3   OH212350   6.077   1.876   4.573
 4115TIP3    H112351   5.993   1.864   4.617
 4115TIP3    H212352   6.139   1.892   4.644
 4116TIP3   OH212353   1.297   5.795   0.103
 4116TIP3    H112354   1.381   5.833   0.131
 4116TIP3    H212355   1.307   5.701   0.118
 4117TIP3   OH212356   2.044   0.869   1.605
 4117TIP3    H112357   2.090   0.857   1.688
 4117TIP3    H212358   1.994   0.788   1.594
 4118TIP3   OH212359   0.456   5.595   2.351
 4118TIP3    H112360   0.370   5.612   2.313
 4118TIP3    H212361   0.492   5.525   2.296
 4119TIP3   OH212362   0.921   5.670   2.058
 4119TIP3    H112363   0.908   5.690   2.150
 4119TIP3    H212364   0.971   5.745   2.024
 4120TIP3   OH212365   0.064   4.175   3.956
 4120TIP3    H112366  -0.018   4.173   3.906
 4120TIP3    H212367   0.049   4.116   4.029
 4121TIP3   OH212368   0.075   5.657   4.899
 4121TIP3    H112369   0.082   5.729   4.962
 4121TIP3    H212370   0.013   5.689   4.833
 4122TIP3   OH212371   0.663   4.877   3.539
 4122TIP3    H112372   0.735   4.873   3.602
 4122TIP3    H212373   0.697   4.833   3.461
 4123TIP3   OH212374   3.347   3.411   3.684
 4123TIP3    H112375   3.358   3.497   3.644
 4123TIP3    H212376   3.375   3.349   3.616
 4124TIP3   OH212377   0.459   4.611   2.458
 4124TIP3    H112378   0.385   4.661   2.422
 4124TIP3    H212379   0.525   4.677   2.477
 4125TIP3   OH212380   4.340   0.809   0.474
 4125TIP3    H112381   4.274   0.849   0.531
 4125TIP3    H212382   4.304   0.817   0.386
 4126TIP3   OH212383   3.406   0.496   0.671
 4126TIP3    H112384   3.320   0.518   0.706
 4126TIP3    H212385   3.463   0.494   0.748
 4127TIP3   OH212386   3.945   0.107   4.312
 4127TIP3    H112387   3.912   0.195   4.334
 4127TIP3    H212388   3.872   0.049   4.332
 4128TIP3   OH212389   3.875   2.766   3.815
 4128TIP3    H112390   3.806   2.773   3.749
 4128TIP3    H212391   3.927   2.846   3.805
 4129TIP3   OH212392   4.149   5.000   0.624
 4129TIP3    H112393   4.153   4.921   0.571
 4129TIP3    H212394   4.139   4.968   0.714
 4130TIP3   OH212395   5.421   2.700   3.542
 4130TIP3    H112396   5.347   2.760   3.547
 4130TIP3    H212397   5.454   2.694   3.632
 4131TIP3   OH212398   6.263   5.060   2.470
 4131TIP3    H112399   6.266   5.155   2.473
 4131TIP3    H212400   6.206   5.035   2.544
 4132TIP3   OH212401   2.906   0.908   0.464
 4132TIP3    H112402   2.936   0.820   0.488
 4132TIP3    H212403   2.967   0.967   0.508
 4133TIP3   OH212404   4.159   3.540   1.860
 4133TIP3    H112405   4.197   3.469   1.912
 4133TIP3    H212406   4.230   3.604   1.851
 4134TIP3   OH212407   3.309   3.045   2.349
 4134TIP3    H112408   3.298   3.132   2.312
 4134TIP3    H212409   3.360   2.997   2.283
 4135TIP3   OH212410   1.011   0.909   5.029
 4135TIP3    H112411   1.032   0.873   5.115
 4135TIP3    H212412   0.979   0.998   5.047
 4136TIP3   OH212413   5.261   2.461   2.642
 4136TIP3    H112414   5.207   2.466   2.563
 4136TIP3    H212415   5.284   2.368   2.650
 4137TIP3   OH212416   3.239   2.042   5.166
 4137TIP3    H112417   3.165   2.074   5.216
 4137TIP3    H212418   3.259   1.957   5.205
 4138TIP3   OH212419   3.669   2.857   2.179
 4138TIP3    H112420   3.676   2.763   2.160
 4138TIP3    H212421   3.575   2.875   2.173
 4139TIP3   OH212422   4.680   0.678   3.148
 4139TIP3    H112423   4.635   0.708   3.069
 4139TIP3    H212424   4.726   0.756   3.180
 4140TIP3   OH212425   1.971   1.196   0.637
 4140TIP3    H112426   1.946   1.222   0.726
 4140TIP3    H212427   2.050   1.143   0.649
 4141TIP3   OH212428   4.684   0.069   2.066
 4141TIP3    H112429   4.727   0.002   2.013
 4141TIP3    H212430   4.693   0.150   2.015
 4142TIP3   OH212431   5.054   1.672   2.857
 4142TIP3    H112432   4.966   1.637   2.839
 4142TIP3    H212433   5.054   1.690   2.951
 4143TIP3   OH212434   3.957   1.252   2.860
 4143TIP3    H112435   3.900   1.305   2.805
 4143TIP3    H212436   3.907   1.238   2.940
 4144TIP3   OH212437   2.931   2.021   0.278
 4144TIP3    H112438   2.918   1.929   0.256
 4144TIP3    H212439   3.019   2.042   0.246
 4145TIP3   OH212440   2.642   5.573   3.642
 4145TIP3    H112441   2.724   5.529   3.619
 4145TIP3    H212442   2.580   5.543   3.576
 4146TIP3   OH212443   0.979   3.388   3.182
 4146TIP3    H112444   1.019   3.304   3.163
 4146TIP3    H212445   1.038   3.453   3.142
 4147TIP3   OH212446   3.445   1.432   0.507
 4147TIP3    H112447   3.411   1.495   0.444
 4147TIP3    H212448   3.531   1.465   0.531
 4148TIP3   OH212449   0.325   0.809   3.718
 4148TIP3    H112450   0.235   0.781   3.733
 4148TIP3    H212451   0.372   0.730   3.692
 4149TIP3   OH212452   6.118   0.631   3.992
 4149TIP3    H112453   6.039   0.651   3.942
 4149TIP3    H212454   6.102   0.545   4.030
 4150TIP3   OH212455   5.907   2.028   1.711
 4150TIP3    H112456   5.855   2.008   1.789
 4150TIP3    H212457   5.978   1.964   1.712
 4151TIP3   OH212458   4.458   3.549   4.507
 4151TIP3    H112459   4.499   3.468   4.537
 4151TIP3    H212460   4.532   3.605   4.482
 4152TIP3   OH212461   5.630   0.508   3.798
 4152TIP3    H112462   5.645   0.596   3.833
 4152TIP3    H212463   5.703   0.456   3.832
 4153TIP3   OH212464   5.585   5.441   2.243
 4153TIP3    H112465   5.599   5.425   2.337
 4153TIP3    H212466   5.632   5.522   2.225
 4154TIP3   OH212467   3.836   0.549   2.228
 4154TIP3    H112468   3.901   0.616   2.249
 4154TIP3    H212469   3.811   0.513   2.313
 4155TIP3   OH212470   0.487   5.653   4.696
 4155TIP3    H112471   0.529   5.659   4.610
 4155TIP3    H212472   0.513   5.733   4.741
 4156TIP3   OH212473   1.084   2.678   2.017
 4156TIP3    H112474   1.050   2.589   2.003
 4156TIP3    H212475   1.148   2.668   2.088
 4157TIP3   OH212476   1.991   1.262   2.730
 4157TIP3    H112477   1.917   1.207   2.756
 4157TIP3    H212478   2.056   1.200   2.697
 4158TIP3   OH212479   2.586   1.309   1.516
 4158TIP3    H112480   2.518   1.374   1.527
 4158TIP3    H212481   2.551   1.247   1.452
 4159TIP3   OH212482   3.737   3.789   2.382
 4159TIP3    H112483   3.729   3.702   2.420
 4159TIP3    H212484   3.784   3.775   2.300
 4160TIP3   OH212485   0.668   3.418   3.039
 4160TIP3    H112486   0.758   3.445   3.020
 4160TIP3    H212487   0.625   3.413   2.953
 4161TIP3   OH212488   1.094   2.801   4.178
 4161TIP3    H112489   1.181   2.832   4.153
 4161TIP3    H212490   1.034   2.859   4.132
 4162TIP3   OH212491   4.418   4.711   4.403
 4162TIP3    H112492   4.357   4.773   4.363
 4162TIP3    H212493   4.481   4.690   4.333
 4163TIP3   OH212494   1.175   2.641   0.309
 4163TIP3    H112495   1.105   2.575   0.304
 4163TIP3    H212496   1.168   2.676   0.398
 4164TIP3   OH212497   0.017   0.333   4.703
 4164TIP3    H112498   0.099   0.298   4.669
 4164TIP3    H212499  -0.047   0.262   4.691
 4165TIP3   OH212500   6.278  -0.004  -0.010
 4165TIP3    H112501   6.245  -0.045   0.070
 4165TIP3    H212502   6.359   0.039   0.016
 4166TIP3   OH212503   6.066   2.984   4.388
 4166TIP3    H112504   6.015   2.931   4.326
 4166TIP3    H212505   6.107   2.919   4.446
 4167TIP3   OH212506   2.936   0.691   4.001
 4167TIP3    H112507   3.031   0.683   3.993
 4167TIP3    H212508   2.923   0.760   4.066
 4168TIP3   OH212509   1.408   5.174   1.975
 4168TIP3    H112510   1.349   5.109   2.013
 4168TIP3    H212511   1.479   5.122   1.936
 4169TIP3   OH212512   2.302   5.233   1.421
 4169TIP3    H112513   2.246   5.291   1.473
 4169TIP3    H212514   2.320   5.160   1.479
 4170TIP3   OH212515   0.504   4.781   5.068
 4170TIP3    H112516   0.423   4.811   5.109
 4170TIP3    H212517   0.539   4.716   5.129
 4171TIP3   OH212518   2.067   5.552   2.384
 4171TIP3    H112519   2.059   5.646   2.368
 4171TIP3    H212520   2.028   5.511   2.307
 4172TIP3   OH212521   5.671   1.550   4.134
 4172TIP3    H112522   5.736   1.603   4.180
 4172TIP3    H212523   5.717   1.519   4.056
 4173TIP3   OH212524   4.954   2.014   3.043
 4173TIP3    H112525   5.042   2.040   3.070
 4173TIP3    H212526   4.935   2.070   2.968
 4174TIP3   OH212527   2.382   2.054   2.164
 4174TIP3    H112528   2.295   2.093   2.173
 4174TIP3    H212529   2.413   2.085   2.079
 4175TIP3   OH212530   0.421   2.296   5.015
 4175TIP3    H112531   0.431   2.384   5.050
 4175TIP3    H212532   0.428   2.307   4.920
 4176TIP3   OH212533   0.142   1.301   3.632
 4176TIP3    H112534   0.084   1.378   3.634
 4176TIP3    H212535   0.226   1.333   3.664
 4177TIP3   OH212536   4.353   4.022   2.058
 4177TIP3    H112537   4.345   4.074   1.978
 4177TIP3    H212538   4.377   4.085   2.125
 4178TIP3   OH212539   1.000   1.422   0.055
 4178TIP3    H112540   1.041   1.342   0.088
 4178TIP3    H212541   0.918   1.430   0.104
 4179TIP3   OH212542   4.499   1.023   0.732
 4179TIP3    H112543   4.415   0.979   0.717
 4179TIP3    H212544   4.499   1.044   0.825
 4180TIP3   OH212545   5.174   2.595   1.304
 4180TIP3    H112546   5.125   2.675   1.288
 4180TIP3    H212547   5.266   2.623   1.308
 4181TIP3   OH212548   4.827   5.624   0.423
 4181TIP3    H112549   4.744   5.587   0.456
 4181TIP3    H212550   4.800   5.702   0.375
 4182TIP3   OH212551   4.269   1.108   0.629
 4182TIP3    H112552   4.175   1.120   0.614
 4182TIP3    H212553   4.305   1.088   0.543
 4183TIP3   OH212554   3.108   2.658   1.360
 4183TIP3    H112555   3.088   2.567   1.338
 4183TIP3    H212556   3.029   2.706   1.335
 4184TIP3   OH212557   3.967   3.177   2.601
 4184TIP3    H112558   4.041   3.186   2.661
 4184TIP3    H212559   3.899   3.134   2.654
 4185TIP3   OH212560   1.218   4.519   1.740
 4185TIP3    H112561   1.218   4.427   1.765
 4185TIP3    H212562   1.146   4.527   1.677
 4186TIP3   OH212563   2.131   4.518   0.880
 4186TIP3    H112564   2.164   4.431   0.858
 4186TIP3    H212565   2.178   4.577   0.822
 4187TIP3   OH212566   1.637   2.405   0.890
 4187TIP3    H112567   1.568   2.343   0.911
 4187TIP3    H212568   1.642   2.462   0.967
 4188TIP3   OH212569   1.887   1.738   0.360
 4188TIP3    H112570   1.831   1.776   0.292
 4188TIP3    H212571   1.939   1.812   0.392
 4189TIP3   OH212572   3.191   1.794   4.831
 4189TIP3    H112573   3.246   1.867   4.861
 4189TIP3    H212574   3.102   1.825   4.845
 4190TIP3   OH212575   1.981   1.948   0.547
 4190TIP3    H112576   1.979   1.904   0.632
 4190TIP3    H212577   2.064   1.996   0.547
 4191TIP3   OH212578   0.270   4.457   1.263
 4191TIP3    H112579   0.306   4.515   1.196
 4191TIP3    H212580   0.346   4.414   1.301
 4192TIP3   OH212581   5.457   5.867   1.084
 4192TIP3    H112582   5.504   5.800   1.034
 4192TIP3    H212583   5.526   5.920   1.124
 4193TIP3   OH212584   3.943   2.387   3.588
 4193TIP3    H112585   3.955   2.375   3.494
 4193TIP3    H212586   3.982   2.309   3.627
 4194TIP3   OH212587   6.045   3.919   0.655
 4194TIP3    H112588   6.071   3.858   0.587
 4194TIP3    H212589   6.009   3.995   0.608
 4195TIP3   OH212590   0.325   0.350   0.821
 4195TIP3    H112591   0.241   0.314   0.849
 4195TIP3    H212592   0.334   0.431   0.870
 4196TIP3   OH212593   3.454   0.751   4.601
 4196TIP3    H112594   3.454   0.802   4.682
 4196TIP3    H212595   3.378   0.693   4.610
 4197TIP3   OH212596   3.067   2.383   1.943
 4197TIP3    H112597   3.150   2.426   1.921
 4197TIP3    H212598   3.053   2.405   2.035
 4198TIP3   OH212599   0.882   3.392   0.229
 4198TIP3    H112600   0.923   3.366   0.147
 4198TIP3    H212601   0.840   3.476   0.211
 4199TIP3   OH212602   3.748   4.961   3.351
 4199TIP3    H112603   3.825   4.924   3.394
 4199TIP3    H212604   3.775   4.970   3.260
 4200TIP3   OH212605   6.058   1.574   0.140
 4200TIP3    H112606   6.095   1.662   0.136
 4200TIP3    H212607   6.029   1.556   0.051
 4201TIP3   OH212608   3.751   5.646   2.188
 4201TIP3    H112609   3.810   5.637   2.263
 4201TIP3    H212610   3.803   5.617   2.113
 4202TIP3   OH212611   3.101   5.775   4.356
 4202TIP3    H112612   3.168   5.785   4.288
 4202TIP3    H212613   3.141   5.812   4.435
 4203TIP3   OH212614   6.019   1.001   4.604
 4203TIP3    H112615   6.043   0.995   4.697
 4203TIP3    H212616   6.033   1.093   4.582
 4204TIP3   OH212617   3.153   0.758   2.115
 4204TIP3    H112618   3.167   0.697   2.187
 4204TIP3    H212619   3.061   0.746   2.091
 4205TIP3   OH212620   2.237   5.756   4.964
 4205TIP3    H112621   2.154   5.796   4.939
 4205TIP3    H212622   2.302   5.825   4.951
 4206TIP3   OH212623   2.300   3.967   1.643
 4206TIP3    H112624   2.316   4.050   1.599
 4206TIP3    H212625   2.331   3.980   1.732
 4207TIP3   OH212626   5.635   0.588   0.305
 4207TIP3    H112627   5.656   0.651   0.374
 4207TIP3    H212628   5.644   0.503   0.347
 4208TIP3   OH212629   2.787   1.517   0.781
 4208TIP3    H112630   2.740   1.438   0.755
 4208TIP3    H212631   2.875   1.505   0.744
 4209TIP3   OH212632   5.636   3.896   3.254
 4209TIP3    H112633   5.543   3.900   3.273
 4209TIP3    H212634   5.642   3.844   3.174
 4210TIP3   OH212635   4.670   0.572   3.390
 4210TIP3    H112636   4.672   0.598   3.297
 4210TIP3    H212637   4.758   0.536   3.406
 4211TIP3   OH212638   1.923   0.103   3.815
 4211TIP3    H112639   1.840   0.081   3.773
 4211TIP3    H212640   1.962   0.019   3.837
 4212TIP3   OH212641   2.624   1.667   2.392
 4212TIP3    H112642   2.566   1.742   2.405
 4212TIP3    H212643   2.666   1.684   2.308
 4213TIP3   OH212644   4.195   4.873   4.667
 4213TIP3    H112645   4.143   4.928   4.609
 4213TIP3    H212646   4.133   4.810   4.704
 4214TIP3   OH212647   1.449   1.630   4.594
 4214TIP3    H112648   1.381   1.651   4.658
 4214TIP3    H212649   1.531   1.636   4.642
 4215TIP3   OH212650   0.858   4.210   4.978
 4215TIP3    H112651   0.851   4.273   4.906
 4215TIP3    H212652   0.952   4.201   4.993
 4216TIP3   OH212653   5.424   4.844   2.413
 4216TIP3    H112654   5.401   4.919   2.467
 4216TIP3    H212655   5.424   4.878   2.323
 4217TIP3   OH212656   3.497   0.433   1.412
 4217TIP3    H112657   3.409   0.419   1.375
 4217TIP3    H212658   3.527   0.345   1.435
 4218TIP3   OH212659   1.736   1.051   0.433
 4218TIP3    H112660   1.776   0.965   0.425
 4218TIP3    H212661   1.791   1.108   0.378
 4219TIP3   OH212662   1.741   1.829   4.561
 4219TIP3    H112663   1.805   1.797   4.625
 4219TIP3    H212664   1.685   1.889   4.611
 4220TIP3   OH212665   5.319   3.437   3.827
 4220TIP3    H112666   5.345   3.346   3.842
 4220TIP3    H212667   5.378   3.467   3.758
 4221TIP3   OH212668   0.869   0.914   2.462
 4221TIP3    H112669   0.807   0.985   2.479
 4221TIP3    H212670   0.948   0.958   2.431
 4222TIP3   OH212671   0.091   0.695   0.892
 4222TIP3    H112672   0.176   0.662   0.923
 4222TIP3    H212673   0.093   0.789   0.913
 4223TIP3   OH212674   0.525   4.027   1.162
 4223TIP3    H112675   0.615   4.002   1.183
 4223TIP3    H212676   0.498   3.966   1.094
 4224TIP3   OH212677   2.054   3.323   3.726
 4224TIP3    H112678   1.993   3.395   3.710
 4224TIP3    H212679   2.089   3.339   3.813
 4225TIP3   OH212680   1.461   4.141   2.828
 4225TIP3    H112681   1.542   4.095   2.849
 4225TIP3    H212682   1.450   4.128   2.734
 4226TIP3   OH212683   0.730   4.897   4.745
 4226TIP3    H112684   0.808   4.861   4.786
 4226TIP3    H212685   0.759   4.981   4.708
 4227TIP3   OH212686   0.128   2.253   3.589
 4227TIP3    H112687   0.138   2.211   3.675
 4227TIP3    H212688   0.218   2.274   3.562
 4228TIP3   OH212689   6.078   3.847   2.671
 4228TIP3    H112690   6.157   3.803   2.701
 4228TIP3    H212691   6.109   3.912   2.608
 4229TIP3   OH212692   5.188   1.084   1.922
 4229TIP3    H112693   5.196   0.990   1.938
 4229TIP3    H212694   5.101   1.107   1.953
 4230TIP3   OH212695   0.036   0.584   4.612
 4230TIP3    H112696   0.033   0.630   4.695
 4230TIP3    H212697   0.027   0.492   4.635
 4231TIP3   OH212698   3.491   1.133   0.557
 4231TIP3    H112699   3.431   1.082   0.503
 4231TIP3    H212700   3.486   1.222   0.522
 4232TIP3   OH212701   3.574   3.425   0.854
 4232TIP3    H112702   3.656   3.475   0.853
 4232TIP3    H212703   3.513   3.482   0.901
 4233TIP3   OH212704   0.703   5.890   3.899
 4233TIP3    H112705   0.784   5.934   3.927
 4233TIP3    H212706   0.634   5.954   3.914
 4234TIP3   OH212707   0.187   5.856   4.156
 4234TIP3    H112708   0.241   5.779   4.140
 4234TIP3    H212709   0.241   5.930   4.129
 4235TIP3   OH212710   5.408   5.921   2.168
 4235TIP3    H112711   5.333   5.874   2.130
 4235TIP3    H212712   5.378   6.012   2.174
 4236TIP3   OH212713   4.388   1.622   1.215
 4236TIP3    H112714   4.346   1.606   1.130
 4236TIP3    H212715   4.334   1.574   1.278
 4237TIP3   OH212716   3.469   2.161   1.652
 4237TIP3    H112717   3.395   2.161   1.592
 4237TIP3    H212718   3.504   2.072   1.647
 4238TIP3   OH212719   4.340   3.030   1.087
 4238TIP3    H112720   4.273   2.964   1.069
 4238TIP3    H212721   4.345   3.033   1.182
 4239TIP3   OH212722   2.575   4.872   3.765
 4239TIP3    H112723   2.555   4.963   3.744
 4239TIP3    H212724   2.543   4.860   3.855
 4240TIP3   OH212725   0.019   5.687   2.973
 4240TIP3    H112726  -0.004   5.746   3.044
 4240TIP3    H212727   0.024   5.601   3.013
 4241TIP3   OH212728   2.021   3.280   1.824
 4241TIP3    H112729   2.095   3.330   1.791
 4241TIP3    H212730   2.000   3.321   1.908
 4242TIP3   OH212731   5.983   1.329   1.012
 4242TIP3    H112732   5.989   1.424   1.023
 4242TIP3    H212733   6.040   1.294   1.081
 4243TIP3   OH212734   6.074   3.407   1.872
 4243TIP3    H112735   6.122   3.386   1.792
 4243TIP3    H212736   5.982   3.393   1.849
 4244TIP3   OH212737   3.393   1.040   4.448
 4244TIP3    H112738   3.426   1.110   4.392
 4244TIP3    H212739   3.447   0.964   4.426
 4245TIP3   OH212740   2.999   1.074   3.607
 4245TIP3    H112741   3.061   1.115   3.668
 4245TIP3    H212742   3.023   0.981   3.607
 4246TIP3   OH212743   1.003   5.478   4.815
 4246TIP3    H112744   0.925   5.469   4.761
 4246TIP3    H212745   1.074   5.443   4.762
 4247TIP3   OH212746   2.876   5.104   4.527
 4247TIP3    H112747   2.933   5.088   4.452
 4247TIP3    H212748   2.808   5.037   4.519
 4248TIP3   OH212749  -0.008   1.218   1.149
 4248TIP3    H112750   0.048   1.186   1.079
 4248TIP3    H212751   0.052   1.262   1.210
 4249TIP3   OH212752   0.352   0.622   1.781
 4249TIP3    H112753   0.279   0.664   1.827
 4249TIP3    H212754   0.396   0.570   1.848
 4250TIP3   OH212755   2.044   5.359   3.145
 4250TIP3    H112756   1.959   5.351   3.188
 4250TIP3    H212757   2.037   5.439   3.093
 4251TIP3   OH212758   2.171   2.741   1.498
 4251TIP3    H112759   2.156   2.708   1.587
 4251TIP3    H212760   2.262   2.718   1.479
 4252TIP3   OH212761   2.498   3.889   2.496
 4252TIP3    H112762   2.590   3.872   2.477
 4252TIP3    H212763   2.486   3.982   2.476
 4253TIP3   OH212764   3.020   5.224   3.299
 4253TIP3    H112765   2.942   5.242   3.247
 4253TIP3    H212766   3.093   5.255   3.245
 4254TIP3   OH212767   1.532   0.164   4.335
 4254TIP3    H112768   1.467   0.230   4.359
 4254TIP3    H212769   1.562   0.191   4.248
 4255TIP3   OH212770  -0.010   1.244   5.012
 4255TIP3    H112771   0.048   1.169   4.995
 4255TIP3    H212772   0.025   1.314   4.957
 4256TIP3   OH212773   5.851   3.807   1.666
 4256TIP3    H112774   5.875   3.846   1.750
 4256TIP3    H212775   5.757   3.790   1.674
 4257TIP3   OH212776   3.096   0.991   2.726
 4257TIP3    H112777   3.190   0.973   2.727
 4257TIP3    H212778   3.078   1.017   2.635
 4258TIP3   OH212779   3.021   4.086   3.771
 4258TIP3    H112780   2.997   4.085   3.678
 4258TIP3    H212781   3.092   4.022   3.778
 4259TIP3   OH212782   4.975   2.861   1.741
 4259TIP3    H112783   5.069   2.879   1.745
 4259TIP3    H212784   4.967   2.770   1.770
 4260TIP3   OH212785   0.167   2.571   3.170
 4260TIP3    H112786   0.102   2.641   3.163
 4260TIP3    H212787   0.130   2.509   3.232
 4261TIP3   OH212788   6.278   3.774   3.691
 4261TIP3    H112789   6.304   3.818   3.772
 4261TIP3    H212790   6.356   3.775   3.636
 4262TIP3   OH212791   0.814   5.535   0.436
 4262TIP3    H112792   0.896   5.571   0.405
 4262TIP3    H212793   0.746   5.579   0.384
 4263TIP3   OH212794   5.013   1.772   3.100
 4263TIP3    H112795   5.016   1.865   3.079
 4263TIP3    H212796   4.973   1.768   3.187
 4264TIP3   OH212797   5.354   4.196   1.590
 4264TIP3    H112798   5.408   4.154   1.523
 4264TIP3    H212799   5.412   4.209   1.664
 4265TIP3   OH212800   6.035   4.079   3.195
 4265TIP3    H112801   6.075   4.010   3.142
 4265TIP3    H212802   6.107   4.117   3.244
 4266TIP3   OH212803   4.921   0.476   3.348
 4266TIP3    H112804   4.960   0.552   3.391
 4266TIP3    H212805   4.978   0.403   3.374
 4267TIP3   OH212806   5.146   5.680   4.283
 4267TIP3    H112807   5.104   5.676   4.370
 4267TIP3    H212808   5.232   5.641   4.296
 4268TIP3   OH212809   4.743   4.722   3.432
 4268TIP3    H112810   4.671   4.682   3.382
 4268TIP3    H212811   4.821   4.703   3.381
 4269TIP3   OH212812   0.929   3.496   2.885
 4269TIP3    H112813   0.982   3.519   2.809
 4269TIP3    H212814   0.925   3.400   2.883
 4270TIP3   OH212815   2.336   2.454   2.117
 4270TIP3    H112816   2.311   2.455   2.024
 4270TIP3    H212817   2.430   2.436   2.116
 4271TIP3   OH212818   1.528   4.913   1.313
 4271TIP3    H112819   1.620   4.889   1.308
 4271TIP3    H212820   1.492   4.858   1.382
 4272TIP3   OH212821   4.626   3.881   1.602
 4272TIP3    H112822   4.647   3.874   1.509
 4272TIP3    H212823   4.537   3.846   1.609
 4273TIP3   OH212824   0.474   5.359   3.191
 4273TIP3    H112825   0.486   5.366   3.285
 4273TIP3    H212826   0.494   5.268   3.170
 4274TIP3   OH212827   1.180   3.878   3.150
 4274TIP3    H112828   1.204   3.937   3.079
 4274TIP3    H212829   1.263   3.854   3.191
 4275TIP3   OH212830   4.365   0.294   2.620
 4275TIP3    H112831   4.460   0.307   2.621
 4275TIP3    H212832   4.332   0.352   2.689
 4276TIP3   OH212833   5.095   0.515   2.648
 4276TIP3    H112834   5.006   0.535   2.679
 4276TIP3    H212835   5.133   0.600   2.626
 4277TIP3   OH212836   0.792   3.102   0.914
 4277TIP3    H112837   0.862   3.136   0.970
 4277TIP3    H212838   0.839   3.052   0.846
 4278TIP3   OH212839   0.663   4.021   2.941
 4278TIP3    H112840   0.622   4.106   2.956
 4278TIP3    H212841   0.692   3.993   3.029
 4279TIP3   OH212842   5.349   4.749   3.792
 4279TIP3    H112843   5.417   4.790   3.846
 4279TIP3    H212844   5.335   4.810   3.720
 4280TIP3   OH212845   4.248   3.032   0.119
 4280TIP3    H112846   4.232   3.126   0.132
 4280TIP3    H212847   4.220   2.991   0.201
 4281TIP3   OH212848   2.937   2.574   4.778
 4281TIP3    H112849   2.936   2.484   4.811
 4281TIP3    H212850   2.961   2.627   4.854
 4282TIP3   OH212851   2.794   3.526   2.654
 4282TIP3    H112852   2.831   3.614   2.650
 4282TIP3    H212853   2.817   3.495   2.742
 4283TIP3   OH212854   5.888   0.755   4.560
 4283TIP3    H112855   5.824   0.798   4.504
 4283TIP3    H212856   5.956   0.822   4.574
 4284TIP3   OH212857   0.599   0.298   1.638
 4284TIP3    H112858   0.626   0.389   1.633
 4284TIP3    H212859   0.513   0.296   1.597
 4285TIP3   OH212860   2.531   3.511   1.368
 4285TIP3    H112861   2.462   3.571   1.394
 4285TIP3    H212862   2.487   3.427   1.357
 4286TIP3   OH212863   0.444   0.090   1.488
 4286TIP3    H112864   0.476   0.000   1.485
 4286TIP3    H212865   0.425   0.112   1.396
 4287TIP3   OH212866   3.982   1.064   0.466
 4287TIP3    H112867   3.927   1.142   0.474
 4287TIP3    H212868   3.957   1.025   0.382
 4288TIP3   OH212869   1.708   3.961   3.856
 4288TIP3    H112870   1.776   3.905   3.817
 4288TIP3    H212871   1.636   3.901   3.874
 4289TIP3   OH212872   4.948   0.148   1.932
 4289TIP3    H112873   4.895   0.079   1.892
 4289TIP3    H212874   4.918   0.229   1.890
 4290TIP3   OH212875   2.741   3.831   2.373
 4290TIP3    H112876   2.748   3.923   2.350
 4290TIP3    H212877   2.801   3.820   2.447
 4291TIP3   OH212878   3.423   1.421   3.010
 4291TIP3    H112879   3.375   1.349   2.968
 4291TIP3    H212880   3.360   1.492   3.014
 4292TIP3   OH212881   5.740   2.147   2.928
 4292TIP3    H112882   5.770   2.235   2.908
 4292TIP3    H212883   5.813   2.090   2.904
 4293TIP3   OH212884   4.547   4.060   3.838
 4293TIP3    H112885   4.559   4.149   3.869
 4293TIP3    H212886   4.574   4.005   3.911
 4294TIP3   OH212887   1.075   2.339   3.834
 4294TIP3    H112888   1.100   2.430   3.852
 4294TIP3    H212889   1.138   2.310   3.768
 4295TIP3   OH212890   0.229   2.268   2.624
 4295TIP3    H112891   0.180   2.267   2.542
 4295TIP3    H212892   0.180   2.328   2.681
 4296TIP3   OH212893   4.347   0.468   2.834
 4296TIP3    H112894   4.265   0.464   2.882
 4296TIP3    H212895   4.365   0.561   2.824
 4297TIP3   OH212896   4.519   4.117   0.435
 4297TIP3    H112897   4.559   4.182   0.376
 4297TIP3    H212898   4.451   4.076   0.382
 4298TIP3   OH212899   1.738   4.969   3.202
 4298TIP3    H112900   1.800   5.042   3.212
 4298TIP3    H212901   1.738   4.950   3.108
 4299TIP3   OH212902   1.051   4.437   4.905
 4299TIP3    H112903   1.065   4.437   4.810
 4299TIP3    H212904   1.116   4.375   4.939
 4300TIP3   OH212905   4.138   4.584   2.111
 4300TIP3    H112906   4.058   4.637   2.103
 4300TIP3    H212907   4.165   4.568   2.020
 4301TIP3   OH212908   3.616   3.106   1.017
 4301TIP3    H112909   3.681   3.116   1.086
 4301TIP3    H212910   3.641   3.169   0.950
 4302TIP3   OH212911   4.933   2.646   2.125
 4302TIP3    H112912   4.971   2.571   2.078
 4302TIP3    H212913   5.003   2.676   2.183
 4303TIP3   OH212914   2.293   4.349   1.698
 4303TIP3    H112915   2.355   4.286   1.733
 4303TIP3    H212916   2.333   4.380   1.617
 4304TIP3   OH212917   5.284   0.872   0.958
 4304TIP3    H112918   5.290   0.858   1.053
 4304TIP3    H212919   5.321   0.960   0.945
 4305TIP3   OH212920   3.982   4.776   1.325
 4305TIP3    H112921   3.925   4.760   1.249
 4305TIP3    H212922   3.942   4.725   1.396
 4306TIP3   OH212923   3.431   2.233   4.951
 4306TIP3    H112924   3.483   2.290   5.008
 4306TIP3    H212925   3.497   2.184   4.901
 4307TIP3   OH212926   1.601   0.650   2.666
 4307TIP3    H112927   1.538   0.710   2.626
 4307TIP3    H212928   1.611   0.683   2.756
 4308TIP3   OH212929   3.395   5.929   2.540
 4308TIP3    H112930   3.305   5.927   2.573
 4308TIP3    H212931   3.393   5.993   2.469
 4309TIP3   OH212932   0.710   3.100   2.071
 4309TIP3    H112933   0.775   3.029   2.070
 4309TIP3    H212934   0.702   3.126   1.980
 4310TIP3   OH212935   0.706   5.465   2.037
 4310TIP3    H112936   0.654   5.501   1.965
 4310TIP3    H212937   0.789   5.512   2.033
 4311TIP3   OH212938   0.839   3.451   0.879
 4311TIP3    H112939   0.783   3.398   0.822
 4311TIP3    H212940   0.849   3.534   0.833
 4312TIP3   OH212941   0.917   2.382   1.320
 4312TIP3    H112942   0.890   2.372   1.411
 4312TIP3    H212943   0.965   2.301   1.300
 4313TIP3   OH212944   6.150   2.616   3.128
 4313TIP3    H112945   6.168   2.681   3.060
 4313TIP3    H212946   6.101   2.664   3.194
 4314TIP3   OH212947   3.564   1.622   1.221
 4314TIP3    H112948   3.577   1.683   1.293
 4314TIP3    H212949   3.651   1.605   1.187
 4315TIP3   OH212950   3.930   3.191   3.212
 4315TIP3    H112951   4.012   3.195   3.262
 4315TIP3    H212952   3.863   3.169   3.276
 4316TIP3   OH212953   1.142   5.607   3.279
 4316TIP3    H112954   1.131   5.513   3.289
 4316TIP3    H212955   1.082   5.645   3.344
 4317TIP3   OH212956   5.589   4.608   4.503
 4317TIP3    H112957   5.615   4.700   4.505
 4317TIP3    H212958   5.495   4.610   4.486
 4318TIP3   OH212959   0.375   1.644   5.023
 4318TIP3    H112960   0.346   1.731   4.997
 4318TIP3    H212961   0.313   1.618   5.092
 4319TIP3   OH212962   3.626   5.186   0.915
 4319TIP3    H112963   3.678   5.255   0.873
 4319TIP3    H212964   3.587   5.138   0.842
 4320TIP3   OH212965   3.281   3.740   4.012
 4320TIP3    H112966   3.250   3.663   4.059
 4320TIP3    H212967   3.329   3.791   4.077
 4321TIP3   OH212968   2.491   2.957   0.575
 4321TIP3    H112969   2.453   2.926   0.657
 4321TIP3    H212970   2.585   2.946   0.586
 4322TIP3   OH212971   2.570   5.499   0.401
 4322TIP3    H112972   2.618   5.578   0.426
 4322TIP3    H212973   2.634   5.447   0.352
 4323TIP3   OH212974   1.604   3.766   0.824
 4323TIP3    H112975   1.674   3.800   0.880
 4323TIP3    H212976   1.523   3.782   0.873
 4324TIP3   OH212977   5.096   0.607   0.226
 4324TIP3    H112978   5.128   0.518   0.212
 4324TIP3    H212979   5.164   0.648   0.280
 4325TIP3   OH212980   0.621   0.300   0.925
 4325TIP3    H112981   0.564   0.230   0.956
 4325TIP3    H212982   0.710   0.266   0.935
 4326TIP3   OH212983   2.151   0.248   1.645
 4326TIP3    H112984   2.236   0.227   1.682
 4326TIP3    H212985   2.133   0.338   1.674
 4327TIP3   OH212986   3.029   0.905   0.847
 4327TIP3    H112987   2.992   0.936   0.930
 4327TIP3    H212988   2.974   0.831   0.823
 4328TIP3   OH212989   0.791   0.077   2.865
 4328TIP3    H112990   0.825  -0.011   2.883
 4328TIP3    H212991   0.834   0.103   2.784
 4329TIP3   OH212992   2.609   4.817   2.012
 4329TIP3    H112993   2.675   4.749   2.030
 4329TIP3    H212994   2.648   4.897   2.048
 4330TIP3   OH212995   2.182   4.688   1.929
 4330TIP3    H112996   2.096   4.646   1.921
 4330TIP3    H212997   2.161   4.779   1.952
 4331TIP3   OH212998   0.223   1.372   2.090
 4331TIP3    H112999   0.151   1.342   2.035
 4331TIP3    H213000   0.295   1.388   2.028
 4332TIP3   OH213001   4.815   5.828   1.448
 4332TIP3    H113002   4.872   5.882   1.502
 4332TIP3    H213003   4.850   5.836   1.359
 4333TIP3   OH213004   0.847   5.115   1.055
 4333TIP3    H113005   0.793   5.194   1.058
 4333TIP3    H213006   0.795   5.053   1.004
 4334TIP3   OH213007   3.444   1.748   3.513
 4334TIP3    H113008   3.456   1.654   3.510
 4334TIP3    H213009   3.392   1.769   3.436
 4335TIP3   OH213010   0.766   4.380   4.407
 4335TIP3    H113011   0.835   4.395   4.342
 4335TIP3    H213012   0.728   4.295   4.382
 4336TIP3   OH213013   6.333   1.812   1.134
 4336TIP3    H113014   6.329   1.820   1.038
 4336TIP3    H213015   6.286   1.888   1.166
 4337TIP3   OH213016   0.385   3.009   3.852
 4337TIP3    H113017   0.323   2.952   3.807
 4337TIP3    H213018   0.357   3.006   3.944
 4338TIP3   OH213019   5.633   5.831   1.996
 4338TIP3    H113020   5.686   5.796   2.067
 4338TIP3    H213021   5.544   5.836   2.032
 4339TIP3   OH213022   2.254   4.684   3.390
 4339TIP3    H113023   2.284   4.701   3.479
 4339TIP3    H213024   2.234   4.770   3.354
 4340TIP3   OH213025   4.543   5.550   1.166
 4340TIP3    H113026   4.516   5.638   1.192
 4340TIP3    H213027   4.633   5.561   1.135
 4341TIP3   OH213028   5.898   5.917   2.789
 4341TIP3    H113029   5.865   5.952   2.706
 4341TIP3    H213030   5.964   5.980   2.817
 4342TIP3   OH213031   5.648   0.244   0.879
 4342TIP3    H113032   5.692   0.159   0.879
 4342TIP3    H213033   5.653   0.273   0.970
 4343TIP3   OH213034   1.535   3.283   4.457
 4343TIP3    H113035   1.497   3.215   4.513
 4343TIP3    H213036   1.608   3.318   4.508
 4344TIP3   OH213037   4.340   1.332   2.309
 4344TIP3    H113038   4.293   1.414   2.316
 4344TIP3    H213039   4.304   1.277   2.379
 4345TIP3   OH213040   1.007   2.809   2.468
 4345TIP3    H113041   1.003   2.863   2.547
 4345TIP3    H213042   1.097   2.778   2.464
 4346TIP3   OH213043   4.267   4.294   5.045
 4346TIP3    H113044   4.322   4.247   5.107
 4346TIP3    H213045   4.324   4.314   4.971
 4347TIP3   OH213046   1.057   2.830   0.487
 4347TIP3    H113047   0.971   2.851   0.452
 4347TIP3    H213048   1.115   2.895   0.448
 4348TIP3   OH213049   1.794   0.356   1.514
 4348TIP3    H113050   1.835   0.435   1.550
 4348TIP3    H213051   1.737   0.388   1.444
 4349TIP3   OH213052   0.099   2.538   0.462
 4349TIP3    H113053   0.112   2.443   0.461
 4349TIP3    H213054   0.012   2.551   0.425
 4350TIP3   OH213055   5.648   2.671   0.774
 4350TIP3    H113056   5.690   2.730   0.836
 4350TIP3    H213057   5.676   2.704   0.688
 4351TIP3   OH213058   5.594   0.541   4.318
 4351TIP3    H113059   5.533   0.470   4.338
 4351TIP3    H213060   5.662   0.535   4.386
 4352TIP3   OH213061   1.262   3.006   1.972
 4352TIP3    H113062   1.297   2.959   1.896
 4352TIP3    H213063   1.238   2.937   2.034
 4353TIP3   OH213064   5.657   4.394   3.526
 4353TIP3    H113065   5.562   4.394   3.541
 4353TIP3    H213066   5.694   4.360   3.607
 4354TIP3   OH213067   1.851   4.447   1.034
 4354TIP3    H113068   1.916   4.475   1.098
 4354TIP3    H213069   1.881   4.484   0.951
 4355TIP3   OH213070   3.720   3.366   3.854
 4355TIP3    H113071   3.711   3.357   3.759
 4355TIP3    H213072   3.806   3.331   3.874
 4356TIP3   OH213073   5.492   4.027   2.272
 4356TIP3    H113074   5.511   3.942   2.311
 4356TIP3    H213075   5.535   4.090   2.329
 4357TIP3   OH213076   3.798   4.226   0.867
 4357TIP3    H113077   3.815   4.256   0.956
 4357TIP3    H213078   3.726   4.281   0.836
 4358TIP3   OH213079   2.234   1.385   3.477
 4358TIP3    H113080   2.186   1.362   3.557
 4358TIP3    H213081   2.232   1.480   3.475
 4359TIP3   OH213082   4.619   2.148   4.210
 4359TIP3    H113083   4.585   2.064   4.179
 4359TIP3    H213084   4.564   2.170   4.285
 4360TIP3   OH213085   2.888   0.485   4.567
 4360TIP3    H113086   2.863   0.525   4.484
 4360TIP3    H213087   2.859   0.547   4.634
 4361TIP3   OH213088   3.137   4.495   2.358
 4361TIP3    H113089   3.189   4.573   2.378
 4361TIP3    H213090   3.173   4.463   2.275
 4362TIP3   OH213091   1.589   1.028   4.246
 4362TIP3    H113092   1.674   0.984   4.253
 4362TIP3    H213093   1.607   1.118   4.273
 4363TIP3   OH213094   5.568   0.308   0.029
 4363TIP3    H113095   5.640   0.305   0.093
 4363TIP3    H213096   5.513   0.232   0.051
 4364TIP3   OH213097   5.620   4.335   0.081
 4364TIP3    H113098   5.598   4.243   0.100
 4364TIP3    H213099   5.574   4.385   0.149
 4365TIP3   OH213100   4.145   3.926   2.479
 4365TIP3    H113101   4.078   3.995   2.477
 4365TIP3    H213102   4.143   3.888   2.392
 4366TIP3   OH213103   6.158   1.042   1.006
 4366TIP3    H113104   6.071   1.068   1.037
 4366TIP3    H213105   6.219   1.099   1.053
 4367TIP3   OH213106   3.102   5.129   2.919
 4367TIP3    H113107   3.034   5.185   2.956
 4367TIP3    H213108   3.145   5.091   2.995
 4368TIP3   OH213109   1.269   5.813   0.472
 4368TIP3    H113110   1.220   5.893   0.486
 4368TIP3    H213111   1.204   5.749   0.444
 4369TIP3   OH213112   5.613   2.998   3.906
 4369TIP3    H113113   5.592   3.046   3.826
 4369TIP3    H213114   5.599   2.906   3.883
 4370TIP3   OH213115   5.209   0.213   0.427
 4370TIP3    H113116   5.191   0.158   0.351
 4370TIP3    H213117   5.279   0.271   0.398
 4371TIP3   OH213118   0.553   2.525   0.152
 4371TIP3    H113119   0.478   2.584   0.147
 4371TIP3    H213120   0.543   2.481   0.237
 4372TIP3   OH213121   3.881   4.631   1.107
 4372TIP3    H113122   3.933   4.573   1.162
 4372TIP3    H213123   3.896   4.600   1.018
 4373TIP3   OH213124   4.783   5.558   3.243
 4373TIP3    H113125   4.850   5.598   3.298
 4373TIP3    H213126   4.828   5.542   3.160
 4374TIP3   OH213127   3.649   2.088   4.876
 4374TIP3    H113128   3.653   2.085   4.780
 4374TIP3    H213129   3.722   2.033   4.905
 4375TIP3   OH213130   5.152   2.275   1.123
 4375TIP3    H113131   5.226   2.222   1.152
 4375TIP3    H213132   5.178   2.308   1.037
 4376TIP3   OH213133   4.593   1.335   3.887
 4376TIP3    H113134   4.665   1.297   3.836
 4376TIP3    H213135   4.628   1.340   3.976
 4377TIP3   OH213136   2.668   3.761   3.177
 4377TIP3    H113137   2.648   3.693   3.242
 4377TIP3    H213138   2.604   3.830   3.194
 4378TIP3   OH213139   4.787   1.783   5.005
 4378TIP3    H113140   4.818   1.809   4.918
 4378TIP3    H213141   4.831   1.842   5.066
 4379TIP3   OH213142   1.889   3.779   3.789
 4379TIP3    H113143   1.982   3.777   3.766
 4379TIP3    H213144   1.879   3.709   3.852
 4380TIP3   OH213145   1.211   3.271   3.565
 4380TIP3    H113146   1.264   3.325   3.505
 4380TIP3    H213147   1.266   3.260   3.642
 4381TIP3   OH213148   1.474   4.674   0.701
 4381TIP3    H113149   1.567   4.684   0.677
 4381TIP3    H213150   1.474   4.673   0.797
 4382TIP3   OH213151   0.113   5.525   2.508
 4382TIP3    H113152   0.087   5.611   2.542
 4382TIP3    H213153   0.168   5.488   2.578
 4383TIP3   OH213154   5.668   2.285   0.872
 4383TIP3    H113155   5.648   2.244   0.956
 4383TIP3    H213156   5.605   2.357   0.866
 4384TIP3   OH213157   0.807   3.842   1.792
 4384TIP3    H113158   0.757   3.765   1.766
 4384TIP3    H213159   0.742   3.911   1.802
 4385TIP3   OH213160   3.497   4.525   3.442
 4385TIP3    H113161   3.415   4.505   3.397
 4385TIP3    H213162   3.565   4.493   3.383
 4386TIP3   OH213163   4.881   5.863   1.173
 4386TIP3    H113164   4.881   5.922   1.098
 4386TIP3    H213165   4.934   5.788   1.145
 4387TIP3   OH213166   2.022   4.648   2.541
 4387TIP3    H113167   1.936   4.640   2.500
 4387TIP3    H213168   2.066   4.717   2.492
 4388TIP3   OH213169   0.751   3.868   1.216
 4388TIP3    H113170   0.772   3.889   1.125
 4388TIP3    H213171   0.804   3.791   1.236
 4389TIP3   OH213172   2.550   4.448   2.311
 4389TIP3    H113173   2.625   4.465   2.254
 4389TIP3    H213174   2.474   4.464   2.255
 4390TIP3   OH213175   4.658   4.526   3.894
 4390TIP3    H113176   4.703   4.502   3.813
 4390TIP3    H213177   4.631   4.443   3.933
 4391TIP3   OH213178   2.287   2.192   0.940
 4391TIP3    H113179   2.363   2.177   0.996
 4391TIP3    H213180   2.294   2.284   0.913
 4392TIP3   OH213181   0.165   4.465   3.210
 4392TIP3    H113182   0.185   4.443   3.300
 4392TIP3    H213183   0.127   4.385   3.173
 4393TIP3   OH213184   0.462   5.260   2.609
 4393TIP3    H113185   0.446   5.177   2.654
 4393TIP3    H213186   0.389   5.268   2.546
 4394TIP3   OH213187   4.543   3.307   3.438
 4394TIP3    H113188   4.536   3.215   3.461
 4394TIP3    H213189   4.476   3.350   3.492
 4395TIP3   OH213190   4.489   2.456   1.952
 4395TIP3    H113191   4.466   2.519   2.020
 4395TIP3    H213192   4.518   2.509   1.878
 4396TIP3   OH213193   1.256   4.017   2.928
 4396TIP3    H113194   1.246   3.971   2.844
 4396TIP3    H213195   1.330   4.075   2.914
 4397TIP3   OH213196   4.643   0.231   0.855
 4397TIP3    H113197   4.655   0.323   0.831
 4397TIP3    H213198   4.634   0.185   0.772
 4398TIP3   OH213199   3.840   3.204   2.366
 4398TIP3    H113200   3.885   3.180   2.447
 4398TIP3    H213201   3.888   3.157   2.297
 4399TIP3   OH213202   3.535   3.160   4.369
 4399TIP3    H113203   3.593   3.089   4.396
 4399TIP3    H213204   3.498   3.130   4.287
 4400TIP3   OH213205   1.963   5.818   0.568
 4400TIP3    H113206   1.924   5.783   0.647
 4400TIP3    H213207   1.914   5.899   0.551
 4401TIP3   OH213208   2.840   4.386   3.091
 4401TIP3    H113209   2.764   4.334   3.064
 4401TIP3    H213210   2.915   4.328   3.077
 4402TIP3   OH213211   2.830   0.792   0.082
 4402TIP3    H113212   2.791   0.709   0.109
 4402TIP3    H213213   2.916   0.769   0.047
 4403TIP3   OH213214   2.979   2.920   0.448
 4403TIP3    H113215   3.018   2.838   0.419
 4403TIP3    H213216   3.050   2.965   0.495
 4404TIP3   OH213217   2.390   3.371   0.828
 4404TIP3    H113218   2.309   3.325   0.852
 4404TIP3    H213219   2.373   3.463   0.849
 4405TIP3   OH213220   1.381   3.765   3.449
 4405TIP3    H113221   1.417   3.739   3.364
 4405TIP3    H213222   1.294   3.726   3.451
 4406TIP3   OH213223   4.632   5.074   4.725
 4406TIP3    H113224   4.552   5.023   4.741
 4406TIP3    H213225   4.703   5.014   4.746
 4407TIP3   OH213226   6.161   0.343   1.788
 4407TIP3    H113227   6.067   0.336   1.805
 4407TIP3    H213228   6.178   0.437   1.783
 4408TIP3   OH213229   0.818   0.167   1.246
 4408TIP3    H113230   0.900   0.138   1.285
 4408TIP3    H213231   0.752   0.108   1.282
 4409TIP3   OH213232   4.405   0.288   5.093
 4409TIP3    H113233   4.367   0.368   5.130
 4409TIP3    H213234   4.330   0.241   5.055
 4410TIP3   OH213235   2.374   4.417   2.852
 4410TIP3    H113236   2.335   4.448   2.771
 4410TIP3    H213237   2.468   4.428   2.839
 4411TIP3   OH213238   3.863   3.303   4.397
 4411TIP3    H113239   3.867   3.241   4.325
 4411TIP3    H213240   3.883   3.388   4.357
 4412TIP3   OH213241   3.618   3.165   2.924
 4412TIP3    H113242   3.529   3.147   2.952
 4412TIP3    H213243   3.664   3.191   3.004
 4413TIP3   OH213244   4.833   2.906   4.655
 4413TIP3    H113245   4.806   2.996   4.636
 4413TIP3    H213246   4.820   2.896   4.749
 4414TIP3   OH213247   4.027   5.805   1.675
 4414TIP3    H113248   4.027   5.851   1.592
 4414TIP3    H213249   4.057   5.869   1.739
 4415TIP3   OH213250   5.575   2.550   0.146
 4415TIP3    H113251   5.495   2.507   0.179
 4415TIP3    H213252   5.641   2.481   0.146
 4416TIP3   OH213253   5.752   4.681   1.561
 4416TIP3    H113254   5.657   4.682   1.555
 4416TIP3    H213255   5.775   4.762   1.607
 4417TIP3   OH213256   3.745   1.414   4.197
 4417TIP3    H113257   3.761   1.403   4.103
 4417TIP3    H213258   3.778   1.502   4.216
 4418TIP3   OH213259   2.249   2.935   4.335
 4418TIP3    H113260   2.198   3.015   4.320
 4418TIP3    H213261   2.287   2.915   4.249
 4419TIP3   OH213262   3.231   4.327   0.038
 4419TIP3    H113263   3.246   4.239   0.073
 4419TIP3    H213264   3.318   4.366   0.032
 4420TIP3   OH213265   2.039   3.672   3.181
 4420TIP3    H113266   2.126   3.711   3.183
 4420TIP3    H213267   2.043   3.603   3.247
 4421TIP3   OH213268   5.132   5.400   4.682
 4421TIP3    H113269   5.192   5.340   4.726
 4421TIP3    H213270   5.131   5.372   4.591
 4422TIP3   OH213271   4.236   4.820   1.459
 4422TIP3    H113272   4.145   4.809   1.433
 4422TIP3    H213273   4.274   4.878   1.393
 4423TIP3   OH213274   3.017   4.134   4.867
 4423TIP3    H113275   3.000   4.163   4.777
 4423TIP3    H213276   2.989   4.043   4.869
 4424TIP3   OH213277   6.168   2.323   2.595
 4424TIP3    H113278   6.152   2.316   2.689
 4424TIP3    H213279   6.085   2.354   2.559
 4425TIP3   OH213280   4.621   5.116   2.612
 4425TIP3    H113281   4.680   5.138   2.684
 4425TIP3    H213282   4.535   5.108   2.654
 4426TIP3   OH213283   5.584   1.267   0.258
 4426TIP3    H113284   5.664   1.221   0.282
 4426TIP3    H213285   5.515   1.201   0.266
 4427TIP3   OH213286   6.207   4.592   5.147
 4427TIP3    H113287   6.303   4.601   5.145
 4427TIP3    H213288   6.188   4.528   5.079
 4428TIP3   OH213289   3.555   2.719   0.704
 4428TIP3    H113290   3.650   2.707   0.712
 4428TIP3    H213291   3.538   2.717   0.609
 4429TIP3   OH213292   5.394   2.038   0.508
 4429TIP3    H113293   5.339   1.987   0.448
 4429TIP3    H213294   5.363   2.129   0.497
 4430TIP3   OH213295   2.072   0.083   3.514
 4430TIP3    H113296   2.109   0.021   3.451
 4430TIP3    H213297   1.987   0.046   3.537
 4431TIP3   OH213298   4.630   1.396   4.810
 4431TIP3    H113299   4.635   1.311   4.852
 4431TIP3    H213300   4.603   1.377   4.720
 4432TIP3   OH213301   3.993   1.122   3.227
 4432TIP3    H113302   3.921   1.137   3.289
 4432TIP3    H213303   3.968   1.041   3.182
 4433TIP3   OH213304   4.925   2.185   4.139
 4433TIP3    H113305   4.866   2.140   4.199
 4433TIP3    H213306   4.909   2.144   4.054
 4434TIP3   OH213307   1.426   5.042   0.106
 4434TIP3    H113308   1.396   4.957   0.071
 4434TIP3    H213309   1.521   5.030   0.117
 4435TIP3   OH213310   0.858   4.819   0.407
 4435TIP3    H113311   0.939   4.865   0.428
 4435TIP3    H213312   0.790   4.866   0.456
 4436TIP3   OH213313   6.144   2.069   4.399
 4436TIP3    H113314   6.102   2.004   4.455
 4436TIP3    H213315   6.223   2.025   4.367
 4437TIP3   OH213316   0.603   0.379   4.805
 4437TIP3    H113317   0.548   0.313   4.762
 4437TIP3    H213318   0.587   0.459   4.755
 4438TIP3   OH213319   1.685   3.628   0.217
 4438TIP3    H113320   1.664   3.614   0.125
 4438TIP3    H213321   1.743   3.704   0.218
 4439TIP3   OH213322   4.146   3.337   0.378
 4439TIP3    H113323   4.224   3.346   0.433
 4439TIP3    H213324   4.121   3.245   0.386
 4440TIP3   OH213325   0.222   0.046   3.877
 4440TIP3    H113326   0.162   0.011   3.811
 4440TIP3    H213327   0.309   0.029   3.841
 4441TIP3   OH213328   5.792   3.784   0.701
 4441TIP3    H113329   5.863   3.739   0.747
 4441TIP3    H213330   5.805   3.877   0.722
 4442TIP3   OH213331   0.377   3.754   3.384
 4442TIP3    H113332   0.384   3.827   3.322
 4442TIP3    H213333   0.416   3.680   3.338
 4443TIP3   OH213334   2.845   4.039   1.915
 4443TIP3    H113335   2.897   3.971   1.959
 4443TIP3    H213336   2.800   3.993   1.845
 4444TIP3   OH213337   2.534   1.595   1.808
 4444TIP3    H113338   2.512   1.630   1.721
 4444TIP3    H213339   2.626   1.568   1.801
 4445TIP3   OH213340   4.931   2.517   4.059
 4445TIP3    H113341   4.849   2.550   4.024
 4445TIP3    H213342   4.932   2.425   4.035
 4446TIP3   OH213343   3.055   3.906   1.233
 4446TIP3    H113344   3.067   3.974   1.299
 4446TIP3    H213345   3.144   3.875   1.214
 4447TIP3   OH213346   1.901   3.524   0.011
 4447TIP3    H113347   1.826   3.475  -0.021
 4447TIP3    H213348   1.938   3.470   0.080
 4448TIP3   OH213349   4.711   4.297   0.334
 4448TIP3    H113350   4.725   4.354   0.258
 4448TIP3    H213351   4.762   4.337   0.404
 4449TIP3   OH213352   2.701   0.314   3.518
 4449TIP3    H113353   2.726   0.265   3.597
 4449TIP3    H213354   2.619   0.356   3.541
 4450TIP3   OH213355   4.550   3.201   1.504
 4450TIP3    H113356   4.600   3.256   1.444
 4450TIP3    H213357   4.611   3.132   1.531
 4451TIP3   OH213358   3.349   0.124   0.526
 4451TIP3    H113359   3.327   0.116   0.619
 4451TIP3    H213360   3.334   0.216   0.505
 4452TIP3   OH213361   3.644   4.670   2.050
 4452TIP3    H113362   3.599   4.707   2.126
 4452TIP3    H213363   3.737   4.669   2.075
 4453TIP3   OH213364   0.419   5.262   0.501
 4453TIP3    H113365   0.456   5.265   0.589
 4453TIP3    H213366   0.331   5.227   0.514
 4454TIP3   OH213367   0.875   2.338   1.588
 4454TIP3    H113368   0.870   2.423   1.631
 4454TIP3    H213369   0.784   2.314   1.572
 4455TIP3   OH213370   6.123   4.273   2.702
 4455TIP3    H113371   6.135   4.359   2.662
 4455TIP3    H213372   6.067   4.290   2.778
 4456TIP3   OH213373   3.133   4.479   3.655
 4456TIP3    H113374   3.116   4.426   3.577
 4456TIP3    H213375   3.186   4.422   3.711
 4457TIP3   OH213376   3.583   2.597   1.952
 4457TIP3    H113377   3.620   2.595   2.040
 4457TIP3    H213378   3.494   2.629   1.963
 4458TIP3   OH213379   3.671   1.931   2.332
 4458TIP3    H113380   3.634   1.860   2.280
 4458TIP3    H213381   3.622   1.930   2.414
 4459TIP3   OH213382   4.094   0.227   2.668
 4459TIP3    H113383   4.032   0.300   2.666
 4459TIP3    H213384   4.180   0.269   2.660
 4460TIP3   OH213385   3.695   1.640   0.002
 4460TIP3    H113386   3.657   1.622   0.088
 4460TIP3    H213387   3.620   1.661  -0.054
 4461TIP3   OH213388   0.057   5.588   4.507
 4461TIP3    H113389  -0.021   5.538   4.531
 4461TIP3    H213390   0.127   5.522   4.502
 4462TIP3   OH213391   3.052   5.227   4.806
 4462TIP3    H113392   3.005   5.274   4.875
 4462TIP3    H213393   3.043   5.282   4.728
 4463TIP3   OH213394   5.934   6.019   3.670
 4463TIP3    H113395   5.954   5.960   3.597
 4463TIP3    H213396   5.848   5.990   3.702
 4464TIP3   OH213397   5.445   3.513   0.128
 4464TIP3    H113398   5.425   3.515   0.035
 4464TIP3    H213399   5.453   3.420   0.149
 4465TIP3   OH213400   5.994   2.967   2.293
 4465TIP3    H113401   5.981   3.062   2.295
 4465TIP3    H213402   6.044   2.948   2.372
 4466TIP3   OH213403   3.972   2.154   1.089
 4466TIP3    H113404   3.891   2.132   1.043
 4466TIP3    H213405   3.957   2.126   1.179
 4467TIP3   OH213406   3.258   3.503   1.809
 4467TIP3    H113407   3.213   3.433   1.762
 4467TIP3    H213408   3.199   3.526   1.879
 4468TIP3   OH213409   4.659   4.284   1.463
 4468TIP3    H113410   4.581   4.314   1.509
 4468TIP3    H213411   4.626   4.248   1.381
 4469TIP3   OH213412   2.941   0.041   1.796
 4469TIP3    H113413   2.935   0.120   1.742
 4469TIP3    H213414   3.020   0.053   1.847
 4470TIP3   OH213415   2.092   4.315   4.846
 4470TIP3    H113416   2.022   4.364   4.803
 4470TIP3    H213417   2.139   4.380   4.898
 4471TIP3   OH213418   4.839   1.028   0.053
 4471TIP3    H113419   4.857   1.103  -0.005
 4471TIP3    H213420   4.757   1.051   0.096
 4472TIP3   OH213421   2.077   5.155   2.773
 4472TIP3    H113422   1.984   5.147   2.751
 4472TIP3    H213423   2.103   5.239   2.737
 4473TIP3   OH213424   3.283   5.658   1.930
 4473TIP3    H113425   3.308   5.605   1.854
 4473TIP3    H213426   3.195   5.628   1.952
 4474TIP3   OH213427   4.870   3.299   0.791
 4474TIP3    H113428   4.845   3.310   0.700
 4474TIP3    H213429   4.941   3.235   0.789
 4475TIP3   OH213430   1.572   2.521   0.396
 4475TIP3    H113431   1.658   2.520   0.439
 4475TIP3    H213432   1.545   2.430   0.395
 4476TIP3   OH213433   2.300   2.494   4.472
 4476TIP3    H113434   2.381   2.500   4.421
 4476TIP3    H213435   2.232   2.522   4.411
 4477TIP3   OH213436   0.488   0.597   3.347
 4477TIP3    H113437   0.413   0.607   3.289
 4477TIP3    H213438   0.539   0.677   3.334
 4478TIP3   OH213439   2.693   1.123   2.543
 4478TIP3    H113440   2.660   1.198   2.593
 4478TIP3    H213441   2.688   1.049   2.605
 4479TIP3   OH213442   3.672   4.912   1.828
 4479TIP3    H113443   3.598   4.863   1.791
 4479TIP3    H213444   3.715   4.850   1.887
 4480TIP3   OH213445   4.518   1.981   2.702
 4480TIP3    H113446   4.472   1.977   2.619
 4480TIP3    H213447   4.600   1.933   2.687
 4481TIP3   OH213448   0.101   5.275   3.337
 4481TIP3    H113449   0.066   5.295   3.250
 4481TIP3    H213450   0.152   5.352   3.360
 4482TIP3   OH213451   1.807   1.088   2.826
 4482TIP3    H113452   1.811   1.009   2.772
 4482TIP3    H213453   1.860   1.067   2.903
 4483TIP3   OH213454   1.543   0.638   2.362
 4483TIP3    H113455   1.539   0.682   2.277
 4483TIP3    H213456   1.502   0.700   2.423
 4484TIP3   OH213457   5.623   5.792   4.078
 4484TIP3    H113458   5.619   5.742   4.159
 4484TIP3    H213459   5.564   5.866   4.092
 4485TIP3   OH213460   2.695   2.329   3.358
 4485TIP3    H113461   2.612   2.287   3.335
 4485TIP3    H213462   2.693   2.336   3.453
 4486TIP3   OH213463   4.975   2.106   0.996
 4486TIP3    H113464   4.940   2.171   0.935
 4486TIP3    H213465   5.026   2.157   1.059
 4487TIP3   OH213466   3.778   2.469   3.998
 4487TIP3    H113467   3.859   2.517   3.978
 4487TIP3    H213468   3.790   2.384   3.956
 4488TIP3   OH213469   5.114   5.097   3.946
 4488TIP3    H113470   5.110   5.182   3.901
 4488TIP3    H213471   5.028   5.089   3.989
 4489TIP3   OH213472   3.177   2.193   2.131
 4489TIP3    H113473   3.241   2.236   2.074
 4489TIP3    H213474   3.097   2.246   2.122
 4490TIP3   OH213475   2.286   5.149   3.028
 4490TIP3    H113476   2.296   5.110   2.941
 4490TIP3    H213477   2.209   5.204   3.021
 4491TIP3   OH213478   3.953   3.613   5.029
 4491TIP3    H113479   3.890   3.566   5.083
 4491TIP3    H213480   3.943   3.577   4.941
 4492TIP3   OH213481   0.306   3.095   2.201
 4492TIP3    H113482   0.387   3.050   2.176
 4492TIP3    H213483   0.243   3.024   2.217
 4493TIP3   OH213484   2.615   4.432   2.722
 4493TIP3    H113485   2.613   4.490   2.645
 4493TIP3    H213486   2.697   4.453   2.766
 4494TIP3   OH213487   1.218   4.244   1.822
 4494TIP3    H113488   1.151   4.177   1.833
 4494TIP3    H213489   1.270   4.239   1.903
 4495TIP3   OH213490   0.440   2.241   0.257
 4495TIP3    H113491   0.535   2.234   0.268
 4495TIP3    H213492   0.404   2.174   0.315
 4496TIP3   OH213493   0.419   3.664   2.268
 4496TIP3    H113494   0.399   3.589   2.212
 4496TIP3    H213495   0.503   3.643   2.309
 4497TIP3   OH213496   0.900   3.508   4.102
 4497TIP3    H113497   0.946   3.561   4.038
 4497TIP3    H213498   0.944   3.526   4.185
 4498TIP3   OH213499   1.771   4.020   3.235
 4498TIP3    H113500   1.737   3.970   3.309
 4498TIP3    H213501   1.698   4.075   3.208
 4499TIP3   OH213502   2.152   2.053   4.670
 4499TIP3    H113503   2.180   1.974   4.625
 4499TIP3    H213504   2.172   2.124   4.609
 4500TIP3   OH213505   5.377   4.121   0.057
 4500TIP3    H113506   5.313   4.051   0.068
 4500TIP3    H213507   5.435   4.090  -0.013
 4501TIP3   OH213508   0.722   5.729   3.336
 4501TIP3    H113509   0.771   5.789   3.392
 4501TIP3    H213510   0.670   5.786   3.279
 4502TIP3   OH213511   2.652   4.097   3.781
 4502TIP3    H113512   2.742   4.066   3.788
 4502TIP3    H213513   2.634   4.096   3.687
 4503TIP3   OH213514   3.991   2.780   0.421
 4503TIP3    H113515   3.969   2.714   0.355
 4503TIP3    H213516   3.906   2.815   0.449
 4504TIP3   OH213517   0.445   5.068   5.000
 4504TIP3    H113518   0.410   4.979   5.000
 4504TIP3    H213519   0.432   5.099   4.910
 4505TIP3   OH213520   2.116   5.469   3.407
 4505TIP3    H113521   2.181   5.459   3.477
 4505TIP3    H213522   2.157   5.427   3.331
 4506TIP3   OH213523   4.129   1.723   4.546
 4506TIP3    H113524   4.138   1.742   4.639
 4506TIP3    H213525   4.162   1.634   4.536
 4507TIP3   OH213526   3.373   2.622   2.909
 4507TIP3    H113527   3.339   2.662   2.829
 4507TIP3    H213528   3.355   2.529   2.898
 4508TIP3   OH213529   0.130   2.221   4.566
 4508TIP3    H113530   0.193   2.153   4.541
 4508TIP3    H213531   0.050   2.172   4.588
 4509TIP3   OH213532   4.654   3.275   0.964
 4509TIP3    H113533   4.570   3.314   0.939
 4509TIP3    H213534   4.718   3.321   0.911
 4510TIP3   OH213535   2.225   2.093   0.670
 4510TIP3    H113536   2.273   2.095   0.752
 4510TIP3    H213537   2.145   2.143   0.688
 4511TIP3   OH213538   1.970   1.915   3.850
 4511TIP3    H113539   2.017   1.975   3.793
 4511TIP3    H213540   1.945   1.967   3.926
 4512TIP3   OH213541   3.086   1.361   2.896
 4512TIP3    H113542   3.161   1.314   2.860
 4512TIP3    H213543   3.015   1.297   2.895
 4513TIP3   OH213544   3.649   1.038   5.160
 4513TIP3    H113545   3.649   0.955   5.207
 4513TIP3    H213546   3.737   1.074   5.174
 4514TIP3   OH213547   5.690   2.475   3.092
 4514TIP3    H113548   5.756   2.442   3.031
 4514TIP3    H213549   5.628   2.523   3.037
 4515TIP3   OH213550   4.842   0.322   2.413
 4515TIP3    H113551   4.926   0.294   2.378
 4515TIP3    H213552   4.779   0.260   2.375
 4516TIP3   OH213553   5.835   3.069   4.033
 4516TIP3    H113554   5.839   3.163   4.051
 4516TIP3    H213555   5.747   3.056   3.998
 4517TIP3   OH213556   5.969   5.674   0.683
 4517TIP3    H113557   5.910   5.705   0.751
 4517TIP3    H213558   5.937   5.715   0.602
 4518TIP3   OH213559   1.371   3.441   3.441
 4518TIP3    H113560   1.451   3.469   3.486
 4518TIP3    H213561   1.389   3.454   3.348
 4519TIP3   OH213562   4.745   5.630   1.944
 4519TIP3    H113563   4.768   5.539   1.926
 4519TIP3    H213564   4.776   5.645   2.034
 4520TIP3   OH213565   6.200   1.701   5.153
 4520TIP3    H113566   6.119   1.663   5.186
 4520TIP3    H213567   6.264   1.629   5.158
 4521TIP3   OH213568   1.524   2.599   5.139
 4521TIP3    H113569   1.496   2.507   5.142
 4521TIP3    H213570   1.619   2.595   5.147
 4522TIP3   OH213571   4.912   3.639   4.068
 4522TIP3    H113572   4.922   3.583   3.991
 4522TIP3    H213573   4.825   3.618   4.102
 4523TIP3   OH213574   0.202   1.921   3.920
 4523TIP3    H113575   0.142   1.995   3.923
 4523TIP3    H213576   0.229   1.907   4.011
 4524TIP3   OH213577   0.092   3.496   3.232
 4524TIP3    H113578   0.006   3.486   3.272
 4524TIP3    H213579   0.154   3.490   3.305
 4525TIP3   OH213580   1.181   2.378   2.878
 4525TIP3    H113581   1.211   2.308   2.935
 4525TIP3    H213582   1.229   2.455   2.907
 4526TIP3   OH213583   5.629   5.057   0.922
 4526TIP3    H113584   5.553   4.998   0.929
 4526TIP3    H213585   5.683   5.017   0.853
 4527TIP3   OH213586   2.684   1.142   4.990
 4527TIP3    H113587   2.709   1.055   5.020
 4527TIP3    H213588   2.656   1.130   4.899
 4528TIP3   OH213589   5.389   4.286   4.550
 4528TIP3    H113590   5.327   4.309   4.619
 4528TIP3    H213591   5.369   4.348   4.479
 4529TIP3   OH213592   5.441   1.190   1.940
 4529TIP3    H113593   5.354   1.171   1.906
 4529TIP3    H213594   5.486   1.106   1.940
 4530TIP3   OH213595   0.767   4.355   4.049
 4530TIP3    H113596   0.807   4.438   4.075
 4530TIP3    H213597   0.676   4.377   4.029
 4531TIP3   OH213598   0.729   0.782   2.660
 4531TIP3    H113599   0.742   0.862   2.710
 4531TIP3    H213600   0.795   0.785   2.590
 4532TIP3   OH213601   1.855   2.148   4.577
 4532TIP3    H113602   1.859   2.140   4.672
 4532TIP3    H213603   1.944   2.131   4.548
 4533TIP3   OH213604   1.137   2.794   0.972
 4533TIP3    H113605   1.224   2.786   1.011
 4533TIP3    H213606   1.147   2.757   0.884
 4534TIP3   OH213607   2.901   5.406   2.104
 4534TIP3    H113608   2.912   5.324   2.152
 4534TIP3    H213609   2.841   5.457   2.158
 4535TIP3   OH213610   5.194   3.169   0.795
 4535TIP3    H113611   5.119   3.111   0.782
 4535TIP3    H213612   5.233   3.177   0.708
 4536TIP3   OH213613   3.361   2.600   4.251
 4536TIP3    H113614   3.354   2.555   4.335
 4536TIP3    H213615   3.454   2.619   4.241
 4537TIP3   OH213616   5.726   0.030   4.069
 4537TIP3    H113617   5.655   0.017   4.132
 4537TIP3    H213618   5.688   0.084   4.000
 4538TIP3   OH213619   4.817   0.430   2.729
 4538TIP3    H113620   4.844   0.462   2.815
 4538TIP3    H213621   4.723   0.414   2.737
 4539TIP3   OH213622   1.323   1.809   3.603
 4539TIP3    H113623   1.348   1.841   3.517
 4539TIP3    H213624   1.374   1.862   3.664
 4540TIP3   OH213625   3.305   4.741   2.324
 4540TIP3    H113626   3.323   4.816   2.380
 4540TIP3    H213627   3.387   4.691   2.324
 4541TIP3   OH213628   1.355   0.564   1.975
 4541TIP3    H113629   1.317   0.570   2.063
 4541TIP3    H213630   1.343   0.652   1.938
 4542TIP3   OH213631   4.032   4.762   1.823
 4542TIP3    H113632   4.120   4.745   1.790
 4542TIP3    H213633   3.975   4.750   1.747
 4543TIP3   OH213634   0.297   4.214   0.469
 4543TIP3    H113635   0.323   4.301   0.497
 4543TIP3    H213636   0.355   4.155   0.517
 4544TIP3   OH213637   0.642   0.960   1.541
 4544TIP3    H113638   0.693   0.995   1.614
 4544TIP3    H213639   0.554   0.949   1.577
 4545TIP3   OH213640   1.089   5.878   4.870
 4545TIP3    H113641   1.096   5.795   4.918
 4545TIP3    H213642   1.078   5.852   4.778
 4546TIP3   OH213643   1.556   4.354   4.234
 4546TIP3    H113644   1.595   4.345   4.321
 4546TIP3    H213645   1.463   4.370   4.251
 4547TIP3   OH213646   2.968   1.385   4.862
 4547TIP3    H113647   3.037   1.330   4.825
 4547TIP3    H213648   2.903   1.392   4.792
 4548TIP3   OH213649   3.274   2.773   3.477
 4548TIP3    H113650   3.295   2.680   3.466
 4548TIP3    H213651   3.275   2.809   3.388
 4549TIP3   OH213652   4.219   4.639   1.034
 4549TIP3    H113653   4.141   4.647   1.088
 4549TIP3    H213654   4.195   4.575   0.966
 4550TIP3   OH213655   1.071   2.169   1.296
 4550TIP3    H113656   1.160   2.147   1.323
 4550TIP3    H213657   1.015   2.112   1.349
 4551TIP3   OH213658   2.986   4.801   1.254
 4551TIP3    H113659   3.023   4.742   1.319
 4551TIP3    H213660   3.004   4.889   1.287
 4552TIP3   OH213661   6.227   2.291   5.120
 4552TIP3    H113662   6.178   2.209   5.118
 4552TIP3    H213663   6.249   2.304   5.213
 4553TIP3   OH213664   5.918   5.806   1.929
 4553TIP3    H113665   5.864   5.884   1.939
 4553TIP3    H213666   6.002   5.830   1.968
 4554TIP3   OH213667   4.795   4.024   1.780
 4554TIP3    H113668   4.788   3.977   1.697
 4554TIP3    H213669   4.736   3.977   1.839
 4555TIP3   OH213670   5.401   4.340   3.629
 4555TIP3    H113671   5.355   4.415   3.592
 4555TIP3    H213672   5.353   4.264   3.596
 4556TIP3   OH213673   3.398   1.946   1.272
 4556TIP3    H113674   3.413   2.039   1.255
 4556TIP3    H213675   3.336   1.945   1.345
 4557TIP3   OH213676   4.351   5.480   4.156
 4557TIP3    H113677   4.386   5.391   4.155
 4557TIP3    H213678   4.288   5.482   4.084
 4558TIP3   OH213679   1.229   3.799   0.188
 4558TIP3    H113680   1.273   3.717   0.167
 4558TIP3    H213681   1.178   3.779   0.267
 4559TIP3   OH213682   4.004   1.967   2.931
 4559TIP3    H113683   4.082   1.916   2.912
 4559TIP3    H213684   3.954   1.913   2.992
 4560TIP3   OH213685   4.080   1.954   5.122
 4560TIP3    H113686   4.111   1.878   5.171
 4560TIP3    H213687   4.156   2.013   5.118
 4561TIP3   OH213688   5.829   4.071   1.104
 4561TIP3    H113689   5.911   4.114   1.129
 4561TIP3    H213690   5.761   4.134   1.127
 4562TIP3   OH213691   4.441   0.286   4.442
 4562TIP3    H113692   4.365   0.339   4.420
 4562TIP3    H213693   4.494   0.286   4.362
 4563TIP3   OH213694   4.495   2.904   1.972
 4563TIP3    H113695   4.422   2.842   1.971
 4563TIP3    H213696   4.573   2.849   1.964
 4564TIP3   OH213697   3.291   4.729   2.915
 4564TIP3    H113698   3.322   4.746   3.004
 4564TIP3    H213699   3.209   4.779   2.908
 4565TIP3   OH213700   2.107   0.361   0.240
 4565TIP3    H113701   2.163   0.435   0.264
 4565TIP3    H213702   2.054   0.345   0.318
 4566TIP3   OH213703   5.703   5.510   1.933
 4566TIP3    H113704   5.708   5.553   1.848
 4566TIP3    H213705   5.727   5.579   1.995
 4567TIP3   OH213706   6.209   4.213   2.034
 4567TIP3    H113707   6.146   4.279   2.004
 4567TIP3    H213708   6.295   4.250   2.010
 4568TIP3   OH213709   0.543   1.128   3.910
 4568TIP3    H113710   0.524   1.035   3.924
 4568TIP3    H213711   0.473   1.175   3.954
 4569TIP3   OH213712   4.458   4.405   0.915
 4569TIP3    H113713   4.413   4.336   0.867
 4569TIP3    H213714   4.526   4.436   0.856
 4570TIP3   OH213715   1.172   2.780   4.451
 4570TIP3    H113716   1.257   2.805   4.415
 4570TIP3    H213717   1.112   2.848   4.423
 4571TIP3   OH213718   3.891   1.660   4.294
 4571TIP3    H113719   3.855   1.683   4.379
 4571TIP3    H213720   3.929   1.742   4.261
 4572TIP3   OH213721   3.078   3.975   3.196
 4572TIP3    H113722   3.057   3.939   3.110
 4572TIP3    H213723   3.087   3.898   3.252
 4573TIP3   OH213724   3.063   1.072   0.626
 4573TIP3    H113725   3.055   1.016   0.704
 4573TIP3    H213726   3.071   1.161   0.661
 4574TIP3   OH213727   2.479   3.665   5.099
 4574TIP3    H113728   2.482   3.752   5.138
 4574TIP3    H213729   2.570   3.637   5.094
 4575TIP3   OH213730   2.336   1.688   0.154
 4575TIP3    H113731   2.366   1.627   0.221
 4575TIP3    H213732   2.241   1.677   0.152
 4576TIP3   OH213733   0.355   4.315   2.341
 4576TIP3    H113734   0.318   4.254   2.404
 4576TIP3    H213735   0.450   4.303   2.350
 4577TIP3   OH213736   1.113   5.578   0.364
 4577TIP3    H113737   1.164   5.558   0.285
 4577TIP3    H213738   1.157   5.528   0.433
 4578TIP3   OH213739   2.135   3.022   0.380
 4578TIP3    H113740   2.052   3.061   0.352
 4578TIP3    H213741   2.183   3.094   0.419
 4579TIP3   OH213742   4.921   4.308   2.756
 4579TIP3    H113743   4.875   4.330   2.837
 4579TIP3    H213744   4.944   4.216   2.766
 4580TIP3   OH213745   5.514   1.274   4.412
 4580TIP3    H113746   5.506   1.258   4.318
 4580TIP3    H213747   5.498   1.368   4.422
 4581TIP3   OH213748   1.001   5.105   5.018
 4581TIP3    H113749   1.091   5.071   5.023
 4581TIP3    H213750   0.990   5.130   4.927
 4582TIP3   OH213751   1.783   4.771   1.288
 4582TIP3    H113752   1.835   4.775   1.368
 4582TIP3    H213753   1.848   4.775   1.217
 4583TIP3   OH213754   4.008   5.690   4.155
 4583TIP3    H113755   3.921   5.706   4.119
 4583TIP3    H213756   4.016   5.595   4.157
 4584TIP3   OH213757   1.320   0.293   1.398
 4584TIP3    H113758   1.391   0.344   1.360
 4584TIP3    H213759   1.343   0.286   1.491
 4585TIP3   OH213760   5.277   1.767   3.713
 4585TIP3    H113761   5.217   1.743   3.783
 4585TIP3    H213762   5.290   1.861   3.723
 4586TIP3   OH213763   4.685   4.944   3.583
 4586TIP3    H113764   4.693   4.853   3.553
 4586TIP3    H213765   4.724   4.944   3.671
 4587TIP3   OH213766   1.731   1.477   3.053
 4587TIP3    H113767   1.826   1.470   3.041
 4587TIP3    H213768   1.695   1.409   2.995
 4588TIP3   OH213769   3.851   3.497   3.128
 4588TIP3    H113770   3.834   3.409   3.094
 4588TIP3    H213771   3.927   3.486   3.185
 4589TIP3   OH213772   0.370   5.872   1.155
 4589TIP3    H113773   0.447   5.928   1.159
 4589TIP3    H213774   0.296   5.931   1.167
 4590TIP3   OH213775   5.289   5.557   3.551
 4590TIP3    H113776   5.309   5.521   3.465
 4590TIP3    H213777   5.374   5.577   3.590
 4591TIP3   OH213778   3.808   1.611   1.120
 4591TIP3    H113779   3.859   1.532   1.138
 4591TIP3    H213780   3.861   1.660   1.057
 4592TIP3   OH213781   2.540   5.480   0.981
 4592TIP3    H113782   2.597   5.524   1.045
 4592TIP3    H213783   2.544   5.536   0.903
 4593TIP3   OH213784   3.572   2.896   2.460
 4593TIP3    H113785   3.626   2.871   2.385
 4593TIP3    H213786   3.572   2.992   2.458
 4594TIP3   OH213787   1.251   0.812   3.973
 4594TIP3    H113788   1.272   0.724   4.004
 4594TIP3    H213789   1.222   0.858   4.051
 4595TIP3   OH213790   0.778   3.650   5.143
 4595TIP3    H113791   0.796   3.641   5.236
 4595TIP3    H213792   0.819   3.733   5.119
 4596TIP3   OH213793   4.667   2.036   1.013
 4596TIP3    H113794   4.650   1.984   0.935
 4596TIP3    H213795   4.750   2.003   1.047
 4597TIP3   OH213796   5.677   0.685   2.273
 4597TIP3    H113797   5.696   0.600   2.314
 4597TIP3    H213798   5.713   0.677   2.185
 4598TIP3   OH213799   1.938   5.837   1.532
 4598TIP3    H113800   1.878   5.856   1.604
 4598TIP3    H213801   2.016   5.800   1.574
 4599TIP3   OH213802   4.766   0.750   4.222
 4599TIP3    H113803   4.829   0.687   4.256
 4599TIP3    H213804   4.707   0.768   4.295
 4600TIP3   OH213805   4.575   4.236   3.330
 4600TIP3    H113806   4.509   4.186   3.377
 4600TIP3    H213807   4.577   4.197   3.242
 4601TIP3   OH213808   2.267   2.349   0.465
 4601TIP3    H113809   2.293   2.441   0.477
 4601TIP3    H213810   2.263   2.314   0.554
 4602TIP3   OH213811   5.434   1.169   2.722
 4602TIP3    H113812   5.522   1.207   2.726
 4602TIP3    H213813   5.376   1.237   2.756
 4603TIP3   OH213814   2.276   0.051   1.842
 4603TIP3    H113815   2.203   0.110   1.864
 4603TIP3    H213816   2.335   0.104   1.790
 4604TIP3   OH213817   3.165   0.271   1.426
 4604TIP3    H113818   3.219   0.349   1.411
 4604TIP3    H213819   3.227   0.198   1.422
 4605TIP3   OH213820   6.092   1.359   3.327
 4605TIP3    H113821   6.030   1.290   3.303
 4605TIP3    H213822   6.038   1.437   3.336
 4606TIP3   OH213823   1.882   2.443   4.050
 4606TIP3    H113824   1.971   2.457   4.015
 4606TIP3    H213825   1.874   2.349   4.059
 4607TIP3   OH213826   1.121   4.443   4.640
 4607TIP3    H113827   1.132   4.403   4.553
 4607TIP3    H213828   1.206   4.482   4.659
 4608TIP3   OH213829   1.199   1.247   4.373
 4608TIP3    H113830   1.153   1.268   4.292
 4608TIP3    H213831   1.140   1.278   4.442
 4609TIP3   OH213832   0.452   4.446   4.921
 4609TIP3    H113833   0.504   4.487   4.991
 4609TIP3    H213834   0.445   4.354   4.947
 4610TIP3   OH213835   4.003   0.631   0.464
 4610TIP3    H113836   4.081   0.597   0.420
 4610TIP3    H213837   4.022   0.723   0.479
 4611TIP3   OH213838   1.150   5.930   4.342
 4611TIP3    H113839   1.097   5.982   4.401
 4611TIP3    H213840   1.138   5.840   4.371
 4612TIP3   OH213841   4.366   5.169   0.705
 4612TIP3    H113842   4.329   5.216   0.780
 4612TIP3    H213843   4.293   5.119   0.670
 4613TIP3   OH213844   5.072   2.291   4.795
 4613TIP3    H113845   5.097   2.223   4.858
 4613TIP3    H213846   5.092   2.253   4.710
 4614TIP3   OH213847   3.863   2.731   5.029
 4614TIP3    H113848   3.890   2.694   5.113
 4614TIP3    H213849   3.906   2.676   4.963
 4615TIP3   OH213850   3.276   5.088   0.249
 4615TIP3    H113851   3.314   5.167   0.212
 4615TIP3    H213852   3.285   5.022   0.181
 4616TIP3   OH213853   5.006   1.148   2.220
 4616TIP3    H113854   4.970   1.184   2.139
 4616TIP3    H213855   4.948   1.181   2.288
 4617TIP3   OH213856   4.037   1.191   4.761
 4617TIP3    H113857   4.109   1.214   4.820
 4617TIP3    H213858   4.080   1.149   4.686
 4618TIP3   OH213859   0.233   4.835   4.859
 4618TIP3    H113860   0.192   4.750   4.842
 4618TIP3    H213861   0.167   4.884   4.909
 4619TIP3   OH213862   6.203   2.345   0.916
 4619TIP3    H113863   6.246   2.261   0.902
 4619TIP3    H213864   6.121   2.324   0.960
 4620TIP3   OH213865   2.755   0.148   2.684
 4620TIP3    H113866   2.738   0.079   2.749
 4620TIP3    H213867   2.847   0.137   2.660
 4621TIP3   OH213868   1.268   3.226   4.214
 4621TIP3    H113869   1.278   3.162   4.283
 4621TIP3    H213870   1.298   3.309   4.253
 4622TIP3   OH213871   0.478   5.446   0.083
 4622TIP3    H113872   0.465   5.535   0.049
 4622TIP3    H213873   0.546   5.409   0.026
 4623TIP3   OH213874   4.870   1.676   1.033
 4623TIP3    H113875   4.897   1.589   1.001
 4623TIP3    H213876   4.808   1.657   1.103
 4624TIP3   OH213877   0.620   3.651   4.928
 4624TIP3    H113878   0.669   3.714   4.874
 4624TIP3    H213879   0.686   3.613   4.986
 4625TIP3   OH213880   5.642   3.233   1.622
 4625TIP3    H113881   5.726   3.223   1.577
 4625TIP3    H213882   5.578   3.239   1.552
 4626TIP3   OH213883   5.629   0.931   1.362
 4626TIP3    H113884   5.623   0.927   1.458
 4626TIP3    H213885   5.611   1.023   1.341
 4627TIP3   OH213886   1.568   5.435   4.446
 4627TIP3    H113887   1.537   5.352   4.411
 4627TIP3    H213888   1.624   5.471   4.377
 4628TIP3   OH213889   3.202   5.778   4.088
 4628TIP3    H113890   3.213   5.704   4.028
 4628TIP3    H213891   3.247   5.851   4.046
 4629TIP3   OH213892   6.201   2.353   2.105
 4629TIP3    H113893   6.139   2.309   2.047
 4629TIP3    H213894   6.253   2.282   2.143
 4630TIP3   OH213895   3.502   5.927   2.163
 4630TIP3    H113896   3.451   5.968   2.233
 4630TIP3    H213897   3.436   5.886   2.107
 4631TIP3   OH213898   2.873   4.769   1.824
 4631TIP3    H113899   2.840   4.857   1.842
 4631TIP3    H213900   2.794   4.716   1.813
 4632TIP3   OH213901   4.329   4.113   1.599
 4632TIP3    H113902   4.343   4.020   1.582
 4632TIP3    H213903   4.351   4.156   1.516
 4633TIP3   OH213904   1.009   0.350   4.737
 4633TIP3    H113905   1.095   0.309   4.728
 4633TIP3    H213906   0.962   0.295   4.800
 4634TIP3   OH213907   6.117   3.231   4.291
 4634TIP3    H113908   6.105   3.145   4.332
 4634TIP3    H213909   6.175   3.214   4.217
 4635TIP3   OH213910   3.223   3.728   4.625
 4635TIP3    H113911   3.209   3.675   4.547
 4635TIP3    H213912   3.215   3.818   4.595
 4636TIP3   OH213913   0.748   4.370   2.484
 4636TIP3    H113914   0.791   4.306   2.427
 4636TIP3    H213915   0.656   4.366   2.459
 4637TIP3   OH213916   5.850   0.914   3.233
 4637TIP3    H113917   5.941   0.889   3.216
 4637TIP3    H213918   5.805   0.831   3.253
 4638TIP3   OH213919   4.379   3.552   1.436
 4638TIP3    H113920   4.334   3.545   1.352
 4638TIP3    H213921   4.334   3.489   1.493
 4639TIP3   OH213922   2.064   4.533   1.197
 4639TIP3    H113923   2.083   4.598   1.265
 4639TIP3    H213924   2.145   4.528   1.146
 4640TIP3   OH213925   4.843   2.884   1.352
 4640TIP3    H113926   4.806   2.807   1.309
 4640TIP3    H213927   4.774   2.951   1.345
 4641TIP3   OH213928   2.751   4.383   3.495
 4641TIP3    H113929   2.788   4.308   3.448
 4641TIP3    H213930   2.765   4.457   3.436
 4642TIP3   OH213931   4.692   2.148   0.131
 4642TIP3    H113932   4.672   2.124   0.040
 4642TIP3    H213933   4.707   2.242   0.128
 4643TIP3   OH213934   3.134   4.479   0.668
 4643TIP3    H113935   3.125   4.575   0.665
 4643TIP3    H213936   3.193   4.463   0.742
 4644TIP3   OH213937   1.921   1.285   0.885
 4644TIP3    H113938   1.902   1.243   0.969
 4644TIP3    H213939   1.882   1.372   0.891
 4645TIP3   OH213940   5.398   4.487   0.708
 4645TIP3    H113941   5.403   4.409   0.763
 4645TIP3    H213942   5.382   4.454   0.620
 4646TIP3   OH213943   1.343   4.359   4.917
 4646TIP3    H113944   1.323   4.344   5.009
 4646TIP3    H213945   1.349   4.271   4.879
 4647TIP3   OH213946   3.945   3.232   4.132
 4647TIP3    H113947   3.982   3.287   4.062
 4647TIP3    H213948   3.997   3.152   4.128
 4648TIP3   OH213949   1.013   5.357   3.574
 4648TIP3    H113950   0.990   5.266   3.556
 4648TIP3    H213951   0.943   5.408   3.533
 4649TIP3   OH213952   3.344   2.565   3.316
 4649TIP3    H113953   3.339   2.631   3.246
 4649TIP3    H213954   3.287   2.494   3.286
 4650TIP3   OH213955   5.137   2.655   2.314
 4650TIP3    H113956   5.203   2.725   2.318
 4650TIP3    H213957   5.188   2.574   2.319
 4651TIP3   OH213958   2.493   5.909   4.967
 4651TIP3    H113959   2.530   5.994   4.945
 4651TIP3    H213960   2.558   5.846   4.937
 4652TIP3   OH213961   6.090   1.372   5.067
 4652TIP3    H113962   6.152   1.309   5.102
 4652TIP3    H213963   6.072   1.431   5.141
 4653TIP3   OH213964   3.978   2.671   4.058
 4653TIP3    H113965   4.064   2.708   4.077
 4653TIP3    H213966   3.938   2.734   3.998
 4654TIP3   OH213967   2.793   0.027   0.914
 4654TIP3    H113968   2.804   0.118   0.887
 4654TIP3    H213969   2.875   0.005   0.957
 4655TIP3   OH213970   4.861   4.184   2.461
 4655TIP3    H113971   4.785   4.240   2.443
 4655TIP3    H213972   4.857   4.167   2.555
 4656TIP3   OH213973   6.108   5.052   1.190
 4656TIP3    H113974   6.107   5.089   1.278
 4656TIP3    H213975   6.080   5.124   1.133
 4657TIP3   OH213976   3.418   0.820   1.068
 4657TIP3    H113977   3.506   0.819   1.107
 4657TIP3    H213978   3.370   0.886   1.119
 4658TIP3   OH213979   3.839   0.470   0.667
 4658TIP3    H113980   3.886   0.526   0.604
 4658TIP3    H213981   3.844   0.518   0.750
 4659TIP3   OH213982   1.735   0.565   4.874
 4659TIP3    H113983   1.676   0.555   4.949
 4659TIP3    H213984   1.721   0.655   4.844
 4660TIP3   OH213985   0.632   5.416   1.682
 4660TIP3    H113986   0.599   5.491   1.731
 4660TIP3    H213987   0.684   5.367   1.746
 4661TIP3   OH213988   3.505   2.006   1.966
 4661TIP3    H113989   3.421   1.979   2.003
 4661TIP3    H213990   3.541   1.926   1.928
 4662TIP3   OH213991   1.412   1.558   2.029
 4662TIP3    H113992   1.465   1.486   2.064
 4662TIP3    H213993   1.348   1.575   2.098
 4663TIP3   OH213994   1.108   5.512   0.721
 4663TIP3    H113995   1.179   5.481   0.664
 4663TIP3    H213996   1.151   5.574   0.780
 4664TIP3   OH213997   5.604   3.712   0.264
 4664TIP3    H113998   5.547   3.651   0.218
 4664TIP3    H213999   5.557   3.733   0.345
 4665TIP3   OH214000   5.814   5.905   3.121
 4665TIP3    H114001   5.800   5.970   3.052
 4665TIP3    H214002   5.907   5.886   3.117
 4666TIP3   OH214003   3.523   1.355   4.931
 4666TIP3    H114004   3.459   1.386   4.866
 4666TIP3    H214005   3.565   1.435   4.963
 4667TIP3   OH214006   3.575   2.464   5.034
 4667TIP3    H114007   3.526   2.538   5.070
 4667TIP3    H214008   3.607   2.496   4.950
 4668TIP3   OH214009   1.298   2.102   5.101
 4668TIP3    H114010   1.332   2.013   5.110
 4668TIP3    H214011   1.216   2.092   5.053
 4669TIP3   OH214012   4.538   1.989   2.410
 4669TIP3    H114013   4.608   2.020   2.354
 4669TIP3    H214014   4.462   1.980   2.351
 4670TIP3   OH214015   0.036   4.331   4.534
 4670TIP3    H114016   0.112   4.379   4.501
 4670TIP3    H214017  -0.040   4.379   4.499
 4671TIP3   OH214018   4.571   1.677   4.432
 4671TIP3    H114019   4.556   1.648   4.342
 4671TIP3    H214020   4.494   1.730   4.454
 4672TIP3   OH214021   1.595   3.315   1.868
 4672TIP3    H114022   1.627   3.385   1.811
 4672TIP3    H214023   1.635   3.333   1.953
 4673TIP3   OH214024   1.532   1.976   4.696
 4673TIP3    H114025   1.546   1.912   4.766
 4673TIP3    H214026   1.536   2.060   4.740
 4674TIP3   OH214027   3.291   0.408   1.695
 4674TIP3    H114028   3.241   0.483   1.726
 4674TIP3    H214029   3.381   0.440   1.686
 4675TIP3   OH214030   4.604   3.504   3.248
 4675TIP3    H114031   4.581   3.464   3.331
 4675TIP3    H214032   4.674   3.567   3.269
 4676TIP3   OH214033   3.628   4.319   4.129
 4676TIP3    H114034   3.669   4.233   4.119
 4676TIP3    H214035   3.681   4.364   4.195
 4677TIP3   OH214036   1.944   1.567   4.602
 4677TIP3    H114037   2.021   1.605   4.560
 4677TIP3    H214038   1.954   1.472   4.589
 4678TIP3   OH214039   0.311   2.955   4.476
 4678TIP3    H114040   0.216   2.950   4.487
 4678TIP3    H214041   0.331   2.888   4.410
 4679TIP3   OH214042   3.065   4.390   4.971
 4679TIP3    H114043   3.073   4.296   4.951
 4679TIP3    H214044   3.093   4.398   5.062
 4680TIP3   OH214045   3.699   3.208   4.945
 4680TIP3    H114046   3.631   3.275   4.954
 4680TIP3    H214047   3.714   3.178   5.035
 4681TIP3   OH214048   4.612   5.351   4.799
 4681TIP3    H114049   4.629   5.267   4.758
 4681TIP3    H214050   4.607   5.332   4.893
 4682TIP3   OH214051   1.886   4.690   3.131
 4682TIP3    H114052   1.869   4.773   3.174
 4682TIP3    H214053   1.976   4.698   3.098
 4683TIP3   OH214054   2.110   0.172   0.861
 4683TIP3    H114055   2.046   0.243   0.870
 4683TIP3    H214056   2.056   0.092   0.854
 4684TIP3   OH214057   1.784   0.985   3.278
 4684TIP3    H114058   1.777   0.965   3.371
 4684TIP3    H214059   1.836   1.065   3.274
 4685TIP3   OH214060   5.556   2.032   4.151
 4685TIP3    H114061   5.563   1.940   4.179
 4685TIP3    H214062   5.646   2.065   4.153
 4686TIP3   OH214063   2.594   2.489   1.379
 4686TIP3    H114064   2.598   2.582   1.404
 4686TIP3    H214065   2.557   2.490   1.291
 4687TIP3   OH214066   4.572   1.303   1.286
 4687TIP3    H114067   4.501   1.306   1.222
 4687TIP3    H214068   4.624   1.227   1.260
 4688TIP3   OH214069   0.743   3.933   2.698
 4688TIP3    H114070   0.718   3.994   2.767
 4688TIP3    H214071   0.777   3.857   2.744
 4689TIP3   OH214072   5.627   5.874   2.770
 4689TIP3    H114073   5.656   5.809   2.705
 4689TIP3    H214074   5.708   5.910   2.805
 4690TIP3   OH214075   1.984   3.363   0.214
 4690TIP3    H114076   2.079   3.359   0.203
 4690TIP3    H214077   1.968   3.323   0.300
 4691TIP3   OH214078   6.302   0.267   3.989
 4691TIP3    H114079   6.254   0.207   3.931
 4691TIP3    H214080   6.238   0.291   4.056
 4692TIP3   OH214081   1.302   5.328   3.486
 4692TIP3    H114082   1.271   5.317   3.396
 4692TIP3    H214083   1.228   5.301   3.540
 4693TIP3   OH214084   3.911   3.247   0.562
 4693TIP3    H114085   3.974   3.215   0.626
 4693TIP3    H214086   3.944   3.334   0.537
 4694TIP3   OH214087   5.771   4.918   4.779
 4694TIP3    H114088   5.859   4.935   4.747
 4694TIP3    H214089   5.775   4.830   4.816
 4695TIP3   OH214090   6.194   3.207   0.815
 4695TIP3    H114091   6.256   3.250   0.756
 4695TIP3    H214092   6.195   3.115   0.789
 4696TIP3   OH214093   2.760   0.038   2.024
 4696TIP3    H114094   2.841   0.021   1.977
 4696TIP3    H214095   2.786   0.044   2.116
 4697TIP3   OH214096   1.809   5.107   2.693
 4697TIP3    H114097   1.797   5.056   2.613
 4697TIP3    H214098   1.787   5.047   2.764
 4698TIP3   OH214099   1.627   3.280   2.672
 4698TIP3    H114100   1.576   3.203   2.647
 4698TIP3    H214101   1.677   3.251   2.749
 4699TIP3   OH214102   6.227   3.613   4.945
 4699TIP3    H114103   6.307   3.567   4.971
 4699TIP3    H214104   6.225   3.604   4.850
 4700TIP3   OH214105   0.620   4.051   1.526
 4700TIP3    H114106   0.532   4.088   1.518
 4700TIP3    H214107   0.613   3.964   1.486
 4701TIP3   OH214108   4.676   1.980   1.520
 4701TIP3    H114109   4.724   2.054   1.483
 4701TIP3    H214110   4.633   1.939   1.445
 4702TIP3   OH214111   4.184   3.793   0.493
 4702TIP3    H114112   4.144   3.758   0.414
 4702TIP3    H214113   4.242   3.863   0.462
 4703TIP3   OH214114   0.036   5.967   2.282
 4703TIP3    H114115   0.072   5.972   2.371
 4703TIP3    H214116   0.034   5.873   2.262
 4704TIP3   OH214117   5.940   1.308   4.005
 4704TIP3    H114118   5.884   1.275   4.076
 4704TIP3    H214119   5.943   1.237   3.941
 4705TIP3   OH214120   3.593   3.855   4.609
 4705TIP3    H114121   3.537   3.780   4.588
 4705TIP3    H214122   3.538   3.911   4.663
 4706TIP3   OH214123   0.198   4.258   2.112
 4706TIP3    H114124   0.290   4.257   2.089
 4706TIP3    H214125   0.196   4.287   2.204
 4707TIP3   OH214126   5.378   5.911   0.300
 4707TIP3    H114127   5.287   5.880   0.294
 4707TIP3    H214128   5.417   5.887   0.216
 4708TIP3   OH214129   4.848   3.031   1.968
 4708TIP3    H114130   4.794   2.953   1.976
 4708TIP3    H214131   4.895   3.019   1.885
 4709TIP3   OH214132   4.865   5.297   0.999
 4709TIP3    H114133   4.845   5.381   1.040
 4709TIP3    H214134   4.806   5.293   0.924
 4710TIP3   OH214135   5.502   1.512   5.015
 4710TIP3    H114136   5.593   1.484   5.023
 4710TIP3    H214137   5.451   1.431   5.018
 4711TIP3   OH214138   6.052   2.732   4.198
 4711TIP3    H114139   6.134   2.684   4.203
 4711TIP3    H214140   5.989   2.676   4.244
 4712TIP3   OH214141   5.810   0.338   3.940
 4712TIP3    H114142   5.835   0.378   4.023
 4712TIP3    H214143   5.876   0.270   3.925
 4713TIP3   OH214144   2.899   5.925   2.813
 4713TIP3    H114145   2.968   5.988   2.830
 4713TIP3    H214146   2.828   5.976   2.774
 4714TIP3   OH214147   0.826   0.457   2.203
 4714TIP3    H114148   0.911   0.450   2.160
 4714TIP3    H214149   0.824   0.545   2.240
 4715TIP3   OH214150   2.338   1.111   4.692
 4715TIP3    H114151   2.428   1.086   4.672
 4715TIP3    H214152   2.306   1.042   4.750
 4716TIP3   OH214153   6.186   4.382   3.360
 4716TIP3    H114154   6.212   4.335   3.439
 4716TIP3    H214155   6.092   4.398   3.371
 4717TIP3   OH214156   4.387   0.228   1.541
 4717TIP3    H114157   4.379   0.254   1.449
 4717TIP3    H214158   4.431   0.143   1.538
 4718TIP3   OH214159   3.452   1.639   4.224
 4718TIP3    H114160   3.475   1.568   4.283
 4718TIP3    H214161   3.356   1.637   4.220
 4719TIP3   OH214162   2.634   1.172   4.353
 4719TIP3    H114163   2.627   1.153   4.260
 4719TIP3    H214164   2.717   1.219   4.362
 4720TIP3   OH214165   4.138   3.164   4.874
 4720TIP3    H114166   4.177   3.163   4.962
 4720TIP3    H214167   4.068   3.100   4.879
 4721TIP3   OH214168   6.345   4.122   4.387
 4721TIP3    H114169   6.256   4.139   4.356
 4721TIP3    H214170   6.365   4.197   4.443
 4722TIP3   OH214171   0.656   2.529   3.355
 4722TIP3    H114172   0.691   2.617   3.365
 4722TIP3    H214173   0.682   2.484   3.436
 4723TIP3   OH214174   5.778   0.887   4.158
 4723TIP3    H114175   5.853   0.927   4.115
 4723TIP3    H214176   5.769   0.934   4.241
 4724TIP3   OH214177   2.112   0.081   4.677
 4724TIP3    H114178   2.126   0.070   4.771
 4724TIP3    H214179   2.188   0.130   4.646
 4725TIP3   OH214180   1.962   4.538   4.755
 4725TIP3    H114181   2.056   4.549   4.739
 4725TIP3    H214182   1.930   4.626   4.775
 4726TIP3   OH214183   0.038   0.524   1.852
 4726TIP3    H114184   0.069   0.582   1.783
 4726TIP3    H214185   0.070   0.437   1.828
 4727TIP3   OH214186   3.759   4.538   1.785
 4727TIP3    H114187   3.688   4.567   1.728
 4727TIP3    H214188   3.727   4.553   1.874
 4728TIP3   OH214189   0.776   5.513   2.461
 4728TIP3    H114190   0.687   5.488   2.435
 4728TIP3    H214191   0.792   5.461   2.540
 4729TIP3   OH214192   4.460   4.425   2.787
 4729TIP3    H114193   4.517   4.352   2.762
 4729TIP3    H214194   4.492   4.498   2.734
 4730TIP3   OH214195   3.609   0.529   4.118
 4730TIP3    H114196   3.611   0.578   4.036
 4730TIP3    H214197   3.678   0.569   4.172
 4731TIP3   OH214198   2.858   2.688   1.521
 4731TIP3    H114199   2.851   2.660   1.612
 4731TIP3    H214200   2.772   2.724   1.501
 4732TIP3   OH214201   6.087   5.853   3.092
 4732TIP3    H114202   6.151   5.922   3.071
 4732TIP3    H214203   6.127   5.805   3.165
 4733TIP3   OH214204   4.026   2.325   2.356
 4733TIP3    H114205   4.112   2.286   2.369
 4733TIP3    H214206   3.964   2.261   2.390
 4734TIP3   OH214207   5.856   0.118   3.484
 4734TIP3    H114208   5.821   0.075   3.562
 4734TIP3    H214209   5.840   0.055   3.413
 4735TIP3   OH214210   1.542   1.347   4.601
 4735TIP3    H114211   1.564   1.422   4.656
 4735TIP3    H214212   1.589   1.274   4.641
 4736TIP3   OH214213   5.870   2.287   0.699
 4736TIP3    H114214   5.788   2.279   0.747
 4736TIP3    H214215   5.920   2.208   0.721
 4737TIP3   OH214216   2.038   2.450   2.596
 4737TIP3    H114217   1.949   2.420   2.578
 4737TIP3    H214218   2.085   2.371   2.621
 4738TIP3   OH214219   5.741   3.094   2.664
 4738TIP3    H114220   5.692   3.122   2.587
 4738TIP3    H214221   5.826   3.136   2.655
 4739TIP3   OH214222   5.649   3.020   1.794
 4739TIP3    H114223   5.696   3.046   1.874
 4739TIP3    H214224   5.642   3.101   1.743
 4740TIP3   OH214225   1.728   3.141   1.355
 4740TIP3    H114226   1.746   3.194   1.432
 4740TIP3    H214227   1.641   3.105   1.371
 4741TIP3   OH214228   4.678   3.527   0.530
 4741TIP3    H114229   4.762   3.567   0.506
 4741TIP3    H214230   4.695   3.433   0.523
 4742TIP3   OH214231   5.220   2.093   0.180
 4742TIP3    H114232   5.174   2.120   0.259
 4742TIP3    H214233   5.199   2.160   0.115
 4743TIP3   OH214234   4.503   1.233   4.986
 4743TIP3    H114235   4.511   1.287   5.065
 4743TIP3    H214236   4.447   1.160   5.012
 4744TIP3   OH214237   3.510   4.861   3.463
 4744TIP3    H114238   3.590   4.843   3.413
 4744TIP3    H214239   3.540   4.903   3.543
 4745TIP3   OH214240   4.568   0.675   1.591
 4745TIP3    H114241   4.505   0.719   1.534
 4745TIP3    H214242   4.516   0.612   1.640
 4746TIP3   OH214243   1.971   5.234   2.011
 4746TIP3    H114244   1.973   5.223   1.916
 4746TIP3    H214245   1.891   5.188   2.038
 4747TIP3   OH214246   4.603   1.677   2.984
 4747TIP3    H114247   4.583   1.765   3.018
 4747TIP3    H214248   4.625   1.626   3.061
 4748TIP3   OH214249   0.036   2.022   3.225
 4748TIP3    H114250   0.025   2.035   3.319
 4748TIP3    H214251   0.099   2.089   3.198
 4749TIP3   OH214252   1.511   2.677   2.067
 4749TIP3    H114253   1.535   2.768   2.084
 4749TIP3    H214254   1.504   2.672   1.972
 4750TIP3   OH214255   2.055   3.150   4.321
 4750TIP3    H114256   1.993   3.078   4.316
 4750TIP3    H214257   2.034   3.204   4.244
 4751TIP3   OH214258   0.478   2.020   2.018
 4751TIP3    H114259   0.442   1.955   1.957
 4751TIP3    H214260   0.408   2.037   2.080
 4752TIP3   OH214261   2.120   3.497   0.599
 4752TIP3    H114262   2.177   3.545   0.539
 4752TIP3    H214263   2.152   3.522   0.686
 4753TIP3   OH214264   0.709   5.294   0.241
 4753TIP3    H114265   0.669   5.377   0.217
 4753TIP3    H214266   0.721   5.299   0.336
 4754TIP3   OH214267   0.642   1.850   5.043
 4754TIP3    H114268   0.657   1.760   5.013
 4754TIP3    H214269   0.550   1.851   5.071
 4755TIP3   OH214270   4.330   1.485   0.364
 4755TIP3    H114271   4.316   1.460   0.273
 4755TIP3    H214272   4.278   1.423   0.414
 4756TIP3   OH214273   4.544   3.550   0.830
 4756TIP3    H114274   4.471   3.591   0.783
 4756TIP3    H214275   4.608   3.532   0.761
 4757TIP3   OH214276   6.070   3.179   4.947
 4757TIP3    H114277   6.026   3.195   4.864
 4757TIP3    H214278   6.000   3.183   5.012
 4758TIP3   OH214279   4.136   5.473   4.647
 4758TIP3    H114280   4.094   5.524   4.577
 4758TIP3    H214281   4.196   5.535   4.688
 4759TIP3   OH214282   4.902   0.067   0.375
 4759TIP3    H114283   4.959   0.099   0.306
 4759TIP3    H214284   4.815   0.064   0.335
 4760TIP3   OH214285   0.275   1.942   4.530
 4760TIP3    H114286   0.204   1.902   4.580
 4760TIP3    H214287   0.327   1.989   4.595
 4761TIP3   OH214288   4.989   0.482   0.820
 4761TIP3    H114289   4.977   0.447   0.731
 4761TIP3    H214290   4.961   0.411   0.877
 4762TIP3   OH214291   4.423   3.982   4.888
 4762TIP3    H114292   4.329   3.961   4.889
 4762TIP3    H214293   4.464   3.908   4.933
 4763TIP3   OH214294   2.182   0.813   2.374
 4763TIP3    H114295   2.204   0.900   2.341
 4763TIP3    H214296   2.198   0.754   2.300
 4764TIP3   OH214297   0.413   5.150   0.886
 4764TIP3    H114298   0.320   5.171   0.897
 4764TIP3    H214299   0.448   5.149   0.975
 4765TIP3   OH214300   3.125   3.337   3.839
 4765TIP3    H114301   3.163   3.326   3.926
 4765TIP3    H214302   3.201   3.345   3.781
 4766TIP3   OH214303   5.601   5.344   4.199
 4766TIP3    H114304   5.656   5.335   4.277
 4766TIP3    H214305   5.584   5.438   4.193
 4767TIP3   OH214306   5.305   0.459   0.954
 4767TIP3    H114307   5.316   0.468   0.860
 4767TIP3    H214308   5.257   0.377   0.965
 4768TIP3   OH214309   2.623   3.936   4.665
 4768TIP3    H114310   2.552   3.915   4.605
 4768TIP3    H214311   2.669   3.853   4.678
 4769TIP3   OH214312   5.922   1.940   4.885
 4769TIP3    H114313   5.854   1.923   4.820
 4769TIP3    H214314   5.896   1.887   4.961
 4770TIP3   OH214315   1.749   5.457   3.666
 4770TIP3    H114316   1.661   5.487   3.640
 4770TIP3    H214317   1.760   5.374   3.621
 4771TIP3   OH214318   0.876   2.692   1.258
 4771TIP3    H114319   0.925   2.753   1.313
 4771TIP3    H214320   0.924   2.609   1.265
 4772TIP3   OH214321   1.618   2.244   0.409
 4772TIP3    H114322   1.567   2.181   0.460
 4772TIP3    H214323   1.701   2.200   0.391
 4773TIP3   OH214324   1.765   1.939   5.108
 4773TIP3    H114325   1.706   1.894   5.168
 4773TIP3    H214326   1.843   1.957   5.159
 4774TIP3   OH214327   1.834   0.848   4.253
 4774TIP3    H114328   1.887   0.795   4.313
 4774TIP3    H214329   1.758   0.793   4.233
 4775TIP3   OH214330   1.326   4.582   0.250
 4775TIP3    H114331   1.397   4.518   0.251
 4775TIP3    H214332   1.247   4.531   0.235
 4776TIP3   OH214333   3.019   0.196   4.574
 4776TIP3    H114334   3.060   0.236   4.497
 4776TIP3    H214335   2.932   0.236   4.579
 4777TIP3   OH214336   4.373   5.893   3.196
 4777TIP3    H114337   4.353   5.932   3.110
 4777TIP3    H214338   4.430   5.819   3.175
 4778TIP3   OH214339   3.714   4.372   3.237
 4778TIP3    H114340   3.719   4.299   3.174
 4778TIP3    H214341   3.784   4.431   3.211
 4779TIP3   OH214342   5.284   0.291   1.854
 4779TIP3    H114343   5.377   0.270   1.840
 4779TIP3    H214344   5.241   0.267   1.772
 4780TIP3   OH214345   4.895   1.865   0.826
 4780TIP3    H114346   4.947   1.937   0.863
 4780TIP3    H214347   4.883   1.804   0.898
 4781TIP3   OH214348   4.287   5.700   4.759
 4781TIP3    H114349   4.250   5.727   4.844
 4781TIP3    H214350   4.375   5.670   4.781
 4782TIP3   OH214351   0.748   1.494   1.038
 4782TIP3    H114352   0.755   1.455   0.951
 4782TIP3    H214353   0.701   1.428   1.089
 4783TIP3   OH214354   4.434   1.115   1.726
 4783TIP3    H114355   4.433   1.204   1.763
 4783TIP3    H214356   4.354   1.075   1.758
 4784TIP3   OH214357   0.181   4.042   3.089
 4784TIP3    H114358   0.138   3.957   3.083
 4784TIP3    H214359   0.223   4.041   3.176
 4785TIP3   OH214360   0.417   0.582   3.594
 4785TIP3    H114361   0.439   0.588   3.501
 4785TIP3    H214362   0.409   0.488   3.611
 4786TIP3   OH214363   1.246   2.652   2.523
 4786TIP3    H114364   1.249   2.569   2.475
 4786TIP3    H214365   1.286   2.633   2.607
 4787TIP3   OH214366   5.477   5.510   0.596
 4787TIP3    H114367   5.503   5.599   0.575
 4787TIP3    H214368   5.461   5.469   0.511
 4788TIP3   OH214369   3.075   4.176   2.241
 4788TIP3    H114370   3.157   4.213   2.272
 4788TIP3    H214371   3.084   4.082   2.256
 4789TIP3   OH214372   3.111   0.677   2.886
 4789TIP3    H114373   3.191   0.718   2.854
 4789TIP3    H214374   3.141   0.595   2.925
 4790TIP3   OH214375   0.410   2.344   4.451
 4790TIP3    H114376   0.409   2.331   4.356
 4790TIP3    H214377   0.440   2.434   4.462
 4791TIP3   OH214378   1.889   4.245   2.758
 4791TIP3    H114379   1.961   4.269   2.815
 4791TIP3    H214380   1.930   4.194   2.688
 4792TIP3   OH214381   4.202   3.202   3.351
 4792TIP3    H114382   4.153   3.144   3.408
 4792TIP3    H214383   4.290   3.164   3.346
 4793TIP3   OH214384   1.155   1.630   3.468
 4793TIP3    H114385   1.196   1.711   3.497
 4793TIP3    H214386   1.211   1.598   3.397
 4794TIP3   OH214387   5.847   3.086   0.852
 4794TIP3    H114388   5.846   3.054   0.762
 4794TIP3    H214389   5.915   3.153   0.853
 4795TIP3   OH214390   3.511   5.094   2.459
 4795TIP3    H114391   3.478   5.174   2.499
 4795TIP3    H214392   3.564   5.124   2.385
 4796TIP3   OH214393   3.048   3.911   2.294
 4796TIP3    H114394   3.034   3.892   2.387
 4796TIP3    H214395   3.139   3.887   2.278
 4797TIP3   OH214396   3.787   1.411   3.934
 4797TIP3    H114397   3.871   1.366   3.928
 4797TIP3    H214398   3.733   1.369   3.867
 4798TIP3   OH214399   2.163   1.032   0.075
 4798TIP3    H114400   2.084   0.991   0.110
 4798TIP3    H214401   2.231   0.966   0.087
 4799TIP3   OH214402   6.110   2.347   3.366
 4799TIP3    H114403   6.069   2.289   3.430
 4799TIP3    H214404   6.044   2.415   3.350
 4800TIP3   OH214405   6.064   4.204   4.327
 4800TIP3    H114406   6.063   4.291   4.366
 4800TIP3    H214407   5.972   4.178   4.325
 4801TIP3   OH214408   5.950   5.279   2.778
 4801TIP3    H114409   6.018   5.289   2.845
 4801TIP3    H214410   5.904   5.362   2.778
 4802TIP3   OH214411   1.860   2.971   4.263
 4802TIP3    H114412   1.769   2.999   4.249
 4802TIP3    H214413   1.865   2.954   4.357
 4803TIP3   OH214414   4.613   2.514   1.060
 4803TIP3    H114415   4.626   2.542   0.969
 4803TIP3    H214416   4.574   2.427   1.052
 4804TIP3   OH214417   0.937   4.022   3.153
 4804TIP3    H114418   0.965   4.099   3.104
 4804TIP3    H214419   1.018   3.987   3.191
 4805TIP3   OH214420   3.525   4.064   0.595
 4805TIP3    H114421   3.439   4.039   0.630
 4805TIP3    H214422   3.575   3.982   0.594
 4806TIP3   OH214423   4.734   4.517   3.632
 4806TIP3    H114424   4.720   4.582   3.563
 4806TIP3    H214425   4.719   4.433   3.590
 4807TIP3   OH214426   1.700   2.802   2.845
 4807TIP3    H114427   1.695   2.750   2.926
 4807TIP3    H214428   1.757   2.751   2.787
 4808TIP3   OH214429   4.026   5.021   1.191
 4808TIP3    H114430   3.943   5.054   1.156
 4808TIP3    H214431   4.000   4.956   1.256
 4809TIP3   OH214432   0.870   2.231   0.064
 4809TIP3    H114433   0.955   2.217   0.023
 4809TIP3    H214434   0.887   2.225   0.158
 4810TIP3   OH214435   4.748   4.491   2.234
 4810TIP3    H114436   4.686   4.435   2.188
 4810TIP3    H214437   4.694   4.540   2.296
 4811TIP3   OH214438   3.395   2.520   1.669
 4811TIP3    H114439   3.471   2.552   1.621
 4811TIP3    H214440   3.327   2.584   1.650
 4812TIP3   OH214441   2.653   2.492   2.371
 4812TIP3    H114442   2.734   2.461   2.410
 4812TIP3    H214443   2.612   2.414   2.334
 4813TIP3   OH214444   0.918   3.793   1.496
 4813TIP3    H114445   0.957   3.756   1.417
 4813TIP3    H214446   0.828   3.813   1.472
 4814TIP3   OH214447   5.238   2.879   1.756
 4814TIP3    H114448   5.298   2.885   1.682
 4814TIP3    H214449   5.287   2.913   1.831
 4815TIP3   OH214450   0.676   5.156   0.767
 4815TIP3    H114451   0.706   5.207   0.691
 4815TIP3    H214452   0.636   5.221   0.825
 4816TIP3   OH214453   5.974   0.593   1.512
 4816TIP3    H114454   5.904   0.649   1.480
 4816TIP3    H214455   5.971   0.515   1.456
 4817TIP3   OH214456   1.198   5.371   2.969
 4817TIP3    H114457   1.125   5.415   2.925
 4817TIP3    H214458   1.238   5.317   2.901
 4818TIP3   OH214459   0.121   1.526   0.909
 4818TIP3    H114460   0.170   1.567   0.837
 4818TIP3    H214461   0.029   1.537   0.884
 4819TIP3   OH214462   3.748   2.015   0.853
 4819TIP3    H114463   3.654   2.034   0.852
 4819TIP3    H214464   3.783   2.064   0.778
 4820TIP3   OH214465   1.257   3.630   2.370
 4820TIP3    H114466   1.291   3.683   2.443
 4820TIP3    H214467   1.174   3.673   2.346
 4821TIP3   OH214468   1.911   3.992   0.842
 4821TIP3    H114469   1.895   3.904   0.810
 4821TIP3    H214470   1.845   4.046   0.798
 4822TIP3   OH214471   0.507   4.420   0.814
 4822TIP3    H114472   0.464   4.449   0.733
 4822TIP3    H214473   0.597   4.450   0.805
 4823TIP3   OH214474   4.958   3.800   1.137
 4823TIP3    H114475   4.936   3.888   1.168
 4823TIP3    H214476   4.931   3.799   1.046
 4824TIP3   OH214477   2.888   4.310   2.446
 4824TIP3    H114478   2.874   4.401   2.421
 4824TIP3    H214479   2.957   4.280   2.387
 4825TIP3   OH214480   0.078   4.477   0.787
 4825TIP3    H114481   0.085   4.383   0.771
 4825TIP3    H214482   0.060   4.484   0.881
 4826TIP3   OH214483   4.469   4.472   1.586
 4826TIP3    H114484   4.496   4.491   1.676
 4826TIP3    H214485   4.490   4.552   1.538
 4827TIP3   OH214486   3.662   0.556   4.526
 4827TIP3    H114487   3.600   0.483   4.533
 4827TIP3    H214488   3.620   0.627   4.575
 4828TIP3   OH214489   5.348   5.861   0.771
 4828TIP3    H114490   5.351   5.943   0.722
 4828TIP3    H214491   5.360   5.886   0.862
 4829TIP3   OH214492   4.015   5.239   4.730
 4829TIP3    H114493   4.025   5.320   4.680
 4829TIP3    H214494   4.098   5.229   4.776
 4830TIP3   OH214495   5.296   5.416   3.285
 4830TIP3    H114496   5.345   5.434   3.204
 4830TIP3    H214497   5.342   5.341   3.324
 4831TIP3   OH214498   2.410   3.633   2.616
 4831TIP3    H114499   2.384   3.665   2.703
 4831TIP3    H214500   2.438   3.711   2.569
 4832TIP3   OH214501   5.120   4.269   1.415
 4832TIP3    H114502   5.201   4.266   1.466
 4832TIP3    H214503   5.050   4.255   1.480
 4833TIP3   OH214504   4.343   5.402   2.614
 4833TIP3    H114505   4.411   5.468   2.600
 4833TIP3    H214506   4.263   5.444   2.581
 4834TIP3   OH214507   3.192   0.607   3.981
 4834TIP3    H114508   3.236   0.599   4.066
 4834TIP3    H214509   3.262   0.629   3.919
 4835TIP3   OH214510   3.902   0.962   0.224
 4835TIP3    H114511   3.883   0.871   0.203
 4835TIP3    H214512   3.816   1.005   0.221
 4836TIP3   OH214513   2.441   1.105   2.410
 4836TIP3    H114514   2.523   1.095   2.458
 4836TIP3    H214515   2.404   1.187   2.442
 4837TIP3   OH214516   1.196   4.258   1.051
 4837TIP3    H114517   1.174   4.177   1.096
 4837TIP3    H214518   1.128   4.320   1.078
 4838TIP3   OH214519   4.741   3.196   4.584
 4838TIP3    H114520   4.796   3.274   4.578
 4838TIP3    H214521   4.725   3.170   4.494
 4839TIP3   OH214522   0.829   3.208   2.327
 4839TIP3    H114523   0.778   3.181   2.250
 4839TIP3    H214524   0.899   3.263   2.291
 4840TIP3   OH214525   5.110   0.203   4.050
 4840TIP3    H114526   5.110   0.144   4.125
 4840TIP3    H214527   5.116   0.290   4.089
 4841TIP3   OH214528   3.005   2.256   4.716
 4841TIP3    H114529   3.062   2.303   4.655
 4841TIP3    H214530   3.062   2.194   4.761
 4842TIP3   OH214531   1.991   0.085   4.293
 4842TIP3    H114532   2.038   0.008   4.324
 4842TIP3    H214533   1.968   0.133   4.372
 4843TIP3   OH214534   2.600   3.359   4.692
 4843TIP3    H114535   2.554   3.403   4.621
 4843TIP3    H214536   2.642   3.284   4.651
 4844TIP3   OH214537   1.629   3.948   2.905
 4844TIP3    H114538   1.646   3.905   2.820
 4844TIP3    H214539   1.675   3.893   2.968
 4845TIP3   OH214540   2.637   1.233   0.051
 4845TIP3    H114541   2.626   1.140   0.032
 4845TIP3    H214542   2.676   1.235   0.138
 4846TIP3   OH214543   1.314   1.296   4.003
 4846TIP3    H114544   1.350   1.208   4.000
 4846TIP3    H214545   1.385   1.349   4.040
 4847TIP3   OH214546   5.418   2.294   4.962
 4847TIP3    H114547   5.471   2.299   5.042
 4847TIP3    H214548   5.330   2.272   4.992
 4848TIP3   OH214549   5.023   4.804   3.582
 4848TIP3    H114550   5.027   4.715   3.616
 4848TIP3    H214551   4.954   4.847   3.632
 4849TIP3   OH214552   0.534   4.907   4.488
 4849TIP3    H114553   0.605   4.844   4.489
 4849TIP3    H214554   0.508   4.913   4.397
 4850TIP3   OH214555   4.522   1.005   3.608
 4850TIP3    H114556   4.520   0.949   3.530
 4850TIP3    H214557   4.550   1.090   3.575
 4851TIP3   OH214558   2.188   4.305   3.435
 4851TIP3    H114559   2.116   4.260   3.391
 4851TIP3    H214560   2.177   4.397   3.411
 4852TIP3   OH214561   4.550   2.424   1.564
 4852TIP3    H114562   4.470   2.476   1.557
 4852TIP3    H214563   4.526   2.352   1.623
 4853TIP3   OH214564   3.719   2.880   4.066
 4853TIP3    H114565   3.631   2.858   4.038
 4853TIP3    H214566   3.745   2.952   4.008
 4854TIP3   OH214567   4.243   4.900   3.303
 4854TIP3    H114568   4.317   4.960   3.308
 4854TIP3    H214569   4.230   4.870   3.393
 4855TIP3   OH214570   2.846   3.548   0.906
 4855TIP3    H114571   2.837   3.572   0.998
 4855TIP3    H214572   2.799   3.465   0.897
 4856TIP3   OH214573   0.485   0.861   3.952
 4856TIP3    H114574   0.422   0.875   4.023
 4856TIP3    H214575   0.433   0.823   3.881
 4857TIP3   OH214576   4.794   1.426   1.683
 4857TIP3    H114577   4.754   1.372   1.750
 4857TIP3    H214578   4.828   1.502   1.730
 4858TIP3   OH214579   2.543   2.012   3.336
 4858TIP3    H114580   2.507   1.988   3.250
 4858TIP3    H214581   2.492   2.088   3.363
 4859TIP3   OH214582   0.348   5.609   0.816
 4859TIP3    H114583   0.252   5.615   0.817
 4859TIP3    H214584   0.377   5.700   0.825
 4860TIP3   OH214585   5.126   4.901   2.313
 4860TIP3    H114586   5.159   4.985   2.281
 4860TIP3    H214587   5.074   4.866   2.240
 4861TIP3   OH214588   5.070   3.773   4.900
 4861TIP3    H114589   5.138   3.742   4.960
 4861TIP3    H214590   4.992   3.724   4.925
 4862TIP3   OH214591   5.585   2.415   1.121
 4862TIP3    H114592   5.505   2.379   1.160
 4862TIP3    H214593   5.654   2.392   1.183
 4863TIP3   OH214594   5.039   2.684   2.708
 4863TIP3    H114595   4.947   2.658   2.705
 4863TIP3    H214596   5.087   2.602   2.695
 4864TIP3   OH214597   5.868   5.266  -0.005
 4864TIP3    H114598   5.774   5.250   0.009
 4864TIP3    H214599   5.871   5.322  -0.083
 4865TIP3   OH214600   1.602   4.564   4.652
 4865TIP3    H114601   1.609   4.581   4.558
 4865TIP3    H214602   1.672   4.501   4.669
 4866TIP3   OH214603   0.155   2.437   4.321
 4866TIP3    H114604   0.156   2.361   4.263
 4866TIP3    H214605   0.187   2.404   4.405
 4867TIP3   OH214606   0.487   4.565   0.343
 4867TIP3    H114607   0.468   4.655   0.316
 4867TIP3    H214608   0.515   4.520   0.263
 4868TIP3   OH214609   2.954   4.125   1.479
 4868TIP3    H114610   2.866   4.159   1.496
 4868TIP3    H214611   2.993   4.188   1.418
 4869TIP3   OH214612   5.647   0.192   3.243
 4869TIP3    H114613   5.655   0.099   3.262
 4869TIP3    H214614   5.705   0.207   3.169
 4870TIP3   OH214615   6.276   3.002   0.650
 4870TIP3    H114616   6.255   2.936   0.716
 4870TIP3    H214617   6.270   2.955   0.567
 4871TIP3   OH214618   1.027   3.780   2.370
 4871TIP3    H114619   1.025   3.870   2.403
 4871TIP3    H214620   0.936   3.749   2.378
 4872TIP3   OH214621   2.628   1.309   2.728
 4872TIP3    H114622   2.559   1.273   2.784
 4872TIP3    H214623   2.704   1.317   2.785
 4873TIP3   OH214624   1.457   3.005   2.636
 4873TIP3    H114625   1.518   2.933   2.623
 4873TIP3    H214626   1.397   3.000   2.561
 4874TIP3   OH214627   0.247   5.670   2.226
 4874TIP3    H114628   0.157   5.645   2.245
 4874TIP3    H214629   0.241   5.741   2.162
 4875TIP3   OH214630   5.630   5.146   3.620
 4875TIP3    H114631   5.650   5.174   3.709
 4875TIP3    H214632   5.710   5.167   3.570
 4876TIP3   OH214633   1.671   1.898   3.387
 4876TIP3    H114634   1.713   1.926   3.468
 4876TIP3    H214635   1.741   1.903   3.321
 4877TIP3   OH214636   1.349   3.846   4.080
 4877TIP3    H114637   1.308   3.824   3.996
 4877TIP3    H214638   1.443   3.845   4.061
 4878TIP3   OH214639   1.832   4.742   3.896
 4878TIP3    H114640   1.908   4.697   3.859
 4878TIP3    H214641   1.761   4.677   3.893
 4879TIP3   OH214642   2.277   4.981   0.066
 4879TIP3    H114643   2.250   5.069   0.092
 4879TIP3    H214644   2.222   4.922   0.118
 4880TIP3   OH214645   4.979   2.522   1.089
 4880TIP3    H114646   5.037   2.447   1.075
 4880TIP3    H214647   5.036   2.593   1.117
 4881TIP3   OH214648   2.066   0.426   3.495
 4881TIP3    H114649   2.077   0.384   3.581
 4881TIP3    H214650   1.998   0.491   3.510
 4882TIP3   OH214651   1.261   3.598   1.836
 4882TIP3    H114652   1.199   3.577   1.766
 4882TIP3    H214653   1.338   3.544   1.816
 4883TIP3   OH214654   1.861   2.529   4.312
 4883TIP3    H114655   1.881   2.514   4.219
 4883TIP3    H214656   1.834   2.444   4.345
 4884TIP3   OH214657   2.212   1.741   3.033
 4884TIP3    H114658   2.141   1.730   2.970
 4884TIP3    H214659   2.169   1.736   3.119
 4885TIP3   OH214660   0.029   1.837   1.705
 4885TIP3    H114661   0.066   1.752   1.731
 4885TIP3    H214662   0.072   1.900   1.762
 4886TIP3   OH214663   5.848   0.433   3.465
 4886TIP3    H114664   5.865   0.339   3.457
 4886TIP3    H214665   5.758   0.438   3.496
 4887TIP3   OH214666   0.386   4.229   4.262
 4887TIP3    H114667   0.474   4.194   4.279
 4887TIP3    H214668   0.327   4.162   4.296
 4888TIP3   OH214669   3.369   3.310   3.017
 4888TIP3    H114670   3.363   3.397   2.978
 4888TIP3    H214671   3.279   3.278   3.020
 4889TIP3   OH214672   0.538   0.810   0.967
 4889TIP3    H114673   0.497   0.891   0.998
 4889TIP3    H214674   0.600   0.838   0.900
 4890TIP3   OH214675   5.598   3.834   3.847
 4890TIP3    H114676   5.566   3.885   3.922
 4890TIP3    H214677   5.519   3.803   3.803
 4891TIP3   OH214678   1.092   2.461   5.174
 4891TIP3    H114679   1.078   2.383   5.120
 4891TIP3    H214680   1.116   2.529   5.111
 4892TIP3   OH214681   2.328   3.706   1.772
 4892TIP3    H114682   2.240   3.724   1.738
 4892TIP3    H214683   2.348   3.781   1.828
 4893TIP3   OH214684   6.215   0.995   0.272
 4893TIP3    H114685   6.206   1.090   0.278
 4893TIP3    H214686   6.183   0.973   0.184
 4894TIP3   OH214687   5.520   1.563   3.409
 4894TIP3    H114688   5.465   1.492   3.443
 4894TIP3    H214689   5.547   1.612   3.486
 4895TIP3   OH214690   4.626   4.509   0.708
 4895TIP3    H114691   4.556   4.535   0.648
 4895TIP3    H214692   4.698   4.484   0.650
 4896TIP3   OH214693   2.385   2.916   0.334
 4896TIP3    H114694   2.302   2.960   0.316
 4896TIP3    H214695   2.410   2.948   0.421
 4897TIP3   OH214696   0.757   2.979   4.274
 4897TIP3    H114697   0.763   3.074   4.271
 4897TIP3    H214698   0.784   2.951   4.186
 4898TIP3   OH214699   0.298   3.608   1.176
 4898TIP3    H114700   0.350   3.544   1.127
 4898TIP3    H214701   0.224   3.628   1.119
 4899TIP3   OH214702   4.196   3.218   2.883
 4899TIP3    H114703   4.240   3.193   2.802
 4899TIP3    H214704   4.267   3.247   2.940
 4900TIP3   OH214705   5.683   0.286   2.738
 4900TIP3    H114706   5.745   0.350   2.702
 4900TIP3    H214707   5.609   0.288   2.677
 4901TIP3   OH214708   5.769   2.361   3.612
 4901TIP3    H114709   5.833   2.294   3.635
 4901TIP3    H214710   5.744   2.340   3.522
 4902TIP3   OH214711   2.682   4.294   0.571
 4902TIP3    H114712   2.684   4.318   0.478
 4902TIP3    H214713   2.623   4.358   0.611
 4903TIP3   OH214714   2.127   0.857   3.980
 4903TIP3    H114715   2.202   0.797   3.982
 4903TIP3    H214716   2.114   0.884   4.071
 4904TIP3   OH214717   5.817   3.493   3.591
 4904TIP3    H114718   5.879   3.565   3.603
 4904TIP3    H214719   5.785   3.504   3.501
 4905TIP3   OH214720   0.185   2.702   4.848
 4905TIP3    H114721   0.141   2.619   4.867
 4905TIP3    H214722   0.268   2.696   4.895
 4906TIP3   OH214723   5.165   5.673   0.723
 4906TIP3    H114724   5.142   5.629   0.805
 4906TIP3    H214725   5.245   5.721   0.742
 4907TIP3   OH214726   3.799   0.454   2.908
 4907TIP3    H114727   3.798   0.373   2.959
 4907TIP3    H214728   3.808   0.523   2.974
 4908TIP3   OH214729   4.634   3.601   3.925
 4908TIP3    H114730   4.546   3.565   3.935
 4908TIP3    H214731   4.662   3.574   3.838
 4909TIP3   OH214732   0.687   3.240   0.326
 4909TIP3    H114733   0.656   3.186   0.253
 4909TIP3    H214734   0.762   3.288   0.291
 4910TIP3   OH214735   2.579   0.425   0.899
 4910TIP3    H114736   2.621   0.407   0.816
 4910TIP3    H214737   2.596   0.347   0.952
 4911TIP3   OH214738   1.602   0.451   4.463
 4911TIP3    H114739   1.521   0.414   4.497
 4911TIP3    H214740   1.615   0.531   4.514
 4912TIP3   OH214741   2.731   5.253   4.705
 4912TIP3    H114742   2.776   5.214   4.630
 4912TIP3    H214743   2.638   5.237   4.689
 4913TIP3   OH214744   5.432   4.034   0.725
 4913TIP3    H114745   5.503   4.044   0.663
 4913TIP3    H214746   5.448   3.949   0.767
 4914TIP3   OH214747   1.339   1.265   3.472
 4914TIP3    H114748   1.333   1.283   3.379
 4914TIP3    H214749   1.261   1.307   3.510
 4915TIP3   OH214750   0.717   3.155   1.814
 4915TIP3    H114751   0.680   3.112   1.737
 4915TIP3    H214752   0.795   3.199   1.781
 4916TIP3   OH214753   0.782   1.121   3.076
 4916TIP3    H114754   0.826   1.039   3.053
 4916TIP3    H214755   0.701   1.093   3.119
 4917TIP3   OH214756   3.487   4.640   3.699
 4917TIP3    H114757   3.399   4.614   3.670
 4917TIP3    H214758   3.541   4.633   3.621
 4918TIP3   OH214759   2.398   0.481   1.788
 4918TIP3    H114760   2.304   0.480   1.807
 4918TIP3    H214761   2.405   0.450   1.698
 4919TIP3   OH214762   2.914   1.070   1.635
 4919TIP3    H114763   2.870   1.121   1.567
 4919TIP3    H214764   2.860   0.991   1.644
 4920TIP3   OH214765   5.696   1.274   2.808
 4920TIP3    H114766   5.723   1.201   2.865
 4920TIP3    H214767   5.758   1.272   2.735
 4921TIP3   OH214768   2.012   2.627   1.021
 4921TIP3    H114769   2.053   2.657   0.940
 4921TIP3    H214770   2.082   2.581   1.068
 4922TIP3   OH214771   5.690   4.564   2.230
 4922TIP3    H114772   5.729   4.478   2.218
 4922TIP3    H214773   5.674   4.571   2.324
 4923TIP3   OH214774   2.795   4.464   3.735
 4923TIP3    H114775   2.881   4.505   3.729
 4923TIP3    H214776   2.782   4.422   3.650
 4924TIP3   OH214777   3.511   0.849   1.740
 4924TIP3    H114778   3.446   0.789   1.776
 4924TIP3    H214779   3.518   0.919   1.805
 4925TIP3   OH214780   4.972   3.347   3.224
 4925TIP3    H114781   4.983   3.442   3.230
 4925TIP3    H214782   4.932   3.333   3.138
 4926TIP3   OH214783   4.286   0.256   0.931
 4926TIP3    H114784   4.314   0.165   0.923
 4926TIP3    H214785   4.243   0.260   1.017
 4927TIP3   OH214786   2.754   4.055   0.473
 4927TIP3    H114787   2.722   3.998   0.543
 4927TIP3    H214788   2.777   4.137   0.518
 4928TIP3   OH214789   0.336   5.245   0.225
 4928TIP3    H114790   0.371   5.325   0.186
 4928TIP3    H214791   0.350   5.257   0.319
 4929TIP3   OH214792   4.919   1.521   1.956
 4929TIP3    H114793   4.936   1.428   1.969
 4929TIP3    H214794   4.860   1.544   2.028
 4930TIP3   OH214795   2.528   2.330   0.307
 4930TIP3    H114796   2.440   2.327   0.343
 4930TIP3    H214797   2.545   2.423   0.291
 4931TIP3   OH214798   0.847   2.806   0.041
 4931TIP3    H114799   0.767   2.823  -0.008
 4931TIP3    H214800   0.825   2.733   0.098
 4932TIP3   OH214801   3.648   3.707   3.081
 4932TIP3    H114802   3.726   3.651   3.086
 4932TIP3    H214803   3.676   3.783   3.031
 4933TIP3   OH214804   0.119   5.123   4.653
 4933TIP3    H114805   0.205   5.082   4.654
 4933TIP3    H214806   0.106   5.150   4.562
 4934TIP3   OH214807   5.395   1.833   2.926
 4934TIP3    H114808   5.406   1.783   3.007
 4934TIP3    H214809   5.453   1.908   2.936
 4935TIP3   OH214810   5.397   5.397   1.768
 4935TIP3    H114811   5.411   5.489   1.792
 4935TIP3    H214812   5.481   5.369   1.732
 4936TIP3   OH214813   0.018   0.563   4.899
 4936TIP3    H114814   0.073   0.546   4.976
 4936TIP3    H214815   0.036   0.490   4.840
 4937TIP3   OH214816   0.792   2.875   4.017
 4937TIP3    H114817   0.878   2.861   3.977
 4937TIP3    H214818   0.730   2.837   3.954
 4938TIP3   OH214819   1.390   0.763   0.804
 4938TIP3    H114820   1.346   0.767   0.719
 4938TIP3    H214821   1.376   0.850   0.842
 4939TIP3   OH214822   5.078   2.284   0.614
 4939TIP3    H114823   5.107   2.286   0.705
 4939TIP3    H214824   5.029   2.202   0.607
 4940TIP3   OH214825   3.976   0.991   1.899
 4940TIP3    H114826   3.908   0.938   1.857
 4940TIP3    H214827   3.981   0.958   1.988
 4941TIP3   OH214828   5.180   1.331   5.090
 4941TIP3    H114829   5.122   1.405   5.105
 4941TIP3    H214830   5.253   1.344   5.151
 4942TIP3   OH214831   5.303   3.364   3.483
 4942TIP3    H114832   5.301   3.341   3.576
 4942TIP3    H214833   5.297   3.279   3.438
 4943TIP3   OH214834   4.960   4.176   0.108
 4943TIP3    H114835   4.909   4.122   0.168
 4943TIP3    H214836   4.994   4.247   0.162
 4944TIP3   OH214837   1.050   2.910   1.360
 4944TIP3    H114838   1.121   2.881   1.302
 4944TIP3    H214839   1.084   2.989   1.402
 4945TIP3   OH214840   2.978   1.156   5.062
 4945TIP3    H114841   2.928   1.168   5.143
 4945TIP3    H214842   2.942   1.220   5.001
 4946TIP3   OH214843   4.980   5.398   4.997
 4946TIP3    H114844   4.967   5.487   4.964
 4946TIP3    H214845   4.994   5.345   4.918
 4947TIP3   OH214846   2.242   1.463   3.776
 4947TIP3    H114847   2.167   1.408   3.797
 4947TIP3    H214848   2.212   1.552   3.794
 4948TIP3   OH214849   0.180   0.130   3.451
 4948TIP3    H114850   0.252   0.077   3.418
 4948TIP3    H214851   0.223   0.206   3.490
 4949TIP3   OH214852   5.987   5.462   2.225
 4949TIP3    H114853   6.016   5.483   2.314
 4949TIP3    H214854   5.981   5.367   2.224
 4950TIP3   OH214855   2.522   1.448   3.705
 4950TIP3    H114856   2.562   1.361   3.707
 4950TIP3    H214857   2.429   1.432   3.726
 4951TIP3   OH214858   2.622   5.286   0.682
 4951TIP3    H114859   2.690   5.321   0.624
 4951TIP3    H214860   2.583   5.363   0.723
 4952TIP3   OH214861   4.841   0.843   1.045
 4952TIP3    H114862   4.920   0.805   1.007
 4952TIP3    H214863   4.786   0.768   1.066
 4953TIP3   OH214864   4.391   2.179   2.856
 4953TIP3    H114865   4.452   2.119   2.812
 4953TIP3    H214866   4.397   2.260   2.805
 4954TIP3   OH214867   6.081   0.063   1.888
 4954TIP3    H114868   6.061  -0.001   1.955
 4954TIP3    H214869   5.996   0.093   1.856
 4955TIP3   OH214870   4.008   0.871   4.025
 4955TIP3    H114871   4.056   0.808   4.079
 4955TIP3    H214872   4.075   0.909   3.968
 4956TIP3   OH214873   1.099   1.901   4.732
 4956TIP3    H114874   1.009   1.893   4.764
 4956TIP3    H214875   1.123   1.992   4.751
 4957TIP3   OH214876   0.773   0.085   3.309
 4957TIP3    H114877   0.832   0.156   3.284
 4957TIP3    H214878   0.718   0.123   3.379
 4958TIP3   OH214879   6.285   0.938   3.975
 4958TIP3    H114880   6.357   1.000   3.969
 4958TIP3    H214881   6.240   0.945   3.890
 4959TIP3   OH214882   5.361   5.257   4.793
 4959TIP3    H114883   5.439   5.220   4.752
 4959TIP3    H214884   5.376   5.248   4.887
 4960TIP3   OH214885   1.820   2.656   3.620
 4960TIP3    H114886   1.774   2.635   3.701
 4960TIP3    H214887   1.785   2.595   3.555
 4961TIP3   OH214888   1.840   3.205   1.598
 4961TIP3    H114889   1.844   3.115   1.631
 4961TIP3    H214890   1.882   3.257   1.665
 4962TIP3   OH214891   1.605   4.274   4.479
 4962TIP3    H114892   1.617   4.179   4.485
 4962TIP3    H214893   1.677   4.311   4.529
 4963TIP3   OH214894   2.638   2.312   2.822
 4963TIP3    H114895   2.591   2.373   2.765
 4963TIP3    H214896   2.627   2.348   2.910
 4964TIP3   OH214897   5.214   3.983   1.521
 4964TIP3    H114898   5.243   4.071   1.546
 4964TIP3    H214899   5.223   3.981   1.426
 4965TIP3   OH214900   2.506   3.996   5.118
 4965TIP3    H114901   2.485   3.999   5.212
 4965TIP3    H214902   2.431   4.038   5.076
 4966TIP3   OH214903   4.811   0.418   3.747
 4966TIP3    H114904   4.841   0.390   3.834
 4966TIP3    H214905   4.860   0.364   3.686
 4967TIP3   OH214906   0.898   4.682   5.135
 4967TIP3    H114907   0.861   4.706   5.050
 4967TIP3    H214908   0.856   4.742   5.197
 4968TIP3   OH214909   0.901   2.891   2.029
 4968TIP3    H114910   0.968   2.824   2.042
 4968TIP3    H214911   0.947   2.962   1.984
 4969TIP3   OH214912   2.277   1.139   1.681
 4969TIP3    H114913   2.285   1.207   1.747
 4969TIP3    H214914   2.364   1.098   1.678
 4970TIP3   OH214915   3.668   2.159   2.125
 4970TIP3    H114916   3.602   2.102   2.085
 4970TIP3    H214917   3.717   2.101   2.183
 4971TIP3   OH214918   1.871   5.564   0.446
 4971TIP3    H114919   1.931   5.557   0.521
 4971TIP3    H214920   1.802   5.623   0.477
 4972TIP3   OH214921   0.272   4.231   2.880
 4972TIP3    H114922   0.244   4.169   2.948
 4972TIP3    H214923   0.197   4.237   2.821
 4973TIP3   OH214924   1.057   1.255   4.122
 4973TIP3    H114925   0.998   1.330   4.113
 4973TIP3    H214926   1.123   1.269   4.054
 4974TIP3   OH214927   5.987   1.875   1.008
 4974TIP3    H114928   5.922   1.880   1.078
 4974TIP3    H214929   6.065   1.916   1.045
 4975TIP3   OH214930   3.232   1.280   2.008
 4975TIP3    H114931   3.140   1.277   2.035
 4975TIP3    H214932   3.231   1.256   1.915
 4976TIP3   OH214933   5.226   5.769   2.041
 4976TIP3    H114934   5.199   5.757   1.950
 4976TIP3    H214935   5.152   5.737   2.092
 4977TIP3   OH214936   3.838   4.165   1.182
 4977TIP3    H114937   3.838   4.141   1.275
 4977TIP3    H214938   3.930   4.185   1.163
 4978TIP3   OH214939   4.366   2.304   3.238
 4978TIP3    H114940   4.451   2.264   3.259
 4978TIP3    H214941   4.388   2.383   3.188
 4979TIP3   OH214942   3.175   4.675   1.463
 4979TIP3    H114943   3.222   4.610   1.411
 4979TIP3    H214944   3.242   4.741   1.485
 4980TIP3   OH214945   4.114   3.001   4.073
 4980TIP3    H114946   4.199   3.007   4.117
 4980TIP3    H214947   4.134   2.966   3.986
 4981TIP3   OH214948   2.093   2.457   4.752
 4981TIP3    H114949   2.185   2.472   4.775
 4981TIP3    H214950   2.097   2.393   4.681
 4982TIP3   OH214951   3.218   1.638   4.516
 4982TIP3    H114952   3.205   1.650   4.422
 4982TIP3    H214953   3.131   1.654   4.554
 4983TIP3   OH214954   2.384   4.141   0.580
 4983TIP3    H114955   2.313   4.104   0.527
 4983TIP3    H214956   2.446   4.069   0.589
 4984TIP3   OH214957   6.061   2.253   4.216
 4984TIP3    H114958   6.110   2.190   4.269
 4984TIP3    H214959   6.084   2.339   4.253
 4985TIP3   OH214960   1.161   1.655   1.070
 4985TIP3    H114961   1.070   1.685   1.075
 4985TIP3    H214962   1.161   1.570   1.114
 4986TIP3   OH214963   5.548   0.892   1.955
 4986TIP3    H114964   5.558   0.797   1.959
 4986TIP3    H214965   5.615   0.926   2.014
 4987TIP3   OH214966   2.969   2.226   1.008
 4987TIP3    H114967   2.981   2.211   0.914
 4987TIP3    H214968   2.914   2.304   1.013
 4988TIP3   OH214969   4.057   2.555   3.790
 4988TIP3    H114970   4.018   2.641   3.777
 4988TIP3    H214971   4.021   2.502   3.719
 4989TIP3   OH214972   5.897   4.750   4.064
 4989TIP3    H114973   5.813   4.781   4.100
 4989TIP3    H214974   5.936   4.828   4.025
 4990TIP3   OH214975   1.361   2.948   0.710
 4990TIP3    H114976   1.379   2.891   0.635
 4990TIP3    H214977   1.442   2.949   0.761
 4991TIP3   OH214978   0.089   1.000   3.575
 4991TIP3    H114979   0.087   1.006   3.479
 4991TIP3    H214980   0.053   1.084   3.605
 4992TIP3   OH214981   1.033   3.585   0.567
 4992TIP3    H114982   1.084   3.504   0.555
 4992TIP3    H214983   1.059   3.616   0.654
 4993TIP3   OH214984   5.818   1.122   0.319
 4993TIP3    H114985   5.869   1.103   0.397
 4993TIP3    H214986   5.847   1.209   0.292
 4994TIP3   OH214987   4.554   3.272   4.901
 4994TIP3    H114988   4.648   3.254   4.898
 4994TIP3    H214989   4.531   3.295   4.811
 4995TIP3   OH214990   3.676   0.266   1.202
 4995TIP3    H114991   3.676   0.200   1.271
 4995TIP3    H214992   3.736   0.334   1.234
 4996TIP3   OH214993   5.524   3.890   4.095
 4996TIP3    H114994   5.618   3.878   4.100
 4996TIP3    H214995   5.492   3.869   4.183
 4997TIP3   OH214996   4.835   0.935   1.958
 4997TIP3    H114997   4.912   0.916   2.012
 4997TIP3    H214998   4.832   0.864   1.894
 4998TIP3   OH214999   0.178   5.842   0.210
 4998TIP3    H115000   0.249   5.840   0.274
 4998TIP3    H215001   0.171   5.934   0.184
 4999TIP3   OH215002   2.454   4.906   0.913
 4999TIP3    H115003   2.485   4.992   0.942
 4999TIP3    H215004   2.373   4.925   0.866
 5000TIP3   OH215005   1.168   0.200   4.474
 5000TIP3    H115006   1.138   0.112   4.494
 5000TIP3    H215007   1.092   0.243   4.435
 5001TIP3   OH215008   0.966   2.793   5.049
 5001TIP3    H115009   1.044   2.819   5.001
 5001TIP3    H215010   0.915   2.742   4.986
 5002TIP3   OH215011   4.158   5.561   0.011
 5002TIP3    H115012   4.222   5.536   0.077
 5002TIP3    H215013   4.190   5.644  -0.024
 5003TIP3   OH215014   2.966   1.462   4.052
 5003TIP3    H115015   2.973   1.466   3.957
 5003TIP3    H215016   2.899   1.526   4.074
 5004TIP3   OH215017   1.031   3.956   4.034
 5004TIP3    H115018   1.028   3.896   3.960
 5004TIP3    H215019   1.028   4.043   3.995
 5005TIP3   OH215020   6.136   4.557   1.246
 5005TIP3    H115021   6.170   4.528   1.331
 5005TIP3    H215022   6.145   4.481   1.189
 5006TIP3   OH215023   0.232   1.885   0.379
 5006TIP3    H115024   0.312   1.934   0.396
 5006TIP3    H215025   0.165   1.926   0.435
 5007TIP3   OH215026   0.709   1.979   0.839
 5007TIP3    H115027   0.771   1.946   0.774
 5007TIP3    H215028   0.733   2.071   0.850
 5008TIP3   OH215029   2.926   1.707   5.163
 5008TIP3    H115030   2.863   1.661   5.107
 5008TIP3    H215031   3.007   1.707   5.112
 5009TIP3   OH215032   4.827   4.731   1.443
 5009TIP3    H115033   4.876   4.809   1.469
 5009TIP3    H215034   4.881   4.658   1.473
 5010TIP3   OH215035   5.727   3.884   4.983
 5010TIP3    H115036   5.648   3.836   4.957
 5010TIP3    H215037   5.797   3.819   4.978
 5011TIP3   OH215038   3.675   0.280   4.717
 5011TIP3    H115039   3.732   0.204   4.732
 5011TIP3    H215040   3.725   0.354   4.753
 5012TIP3   OH215041   2.900   4.629   5.018
 5012TIP3    H115042   2.970   4.564   5.015
 5012TIP3    H215043   2.837   4.599   4.953
 5013TIP3   OH215044   3.322   3.476   0.445
 5013TIP3    H115045   3.397   3.442   0.494
 5013TIP3    H215046   3.300   3.407   0.382
 5014TIP3   OH215047   3.516   3.413   5.019
 5014TIP3    H115048   3.533   3.507   5.007
 5014TIP3    H215049   3.474   3.407   5.104
 5015TIP3   OH215050   5.011   0.275   3.058
 5015TIP3    H115051   4.931   0.327   3.065
 5015TIP3    H215052   5.063   0.320   2.991
 5016TIP3   OH215053   0.578   0.041   2.008
 5016TIP3    H115054   0.656   0.032   1.953
 5016TIP3    H215055   0.506   0.050   1.946
 5017TIP3   OH215056   5.060   2.953   2.515
 5017TIP3    H115057   5.110   2.900   2.453
 5017TIP3    H215058   5.068   3.043   2.482
 5018TIP3   OH215059   0.164   5.240   0.914
 5018TIP3    H115060   0.093   5.281   0.863
 5018TIP3    H215061   0.124   5.161   0.950
 5019TIP3   OH215062   2.327   5.261   2.403
 5019TIP3    H115063   2.281   5.256   2.319
 5019TIP3    H215064   2.364   5.174   2.415
 5020TIP3   OH215065   3.375   4.862   1.501
 5020TIP3    H115066   3.345   4.913   1.576
 5020TIP3    H215067   3.356   4.918   1.425
 5021TIP3   OH215068   1.244   2.053   2.241
 5021TIP3    H115069   1.301   2.129   2.225
 5021TIP3    H215070   1.286   1.981   2.194
 5022TIP3   OH215071   3.215   5.740   0.468
 5022TIP3    H115072   3.148   5.672   0.456
 5022TIP3    H215073   3.172   5.806   0.522
 5023TIP3   OH215074   5.806   2.808   1.871
 5023TIP3    H115075   5.853   2.810   1.788
 5023TIP3    H215076   5.754   2.888   1.871
 5024TIP3   OH215077   3.978   1.544   0.206
 5024TIP3    H115078   4.041   1.583   0.267
 5024TIP3    H215079   4.013   1.563   0.120
 5025TIP3   OH215080   3.612   4.320   1.233
 5025TIP3    H115081   3.664   4.340   1.311
 5025TIP3    H215082   3.670   4.266   1.179
 5026TIP3   OH215083   1.256   1.186   1.279
 5026TIP3    H115084   1.217   1.170   1.365
 5026TIP3    H215085   1.182   1.214   1.224
 5027TIP3   OH215086   5.773   1.030   3.751
 5027TIP3    H115087   5.701   1.081   3.714
 5027TIP3    H215088   5.823   1.001   3.674
 5028TIP3   OH215089   1.036   3.072   4.122
 5028TIP3    H115090   1.117   3.121   4.106
 5028TIP3    H215091   0.979   3.135   4.166
 5029TIP3   OH215092   0.385   1.451   2.752
 5029TIP3    H115093   0.430   1.412   2.827
 5029TIP3    H215094   0.318   1.387   2.729
 5030TIP3   OH215095   5.586   1.376   0.629
 5030TIP3    H115096   5.506   1.399   0.581
 5030TIP3    H215097   5.655   1.425   0.585
 5031TIP3   OH215098   3.284   4.461   3.244
 5031TIP3    H115099   3.255   4.431   3.158
 5031TIP3    H215100   3.217   4.524   3.271
 5032TIP3   OH215101   0.004   4.978   2.806
 5032TIP3    H115102   0.056   4.918   2.752
 5032TIP3    H215103  -0.079   4.932   2.819
 5033TIP3   OH215104   0.256   2.389   2.141
 5033TIP3    H115105   0.337   2.422   2.104
 5033TIP3    H215106   0.187   2.437   2.095
 5034TIP3   OH215107   0.674   0.354   2.492
 5034TIP3    H115108   0.758   0.387   2.524
 5034TIP3    H215109   0.694   0.312   2.409
 5035TIP3   OH215110   2.460   5.479   3.441
 5035TIP3    H115111   2.387   5.460   3.499
 5035TIP3    H215112   2.463   5.406   3.380
 5036TIP3   OH215113   6.262   4.156   2.303
 5036TIP3    H115114   6.243   4.121   2.216
 5036TIP3    H215115   6.227   4.245   2.300
 5037TIP3   OH215116   0.223   3.463   3.496
 5037TIP3    H115117   0.318   3.455   3.493
 5037TIP3    H215118   0.192   3.376   3.523
 5038TIP3   OH215119   3.765   4.954   2.608
 5038TIP3    H115120   3.718   4.918   2.532
 5038TIP3    H215121   3.854   4.919   2.600
 5039TIP3   OH215122   4.242   2.720   2.362
 5039TIP3    H115123   4.174   2.672   2.409
 5039TIP3    H215124   4.195   2.791   2.317
 5040TIP3   OH215125   6.270   3.423   4.416
 5040TIP3    H115126   6.207   3.362   4.378
 5040TIP3    H215127   6.329   3.367   4.468
 5041TIP3   OH215128   0.534  -0.028   4.682
 5041TIP3    H115129   0.551   0.063   4.658
 5041TIP3    H215130   0.468  -0.022   4.751
 5042TIP3   OH215131   1.772   4.306   2.376
 5042TIP3    H115132   1.802   4.242   2.441
 5042TIP3    H215133   1.852   4.342   2.338
 5043TIP3   OH215134   4.509   4.845   2.715
 5043TIP3    H115135   4.592   4.851   2.761
 5043TIP3    H215136   4.510   4.758   2.675
 5044TIP3   OH215137   3.573   5.732   3.542
 5044TIP3    H115138   3.518   5.699   3.613
 5044TIP3    H215139   3.632   5.659   3.521
 5045TIP3   OH215140   3.123   1.008   2.209
 5045TIP3    H115141   3.102   0.917   2.189
 5045TIP3    H215142   3.211   1.022   2.174
 5046TIP3   OH215143   2.463   0.996   3.728
 5046TIP3    H115144   2.445   1.059   3.799
 5046TIP3    H215145   2.549   0.961   3.748
 5047TIP3   OH215146   0.738   2.727   2.808
 5047TIP3    H115147   0.718   2.646   2.855
 5047TIP3    H215148   0.814   2.706   2.754
 5048TIP3   OH215149   1.896   5.642   3.435
 5048TIP3    H115150   1.921   5.617   3.524
 5048TIP3    H215151   1.957   5.595   3.379
 5049TIP3   OH215152   4.005   5.950   1.059
 5049TIP3    H115153   4.079   5.889   1.063
 5049TIP3    H215154   3.936   5.908   1.111
 5050TIP3   OH215155   3.101   1.777   2.284
 5050TIP3    H115156   3.041   1.705   2.266
 5050TIP3    H215157   3.050   1.839   2.336
 5051TIP3   OH215158   4.303   5.601   2.177
 5051TIP3    H115159   4.301   5.687   2.134
 5051TIP3    H215160   4.310   5.538   2.105
 5052TIP3   OH215161   3.781   5.364   0.760
 5052TIP3    H115162   3.839   5.438   0.740
 5052TIP3    H215163   3.748   5.336   0.675
 5053TIP3   OH215164   0.023   0.365   0.212
 5053TIP3    H115165   0.078   0.443   0.202
 5053TIP3    H215166   0.045   0.331   0.298
 5054TIP3   OH215167   6.107   3.001   1.308
 5054TIP3    H115168   6.104   3.074   1.246
 5054TIP3    H215169   6.015   2.976   1.320
 5055TIP3   OH215170   0.938   0.243   1.589
 5055TIP3    H115171   0.968   0.332   1.575
 5055TIP3    H215172   0.973   0.219   1.675
 5056TIP3   OH215173   2.399   0.628   0.787
 5056TIP3    H115174   2.450   0.559   0.829
 5056TIP3    H215175   2.356   0.674   0.859
 5057TIP3   OH215176   3.501   0.910   3.017
 5057TIP3    H115177   3.532   0.920   3.107
 5057TIP3    H215178   3.500   0.816   3.003
 5058TIP3   OH215179   6.052   0.581   2.369
 5058TIP3    H115180   6.057   0.523   2.293
 5058TIP3    H215181   6.044   0.522   2.444
 5059TIP3   OH215182   5.193   2.681   0.151
 5059TIP3    H115183   5.242   2.725   0.081
 5059TIP3    H215184   5.229   2.592   0.153
 5060TIP3   OH215185   3.105   0.422   4.964
 5060TIP3    H115186   3.121   0.486   4.895
 5060TIP3    H215187   3.080   0.342   4.917
 5061TIP3   OH215188   5.065   0.378   4.730
 5061TIP3    H115189   5.040   0.309   4.791
 5061TIP3    H215190   4.982   0.405   4.689
 5062TIP3   OH215191   1.549   4.437   0.327
 5062TIP3    H115192   1.599   4.467   0.251
 5062TIP3    H215193   1.613   4.392   0.382
 5063TIP3   OH215194   5.477   1.734   0.050
 5063TIP3    H115195   5.456   1.689  -0.032
 5063TIP3    H215196   5.404   1.712   0.108
 5064TIP3   OH215197   0.951   2.876   2.984
 5064TIP3    H115198   0.902   2.795   2.966
 5064TIP3    H215199   0.889   2.930   3.033
 5065TIP3   OH215200   3.375   3.704   3.181
 5065TIP3    H115201   3.360   3.784   3.230
 5065TIP3    H215202   3.443   3.727   3.117
 5066TIP3   OH215203   4.345   0.218   1.915
 5066TIP3    H115204   4.344   0.284   1.985
 5066TIP3    H215205   4.273   0.244   1.857
 5067TIP3   OH215206   5.474   0.331   2.933
 5067TIP3    H115207   5.464   0.252   2.986
 5067TIP3    H215208   5.554   0.317   2.883
 5068TIP3   OH215209   5.556   1.776   2.001
 5068TIP3    H115210   5.498   1.785   1.925
 5068TIP3    H215211   5.498   1.747   2.072
 5069TIP3   OH215212   4.409   2.916   2.529
 5069TIP3    H115213   4.380   2.836   2.485
 5069TIP3    H215214   4.447   2.969   2.459
 5070TIP3   OH215215   2.250   4.004   2.734
 5070TIP3    H115216   2.200   4.031   2.811
 5070TIP3    H215217   2.228   3.912   2.722
 5071TIP3   OH215218   3.474   2.064   3.815
 5071TIP3    H115219   3.509   2.051   3.903
 5071TIP3    H215220   3.527   2.136   3.779
 5072TIP3   OH215221   5.853   3.497   2.115
 5072TIP3    H115222   5.922   3.544   2.069
 5072TIP3    H215223   5.777   3.555   2.109
 5073TIP3   OH215224   4.943   3.897   3.892
 5073TIP3    H115225   4.973   3.923   3.805
 5073TIP3    H215226   4.979   3.809   3.904
 5074TIP3   OH215227   6.245   1.734   3.566
 5074TIP3    H115228   6.333   1.771   3.563
 5074TIP3    H215229   6.187   1.808   3.549
 5075TIP3   OH215230   0.199   0.419   4.162
 5075TIP3    H115231   0.153   0.502   4.159
 5075TIP3    H215232   0.197   0.387   4.072
 5076TIP3   OH215233   4.152   1.500   2.250
 5076TIP3    H115234   4.103   1.569   2.296
 5076TIP3    H215235   4.144   1.524   2.157
 5077TIP3   OH215236   0.691   2.795   4.463
 5077TIP3    H115237   0.714   2.716   4.415
 5077TIP3    H215238   0.717   2.867   4.405
 5078TIP3   OH215239   0.926   0.620   1.602
 5078TIP3    H115240   0.960   0.613   1.513
 5078TIP3    H215241   1.003   0.614   1.658
 5079TIP3   OH215242   0.142   4.937   1.432
 5079TIP3    H115243   0.148   5.033   1.431
 5079TIP3    H215244   0.049   4.919   1.443
 5080TIP3   OH215245   5.869   0.979   1.048
 5080TIP3    H115246   5.852   0.969   0.954
 5080TIP3    H215247   5.814   1.053   1.074
 5081TIP3   OH215248   3.606   5.045   2.794
 5081TIP3    H115249   3.661   5.026   2.718
 5081TIP3    H215250   3.525   5.079   2.757
 5082TIP3   OH215251   3.498   4.498   4.868
 5082TIP3    H115252   3.545   4.553   4.805
 5082TIP3    H215253   3.503   4.547   4.950
 5083TIP3   OH215254   0.289   3.615   0.348
 5083TIP3    H115255   0.304   3.709   0.357
 5083TIP3    H215256   0.200   3.609   0.313
 5084TIP3   OH215257   2.340   5.506   5.092
 5084TIP3    H115258   2.408   5.519   5.159
 5084TIP3    H215259   2.329   5.592   5.053
 5085TIP3   OH215260   4.482   0.903   2.640
 5085TIP3    H115261   4.460   0.893   2.547
 5085TIP3    H215262   4.428   0.977   2.669
 5086TIP3   OH215263   6.059   4.939   1.858
 5086TIP3    H115264   6.137   4.886   1.843
 5086TIP3    H215265   6.004   4.885   1.915
 5087TIP3   OH215266   3.173   0.572   0.802
 5087TIP3    H115267   3.096   0.628   0.812
 5087TIP3    H215268   3.228   0.593   0.877
 5088TIP3   OH215269   3.195   0.053   1.932
 5088TIP3    H115270   3.228   0.067   1.844
 5088TIP3    H215271   3.252  -0.014   1.969
 5089TIP3   OH215272   3.818   3.139   0.315
 5089TIP3    H115273   3.848   3.170   0.400
 5089TIP3    H215274   3.762   3.209   0.282
 5090TIP3   OH215275   2.185   4.732   1.379
 5090TIP3    H115276   2.244   4.780   1.321
 5090TIP3    H215277   2.217   4.751   1.467
 5091TIP3   OH215278   3.996   1.674   2.429
 5091TIP3    H115279   3.931   1.701   2.494
 5091TIP3    H215280   4.080   1.692   2.470
 5092TIP3   OH215281   5.390   5.710   3.934
 5092TIP3    H115282   5.363   5.801   3.949
 5092TIP3    H215283   5.484   5.709   3.953
 5093TIP3   OH215284   3.309   5.010   3.430
 5093TIP3    H115285   3.279   4.985   3.517
 5093TIP3    H215286   3.375   4.945   3.407
 5094TIP3   OH215287   0.964   4.158   0.209
 5094TIP3    H115288   0.880   4.152   0.163
 5094TIP3    H215289   1.029   4.135   0.143
 5095TIP3   OH215290   1.182   1.828   3.892
 5095TIP3    H115291   1.142   1.741   3.898
 5095TIP3    H215292   1.263   1.813   3.844
 5096TIP3   OH215293   5.006   2.085   2.523
 5096TIP3    H115294   5.016   2.007   2.578
 5096TIP3    H215295   4.939   2.060   2.459
 5097TIP3   OH215296   2.185   1.617   2.138
 5097TIP3    H115297   2.250   1.550   2.161
 5097TIP3    H215298   2.234   1.680   2.085
 5098TIP3   OH215299   1.365   0.865   0.542
 5098TIP3    H115300   1.351   0.859   0.447
 5098TIP3    H215301   1.309   0.938   0.569
 5099TIP3   OH215302   4.504   5.759   1.478
 5099TIP3    H115303   4.539   5.670   1.489
 5099TIP3    H215304   4.561   5.799   1.412
 5100TIP3   OH215305   2.369   0.085   2.119
 5100TIP3    H115306   2.306   0.028   2.162
 5100TIP3    H215307   2.380   0.048   2.031
 5101TIP3   OH215308   1.634   0.439   1.043
 5101TIP3    H115309   1.727   0.430   1.064
 5101TIP3    H215310   1.620   0.534   1.037
 5102TIP3   OH215311   3.809   1.603   3.742
 5102TIP3    H115312   3.715   1.611   3.728
 5102TIP3    H215313   3.818   1.582   3.835
 5103TIP3   OH215314   6.171   5.062   3.195
 5103TIP3    H115315   6.134   5.072   3.282
 5103TIP3    H215316   6.141   4.977   3.165
 5104TIP3   OH215317   4.620   3.200   3.986
 5104TIP3    H115318   4.613   3.279   4.040
 5104TIP3    H215319   4.713   3.176   3.990
 5105TIP3   OH215320   3.168   5.839   5.012
 5105TIP3    H115321   3.077   5.867   5.027
 5105TIP3    H215322   3.197   5.806   5.097
 5106TIP3   OH215323   5.035   4.767   4.351
 5106TIP3    H115324   5.035   4.690   4.408
 5106TIP3    H215325   5.028   4.730   4.262
 5107TIP3   OH215326   4.245   4.823   3.625
 5107TIP3    H115327   4.309   4.894   3.633
 5107TIP3    H215328   4.296   4.744   3.643
 5108TIP3   OH215329   5.462   4.985   3.893
 5108TIP3    H115330   5.498   5.008   3.979
 5108TIP3    H215331   5.419   5.065   3.863
 5109TIP3   OH215332   2.553   4.668   0.973
 5109TIP3    H115333   2.511   4.753   0.962
 5109TIP3    H215334   2.637   4.687   1.015
 5110TIP3   OH215335   0.619   3.130   3.395
 5110TIP3    H115336   0.672   3.200   3.357
 5110TIP3    H215337   0.610   3.155   3.488
 5111TIP3   OH215338   2.128   5.788   0.347
 5111TIP3    H115339   2.114   5.852   0.277
 5111TIP3    H215340   2.057   5.805   0.409
 5112TIP3   OH215341   2.714   0.400   2.209
 5112TIP3    H115342   2.667   0.408   2.125
 5112TIP3    H215343   2.739   0.308   2.214
 5113TIP3   OH215344   1.315   3.469   1.580
 5113TIP3    H115345   1.410   3.481   1.591
 5113TIP3    H215346   1.292   3.526   1.507
 5114TIP3   OH215347   1.111   1.575   4.041
 5114TIP3    H115348   1.025   1.543   4.071
 5114TIP3    H215349   1.160   1.591   4.122
 5115TIP3   OH215350   1.703   1.168   3.843
 5115TIP3    H115351   1.767   1.225   3.885
 5115TIP3    H215352   1.639   1.228   3.804
 5116TIP3   OH215353   6.007   0.130   3.924
 5116TIP3    H115354   6.064   0.134   3.847
 5116TIP3    H215355   5.984   0.038   3.933
 5117TIP3   OH215356   5.842   3.825   0.164
 5117TIP3    H115357   5.912   3.844   0.227
 5117TIP3    H215358   5.776   3.778   0.215
 5118TIP3   OH215359   0.927   0.437   1.230
 5118TIP3    H115360   0.974   0.427   1.313
 5118TIP3    H215361   0.887   0.352   1.215
 5119TIP3   OH215362   5.871   1.305   3.602
 5119TIP3    H115363   5.797   1.253   3.571
 5119TIP3    H215364   5.884   1.372   3.535
 5120TIP3   OH215365   2.192   5.291   5.119
 5120TIP3    H115366   2.208   5.271   5.212
 5120TIP3    H215367   2.233   5.376   5.105
 5121TIP3   OH215368   0.181   4.739   2.384
 5121TIP3    H115369   0.195   4.669   2.320
 5121TIP3    H215370   0.125   4.802   2.340
 5122TIP3   OH215371   2.688   1.527   0.226
 5122TIP3    H115372   2.726   1.447   0.263
 5122TIP3    H215373   2.596   1.524   0.251
 5123TIP3   OH215374   6.284   0.586   2.107
 5123TIP3    H115375   6.318   0.600   2.018
 5123TIP3    H215376   6.194   0.557   2.093
 5124TIP3   OH215377   5.567   3.781   2.777
 5124TIP3    H115378   5.479   3.793   2.742
 5124TIP3    H215379   5.614   3.860   2.751
 5125TIP3   OH215380   1.966   5.773   1.147
 5125TIP3    H115381   1.957   5.748   1.055
 5125TIP3    H215382   1.988   5.866   1.145
 5126TIP3   OH215383   6.115   3.799   3.449
 5126TIP3    H115384   6.169   3.865   3.406
 5126TIP3    H215385   6.162   3.780   3.531
 5127TIP3   OH215386   1.882   4.614   4.332
 5127TIP3    H115387   1.850   4.568   4.254
 5127TIP3    H215388   1.844   4.566   4.405
 5128TIP3   OH215389   6.194   4.944   4.867
 5128TIP3    H115390   6.280   4.983   4.888
 5128TIP3    H215391   6.164   4.907   4.950
 5129TIP3   OH215392   1.395   0.551   0.312
 5129TIP3    H115393   1.461   0.507   0.364
 5129TIP3    H215394   1.327   0.576   0.375
 5130TIP3   OH215395   5.358   3.647   4.406
 5130TIP3    H115396   5.274   3.684   4.378
 5130TIP3    H215397   5.343   3.552   4.406
 5131TIP3   OH215398   2.830   2.762   2.525
 5131TIP3    H115399   2.843   2.725   2.438
 5131TIP3    H215400   2.825   2.857   2.510
 5132TIP3   OH215401   3.766   5.394   0.263
 5132TIP3    H115402   3.754   5.451   0.339
 5132TIP3    H215403   3.798   5.452   0.194
 5133TIP3   OH215404   1.411   1.471   2.611
 5133TIP3    H115405   1.424   1.426   2.695
 5133TIP3    H215406   1.352   1.543   2.632
 5134TIP3   OH215407   4.965   4.649   1.189
 5134TIP3    H115408   4.951   4.739   1.219
 5134TIP3    H215409   4.881   4.606   1.203
 5135TIP3   OH215410   1.190   0.738   1.634
 5135TIP3    H115411   1.264   0.790   1.604
 5135TIP3    H215412   1.228   0.654   1.660
 5136TIP3   OH215413   2.584   2.028  -0.026
 5136TIP3    H115414   2.505   2.079  -0.043
 5136TIP3    H215415   2.610   2.053   0.063
 5137TIP3   OH215416   3.355   1.486   0.036
 5137TIP3    H115417   3.278   1.433   0.056
 5137TIP3    H215418   3.418   1.424  -0.001
 5138TIP3   OH215419   0.745   0.927   0.782
 5138TIP3    H115420   0.825   0.952   0.735
 5138TIP3    H215421   0.675   0.974   0.737
 5139TIP3   OH215422   2.543   1.061   3.084
 5139TIP3    H115423   2.578   1.035   3.170
 5139TIP3    H215424   2.480   0.993   3.062
 5140TIP3   OH215425   1.600   1.298   0.463
 5140TIP3    H115426   1.676   1.356   0.468
 5140TIP3    H215427   1.637   1.209   0.465
 5141TIP3   OH215428   3.320   3.158   1.144
 5141TIP3    H115429   3.269   3.109   1.080
 5141TIP3    H215430   3.378   3.214   1.091
 5142TIP3   OH215431   3.044   1.519   2.490
 5142TIP3    H115432   3.066   1.525   2.397
 5142TIP3    H215433   2.952   1.494   2.492
 5143TIP3   OH215434   1.386   4.212   0.105
 5143TIP3    H115435   1.312   4.170   0.062
 5143TIP3    H215436   1.364   4.211   0.198
 5144TIP3   OH215437   4.059   2.351   0.567
 5144TIP3    H115438   3.991   2.417   0.553
 5144TIP3    H215439   4.011   2.273   0.596
 5145TIP3   OH215440   4.022   2.002   2.197
 5145TIP3    H115441   3.961   1.931   2.177
 5145TIP3    H215442   3.977   2.053   2.266
 5146TIP3   OH215443   4.247   0.906   4.318
 5146TIP3    H115444   4.205   0.966   4.256
 5146TIP3    H215445   4.283   0.964   4.386
 5147TIP3   OH215446   0.032   4.554   1.052
 5147TIP3    H115447   0.075   4.628   1.009
 5147TIP3    H215448   0.029   4.578   1.145
 5148TIP3   OH215449   2.361   2.304   3.852
 5148TIP3    H115450   2.266   2.292   3.847
 5148TIP3    H215451   2.383   2.355   3.774
 5149TIP3   OH215452   1.881   4.726   0.320
 5149TIP3    H115453   1.832   4.680   0.253
 5149TIP3    H215454   1.842   4.814   0.322
 5150TIP3   OH215455   1.375   2.532   0.611
 5150TIP3    H115456   1.424   2.522   0.530
 5150TIP3    H215457   1.443   2.538   0.679
 5151TIP3   OH215458   5.095   5.449   1.421
 5151TIP3    H115459   5.186   5.460   1.447
 5151TIP3    H215460   5.099   5.413   1.333
 5152TIP3   OH215461   2.720   2.693   4.208
 5152TIP3    H115462   2.629   2.692   4.237
 5152TIP3    H215463   2.756   2.773   4.245
 5153TIP3   OH215464   4.670   1.663   2.587
 5153TIP3    H115465   4.585   1.654   2.545
 5153TIP3    H215466   4.684   1.758   2.592
 5154TIP3   OH215467   2.569   1.662   0.991
 5154TIP3    H115468   2.600   1.742   1.033
 5154TIP3    H215469   2.625   1.593   1.025
 5155TIP3   OH215470   2.969   3.763   3.900
 5155TIP3    H115471   2.931   3.782   3.986
 5155TIP3    H215472   3.042   3.825   3.892
 5156TIP3   OH215473   2.151   2.152   1.331
 5156TIP3    H115474   2.185   2.071   1.295
 5156TIP3    H215475   2.070   2.168   1.281
 5157TIP3   OH215476   4.610   0.487   0.787
 5157TIP3    H115477   4.609   0.582   0.784
 5157TIP3    H215478   4.619   0.460   0.696
 5158TIP3   OH215479   1.196   1.345   0.658
 5158TIP3    H115480   1.194   1.356   0.563
 5158TIP3    H215481   1.122   1.397   0.690
 5159TIP3   OH215482   0.182   5.548   3.346
 5159TIP3    H115483   0.226   5.554   3.262
 5159TIP3    H215484   0.103   5.601   3.336
 5160TIP3   OH215485   5.679   3.542   4.572
 5160TIP3    H115486   5.598   3.589   4.551
 5160TIP3    H215487   5.660   3.500   4.656
 5161TIP3   OH215488   0.136   2.040   1.864
 5161TIP3    H115489   0.162   2.071   1.950
 5161TIP3    H215490   0.086   2.112   1.826
 5162TIP3   OH215491   2.087   1.187   3.177
 5162TIP3    H115492   2.076   1.092   3.168
 5162TIP3    H215493   2.035   1.209   3.254
 5163TIP3   OH215494   0.359   4.686   3.471
 5163TIP3    H115495   0.300   4.718   3.540
 5163TIP3    H215496   0.355   4.754   3.404
 5164TIP3   OH215497   2.821   2.604   3.748
 5164TIP3    H115498   2.846   2.659   3.674
 5164TIP3    H215499   2.897   2.604   3.806
 5165TIP3   OH215500   4.256   2.340   0.364
 5165TIP3    H115501   4.196   2.320   0.293
 5165TIP3    H215502   4.200   2.360   0.439
 5166TIP3   OH215503   5.940   2.424   1.813
 5166TIP3    H115504   5.979   2.352   1.862
 5166TIP3    H215505   5.873   2.458   1.872
 5167TIP3   OH215506   2.827   4.776   2.561
 5167TIP3    H115507   2.827   4.730   2.645
 5167TIP3    H215508   2.865   4.861   2.580
 5168TIP3   OH215509   2.828   0.406   1.733
 5168TIP3    H115510   2.856   0.396   1.824
 5168TIP3    H215511   2.764   0.335   1.720
 5169TIP3   OH215512   3.221   4.998   3.723
 5169TIP3    H115513   3.212   5.022   3.815
 5169TIP3    H215514   3.191   4.907   3.719
 5170TIP3   OH215515   3.463   5.980   1.647
 5170TIP3    H115516   3.397   5.955   1.712
 5170TIP3    H215517   3.455   5.914   1.578
 5171TIP3   OH215518   3.165   1.085   1.391
 5171TIP3    H115519   3.192   1.020   1.325
 5171TIP3    H215520   3.111   1.035   1.452
 5172TIP3   OH215521   5.613   5.339   3.905
 5172TIP3    H115522   5.616   5.316   3.998
 5172TIP3    H215523   5.525   5.317   3.877
 5173TIP3   OH215524   0.668   3.477   2.233
 5173TIP3    H115525   0.646   3.455   2.142
 5173TIP3    H215526   0.763   3.466   2.238
 5174TIP3   OH215527   0.144   4.710   0.297
 5174TIP3    H115528   0.171   4.763   0.372
 5174TIP3    H215529   0.181   4.623   0.314
 5175TIP3   OH215530   2.705   5.679   1.104
 5175TIP3    H115531   2.724   5.711   1.192
 5175TIP3    H215532   2.788   5.686   1.057
 5176TIP3   OH215533   3.030   5.062   1.345
 5176TIP3    H115534   3.038   5.095   1.434
 5176TIP3    H215535   3.060   5.134   1.289
 5177TIP3   OH215536   5.172   0.211   0.821
 5177TIP3    H115537   5.097   0.185   0.876
 5177TIP3    H215538   5.132   0.254   0.745
 5178TIP3   OH215539   0.740   3.368   3.293
 5178TIP3    H115540   0.681   3.349   3.219
 5178TIP3    H215541   0.826   3.380   3.252
 5179TIP3   OH215542   2.774   5.377   0.246
 5179TIP3    H115543   2.805   5.436   0.177
 5179TIP3    H215544   2.746   5.299   0.198
 5180TIP3   OH215545   4.292   4.458   4.119
 5180TIP3    H115546   4.364   4.518   4.102
 5180TIP3    H215547   4.222   4.486   4.060
 5181TIP3   OH215548   1.710   5.179   3.572
 5181TIP3    H115549   1.636   5.180   3.511
 5181TIP3    H215550   1.693   5.104   3.629
 5182TIP3   OH215551   2.021   2.330   0.347
 5182TIP3    H115552   2.109   2.343   0.381
 5182TIP3    H215553   1.978   2.414   0.358
 5183TIP3   OH215554   3.955   0.080   0.608
 5183TIP3    H115555   3.869   0.075   0.566
 5183TIP3    H215556   3.938   0.058   0.700
 5184TIP3   OH215557   1.252   4.946   5.027
 5184TIP3    H115558   1.285   4.947   5.117
 5184TIP3    H215559   1.235   4.854   5.008
 5185TIP3   OH215560   0.353   4.165   0.867
 5185TIP3    H115561   0.262   4.184   0.889
 5185TIP3    H215562   0.392   4.249   0.846
 5186TIP3   OH215563   4.087   2.233   0.178
 5186TIP3    H115564   4.002   2.271   0.155
 5186TIP3    H215565   4.108   2.175   0.105
 5187TIP3   OH215566   6.107   2.945   2.051
 5187TIP3    H115567   6.059   2.936   2.133
 5187TIP3    H215568   6.141   3.035   2.053
 5188TIP3   OH215569   2.892   1.729   4.135
 5188TIP3    H115570   2.873   1.722   4.229
 5188TIP3    H215571   2.889   1.823   4.118
 5189TIP3   OH215572   4.755   4.817   2.854
 5189TIP3    H115573   4.776   4.736   2.900
 5189TIP3    H215574   4.806   4.813   2.773
 5190TIP3   OH215575   3.296   2.660   0.814
 5190TIP3    H115576   3.312   2.607   0.893
 5190TIP3    H215577   3.345   2.740   0.828
 5191TIP3   OH215578   0.233   1.993   0.876
 5191TIP3    H115579   0.309   1.967   0.823
 5191TIP3    H215580   0.229   1.927   0.946
 5192TIP3   OH215581   0.897   5.992   2.410
 5192TIP3    H115582   0.897   5.971   2.503
 5192TIP3    H215583   0.889   5.907   2.366
 5193TIP3   OH215584   0.736   1.052   3.434
 5193TIP3    H115585   0.727   1.148   3.429
 5193TIP3    H215586   0.751   1.035   3.527
 5194TIP3   OH215587   5.065   0.557   3.890
 5194TIP3    H115588   4.974   0.554   3.919
 5194TIP3    H215589   5.062   0.602   3.805
 5195TIP3   OH215590   3.499   2.355   4.072
 5195TIP3    H115591   3.536   2.432   4.116
 5195TIP3    H215592   3.481   2.386   3.983
 5196TIP3   OH215593   4.344   1.493   2.997
 5196TIP3    H115594   4.274   1.463   2.939
 5196TIP3    H215595   4.425   1.470   2.951
 5197TIP3   OH215596   0.682   0.670   0.022
 5197TIP3    H115597   0.772   0.688  -0.004
 5197TIP3    H215598   0.670   0.719   0.103
 5198TIP3   OH215599   0.811   5.041   2.103
 5198TIP3    H115600   0.900   5.026   2.136
 5198TIP3    H215601   0.770   4.955   2.106
 5199TIP3   OH215602   3.354   4.413   2.949
 5199TIP3    H115603   3.449   4.416   2.962
 5199TIP3    H215604   3.331   4.504   2.930
 5200TIP3   OH215605   6.282   3.554   1.951
 5200TIP3    H115606   6.208   3.495   1.934
 5200TIP3    H215607   6.359   3.504   1.925
 5201TIP3   OH215608   4.119   0.523   2.990
 5201TIP3    H115609   4.122   0.601   3.045
 5201TIP3    H215610   4.028   0.516   2.964
 5202TIP3   OH215611   2.757   0.770   2.492
 5202TIP3    H115612   2.720   0.833   2.554
 5202TIP3    H215613   2.685   0.711   2.472
 5203TIP3   OH215614   1.486   2.090   0.594
 5203TIP3    H115615   1.532   2.009   0.619
 5203TIP3    H215616   1.398   2.079   0.630
 5204TIP3   OH215617   3.248   5.193   0.519
 5204TIP3    H115618   3.338   5.161   0.526
 5204TIP3    H215619   3.219   5.162   0.433
 5205TIP3   OH215620   2.773   3.027   1.923
 5205TIP3    H115621   2.758   3.005   1.831
 5205TIP3    H215622   2.848   3.086   1.921
 5206TIP3   OH215623   2.936   0.439   2.988
 5206TIP3    H115624   2.932   0.362   3.045
 5206TIP3    H215625   2.912   0.512   3.044
 5207TIP3   OH215626   1.568   0.083   1.907
 5207TIP3    H115627   1.477   0.059   1.892
 5207TIP3    H215628   1.573   0.102   2.001
 5208TIP3   OH215629   0.885   0.076   2.358
 5208TIP3    H115630   0.962   0.088   2.303
 5208TIP3    H215631   0.812   0.103   2.302
 5209TIP3   OH215632   0.415   0.538   1.534
 5209TIP3    H115633   0.504   0.558   1.562
 5209TIP3    H215634   0.362   0.549   1.613
 5210TIP3   OH215635   3.879   4.319   3.912
 5210TIP3    H115636   3.969   4.325   3.879
 5210TIP3    H215637   3.876   4.380   3.985
 5211TIP3   OH215638   2.695   3.311   0.929
 5211TIP3    H115639   2.649   3.369   0.990
 5211TIP3    H215640   2.678   3.223   0.962
 5212TIP3   OH215641   2.584   4.261   4.433
 5212TIP3    H115642   2.678   4.276   4.435
 5212TIP3    H215643   2.560   4.247   4.525
 5213TIP3   OH215644   2.229   1.288   0.891
 5213TIP3    H115645   2.250   1.332   0.809
 5213TIP3    H215646   2.134   1.300   0.901
 5214TIP3   OH215647   5.501   0.020   4.269
 5214TIP3    H115648   5.450   0.029   4.188
 5214TIP3    H215649   5.439   0.036   4.339
 5215TIP3   OH215650   4.341   3.732   0.213
 5215TIP3    H115651   4.255   3.703   0.181
 5215TIP3    H215652   4.394   3.743   0.134
 5216TIP3   OH215653   1.777   0.711   3.164
 5216TIP3    H115654   1.757   0.792   3.211
 5216TIP3    H215655   1.699   0.656   3.177
 5217TIP3   OH215656   5.957   3.842   1.411
 5217TIP3    H115657   6.020   3.913   1.408
 5217TIP3    H215658   5.952   3.818   1.503
 5218TIP3   OH215659   3.498   1.994   3.261
 5218TIP3    H115660   3.480   2.013   3.353
 5218TIP3    H215661   3.581   2.037   3.243
 5219TIP3   OH215662   2.072   5.844   2.264
 5219TIP3    H115663   2.126   5.872   2.189
 5219TIP3    H215664   2.090   5.909   2.332
 5220TIP3   OH215665   0.399   4.457   0.574
 5220TIP3    H115666   0.320   4.509   0.588
 5220TIP3    H215667   0.421   4.472   0.482
 5221TIP3   OH215668   3.607   0.671   1.418
 5221TIP3    H115669   3.564   0.586   1.402
 5221TIP3    H215670   3.541   0.736   1.395
 5222TIP3   OH215671   2.938   0.371   1.969
 5222TIP3    H115672   3.027   0.391   1.943
 5222TIP3    H215673   2.945   0.287   2.016
 5223TIP3   OH215674   3.014   3.325   3.337
 5223TIP3    H115675   3.006   3.237   3.374
 5223TIP3    H215676   3.098   3.357   3.370
 5224TIP3   OH215677   5.891   4.996   4.254
 5224TIP3    H115678   5.895   4.907   4.288
 5224TIP3    H215679   5.799   5.007   4.227
 5225TIP3   OH215680   0.645   5.249   5.092
 5225TIP3    H115681   0.633   5.284   5.004
 5225TIP3    H215682   0.596   5.167   5.092
 5226TIP3   OH215683   3.701   1.150   3.349
 5226TIP3    H115684   3.723   1.058   3.365
 5226TIP3    H215685   3.612   1.161   3.383
 5227TIP3   OH215686   4.394   3.140   0.730
 5227TIP3    H115687   4.392   3.218   0.784
 5227TIP3    H215688   4.414   3.069   0.791
 5228TIP3   OH215689   1.489   2.358   3.331
 5228TIP3    H115690   1.405   2.357   3.285
 5228TIP3    H215691   1.482   2.287   3.395
 5229TIP3   OH215692   1.612   0.029   2.537
 5229TIP3    H115693   1.688   0.043   2.480
 5229TIP3    H215694   1.548  -0.014   2.481
 5230TIP3   OH215695   2.863   1.026   0.217
 5230TIP3    H115696   2.866   0.987   0.304
 5230TIP3    H215697   2.848   0.952   0.158
 5231TIP3   OH215698   5.800   2.043   1.454
 5231TIP3    H115699   5.837   2.041   1.543
 5231TIP3    H215700   5.724   2.101   1.462
 5232TIP3   OH215701   2.230   2.514   1.870
 5232TIP3    H115702   2.211   2.601   1.837
 5232TIP3    H215703   2.151   2.464   1.854
 5233TIP3   OH215704   0.403   4.131   2.632
 5233TIP3    H115705   0.463   4.201   2.605
 5233TIP3    H215706   0.377   4.156   2.720
 5234TIP3   OH215707   4.880   4.305   3.953
 5234TIP3    H115708   4.828   4.271   4.026
 5234TIP3    H215709   4.942   4.365   3.994
 5235TIP3   OH215710   2.287   3.278   4.432
 5235TIP3    H115711   2.208   3.230   4.406
 5235TIP3    H215712   2.351   3.209   4.449
 5236TIP3   OH215713   3.715   2.812   0.979
 5236TIP3    H115714   3.739   2.904   0.965
 5236TIP3    H215715   3.792   2.774   1.020
 5237TIP3   OH215716   0.622   4.712   0.583
 5237TIP3    H115717   0.564   4.673   0.518
 5237TIP3    H215718   0.631   4.803   0.557
 5238TIP3   OH215719   1.645   5.938   1.314
 5238TIP3    H115720   1.735   5.966   1.300
 5238TIP3    H215721   1.615   5.909   1.228
 5239TIP3   OH215722   5.204   0.749   2.568
 5239TIP3    H115723   5.195   0.836   2.606
 5239TIP3    H215724   5.204   0.764   2.473
 5240TIP3   OH215725   3.339   2.749   2.000
 5240TIP3    H115726   3.303   2.706   2.078
 5240TIP3    H215727   3.270   2.740   1.934
 5241TIP3   OH215728   5.314   2.302   1.766
 5241TIP3    H115729   5.329   2.270   1.855
 5241TIP3    H215730   5.285   2.393   1.777
 5242TIP3   OH215731   5.333   4.833   0.316
 5242TIP3    H115732   5.278   4.793   0.249
 5242TIP3    H215733   5.419   4.792   0.303
 5243TIP3   OH215734   3.054   4.635   4.591
 5243TIP3    H115735   3.147   4.636   4.611
 5243TIP3    H215736   3.015   4.580   4.659
 5244TIP3   OH215737   0.597   2.107   4.459
 5244TIP3    H115738   0.529   2.174   4.464
 5244TIP3    H215739   0.581   2.063   4.376
 5245TIP3   OH215740   3.994   4.733   4.865
 5245TIP3    H115741   3.944   4.705   4.941
 5245TIP3    H215742   4.082   4.700   4.880
 5246TIP3   OH215743   0.298   1.882   2.926
 5246TIP3    H115744   0.350   1.950   2.883
 5246TIP3    H215745   0.327   1.801   2.885
 5247TIP3   OH215746   0.965   5.766   0.676
 5247TIP3    H115747   0.996   5.828   0.742
 5247TIP3    H215748   1.008   5.684   0.699
 5248TIP3   OH215749   0.581   1.121   5.028
 5248TIP3    H115750   0.538   1.096   5.109
 5248TIP3    H215751   0.509   1.134   4.966
 5249TIP3   OH215752   1.415   4.181   2.018
 5249TIP3    H115753   1.477   4.246   2.049
 5249TIP3    H215754   1.456   4.144   1.940
 5250TIP3   OH215755   3.090   2.756   1.847
 5250TIP3    H115756   3.130   2.755   1.760
 5250TIP3    H215757   2.998   2.777   1.831
 5251TIP3   OH215758   2.929   2.106   5.051
 5251TIP3    H115759   2.839   2.114   5.017
 5251TIP3    H215760   2.955   2.196   5.070
 5252TIP3   OH215761   1.112   0.545   2.469
 5252TIP3    H115762   1.125   0.597   2.548
 5252TIP3    H215763   1.099   0.609   2.399
 5253TIP3   OH215764   5.055   4.064   2.695
 5253TIP3    H115765   5.045   3.980   2.740
 5253TIP3    H215766   5.088   4.042   2.608
 5254TIP3   OH215767   1.302   3.029   4.406
 5254TIP3    H115768   1.340   3.031   4.494
 5254TIP3    H215769   1.207   3.027   4.421
 5255TIP3   OH215770   0.858   1.116   5.132
 5255TIP3    H115771   0.790   1.116   5.064
 5255TIP3    H215772   0.811   1.140   5.212
 5256TIP3   OH215773   2.063   2.529   2.301
 5256TIP3    H115774   2.083   2.503   2.391
 5256TIP3    H215775   2.136   2.585   2.276
 5257TIP3   OH215776   2.340   3.293   1.539
 5257TIP3    H115777   2.303   3.205   1.552
 5257TIP3    H215778   2.340   3.305   1.444
 5258TIP3   OH215779   2.155   3.752   2.796
 5258TIP3    H115780   2.101   3.773   2.872
 5258TIP3    H215781   2.096   3.764   2.721
 5259TIP3   OH215782   1.940   3.392   2.694
 5259TIP3    H115783   1.975   3.438   2.770
 5259TIP3    H215784   1.877   3.453   2.657
 5260TIP3   OH215785   5.177   5.481   0.896
 5260TIP3    H115786   5.251   5.461   0.839
 5260TIP3    H215787   5.186   5.421   0.970
 5261TIP3   OH215788   2.041   4.822   1.056
 5261TIP3    H115789   2.040   4.896   0.995
 5261TIP3    H215790   2.126   4.828   1.099
 5262TIP3   OH215791   3.471   5.690   4.632
 5262TIP3    H115792   3.552   5.655   4.669
 5262TIP3    H215793   3.421   5.720   4.708
 5263TIP3   OH215794   6.101   2.065   0.320
 5263TIP3    H115795   6.053   2.148   0.329
 5263TIP3    H215796   6.076   2.014   0.397
 5264TIP3   OH215797   1.340   1.884   2.075
 5264TIP3    H115798   1.412   1.842   2.123
 5264TIP3    H215799   1.264   1.830   2.093
 5265TIP3   OH215800   6.074   1.779   4.310
 5265TIP3    H115801   6.077   1.809   4.400
 5265TIP3    H215802   6.162   1.795   4.276
 5266TIP3   OH215803   1.090   4.264   0.655
 5266TIP3    H115804   1.062   4.229   0.570
 5266TIP3    H215805   1.165   4.320   0.634
 5267TIP3   OH215806   5.480   0.394   5.089
 5267TIP3    H115807   5.501   0.436   5.005
 5267TIP3    H215808   5.536   0.317   5.092
 5268TIP3   OH215809   4.188   4.494   1.483
 5268TIP3    H115810   4.283   4.494   1.499
 5268TIP3    H215811   4.149   4.511   1.568
 5269TIP3   OH215812   1.714   1.832   3.758
 5269TIP3    H115813   1.777   1.773   3.718
 5269TIP3    H215814   1.766   1.888   3.816
 5270TIP3   OH215815   0.820   1.446   0.792
 5270TIP3    H115816   0.861   1.359   0.781
 5270TIP3    H215817   0.894   1.505   0.805
 5271TIP3   OH215818   6.145   5.442   3.210
 5271TIP3    H115819   6.123   5.527   3.249
 5271TIP3    H215820   6.227   5.459   3.162
 5272TIP3   OH215821   2.415   5.300   4.918
 5272TIP3    H115822   2.357   5.370   4.946
 5272TIP3    H215823   2.467   5.278   4.996
 5273TIP3   OH215824   5.153   3.035   4.083
 5273TIP3    H115825   5.107   2.955   4.106
 5273TIP3    H215826   5.224   3.042   4.147
 5274TIP3   OH215827   5.838   0.487   4.434
 5274TIP3    H115828   5.826   0.478   4.528
 5274TIP3    H215829   5.911   0.549   4.424
 5275TIP3   OH215830   4.420   3.771   3.715
 5275TIP3    H115831   4.325   3.784   3.721
 5275TIP3    H215832   4.457   3.828   3.782
 5276TIP3   OH215833   0.667   1.664   1.868
 5276TIP3    H115834   0.587   1.650   1.919
 5276TIP3    H215835   0.734   1.612   1.912
 5277TIP3   OH215836   5.934   1.950   2.952
 5277TIP3    H115837   5.927   1.878   3.015
 5277TIP3    H215838   5.907   1.911   2.869
 5278TIP3   OH215839   1.659   4.837   4.717
 5278TIP3    H115840   1.626   4.747   4.716
 5278TIP3    H215841   1.669   4.857   4.810
 5279TIP3   OH215842   0.062   2.479   1.105
 5279TIP3    H115843   0.012   2.465   1.025
 5279TIP3    H215844   0.061   2.393   1.149
 5280TIP3   OH215845   2.796   1.474   4.637
 5280TIP3    H115846   2.741   1.511   4.706
 5280TIP3    H215847   2.854   1.546   4.613
 5281TIP3   OH215848   4.861   2.421   5.047
 5281TIP3    H115849   4.935   2.461   5.001
 5281TIP3    H215850   4.802   2.392   4.977
 5282TIP3   OH215851   2.023   3.522   1.526
 5282TIP3    H115852   1.987   3.576   1.596
 5282TIP3    H215853   2.098   3.478   1.566
 5283TIP3   OH215854   5.162   4.790   5.032
 5283TIP3    H115855   5.115   4.748   4.959
 5283TIP3    H215856   5.097   4.849   5.070
 5284TIP3   OH215857   4.703   3.552   5.117
 5284TIP3    H115858   4.664   3.609   5.183
 5284TIP3    H215859   4.715   3.609   5.041
 5285TIP3   OH215860   2.581   0.075   3.853
 5285TIP3    H115861   2.561   0.138   3.783
 5285TIP3    H215862   2.582  -0.010   3.809
 5286TIP3   OH215863   3.243   0.571   4.773
 5286TIP3    H115864   3.322   0.517   4.769
 5286TIP3    H215865   3.206   0.566   4.685
 5287TIP3   OH215866   2.777   2.073   2.516
 5287TIP3    H115867   2.860   2.046   2.477
 5287TIP3    H215868   2.795   2.080   2.610
 5288TIP3   OH215869   0.886   0.582   0.958
 5288TIP3    H115870   0.873   0.524   1.034
 5288TIP3    H215871   0.818   0.555   0.896
 5289TIP3   OH215872   6.329   1.506   3.713
 5289TIP3    H115873   6.280   1.479   3.790
 5289TIP3    H215874   6.274   1.572   3.671
 5290TIP3   OH215875   6.190   3.362   3.610
 5290TIP3    H115876   6.153   3.427   3.551
 5290TIP3    H215877   6.233   3.299   3.551
 5291TIP3   OH215878   0.231   5.296   2.374
 5291TIP3    H115879   0.220   5.370   2.433
 5291TIP3    H215880   0.161   5.305   2.309
 5292TIP3   OH215881   0.790   5.431   4.644
 5292TIP3    H115882   0.727   5.500   4.627
 5292TIP3    H215883   0.833   5.417   4.560
 5293TIP3   OH215884   6.089   4.633   2.134
 5293TIP3    H115885   6.030   4.706   2.156
 5293TIP3    H215886   6.173   4.676   2.116
 5294TIP3   OH215887   2.809   3.455   4.858
 5294TIP3    H115888   2.806   3.428   4.950
 5294TIP3    H215889   2.733   3.414   4.818
 5295TIP3   OH215890   1.117   3.410   0.931
 5295TIP3    H115891   1.139   3.338   0.871
 5295TIP3    H215892   1.028   3.435   0.907
 5296TIP3   OH215893   3.012   5.665   3.330
 5296TIP3    H115894   3.004   5.750   3.373
 5296TIP3    H215895   3.018   5.602   3.403
 5297TIP3   OH215896   5.512   2.950   5.018
 5297TIP3    H115897   5.422   2.926   4.996
 5297TIP3    H215898   5.520   2.930   5.111
 5298TIP3   OH215899   2.885   4.591   0.190
 5298TIP3    H115900   2.944   4.572   0.117
 5298TIP3    H215901   2.874   4.686   0.187
 5299TIP3   OH215902   2.974   2.420   1.482
 5299TIP3    H115903   2.897   2.372   1.510
 5299TIP3    H215904   2.943   2.510   1.470
 5300TIP3   OH215905   0.951   4.181   4.230
 5300TIP3    H115906   0.879   4.214   4.175
 5300TIP3    H215907   0.956   4.088   4.208
 5301TIP3   OH215908   0.653   0.346   4.374
 5301TIP3    H115909   0.632   0.435   4.404
 5301TIP3    H215910   0.608   0.338   4.290
 5302TIP3   OH215911   2.412   3.062   0.084
 5302TIP3    H115912   2.373   3.013   0.011
 5302TIP3    H215913   2.435   2.995   0.148
 5303TIP3   OH215914   2.700   2.063   4.435
 5303TIP3    H115915   2.624   2.102   4.477
 5303TIP3    H215916   2.755   2.138   4.410
 5304TIP3   OH215917   5.814   4.360   2.144
 5304TIP3    H115918   5.802   4.266   2.129
 5304TIP3    H215919   5.896   4.381   2.099
 5305TIP3   OH215920   4.952   3.505   2.460
 5305TIP3    H115921   4.940   3.598   2.480
 5305TIP3    H215922   4.919   3.495   2.370
 5306TIP3   OH215923   0.245   3.989   4.341
 5306TIP3    H115924   0.287   3.965   4.423
 5306TIP3    H215925   0.173   4.046   4.367
 5307TIP3   OH215926   2.444   5.990   2.524
 5307TIP3    H115927   2.457   6.040   2.444
 5307TIP3    H215928   2.422   5.902   2.494
 5308TIP3   OH215929   0.399   1.770   3.185
 5308TIP3    H115930   0.324   1.712   3.168
 5308TIP3    H215931   0.397   1.834   3.114
 5309TIP3   OH215932   1.778   0.052   2.311
 5309TIP3    H115933   1.849   0.095   2.358
 5309TIP3    H215934   1.776   0.093   2.225
 5310TIP3   OH215935   4.287   5.579   1.475
 5310TIP3    H115936   4.332   5.499   1.448
 5310TIP3    H215937   4.357   5.635   1.508
 5311TIP3   OH215938   0.454   0.734   4.972
 5311TIP3    H115939   0.392   0.781   5.028
 5311TIP3    H215940   0.536   0.784   4.978
 5312TIP3   OH215941   5.370   5.411   1.432
 5312TIP3    H115942   5.422   5.463   1.493
 5312TIP3    H215943   5.363   5.325   1.473
 5313TIP3   OH215944   3.966   5.415   4.129
 5313TIP3    H115945   3.990   5.370   4.210
 5313TIP3    H215946   3.973   5.347   4.061
 5314TIP3   OH215947   5.979   2.841   3.325
 5314TIP3    H115948   5.924   2.809   3.253
 5314TIP3    H215949   5.984   2.936   3.310
 5315TIP3   OH215950   6.062   5.390   4.269
 5315TIP3    H115951   6.071   5.386   4.365
 5315TIP3    H215952   5.999   5.460   4.254
 5316TIP3   OH215953   1.006   5.155   3.014
 5316TIP3    H115954   1.075   5.215   2.984
 5316TIP3    H215955   0.930   5.211   3.027
 5317TIP3   OH215956   1.938   4.973   0.218
 5317TIP3    H115957   1.986   5.048   0.255
 5317TIP3    H215958   1.915   5.000   0.130
 5318TIP3   OH215959   4.448   2.235   1.738
 5318TIP3    H115960   4.444   2.141   1.756
 5318TIP3    H215961   4.452   2.276   1.824
 5319TIP3   OH215962   0.659   1.590   4.971
 5319TIP3    H115963   0.564   1.583   4.983
 5319TIP3    H215964   0.696   1.538   5.042
 5320TIP3   OH215965   1.021   3.035   3.602
 5320TIP3    H115966   1.085   3.098   3.635
 5320TIP3    H215967   1.039   3.029   3.508
 5321TIP3   OH215968   2.794   2.854   2.167
 5321TIP3    H115969   2.861   2.907   2.211
 5321TIP3    H215970   2.765   2.908   2.094
 5322TIP3   OH215971   3.244   1.704   3.339
 5322TIP3    H115972   3.182   1.645   3.381
 5322TIP3    H215973   3.220   1.701   3.246
 5323TIP3   OH215974   4.422   4.717   0.621
 5323TIP3    H115975   4.432   4.789   0.558
 5323TIP3    H215976   4.411   4.761   0.705
 5324TIP3   OH215977   2.094   5.546   1.296
 5324TIP3    H115978   2.150   5.500   1.234
 5324TIP3    H215979   2.053   5.616   1.245
 5325TIP3   OH215980   2.005   1.029   4.153
 5325TIP3    H115981   1.945   1.086   4.104
 5325TIP3    H215982   1.948   0.963   4.192
 5326TIP3   OH215983   3.271   1.830   0.449
 5326TIP3    H115984   3.315   1.764   0.395
 5326TIP3    H215985   3.214   1.876   0.387
 5327TIP3   OH215986   0.520   2.915   2.181
 5327TIP3    H115987   0.591   2.978   2.169
 5327TIP3    H215988   0.563   2.837   2.216
 5328TIP3   OH215989   2.094   1.174   4.399
 5328TIP3    H115990   2.185   1.146   4.400
 5328TIP3    H215991   2.054   1.125   4.327
 5329TIP3   OH215992   2.982   5.375   3.042
 5329TIP3    H115993   2.960   5.468   3.050
 5329TIP3    H215994   3.078   5.374   3.044
 5330TIP3   OH215995   0.904   4.658   1.535
 5330TIP3    H115996   0.869   4.649   1.446
 5330TIP3    H215997   0.927   4.569   1.561
 5331TIP3   OH215998   3.173   5.470   4.970
 5331TIP3    H115999   3.234   5.523   5.020
 5331TIP3    H216000   3.090   5.477   5.017
 5332TIP3   OH216001   1.775   0.117   1.212
 5332TIP3    H116002   1.864   0.094   1.241
 5332TIP3    H216003   1.765   0.209   1.237
 5333TIP3   OH216004   5.853   5.659   4.692
 5333TIP3    H116005   5.795   5.663   4.767
 5333TIP3    H216006   5.863   5.750   4.664
 5334TIP3   OH216007   1.650   1.213   2.991
 5334TIP3    H116008   1.614   1.133   3.029
 5334TIP3    H216009   1.711   1.182   2.923
 5335TIP3   OH216010   3.020   3.195   2.291
 5335TIP3    H116011   3.074   3.244   2.230
 5335TIP3    H216012   2.970   3.261   2.338
 5336TIP3   OH216013  -0.014   2.286   1.818
 5336TIP3    H116014   0.068   2.298   1.770
 5336TIP3    H216015  -0.008   2.346   1.892
 5337TIP3   OH216016   5.002   4.308   0.913
 5337TIP3    H116017   5.018   4.338   0.823
 5337TIP3    H216018   5.065   4.358   0.966
 5338TIP3   OH216019   0.042   5.041   1.032
 5338TIP3    H116020   0.016   4.971   1.092
 5338TIP3    H216021  -0.040   5.065   0.987
 5339TIP3   OH216022   6.328   1.128   3.015
 5339TIP3    H116023   6.327   1.170   2.929
 5339TIP3    H216024   6.352   1.037   2.997
 5340TIP3   OH216025   2.932   1.908   1.141
 5340TIP3    H116026   2.925   1.821   1.102
 5340TIP3    H216027   2.910   1.969   1.070
 5341TIP3   OH216028   2.324   3.167   3.131
 5341TIP3    H116029   2.306   3.210   3.047
 5341TIP3    H216030   2.274   3.085   3.127
 5342TIP3   OH216031   2.627   0.912   0.345
 5342TIP3    H116032   2.703   0.917   0.402
 5342TIP3    H216033   2.649   0.969   0.271
 5343TIP3   OH216034   4.804   3.675   1.332
 5343TIP3    H116035   4.831   3.709   1.418
 5343TIP3    H216036   4.885   3.665   1.283
 5344TIP3   OH216037   4.792   1.908   2.676
 5344TIP3    H116038   4.788   1.992   2.722
 5344TIP3    H216039   4.878   1.872   2.698
 5345TIP3   OH216040   2.401   2.287   3.292
 5345TIP3    H116041   2.352   2.353   3.340
 5345TIP3    H216042   2.372   2.296   3.201
 5346TIP3   OH216043   3.403   0.107   1.450
 5346TIP3    H116044   3.490   0.143   1.467
 5346TIP3    H216045   3.415   0.047   1.377
 5347TIP3   OH216046   4.818   5.327   0.718
 5347TIP3    H116047   4.898   5.332   0.666
 5347TIP3    H216048   4.757   5.278   0.664
 5348TIP3   OH216049   2.160   2.866   2.659
 5348TIP3    H116050   2.087   2.908   2.703
 5348TIP3    H216051   2.175   2.920   2.580
 5349TIP3   OH216052   6.182   1.720   2.521
 5349TIP3    H116053   6.124   1.718   2.597
 5349TIP3    H216054   6.224   1.634   2.520
 5350TIP3   OH216055   4.884   0.947   0.622
 5350TIP3    H116056   4.970   0.989   0.619
 5350TIP3    H216057   4.839   0.988   0.696
 5351TIP3   OH216058   4.060   0.294   4.063
 5351TIP3    H116059   4.098   0.304   3.976
 5351TIP3    H216060   3.983   0.238   4.049
 5352TIP3   OH216061   5.050   3.018   5.064
 5352TIP3    H116062   5.141   2.999   5.041
 5352TIP3    H216063   5.056   3.079   5.138
 5353TIP3   OH216064   3.583   1.081   0.019
 5353TIP3    H116065   3.622   1.020  -0.044
 5353TIP3    H216066   3.581   1.033   0.102
 5354TIP3   OH216067   2.137   5.436   1.542
 5354TIP3    H116068   2.177   5.514   1.580
 5354TIP3    H216069   2.103   5.466   1.457
 5355TIP3   OH216070   0.863   2.813   0.987
 5355TIP3    H116071   0.958   2.824   0.987
 5355TIP3    H216072   0.839   2.808   0.894
 5356TIP3   OH216073   1.638   1.682   1.568
 5356TIP3    H116074   1.642   1.769   1.609
 5356TIP3    H216075   1.697   1.628   1.621
 5357TIP3   OH216076   2.424   2.010   4.719
 5357TIP3    H116077   2.334   2.044   4.723
 5357TIP3    H216078   2.461   2.052   4.642
 5358TIP3   OH216079   0.888   3.430   1.170
 5358TIP3    H116080   0.848   3.464   1.090
 5358TIP3    H216081   0.913   3.341   1.149
 5359TIP3   OH216082   4.363   2.176   2.042
 5359TIP3    H116083   4.324   2.094   2.073
 5359TIP3    H216084   4.373   2.229   2.121
 5360TIP3   OH216085   3.589   0.413   2.184
 5360TIP3    H116086   3.683   0.431   2.181
 5360TIP3    H216087   3.565   0.396   2.092
 5361TIP3   OH216088   2.628   3.041   3.040
 5361TIP3    H116089   2.672   2.957   3.030
 5361TIP3    H216090   2.624   3.077   2.952
 5362TIP3   OH216091   0.094   3.526   1.349
 5362TIP3    H116092   0.163   3.560   1.293
 5362TIP3    H216093   0.082   3.435   1.321
 5363TIP3   OH216094   6.126   4.914   0.354
 5363TIP3    H116095   6.164   4.996   0.321
 5363TIP3    H216096   6.041   4.940   0.390
 5364TIP3   OH216097   3.221   2.334   1.554
 5364TIP3    H116098   3.138   2.379   1.546
 5364TIP3    H216099   3.282   2.401   1.586
 5365TIP3   OH216100   1.214   3.480   1.198
 5365TIP3    H116101   1.277   3.409   1.203
 5365TIP3    H216102   1.166   3.464   1.117
 5366TIP3   OH216103   0.622   3.017   0.669
 5366TIP3    H116104   0.558   3.084   0.645
 5366TIP3    H216105   0.659   3.047   0.751
 5367TIP3   OH216106   5.290   3.443   2.579
 5367TIP3    H116107   5.285   3.365   2.524
 5367TIP3    H216108   5.295   3.516   2.517
 5368TIP3   OH216109   4.876   2.637   2.428
 5368TIP3    H116110   4.954   2.692   2.417
 5368TIP3    H216111   4.906   2.548   2.410
 5369TIP3   OH216112   1.357   1.466   5.175
 5369TIP3    H116113   1.411   1.431   5.105
 5369TIP3    H216114   1.374   1.561   5.174
 5370TIP3   OH216115   2.362   4.760   2.326
 5370TIP3    H116116   2.457   4.755   2.335
 5370TIP3    H216117   2.346   4.847   2.288
 5371TIP3   OH216118   4.258   2.346   1.280
 5371TIP3    H116119   4.314   2.273   1.308
 5371TIP3    H216120   4.188   2.349   1.345
 5372TIP3   OH216121   0.803   2.051   3.734
 5372TIP3    H116122   0.757   2.088   3.659
 5372TIP3    H216123   0.827   2.128   3.787
 5373TIP3   OH216124   1.968   1.555   1.138
 5373TIP3    H116125   1.912   1.623   1.100
 5373TIP3    H216126   2.050   1.600   1.158
 5374TIP3   OH216127   3.009   0.082   3.678
 5374TIP3    H116128   2.949   0.141   3.724
 5374TIP3    H216129   2.951   0.023   3.629
 5375TIP3   OH216130   4.373   1.418   4.385
 5375TIP3    H116131   4.321   1.420   4.466
 5375TIP3    H216132   4.412   1.330   4.384
 5376TIP3   OH216133   1.821   4.435   1.627
 5376TIP3    H116134   1.905   4.477   1.641
 5376TIP3    H216135   1.771   4.454   1.706
 5377TIP3   OH216136   6.000   4.564   2.902
 5377TIP3    H116137   5.926   4.535   2.849
 5377TIP3    H216138   5.967   4.562   2.992
 5378TIP3   OH216139   5.139   1.710   3.947
 5378TIP3    H116140   5.176   1.688   4.033
 5378TIP3    H216141   5.065   1.768   3.968
 5379TIP3   OH216142   5.525   4.477   1.712
 5379TIP3    H116143   5.560   4.551   1.761
 5379TIP3    H216144   5.505   4.411   1.778
 5380TIP3   OH216145   3.015   1.050   4.433
 5380TIP3    H116146   3.082   1.015   4.491
 5380TIP3    H216147   3.058   1.122   4.386
 5381TIP3   OH216148   3.615   3.329   3.209
 5381TIP3    H116149   3.540   3.320   3.150
 5381TIP3    H216150   3.626   3.424   3.220
 5382TIP3   OH216151   1.385   2.462   4.577
 5382TIP3    H116152   1.335   2.439   4.655
 5382TIP3    H216153   1.470   2.493   4.610
 5383TIP3   OH216154   1.708   5.742   0.679
 5383TIP3    H116155   1.660   5.663   0.656
 5383TIP3    H216156   1.673   5.809   0.621
 5384TIP3   OH216157   6.256   2.271   2.876
 5384TIP3    H116158   6.207   2.311   2.948
 5384TIP3    H216159   6.313   2.207   2.920
 5385TIP3   OH216160   2.844   5.562   2.795
 5385TIP3    H116161   2.834   5.537   2.887
 5385TIP3    H216162   2.768   5.617   2.776
 5386TIP3   OH216163   0.431   0.887   1.704
 5386TIP3    H116164   0.446   0.891   1.799
 5386TIP3    H216165   0.377   0.809   1.692
 5387TIP3   OH216166   1.951   1.514   3.326
 5387TIP3    H116167   1.905   1.540   3.405
 5387TIP3    H216168   1.973   1.422   3.340
 5388TIP3   OH216169   3.481   0.643   3.024
 5388TIP3    H116170   3.519   0.579   3.085
 5388TIP3    H216171   3.433   0.590   2.960
 5389TIP3   OH216172   6.195   1.396   3.016
 5389TIP3    H116173   6.229   1.410   2.928
 5389TIP3    H216174   6.238   1.316   3.046
 5390TIP3   OH216175   2.399   3.986   1.309
 5390TIP3    H116176   2.464   4.043   1.350
 5390TIP3    H216177   2.325   4.043   1.290
 5391TIP3   OH216178   5.788   5.057   0.271
 5391TIP3    H116179   5.877   5.091   0.265
 5391TIP3    H216180   5.740   5.101   0.201
 5392TIP3   OH216181   3.676   2.202   3.708
 5392TIP3    H116182   3.747   2.195   3.773
 5392TIP3    H216183   3.714   2.254   3.638
 5393TIP3   OH216184   0.124   3.268   4.535
 5393TIP3    H116185   0.193   3.279   4.600
 5393TIP3    H216186   0.050   3.232   4.583
 5394TIP3   OH216187   1.110   1.344   3.592
 5394TIP3    H116188   1.091   1.437   3.580
 5394TIP3    H216189   1.036   1.299   3.553
 5395TIP3   OH216190   0.459   4.212   1.978
 5395TIP3    H116191   0.501   4.139   1.933
 5395TIP3    H216192   0.490   4.290   1.932
 5396TIP3   OH216193   2.429   5.842   0.407
 5396TIP3    H116194   2.346   5.851   0.359
 5396TIP3    H216195   2.496   5.860   0.341
 5397TIP3   OH216196   0.326   4.720   1.366
 5397TIP3    H116197   0.251   4.662   1.373
 5397TIP3    H216198   0.291   4.808   1.382
 5398TIP3   OH216199   2.814   4.783   0.466
 5398TIP3    H116200   2.880   4.717   0.444
 5398TIP3    H216201   2.850   4.826   0.544
 5399TIP3   OH216202   2.217   1.030   0.641
 5399TIP3    H116203   2.184   0.988   0.721
 5399TIP3    H216204   2.239   0.957   0.584
 5400TIP3   OH216205   3.285   4.005   1.867
 5400TIP3    H116206   3.279   4.056   1.786
 5400TIP3    H216207   3.226   3.931   1.852
 5401TIP3   OH216208   5.179   1.592   0.834
 5401TIP3    H116209   5.127   1.531   0.886
 5401TIP3    H216210   5.190   1.669   0.889
 5402TIP3   OH216211   1.956   3.093   0.630
 5402TIP3    H116212   2.037   3.120   0.673
 5402TIP3    H216213   1.944   3.159   0.561
 5403TIP3   OH216214   1.817   2.034   1.350
 5403TIP3    H116215   1.876   2.010   1.421
 5403TIP3    H216216   1.847   2.121   1.322
 5404TIP3   OH216217   1.374   1.987   1.156
 5404TIP3    H116218   1.381   1.912   1.097
 5404TIP3    H216219   1.424   1.961   1.233
 5405TIP3   OH216220   2.865   2.987   4.038
 5405TIP3    H116221   2.929   2.928   4.078
 5405TIP3    H216222   2.908   3.017   3.958
 5406TIP3   OH216223   3.098   5.570   0.762
 5406TIP3    H116224   3.191   5.593   0.752
 5406TIP3    H216225   3.058   5.594   0.679
 5407TIP3   OH216226   6.172   4.374   1.015
 5407TIP3    H116227   6.149   4.415   0.932
 5407TIP3    H216228   6.261   4.406   1.033
 5408TIP3   OH216229   3.407   3.645   1.103
 5408TIP3    H116230   3.386   3.733   1.134
 5408TIP3    H216231   3.328   3.618   1.055
 5409TIP3   OH216232   3.205   0.450   3.044
 5409TIP3    H116233   3.246   0.397   2.976
 5409TIP3    H216234   3.112   0.427   3.040
 5410TIP3   OH216235   4.806   5.910   2.445
 5410TIP3    H116236   4.897   5.881   2.441
 5410TIP3    H216237   4.780   5.897   2.536
 5411TIP3   OH216238   4.196   3.419   4.791
 5411TIP3    H116239   4.289   3.404   4.771
 5411TIP3    H216240   4.168   3.338   4.833
 5412TIP3   OH216241   3.778   3.007   1.978
 5412TIP3    H116242   3.730   2.962   2.047
 5412TIP3    H216243   3.822   3.079   2.023
 5413TIP3   OH216244   5.707   0.020   2.713
 5413TIP3    H116245   5.641  -0.003   2.648
 5413TIP3    H216246   5.692   0.113   2.732
 5414TIP3   OH216247   1.541   3.129   0.576
 5414TIP3    H116248   1.458   3.085   0.593
 5414TIP3    H216249   1.534   3.160   0.486
 5415TIP3   OH216250   5.197   5.065   4.664
 5415TIP3    H116251   5.284   5.094   4.690
 5415TIP3    H216252   5.141   5.087   4.738
 5416TIP3   OH216253   2.440   5.912   0.976
 5416TIP3    H116254   2.347   5.892   0.961
 5416TIP3    H216255   2.476   5.924   0.888
 5417TIP3   OH216256   4.230   2.108   4.279
 5417TIP3    H116257   4.166   2.161   4.327
 5417TIP3    H216258   4.177   2.054   4.221
 5418TIP3   OH216259   3.244   4.432   4.754
 5418TIP3    H116260   3.338   4.448   4.762
 5418TIP3    H216261   3.211   4.439   4.844
 5419TIP3   OH216262   0.286   5.042   3.876
 5419TIP3    H116263   0.269   4.962   3.926
 5419TIP3    H216264   0.318   5.012   3.791
 5420TIP3   OH216265   3.865   0.621   3.109
 5420TIP3    H116266   3.912   0.662   3.181
 5420TIP3    H216267   3.787   0.584   3.149
 5421TIP3   OH216268   2.637   2.681   0.668
 5421TIP3    H116269   2.704   2.746   0.647
 5421TIP3    H216270   2.604   2.709   0.754
 5422TIP3   OH216271   5.172   1.500   3.201
 5422TIP3    H116272   5.182   1.558   3.276
 5422TIP3    H216273   5.198   1.553   3.126
 5423TIP3   OH216274   1.605   3.363   3.686
 5423TIP3    H116275   1.529   3.391   3.738
 5423TIP3    H216276   1.586   3.272   3.662
 5424TIP3   OH216277   1.512   1.789   4.024
 5424TIP3    H116278   1.572   1.861   4.007
 5424TIP3    H216279   1.428   1.831   4.043
 5425TIP3   OH216280   1.891   1.590   0.728
 5425TIP3    H116281   1.853   1.575   0.814
 5425TIP3    H216282   1.956   1.659   0.742
 5426TIP3   OH216283   4.788   5.511   3.649
 5426TIP3    H116284   4.839   5.558   3.583
 5426TIP3    H216285   4.729   5.578   3.685
 5427TIP3   OH216286   0.247   2.600   3.511
 5427TIP3    H116287   0.193   2.613   3.590
 5427TIP3    H216288   0.307   2.529   3.535
 5428TIP3   OH216289   3.848   2.766   0.678
 5428TIP3    H116290   3.824   2.845   0.728
 5428TIP3    H216291   3.913   2.722   0.733
 5429TIP3   OH216292   2.094   1.867   4.271
 5429TIP3    H116293   2.190   1.862   4.264
 5429TIP3    H216294   2.070   1.792   4.324
 5430TIP3   OH216295   1.631   5.893   2.786
 5430TIP3    H116296   1.674   5.813   2.758
 5430TIP3    H216297   1.617   5.881   2.880
 5431TIP3   OH216298   3.844   3.574   1.269
 5431TIP3    H116299   3.845   3.659   1.226
 5431TIP3    H216300   3.756   3.540   1.253
 5432TIP3   OH216301   1.811   4.765   2.306
 5432TIP3    H116302   1.754   4.758   2.228
 5432TIP3    H216303   1.783   4.693   2.362
 5433TIP3   OH216304   0.023   3.304   0.257
 5433TIP3    H116305  -0.048   3.284   0.318
 5433TIP3    H216306   0.088   3.235   0.273
 5434TIP3   OH216307   4.907   0.585   2.044
 5434TIP3    H116308   4.956   0.654   2.089
 5434TIP3    H216309   4.974   0.528   2.006
 5435TIP3   OH216310   5.366   0.706   3.472
 5435TIP3    H116311   5.356   0.712   3.377
 5435TIP3    H216312   5.450   0.662   3.484
 5436TIP3   OH216313   3.156   3.778   0.098
 5436TIP3    H116314   3.137   3.793   0.190
 5436TIP3    H216315   3.121   3.690   0.079
 5437TIP3   OH216316   0.454   3.528   3.196
 5437TIP3    H116317   0.521   3.504   3.132
 5437TIP3    H216318   0.373   3.530   3.146
 5438TIP3   OH216319   3.904   2.988   4.951
 5438TIP3    H116320   3.923   2.894   4.945
 5438TIP3    H216321   3.812   2.996   4.926
 5439TIP3   OH216322   5.685   3.767   3.027
 5439TIP3    H116323   5.640   3.753   2.944
 5439TIP3    H216324   5.776   3.786   3.002
 5440TIP3   OH216325   1.964   0.743   3.534
 5440TIP3    H116326   1.958   0.839   3.536
 5440TIP3    H216327   1.970   0.717   3.626
 5441TIP3   OH216328   2.397   3.406   0.368
 5441TIP3    H116329   2.429   3.397   0.458
 5441TIP3    H216330   2.413   3.497   0.345
 5442TIP3   OH216331   2.328   4.819   4.470
 5442TIP3    H116332   2.339   4.792   4.561
 5442TIP3    H216333   2.319   4.737   4.422
 5443TIP3   OH216334   0.850   2.302   5.109
 5443TIP3    H116335   0.870   2.374   5.169
 5443TIP3    H216336   0.755   2.293   5.113
 5444TIP3   OH216337   0.622   3.618   2.563
 5444TIP3    H116338   0.690   3.631   2.497
 5444TIP3    H216339   0.610   3.523   2.567
 5445TIP3   OH216340   4.046   2.991   2.893
 5445TIP3    H116341   4.103   3.068   2.898
 5445TIP3    H216342   3.961   3.027   2.867
 5446TIP3   OH216343   4.408   2.895   4.853
 5446TIP3    H116344   4.401   2.915   4.946
 5446TIP3    H216345   4.487   2.842   4.845
 5447TIP3   OH216346   1.474   3.265   4.913
 5447TIP3    H116347   1.544   3.204   4.893
 5447TIP3    H216348   1.498   3.303   4.998
 5448TIP3   OH216349   5.940   3.824   1.120
 5448TIP3    H116350   5.966   3.830   1.212
 5448TIP3    H216351   5.911   3.913   1.098
 5449TIP3   OH216352   5.476   3.513   4.998
 5449TIP3    H116353   5.514   3.515   5.086
 5449TIP3    H216354   5.382   3.509   5.013
 5450TIP3   OH216355   1.670   2.885   3.370
 5450TIP3    H116356   1.727   2.938   3.314
 5450TIP3    H216357   1.700   2.902   3.459
 5451TIP3   OH216358   5.805   4.782   1.934
 5451TIP3    H116359   5.744   4.708   1.937
 5451TIP3    H216360   5.784   4.827   1.852
 5452TIP3   OH216361   4.087   4.505   3.909
 5452TIP3    H116362   4.114   4.590   3.874
 5452TIP3    H216363   4.039   4.525   3.988
 5453TIP3   OH216364   4.021   0.017   2.040
 5453TIP3    H116365   4.085  -0.047   2.070
 5453TIP3    H216366   4.025   0.087   2.105
 5454TIP3   OH216367   2.400   3.191   2.636
 5454TIP3    H116368   2.447   3.267   2.601
 5454TIP3    H216369   2.388   3.133   2.561
 5455TIP3   OH216370   2.985   5.118   0.599
 5455TIP3    H116371   3.026   5.073   0.524
 5455TIP3    H216372   3.044   5.100   0.672
 5456TIP3   OH216373   5.174   0.297   1.424
 5456TIP3    H116374   5.168   0.214   1.377
 5456TIP3    H216375   5.244   0.344   1.380
 5457TIP3   OH216376   1.858   3.103   0.261
 5457TIP3    H116377   1.787   3.163   0.286
 5457TIP3    H216378   1.896   3.143   0.183
 5458TIP3   OH216379   4.949   1.476   3.782
 5458TIP3    H116380   5.005   1.414   3.828
 5458TIP3    H216381   4.903   1.523   3.851
 5459TIP3   OH216382   4.073   5.004   0.122
 5459TIP3    H116383   4.076   5.097   0.144
 5459TIP3    H216384   4.164   4.976   0.126
 5460TIP3   OH216385   1.696   3.402   0.633
 5460TIP3    H116386   1.659   3.455   0.562
 5460TIP3    H216387   1.653   3.317   0.624
 5461TIP3   OH216388   5.987   2.651   2.783
 5461TIP3    H116389   6.081   2.666   2.780
 5461TIP3    H216390   5.961   2.681   2.870
 5462TIP3   OH216391   1.316   2.913   2.394
 5462TIP3    H116392   1.310   2.820   2.417
 5462TIP3    H216393   1.251   2.925   2.325
 5463TIP3   OH216394   5.228   1.181   0.905
 5463TIP3    H116395   5.158   1.129   0.944
 5463TIP3    H216396   5.299   1.178   0.969
 5464TIP3   OH216397   3.442   5.170   3.698
 5464TIP3    H116398   3.375   5.105   3.672
 5464TIP3    H216399   3.486   5.192   3.616
 5465TIP3   OH216400   5.579   5.102   4.676
 5465TIP3    H116401   5.640   5.047   4.725
 5465TIP3    H216402   5.635   5.155   4.619
 5466TIP3   OH216403   4.116   3.836   1.360
 5466TIP3    H116404   4.052   3.829   1.430
 5466TIP3    H216405   4.065   3.864   1.283
 5467TIP3   OH216406   5.682   1.224   1.700
 5467TIP3    H116407   5.637   1.140   1.712
 5467TIP3    H216408   5.669   1.247   1.608
 5468TIP3   OH216409   4.151   1.740   1.708
 5468TIP3    H116410   4.234   1.717   1.666
 5468TIP3    H216411   4.086   1.684   1.664
 5469TIP3   OH216412   4.600   1.602   4.987
 5469TIP3    H116413   4.623   1.546   4.913
 5469TIP3    H216414   4.668   1.669   4.989
 5470TIP3   OH216415   4.934   1.297   1.194
 5470TIP3    H116416   4.851   1.249   1.198
 5470TIP3    H216417   4.998   1.231   1.165
 5471TIP3   OH216418   0.691   3.941   3.208
 5471TIP3    H116419   0.774   3.986   3.191
 5471TIP3    H216420   0.717   3.855   3.240
 5472TIP3   OH216421   5.716   1.806   3.506
 5472TIP3    H116422   5.691   1.880   3.562
 5472TIP3    H216423   5.778   1.756   3.559
 5473TIP3   OH216424   2.903   3.951   0.934
 5473TIP3    H116425   2.864   3.990   1.013
 5473TIP3    H216426   2.968   4.016   0.905
 5474TIP3   OH216427   0.239   1.636   3.498
 5474TIP3    H116428   0.242   1.693   3.421
 5474TIP3    H216429   0.159   1.585   3.487
 5475TIP3   OH216430   5.494   5.505   4.722
 5475TIP3    H116431   5.438   5.429   4.737
 5475TIP3    H216432   5.567   5.493   4.783
 5476TIP3   OH216433   3.515   5.751   4.350
 5476TIP3    H116434   3.493   5.734   4.442
 5476TIP3    H216435   3.520   5.846   4.344
 5477TIP3   OH216436   1.125   0.756   4.447
 5477TIP3    H116437   1.171   0.809   4.382
 5477TIP3    H216438   1.071   0.819   4.495
 5478TIP3   OH216439   6.092   1.966   3.184
 5478TIP3    H116440   6.182   1.997   3.199
 5478TIP3    H216441   6.075   1.984   3.092
 5479TIP3   OH216442   3.624   0.869   3.307
 5479TIP3    H116443   3.606   0.786   3.351
 5479TIP3    H216444   3.558   0.929   3.341
 5480TIP3   OH216445   3.529   4.579   2.316
 5480TIP3    H116446   3.562   4.577   2.406
 5480TIP3    H216447   3.594   4.531   2.265
 5481TIP3   OH216448   2.517   0.639   3.815
 5481TIP3    H116449   2.453   0.615   3.749
 5481TIP3    H216450   2.594   0.667   3.766
 5482TIP3   OH216451   0.799   0.322   1.838
 5482TIP3    H116452   0.833   0.235   1.858
 5482TIP3    H216453   0.724   0.306   1.781
 5483TIP3   OH216454   3.482   0.056   3.139
 5483TIP3    H116455   3.547   0.110   3.094
 5483TIP3    H216456   3.504  -0.034   3.115
 5484TIP3   OH216457   5.645   3.803   1.031
 5484TIP3    H116458   5.710   3.871   1.047
 5484TIP3    H216459   5.609   3.824   0.945
 5485TIP3   OH216460   2.102   2.750   0.463
 5485TIP3    H116461   2.023   2.721   0.417
 5485TIP3    H216462   2.102   2.845   0.455
 5486TIP3   OH216463   2.816   1.943   3.320
 5486TIP3    H116464   2.815   1.910   3.231
 5486TIP3    H216465   2.738   1.998   3.326
 5487TIP3   OH216466   1.182   2.695   0.707
 5487TIP3    H116467   1.163   2.758   0.637
 5487TIP3    H216468   1.229   2.625   0.663
 5488TIP3   OH216469   0.644   2.999   1.561
 5488TIP3    H116470   0.721   2.948   1.585
 5488TIP3    H216471   0.579   2.933   1.536
 5489TIP3   OH216472   4.125   3.918   4.097
 5489TIP3    H116473   4.100   3.979   4.167
 5489TIP3    H216474   4.124   3.972   4.018
 5490TIP3   OH216475   5.244   0.198   3.777
 5490TIP3    H116476   5.154   0.228   3.762
 5490TIP3    H216477   5.283   0.196   3.689
 5491TIP3   OH216478   1.709   2.087   2.273
 5491TIP3    H116479   1.732   2.013   2.329
 5491TIP3    H216480   1.778   2.152   2.288
 5492TIP3   OH216481   6.152   1.485   4.826
 5492TIP3    H116482   6.117   1.437   4.902
 5492TIP3    H216483   6.240   1.448   4.814
 5493TIP3   OH216484   3.560   0.123   0.379
 5493TIP3    H116485   3.599   0.201   0.417
 5493TIP3    H216486   3.483   0.106   0.433
 5494TIP3   OH216487   2.325   1.994   1.186
 5494TIP3    H116488   2.418   1.992   1.163
 5494TIP3    H216489   2.287   1.920   1.139
 5495TIP3   OH216490   1.727   4.959   2.466
 5495TIP3    H116491   1.781   4.880   2.470
 5495TIP3    H216492   1.637   4.927   2.477
 5496TIP3   OH216493   5.487   1.674   0.451
 5496TIP3    H116494   5.444   1.742   0.399
 5496TIP3    H216495   5.545   1.630   0.390
 5497TIP3   OH216496   1.129   0.505   4.329
 5497TIP3    H116497   1.123   0.587   4.377
 5497TIP3    H216498   1.038   0.474   4.324
 5498TIP3   OH216499   0.454   1.368   0.191
 5498TIP3    H116500   0.463   1.460   0.165
 5498TIP3    H216501   0.461   1.319   0.110
 5499TIP3   OH216502   4.682   3.857   3.999
 5499TIP3    H116503   4.759   3.840   4.054
 5499TIP3    H216504   4.666   3.774   3.955
 5500TIP3   OH216505   5.427   1.196   1.092
 5500TIP3    H116506   5.492   1.132   1.065
 5500TIP3    H216507   5.476   1.277   1.106
 5501TIP3   OH216508   2.690   3.871   2.763
 5501TIP3    H116509   2.616   3.810   2.758
 5501TIP3    H216510   2.653   3.955   2.739
 5502TIP3   OH216511   2.525   3.481   3.041
 5502TIP3    H116512   2.497   3.570   3.063
 5502TIP3    H216513   2.545   3.441   3.126
 5503TIP3   OH216514   1.893   0.454   3.945
 5503TIP3    H116515   1.824   0.517   3.924
 5503TIP3    H216516   1.860   0.407   4.022
 5504TIP3   OH216517   5.003   1.457   4.258
 5504TIP3    H116518   5.044   1.540   4.235
 5504TIP3    H216519   5.068   1.391   4.233
 5505TIP3   OH216520   1.356   3.298   3.807
 5505TIP3    H116521   1.282   3.313   3.866
 5505TIP3    H216522   1.396   3.217   3.838
 5506TIP3   OH216523   6.037   1.178   4.859
 5506TIP3    H116524   6.009   1.126   4.934
 5506TIP3    H216525   6.031   1.269   4.889
 5507TIP3   OH216526   3.872   2.832   3.293
 5507TIP3    H116527   3.866   2.909   3.350
 5507TIP3    H216528   3.791   2.833   3.243
 5508TIP3   OH216529   6.216   2.592   0.758
 5508TIP3    H116530   6.207   2.515   0.815
 5508TIP3    H216531   6.156   2.575   0.686
 5509TIP3   OH216532   5.797   5.232   5.069
 5509TIP3    H116533   5.726   5.273   5.119
 5509TIP3    H216534   5.760   5.150   5.038
 5510TIP3   OH216535   2.399   3.752   2.898
 5510TIP3    H116536   2.403   3.829   2.956
 5510TIP3    H216537   2.310   3.752   2.864
 5511TIP3   OH216538   0.481   0.733   0.631
 5511TIP3    H116539   0.422   0.662   0.604
 5511TIP3    H216540   0.553   0.688   0.677
 5512TIP3   OH216541   0.778   3.867   4.799
 5512TIP3    H116542   0.830   3.917   4.736
 5512TIP3    H216543   0.826   3.875   4.881
 5513TIP3   OH216544   2.955   2.993   2.915
 5513TIP3    H116545   2.904   3.029   2.842
 5513TIP3    H216546   2.896   2.930   2.957
 5514TIP3   OH216547   2.697   2.759   5.087
 5514TIP3    H116548   2.697   2.825   5.017
 5514TIP3    H216549   2.718   2.677   5.042
 5515TIP3   OH216550   6.174   1.605   0.807
 5515TIP3    H116551   6.099   1.605   0.866
 5515TIP3    H216552   6.155   1.534   0.745
 5516TIP3   OH216553   6.156   5.251   0.538
 5516TIP3    H116554   6.079   5.306   0.552
 5516TIP3    H216555   6.174   5.258   0.444
 5517TIP3   OH216556   2.087   0.744   0.830
 5517TIP3    H116557   2.003   0.788   0.823
 5517TIP3    H216558   2.143   0.806   0.878
 5518TIP3   OH216559   3.695   0.606   3.641
 5518TIP3    H116560   3.664   0.524   3.681
 5518TIP3    H216561   3.790   0.597   3.640
 5519TIP3   OH216562   0.733   5.380   1.028
 5519TIP3    H116563   0.768   5.437   1.096
 5519TIP3    H216564   0.736   5.433   0.948
 5520TIP3   OH216565   6.178   2.019   3.843
 5520TIP3    H116566   6.132   1.976   3.771
 5520TIP3    H216567   6.114   2.080   3.879
 5521TIP3   OH216568   0.672   4.926   2.605
 5521TIP3    H116569   0.706   4.882   2.683
 5521TIP3    H216570   0.598   4.977   2.637
 5522TIP3   OH216571   1.033   4.395   1.599
 5522TIP3    H116572   1.110   4.346   1.571
 5522TIP3    H216573   0.960   4.335   1.585
 5523TIP3   OH216574   0.963   4.848   3.387
 5523TIP3    H116575   1.053   4.837   3.419
 5523TIP3    H216576   0.934   4.759   3.367
 5524TIP3   OH216577   2.862   4.889   2.143
 5524TIP3    H116578   2.953   4.863   2.139
 5524TIP3    H216579   2.863   4.973   2.190
 5525TIP3   OH216580   5.127   4.812   3.935
 5525TIP3    H116581   5.197   4.782   3.878
 5525TIP3    H216582   5.126   4.907   3.925
 5526TIP3   OH216583   0.455   2.038   0.477
 5526TIP3    H116584   0.540   2.002   0.453
 5526TIP3    H216585   0.446   2.017   0.570
 5527TIP3   OH216586   2.621   0.005   5.026
 5527TIP3    H116587   2.568  -0.074   5.038
 5527TIP3    H216588   2.711  -0.023   5.043
 5528TIP3   OH216589   5.123   5.803   2.919
 5528TIP3    H116590   5.129   5.766   3.007
 5528TIP3    H216591   5.211   5.835   2.900
 5529TIP3   OH216592   4.267   1.760   3.463
 5529TIP3    H116593   4.307   1.672   3.460
 5529TIP3    H216594   4.237   1.776   3.373
 5530TIP3   OH216595   1.388   5.032   2.957
 5530TIP3    H116596   1.417   5.071   3.039
 5530TIP3    H216597   1.449   4.960   2.941
 5531TIP3   OH216598   2.592   3.806   3.682
 5531TIP3    H116599   2.672   3.785   3.632
 5531TIP3    H216600   2.590   3.740   3.751
 5532TIP3   OH216601   3.934   5.920   3.729
 5532TIP3    H116602   3.953   5.973   3.652
 5532TIP3    H216603   3.839   5.916   3.734
 5533TIP3   OH216604   2.275   3.509   4.735
 5533TIP3    H116605   2.312   3.587   4.777
 5533TIP3    H216606   2.350   3.450   4.724
 5534TIP3   OH216607   4.211   1.945   1.930
 5534TIP3    H116608   4.183   2.037   1.934
 5534TIP3    H216609   4.142   1.901   1.880
 5535TIP3   OH216610   4.348   4.235   0.693
 5535TIP3    H116611   4.331   4.179   0.617
 5535TIP3    H216612   4.323   4.323   0.664
 5536TIP3   OH216613   4.279   3.165   1.467
 5536TIP3    H116614   4.371   3.191   1.474
 5536TIP3    H216615   4.231   3.235   1.511
 5537TIP3   OH216616   5.866   3.037   5.094
 5537TIP3    H116617   5.856   2.975   5.022
 5537TIP3    H216618   5.797   3.102   5.080
 5538TIP3   OH216619   2.882   2.238   2.736
 5538TIP3    H116620   2.790   2.242   2.759
 5538TIP3    H216621   2.926   2.295   2.800
 5539TIP3   OH216622   4.819   4.480   0.105
 5539TIP3    H116623   4.832   4.487   0.010
 5539TIP3    H216624   4.907   4.485   0.142
 5540TIP3   OH216625   4.577   5.512   0.515
 5540TIP3    H116626   4.519   5.440   0.488
 5540TIP3    H216627   4.518   5.586   0.530
 5541TIP3   OH216628   0.807   0.987   1.737
 5541TIP3    H116629   0.898   0.961   1.748
 5541TIP3    H216630   0.808   1.082   1.733
 5542TIP3   OH216631   3.481   2.910   1.804
 5542TIP3    H116632   3.562   2.915   1.754
 5542TIP3    H216633   3.487   2.827   1.852
 5543TIP3   OH216634   5.395   1.607   2.165
 5543TIP3    H116635   5.333   1.617   2.238
 5543TIP3    H216636   5.385   1.516   2.138
 5544TIP3   OH216637   1.792   5.663   1.763
 5544TIP3    H116638   1.746   5.580   1.750
 5544TIP3    H216639   1.741   5.728   1.715
 5545TIP3   OH216640   0.997   3.483   4.751
 5545TIP3    H116641   1.017   3.535   4.828
 5545TIP3    H216642   0.940   3.412   4.783
 5546TIP3   OH216643   5.305   0.810   4.409
 5546TIP3    H116644   5.292   0.860   4.490
 5546TIP3    H216645   5.244   0.736   4.418
 5547TIP3   OH216646   1.261   5.857   1.289
 5547TIP3    H116647   1.187   5.811   1.247
 5547TIP3    H216648   1.332   5.850   1.226
 5548TIP3   OH216649   2.303   2.454   0.845
 5548TIP3    H116650   2.233   2.469   0.782
 5548TIP3    H216651   2.382   2.442   0.792
 5549TIP3   OH216652   5.422   5.774   4.609
 5549TIP3    H116653   5.448   5.684   4.631
 5549TIP3    H216654   5.427   5.821   4.692
 5550TIP3   OH216655   1.046   3.269   0.395
 5550TIP3    H116656   0.981   3.220   0.446
 5550TIP3    H216657   0.994   3.324   0.336
 5551TIP3   OH216658   0.985   3.395   3.507
 5551TIP3    H116659   1.062   3.345   3.532
 5551TIP3    H216660   0.956   3.356   3.425
 5552TIP3   OH216661   1.713   4.987   1.526
 5552TIP3    H116662   1.785   4.961   1.583
 5552TIP3    H216663   1.750   4.989   1.438
 5553TIP3   OH216664   4.175   3.854   4.818
 5553TIP3    H116665   4.210   3.832   4.732
 5553TIP3    H216666   4.188   3.775   4.871
 5554TIP3   OH216667   1.219   0.167   4.813
 5554TIP3    H116668   1.188   0.081   4.839
 5554TIP3    H216669   1.304   0.177   4.856
 5555TIP3   OH216670   2.867   5.547   0.040
 5555TIP3    H116671   2.794   5.592  -0.002
 5555TIP3    H216672   2.926   5.618   0.066
 5556TIP3   OH216673   5.364   5.303   2.360
 5556TIP3    H116674   5.346   5.391   2.390
 5556TIP3    H216675   5.396   5.314   2.270
 5557TIP3   OH216676   4.726   0.970   2.455
 5557TIP3    H116677   4.708   0.890   2.405
 5557TIP3    H216678   4.653   0.978   2.516
 5558TIP3   OH216679   3.795   4.677   1.491
 5558TIP3    H116680   3.807   4.746   1.557
 5558TIP3    H216681   3.701   4.660   1.491
 5559TIP3   OH216682   4.357   3.293   0.961
 5559TIP3    H116683   4.353   3.210   1.009
 5559TIP3    H216684   4.349   3.360   1.029
 5560TIP3   OH216685   3.171   5.617   1.229
 5560TIP3    H116686   3.256   5.578   1.205
 5560TIP3    H216687   3.181   5.640   1.321
 5561TIP3   OH216688   6.103   1.244   3.739
 5561TIP3    H116689   6.015   1.255   3.705
 5561TIP3    H216690   6.124   1.152   3.725
 5562TIP3   OH216691   5.908   4.344   3.360
 5562TIP3    H116692   5.890   4.262   3.313
 5562TIP3    H216693   5.822   4.374   3.390
 5563TIP3   OH216694   2.616   2.883   4.841
 5563TIP3    H116695   2.624   2.808   4.783
 5563TIP3    H216696   2.528   2.877   4.876
 5564TIP3   OH216697   3.794   4.563   2.466
 5564TIP3    H116698   3.879   4.535   2.501
 5564TIP3    H216699   3.733   4.548   2.539
 5565TIP3   OH216700   0.190   0.772   1.434
 5565TIP3    H116701   0.272   0.730   1.409
 5565TIP3    H216702   0.167   0.826   1.358
 5566TIP3   OH216703   3.116   5.843   3.794
 5566TIP3    H116704   3.067   5.767   3.826
 5566TIP3    H216705   3.051   5.913   3.789
 5567TIP3   OH216706   2.756   0.409   2.787
 5567TIP3    H116707   2.754   0.323   2.745
 5567TIP3    H216708   2.843   0.414   2.827
 5568TIP3   OH216709   3.399   1.989   0.080
 5568TIP3    H116710   3.420   2.059   0.018
 5568TIP3    H216711   3.437   1.910   0.040
 5569TIP3   OH216712   0.126   3.244   2.017
 5569TIP3    H116713   0.151   3.232   1.925
 5569TIP3    H216714   0.185   3.186   2.065
 5570TIP3   OH216715   5.559   3.991   1.448
 5570TIP3    H116716   5.620   3.928   1.411
 5570TIP3    H216717   5.526   3.949   1.528
 5571TIP3   OH216718   2.167   0.292   3.270
 5571TIP3    H116719   2.126   0.279   3.355
 5571TIP3    H216720   2.165   0.387   3.257
 5572TIP3   OH216721   0.498   5.542   5.012
 5572TIP3    H116722   0.475   5.504   5.097
 5572TIP3    H216723   0.451   5.625   5.009
 5573TIP3   OH216724   4.215   1.499   1.425
 5573TIP3    H116725   4.184   1.408   1.433
 5573TIP3    H216726   4.139   1.552   1.450
 5574TIP3   OH216727   1.654   3.782   2.695
 5574TIP3    H116728   1.746   3.793   2.671
 5574TIP3    H216729   1.649   3.694   2.732
 5575TIP3   OH216730   3.612   3.983   1.172
 5575TIP3    H116731   3.675   3.992   1.244
 5575TIP3    H216732   3.647   4.039   1.102
 5576TIP3   OH216733   0.989   2.416   2.024
 5576TIP3    H116734   0.997   2.352   1.953
 5576TIP3    H216735   0.916   2.384   2.077
 5577TIP3   OH216736   1.019   0.450   2.842
 5577TIP3    H116737   1.038   0.359   2.865
 5577TIP3    H216738   1.100   0.497   2.861
 5578TIP3   OH216739   0.296   0.504   4.496
 5578TIP3    H116740   0.261   0.421   4.461
 5578TIP3    H216741   0.218   0.555   4.518
 5579TIP3   OH216742   5.254   4.160   0.330
 5579TIP3    H116743   5.274   4.250   0.355
 5579TIP3    H216744   5.297   4.149   0.245
 5580TIP3   OH216745   5.937   2.644   4.603
 5580TIP3    H116746   5.950   2.608   4.691
 5580TIP3    H216747   6.023   2.679   4.578
 5581TIP3   OH216748   5.483   2.763   3.801
 5581TIP3    H116749   5.404   2.778   3.852
 5581TIP3    H216750   5.543   2.720   3.863
 5582TIP3   OH216751   0.725   1.143   2.571
 5582TIP3    H116752   0.709   1.151   2.665
 5582TIP3    H216753   0.754   1.231   2.545
 5583TIP3   OH216754   4.971   3.792   4.440
 5583TIP3    H116755   5.006   3.728   4.501
 5583TIP3    H216756   5.037   3.797   4.371
 5584TIP3   OH216757   1.970   0.013   1.731
 5584TIP3    H116758   2.023   0.092   1.718
 5584TIP3    H216759   1.882   0.045   1.749
 5585TIP3   OH216760   4.101   0.914   2.561
 5585TIP3    H116761   4.053   0.985   2.517
 5585TIP3    H216762   4.141   0.865   2.489
 5586TIP3   OH216763   1.907   2.839   4.024
 5586TIP3    H116764   1.894   2.861   4.116
 5586TIP3    H216765   1.989   2.882   4.000
 5587TIP3   OH216766   3.631   3.185   1.402
 5587TIP3    H116767   3.659   3.262   1.451
 5587TIP3    H216768   3.538   3.199   1.386
 5588TIP3   OH216769   1.812   0.316   3.100
 5588TIP3    H116770   1.773   0.288   3.183
 5588TIP3    H216771   1.861   0.240   3.070
 5589TIP3   OH216772   2.621   4.256   2.955
 5589TIP3    H116773   2.658   4.173   2.984
 5589TIP3    H216774   2.606   4.245   2.861
 5590TIP3   OH216775   6.149   5.417   4.533
 5590TIP3    H116776   6.118   5.460   4.612
 5590TIP3    H216777   6.166   5.327   4.559
 5591TIP3   OH216778   3.580   3.788   0.490
 5591TIP3    H116779   3.652   3.752   0.541
 5591TIP3    H216780   3.501   3.751   0.529
 5592TIP3   OH216781   0.747   3.676   2.804
 5592TIP3    H116782   0.718   3.670   2.713
 5592TIP3    H216783   0.804   3.601   2.817
 5593TIP3   OH216784   1.208   5.164   2.564
 5593TIP3    H116785   1.190   5.193   2.653
 5593TIP3    H216786   1.141   5.098   2.546
 5594TIP3   OH216787   3.696   0.425   0.052
 5594TIP3    H116788   3.780   0.433   0.007
 5594TIP3    H216789   3.718   0.392   0.139
 5595TIP3   OH216790   4.331   5.006   2.534
 5595TIP3    H116791   4.382   4.927   2.556
 5595TIP3    H216792   4.298   4.989   2.446
 5596TIP3   OH216793   3.820   1.784   3.011
 5596TIP3    H116794   3.881   1.713   3.027
 5596TIP3    H216795   3.743   1.742   2.971
 5597TIP3   OH216796   0.198   4.491   4.089
 5597TIP3    H116797   0.284   4.462   4.058
 5597TIP3    H216798   0.144   4.494   4.010
 5598TIP3   OH216799   4.221   4.570   4.851
 5598TIP3    H116800   4.284   4.501   4.871
 5598TIP3    H216801   4.213   4.568   4.755
 5599TIP3   OH216802   5.954   0.615   3.300
 5599TIP3    H116803   5.916   0.551   3.360
 5599TIP3    H216804   5.911   0.598   3.216
 5600TIP3   OH216805   0.327   0.036   4.859
 5600TIP3    H116806   0.340   0.121   4.902
 5600TIP3    H216807   0.270  -0.012   4.918
 5601TIP3   OH216808   3.797   1.701   4.803
 5601TIP3    H116809   3.767   1.641   4.871
 5601TIP3    H216810   3.844   1.769   4.851
 5602TIP3   OH216811   3.226   5.085   3.985
 5602TIP3    H116812   3.181   5.076   4.068
 5602TIP3    H216813   3.211   5.176   3.959
 5603TIP3   OH216814   2.768   4.088   2.309
 5603TIP3    H116815   2.766   4.165   2.365
 5603TIP3    H216816   2.857   4.086   2.273
 5604TIP3   OH216817   5.369   0.577   1.340
 5604TIP3    H116818   5.312   0.612   1.408
 5604TIP3    H216819   5.447   0.547   1.387
 5605TIP3   OH216820   4.148   2.844   2.671
 5605TIP3    H116821   4.233   2.869   2.635
 5605TIP3    H216822   4.139   2.895   2.751
 5606TIP3   OH216823   5.829   0.109   2.141
 5606TIP3    H116824   5.757   0.049   2.159
 5606TIP3    H216825   5.823   0.125   2.047
 5607TIP3   OH216826   4.479   0.433   1.051
 5607TIP3    H116827   4.555   0.461   0.999
 5607TIP3    H216828   4.428   0.379   0.991
 5608TIP3   OH216829   3.193   4.118   2.767
 5608TIP3    H116830   3.266   4.119   2.829
 5608TIP3    H216831   3.233   4.103   2.682
 5609TIP3   OH216832   0.402   5.079   2.972
 5609TIP3    H116833   0.427   5.102   3.062
 5609TIP3    H216834   0.485   5.065   2.927
 5610TIP3   OH216835   3.992   3.029   3.784
 5610TIP3    H116836   3.922   3.066   3.837
 5610TIP3    H216837   4.064   3.091   3.793
 5611TIP3   OH216838   4.416   2.125   1.266
 5611TIP3    H116839   4.353   2.071   1.314
 5611TIP3    H216840   4.488   2.065   1.246
 5612TIP3   OH216841   0.983   4.018   0.445
 5612TIP3    H116842   0.972   4.074   0.368
 5612TIP3    H216843   1.002   3.931   0.408
 5613TIP3   OH216844   1.641   2.811   2.527
 5613TIP3    H116845   1.735   2.822   2.510
 5613TIP3    H216846   1.621   2.723   2.495
 5614TIP3   OH216847   2.927   2.189   3.820
 5614TIP3    H116848   2.897   2.242   3.746
 5614TIP3    H216849   3.017   2.220   3.835
 5615TIP3   OH216850   5.392   0.756   0.751
 5615TIP3    H116851   5.333   0.691   0.714
 5615TIP3    H216852   5.349   0.785   0.831
 5616TIP3   OH216853   5.709   2.585   1.461
 5616TIP3    H116854   5.673   2.556   1.545
 5616TIP3    H216855   5.787   2.531   1.448
 5617TIP3   OH216856   5.742   3.500   4.824
 5617TIP3    H116857   5.793   3.568   4.869
 5617TIP3    H216858   5.667   3.486   4.882
 5618TIP3   OH216859   6.200   0.106   0.601
 5618TIP3    H116860   6.235   0.151   0.524
 5618TIP3    H216861   6.136   0.167   0.638
 5619TIP3   OH216862   0.797   2.788   0.729
 5619TIP3    H116863   0.887   2.813   0.708
 5619TIP3    H216864   0.744   2.861   0.697
 5620TIP3   OH216865   4.070   5.310   2.135
 5620TIP3    H116866   4.096   5.255   2.209
 5620TIP3    H216867   3.977   5.291   2.123
 5621TIP3   OH216868   0.205   3.531   1.821
 5621TIP3    H116869   0.257   3.541   1.741
 5621TIP3    H216870   0.224   3.609   1.872
 5622TIP3   OH216871   0.954   3.280   5.128
 5622TIP3    H116872   1.045   3.258   5.109
 5622TIP3    H216873   0.905   3.242   5.055
 5623TIP3   OH216874   4.562   5.642   4.819
 5623TIP3    H116875   4.650   5.670   4.840
 5623TIP3    H216876   4.564   5.546   4.829
 5624TIP3   OH216877   5.199   4.680   0.490
 5624TIP3    H116878   5.104   4.686   0.482
 5624TIP3    H216879   5.232   4.713   0.406
 5625TIP3   OH216880   5.708   2.000   0.950
 5625TIP3    H116881   5.646   2.038   0.888
 5625TIP3    H216882   5.756   1.935   0.899
 5626TIP3   OH216883   1.287   2.966   5.069
 5626TIP3    H116884   1.371   2.996   5.101
 5626TIP3    H216885   1.241   3.046   5.042
 5627TIP3   OH216886   4.609   5.846   1.236
 5627TIP3    H116887   4.576   5.924   1.193
 5627TIP3    H216888   4.700   5.839   1.207
 5628TIP3   OH216889   3.251   1.344   0.686
 5628TIP3    H116890   3.319   1.353   0.753
 5628TIP3    H216891   3.298   1.349   0.603
 5629TIP3   OH216892   5.911   3.311   1.237
 5629TIP3    H116893   5.906   3.299   1.332
 5629TIP3    H216894   5.939   3.226   1.203
 5630TIP3   OH216895   4.436   3.060   3.363
 5630TIP3    H116896   4.455   3.036   3.273
 5630TIP3    H216897   4.371   2.996   3.392
 5631TIP3   OH216898   2.588   3.946   4.367
 5631TIP3    H116899   2.632   3.979   4.289
 5631TIP3    H216900   2.518   4.010   4.384
 5632TIP3   OH216901   4.710   0.995   4.125
 5632TIP3    H116902   4.720   0.994   4.030
 5632TIP3    H216903   4.724   0.904   4.152
 5633TIP3   OH216904   5.781   2.835   0.939
 5633TIP3    H116905   5.863   2.791   0.960
 5633TIP3    H216906   5.806   2.925   0.920
 5634TIP3   OH216907   1.840   5.072   0.966
 5634TIP3    H116908   1.874   5.159   0.948
 5634TIP3    H216909   1.751   5.074   0.931
 5635TIP3   OH216910   4.343   5.863   2.123
 5635TIP3    H116911   4.436   5.876   2.108
 5635TIP3    H216912   4.320   5.931   2.187
 5636TIP3   OH216913   1.215   3.860   0.586
 5636TIP3    H116914   1.153   3.925   0.551
 5636TIP3    H216915   1.168   3.821   0.660
 5637TIP3   OH216916   4.898   3.367   5.069
 5637TIP3    H116917   4.819   3.391   5.116
 5637TIP3    H216918   4.871   3.298   5.009
 5638TIP3   OH216919   1.590   3.465   0.921
 5638TIP3    H116920   1.622   3.439   1.007
 5638TIP3    H216921   1.667   3.461   0.865
 5639TIP3   OH216922   4.265   5.971   1.863
 5639TIP3    H116923   4.295   5.901   1.921
 5639TIP3    H216924   4.318   5.962   1.784
 5640TIP3   OH216925   0.255   4.886   0.529
 5640TIP3    H116926   0.298   4.877   0.614
 5640TIP3    H216927   0.212   4.972   0.532
 5641TIP3   OH216928   3.642   5.205   3.449
 5641TIP3    H116929   3.671   5.130   3.397
 5641TIP3    H216930   3.548   5.211   3.431
 5642TIP3   OH216931   4.267   1.161   2.514
 5642TIP3    H116932   4.298   1.075   2.486
 5642TIP3    H216933   4.173   1.150   2.524
 5643TIP3   OH216934   3.755   2.148   4.605
 5643TIP3    H116935   3.753   2.151   4.510
 5643TIP3    H216936   3.804   2.227   4.630
 5644TIP3   OH216937   6.175   2.866   2.972
 5644TIP3    H116938   6.116   2.941   2.959
 5644TIP3    H216939   6.241   2.899   3.033
 5645TIP3   OH216940   1.000   3.574   1.657
 5645TIP3    H116941   1.011   3.534   1.571
 5645TIP3    H216942   0.965   3.661   1.639
 5646TIP3   OH216943   4.182   1.166   3.015
 5646TIP3    H116944   4.121   1.223   2.967
 5646TIP3    H216945   4.132   1.135   3.090
 5647TIP3   OH216946   0.881   3.900   5.128
 5647TIP3    H116947   0.852   3.941   5.210
 5647TIP3    H216948   0.948   3.959   5.095
 5648TIP3   OH216949   4.926   1.241   1.965
 5648TIP3    H116950   4.984   1.264   1.892
 5648TIP3    H216951   4.898   1.152   1.946
 5649TIP3   OH216952   5.978   5.407   1.598
 5649TIP3    H116953   5.944   5.373   1.680
 5649TIP3    H216954   6.009   5.495   1.620
 5650TIP3   OH216955   2.587   2.281   4.854
 5650TIP3    H116956   2.543   2.226   4.919
 5650TIP3    H216957   2.656   2.224   4.818
 5651TIP3   OH216958   2.242   3.902   4.146
 5651TIP3    H116959   2.256   3.967   4.215
 5651TIP3    H216960   2.324   3.852   4.144
 5652TIP3   OH216961   3.606   2.393   4.476
 5652TIP3    H116962   3.653   2.317   4.440
 5652TIP3    H216963   3.675   2.457   4.495
 5653TIP3   OH216964   2.386   0.779   3.572
 5653TIP3    H116965   2.425   0.855   3.616
 5653TIP3    H216966   2.346   0.816   3.493
 5654TIP3   OH216967   3.214   1.379   1.576
 5654TIP3    H116968   3.270   1.411   1.505
 5654TIP3    H216969   3.165   1.456   1.605
 5655TIP3   OH216970   1.670   4.364   3.739
 5655TIP3    H116971   1.593   4.307   3.743
 5655TIP3    H216972   1.709   4.347   3.654
 5656TIP3   OH216973   3.021   5.966   1.806
 5656TIP3    H116974   3.072   5.945   1.728
 5656TIP3    H216975   2.978   6.049   1.785
 5657TIP3   OH216976   5.210   3.863   0.751
 5657TIP3    H116977   5.196   3.778   0.708
 5657TIP3    H216978   5.268   3.910   0.692
 5658TIP3   OH216979   3.250   3.559   4.982
 5658TIP3    H116980   3.183   3.494   4.962
 5658TIP3    H216981   3.221   3.599   5.064
 5659TIP3   OH216982   3.035   0.394   2.671
 5659TIP3    H116983   3.025   0.392   2.576
 5659TIP3    H216984   3.002   0.480   2.697
 5660TIP3   OH216985   0.812   2.277   0.627
 5660TIP3    H116986   0.907   2.266   0.629
 5660TIP3    H216987   0.793   2.331   0.703
 5661TIP3   OH216988   3.892   3.901   4.627
 5661TIP3    H116989   3.798   3.888   4.621
 5661TIP3    H216990   3.902   3.985   4.672
 5662TIP3   OH216991   0.278   4.439   4.415
 5662TIP3    H116992   0.281   4.379   4.341
 5662TIP3    H216993   0.358   4.492   4.406
 5663TIP3   OH216994   6.247   2.936   0.375
 5663TIP3    H116995   6.158   2.911   0.399
 5663TIP3    H216996   6.273   2.873   0.308
 5664TIP3   OH216997   5.707   0.698   2.691
 5664TIP3    H116998   5.611   0.694   2.687
 5664TIP3    H216999   5.736   0.609   2.673
 5665TIP3   OH217000   5.473   1.832   4.730
 5665TIP3    H117001   5.454   1.738   4.733
 5665TIP3    H217002   5.387   1.873   4.725
 5666TIP3   OH217003   3.526   1.819   3.997
 5666TIP3    H117004   3.505   1.756   4.066
 5666TIP3    H217005   3.503   1.904   4.035
 5667TIP3   OH217006   5.582   4.087   2.821
 5667TIP3    H117007   5.556   4.179   2.817
 5667TIP3    H217008   5.676   4.088   2.803
 5668TIP3   OH217009   1.063   1.573   0.808
 5668TIP3    H117010   1.114   1.626   0.747
 5668TIP3    H217011   1.123   1.557   0.882
 5669TIP3   OH217012   5.491   3.437   3.279
 5669TIP3    H117013   5.399   3.413   3.278
 5669TIP3    H217014   5.535   3.361   3.317
 5670TIP3   OH217015   6.019   5.089   0.148
 5670TIP3    H117016   5.989   5.152   0.083
 5670TIP3    H217017   6.047   5.013   0.097
 5671TIP3   OH217018   6.292   1.445   2.463
 5671TIP3    H117019   6.380   1.449   2.425
 5671TIP3    H217020   6.238   1.409   2.393
 5672TIP3   OH217021   0.018   0.998   1.995
 5672TIP3    H117022   0.028   1.009   2.090
 5672TIP3    H217023   0.015   1.087   1.960
 5673TIP3   OH217024   1.001   2.269   4.137
 5673TIP3    H117025   1.017   2.333   4.068
 5673TIP3    H217026   0.945   2.315   4.200
 5674TIP3   OH217027   1.248   2.587   1.324
 5674TIP3    H117028   1.311   2.645   1.282
 5674TIP3    H217029   1.267   2.500   1.289
 5675TIP3   OH217030   3.305   4.067   0.131
 5675TIP3    H117031   3.279   3.977   0.149
 5675TIP3    H217032   3.400   4.067   0.138
 5676TIP3   OH217033   0.118   4.774   0.907
 5676TIP3    H117034   0.205   4.759   0.871
 5676TIP3    H217035   0.118   4.867   0.931
 5677TIP3   OH217036   0.384   1.468   4.819
 5677TIP3    H117037   0.414   1.531   4.754
 5677TIP3    H217038   0.357   1.521   4.894
 5678TIP3   OH217039   2.551   0.680   3.216
 5678TIP3    H117040   2.543   0.595   3.174
 5678TIP3    H217041   2.616   0.727   3.164
 5679TIP3   OH217042   0.201   2.108   2.105
 5679TIP3    H117043   0.157   2.071   2.182
 5679TIP3    H217044   0.221   2.198   2.130
 5680TIP3   OH217045   0.574   3.469   1.949
 5680TIP3    H117046   0.651   3.443   1.898
 5680TIP3    H217047   0.512   3.502   1.884
 5681TIP3   OH217048   3.851   2.770   2.639
 5681TIP3    H117049   3.820   2.777   2.729
 5681TIP3    H217050   3.943   2.798   2.642
 5682TIP3   OH217051   1.988   2.637   3.866
 5682TIP3    H117052   1.916   2.666   3.810
 5682TIP3    H217053   1.974   2.682   3.949
 5683TIP3   OH217054   3.909   0.293   0.908
 5683TIP3    H117055   3.893   0.342   0.988
 5683TIP3    H217056   3.920   0.360   0.841
 5684TIP3   OH217057   3.639   0.738   5.108
 5684TIP3    H117058   3.565   0.679   5.123
 5684TIP3    H217059   3.683   0.742   5.193
 5685TIP3   OH217060   5.785   1.031   4.434
 5685TIP3    H117061   5.859   1.022   4.495
 5685TIP3    H217062   5.710   0.995   4.482
 5686TIP3   OH217063   0.691   0.209   2.208
 5686TIP3    H117064   0.730   0.291   2.177
 5686TIP3    H217065   0.645   0.174   2.132
 5687TIP3   OH217066   1.743   4.560   2.488
 5687TIP3    H117067   1.771   4.477   2.449
 5687TIP3    H217068   1.734   4.540   2.581
 5688TIP3   OH217069   4.534   3.601   4.232
 5688TIP3    H117070   4.525   3.574   4.141
 5688TIP3    H217071   4.444   3.614   4.262
 5689TIP3   OH217072   4.030   3.544   0.595
 5689TIP3    H117073   4.074   3.500   0.668
 5689TIP3    H217074   4.087   3.617   0.573
 5690TIP3   OH217075   3.462   3.277   3.465
 5690TIP3    H117076   3.449   3.183   3.480
 5690TIP3    H217077   3.463   3.286   3.370
 5691TIP3   OH217078   2.331   5.036   5.160
 5691TIP3    H117079   2.407   5.093   5.172
 5691TIP3    H217080   2.294   5.064   5.077
 5692TIP3   OH217081   4.707   3.691   4.475
 5692TIP3    H117082   4.798   3.712   4.454
 5692TIP3    H217083   4.664   3.685   4.389
 5693TIP3   OH217084   3.164   2.263   2.652
 5693TIP3    H117085   3.076   2.227   2.669
 5693TIP3    H217086   3.188   2.227   2.567
 5694TIP3   OH217087   4.139   2.141   3.201
 5694TIP3    H117088   4.177   2.055   3.188
 5694TIP3    H217089   4.213   2.198   3.221
 5695TIP3   OH217090   5.808   0.651   0.094
 5695TIP3    H117091   5.741   0.640   0.162
 5695TIP3    H217092   5.845   0.738   0.111
 5696TIP3   OH217093   3.626   1.462   4.444
 5696TIP3    H117094   3.666   1.548   4.459
 5696TIP3    H217095   3.667   1.430   4.365
 5697TIP3   OH217096   4.246   0.139   4.186
 5697TIP3    H117097   4.211   0.080   4.253
 5697TIP3    H217098   4.177   0.204   4.174
 5698TIP3   OH217099   5.865   5.235   3.499
 5698TIP3    H117100   5.885   5.322   3.534
 5698TIP3    H217101   5.950   5.198   3.476
 5699TIP3   OH217102   2.666   1.550   3.922
 5699TIP3    H117103   2.606   1.508   3.861
 5699TIP3    H217104   2.723   1.604   3.866
 5700TIP3   OH217105   0.635   1.949   2.791
 5700TIP3    H117106   0.629   2.006   2.714
 5700TIP3    H217107   0.578   1.875   2.771
 5701TIP3   OH217108   2.923   5.367   4.412
 5701TIP3    H117109   2.844   5.355   4.359
 5701TIP3    H217110   2.931   5.285   4.461
 5702TIP3   OH217111   1.369   3.961   4.330
 5702TIP3    H117112   1.464   3.962   4.335
 5702TIP3    H217113   1.350   3.974   4.237
 5703TIP3   OH217114   3.009   4.532   3.259
 5703TIP3    H117115   2.943   4.598   3.282
 5703TIP3    H217116   2.971   4.487   3.184
 5704TIP3   OH217117   0.575   4.760   2.123
 5704TIP3    H117118   0.587   4.714   2.207
 5704TIP3    H217119   0.504   4.822   2.140
 5705TIP3   OH217120   3.883   1.020   0.772
 5705TIP3    H117121   3.855   1.088   0.833
 5705TIP3    H217122   3.951   0.972   0.819
 5706TIP3   OH217123   3.154   1.396   5.151
 5706TIP3    H117124   3.103   1.348   5.086
 5706TIP3    H217125   3.204   1.329   5.196
 5707TIP3   OH217126   0.232   2.781   2.758
 5707TIP3    H117127   0.260   2.691   2.772
 5707TIP3    H217128   0.292   2.833   2.812
 5708TIP3   OH217129   5.092   4.406   1.155
 5708TIP3    H117130   5.064   4.495   1.175
 5708TIP3    H217131   5.074   4.357   1.236
 5709TIP3   OH217132   1.079   5.146   4.444
 5709TIP3    H117133   0.990   5.121   4.419
 5709TIP3    H217134   1.102   5.216   4.383
 5710TIP3   OH217135   2.229   5.782   3.964
 5710TIP3    H117136   2.172   5.800   3.889
 5710TIP3    H217137   2.258   5.869   3.993
 5711TIP3   OH217138   5.533   3.782   0.759
 5711TIP3    H117139   5.627   3.773   0.745
 5711TIP3    H217140   5.495   3.784   0.671
 5712TIP3   OH217141   2.356   3.959   3.703
 5712TIP3    H117142   2.443   3.921   3.696
 5712TIP3    H217143   2.322   3.957   3.613
 5713TIP3   OH217144   0.672   0.831   4.316
 5713TIP3    H117145   0.603   0.766   4.304
 5713TIP3    H217146   0.753   0.783   4.303
 5714TIP3   OH217147   2.634   3.579   2.282
 5714TIP3    H117148   2.659   3.670   2.296
 5714TIP3    H217149   2.539   3.582   2.270
 5715TIP3   OH217150   6.097   2.922   3.553
 5715TIP3    H117151   6.064   2.868   3.481
 5715TIP3    H217152   6.019   2.961   3.592
 5716TIP3   OH217153   2.701   2.431   3.083
 5716TIP3    H117154   2.689   2.399   3.172
 5716TIP3    H217155   2.677   2.524   3.087
 5717TIP3   OH217156   4.260   5.264   4.008
 5717TIP3    H117157   4.318   5.208   4.059
 5717TIP3    H217158   4.236   5.211   3.932
 5718TIP3   OH217159   1.835   2.495   1.333
 5718TIP3    H117160   1.872   2.464   1.415
 5718TIP3    H217161   1.844   2.591   1.338
 5719TIP3   OH217162   4.407   2.202   4.071
 5719TIP3    H117163   4.497   2.194   4.102
 5719TIP3    H217164   4.355   2.219   4.149
 5720TIP3   OH217165   6.020   5.662   0.117
 5720TIP3    H117166   6.113   5.682   0.119
 5720TIP3    H217167   6.008   5.594   0.182
 5721TIP3   OH217168   1.024   5.280   1.734
 5721TIP3    H117169   1.117   5.283   1.709
 5721TIP3    H217170   1.021   5.324   1.819
 5722TIP3   OH217171   3.515   3.048   4.737
 5722TIP3    H117172   3.580   3.116   4.719
 5722TIP3    H217173   3.553   2.997   4.809
 5723TIP3   OH217174   5.618   5.125   0.042
 5723TIP3    H117175   5.634   5.031   0.045
 5723TIP3    H217176   5.532   5.134   0.001
 5724TIP3   OH217177   5.410   5.312   2.078
 5724TIP3    H117178   5.484   5.366   2.105
 5724TIP3    H217179   5.358   5.368   2.021
 5725TIP3   OH217180   3.447   2.657   2.483
 5725TIP3    H117181   3.504   2.607   2.541
 5725TIP3    H217182   3.477   2.748   2.491
 5726TIP3   OH217183   4.339   0.093   1.215
 5726TIP3    H117184   4.336  -0.003   1.211
 5726TIP3    H217185   4.432   0.115   1.204
 5727TIP3   OH217186   2.926   1.861   2.700
 5727TIP3    H117187   2.969   1.780   2.724
 5727TIP3    H217188   2.859   1.873   2.766
 5728TIP3   OH217189   3.387   2.596   1.237
 5728TIP3    H117190   3.409   2.584   1.145
 5728TIP3    H217191   3.350   2.512   1.265
 5729TIP3   OH217192   5.016   2.256   2.158
 5729TIP3    H117193   5.037   2.220   2.245
 5729TIP3    H217194   5.008   2.179   2.102
 5730TIP3   OH217195   1.637   4.231   0.545
 5730TIP3    H117196   1.542   4.232   0.533
 5730TIP3    H217197   1.648   4.201   0.636
 5731TIP3   OH217198   5.366   2.353   1.277
 5731TIP3    H117199   5.366   2.310   1.362
 5731TIP3    H217200   5.316   2.434   1.291
 5732TIP3   OH217201   5.110   3.405   0.298
 5732TIP3    H117202   5.161   3.358   0.232
 5732TIP3    H217203   5.162   3.484   0.315
 5733TIP3   OH217204   5.471   1.403   3.853
 5733TIP3    H117205   5.490   1.471   3.789
 5733TIP3    H217206   5.519   1.326   3.821
 5734TIP3   OH217207   2.066   3.463   4.046
 5734TIP3    H117208   1.984   3.427   4.078
 5734TIP3    H217209   2.108   3.390   4.000
 5735TIP3   OH217210   0.145   0.479   2.935
 5735TIP3    H117211   0.208   0.458   2.866
 5735TIP3    H217212   0.157   0.410   3.000
 5736TIP3   OH217213   1.828   4.183   0.327
 5736TIP3    H117214   1.791   4.161   0.412
 5736TIP3    H217215   1.895   4.249   0.347
 5737TIP3   OH217216   4.337   1.991   0.209
 5737TIP3    H117217   4.274   2.014   0.140
 5737TIP3    H217218   4.297   2.021   0.290
 5738TIP3   OH217219   4.128   4.120   3.916
 5738TIP3    H117220   4.164   4.200   3.878
 5738TIP3    H217221   4.076   4.082   3.845
 5739TIP3   OH217222   0.878   5.373   4.387
 5739TIP3    H117223   0.796   5.343   4.347
 5739TIP3    H217224   0.943   5.364   4.318
 5740TIP3   OH217225   0.096   4.684   3.637
 5740TIP3    H117226   0.017   4.652   3.681
 5740TIP3    H217227   0.167   4.638   3.681
 5741TIP3   OH217228   4.984   4.495   2.389
 5741TIP3    H117229   5.066   4.474   2.345
 5741TIP3    H217230   4.918   4.440   2.346
 5742TIP3   OH217231   6.126   4.162   1.682
 5742TIP3    H117232   6.211   4.154   1.725
 5742TIP3    H217233   6.145   4.159   1.589
 5743TIP3   OH217234   4.767   3.189   3.643
 5743TIP3    H117235   4.773   3.116   3.705
 5743TIP3    H217236   4.837   3.172   3.580
 5744TIP3   OH217237   5.209   5.435   0.598
 5744TIP3    H117238   5.194   5.523   0.632
 5744TIP3    H217239   5.295   5.441   0.555
 5745TIP3   OH217240   1.334   0.815   3.007
 5745TIP3    H117241   1.415   0.867   3.008
 5745TIP3    H217242   1.264   0.880   3.010
 5746TIP3   OH217243   4.684   4.070   2.166
 5746TIP3    H117244   4.617   4.004   2.182
 5746TIP3    H217245   4.765   4.031   2.198
 5747TIP3   OH217246   3.067   1.610   1.647
 5747TIP3    H117247   2.996   1.570   1.697
 5747TIP3    H217248   3.034   1.615   1.558
 5748TIP3   OH217249   3.475   5.511   4.237
 5748TIP3    H117250   3.471   5.598   4.278
 5748TIP3    H217251   3.519   5.526   4.154
 5749TIP3   OH217252   0.009   1.476   1.283
 5749TIP3    H117253  -0.083   1.477   1.255
 5749TIP3    H217254   0.019   1.556   1.334
 5750TIP3   OH217255   5.740   4.992   2.895
 5750TIP3    H117256   5.755   5.066   2.954
 5750TIP3    H217257   5.735   4.916   2.953
 5751TIP3   OH217258   4.189   5.342   4.343
 5751TIP3    H117259   4.142   5.417   4.380
 5751TIP3    H217260   4.259   5.382   4.291
 5752TIP3   OH217261   5.240   5.165   2.792
 5752TIP3    H117262   5.260   5.259   2.788
 5752TIP3    H217263   5.325   5.122   2.781
 5753TIP3   OH217264   1.055   0.182   1.825
 5753TIP3    H117265   1.135   0.130   1.830
 5753TIP3    H217266   1.060   0.241   1.901
 5754TIP3   OH217267   5.462   5.522   3.068
 5754TIP3    H117268   5.414   5.547   2.989
 5754TIP3    H217269   5.519   5.597   3.086
 5755TIP3   OH217270   6.264   4.799   1.498
 5755TIP3    H117271   6.300   4.716   1.468
 5755TIP3    H217272   6.173   4.799   1.468
 5756TIP3   OH217273   2.391   2.018   4.091
 5756TIP3    H117274   2.392   2.009   3.996
 5756TIP3    H217275   2.305   2.054   4.111
 5757TIP3   OH217276   5.388   0.070   4.015
 5757TIP3    H117277   5.305   0.113   3.995
 5757TIP3    H217278   5.449   0.103   3.949
 5758TIP3   OH217279   6.057   0.466   3.685
 5758TIP3    H117280   5.991   0.476   3.616
 5758TIP3    H217281   6.036   0.536   3.747
 5759TIP3   OH217282   5.007   4.511   4.466
 5759TIP3    H117283   4.937   4.478   4.522
 5759TIP3    H217284   5.037   4.434   4.417
 5760TIP3   OH217285   3.193   1.279   3.651
 5760TIP3    H117286   3.198   1.237   3.737
 5760TIP3    H217287   3.272   1.252   3.606
 5761TIP3   OH217288   0.428   4.957   2.717
 5761TIP3    H117289   0.387   4.932   2.800
 5761TIP3    H217290   0.374   4.916   2.650
 5762TIP3   OH217291   5.030   1.873   0.135
 5762TIP3    H117292   5.018   1.949   0.191
 5762TIP3    H217293   4.986   1.896   0.053
 5763TIP3   OH217294   2.051   3.141   2.114
 5763TIP3    H117295   2.023   3.229   2.137
 5763TIP3    H217296   1.992   3.115   2.043
 5764TIP3   OH217297   0.936   1.791   2.330
 5764TIP3    H117298   0.946   1.696   2.332
 5764TIP3    H217299   0.855   1.806   2.283
 5765TIP3   OH217300   4.626   2.593   2.894
 5765TIP3    H117301   4.608   2.588   2.800
 5765TIP3    H217302   4.673   2.675   2.905
 5766TIP3   OH217303   5.439   4.222   3.290
 5766TIP3    H117304   5.368   4.160   3.307
 5766TIP3    H217305   5.396   4.307   3.282
 5767TIP3   OH217306   5.192   3.530   2.840
 5767TIP3    H117307   5.279   3.534   2.881
 5767TIP3    H217308   5.210   3.509   2.749
 5768TIP3   OH217309   2.720   0.074   2.302
 5768TIP3    H117310   2.648   0.021   2.335
 5768TIP3    H217311   2.787   0.068   2.371
 5769TIP3   OH217312   6.015   1.979   2.080
 5769TIP3    H117313   5.935   1.950   2.036
 5769TIP3    H217314   6.023   1.922   2.157
 5770TIP3   OH217315   0.461   2.732   2.528
 5770TIP3    H117316   0.529   2.741   2.460
 5770TIP3    H217317   0.486   2.797   2.594
 5771TIP3   OH217318   3.864   4.995   3.095
 5771TIP3    H117319   3.857   5.090   3.099
 5771TIP3    H217320   3.780   4.966   3.059
 5772TIP3   OH217321   0.905   0.893   2.979
 5772TIP3    H117322   0.841   0.825   2.999
 5772TIP3    H217323   0.930   0.877   2.888
 5773TIP3   OH217324   2.129   5.540   4.565
 5773TIP3    H117325   2.217   5.511   4.542
 5773TIP3    H217326   2.123   5.630   4.532
 5774TIP3   OH217327   1.276   3.324   0.246
 5774TIP3    H117328   1.204   3.305   0.306
 5774TIP3    H217329   1.256   3.272   0.168
 5775TIP3   OH217330   5.455   2.027   3.875
 5775TIP3    H117331   5.389   2.096   3.882
 5775TIP3    H217332   5.501   2.029   3.959
 5776TIP3   OH217333   0.026   1.606   0.104
 5776TIP3    H117334   0.029   1.701   0.114
 5776TIP3    H217335  -0.066   1.583   0.115
 5777TIP3   OH217336   1.467   4.731   2.824
 5777TIP3    H117337   1.492   4.737   2.916
 5777TIP3    H217338   1.550   4.734   2.776
 5778TIP3   OH217339   2.718   4.987   1.383
 5778TIP3    H117340   2.811   5.002   1.398
 5778TIP3    H217341   2.699   5.033   1.301
 5779TIP3   OH217342   4.936   0.431   1.460
 5779TIP3    H117343   4.999   0.360   1.445
 5779TIP3    H217344   4.954   0.494   1.390
 5780TIP3   OH217345   6.212   4.680   3.373
 5780TIP3    H117346   6.303   4.701   3.355
 5780TIP3    H217347   6.206   4.585   3.361
 5781TIP3   OH217348   3.079   2.719   2.922
 5781TIP3    H117349   3.109   2.728   2.832
 5781TIP3    H217350   3.067   2.809   2.953
 5782TIP3   OH217351   0.330   3.353   4.682
 5782TIP3    H117352   0.407   3.313   4.643
 5782TIP3    H217353   0.363   3.432   4.725
 5783TIP3   OH217354   5.710   5.398   0.366
 5783TIP3    H117355   5.683   5.326   0.424
 5783TIP3    H217356   5.784   5.438   0.411
 5784TIP3   OH217357   6.071   1.017   2.284
 5784TIP3    H117358   6.031   1.054   2.362
 5784TIP3    H217359   6.048   1.078   2.214
 5785TIP3   OH217360   2.980   4.946   3.311
 5785TIP3    H117361   2.955   4.924   3.400
 5785TIP3    H217362   2.996   5.040   3.313
 5786TIP3   OH217363   0.260   1.786   1.148
 5786TIP3    H117364   0.280   1.693   1.157
 5786TIP3    H217365   0.165   1.789   1.134
 5787TIP3   OH217366   3.903   1.754   0.508
 5787TIP3    H117367   3.980   1.770   0.454
 5787TIP3    H217368   3.852   1.835   0.502
 5788TIP3   OH217369   5.957   2.548   0.686
 5788TIP3    H117370   5.927   2.458   0.699
 5788TIP3    H217371   5.935   2.592   0.768
 5789TIP3   OH217372   4.459   1.581   1.879
 5789TIP3    H117373   4.512   1.648   1.923
 5789TIP3    H217374   4.507   1.499   1.895
 5790TIP3   OH217375   6.146   5.057   0.814
 5790TIP3    H117376   6.134   4.968   0.847
 5790TIP3    H217377   6.082   5.064   0.742
 5791TIP3   OH217378   1.823   4.468   5.078
 5791TIP3    H117379   1.861   4.385   5.106
 5791TIP3    H217380   1.755   4.444   5.016
 5792TIP3   OH217381   3.536   0.883   2.306
 5792TIP3    H117382   3.476   0.896   2.233
 5792TIP3    H217383   3.497   0.934   2.378
 5793TIP3   OH217384   3.312   5.643   2.249
 5793TIP3    H117385   3.312   5.631   2.154
 5793TIP3    H217386   3.300   5.737   2.261
 5794TIP3   OH217387   6.041   4.352   0.322
 5794TIP3    H117388   6.014   4.349   0.230
 5794TIP3    H217389   6.062   4.444   0.339
 5795TIP3   OH217390   2.762   2.808   2.994
 5795TIP3    H117391   2.745   2.746   2.922
 5795TIP3    H217392   2.781   2.752   3.069
 5796TIP3   OH217393   4.297   4.712   3.099
 5796TIP3    H117394   4.289   4.768   3.022
 5796TIP3    H217395   4.291   4.772   3.173
 5797TIP3   OH217396   3.183   1.540   3.107
 5797TIP3    H117397   3.166   1.633   3.092
 5797TIP3    H217398   3.137   1.495   3.036
 5798TIP3   OH217399   4.647   5.042   4.346
 5798TIP3    H117400   4.713   5.110   4.332
 5798TIP3    H217401   4.697   4.966   4.376
 5799TIP3   OH217402   0.711   0.280   4.084
 5799TIP3    H117403   0.800   0.261   4.115
 5799TIP3    H217404   0.709   0.376   4.078
 5800TIP3   OH217405   5.312   5.909   4.833
 5800TIP3    H117406   5.297   5.905   4.927
 5800TIP3    H217407   5.228   5.889   4.793
 5801TIP3   OH217408   3.226   3.681   4.350
 5801TIP3    H117409   3.278   3.624   4.293
 5801TIP3    H217410   3.137   3.676   4.314
 5802TIP3   OH217411   5.578   4.687   0.652
 5802TIP3    H117412   5.496   4.644   0.676
 5802TIP3    H217413   5.630   4.617   0.613
 5803TIP3   OH217414   3.220   2.164   2.403
 5803TIP3    H117415   3.314   2.151   2.410
 5803TIP3    H217416   3.202   2.161   2.309
 5804TIP3   OH217417   5.616   3.724   1.783
 5804TIP3    H117418   5.545   3.779   1.749
 5804TIP3    H217419   5.605   3.728   1.878
 5805TIP3   OH217420   2.407   5.233   3.261
 5805TIP3    H117421   2.438   5.148   3.292
 5805TIP3    H217422   2.360   5.212   3.180
 5806TIP3   OH217423   3.798   4.066   2.050
 5806TIP3    H117424   3.787   4.097   1.961
 5806TIP3    H217425   3.830   4.142   2.099
 5807TIP3   OH217426   2.249   3.266   0.201
 5807TIP3    H117427   2.308   3.317   0.256
 5807TIP3    H217428   2.303   3.196   0.166
 5808TIP3   OH217429   3.286   5.283   2.017
 5808TIP3    H117430   3.205   5.333   2.018
 5808TIP3    H217431   3.349   5.339   1.971
 5809TIP3   OH217432   5.906   2.358   1.524
 5809TIP3    H117433   5.900   2.265   1.547
 5809TIP3    H217434   5.948   2.398   1.600
 5810TIP3   OH217435   3.344   5.976   0.754
 5810TIP3    H117436   3.360   6.004   0.845
 5810TIP3    H217437   3.363   5.882   0.754
 5811TIP3   OH217438   6.216   2.758   0.138
 5811TIP3    H117439   6.122   2.770   0.146
 5811TIP3    H217440   6.227   2.663   0.130
 5812TIP3   OH217441   6.053   5.589   5.061
 5812TIP3    H117442   5.993   5.516   5.049
 5812TIP3    H217443   6.113   5.583   4.986
 5813TIP3   OH217444   5.079   3.617   4.614
 5813TIP3    H117445   5.162   3.569   4.609
 5813TIP3    H217446   5.075   3.649   4.704
 5814TIP3   OH217447   0.962   0.766   4.122
 5814TIP3    H117448   1.007   0.842   4.157
 5814TIP3    H217449   0.898   0.802   4.060
 5815TIP3   OH217450   2.597   3.614   3.398
 5815TIP3    H117451   2.651   3.666   3.457
 5815TIP3    H217452   2.632   3.525   3.405
 5816TIP3   OH217453   1.466   3.126   4.659
 5816TIP3    H117454   1.490   3.185   4.730
 5816TIP3    H217455   1.499   3.040   4.687
 5817TIP3   OH217456   4.012   3.637   4.037
 5817TIP3    H117457   3.955   3.711   4.015
 5817TIP3    H217458   4.075   3.674   4.100
 5818TIP3   OH217459   0.147   0.316   1.519
 5818TIP3    H117460   0.071   0.286   1.471
 5818TIP3    H217461   0.212   0.247   1.509
 5819TIP3   OH217462   2.870   5.419   0.921
 5819TIP3    H117463   2.832   5.413   1.009
 5819TIP3    H217464   2.906   5.508   0.916
 5820TIP3   OH217465   2.921   0.847   4.206
 5820TIP3    H117466   2.926   0.842   4.302
 5820TIP3    H217467   2.898   0.939   4.189
 5821TIP3   OH217468   5.521   4.197   4.173
 5821TIP3    H117469   5.454   4.148   4.221
 5821TIP3    H217470   5.476   4.276   4.143
 5822TIP3   OH217471   0.910   4.759   2.195
 5822TIP3    H117472   0.996   4.745   2.234
 5822TIP3    H217473   0.900   4.688   2.131
 5823TIP3   OH217474   5.241   2.742   3.957
 5823TIP3    H117475   5.182   2.733   3.883
 5823TIP3    H217476   5.257   2.652   3.986
 5824TIP3   OH217477   2.355   3.012   2.416
 5824TIP3    H117478   2.383   2.928   2.451
 5824TIP3    H217479   2.361   3.001   2.321
 5825TIP3   OH217480   0.960   5.261   1.313
 5825TIP3    H117481   0.904   5.328   1.274
 5825TIP3    H217482   0.966   5.193   1.246
 5826TIP3   OH217483   2.544   4.213   0.345
 5826TIP3    H117484   2.609   4.145   0.360
 5826TIP3    H217485   2.474   4.195   0.408
 5827TIP3   OH217486   5.219   2.005   3.099
 5827TIP3    H117487   5.236   1.933   3.038
 5827TIP3    H217488   5.281   2.073   3.075
 5828TIP3   OH217489   4.250   2.226   4.811
 5828TIP3    H117490   4.322   2.175   4.849
 5828TIP3    H217491   4.207   2.167   4.750
 5829TIP3   OH217492   3.963   0.140   1.786
 5829TIP3    H117493   4.049   0.183   1.779
 5829TIP3    H217494   3.952   0.123   1.880
 5830TIP3   OH217495   4.812   3.488   1.998
 5830TIP3    H117496   4.844   3.441   2.076
 5830TIP3    H217497   4.765   3.421   1.948
 5831TIP3   OH217498   2.577   4.403   1.009
 5831TIP3    H117499   2.579   4.496   0.986
 5831TIP3    H217500   2.658   4.389   1.057
 5832TIP3   OH217501   3.813   0.770   2.883
 5832TIP3    H117502   3.834   0.728   2.966
 5832TIP3    H217503   3.886   0.829   2.866
 5833TIP3   OH217504   1.985   0.451   4.775
 5833TIP3    H117505   1.898   0.452   4.813
 5833TIP3    H217506   2.031   0.379   4.819
 5834TIP3   OH217507   2.479   1.511   4.298
 5834TIP3    H117508   2.455   1.597   4.264
 5834TIP3    H217509   2.396   1.468   4.318
 5835TIP3   OH217510   0.354   0.967   0.637
 5835TIP3    H117511   0.373   0.873   0.639
 5835TIP3    H217512   0.260   0.972   0.620
 5836TIP3   OH217513   1.516   3.730   3.199
 5836TIP3    H117514   1.599   3.774   3.182
 5836TIP3    H217515   1.496   3.684   3.117
 5837TIP3   OH217516   1.878   2.325   1.588
 5837TIP3    H117517   1.942   2.258   1.562
 5837TIP3    H217518   1.801   2.275   1.616
 5838TIP3   OH217519   0.164   1.324   3.123
 5838TIP3    H117520   0.250   1.351   3.091
 5838TIP3    H217521   0.133   1.260   3.059
 5839TIP3   OH217522   3.032   0.921   1.163
 5839TIP3    H117523   2.988   0.912   1.248
 5839TIP3    H217524   2.960   0.940   1.102
 5840TIP3   OH217525   5.717   2.188   4.471
 5840TIP3    H117526   5.760   2.266   4.505
 5840TIP3    H217527   5.637   2.221   4.430
 5841TIP3   OH217528   4.563   4.767   5.083
 5841TIP3    H117529   4.541   4.736   5.171
 5841TIP3    H217530   4.632   4.832   5.097
 5842TIP3   OH217531   3.463   5.356   3.921
 5842TIP3    H117532   3.529   5.400   3.867
 5842TIP3    H217533   3.432   5.284   3.867
 5843TIP3   OH217534   5.589   5.612   4.305
 5843TIP3    H117535   5.613   5.691   4.355
 5843TIP3    H217536   5.495   5.602   4.321
 5844TIP3   OH217537   2.415   3.770   4.547
 5844TIP3    H117538   2.365   3.761   4.628
 5844TIP3    H217539   2.433   3.681   4.519
 5845TIP3   OH217540   4.048   0.041   1.340
 5845TIP3    H117541   4.071  -0.042   1.383
 5845TIP3    H217542   4.128   0.068   1.295
 5846TIP3   OH217543   2.071   0.227   1.930
 5846TIP3    H117544   2.058   0.290   2.001
 5846TIP3    H217545   1.984   0.215   1.892
 5847TIP3   OH217546   6.310   5.387   2.188
 5847TIP3    H117547   6.341   5.396   2.098
 5847TIP3    H217548   6.244   5.317   2.184
 5848TIP3   OH217549   4.378   3.724   1.882
 5848TIP3    H117550   4.434   3.774   1.942
 5848TIP3    H217551   4.438   3.664   1.838
 5849TIP3   OH217552   3.161   3.689   2.980
 5849TIP3    H117553   3.075   3.654   3.003
 5849TIP3    H217554   3.213   3.682   3.060
 5850TIP3   OH217555   2.764   5.024   0.331
 5850TIP3    H117556   2.859   5.031   0.340
 5850TIP3    H217557   2.741   4.946   0.381
 5851TIP3   OH217558   2.886   0.189   0.145
 5851TIP3    H117559   2.796   0.197   0.115
 5851TIP3    H217560   2.892   0.100   0.180
 5852TIP3   OH217561   1.350   1.208   2.265
 5852TIP3    H117562   1.433   1.205   2.219
 5852TIP3    H217563   1.356   1.139   2.331
 5853TIP3   OH217564   5.761   5.208   4.429
 5853TIP3    H117565   5.808   5.232   4.509
 5853TIP3    H217566   5.796   5.122   4.406
 5854TIP3   OH217567   5.200   1.480   1.207
 5854TIP3    H117568   5.229   1.559   1.161
 5854TIP3    H217569   5.110   1.468   1.179
 5855TIP3   OH217570   4.817   2.307   3.787
 5855TIP3    H117571   4.837   2.320   3.695
 5855TIP3    H217572   4.722   2.311   3.793
 5856TIP3   OH217573   3.477   1.402   0.863
 5856TIP3    H117574   3.511   1.403   0.952
 5856TIP3    H217575   3.509   1.483   0.824
 5857TIP3   OH217576   2.413   4.209   4.214
 5857TIP3    H117577   2.469   4.224   4.290
 5857TIP3    H217578   2.463   4.244   4.140
 5858TIP3   OH217579   3.096   1.793   0.170
 5858TIP3    H117580   3.058   1.707   0.187
 5858TIP3    H217581   3.124   1.789   0.079
 5859TIP3   OH217582   3.879   2.412   4.711
 5859TIP3    H117583   3.791   2.430   4.742
 5859TIP3    H217584   3.889   2.467   4.634
 5860TIP3   OH217585   4.353   2.679   2.884
 5860TIP3    H117586   4.398   2.758   2.855
 5860TIP3    H217587   4.281   2.712   2.938
 5861TIP3   OH217588   5.246   4.585   0.196
 5861TIP3    H117589   5.233   4.568   0.103
 5861TIP3    H217590   5.335   4.557   0.214
 5862TIP3   OH217591   4.943   1.428   0.900
 5862TIP3    H117592   4.925   1.379   0.819
 5862TIP3    H217593   4.938   1.363   0.969
 5863TIP3   OH217594   3.657   2.264   0.551
 5863TIP3    H117595   3.707   2.336   0.515
 5863TIP3    H217596   3.604   2.303   0.620
 5864TIP3   OH217597   1.332   4.107   1.463
 5864TIP3    H117598   1.315   4.200   1.451
 5864TIP3    H217599   1.250   4.071   1.496
 5865TIP3   OH217600   5.837   3.439   0.183
 5865TIP3    H117601   5.840   3.367   0.246
 5865TIP3    H217602   5.783   3.406   0.111
 5866TIP3   OH217603   5.074   3.287   4.316
 5866TIP3    H117604   5.110   3.200   4.297
 5866TIP3    H217605   5.150   3.341   4.336
 5867TIP3   OH217606   3.592   1.623   4.981
 5867TIP3    H117607   3.509   1.609   4.936
 5867TIP3    H217608   3.586   1.713   5.015
 5868TIP3   OH217609   4.221   4.171   1.839
 5868TIP3    H117610   4.271   4.167   1.757
 5868TIP3    H217611   4.129   4.177   1.810
 5869TIP3   OH217612   2.238   0.915   1.247
 5869TIP3    H117613   2.229   1.004   1.282
 5869TIP3    H217614   2.260   0.861   1.323
 5870TIP3   OH217615   1.280   2.882   3.832
 5870TIP3    H117616   1.274   2.887   3.737
 5870TIP3    H217617   1.334   2.957   3.857
 5871TIP3   OH217618   2.072   0.334   3.773
 5871TIP3    H117619   2.053   0.241   3.756
 5871TIP3    H217620   2.002   0.361   3.832
 5872TIP3   OH217621   3.436   2.790   0.455
 5872TIP3    H117622   3.405   2.707   0.421
 5872TIP3    H217623   3.356   2.840   0.475
 5873TIP3   OH217624   3.247   5.021   4.763
 5873TIP3    H117625   3.168   5.075   4.768
 5873TIP3    H217626   3.270   5.003   4.855
 5874TIP3   OH217627   4.943   3.034   2.972
 5874TIP3    H117628   4.851   3.059   2.983
 5874TIP3    H217629   4.984   3.109   2.928
 5875TIP3   OH217630   1.575   0.386   1.329
 5875TIP3    H117631   1.601   0.391   1.237
 5875TIP3    H217632   1.554   0.476   1.353
 5876TIP3   OH217633   4.560   4.434   5.166
 5876TIP3    H117634   4.520   4.521   5.158
 5876TIP3    H217635   4.489   4.377   5.194
 5877TIP3   OH217636   4.979   4.858   2.693
 5877TIP3    H117637   4.985   4.946   2.655
 5877TIP3    H217638   5.000   4.799   2.621
 5878TIP3   OH217639   1.058   3.640   2.683
 5878TIP3    H117640   1.045   3.641   2.588
 5878TIP3    H217641   1.090   3.728   2.703
 5879TIP3   OH217642   4.395   1.557   4.781
 5879TIP3    H117643   4.413   1.493   4.850
 5879TIP3    H217644   4.322   1.519   4.731
 5880TIP3   OH217645   0.660   1.031   4.735
 5880TIP3    H117646   0.624   1.099   4.791
 5880TIP3    H217647   0.753   1.029   4.756
 5881TIP3   OH217648   1.131   4.297   2.789
 5881TIP3    H117649   1.125   4.333   2.700
 5881TIP3    H217650   1.152   4.205   2.776
 5882TIP3   OH217651   6.081   4.146   1.130
 5882TIP3    H117652   6.103   4.072   1.072
 5882TIP3    H217653   6.082   4.222   1.073
 5883TIP3   OH217654   0.939   4.850   4.523
 5883TIP3    H117655   0.917   4.763   4.555
 5883TIP3    H217656   0.856   4.886   4.491
 5884TIP3   OH217657   6.113   3.518   1.154
 5884TIP3    H117658   6.129   3.557   1.240
 5884TIP3    H217659   6.043   3.454   1.170
 5885TIP3   OH217660   3.188   5.512   4.447
 5885TIP3    H117661   3.277   5.512   4.412
 5885TIP3    H217662   3.200   5.505   4.542
 5886TIP3   OH217663   3.646   2.814   3.653
 5886TIP3    H117664   3.640   2.757   3.576
 5886TIP3    H217665   3.573   2.875   3.644
 5887TIP3   OH217666   6.022   4.774   5.059
 5887TIP3    H117667   6.092   4.716   5.087
 5887TIP3    H217668   5.941   4.726   5.079
 5888TIP3   OH217669   2.404   5.501   4.497
 5888TIP3    H117670   2.381   5.438   4.428
 5888TIP3    H217671   2.443   5.575   4.450
 5889TIP3   OH217672   2.719   5.215   3.988
 5889TIP3    H117673   2.631   5.178   3.982
 5889TIP3    H217674   2.729   5.237   4.081
 5890TIP3   OH217675   6.287   0.232   2.037
 5890TIP3    H117676   6.269   0.206   2.127
 5890TIP3    H217677   6.271   0.326   2.035
 5891TIP3   OH217678   6.300   0.321   2.778
 5891TIP3    H117679   6.226   0.363   2.822
 5891TIP3    H217680   6.370   0.322   2.843
 5892TIP3   OH217681   0.872   2.881   1.564
 5892TIP3    H117682   0.929   2.882   1.487
 5892TIP3    H217683   0.923   2.836   1.631
 5893TIP3   OH217684   6.193   0.797   3.366
 5893TIP3    H117685   6.184   0.856   3.292
 5893TIP3    H217686   6.129   0.728   3.349
 5894TIP3   OH217687   3.879   3.319   0.969
 5894TIP3    H117688   3.906   3.409   0.947
 5894TIP3    H217689   3.893   3.313   1.064
 5895TIP3   OH217690   4.268   5.236   2.393
 5895TIP3    H117691   4.293   5.174   2.461
 5895TIP3    H217692   4.350   5.257   2.348
 5896TIP3   OH217693   1.861   5.455   4.498
 5896TIP3    H117694   1.801   5.419   4.562
 5896TIP3    H217695   1.933   5.491   4.550
 5897TIP3   OH217696   2.204   2.797   1.149
 5897TIP3    H117697   2.111   2.816   1.156
 5897TIP3    H217698   2.210   2.701   1.158
 5898TIP3   OH217699   5.212   4.826   1.281
 5898TIP3    H117700   5.211   4.744   1.332
 5898TIP3    H217701   5.286   4.875   1.316
 5899TIP3   OH217702   0.336   3.329   3.013
 5899TIP3    H117703   0.385   3.259   2.969
 5899TIP3    H217704   0.366   3.409   2.971
 5900TIP3   OH217705   0.605   2.639   2.199
 5900TIP3    H117706   0.595   2.581   2.274
 5900TIP3    H217707   0.578   2.587   2.124
 5901TIP3   OH217708   1.688   1.888   0.602
 5901TIP3    H117709   1.661   1.797   0.590
 5901TIP3    H217710   1.781   1.888   0.578
 5902TIP3   OH217711   2.350   1.123   4.348
 5902TIP3    H117712   2.360   1.043   4.297
 5902TIP3    H217713   2.439   1.146   4.375
 5903TIP3   OH217714   5.885   1.191   3.248
 5903TIP3    H117715   5.872   1.099   3.273
 5903TIP3    H217716   5.879   1.191   3.152
 5904TIP3   OH217717   1.151   1.371   0.384
 5904TIP3    H117718   1.084   1.438   0.372
 5904TIP3    H217719   1.124   1.299   0.327
 5905TIP3   OH217720   5.682   0.417   2.323
 5905TIP3    H117721   5.724   0.332   2.333
 5905TIP3    H217722   5.628   0.409   2.244
 5906TIP3   OH217723   4.633   2.932   3.807
 5906TIP3    H117724   4.703   2.867   3.807
 5906TIP3    H217725   4.563   2.891   3.756
 5907TIP3   OH217726   2.649   4.861   2.345
 5907TIP3    H117727   2.680   4.839   2.258
 5907TIP3    H217728   2.698   4.804   2.404
 5908TIP3   OH217729   3.138   0.550   4.508
 5908TIP3    H117730   3.146   0.574   4.415
 5908TIP3    H217731   3.058   0.498   4.512
 5909TIP3   OH217732   2.526   4.840   0.603
 5909TIP3    H117733   2.437   4.863   0.577
 5909TIP3    H217734   2.552   4.908   0.666
 5910TIP3   OH217735   1.278   3.994   4.569
 5910TIP3    H117736   1.316   3.969   4.485
 5910TIP3    H217737   1.294   3.918   4.625
 5911TIP3   OH217738   0.291   0.591   3.925
 5911TIP3    H117739   0.204   0.631   3.919
 5911TIP3    H217740   0.277   0.499   3.902
 5912TIP3   OH217741   4.679   3.047   1.085
 5912TIP3    H117742   4.679   3.136   1.051
 5912TIP3    H217743   4.610   3.046   1.151
 5913TIP3   OH217744   5.812   0.681   5.136
 5913TIP3    H117745   5.797   0.735   5.058
 5913TIP3    H217746   5.794   0.740   5.210
 5914TIP3   OH217747   2.894   3.909   0.275
 5914TIP3    H117748   2.931   3.990   0.239
 5914TIP3    H217749   2.846   3.938   0.353
 5915TIP3   OH217750   2.245   0.843   4.556
 5915TIP3    H117751   2.238   0.937   4.536
 5915TIP3    H217752   2.333   0.819   4.527
 5916TIP3   OH217753   2.492   5.346   1.798
 5916TIP3    H117754   2.507   5.348   1.892
 5916TIP3    H217755   2.401   5.320   1.788
 5917TIP3   OH217756   0.110   3.725   3.496
 5917TIP3    H117757   0.199   3.740   3.464
 5917TIP3    H217758   0.108   3.633   3.521
 5918TIP3   OH217759   1.845   1.470   3.683
 5918TIP3    H117760   1.862   1.545   3.626
 5918TIP3    H217761   1.782   1.417   3.635
 5919TIP3   OH217762   4.361   1.303   1.060
 5919TIP3    H117763   4.270   1.283   1.084
 5919TIP3    H217764   4.354   1.379   1.001
 5920TIP3   OH217765   1.682   0.647   4.013
 5920TIP3    H117766   1.628   0.625   3.937
 5920TIP3    H217767   1.722   0.731   3.990
 5921TIP3   OH217768   1.022   0.937   3.791
 5921TIP3    H117769   1.066   0.870   3.843
 5921TIP3    H217770   1.069   0.938   3.708
 5922TIP3   OH217771   5.065   3.564   1.400
 5922TIP3    H117772   5.159   3.562   1.418
 5922TIP3    H217773   5.059   3.575   1.305
 5923TIP3   OH217774   0.572   2.448   2.000
 5923TIP3    H117775   0.602   2.358   1.990
 5923TIP3    H217776   0.496   2.455   1.942
 5924TIP3   OH217777   2.439   4.499   4.591
 5924TIP3    H117778   2.416   4.437   4.522
 5924TIP3    H217779   2.530   4.522   4.573
 5925TIP3   OH217780   0.741   4.595   1.994
 5925TIP3    H117781   0.799   4.655   1.947
 5925TIP3    H217782   0.707   4.647   2.067
 5926TIP3   OH217783   5.653   1.313   2.480
 5926TIP3    H117784   5.612   1.335   2.396
 5926TIP3    H217785   5.698   1.230   2.463
 5927TIP3   OH217786   5.265   5.919   5.083
 5927TIP3    H117787   5.215   5.957   5.155
 5927TIP3    H217788   5.305   5.840   5.121
 5928TIP3   OH217789   5.363   4.424   0.424
 5928TIP3    H117790   5.303   4.494   0.451
 5928TIP3    H217791   5.439   4.470   0.388
 5929TIP3   OH217792   0.430   3.908   0.933
 5929TIP3    H117793   0.361   3.851   0.898
 5929TIP3    H217794   0.409   3.995   0.899
 5930TIP3   OH217795   4.752   5.611   0.751
 5930TIP3    H117796   4.777   5.656   0.670
 5930TIP3    H217797   4.773   5.519   0.735
 5931TIP3   OH217798   2.204   3.455   1.714
 5931TIP3    H117799   2.242   3.529   1.761
 5931TIP3    H217800   2.276   3.420   1.661
 5932TIP3   OH217801   4.458   3.880   4.474
 5932TIP3    H117802   4.399   3.805   4.472
 5932TIP3    H217803   4.472   3.902   4.382
 5933TIP3   OH217804   6.209   5.090   1.699
 5933TIP3    H117805   6.155   5.034   1.756
 5933TIP3    H217806   6.162   5.093   1.616
 5934TIP3   OH217807   3.702   1.861   1.397
 5934TIP3    H117808   3.684   1.872   1.304
 5934TIP3    H217809   3.644   1.923   1.441
 5935TIP3   OH217810   2.810   2.310   1.875
 5935TIP3    H117811   2.906   2.308   1.871
 5935TIP3    H217812   2.787   2.402   1.857
 5936TIP3   OH217813   3.444   4.737   0.416
 5936TIP3    H117814   3.392   4.781   0.349
 5936TIP3    H217815   3.456   4.648   0.383
 5937TIP3   OH217816   1.539   5.141   0.833
 5937TIP3    H117817   1.445   5.159   0.825
 5937TIP3    H217818   1.578   5.186   0.758
 5938TIP3   OH217819   5.679   1.530   2.935
 5938TIP3    H117820   5.697   1.490   3.020
 5938TIP3    H217821   5.682   1.457   2.873
 5939TIP3   OH217822   0.683   0.540   1.942
 5939TIP3    H117823   0.648   0.504   2.024
 5939TIP3    H217824   0.708   0.462   1.892
 5940TIP3   OH217825   5.494   3.091   4.577
 5940TIP3    H117826   5.527   3.033   4.645
 5940TIP3    H217827   5.475   3.174   4.622
 5941TIP3   OH217828   0.432   2.485   2.721
 5941TIP3    H117829   0.447   2.549   2.651
 5941TIP3    H217830   0.408   2.404   2.675
 5942TIP3   OH217831   6.073   0.378   0.580
 5942TIP3    H117832   6.032   0.390   0.665
 5942TIP3    H217833   6.094   0.467   0.551
 5943TIP3   OH217834   4.730   3.369   1.710
 5943TIP3    H117835   4.735   3.462   1.689
 5943TIP3    H217836   4.642   3.343   1.682
 5944TIP3   OH217837   1.956   3.062   3.004
 5944TIP3    H117838   1.994   3.083   2.919
 5944TIP3    H217839   2.022   3.006   3.046
 5945TIP3   OH217840   2.333   1.955   0.214
 5945TIP3    H117841   2.426   1.974   0.204
 5945TIP3    H217842   2.324   1.863   0.189
 5946TIP3   OH217843   1.652   3.391   5.098
 5946TIP3    H117844   1.596   3.453   5.146
 5946TIP3    H217845   1.728   3.379   5.154
 5947TIP3   OH217846   3.436   4.041   2.131
 5947TIP3    H117847   3.359   4.059   2.076
 5947TIP3    H217848   3.488   3.980   2.080
 5948TIP3   OH217849   2.472   1.197   1.947
 5948TIP3    H117850   2.538   1.262   1.971
 5948TIP3    H217851   2.390   1.235   1.977
 5949TIP3   OH217852   4.705   2.331   2.398
 5949TIP3    H117853   4.714   2.364   2.308
 5949TIP3    H217854   4.743   2.243   2.395
 5950TIP3   OH217855   4.401   4.702   2.172
 5950TIP3    H117856   4.311   4.702   2.206
 5950TIP3    H217857   4.406   4.781   2.118
 5951TIP3   OH217858   3.264   0.124   1.674
 5951TIP3    H117859   3.288   0.105   1.583
 5951TIP3    H217860   3.268   0.219   1.681
 5952TIP3   OH217861   5.313   3.216   0.561
 5952TIP3    H117862   5.393   3.165   0.550
 5952TIP3    H217863   5.263   3.201   0.481
 5953TIP3   OH217864   0.306   0.442   2.730
 5953TIP3    H117865   0.347   0.522   2.698
 5953TIP3    H217866   0.376   0.394   2.773
 5954TIP3   OH217867   2.508   2.659   0.299
 5954TIP3    H117868   2.441   2.647   0.365
 5954TIP3    H217869   2.492   2.747   0.264
 5955TIP3   OH217870   0.732   0.823   1.959
 5955TIP3    H117871   0.759   0.846   1.870
 5955TIP3    H217872   0.701   0.733   1.952
 5956TIP3   OH217873   4.529   3.617   1.671
 5956TIP3    H117874   4.613   3.646   1.638
 5956TIP3    H217875   4.467   3.636   1.600
 5957TIP3   OH217876   3.021   2.949   4.880
 5957TIP3    H117877   2.999   2.972   4.971
 5957TIP3    H217878   2.943   2.974   4.830
 5958TIP3   OH217879   2.449   0.091   4.124
 5958TIP3    H117880   2.482   0.079   4.035
 5958TIP3    H217881   2.525   0.121   4.174
 5959TIP3   OH217882   2.414   0.178   1.644
 5959TIP3    H117883   2.432   0.104   1.585
 5959TIP3    H217884   2.412   0.254   1.586
 5960TIP3   OH217885   0.232   1.664   2.169
 5960TIP3    H117886   0.170   1.732   2.144
 5960TIP3    H217887   0.189   1.582   2.145
 5961TIP3   OH217888   2.677   3.269   2.342
 5961TIP3    H117889   2.651   3.324   2.416
 5961TIP3    H217890   2.681   3.330   2.268
 5962TIP3   OH217891   5.556   1.883   2.529
 5962TIP3    H117892   5.465   1.854   2.540
 5962TIP3    H217893   5.606   1.801   2.518
 5963TIP3   OH217894   5.667   3.290   2.253
 5963TIP3    H117895   5.732   3.360   2.240
 5963TIP3    H217896   5.621   3.285   2.170
 5964TIP3   OH217897   2.563   5.912   4.107
 5964TIP3    H117898   2.479   5.944   4.074
 5964TIP3    H217899   2.580   5.963   4.186
 5965TIP3   OH217900   3.853   2.747   2.921
 5965TIP3    H117901   3.928   2.792   2.959
 5965TIP3    H217902   3.879   2.655   2.916
 5966TIP3   OH217903   4.213   1.209   1.543
 5966TIP3    H117904   4.266   1.268   1.598
 5966TIP3    H217905   4.185   1.140   1.603
 5967TIP3   OH217906   5.313   2.430   0.189
 5967TIP3    H117907   5.261   2.380   0.126
 5967TIP3    H217908   5.273   2.408   0.274
 5968TIP3   OH217909   0.073   0.871   3.060
 5968TIP3    H117910   0.072   0.821   3.142
 5968TIP3    H217911   0.033   0.812   2.995
 5969TIP3   OH217912   5.616   2.413   4.200
 5969TIP3    H117913   5.670   2.382   4.127
 5969TIP3    H217914   5.679   2.438   4.267
 5970TIP3   OH217915   3.616   5.768   2.401
 5970TIP3    H117916   3.669   5.751   2.323
 5970TIP3    H217917   3.581   5.856   2.387
 5971TIP3   OH217918   0.961   3.080   4.765
 5971TIP3    H117919   0.891   3.099   4.703
 5971TIP3    H217920   1.040   3.113   4.722
 5972TIP3   OH217921   1.208   5.873   4.031
 5972TIP3    H117922   1.145   5.863   4.102
 5972TIP3    H217923   1.162   5.925   3.965
 5973TIP3   OH217924   0.537   0.249   3.860
 5973TIP3    H117925   0.591   0.203   3.925
 5973TIP3    H217926   0.560   0.341   3.871
 5974TIP3   OH217927   3.173   1.288   2.497
 5974TIP3    H117928   3.123   1.367   2.479
 5974TIP3    H217929   3.114   1.216   2.475
 5975TIP3   OH217930   2.118   2.632   4.333
 5975TIP3    H117931   2.025   2.615   4.350
 5975TIP3    H217932   2.135   2.716   4.376
 5976TIP3   OH217933   4.223   1.426   4.613
 5976TIP3    H117934   4.162   1.372   4.561
 5976TIP3    H217935   4.225   1.383   4.699
 5977TIP3   OH217936   0.425   0.239   3.282
 5977TIP3    H117937   0.497   0.296   3.307
 5977TIP3    H217938   0.452   0.152   3.309
 5978TIP3   OH217939   0.781   3.204   4.578
 5978TIP3    H117940   0.690   3.181   4.558
 5978TIP3    H217941   0.808   3.258   4.504
 5979TIP3   OH217942   0.966   0.887   0.940
 5979TIP3    H117943   0.903   0.859   0.873
 5979TIP3    H217944   0.978   0.810   0.995
 5980TIP3   OH217945   0.053   5.414   3.074
 5980TIP3    H117946   0.075   5.327   3.042
 5980TIP3    H217947   0.137   5.459   3.085
 5981TIP3   OH217948   2.894   0.832   2.839
 5981TIP3    H117949   2.952   0.902   2.811
 5981TIP3    H217950   2.948   0.776   2.893
 5982TIP3   OH217951   4.863   2.327   1.757
 5982TIP3    H117952   4.899   2.296   1.673
 5982TIP3    H217953   4.800   2.259   1.783
 5983TIP3   OH217954   6.025   1.734   3.304
 5983TIP3    H117955   5.935   1.714   3.278
 5983TIP3    H217956   6.044   1.818   3.263
 5984TIP3   OH217957   5.010   3.445   3.671
 5984TIP3    H117958   4.983   3.423   3.760
 5984TIP3    H217959   5.018   3.360   3.628
 5985TIP3   OH217960   4.587   1.054   0.172
 5985TIP3    H117961   4.547   0.968   0.185
 5985TIP3    H217962   4.532   1.114   0.223
 5986TIP3   OH217963   2.165   3.992   4.830
 5986TIP3    H117964   2.160   4.020   4.739
 5986TIP3    H217965   2.197   4.070   4.877
 5987TIP3   OH217966   2.723   4.287   1.779
 5987TIP3    H117967   2.763   4.208   1.814
 5987TIP3    H217968   2.775   4.308   1.701
 5988TIP3   OH217969   4.107   0.929   1.168
 5988TIP3    H117970   4.031   0.874   1.187
 5988TIP3    H217971   4.098   1.004   1.226
 5989TIP3   OH217972   5.686   5.679   0.248
 5989TIP3    H117973   5.644   5.727   0.320
 5989TIP3    H217974   5.691   5.589   0.279
 5990TIP3   OH217975   2.343   3.626   4.040
 5990TIP3    H117976   2.321   3.699   3.982
 5990TIP3    H217977   2.259   3.586   4.061
 5991TIP3   OH217978   5.817   3.705   4.204
 5991TIP3    H117979   5.858   3.781   4.246
 5991TIP3    H217980   5.876   3.633   4.224
 5992TIP3   OH217981   5.553   2.751   1.099
 5992TIP3    H117982   5.617   2.686   1.070
 5992TIP3    H217983   5.568   2.826   1.041
 5993TIP3   OH217984   5.908   5.796   1.467
 5993TIP3    H117985   5.993   5.754   1.480
 5993TIP3    H217986   5.921   5.886   1.496
 5994TIP3   OH217987   3.197   2.075   4.850
 5994TIP3    H117988   3.169   2.040   4.934
 5994TIP3    H217989   3.288   2.102   4.864
 5995TIP3   OH217990   1.871   0.895   0.864
 5995TIP3    H117991   1.892   0.948   0.941
 5995TIP3    H217992   1.790   0.850   0.887
 5996TIP3   OH217993   1.021   2.808   3.887
 5996TIP3    H117994   0.980   2.788   3.803
 5996TIP3    H217995   1.111   2.831   3.866
 5997TIP3   OH217996   3.176   1.660   4.233
 5997TIP3    H117997   3.081   1.649   4.237
 5997TIP3    H217998   3.188   1.741   4.183
 5998TIP3   OH217999   5.317   2.597   5.120
 5998TIP3    H118000   5.255   2.534   5.156
 5998TIP3    H218001   5.388   2.601   5.185
 5999TIP3   OH218002   0.432   3.676   5.132
 5999TIP3    H118003   0.484   3.716   5.201
 5999TIP3    H218004   0.491   3.669   5.057
 6000TIP3   OH218005   0.483   4.309   1.115
 6000TIP3    H118006   0.514   4.235   1.063
 6000TIP3    H218007   0.551   4.322   1.181
 6001TIP3   OH218008   3.240   1.679   0.790
 6001TIP3    H118009   3.327   1.686   0.831
 6001TIP3    H218010   3.213   1.770   0.777
 6002TIP3   OH218011   4.507   0.438   3.064
 6002TIP3    H118012   4.469   0.454   2.978
 6002TIP3    H218013   4.508   0.524   3.106
 6003TIP3   OH218014   5.796   1.983   3.905
 6003TIP3    H118015   5.876   2.035   3.899
 6003TIP3    H218016   5.810   1.927   3.981
 6004TIP3   OH218017   2.651   4.091   0.759
 6004TIP3    H118018   2.692   4.172   0.729
 6004TIP3    H218019   2.586   4.119   0.823
 6005TIP3   OH218020   1.395   0.202   4.002
 6005TIP3    H118021   1.365   0.247   4.080
 6005TIP3    H218022   1.488   0.226   3.994
 6006TIP3   OH218023   2.116   3.622   4.400
 6006TIP3    H118024   2.161   3.587   4.324
 6006TIP3    H218025   2.047   3.678   4.364
 6007TIP3   OH218026   4.402   1.680   1.625
 6007TIP3    H118027   4.459   1.620   1.578
 6007TIP3    H218028   4.421   1.664   1.717
 6008TIP3   OH218029   0.486   2.679   0.752
 6008TIP3    H118030   0.438   2.607   0.711
 6008TIP3    H218031   0.578   2.655   0.740
 6009TIP3   OH218032   1.866   1.625   5.143
 6009TIP3    H118033   1.918   1.702   5.121
 6009TIP3    H218034   1.786   1.660   5.182
 6010TIP3   OH218035   3.435   1.456   1.425
 6010TIP3    H118036   3.481   1.457   1.509
 6010TIP3    H218037   3.482   1.519   1.371
 6011TIP3   OH218038   1.077   0.359   5.060
 6011TIP3    H118039   1.139   0.365   4.988
 6011TIP3    H218040   1.017   0.288   5.034
 6012TIP3   OH218041   2.753   2.955   3.678
 6012TIP3    H118042   2.807   2.903   3.619
 6012TIP3    H218043   2.815   3.008   3.728
 6013TIP3   OH218044   0.340   5.416   1.038
 6013TIP3    H118045   0.346   5.481   0.969
 6013TIP3    H218046   0.269   5.358   1.010
 6014TIP3   OH218047   3.752   0.998   4.036
 6014TIP3    H118048   3.842   0.970   4.020
 6014TIP3    H218049   3.699   0.922   4.015
 6015TIP3   OH218050   5.084   4.324   4.291
 6015TIP3    H118051   5.130   4.290   4.213
 6015TIP3    H218052   5.030   4.251   4.321
 6016TIP3   OH218053   6.002   0.161   1.410
 6016TIP3    H118054   6.039   0.237   1.366
 6016TIP3    H218055   6.078   0.106   1.430
 6017TIP3   OH218056   5.626   2.250   2.317
 6017TIP3    H118057   5.704   2.201   2.342
 6017TIP3    H218058   5.571   2.249   2.396
 6018TIP3   OH218059   4.191   3.286   5.123
 6018TIP3    H118060   4.259   3.270   5.189
 6018TIP3    H218061   4.152   3.370   5.148
 6019TIP3   OH218062   4.650   2.771   0.222
 6019TIP3    H118063   4.626   2.741   0.310
 6019TIP3    H218064   4.743   2.749   0.214
 6020TIP3   OH218065   3.523   3.314   2.706
 6020TIP3    H118066   3.561   3.262   2.777
 6020TIP3    H218067   3.494   3.395   2.748
 6021TIP3   OH218068   2.960   3.525   1.791
 6021TIP3    H118069   2.934   3.495   1.878
 6021TIP3    H218070   2.961   3.446   1.737
 6022TIP3   OH218071   5.987   1.563   4.633
 6022TIP3    H118072   5.922   1.614   4.681
 6022TIP3    H218073   6.058   1.549   4.697
 6023TIP3   OH218074   1.488   4.324   1.666
 6023TIP3    H118075   1.524   4.237   1.647
 6023TIP3    H218076   1.397   4.307   1.693
 6024TIP3   OH218077   6.204   5.755   2.488
 6024TIP3    H118078   6.236   5.730   2.402
 6024TIP3    H218079   6.244   5.693   2.548
 6025TIP3   OH218080   4.441   3.480   2.887
 6025TIP3    H118081   4.454   3.433   2.969
 6025TIP3    H218082   4.427   3.571   2.913
 6026TIP3   OH218083   2.754   4.278   5.050
 6026TIP3    H118084   2.833   4.289   4.997
 6026TIP3    H218085   2.725   4.189   5.031
 6027TIP3   OH218086   4.520   1.556   4.207
 6027TIP3    H118087   4.440   1.523   4.248
 6027TIP3    H218088   4.559   1.479   4.164
 6028TIP3   OH218089   2.672   3.309   2.857
 6028TIP3    H118090   2.653   3.384   2.913
 6028TIP3    H218091   2.593   3.298   2.804
 6029TIP3   OH218092   5.769   2.466   2.186
 6029TIP3    H118093   5.857   2.458   2.223
 6029TIP3    H218094   5.715   2.412   2.243
 6030TIP3   OH218095   5.902   3.237   1.540
 6030TIP3    H118096   5.931   3.327   1.556
 6030TIP3    H218097   5.977   3.183   1.566
 6031TIP3   OH218098   0.332   5.596   3.962
 6031TIP3    H118099   0.320   5.504   3.935
 6031TIP3    H218100   0.347   5.591   4.056
 6032TIP3   OH218101   4.230   1.842   2.825
 6032TIP3    H118102   4.264   1.764   2.781
 6032TIP3    H218103   4.307   1.885   2.863
 6033TIP3   OH218104   6.136   1.647   1.295
 6033TIP3    H118105   6.175   1.721   1.247
 6033TIP3    H218106   6.183   1.644   1.378
 6034TIP3   OH218107   3.430   5.190   3.009
 6034TIP3    H118108   3.375   5.130   3.060
 6034TIP3    H218109   3.418   5.160   2.918
 6035TIP3   OH218110   5.798   1.214   1.983
 6035TIP3    H118111   5.762   1.279   2.043
 6035TIP3    H218112   5.763   1.239   1.897
 6036TIP3   OH218113   2.881   1.940   1.701
 6036TIP3    H118114   2.944   1.933   1.773
 6036TIP3    H218115   2.936   1.949   1.622
 6037TIP3   OH218116   2.008   2.020   2.980
 6037TIP3    H118117   1.944   1.998   2.912
 6037TIP3    H218118   2.082   2.058   2.932
 6038TIP3   OH218119   3.383   3.300   1.365
 6038TIP3    H118120   3.312   3.363   1.353
 6038TIP3    H218121   3.346   3.217   1.335
 6039TIP3   OH218122   2.883   5.176   2.278
 6039TIP3    H118123   2.958   5.211   2.327
 6039TIP3    H218124   2.808   5.189   2.337
 6040TIP3   OH218125   5.022   2.820   0.817
 6040TIP3    H118126   5.003   2.909   0.787
 6040TIP3    H218127   5.116   2.820   0.835
 6041TIP3   OH218128   5.849   0.846   3.552
 6041TIP3    H118129   5.850   0.890   3.467
 6041TIP3    H218130   5.758   0.819   3.563
 6042TIP3   OH218131   0.413   0.071   0.041
 6042TIP3    H118132   0.332   0.025   0.018
 6042TIP3    H218133   0.423   0.056   0.135
 6043TIP3   OH218134   1.170   4.735   3.579
 6043TIP3    H118135   1.240   4.692   3.530
 6043TIP3    H218136   1.172   4.694   3.666
 6044TIP3   OH218137   3.467   0.577   0.061
 6044TIP3    H118138   3.546   0.525   0.048
 6044TIP3    H218139   3.462   0.589   0.156
 6045TIP3   OH218140   0.882   3.727   0.841
 6045TIP3    H118141   0.792   3.733   0.810
 6045TIP3    H218142   0.890   3.798   0.905
 6046TIP3   OH218143   4.540   2.042   4.657
 6046TIP3    H118144   4.517   1.950   4.660
 6046TIP3    H218145   4.635   2.043   4.670
 6047TIP3   OH218146   0.758   4.448   2.813
 6047TIP3    H118147   0.697   4.441   2.739
 6047TIP3    H218148   0.814   4.522   2.790
 6048TIP3   OH218149   4.597   2.301   3.618
 6048TIP3    H118150   4.600   2.238   3.546
 6048TIP3    H218151   4.533   2.265   3.679
 6049TIP3   OH218152   0.502   1.678   2.136
 6049TIP3    H118153   0.506   1.592   2.178
 6049TIP3    H218154   0.410   1.704   2.145
 6050TIP3   OH218155   2.810   3.742   3.522
 6050TIP3    H118156   2.873   3.693   3.573
 6050TIP3    H218157   2.862   3.803   3.470
 6051TIP3   OH218158   3.728   3.050   0.679
 6051TIP3    H118159   3.655   3.045   0.617
 6051TIP3    H218160   3.778   3.127   0.652
 6052TIP3   OH218161   5.180   5.825  -0.024
 6052TIP3    H118162   5.108   5.887  -0.025
 6052TIP3    H218163   5.164   5.771   0.054
 6053TIP3   OH218164   2.445   5.810   3.694
 6053TIP3    H118165   2.382   5.831   3.625
 6053TIP3    H218166   2.391   5.793   3.771
 6054TIP3   OH218167   2.329   2.131   3.521
 6054TIP3    H118168   2.299   2.079   3.446
 6054TIP3    H218169   2.261   2.117   3.588
 6055TIP3   OH218170   5.809   0.729   1.336
 6055TIP3    H118171   5.847   0.739   1.249
 6055TIP3    H218172   5.762   0.811   1.351
 6056TIP3   OH218173   2.856   4.917   3.798
 6056TIP3    H118174   2.766   4.885   3.806
 6056TIP3    H218175   2.910   4.850   3.841
 6057TIP3   OH218176   3.484   0.587   0.335
 6057TIP3    H118177   3.544   0.653   0.372
 6057TIP3    H218178   3.503   0.507   0.384
 6058TIP3   OH218179   2.433   1.208   2.893
 6058TIP3    H118180   2.484   1.158   2.957
 6058TIP3    H218181   2.389   1.275   2.946
 6059TIP3   OH218182   4.715   5.318   1.281
 6059TIP3    H118183   4.745   5.305   1.191
 6059TIP3    H218184   4.646   5.252   1.293
 6060TIP3   OH218185   4.195   5.771   3.978
 6060TIP3    H118186   4.147   5.784   4.060
 6060TIP3    H218187   4.182   5.678   3.958
 6061TIP3   OH218188   0.763   3.984   0.638
 6061TIP3    H118189   0.804   4.002   0.722
 6061TIP3    H218190   0.829   4.008   0.573
 6062TIP3   OH218191   5.982   1.271   4.613
 6062TIP3    H118192   5.990   1.230   4.699
 6062TIP3    H218193   6.012   1.361   4.625
 6063TIP3   OH218194   2.963   3.035   1.532
 6063TIP3    H118195   2.951   2.941   1.523
 6063TIP3    H218196   3.035   3.044   1.596
 6064TIP3   OH218197   3.936   1.356  -0.001
 6064TIP3    H118198   3.939   1.385   0.090
 6064TIP3    H218199   4.025   1.372  -0.034
 6065TIP3   OH218200   0.554   0.233   2.730
 6065TIP3    H118201   0.620   0.183   2.777
 6065TIP3    H218202   0.595   0.256   2.647
 6066TIP3   OH218203   1.829   1.657   3.510
 6066TIP3    H118204   1.872   1.742   3.522
 6066TIP3    H218205   1.736   1.677   3.509
 6067TIP3   OH218206   5.916   5.263   0.820
 6067TIP3    H118207   5.943   5.304   0.902
 6067TIP3    H218208   5.830   5.301   0.802
 6068TIP3   OH218209   1.701   2.613   4.539
 6068TIP3    H118210   1.760   2.593   4.467
 6068TIP3    H218211   1.757   2.647   4.609
 6069TIP3   OH218212   3.987   3.085   1.543
 6069TIP3    H118213   3.904   3.114   1.578
 6069TIP3    H218214   4.051   3.103   1.612
 6070TIP3   OH218215   3.923   5.730   1.224
 6070TIP3    H118216   3.938   5.684   1.142
 6070TIP3    H218217   3.921   5.661   1.291
 6071TIP3   OH218218   1.097   1.797   4.245
 6071TIP3    H118219   1.023   1.840   4.202
 6071TIP3    H218220   1.057   1.736   4.306
 6072TIP3   OH218221   2.489   1.367   4.582
 6072TIP3    H118222   2.467   1.302   4.648
 6072TIP3    H218223   2.555   1.325   4.528
 6073TIP3   OH218224   3.057   1.297   1.289
 6073TIP3    H118225   3.109   1.235   1.341
 6073TIP3    H218226   3.048   1.374   1.345
 6074TIP3   OH218227   0.355   2.932   1.320
 6074TIP3    H118228   0.261   2.921   1.303
 6074TIP3    H218229   0.373   2.871   1.392
 6075TIP3   OH218230   3.278   2.867   4.738
 6075TIP3    H118231   3.324   2.950   4.749
 6075TIP3    H218232   3.205   2.872   4.800
 6076TIP3   OH218233   4.856   0.746   3.766
 6076TIP3    H118234   4.813   0.814   3.817
 6076TIP3    H218235   4.821   0.664   3.801
 6077TIP3   OH218236   1.342   0.654   4.672
 6077TIP3    H118237   1.308   0.701   4.596
 6077TIP3    H218238   1.325   0.562   4.652
 6078TIP3   OH218239   3.359   1.383   4.474
 6078TIP3    H118240   3.454   1.392   4.469
 6078TIP3    H218241   3.329   1.470   4.502
 6079TIP3   OH218242   0.669   5.776   2.649
 6079TIP3    H118243   0.649   5.697   2.699
 6079TIP3    H218244   0.583   5.806   2.617
 6080TIP3   OH218245   0.103   5.835   5.116
 6080TIP3    H118246   0.074   5.756   5.162
 6080TIP3    H218247   0.090   5.906   5.179
 6081TIP3   OH218248   6.164   2.773   4.519
 6081TIP3    H118249   6.183   2.763   4.426
 6081TIP3    H218250   6.250   2.779   4.561
 6082TIP3   OH218251   3.620   1.475   1.628
 6082TIP3    H118252   3.652   1.412   1.693
 6082TIP3    H218253   3.668   1.556   1.648
 6083TIP3   OH218254   6.198   1.409   4.311
 6083TIP3    H118255   6.180   1.318   4.337
 6083TIP3    H218256   6.114   1.454   4.324
 6084TIP3   OH218257   4.835   5.459   2.222
 6084TIP3    H118258   4.913   5.406   2.236
 6084TIP3    H218259   4.863   5.549   2.239
 6085TIP3   OH218260   2.807   3.703   0.564
 6085TIP3    H118261   2.726   3.737   0.603
 6085TIP3    H218262   2.784   3.686   0.472
 6086TIP3   OH218263   4.925   4.693   0.459
 6086TIP3    H118264   4.900   4.778   0.495
 6086TIP3    H218265   4.879   4.688   0.374
 6087TIP3   OH218266   2.277   2.525   3.358
 6087TIP3    H118267   2.234   2.598   3.401
 6087TIP3    H218268   2.329   2.566   3.288
 6088TIP3   OH218269   5.098   4.017   0.956
 6088TIP3    H118270   5.143   3.998   1.038
 6088TIP3    H218271   5.151   3.974   0.889
 6089TIP3   OH218272   5.675   5.831   4.441
 6089TIP3    H118273   5.665   5.823   4.536
 6089TIP3    H218274   5.687   5.925   4.426
 6090TIP3   OH218275   4.324   4.590   3.486
 6090TIP3    H118276   4.395   4.577   3.423
 6090TIP3    H218277   4.271   4.510   3.479
 6091TIP3   OH218278   4.619   5.169   3.939
 6091TIP3    H118279   4.604   5.258   3.971
 6091TIP3    H218280   4.575   5.167   3.854
 6092TIP3   OH218281   5.791   5.542   2.746
 6092TIP3    H118282   5.864   5.578   2.796
 6092TIP3    H218283   5.728   5.513   2.811
 6093TIP3   OH218284   5.499   1.334   2.191
 6093TIP3    H118285   5.481   1.272   2.121
 6093TIP3    H218286   5.432   1.315   2.257
 6094TIP3   OH218287   2.006   4.874   2.718
 6094TIP3    H118288   2.024   4.922   2.799
 6094TIP3    H218289   2.087   4.826   2.700
 6095TIP3   OH218290   0.149   1.644   3.161
 6095TIP3    H118291   0.136   1.554   3.133
 6095TIP3    H218292   0.094   1.653   3.240
 6096TIP3   OH218293   1.655   5.119   4.638
 6096TIP3    H118294   1.746   5.106   4.611
 6096TIP3    H218295   1.624   5.030   4.657
 6097TIP3   OH218296   0.818   4.572   4.864
 6097TIP3    H118297   0.835   4.589   4.772
 6097TIP3    H218298   0.887   4.510   4.890
 6098TIP3   OH218299   3.016   0.602   1.646
 6098TIP3    H118300   2.985   0.684   1.684
 6098TIP3    H218301   2.940   0.543   1.652
 6099TIP3   OH218302   2.807   1.515   1.226
 6099TIP3    H118303   2.727   1.539   1.273
 6099TIP3    H218304   2.800   1.421   1.214
 6100TIP3   OH218305   1.465   2.710   3.651
 6100TIP3    H118306   1.430   2.785   3.605
 6100TIP3    H218307   1.551   2.739   3.683
 6101TIP3   OH218308   1.753   4.777   2.738
 6101TIP3    H118309   1.837   4.806   2.702
 6101TIP3    H218310   1.765   4.683   2.754
 6102TIP3   OH218311   0.294   1.422   1.427
 6102TIP3    H118312   0.205   1.393   1.448
 6102TIP3    H218313   0.287   1.457   1.338
 6103TIP3   OH218314   3.556   0.050   3.705
 6103TIP3    H118315   3.491  -0.013   3.672
 6103TIP3    H218316   3.574   0.020   3.794
 6104TIP3   OH218317   2.062   0.605   2.032
 6104TIP3    H118318   2.025   0.529   2.079
 6104TIP3    H218319   2.122   0.645   2.096
 6105TIP3   OH218320   1.153   5.737   2.493
 6105TIP3    H118321   1.136   5.767   2.583
 6105TIP3    H218322   1.247   5.747   2.481
 6106TIP3   OH218323   1.615   4.437   1.415
 6106TIP3    H118324   1.644   4.501   1.480
 6106TIP3    H218325   1.572   4.369   1.466
 6107TIP3   OH218326   0.796   3.336   4.828
 6107TIP3    H118327   0.747   3.296   4.899
 6107TIP3    H218328   0.806   3.267   4.763
 6108TIP3   OH218329   0.144   5.797   3.627
 6108TIP3    H118330   0.144   5.823   3.535
 6108TIP3    H218331   0.056   5.761   3.641
 6109TIP3   OH218332   0.518   5.600   1.876
 6109TIP3    H118333   0.496   5.680   1.925
 6109TIP3    H218334   0.444   5.542   1.891
 6110TIP3   OH218335   6.220   1.134   2.755
 6110TIP3    H118336   6.293   1.082   2.719
 6110TIP3    H218337   6.143   1.080   2.740
 6111TIP3   OH218338   1.301   5.018   3.690
 6111TIP3    H118339   1.292   4.927   3.719
 6111TIP3    H218340   1.324   5.011   3.597
 6112TIP3   OH218341   4.840   3.635   4.861
 6112TIP3    H118342   4.860   3.547   4.892
 6112TIP3    H218343   4.756   3.625   4.815
 6113TIP3   OH218344   0.870   0.226   0.948
 6113TIP3    H118345   0.836   0.198   1.033
 6113TIP3    H218346   0.964   0.211   0.954
 6114TIP3   OH218347   2.596   2.474   1.722
 6114TIP3    H118348   2.567   2.565   1.731
 6114TIP3    H218349   2.516   2.422   1.736
 6115TIP3   OH218350   1.945   4.343   1.397
 6115TIP3    H118351   1.881   4.386   1.455
 6115TIP3    H218352   1.946   4.398   1.319
 6116TIP3   OH218353   5.285   0.492   0.665
 6116TIP3    H118354   5.353   0.428   0.646
 6116TIP3    H218355   5.206   0.454   0.626
 6117TIP3   OH218356   5.602   0.095   4.524
 6117TIP3    H118357   5.583   0.083   4.431
 6117TIP3    H218358   5.678   0.040   4.540
 6118TIP3   OH218359   4.005   5.861   2.141
 6118TIP3    H118360   3.971   5.771   2.140
 6118TIP3    H218361   4.097   5.852   2.117
 6119TIP3   OH218362   2.823   1.223   1.178
 6119TIP3    H118363   2.810   1.142   1.128
 6119TIP3    H218364   2.917   1.225   1.196
 6120TIP3   OH218365   4.968   3.328   2.210
 6120TIP3    H118366   5.020   3.310   2.131
 6120TIP3    H218367   4.999   3.265   2.274
 6121TIP3   OH218368   0.518   4.736   4.810
 6121TIP3    H118369   0.584   4.796   4.775
 6121TIP3    H218370   0.510   4.758   4.902
 6122TIP3   OH218371   5.800   0.967   2.101
 6122TIP3    H118372   5.827   1.048   2.058
 6122TIP3    H218373   5.872   0.906   2.082
 6123TIP3   OH218374   4.801   4.643   1.756
 6123TIP3    H118375   4.851   4.584   1.812
 6123TIP3    H218376   4.711   4.611   1.761
 6124TIP3   OH218377   5.304   3.540   4.082
 6124TIP3    H118378   5.288   3.526   3.989
 6124TIP3    H218379   5.399   3.555   4.089
 6125TIP3   OH218380   3.114   2.889   4.110
 6125TIP3    H118381   3.182   2.856   4.052
 6125TIP3    H218382   3.117   2.831   4.186
 6126TIP3   OH218383   5.038   3.814   2.857
 6126TIP3    H118384   5.090   3.734   2.858
 6126TIP3    H218385   5.064   3.861   2.936
 6127TIP3   OH218386   2.917   2.421   5.090
 6127TIP3    H118387   2.929   2.493   5.151
 6127TIP3    H218388   3.003   2.410   5.048
 6128TIP3   OH218389   0.234   4.435   3.466
 6128TIP3    H118390   0.210   4.424   3.558
 6128TIP3    H218391   0.292   4.512   3.466
 6129TIP3   OH218392   4.197   5.495   3.880
 6129TIP3    H118393   4.234   5.447   3.806
 6129TIP3    H218394   4.164   5.426   3.938
 6130TIP3   OH218395   3.705   3.901   2.898
 6130TIP3    H118396   3.633   3.891   2.837
 6130TIP3    H218397   3.784   3.880   2.847
 6131TIP3   OH218398   0.896   3.694   3.075
 6131TIP3    H118399   0.949   3.616   3.063
 6131TIP3    H218400   0.867   3.717   2.986
 6132TIP3   OH218401   6.124   5.391   0.024
 6132TIP3    H118402   6.128   5.337  -0.054
 6132TIP3    H218403   6.036   5.377   0.060
 6133TIP3   OH218404   2.844   1.392   1.604
 6133TIP3    H118405   2.758   1.355   1.586
 6133TIP3    H218406   2.886   1.401   1.518
 6134TIP3   OH218407   6.339   1.293   1.901
 6134TIP3    H118408   6.373   1.292   1.811
 6134TIP3    H218409   6.245   1.310   1.891
 6135TIP3   OH218410   3.178   0.863   4.555
 6135TIP3    H118411   3.205   0.781   4.513
 6135TIP3    H218412   3.237   0.929   4.518
 6136TIP3   OH218413   5.514   5.098   4.145
 6136TIP3    H118414   5.546   5.188   4.143
 6136TIP3    H218415   5.421   5.106   4.164
 6137TIP3   OH218416   2.456   0.749   2.754
 6137TIP3    H118417   2.503   0.676   2.714
 6137TIP3    H218418   2.368   0.744   2.716
 6138TIP3   OH218419   3.492   0.301   1.004
 6138TIP3    H118420   3.501   0.393   0.979
 6138TIP3    H218421   3.559   0.289   1.072
 6139TIP3   OH218422   3.430   1.257   4.206
 6139TIP3    H118423   3.377   1.301   4.139
 6139TIP3    H218424   3.409   1.303   4.287
 6140TIP3   OH218425   2.777   1.454   2.528
 6140TIP3    H118426   2.714   1.425   2.595
 6140TIP3    H218427   2.752   1.545   2.511
 6141TIP3   OH218428   2.078   2.716   1.751
 6141TIP3    H118429   2.080   2.810   1.737
 6141TIP3    H218430   1.994   2.699   1.793
 6142TIP3   OH218431   6.148   2.636   5.079
 6142TIP3    H118432   6.067   2.588   5.067
 6142TIP3    H218433   6.121   2.721   5.115
 6143TIP3   OH218434   2.186   4.193   1.413
 6143TIP3    H118435   2.246   4.234   1.351
 6143TIP3    H218436   2.116   4.257   1.425
 6144TIP3   OH218437   4.472   2.950   2.849
 6144TIP3    H118438   4.414   2.983   2.780
 6144TIP3    H218439   4.538   3.018   2.860
 6145TIP3   OH218440   2.423   0.731   0.542
 6145TIP3    H118441   2.466   0.815   0.558
 6145TIP3    H218442   2.419   0.689   0.628
 6146TIP3   OH218443   5.833   5.169   2.037
 6146TIP3    H118444   5.902   5.221   1.996
 6146TIP3    H218445   5.876   5.129   2.113
 6147TIP3   OH218446   2.205   4.264   3.859
 6147TIP3    H118447   2.139   4.254   3.928
 6147TIP3    H218448   2.280   4.214   3.891
 6148TIP3   OH218449   4.621   1.103   1.542
 6148TIP3    H118450   4.578   1.093   1.626
 6148TIP3    H218451   4.593   1.189   1.510
 6149TIP3   OH218452   2.498   4.554   3.338
 6149TIP3    H118453   2.419   4.605   3.360
 6149TIP3    H218454   2.503   4.487   3.407
 6150TIP3   OH218455   4.285   2.471   4.906
 6150TIP3    H118456   4.299   2.386   4.866
 6150TIP3    H218457   4.316   2.534   4.841
 6151TIP3   OH218458   0.162   2.255   0.500
 6151TIP3    H118459   0.157   2.163   0.525
 6151TIP3    H218460   0.190   2.300   0.580
 6152TIP3   OH218461   0.556   2.607   4.772
 6152TIP3    H118462   0.651   2.617   4.786
 6152TIP3    H218463   0.526   2.695   4.749
 6153TIP3   OH218464   1.402   3.716   2.945
 6153TIP3    H118465   1.481   3.676   2.909
 6153TIP3    H218466   1.392   3.799   2.897
 6154TIP3   OH218467   5.750   1.451   2.133
 6154TIP3    H118468   5.796   1.533   2.114
 6154TIP3    H218469   5.657   1.474   2.130
 6155TIP3   OH218470   2.593   0.773   0.979
 6155TIP3    H118471   2.610   0.751   0.888
 6155TIP3    H218472   2.613   0.693   1.027
 6156TIP3   OH218473   6.211   3.717   0.811
 6156TIP3    H118474   6.248   3.774   0.744
 6156TIP3    H218475   6.139   3.671   0.768
 6157TIP3   OH218476   2.291   1.969   1.742
 6157TIP3    H118477   2.274   1.901   1.807
 6157TIP3    H218478   2.353   2.029   1.784
 6158TIP3   OH218479   2.994   0.660   0.572
 6158TIP3    H118480   2.934   0.607   0.519
 6158TIP3    H218481   3.073   0.607   0.579
 6159TIP3   OH218482   5.569   5.114   1.941
 6159TIP3    H118483   5.649   5.120   1.994
 6159TIP3    H218484   5.523   5.196   1.959
 6160TIP3   OH218485   3.235   2.763   1.570
 6160TIP3    H118486   3.303   2.828   1.554
 6160TIP3    H218487   3.183   2.763   1.490
 6161TIP3   OH218488   5.336   4.552   2.602
 6161TIP3    H118489   5.329   4.457   2.593
 6161TIP3    H218490   5.256   4.585   2.561
 6162TIP3   OH218491   1.654   0.067   0.378
 6162TIP3    H118492   1.615  -0.020   0.387
 6162TIP3    H218493   1.743   0.050   0.348
 6163TIP3   OH218494   2.490   4.562   1.626
 6163TIP3    H118495   2.550   4.604   1.565
 6163TIP3    H218496   2.546   4.523   1.694
 6164TIP3   OH218497   2.729   0.020   3.171
 6164TIP3    H118498   2.733   0.111   3.201
 6164TIP3    H218499   2.635   0.001   3.164
 6165TIP3   OH218500   5.614   0.862   2.456
 6165TIP3    H118501   5.634   0.808   2.379
 6165TIP3    H218502   5.647   0.811   2.530
 6166TIP3   OH218503   0.988   5.836   0.374
 6166TIP3    H118504   0.981   5.843   0.469
 6166TIP3    H218505   0.991   5.742   0.357
 6167TIP3   OH218506   4.221   2.046   3.943
 6167TIP3    H118507   4.268   1.987   3.884
 6167TIP3    H218508   4.289   2.090   3.993
 6168TIP3   OH218509   3.156   4.895   0.089
 6168TIP3    H118510   3.187   4.804   0.086
 6168TIP3    H218511   3.061   4.887   0.086
 6169TIP3   OH218512   4.385   3.237   0.453
 6169TIP3    H118513   4.393   3.215   0.546
 6169TIP3    H218514   4.469   3.213   0.415
 6170TIP3   OH218515   4.212   3.939   2.737
 6170TIP3    H118516   4.172   3.853   2.749
 6170TIP3    H218517   4.204   3.956   2.643
 6171TIP3   OH218518   0.883   0.471   2.607
 6171TIP3    H118519   0.935   0.459   2.686
 6171TIP3    H218520   0.943   0.512   2.544
 6172TIP3   OH218521   1.748   5.609   1.180
 6172TIP3    H118522   1.755   5.591   1.273
 6172TIP3    H218523   1.817   5.674   1.163
 6173TIP3   OH218524   6.189   0.203   3.723
 6173TIP3    H118525   6.170   0.294   3.703
 6173TIP3    H218526   6.212   0.164   3.639
 6174TIP3   OH218527   5.772   2.824   4.483
 6174TIP3    H118528   5.817   2.758   4.536
 6174TIP3    H218529   5.731   2.882   4.546
 6175TIP3   OH218530   3.107   4.266   3.083
 6175TIP3    H118531   3.104   4.179   3.123
 6175TIP3    H218532   3.189   4.266   3.032
 6176TIP3   OH218533   2.473   1.315   3.332
 6176TIP3    H118534   2.413   1.352   3.397
 6176TIP3    H218535   2.558   1.352   3.354
 6177TIP3   OH218536   2.992   0.860   5.044
 6177TIP3    H118537   2.996   0.954   5.059
 6177TIP3    H218538   3.051   0.845   4.970
 6178TIP3   OH218539   0.693   4.991   0.531
 6178TIP3    H118540   0.667   5.047   0.458
 6178TIP3    H218541   0.766   5.038   0.572
 6179TIP3   OH218542   0.778   2.312   2.179
 6179TIP3    H118543   0.789   2.245   2.246
 6179TIP3    H218544   0.716   2.374   2.216
 6180TIP3   OH218545   4.076   5.596   3.555
 6180TIP3    H118546   4.116   5.513   3.581
 6180TIP3    H218547   4.149   5.651   3.529
 6181TIP3   OH218548   3.130   3.676   2.707
 6181TIP3    H118549   3.129   3.682   2.802
 6181TIP3    H218550   3.217   3.708   2.682
 6182TIP3   OH218551   1.373   3.239   0.889
 6182TIP3    H118552   1.431   3.309   0.860
 6182TIP3    H218553   1.359   3.185   0.811
 6183TIP3   OH218554   3.661   5.816   0.227
 6183TIP3    H118555   3.739   5.819   0.282
 6183TIP3    H218556   3.694   5.836   0.139
 6184TIP3   OH218557   0.371   5.784   5.103
 6184TIP3    H118558   0.388   5.822   5.189
 6184TIP3    H218559   0.277   5.798   5.089
 6185TIP3   OH218560   4.140   2.462   1.588
 6185TIP3    H118561   4.179   2.547   1.566
 6185TIP3    H218562   4.046   2.474   1.571
 6186TIP3   OH218563   1.843   0.600   2.250
 6186TIP3    H118564   1.817   0.634   2.336
 6186TIP3    H218565   1.780   0.637   2.189
 6187TIP3   OH218566   5.484   0.134   2.320
 6187TIP3    H118567   5.391   0.110   2.318
 6187TIP3    H218568   5.490   0.215   2.269
 6188TIP3   OH218569   4.108   0.136   3.621
 6188TIP3    H118570   4.028   0.086   3.638
 6188TIP3    H218571   4.120   0.131   3.527
 6189TIP3   OH218572   5.332   5.569   4.996
 6189TIP3    H118573   5.365   5.540   4.911
 6189TIP3    H218574   5.396   5.634   5.026
 6190TIP3   OH218575   3.149   0.347   3.733
 6190TIP3    H118576   3.106   0.427   3.703
 6190TIP3    H218577   3.110   0.277   3.679
 6191TIP3   OH218578   1.004   0.884   2.723
 6191TIP3    H118579   1.073   0.819   2.707
 6191TIP3    H218580   1.015   0.948   2.652
 6192TIP3   OH218581   2.750   4.843   4.288
 6192TIP3    H118582   2.846   4.851   4.283
 6192TIP3    H218583   2.731   4.853   4.382
 6193TIP3   OH218584   0.478   4.917   0.727
 6193TIP3    H118585   0.544   4.938   0.661
 6193TIP3    H218586   0.481   4.991   0.788
 6194TIP3   OH218587   5.619   0.747   3.265
 6194TIP3    H118588   5.589   0.691   3.337
 6194TIP3    H218589   5.619   0.690   3.189
 6195TIP3   OH218590   3.367   3.919   1.189
 6195TIP3    H118591   3.326   3.955   1.268
 6195TIP3    H218592   3.459   3.945   1.196
 6196TIP3   OH218593   2.125   1.490   2.689
 6196TIP3    H118594   2.192   1.466   2.625
 6196TIP3    H218595   2.065   1.415   2.691
 6197TIP3   OH218596   4.930   3.393   4.563
 6197TIP3    H118597   4.979   3.474   4.554
 6197TIP3    H218598   4.971   3.332   4.501
 6198TIP3   OH218599   5.862   1.648   1.272
 6198TIP3    H118600   5.956   1.630   1.271
 6198TIP3    H218601   5.855   1.738   1.240
 6199TIP3   OH218602   2.602   2.649   3.915
 6199TIP3    H118603   2.679   2.642   3.859
 6199TIP3    H218604   2.575   2.741   3.908
 6200TIP3   OH218605   4.095   5.597   4.421
 6200TIP3    H118606   4.002   5.617   4.420
 6200TIP3    H218607   4.137   5.675   4.385
 6201TIP3   OH218608   0.174   0.830   0.083
 6201TIP3    H118609   0.196   0.923   0.081
 6201TIP3    H218610   0.089   0.825   0.039
 6202TIP3   OH218611   5.767   4.485   0.494
 6202TIP3    H118612   5.729   4.506   0.409
 6202TIP3    H218613   5.858   4.512   0.487
 6203TIP3   OH218614   0.257   1.523   1.167
 6203TIP3    H118615   0.167   1.493   1.184
 6203TIP3    H218616   0.260   1.536   1.072
 6204TIP3   OH218617   4.027   3.530   2.902
 6204TIP3    H118618   3.985   3.564   2.981
 6204TIP3    H218619   3.981   3.449   2.883
 6205TIP3   OH218620   3.515   0.654   3.437
 6205TIP3    H118621   3.441   0.706   3.468
 6205TIP3    H218622   3.579   0.657   3.508
 6206TIP3   OH218623   1.558   2.921   4.236
 6206TIP3    H118624   1.589   2.842   4.191
 6206TIP3    H218625   1.531   2.891   4.322
 6207TIP3   OH218626   0.290   4.887   2.081
 6207TIP3    H118627   0.236   4.944   2.026
 6207TIP3    H218628   0.265   4.798   2.054
 6208TIP3   OH218629   3.499   2.334   0.058
 6208TIP3    H118630   3.469   2.290   0.138
 6208TIP3    H218631   3.500   2.427   0.081
 6209TIP3   OH218632   3.326   0.188   2.866
 6209TIP3    H118633   3.300   0.214   2.778
 6209TIP3    H218634   3.398   0.128   2.854
 6210TIP3   OH218635   4.287   4.732   1.713
 6210TIP3    H118636   4.358   4.790   1.741
 6210TIP3    H218637   4.289   4.736   1.618
 6211TIP3   OH218638   1.436   2.199   0.991
 6211TIP3    H118639   1.421   2.160   1.078
 6211TIP3    H218640   1.395   2.138   0.930
 6212TIP3   OH218641   1.577   0.145   5.101
 6212TIP3    H118642   1.503   0.107   5.148
 6212TIP3    H218643   1.647   0.149   5.167
 6213TIP3   OH218644   1.541   3.039   5.153
 6213TIP3    H118645   1.588   3.066   5.074
 6213TIP3    H218646   1.530   3.120   5.203
 6214TIP3   OH218647   2.693   5.163   3.605
 6214TIP3    H118648   2.760   5.199   3.663
 6214TIP3    H218649   2.617   5.148   3.662
 6215TIP3   OH218650   4.300   0.739   2.754
 6215TIP3    H118651   4.377   0.787   2.723
 6215TIP3    H218652   4.282   0.775   2.841
 6216TIP3   OH218653   0.124   0.905   4.456
 6216TIP3    H118654   0.177   0.936   4.530
 6216TIP3    H218655   0.100   0.815   4.481
 6217TIP3   OH218656   0.676   2.226   4.136
 6217TIP3    H118657   0.741   2.233   4.205
 6217TIP3    H218658   0.719   2.175   4.067
 6218TIP3   OH218659   1.498   3.867   0.110
 6218TIP3    H118660   1.525   3.948   0.154
 6218TIP3    H218661   1.405   3.858   0.131
 6219TIP3   OH218662   0.978   4.432   0.359
 6219TIP3    H118663   0.946   4.473   0.439
 6219TIP3    H218664   0.977   4.338   0.378
 6220TIP3   OH218665   5.439   4.741   1.613
 6220TIP3    H118666   5.438   4.653   1.650
 6220TIP3    H218667   5.378   4.790   1.669
 6221TIP3   OH218668   0.603   1.629   0.683
 6221TIP3    H118669   0.542   1.563   0.652
 6221TIP3    H218670   0.680   1.620   0.628
 6222TIP3   OH218671   6.018   5.793   3.919
 6222TIP3    H118672   5.994   5.839   4.000
 6222TIP3    H218673   5.942   5.804   3.862
 6223TIP3   OH218674   2.095   3.897   1.996
 6223TIP3    H118675   2.006   3.877   1.966
 6223TIP3    H218676   2.097   3.992   2.004
 6224TIP3   OH218677   0.118   5.021   5.011
 6224TIP3    H118678   0.073   5.044   5.092
 6224TIP3    H218679   0.129   5.104   4.964
 6225TIP3   OH218680   3.107   4.023   5.118
 6225TIP3    H118681   3.157   4.042   5.039
 6225TIP3    H218682   3.112   4.104   5.169
 6226TIP3   OH218683   4.880   1.118   3.002
 6226TIP3    H118684   4.797   1.163   3.021
 6226TIP3    H218685   4.945   1.165   3.054
 6227TIP3   OH218686   3.824   5.642   4.375
 6227TIP3    H118687   3.870   5.654   4.292
 6227TIP3    H218688   3.732   5.655   4.353
 6228TIP3   OH218689   0.212   5.875   3.381
 6228TIP3    H118690   0.278   5.886   3.312
 6228TIP3    H218691   0.151   5.811   3.346
 6229TIP3   OH218692   0.783   5.587   5.051
 6229TIP3    H118693   0.693   5.554   5.056
 6229TIP3    H218694   0.836   5.511   5.028
 6230TIP3   OH218695   5.401   2.830   4.282
 6230TIP3    H118696   5.491   2.825   4.250
 6230TIP3    H218697   5.363   2.746   4.260
 6231TIP3   OH218698   3.111   5.375   2.714
 6231TIP3    H118699   3.171   5.354   2.785
 6231TIP3    H218700   3.076   5.461   2.736
 6232TIP3   OH218701   2.673   4.230   1.270
 6232TIP3    H118702   2.689   4.146   1.227
 6232TIP3    H218703   2.733   4.291   1.227
 6233TIP3   OH218704   0.756   2.492   1.079
 6233TIP3    H118705   0.692   2.423   1.095
 6233TIP3    H218706   0.833   2.466   1.130
 6234TIP3   OH218707   5.776   2.397   3.986
 6234TIP3    H118708   5.732   2.448   3.917
 6234TIP3    H218709   5.861   2.439   3.996
 6235TIP3   OH218710   3.572   0.833   4.353
 6235TIP3    H118711   3.643   0.890   4.384
 6235TIP3    H218712   3.576   0.757   4.410
 6236TIP3   OH218713   3.862   4.998   0.787
 6236TIP3    H118714   3.827   5.084   0.812
 6236TIP3    H218715   3.957   5.010   0.788
 6237TIP3   OH218716   5.377   4.965   1.795
 6237TIP3    H118717   5.452   5.004   1.840
 6237TIP3    H218718   5.318   5.039   1.779
 6238TIP3   OH218719   0.915   0.979   0.277
 6238TIP3    H118720   0.845   0.976   0.343
 6238TIP3    H218721   0.976   0.910   0.304
 6239TIP3   OH218722   2.609   5.616   2.620
 6239TIP3    H118723   2.516   5.629   2.602
 6239TIP3    H218724   2.625   5.524   2.601
 6240TIP3   OH218725   4.961   3.568   0.864
 6240TIP3    H118726   4.891   3.632   0.867
 6240TIP3    H218727   4.921   3.490   0.827
 6241TIP3   OH218728   3.640   0.882   3.698
 6241TIP3    H118729   3.683   0.797   3.687
 6241TIP3    H218730   3.700   0.944   3.658
 6242TIP3   OH218731   5.945   0.722   3.789
 6242TIP3    H118732   5.857   0.709   3.823
 6242TIP3    H218733   5.933   0.777   3.711
 6243TIP3   OH218734   2.576   2.744   0.944
 6243TIP3    H118735   2.561   2.658   0.984
 6243TIP3    H218736   2.653   2.778   0.989
 6244TIP3   OH218737   4.731   5.559   2.795
 6244TIP3    H118738   4.777   5.514   2.866
 6244TIP3    H218739   4.785   5.543   2.718
 6245TIP3   OH218740   4.234   0.204   2.975
 6245TIP3    H118741   4.270   0.215   3.063
 6245TIP3    H218742   4.311   0.199   2.918
 6246TIP3   OH218743   1.188   3.606   3.106
 6246TIP3    H118744   1.175   3.700   3.118
 6246TIP3    H218745   1.248   3.599   3.032
 6247TIP3   OH218746   4.187   3.405   1.613
 6247TIP3    H118747   4.105   3.439   1.578
 6247TIP3    H218748   4.184   3.426   1.706
 6248TIP3   OH218749   4.309   4.802   0.181
 6248TIP3    H118750   4.390   4.751   0.179
 6248TIP3    H218751   4.278   4.802   0.090
 6249TIP3   OH218752   1.230   2.866   3.068
 6249TIP3    H118753   1.141   2.888   3.040
 6249TIP3    H218754   1.287   2.898   2.999
 6250TIP3   OH218755   0.625   4.146   4.694
 6250TIP3    H118756   0.581   4.125   4.612
 6250TIP3    H218757   0.718   4.142   4.673
 6251TIP3   OH218758   4.413   1.645   2.489
 6251TIP3    H118759   4.388   1.563   2.531
 6251TIP3    H218760   4.350   1.709   2.522
 6252TIP3   OH218761   0.398   1.967   2.473
 6252TIP3    H118762   0.308   1.985   2.445
 6252TIP3    H218763   0.398   1.875   2.499
 6253TIP3   OH218764   2.298   0.833   1.514
 6253TIP3    H118765   2.293   0.788   1.598
 6253TIP3    H218766   2.241   0.910   1.525
 6254TIP3   OH218767   5.798   0.217   3.028
 6254TIP3    H118768   5.757   0.211   2.942
 6254TIP3    H218769   5.871   0.156   3.024
 6255TIP3   OH218770   5.217   2.476   4.009
 6255TIP3    H118771   5.257   2.496   4.093
 6255TIP3    H218772   5.124   2.498   4.020
 6256TIP3   OH218773   2.919   4.629   1.592
 6256TIP3    H118774   3.000   4.623   1.543
 6256TIP3    H218775   2.941   4.682   1.669
 6257TIP3   OH218776   0.438   0.174   2.390
 6257TIP3    H118777   0.450   0.082   2.414
 6257TIP3    H218778   0.526   0.210   2.389
 6258TIP3   OH218779   3.172   5.594   0.223
 6258TIP3    H118780   3.261   5.620   0.245
 6258TIP3    H218781   3.181   5.541   0.144
 6259TIP3   OH218782   1.478   3.080   3.932
 6259TIP3    H118783   1.573   3.071   3.940
 6259TIP3    H218784   1.443   3.042   4.012
 6260TIP3   OH218785   5.643   5.976   1.559
 6260TIP3    H118786   5.678   5.904   1.507
 6260TIP3    H218787   5.695   6.052   1.532
 6261TIP3   OH218788   6.289   4.031   3.292
 6261TIP3    H118789   6.340   4.096   3.341
 6261TIP3    H218790   6.354   3.974   3.252
 6262TIP3   OH218791   0.310   0.520   0.599
 6262TIP3    H118792   0.313   0.457   0.527
 6262TIP3    H218793   0.309   0.466   0.678
 6263TIP3   OH218794   5.570   0.919   0.599
 6263TIP3    H118795   5.507   0.855   0.633
 6263TIP3    H218796   5.532   1.004   0.623
 6264TIP3   OH218797   3.721   3.674   4.245
 6264TIP3    H118798   3.693   3.762   4.270
 6264TIP3    H218799   3.648   3.617   4.271
 6265TIP3   OH218800   3.363   3.027   2.807
 6265TIP3    H118801   3.323   3.037   2.721
 6265TIP3    H218802   3.432   2.961   2.793
 6266TIP3   OH218803   1.274   5.213   0.789
 6266TIP3    H118804   1.288   5.264   0.709
 6266TIP3    H218805   1.179   5.207   0.798
 6267TIP3   OH218806   0.265   3.773   2.015
 6267TIP3    H118807   0.217   3.853   2.038
 6267TIP3    H218808   0.284   3.732   2.099
 6268TIP3   OH218809   2.365   0.743   4.007
 6268TIP3    H118810   2.376   0.660   4.054
 6268TIP3    H218811   2.395   0.724   3.918
 6269TIP3   OH218812   1.848   3.803   1.235
 6269TIP3    H118813   1.859   3.874   1.298
 6269TIP3    H218814   1.934   3.761   1.230
 6270TIP3   OH218815   5.301   1.722   5.142
 6270TIP3    H118816   5.354   1.643   5.129
 6270TIP3    H218817   5.274   1.717   5.233
 6271TIP3   OH218818   5.910   2.928   0.325
 6271TIP3    H118819   5.921   2.882   0.242
 6271TIP3    H218820   5.872   2.862   0.384
 6272TIP3   OH218821   0.448   2.570   0.437
 6272TIP3    H118822   0.480   2.650   0.394
 6272TIP3    H218823   0.356   2.563   0.410
 6273TIP3   OH218824   3.673   5.505   3.742
 6273TIP3    H118825   3.702   5.414   3.749
 6273TIP3    H218826   3.745   5.556   3.782
 6274TIP3   OH218827   0.865   2.350   4.825
 6274TIP3    H118828   0.834   2.320   4.910
 6274TIP3    H218829   0.876   2.270   4.774
 6275TIP3   OH218830   5.638   5.630   1.291
 6275TIP3    H118831   5.618   5.648   1.383
 6275TIP3    H218832   5.685   5.708   1.261
 6276TIP3   OH218833   2.630   0.123   0.073
 6276TIP3    H118834   2.605   0.034   0.048
 6276TIP3    H218835   2.570   0.180   0.024
 6277TIP3   OH218836   3.716   0.079   5.090
 6277TIP3    H118837   3.656   0.148   5.061
 6277TIP3    H218838   3.703   0.008   5.027
 6278TIP3   OH218839   4.984   5.121   1.876
 6278TIP3    H118840   4.942   5.207   1.867
 6278TIP3    H218841   5.070   5.132   1.836
 6279TIP3   OH218842   0.393   2.843   1.701
 6279TIP3    H118843   0.430   2.808   1.782
 6279TIP3    H218844   0.330   2.909   1.730
 6280TIP3   OH218845   4.273   5.833   2.647
 6280TIP3    H118846   4.224   5.856   2.568
 6280TIP3    H218847   4.341   5.900   2.653
 6281TIP3   OH218848   3.467   4.040   4.765
 6281TIP3    H118849   3.535   4.070   4.826
 6281TIP3    H218850   3.393   4.017   4.821
 6282TIP3   OH218851   4.231   2.217   1.562
 6282TIP3    H118852   4.314   2.224   1.608
 6282TIP3    H218853   4.188   2.301   1.575
 6283TIP3   OH218854   2.691   4.469   0.346
 6283TIP3    H118855   2.763   4.506   0.295
 6283TIP3    H218856   2.622   4.451   0.281
 6284TIP3   OH218857   4.673   4.255   0.016
 6284TIP3    H118858   4.721   4.187  -0.031
 6284TIP3    H218859   4.741   4.311   0.054
 6285TIP3   OH218860   4.727   3.873   2.436
 6285TIP3    H118861   4.653   3.897   2.381
 6285TIP3    H218862   4.715   3.780   2.456
 6286TIP3   OH218863   0.094   2.839   1.024
 6286TIP3    H118864   0.158   2.899   1.061
 6286TIP3    H218865   0.101   2.760   1.078
 6287TIP3   OH218866   5.534   3.258   0.122
 6287TIP3    H118867   5.627   3.238   0.119
 6287TIP3    H218868   5.493   3.189   0.069
 6288TIP3   OH218869   0.083   2.188   1.177
 6288TIP3    H118870   0.089   2.116   1.239
 6288TIP3    H218871   0.173   2.205   1.150
 6289TIP3   OH218872   6.331   1.661   1.498
 6289TIP3    H118873   6.296   1.599   1.562
 6289TIP3    H218874   6.329   1.745   1.544
 6290TIP3   OH218875   2.599   3.502   1.088
 6290TIP3    H118876   2.588   3.485   1.182
 6290TIP3    H218877   2.620   3.595   1.083
 6291TIP3   OH218878   1.395   1.039   0.870
 6291TIP3    H118879   1.386   1.037   0.965
 6291TIP3    H218880   1.486   1.063   0.855
 6292TIP3   OH218881   5.965   5.423   0.250
 6292TIP3    H118882   6.012   5.359   0.303
 6292TIP3    H218883   5.878   5.384   0.236
 6293TIP3   OH218884   2.017   4.098   3.354
 6293TIP3    H118885   1.928   4.096   3.317
 6293TIP3    H218886   2.003   4.096   3.449
 6294TIP3   OH218887   3.973   5.582   2.064
 6294TIP3    H118888   3.966   5.567   1.969
 6294TIP3    H218889   4.023   5.507   2.097
 6295TIP3   OH218890   0.446   0.597   0.260
 6295TIP3    H118891   0.446   0.689   0.288
 6295TIP3    H218892   0.539   0.573   0.258
 6296TIP3   OH218893   4.085   2.787   4.589
 6296TIP3    H118894   4.028   2.865   4.593
 6296TIP3    H218895   4.080   2.750   4.677
 6297TIP3   OH218896   6.344   4.324   0.147
 6297TIP3    H118897   6.382   4.408   0.122
 6297TIP3    H218898   6.319   4.283   0.064
 6298TIP3   OH218899   2.736   3.456   1.537
 6298TIP3    H118900   2.730   3.371   1.581
 6298TIP3    H218901   2.657   3.459   1.482
 6299TIP3   OH218902   3.389   4.836   4.956
 6299TIP3    H118903   3.475   4.866   4.983
 6299TIP3    H218904   3.372   4.760   5.012
 6300TIP3   OH218905   1.015   5.011   4.761
 6300TIP3    H118906   1.106   5.034   4.776
 6300TIP3    H218907   1.014   4.969   4.675
 6301TIP3   OH218908   2.351   2.607   0.552
 6301TIP3    H118909   2.280   2.671   0.552
 6301TIP3    H218910   2.428   2.658   0.577
 6302TIP3   OH218911   5.440   2.290   0.661
 6302TIP3    H118912   5.450   2.370   0.609
 6302TIP3    H218913   5.529   2.258   0.673
 6303TIP3   OH218914   3.747   1.964   4.264
 6303TIP3    H118915   3.654   1.940   4.272
 6303TIP3    H218916   3.778   1.913   4.190
 6304TIP3   OH218917   4.851   2.415   0.468
 6304TIP3    H118918   4.767   2.393   0.510
 6304TIP3    H218919   4.915   2.409   0.539
 6305TIP3   OH218920   2.024   0.102   3.061
 6305TIP3    H118921   2.056   0.113   3.150
 6305TIP3    H218922   2.075   0.165   3.009
 6306TIP3   OH218923   2.125   5.289   0.947
 6306TIP3    H118924   2.187   5.286   0.874
 6306TIP3    H218925   2.040   5.272   0.907
 6307TIP3   OH218926   1.308   0.667   5.157
 6307TIP3    H118927   1.295   0.725   5.083
 6307TIP3    H218928   1.285   0.719   5.234
 6308TIP3   OH218929   2.067   1.808   5.079
 6308TIP3    H118930   2.074   1.896   5.040
 6308TIP3    H218931   2.124   1.754   5.025
 6309TIP3   OH218932   0.023   1.829   2.075
 6309TIP3    H118933  -0.006   1.901   2.130
 6309TIP3    H218934   0.054   1.871   1.994
 6310TIP3   OH218935   3.831   2.104   3.184
 6310TIP3    H118936   3.906   2.073   3.133
 6310TIP3    H218937   3.857   2.092   3.275
 6311TIP3   OH218938   5.749   4.245   4.598
 6311TIP3    H118939   5.668   4.193   4.597
 6311TIP3    H218940   5.802   4.205   4.668
 6312TIP3   OH218941   2.355   5.804   1.892
 6312TIP3    H118942   2.376   5.807   1.799
 6312TIP3    H218943   2.348   5.710   1.912
 6313TIP3   OH218944   3.982   4.440   4.590
 6313TIP3    H118945   3.985   4.534   4.606
 6313TIP3    H218946   4.007   4.430   4.498
 6314TIP3   OH218947   5.080   1.444   0.604
 6314TIP3    H118948   5.105   1.474   0.691
 6314TIP3    H218949   4.998   1.489   0.584
 6315TIP3   OH218950   3.790   5.512   2.558
 6315TIP3    H118951   3.763   5.425   2.587
 6315TIP3    H218952   3.710   5.564   2.560
 6316TIP3   OH218953   1.190   4.670   4.963
 6316TIP3    H118954   1.135   4.591   4.968
 6316TIP3    H218955   1.232   4.664   4.878
 6317TIP3   OH218956   5.254   4.282   4.057
 6317TIP3    H118957   5.269   4.209   3.997
 6317TIP3    H218958   5.293   4.358   4.014
 6318TIP3   OH218959   3.057   4.988   0.365
 6318TIP3    H118960   3.076   4.896   0.382
 6318TIP3    H218961   3.132   5.019   0.314
 6319TIP3   OH218962   5.313   0.714   4.022
 6319TIP3    H118963   5.284   0.800   4.051
 6319TIP3    H218964   5.406   0.711   4.044
 6320TIP3   OH218965   1.015   2.984   0.790
 6320TIP3    H118966   1.067   2.953   0.865
 6320TIP3    H218967   1.078   3.027   0.733
 6321TIP3   OH218968   4.684   0.911   5.013
 6321TIP3    H118969   4.711   0.988   4.962
 6321TIP3    H218970   4.603   0.939   5.055
 6322TIP3   OH218971   4.296   5.339   1.996
 6322TIP3    H118972   4.211   5.312   2.031
 6322TIP3    H218973   4.360   5.303   2.057
 6323TIP3   OH218974   3.389   0.558   2.304
 6323TIP3    H118975   3.422   0.646   2.286
 6323TIP3    H218976   3.464   0.501   2.286
 6324TIP3   OH218977   0.277   2.537   5.102
 6324TIP3    H118978   0.262   2.585   5.184
 6324TIP3    H218979   0.189   2.521   5.067
 6325TIP3   OH218980   5.211   1.040   3.827
 6325TIP3    H118981   5.179   1.118   3.872
 6325TIP3    H218982   5.210   0.972   3.895
 6326TIP3   OH218983   0.462   1.414   1.932
 6326TIP3    H118984   0.463   1.327   1.892
 6326TIP3    H218985   0.554   1.433   1.951
 6327TIP3   OH218986   2.353   1.665   2.696
 6327TIP3    H118987   2.391   1.603   2.759
 6327TIP3    H218988   2.259   1.648   2.700
 6328TIP3   OH218989   1.258   3.670   1.381
 6328TIP3    H118990   1.250   3.599   1.318
 6328TIP3    H218991   1.318   3.732   1.339
 6329TIP3   OH218992   2.659   5.898   1.869
 6329TIP3    H118993   2.612   5.962   1.816
 6329TIP3    H218994   2.706   5.844   1.806
 6330TIP3   OH218995   3.007   0.214   3.156
 6330TIP3    H118996   3.069   0.146   3.129
 6330TIP3    H218997   3.004   0.207   3.252
 6331TIP3   OH218998   4.565   4.495   1.847
 6331TIP3    H118999   4.594   4.422   1.902
 6331TIP3    H219000   4.471   4.503   1.865
 6332TIP3   OH219001   3.705   3.409   3.552
 6332TIP3    H119002   3.636   3.345   3.535
 6332TIP3    H219003   3.693   3.476   3.485
 6333TIP3   OH219004   1.026   5.064   1.517
 6333TIP3    H119005   0.945   5.089   1.473
 6333TIP3    H219006   1.052   5.142   1.567
 6334TIP3   OH219007   4.227   5.727   5.022
 6334TIP3    H119008   4.150   5.784   5.026
 6334TIP3    H219009   4.208   5.656   5.082
 6335TIP3   OH219010   0.492   3.099   3.058
 6335TIP3    H119011   0.422   3.042   3.026
 6335TIP3    H219012   0.449   3.159   3.119
 6336TIP3   OH219013  -0.021   2.798   4.309
 6336TIP3    H119014   0.004   2.891   4.308
 6336TIP3    H219015   0.059   2.751   4.331
 6337TIP3   OH219016   1.335   3.275   2.003
 6337TIP3    H119017   1.316   3.181   2.003
 6337TIP3    H219018   1.424   3.282   1.967
 6338TIP3   OH219019   5.524   2.016   0.127
 6338TIP3    H119020   5.469   2.091   0.150
 6338TIP3    H219021   5.475   1.941   0.161
 6339TIP3   OH219022   6.109   0.855   2.952
 6339TIP3    H119023   6.166   0.783   2.925
 6339TIP3    H219024   6.058   0.876   2.874
 6340TIP3   OH219025   6.183   4.728   2.447
 6340TIP3    H119026   6.247   4.796   2.428
 6340TIP3    H219027   6.121   4.733   2.374
 6341TIP3   OH219028   2.406   5.596   1.435
 6341TIP3    H119029   2.458   5.541   1.376
 6341TIP3    H219030   2.315   5.570   1.418
 6342TIP3   OH219031   1.967   2.328   3.534
 6342TIP3    H119032   2.004   2.345   3.448
 6342TIP3    H219033   1.924   2.410   3.559
 6343TIP3   OH219034   5.921   0.994   3.956
 6343TIP3    H119035   5.868   1.032   3.886
 6343TIP3    H219036   5.984   0.937   3.911
 6344TIP3   OH219037   3.565   4.909   3.725
 6344TIP3    H119038   3.486   4.963   3.726
 6344TIP3    H219039   3.534   4.821   3.747
 6345TIP3   OH219040   4.636   1.121   0.519
 6345TIP3    H119041   4.564   1.108   0.457
 6345TIP3    H219042   4.600   1.095   0.603
 6346TIP3   OH219043   1.086   1.282   2.485
 6346TIP3    H119044   0.997   1.258   2.457
 6346TIP3    H219045   1.077   1.371   2.519
 6347TIP3   OH219046   1.919   3.328   0.495
 6347TIP3    H119047   1.846   3.349   0.553
 6347TIP3    H219048   1.984   3.397   0.511
 6348TIP3   OH219049   5.577   5.656  -0.027
 6348TIP3    H119050   5.615   5.655   0.061
 6348TIP3    H219051   5.546   5.746  -0.038
 6349TIP3   OH219052   0.039   2.386   3.355
 6349TIP3    H119053  -0.055   2.371   3.352
 6349TIP3    H219054   0.068   2.343   3.436
 6350TIP3   OH219055   0.877   0.644   3.108
 6350TIP3    H119056   0.789   0.683   3.106
 6350TIP3    H219057   0.899   0.631   3.016
 6351TIP3   OH219058   3.072   2.484   2.211
 6351TIP3    H119059   3.132   2.558   2.221
 6351TIP3    H219060   3.061   2.450   2.300
 6352TIP3   OH219061   2.460   1.735   0.482
 6352TIP3    H119062   2.415   1.820   0.471
 6352TIP3    H219063   2.550   1.758   0.503
 6353TIP3   OH219064   0.614   3.982   3.463
 6353TIP3    H119065   0.680   3.947   3.522
 6353TIP3    H219066   0.652   3.972   3.376
 6354TIP3   OH219067   0.243   4.533   2.248
 6354TIP3    H119068   0.308   4.464   2.263
 6354TIP3    H219069   0.242   4.544   2.153
 6355TIP3   OH219070   0.540   3.231   1.450
 6355TIP3    H119071   0.568   3.143   1.473
 6355TIP3    H219072   0.621   3.279   1.432
 6356TIP3   OH219073   4.726   5.129   0.497
 6356TIP3    H119074   4.636   5.154   0.478
 6356TIP3    H219075   4.778   5.174   0.431
 6357TIP3   OH219076   2.097   2.128   2.170
 6357TIP3    H119077   2.077   2.213   2.208
 6357TIP3    H219078   2.098   2.068   2.245
 6358TIP3   OH219079   2.424   4.124   0.953
 6358TIP3    H119080   2.450   4.185   1.022
 6358TIP3    H219081   2.330   4.138   0.942
 6359TIP3   OH219082   6.108   0.437   2.955
 6359TIP3    H119083   6.167   0.472   3.022
 6359TIP3    H219084   6.022   0.434   2.996
 6360TIP3   OH219085   5.637   5.927   2.320
 6360TIP3    H119086   5.641   6.003   2.261
 6360TIP3    H219087   5.561   5.877   2.289
 6361TIP3   OH219088   3.909   4.732   2.053
 6361TIP3    H119089   3.931   4.749   1.962
 6361TIP3    H219090   3.923   4.816   2.097
 6362TIP3   OH219091   1.689   5.473   2.075
 6362TIP3    H119092   1.606   5.468   2.027
 6362TIP3    H219093   1.698   5.566   2.096
 6363TIP3   OH219094   0.728   5.214   1.883
 6363TIP3    H119095   0.741   5.282   1.949
 6363TIP3    H219096   0.752   5.132   1.926
 6364TIP3   OH219097   1.001   1.606   0.417
 6364TIP3    H119098   0.917   1.615   0.372
 6364TIP3    H219099   1.023   1.695   0.444
 6365TIP3   OH219100   5.768   1.069   2.357
 6365TIP3    H119101   5.758   1.038   2.267
 6365TIP3    H219102   5.720   1.006   2.410
 6366TIP3   OH219103   5.131   2.161   5.055
 6366TIP3    H119104   5.106   2.077   5.095
 6366TIP3    H219105   5.193   2.199   5.116
 6367TIP3   OH219106   4.353   1.409   2.613
 6367TIP3    H119107   4.345   1.325   2.567
 6367TIP3    H219108   4.420   1.393   2.680
 6368TIP3   OH219109   4.208   3.318   2.467
 6368TIP3    H119110   4.214   3.369   2.386
 6368TIP3    H219111   4.172   3.233   2.440
 6369TIP3   OH219112   6.329   0.164   1.349
 6369TIP3    H119113   6.367   0.077   1.356
 6369TIP3    H219114   6.267   0.157   1.276
 6370TIP3   OH219115   2.197   4.093   3.044
 6370TIP3    H119116   2.289   4.066   3.051
 6370TIP3    H219117   2.176   4.127   3.131
 6371TIP3   OH219118   3.005   2.706   0.879
 6371TIP3    H119119   3.054   2.629   0.851
 6371TIP3    H219120   3.050   2.734   0.959
 6372TIP3   OH219121   4.464   2.721   0.477
 6372TIP3    H119122   4.409   2.653   0.516
 6372TIP3    H219123   4.407   2.798   0.474
 6373TIP3   OH219124   3.766   2.679   0.205
 6373TIP3    H119125   3.754   2.752   0.266
 6373TIP3    H219126   3.845   2.701   0.157
 6374TIP3   OH219127   3.070   2.504   2.559
 6374TIP3    H119128   3.070   2.583   2.612
 6374TIP3    H219129   3.124   2.442   2.607
 6375TIP3   OH219130   4.762   1.816   4.561
 6375TIP3    H119131   4.813   1.762   4.621
 6375TIP3    H219132   4.682   1.766   4.545
 6376TIP3   OH219133   4.404   4.911   4.853
 6376TIP3    H119134   4.432   4.833   4.901
 6376TIP3    H219135   4.327   4.882   4.803
 6377TIP3   OH219136   6.187   5.879   2.024
 6377TIP3    H119137   6.230   5.914   1.946
 6377TIP3    H219138   6.243   5.908   2.097
 6378TIP3   OH219139   0.443   0.235   4.202
 6378TIP3    H119140   0.499   0.239   4.124
 6378TIP3    H219141   0.377   0.302   4.188
 6379TIP3   OH219142   0.118   0.681   0.434
 6379TIP3    H119143   0.150   0.645   0.351
 6379TIP3    H219144   0.182   0.652   0.499
 6380TIP3   OH219145   0.549   0.526   4.570
 6380TIP3    H119146   0.467   0.546   4.525
 6380TIP3    H219147   0.587   0.611   4.590
 6381TIP3   OH219148   0.335   0.985   2.969
 6381TIP3    H119149   0.386   0.996   3.049
 6381TIP3    H219150   0.256   0.938   2.996
 6382TIP3   OH219151   3.353   1.571   4.841
 6382TIP3    H119152   3.288   1.641   4.833
 6382TIP3    H219153   3.308   1.492   4.811
 6383TIP3   OH219154   2.678   5.491   3.928
 6383TIP3    H119155   2.606   5.482   3.865
 6383TIP3    H219156   2.700   5.401   3.952
 6384TIP3   OH219157   4.515   5.619   2.563
 6384TIP3    H119158   4.579   5.662   2.620
 6384TIP3    H219159   4.431   5.658   2.588
 6385TIP3   OH219160   1.192   3.309   2.822
 6385TIP3    H119161   1.224   3.331   2.735
 6385TIP3    H219162   1.136   3.233   2.809
 6386TIP3   OH219163   5.017   4.471   3.238
 6386TIP3    H119164   4.969   4.430   3.309
 6386TIP3    H219165   5.008   4.565   3.253
 6387TIP3   OH219166   3.570   2.953   3.269
 6387TIP3    H119167   3.476   2.972   3.270
 6387TIP3    H219168   3.584   2.908   3.186
 6388TIP3   OH219169   3.938   3.270   2.958
 6388TIP3    H119170   4.025   3.254   2.919
 6388TIP3    H219171   3.943   3.230   3.044
 6389TIP3   OH219172   2.684   2.667   4.636
 6389TIP3    H119173   2.763   2.654   4.688
 6389TIP3    H219174   2.650   2.578   4.623
 6390TIP3   OH219175   1.010   1.772   1.614
 6390TIP3    H119176   1.048   1.745   1.697
 6390TIP3    H219177   1.079   1.757   1.550
 6391TIP3   OH219178   4.930   4.658   4.850
 6391TIP3    H119179   4.939   4.580   4.796
 6391TIP3    H219180   4.839   4.656   4.880
 6392TIP3   OH219181   2.555   2.729   2.248
 6392TIP3    H119182   2.637   2.766   2.215
 6392TIP3    H219183   2.582   2.649   2.293
 6393TIP3   OH219184   4.126   2.313   2.634
 6393TIP3    H119185   4.205   2.342   2.680
 6393TIP3    H219186   4.158   2.271   2.554
 6394TIP3   OH219187   4.332   3.159   2.663
 6394TIP3    H119188   4.382   3.125   2.589
 6394TIP3    H219189   4.274   3.226   2.625
 6395TIP3   OH219190   4.088   1.481   1.842
 6395TIP3    H119191   4.162   1.453   1.787
 6395TIP3    H219192   4.129   1.526   1.916
 6396TIP3   OH219193   5.445   0.643   2.626
 6396TIP3    H119194   5.416   0.552   2.621
 6396TIP3    H219195   5.378   0.692   2.579
 6397TIP3   OH219196   5.247   3.180   4.741
 6397TIP3    H119197   5.208   3.094   4.755
 6397TIP3    H219198   5.319   3.184   4.804
 6398TIP3   OH219199   4.428   5.402   3.431
 6398TIP3    H119200   4.453   5.462   3.361
 6398TIP3    H219201   4.341   5.430   3.457
 6399TIP3   OH219202   3.521   5.169   1.841
 6399TIP3    H119203   3.572   5.089   1.841
 6399TIP3    H219204   3.586   5.239   1.836
 6400TIP3   OH219205   0.451   4.907   4.179
 6400TIP3    H119206   0.383   4.932   4.241
 6400TIP3    H219207   0.418   4.827   4.138
 6401TIP3   OH219208   2.818   5.270   2.862
 6401TIP3    H119209   2.886   5.315   2.913
 6401TIP3    H219210   2.760   5.231   2.927
 6402TIP3   OH219211   2.491   4.621   2.536
 6402TIP3    H119212   2.401   4.602   2.564
 6402TIP3    H219213   2.505   4.564   2.461
 6403TIP3   OH219214   1.108   1.386   1.493
 6403TIP3    H119215   1.173   1.453   1.477
 6403TIP3    H219216   1.159   1.308   1.516
 6404TIP3   OH219217   2.461   4.253   3.375
 6404TIP3    H119218   2.444   4.281   3.285
 6404TIP3    H219219   2.375   4.254   3.416
 6405TIP3   OH219220   5.912   4.091   2.290
 6405TIP3    H119221   5.914   4.159   2.357
 6405TIP3    H219222   5.972   4.122   2.222
 6406TIP3   OH219223   2.418   2.955   1.329
 6406TIP3    H119224   2.368   2.985   1.404
 6406TIP3    H219225   2.357   2.903   1.277
 6407TIP3   OH219226   4.126   3.766   3.764
 6407TIP3    H119227   4.115   3.841   3.822
 6407TIP3    H219228   4.059   3.776   3.697
 6408TIP3   OH219229   3.004   2.635   0.023
 6408TIP3    H119230   2.993   2.541   0.013
 6408TIP3    H219231   3.054   2.662  -0.055
 6409TIP3   OH219232   1.731   1.879   0.175
 6409TIP3    H119233   1.763   1.964   0.204
 6409TIP3    H219234   1.643   1.897   0.140
 6410TIP3   OH219235   2.731   2.305   0.486
 6410TIP3    H119236   2.663   2.312   0.419
 6410TIP3    H219237   2.683   2.298   0.568
 6411TIP3   OH219238   1.596   0.435   1.781
 6411TIP3    H119239   1.603   0.478   1.866
 6411TIP3    H219240   1.596   0.508   1.718
 6412TIP3   OH219241   1.482   1.983   3.732
 6412TIP3    H119242   1.564   1.933   3.728
 6412TIP3    H219243   1.491   2.038   3.810
 6413TIP3   OH219244   1.126   3.871   4.287
 6413TIP3    H119245   1.221   3.883   4.286
 6413TIP3    H219246   1.096   3.903   4.202
 6414TIP3   OH219247   2.431   3.372   5.088
 6414TIP3    H119248   2.450   3.458   5.051
 6414TIP3    H219249   2.338   3.358   5.070
 6415TIP3   OH219250   5.005   0.295   0.595
 6415TIP3    H119251   5.065   0.271   0.524
 6415TIP3    H219252   4.939   0.226   0.595
 6416TIP3   OH219253   2.972   2.310   0.082
 6416TIP3    H119254   2.919   2.314   0.003
 6416TIP3    H219255   3.002   2.219   0.086
 6417TIP3   OH219256   6.366   4.634   4.798
 6417TIP3    H119257   6.413   4.554   4.821
 6417TIP3    H219258   6.276   4.618   4.826
 6418TIP3   OH219259   5.971   5.745   2.346
 6418TIP3    H119260   6.024   5.743   2.425
 6418TIP3    H219261   5.978   5.834   2.314
 6419TIP3   OH219262   6.162   5.693   1.498
 6419TIP3    H119263   6.241   5.747   1.489
 6419TIP3    H219264   6.175   5.623   1.434
 6420TIP3   OH219265   0.938   5.774   2.931
 6420TIP3    H119266   0.885   5.854   2.935
 6420TIP3    H219267   0.990   5.783   2.851
 6421TIP3   OH219268   0.368   2.275   3.470
 6421TIP3    H119269   0.405   2.311   3.390
 6421TIP3    H219270   0.363   2.181   3.454
 6422TIP3   OH219271   2.976   4.271   3.972
 6422TIP3    H119272   2.923   4.343   3.937
 6422TIP3    H219273   2.978   4.207   3.901
 6423TIP3   OH219274   5.318   0.905   2.978
 6423TIP3    H119275   5.388   0.963   3.008
 6423TIP3    H219276   5.281   0.949   2.901
 6424TIP3   OH219277   1.411   1.018   3.307
 6424TIP3    H119278   1.350   1.069   3.253
 6424TIP3    H219279   1.388   1.039   3.397
 6425TIP3   OH219280   6.050   4.416   1.974
 6425TIP3    H119281   6.067   4.488   2.034
 6425TIP3    H219282   6.008   4.457   1.898
 6426TIP3   OH219283   0.852   3.241   3.830
 6426TIP3    H119284   0.856   3.146   3.844
 6426TIP3    H219285   0.765   3.266   3.860
 6427TIP3   OH219286   3.631   2.257   2.690
 6427TIP3    H119287   3.673   2.296   2.613
 6427TIP3    H219288   3.684   2.178   2.708
 6428TIP3   OH219289   3.735   1.312   3.645
 6428TIP3    H119290   3.805   1.249   3.630
 6428TIP3    H219291   3.762   1.391   3.597
 6429TIP3   OH219292   3.435   1.235   1.674
 6429TIP3    H119293   3.503   1.271   1.617
 6429TIP3    H219294   3.354   1.275   1.642
 6430TIP3   OH219295   2.643   4.085   0.125
 6430TIP3    H119296   2.591   4.132   0.189
 6430TIP3    H219297   2.729   4.128   0.127
 6431TIP3   OH219298   5.933   0.877   2.738
 6431TIP3    H119299   5.978   0.875   2.654
 6431TIP3    H219300   5.872   0.804   2.735
 6432TIP3   OH219301   5.439   5.371   0.383
 6432TIP3    H119302   5.527   5.376   0.345
 6432TIP3    H219303   5.410   5.282   0.366
 6433TIP3   OH219304   3.515   5.590   0.224
 6433TIP3    H119305   3.562   5.673   0.224
 6433TIP3    H219306   3.536   5.551   0.139
 6434TIP3   OH219307   2.552   1.967   0.694
 6434TIP3    H119308   2.525   1.995   0.607
 6434TIP3    H219309   2.608   1.892   0.679
 6435TIP3   OH219310   0.546   2.625   5.060
 6435TIP3    H119311   0.451   2.624   5.069
 6435TIP3    H219312   0.561   2.622   4.965
 6436TIP3   OH219313   5.797   5.221   3.055
 6436TIP3    H119314   5.776   5.256   3.141
 6436TIP3    H219315   5.889   5.242   3.042
 6437TIP3   OH219316   1.862   0.123   2.806
 6437TIP3    H119317   1.887   0.215   2.799
 6437TIP3    H219318   1.945   0.076   2.813
 6438TIP3   OH219319   6.093   5.245   3.019
 6438TIP3    H119320   6.104   5.320   3.077
 6438TIP3    H219321   6.146   5.176   3.058
 6439TIP3   OH219322   5.120   4.706   2.485
 6439TIP3    H119323   5.086   4.626   2.445
 6439TIP3    H219324   5.132   4.766   2.412
 6440TIP3   OH219325   2.936   0.271   0.455
 6440TIP3    H119326   2.869   0.339   0.452
 6440TIP3    H219327   2.918   0.216   0.378
 6441TIP3   OH219328   5.019   2.852   4.466
 6441TIP3    H119329   5.056   2.935   4.440
 6441TIP3    H219330   4.936   2.875   4.509
 6442TIP3   OH219331   5.094   2.564   4.919
 6442TIP3    H119332   5.170   2.569   4.977
 6442TIP3    H219333   5.106   2.482   4.871
 6443TIP3   OH219334   2.493   3.360   2.119
 6443TIP3    H119335   2.484   3.430   2.054
 6443TIP3    H219336   2.464   3.400   2.201
 6444TIP3   OH219337   2.337   5.045   2.792
 6444TIP3    H119338   2.396   4.972   2.777
 6444TIP3    H219339   2.296   5.061   2.707
 6445TIP3   OH219340   4.581   4.515   3.289
 6445TIP3    H119341   4.573   4.423   3.314
 6445TIP3    H219342   4.541   4.519   3.202
 6446TIP3   OH219343   2.232   5.023   2.281
 6446TIP3    H119344   2.253   5.105   2.236
 6446TIP3    H219345   2.138   5.028   2.298
 6447TIP3   OH219346   5.161   5.620   3.797
 6447TIP3    H119347   5.185   5.594   3.707
 6447TIP3    H219348   5.241   5.661   3.831
 6448TIP3   OH219349   1.735   5.248   0.613
 6448TIP3    H119350   1.656   5.243   0.559
 6448TIP3    H219351   1.772   5.159   0.611
 6449TIP3   OH219352   4.405   2.651   1.500
 6449TIP3    H119353   4.379   2.742   1.516
 6449TIP3    H219354   4.473   2.657   1.433
 6450TIP3   OH219355   3.293   0.671   1.826
 6450TIP3    H119356   3.244   0.748   1.797
 6450TIP3    H219357   3.251   0.645   1.908
 6451TIP3   OH219358   3.432   4.120   4.496
 6451TIP3    H119359   3.356   4.062   4.490
 6451TIP3    H219360   3.456   4.118   4.588
 6452TIP3   OH219361   4.865   4.874   3.786
 6452TIP3    H119362   4.819   4.808   3.839
 6452TIP3    H219363   4.933   4.908   3.843
 6453TIP3   OH219364   4.498   3.975   4.217
 6453TIP3    H119365   4.451   4.032   4.155
 6453TIP3    H219366   4.549   3.916   4.162
 6454TIP3   OH219367   2.244   4.259   2.602
 6454TIP3    H119368   2.248   4.248   2.507
 6454TIP3    H219369   2.265   4.173   2.637
 6455TIP3   OH219370   6.197   4.148   1.401
 6455TIP3    H119371   6.176   4.145   1.307
 6455TIP3    H219372   6.278   4.097   1.409
 6456TIP3   OH219373   4.159   5.214   3.281
 6456TIP3    H119374   4.193   5.256   3.202
 6456TIP3    H219375   4.191   5.123   3.275
 6457TIP3   OH219376   0.428   0.674   2.716
 6457TIP3    H119377   0.466   0.762   2.723
 6457TIP3    H219378   0.407   0.651   2.807
 6458TIP3   OH219379   5.756   5.686   1.735
 6458TIP3    H119380   5.794   5.725   1.814
 6458TIP3    H219381   5.809   5.721   1.664
 6459TIP3   OH219382   3.887   1.439   2.058
 6459TIP3    H119383   3.800   1.478   2.050
 6459TIP3    H219384   3.937   1.478   1.986
 6460TIP3   OH219385   2.502   0.672   0.223
 6460TIP3    H119386   2.539   0.590   0.254
 6460TIP3    H219387   2.537   0.739   0.283
 6461TIP3   OH219388   3.345   3.175   5.200
 6461TIP3    H119389   3.412   3.234   5.235
 6461TIP3    H219390   3.343   3.193   5.107
 6462TIP3   OH219391   0.650   2.439   2.379
 6462TIP3    H119392   0.706   2.437   2.457
 6462TIP3    H219393   0.584   2.372   2.394
 6463TIP3   OH219394   3.748   4.509   2.820
 6463TIP3    H119395   3.705   4.587   2.783
 6463TIP3    H219396   3.810   4.544   2.883
 6464TIP3   OH219397   2.479   0.360   4.911
 6464TIP3    H119398   2.438   0.304   4.977
 6464TIP3    H219399   2.537   0.302   4.862
 6465TIP3   OH219400   0.271   4.767   4.001
 6465TIP3    H119401   0.308   4.705   3.938
 6465TIP3    H219402   0.177   4.751   3.998
 6466TIP3   OH219403   3.685   2.892   0.358
 6466TIP3    H119404   3.717   2.980   0.337
 6466TIP3    H219405   3.598   2.906   0.395
 6467TIP3   OH219406   4.408   1.564   5.203
 6467TIP3    H119407   4.480   1.590   5.146
 6467TIP3    H219408   4.335   1.620   5.177
 6468TIP3   OH219409   0.900   5.291   5.209
 6468TIP3    H119410   0.940   5.240   5.139
 6468TIP3    H219411   0.806   5.279   5.197
 6469TIP3   OH219412   3.188   2.371   3.596
 6469TIP3    H119413   3.263   2.429   3.609
 6469TIP3    H219414   3.223   2.283   3.608
 6470TIP3   OH219415   1.733   5.925   3.385
 6470TIP3    H119416   1.698   6.013   3.398
 6470TIP3    H219417   1.799   5.936   3.317
 6471TIP3   OH219418   2.809   3.427   3.939
 6471TIP3    H119419   2.848   3.367   4.003
 6471TIP3    H219420   2.871   3.499   3.933
 6472TIP3   OH219421   3.636   0.221   1.536
 6472TIP3    H119422   3.619   0.223   1.630
 6472TIP3    H219423   3.730   0.238   1.529
 6473TIP3   OH219424   5.224   4.982   3.301
 6473TIP3    H119425   5.167   5.045   3.345
 6473TIP3    H219426   5.170   4.944   3.233
 6474TIP3   OH219427   0.897   0.379   3.227
 6474TIP3    H119428   0.928   0.319   3.159
 6474TIP3    H219429   0.885   0.462   3.183
 6475TIP3   OH219430   5.850   5.360   4.639
 6475TIP3    H119431   5.816   5.375   4.728
 6475TIP3    H219432   5.865   5.447   4.604
 6476TIP3   OH219433   3.188   0.740   1.441
 6476TIP3    H119434   3.111   0.792   1.419
 6476TIP3    H219435   3.167   0.701   1.526
 6477TIP3   OH219436   2.204   0.738   2.624
 6477TIP3    H119437   2.199   0.643   2.613
 6477TIP3    H219438   2.220   0.772   2.536
 6478TIP3   OH219439   2.390   3.309   1.279
 6478TIP3    H119440   2.306   3.303   1.232
 6478TIP3    H219441   2.447   3.249   1.232
 6479TIP3   OH219442   3.227   5.682   1.487
 6479TIP3    H119443   3.317   5.690   1.518
 6479TIP3    H219444   3.202   5.593   1.511
 6480TIP3   OH219445   4.667   2.647   4.852
 6480TIP3    H119446   4.688   2.654   4.759
 6480TIP3    H219447   4.641   2.556   4.864
 6481TIP3   OH219448   5.890   4.739   4.384
 6481TIP3    H119449   5.984   4.737   4.364
 6481TIP3    H219450   5.879   4.672   4.451
 6482TIP3   OH219451   1.037   3.970   4.742
 6482TIP3    H119452   1.081   3.932   4.665
 6482TIP3    H219453   1.095   3.949   4.815
 6483TIP3   OH219454   1.519   5.224   1.199
 6483TIP3    H119455   1.468   5.234   1.279
 6483TIP3    H219456   1.561   5.138   1.208
 6484TIP3   OH219457   6.058   3.472   5.120
 6484TIP3    H119458   6.115   3.521   5.180
 6484TIP3    H219459   6.106   3.470   5.038
 6485TIP3   OH219460   4.917   3.614   0.408
 6485TIP3    H119461   4.960   3.531   0.388
 6485TIP3    H219462   4.965   3.649   0.483
 6486TIP3   OH219463   0.992   5.427   1.507
 6486TIP3    H119464   0.948   5.362   1.453
 6486TIP3    H219465   0.994   5.388   1.595
 6487TIP3   OH219466   4.913   4.190   1.966
 6487TIP3    H119467   4.845   4.141   1.920
 6487TIP3    H219468   4.932   4.137   2.044
 6488TIP3   OH219469   5.762   4.424   2.654
 6488TIP3    H119470   5.753   4.498   2.593
 6488TIP3    H219471   5.789   4.351   2.598
 6489TIP3   OH219472   2.848   2.638   3.210
 6489TIP3    H119473   2.818   2.583   3.282
 6489TIP3    H219474   2.939   2.612   3.196
 6490TIP3   OH219475   2.760   5.375   2.621
 6490TIP3    H119476   2.782   5.384   2.713
 6490TIP3    H219477   2.678   5.326   2.619
 6491TIP3   OH219478   0.913   4.581   0.582
 6491TIP3    H119479   0.847   4.647   0.559
 6491TIP3    H219480   0.961   4.620   0.654
 6492TIP3   OH219481   1.363   3.547   5.071
 6492TIP3    H119482   1.269   3.556   5.059
 6492TIP3    H219483   1.375   3.460   5.108
 6493TIP3   OH219484   0.897   3.974   2.176
 6493TIP3    H119485   0.820   3.919   2.160
 6493TIP3    H219486   0.966   3.933   2.124
 6494TIP3   OH219487   3.706   4.146   2.629
 6494TIP3    H119488   3.673   4.186   2.709
 6494TIP3    H219489   3.798   4.172   2.625
 6495TIP3   OH219490   1.069   1.186   0.183
 6495TIP3    H119491   1.023   1.106   0.207
 6495TIP3    H219492   1.161   1.161   0.182
 6496TIP3   OH219493   3.415   1.015   3.424
 6496TIP3    H119494   3.355   0.941   3.438
 6496TIP3    H219495   3.372   1.088   3.468
 6497TIP3   OH219496   0.193   0.791   1.903
 6497TIP3    H119497   0.124   0.850   1.932
 6497TIP3    H219498   0.255   0.789   1.976
 6498TIP3   OH219499   0.770   1.885   4.401
 6498TIP3    H119500   0.777   1.799   4.443
 6498TIP3    H219501   0.704   1.932   4.451
 6499TIP3   OH219502   0.750   4.295   1.278
 6499TIP3    H119503   0.676   4.283   1.336
 6499TIP3    H219504   0.822   4.248   1.320
 6500TIP3   OH219505   5.536   5.334   4.516
 6500TIP3    H119506   5.577   5.410   4.559
 6500TIP3    H219507   5.610   5.282   4.484
 6501TIP3   OH219508   4.158   5.497   2.419
 6501TIP3    H119509   4.160   5.403   2.402
 6501TIP3    H219510   4.243   5.530   2.390
 6502TIP3   OH219511   4.137   2.375   4.063
 6502TIP3    H119512   4.184   2.305   4.018
 6502TIP3    H219513   4.099   2.427   3.992
 6503TIP3   OH219514   2.230   3.884   0.111
 6503TIP3    H119515   2.197   3.798   0.137
 6503TIP3    H219516   2.151   3.936   0.095
 6504TIP3   OH219517   1.060   4.756   0.222
 6504TIP3    H119518   1.118   4.790   0.291
 6504TIP3    H219519   0.977   4.739   0.267
 6505TIP3   OH219520   0.689   4.451   5.083
 6505TIP3    H119521   0.748   4.386   5.121
 6505TIP3    H219522   0.744   4.502   5.024
 6506TIP3   OH219523   2.844   5.347   0.510
 6506TIP3    H119524   2.839   5.356   0.415
 6506TIP3    H219525   2.885   5.261   0.523
 6507TIP3   OH219526   0.364   5.004   4.687
 6507TIP3    H119527   0.325   4.933   4.738
 6507TIP3    H219528   0.414   4.960   4.618
 6508TIP3   OH219529   2.112   2.127   4.354
 6508TIP3    H119530   2.130   2.162   4.266
 6508TIP3    H219531   2.108   2.032   4.341
 6509TIP3   OH219532   2.070   0.747   4.796
 6509TIP3    H119533   2.077   0.653   4.811
 6509TIP3    H219534   2.144   0.768   4.740
 6510TIP3   OH219535   2.387   5.806   1.232
 6510TIP3    H119536   2.433   5.835   1.153
 6510TIP3    H219537   2.357   5.717   1.210
 6511TIP3   OH219538   3.224   2.460   1.018
 6511TIP3    H119539   3.256   2.435   1.105
 6511TIP3    H219540   3.225   2.378   0.968
 6512TIP3   OH219541   2.819   3.429   0.559
 6512TIP3    H119542   2.814   3.522   0.583
 6512TIP3    H219543   2.876   3.427   0.482
 6513TIP3   OH219544   0.163   0.455   5.156
 6513TIP3    H119545   0.257   0.441   5.143
 6513TIP3    H219546   0.133   0.376   5.200
 6514TIP3   OH219547   1.271   2.616   2.202
 6514TIP3    H119548   1.276   2.560   2.279
 6514TIP3    H219549   1.359   2.610   2.163
 6515TIP3   OH219550   3.215   5.890   2.217
 6515TIP3    H119551   3.188   5.967   2.166
 6515TIP3    H219552   3.139   5.832   2.215
 6516TIP3   OH219553   1.299   5.333   4.102
 6516TIP3    H119554   1.289   5.428   4.106
 6516TIP3    H219555   1.293   5.312   4.008
 6517TIP3   OH219556   1.777   4.098   2.072
 6517TIP3    H119557   1.861   4.113   2.116
 6517TIP3    H219558   1.797   4.032   2.006
 6518TIP3   OH219559   4.966   4.957   1.544
 6518TIP3    H119560   5.061   4.969   1.543
 6518TIP3    H219561   4.931   5.040   1.510
 6519TIP3   OH219562   4.948   2.931   0.461
 6519TIP3    H119563   4.873   2.878   0.488
 6519TIP3    H219564   4.934   2.949   0.369
 6520TIP3   OH219565   4.161   3.936   3.179
 6520TIP3    H119566   4.138   4.014   3.130
 6520TIP3    H219567   4.235   3.899   3.131
 6521TIP3   OH219568   5.898   5.585   4.168
 6521TIP3    H119569   5.804   5.601   4.174
 6521TIP3    H219570   5.935   5.668   4.140
 6522TIP3   OH219571   2.536   0.393   3.983
 6522TIP3    H119572   2.519   0.450   3.908
 6522TIP3    H219573   2.490   0.312   3.963
 6523TIP3   OH219574   1.357   4.761   0.033
 6523TIP3    H119575   1.265   4.738   0.018
 6523TIP3    H219576   1.380   4.715   0.114
 6524TIP3   OH219577   3.094   2.657   4.235
 6524TIP3    H119578   3.187   2.638   4.247
 6524TIP3    H219579   3.054   2.636   4.319
 6525TIP3   OH219580   1.735   4.497   2.751
 6525TIP3    H119581   1.659   4.460   2.795
 6525TIP3    H219582   1.788   4.420   2.728
 6526TIP3   OH219583   2.474   1.494   2.063
 6526TIP3    H119584   2.394   1.441   2.057
 6526TIP3    H219585   2.486   1.528   1.975
 6527TIP3   OH219586   0.217   3.897   4.775
 6527TIP3    H119587   0.231   3.845   4.695
 6527TIP3    H219588   0.305   3.919   4.805
 6528TIP3   OH219589   2.491   2.145   1.906
 6528TIP3    H119590   2.501   2.237   1.882
 6528TIP3    H219591   2.580   2.112   1.915
 6529TIP3   OH219592   5.527   1.723   0.724
 6529TIP3    H119593   5.504   1.704   0.634
 6529TIP3    H219594   5.497   1.647   0.774
 6530TIP3   OH219595   2.416   5.643   0.191
 6530TIP3    H119596   2.483   5.603   0.246
 6530TIP3    H219597   2.447   5.733   0.177
 6531TIP3   OH219598   3.099   1.118   3.232
 6531TIP3    H119599   3.147   1.106   3.150
 6531TIP3    H219600   3.168   1.136   3.296
 6532TIP3   OH219601   0.827   3.202   0.567
 6532TIP3    H119602   0.755   3.239   0.516
 6532TIP3    H219603   0.789   3.180   0.651
 6533TIP3   OH219604   2.659   0.311   1.420
 6533TIP3    H119605   2.745   0.328   1.381
 6533TIP3    H219606   2.664   0.220   1.449
 6534TIP3   OH219607   0.179   2.239   3.150
 6534TIP3    H119608   0.173   2.303   3.221
 6534TIP3    H219609   0.195   2.291   3.072
 6535TIP3   OH219610   5.665   3.225   5.084
 6535TIP3    H119611   5.723   3.283   5.133
 6535TIP3    H219612   5.629   3.167   5.151
 6536TIP3   OH219613   4.856   1.879   0.525
 6536TIP3    H119614   4.771   1.883   0.482
 6536TIP3    H219615   4.836   1.861   0.617
 6537TIP3   OH219616   0.505   3.452   3.450
 6537TIP3    H119617   0.596   3.425   3.438
 6537TIP3    H219618   0.468   3.453   3.361
 6538TIP3   OH219619   3.710   2.181   1.809
 6538TIP3    H119620   3.645   2.184   1.738
 6538TIP3    H219621   3.659   2.156   1.886
 6539TIP3   OH219622   2.881   5.449   3.535
 6539TIP3    H119623   2.864   5.389   3.462
 6539TIP3    H219624   2.950   5.406   3.586
 6540TIP3   OH219625   5.339   2.207   2.019
 6540TIP3    H119626   5.251   2.186   2.051
 6540TIP3    H219627   5.393   2.133   2.045
 6541TIP3   OH219628   3.833   2.619   2.396
 6541TIP3    H119629   3.803   2.677   2.466
 6541TIP3    H219630   3.920   2.590   2.424
 6542TIP3   OH219631   3.380   0.200   4.995
 6542TIP3    H119632   3.295   0.156   4.992
 6542TIP3    H219633   3.365   0.278   5.047
 6543TIP3   OH219634   4.364   0.959   3.175
 6543TIP3    H119635   4.406   0.893   3.230
 6543TIP3    H219636   4.345   1.032   3.233
 6544TIP3   OH219637   4.048   0.509   4.252
 6544TIP3    H119638   4.030   0.438   4.191
 6544TIP3    H219639   3.963   0.549   4.269
 6545TIP3   OH219640   4.175   5.727   2.871
 6545TIP3    H119641   4.115   5.665   2.830
 6545TIP3    H219642   4.232   5.757   2.800
 6546TIP3   OH219643   4.895   3.368   3.908
 6546TIP3    H119644   4.903   3.395   4.000
 6546TIP3    H219645   4.881   3.274   3.912
 6547TIP3   OH219646   0.294   0.781   2.358
 6547TIP3    H119647   0.319   0.869   2.387
 6547TIP3    H219648   0.340   0.722   2.417
 6548TIP3   OH219649   2.242   2.520   1.139
 6548TIP3    H119650   2.271   2.484   1.056
 6548TIP3    H219651   2.287   2.467   1.205
 6549TIP3   OH219652   1.591   1.372   2.097
 6549TIP3    H119653   1.626   1.455   2.129
 6549TIP3    H219654   1.668   1.320   2.074
 6550TIP3   OH219655   0.594   4.536   3.728
 6550TIP3    H119656   0.622   4.615   3.773
 6550TIP3    H219657   0.612   4.553   3.636
 6551TIP3   OH219658   2.682   2.270   1.047
 6551TIP3    H119659   2.696   2.191   0.994
 6551TIP3    H219660   2.730   2.253   1.128
 6552TIP3   OH219661   1.193   5.805   2.025
 6552TIP3    H119662   1.185   5.741   2.096
 6552TIP3    H219663   1.283   5.796   1.994
 6553TIP3   OH219664   5.390   2.052   1.049
 6553TIP3    H119665   5.321   2.003   1.093
 6553TIP3    H219666   5.416   1.997   0.976
 6554TIP3   OH219667   1.332   0.802   0.270
 6554TIP3    H119668   1.371   0.716   0.259
 6554TIP3    H219669   1.392   0.862   0.224
 6555TIP3   OH219670   5.093   5.068   2.538
 6555TIP3    H119671   5.086   5.007   2.464
 6555TIP3    H219672   5.187   5.081   2.548
 6556TIP3   OH219673   6.036   2.199   1.914
 6556TIP3    H119674   6.041   2.157   1.828
 6556TIP3    H219675   6.018   2.127   1.974
 6557TIP3   OH219676   1.473   5.523   3.586
 6557TIP3    H119677   1.441   5.482   3.505
 6557TIP3    H219678   1.397   5.522   3.644
 6558TIP3   OH219679   0.146   5.260   4.886
 6558TIP3    H119680   0.197   5.337   4.859
 6558TIP3    H219681   0.126   5.215   4.803
 6559TIP3   OH219682   5.434   1.565   1.635
 6559TIP3    H119683   5.380   1.519   1.571
 6559TIP3    H219684   5.523   1.533   1.618
 6560TIP3   OH219685   5.249   2.892   2.701
 6560TIP3    H119686   5.221   2.964   2.645
 6560TIP3    H219687   5.179   2.827   2.694
 6561TIP3   OH219688   1.540   3.514   0.405
 6561TIP3    H119689   1.497   3.588   0.447
 6561TIP3    H219690   1.594   3.553   0.337
 6562TIP3   OH219691   2.479   2.711   3.130
 6562TIP3    H119692   2.476   2.798   3.090
 6562TIP3    H219693   2.411   2.661   3.084
 6563TIP3   OH219694   4.397   4.561   3.788
 6563TIP3    H119695   4.489   4.552   3.813
 6563TIP3    H219696   4.395   4.542   3.694
 6564TIP3   OH219697   1.234   4.196   3.803
 6564TIP3    H119698   1.154   4.152   3.831
 6564TIP3    H219699   1.305   4.146   3.843
 6565TIP3   OH219700   5.220   4.402   2.286
 6565TIP3    H119701   5.186   4.376   2.200
 6565TIP3    H219702   5.302   4.447   2.266
 6566TIP3   OH219703   0.415   5.319   4.175
 6566TIP3    H119704   0.362   5.395   4.199
 6566TIP3    H219705   0.352   5.254   4.145
 6567TIP3   OH219706   3.007   0.766   3.543
 6567TIP3    H119707   2.918   0.771   3.508
 6567TIP3    H219708   3.010   0.682   3.589
 6568TIP3   OH219709   4.757   5.869   0.588
 6568TIP3    H119710   4.669   5.836   0.568
 6568TIP3    H219711   4.742   5.939   0.652
 6569TIP3   OH219712   2.383   5.276   4.328
 6569TIP3    H119713   2.416   5.187   4.337
 6569TIP3    H219714   2.288   5.266   4.326
 6570TIP3   OH219715   0.795   2.196   2.438
 6570TIP3    H119716   0.808   2.102   2.423
 6570TIP3    H219717   0.862   2.220   2.502
 6571TIP3   OH219718   4.516   5.522   2.284
 6571TIP3    H119719   4.438   5.545   2.233
 6571TIP3    H219720   4.513   5.580   2.360
 6572TIP3   OH219721   1.500   2.241   2.284
 6572TIP3    H119722   1.521   2.302   2.213
 6572TIP3    H219723   1.564   2.171   2.276
 6573TIP3   OH219724   1.550   5.325   3.350
 6573TIP3    H119725   1.568   5.410   3.309
 6573TIP3    H219726   1.464   5.336   3.390
 6574TIP3   OH219727   3.716   2.362   2.452
 6574TIP3    H119728   3.737   2.453   2.473
 6574TIP3    H219729   3.770   2.343   2.375
 6575TIP3   OH219730   2.638   1.843   4.883
 6575TIP3    H119731   2.592   1.907   4.829
 6575TIP3    H219732   2.634   1.880   4.971
 6576TIP3   OH219733   4.712   3.957   5.160
 6576TIP3    H119734   4.665   3.947   5.078
 6576TIP3    H219735   4.783   3.893   5.156
 6577TIP3   OH219736   1.837   2.843   0.360
 6577TIP3    H119737   1.751   2.860   0.322
 6577TIP3    H219738   1.880   2.928   0.364
 6578TIP3   OH219739   2.483   5.551   0.713
 6578TIP3    H119740   2.534   5.616   0.665
 6578TIP3    H219741   2.417   5.522   0.650
 6579TIP3   OH219742   2.812   0.877   2.238
 6579TIP3    H119743   2.734   0.863   2.184
 6579TIP3    H219744   2.788   0.841   2.324
 6580TIP3   OH219745   1.417   1.039   1.131
 6580TIP3    H119746   1.372   1.110   1.177
 6580TIP3    H219747   1.382   0.959   1.170
 6581TIP3   OH219748   2.001   2.317   4.964
 6581TIP3    H119749   2.044   2.376   4.902
 6581TIP3    H219750   1.912   2.307   4.929
 6582TIP3   OH219751   1.387   2.363   5.113
 6582TIP3    H119752   1.312   2.404   5.071
 6582TIP3    H219753   1.369   2.270   5.111
 6583TIP3   OH219754   0.844   1.246   3.668
 6583TIP3    H119755   0.809   1.283   3.587
 6583TIP3    H219756   0.829   1.314   3.734
 6584TIP3   OH219757   5.385   1.501   4.482
 6584TIP3    H119758   5.403   1.589   4.450
 6584TIP3    H219759   5.396   1.506   4.576
 6585TIP3   OH219760   0.005   0.287   2.505
 6585TIP3    H119761  -0.009   0.357   2.442
 6585TIP3    H219762  -0.007   0.329   2.590
 6586TIP3   OH219763   1.269   1.592   1.414
 6586TIP3    H119764   1.319   1.545   1.348
 6586TIP3    H219765   1.249   1.677   1.373
 6587TIP3   OH219766   3.249   2.721   2.690
 6587TIP3    H119767   3.252   2.656   2.620
 6587TIP3    H219768   3.252   2.805   2.644
 6588TIP3   OH219769   1.351   4.768   0.459
 6588TIP3    H119770   1.335   4.709   0.386
 6588TIP3    H219771   1.411   4.721   0.516
 6589TIP3   OH219772   0.934   5.002   0.694
 6589TIP3    H119773   0.989   5.047   0.629
 6589TIP3    H219774   0.921   5.067   0.763
 6590TIP3   OH219775   0.656   1.334   1.262
 6590TIP3    H119776   0.599   1.318   1.336
 6590TIP3    H219777   0.732   1.379   1.299
 6591TIP3   OH219778   2.551   0.441   0.363
 6591TIP3    H119779   2.574   0.350   0.344
 6591TIP3    H219780   2.492   0.436   0.438
 6592TIP3   OH219781   0.366   0.747   2.108
 6592TIP3    H119782   0.338   0.781   2.193
 6592TIP3    H219783   0.388   0.655   2.125
 6593TIP3   OH219784   3.990   4.933   5.082
 6593TIP3    H119785   3.986   4.860   5.143
 6593TIP3    H219786   3.986   4.893   4.995
 6594TIP3   OH219787   3.849   2.342   0.103
 6594TIP3    H119788   3.798   2.409   0.150
 6594TIP3    H219789   3.784   2.292   0.054
 6595TIP3   OH219790   3.172   0.675   1.049
 6595TIP3    H119791   3.108   0.739   1.080
 6595TIP3    H219792   3.253   0.724   1.041
 6596TIP3   OH219793   0.371   1.188   4.849
 6596TIP3    H119794   0.336   1.158   4.765
 6596TIP3    H219795   0.375   1.283   4.841
 6597TIP3   OH219796   0.627   2.888   3.723
 6597TIP3    H119797   0.584   2.824   3.780
 6597TIP3    H219798   0.564   2.960   3.717
 6598TIP3   OH219799   1.129   3.172   1.385
 6598TIP3    H119800   1.178   3.174   1.302
 6598TIP3    H219801   1.193   3.198   1.451
 6599TIP3   OH219802   2.616   4.056   3.507
 6599TIP3    H119803   2.678   4.051   3.434
 6599TIP3    H219804   2.567   4.136   3.490
 6600TIP3   OH219805   4.335   4.114   1.090
 6600TIP3    H119806   4.304   4.138   1.003
 6600TIP3    H219807   4.333   4.018   1.090
 6601TIP3   OH219808   1.452   4.978   4.317
 6601TIP3    H119809   1.461   5.073   4.322
 6601TIP3    H219810   1.397   4.955   4.392
 6602TIP3   OH219811   4.447   2.188   4.434
 6602TIP3    H119812   4.461   2.127   4.507
 6602TIP3    H219813   4.380   2.146   4.381
 6603TIP3   OH219814   0.744   4.883   1.226
 6603TIP3    H119815   0.824   4.933   1.214
 6603TIP3    H219816   0.769   4.808   1.279
 6604TIP3   OH219817   3.565   4.825   2.447
 6604TIP3    H119818   3.610   4.842   2.364
 6604TIP3    H219819   3.531   4.911   2.473
 6605TIP3   OH219820   2.284   0.332   2.236
 6605TIP3    H119821   2.311   0.256   2.186
 6605TIP3    H219822   2.346   0.335   2.310
 6606TIP3   OH219823   0.410   0.433   1.969
 6606TIP3    H119824   0.356   0.366   2.011
 6606TIP3    H219825   0.454   0.477   2.041
 6607TIP3   OH219826   0.255   5.980   0.719
 6607TIP3    H119827   0.272   5.984   0.813
 6607TIP3    H219828   0.165   5.949   0.712
 6608TIP3   OH219829   0.520   2.729   3.919
 6608TIP3    H119830   0.425   2.725   3.911
 6608TIP3    H219831   0.536   2.755   4.010
 6609TIP3   OH219832   4.264   4.299   3.757
 6609TIP3    H119833   4.280   4.388   3.787
 6609TIP3    H219834   4.220   4.310   3.673
 6610TIP3   OH219835   0.081   5.393   0.473
 6610TIP3    H119836   0.146   5.421   0.409
 6610TIP3    H219837  -0.002   5.396   0.426
 6611TIP3   OH219838   4.364   5.359   1.303
 6611TIP3    H119839   4.284   5.392   1.262
 6611TIP3    H219840   4.434   5.407   1.260
 6612TIP3   OH219841   5.680   0.477   1.458
 6612TIP3    H119842   5.683   0.382   1.470
 6612TIP3    H219843   5.660   0.489   1.365
 6613TIP3   OH219844   5.959   2.616   0.260
 6613TIP3    H119845   5.990   2.550   0.198
 6613TIP3    H219846   5.896   2.668   0.210
 6614TIP3   OH219847   3.653   6.023   1.884
 6614TIP3    H119848   3.667   5.933   1.915
 6614TIP3    H219849   3.608   6.013   1.801
 6615TIP3   OH219850   0.179   3.888   2.675
 6615TIP3    H119851   0.167   3.807   2.626
 6615TIP3    H219852   0.112   3.885   2.743
 6616TIP3   OH219853   6.331   3.836   0.241
 6616TIP3    H119854   6.311   3.924   0.272
 6616TIP3    H219855   6.310   3.838   0.147
 6617TIP3   OH219856   3.434   3.883   3.647
 6617TIP3    H119857   3.450   3.941   3.573
 6617TIP3    H219858   3.476   3.927   3.721
 6618TIP3   OH219859   0.624   1.761   3.687
 6618TIP3    H119860   0.632   1.773   3.782
 6618TIP3    H219861   0.595   1.846   3.654
 6619TIP3   OH219862   2.731   1.598   4.320
 6619TIP3    H119863   2.651   1.546   4.327
 6619TIP3    H219864   2.717   1.672   4.380
 6620TIP3   OH219865   0.295   5.630   1.273
 6620TIP3    H119866   0.317   5.703   1.216
 6620TIP3    H219867   0.341   5.555   1.234
 6621TIP3   OH219868   1.580   0.968   3.087
 6621TIP3    H119869   1.662   0.964   3.135
 6621TIP3    H219870   1.512   0.964   3.154
 6622TIP3   OH219871   1.910   5.077   4.576
 6622TIP3    H119872   1.974   5.094   4.507
 6622TIP3    H219873   1.922   4.984   4.597
 6623TIP3   OH219874   4.393   1.141   4.236
 6623TIP3    H119875   4.438   1.079   4.179
 6623TIP3    H219876   4.313   1.163   4.189
 6624TIP3   OH219877   5.255   3.867   0.126
 6624TIP3    H119878   5.181   3.831   0.078
 6624TIP3    H219879   5.288   3.793   0.177
 6625TIP3   OH219880   5.413   3.866   1.664
 6625TIP3    H119881   5.357   3.884   1.740
 6625TIP3    H219882   5.356   3.879   1.588
 6626TIP3   OH219883   1.106   2.523   4.717
 6626TIP3    H119884   1.093   2.468   4.640
 6626TIP3    H219885   1.053   2.601   4.701
 6627TIP3   OH219886   3.022   0.428   1.052
 6627TIP3    H119887   3.049   0.520   1.056
 6627TIP3    H219888   3.103   0.379   1.039
 6628TIP3   OH219889   0.558   5.077   3.230
 6628TIP3    H119890   0.613   5.036   3.164
 6628TIP3    H219891   0.619   5.110   3.296
 6629TIP3   OH219892   3.939   4.599   3.549
 6629TIP3    H119893   3.890   4.622   3.628
 6629TIP3    H219894   4.021   4.647   3.557
 6630TIP3   OH219895   0.984   0.640   0.655
 6630TIP3    H119896   0.982   0.695   0.733
 6630TIP3    H219897   0.948   0.556   0.684
 6631TIP3   OH219898   3.655   0.136   1.818
 6631TIP3    H119899   3.671   0.063   1.758
 6631TIP3    H219900   3.726   0.132   1.881
 6632TIP3   OH219901   5.895   4.451   4.969
 6632TIP3    H119902   5.886   4.511   5.043
 6632TIP3    H219903   5.968   4.395   4.994
 6633TIP3   OH219904   2.619   2.778   1.454
 6633TIP3    H119905   2.566   2.818   1.385
 6633TIP3    H219906   2.601   2.832   1.531
 6634TIP3   OH219907   4.237   4.932   4.285
 6634TIP3    H119908   4.300   4.975   4.344
 6634TIP3    H219909   4.162   4.992   4.282
 6635TIP3   OH219910   5.513   2.012   2.198
 6635TIP3    H119911   5.584   1.957   2.166
 6635TIP3    H219912   5.557   2.079   2.252
 6636TIP3   OH219913   1.049   5.285   4.190
 6636TIP3    H119914   1.134   5.304   4.151
 6636TIP3    H219915   1.017   5.208   4.143
 6637TIP3   OH219916   2.880   4.421   0.805
 6637TIP3    H119917   2.812   4.464   0.754
 6637TIP3    H219918   2.962   4.453   0.767
 6638TIP3   OH219919   2.045   5.282   4.386
 6638TIP3    H119920   1.988   5.351   4.419
 6638TIP3    H219921   1.986   5.220   4.343
 6639TIP3   OH219922   5.161   1.783   2.239
 6639TIP3    H119923   5.092   1.828   2.191
 6639TIP3    H219924   5.229   1.765   2.174
 6640TIP3   OH219925   0.568   2.164   2.599
 6640TIP3    H119926   0.492   2.144   2.545
 6640TIP3    H219927   0.638   2.182   2.536
 6641TIP3   OH219928   1.270   4.886   3.928
 6641TIP3    H119929   1.352   4.860   3.971
 6641TIP3    H219930   1.272   4.982   3.930
 6642TIP3   OH219931   0.046   5.789   1.422
 6642TIP3    H119932   0.067   5.868   1.372
 6642TIP3    H219933   0.112   5.725   1.396
 6643TIP3   OH219934   0.540   2.010   3.286
 6643TIP3    H119935   0.485   1.932   3.277
 6643TIP3    H219936   0.600   2.006   3.212
 6644TIP3   OH219937   2.506   2.336   4.297
 6644TIP3    H119938   2.596   2.309   4.278
 6644TIP3    H219939   2.482   2.393   4.224
 6645TIP3   OH219940   3.071   2.881   4.445
 6645TIP3    H119941   3.070   2.789   4.470
 6645TIP3    H219942   2.989   2.917   4.477
   6.34364   5.98084   5.17956   0.00000   0.00000  -2.11455   0.00000  -2.11455  -2.99042
