Title t= 357.00000 step= 178500
19942
    1ASP      N    1   1.176   2.335   3.525
    1ASP    HT1    2   1.186   2.436   3.503
    1ASP    HT2    3   1.164   2.321   3.627
    1ASP    HT3    4   1.090   2.300   3.478
    1ASP     CA    5   1.299   2.270   3.468
    1ASP     HA    6   1.378   2.327   3.514
    1ASP     CB    7   1.293   2.116   3.510
    1ASP    HB1    8   1.207   2.058   3.470
    1ASP    HB2    9   1.311   2.115   3.620
    1ASP     CG   10   1.424   2.049   3.460
    1ASP    OD1   11   1.431   1.933   3.417
    1ASP    OD2   12   1.528   2.118   3.466
    1ASP      C   13   1.301   2.298   3.314
    1ASP      O   14   1.295   2.412   3.266
    2ALA      N   15   1.300   2.195   3.231
    2ALA     HN   16   1.271   2.106   3.267
    2ALA     CA   17   1.311   2.209   3.084
    2ALA     HA   18   1.265   2.302   3.055
    2ALA     CB   19   1.453   2.197   3.025
    2ALA    HB1   20   1.463   2.197   2.915
    2ALA    HB2   21   1.496   2.097   3.047
    2ALA    HB3   22   1.515   2.273   3.078
    2ALA      C   23   1.227   2.101   3.029
    2ALA      O   24   1.209   1.991   3.092
    3ASP      N   25   1.173   2.119   2.908
    3ASP     HN   26   1.181   2.206   2.860
    3ASP     CA   27   1.097   2.011   2.840
    3ASP     HA   28   1.008   2.002   2.902
    3ASP     CB   29   1.045   2.047   2.694
    3ASP    HB1   30   1.002   1.954   2.651
    3ASP    HB2   31   1.132   2.086   2.638
    3ASP     CG   32   0.930   2.146   2.691
    3ASP    OD1   33   0.867   2.163   2.799
    3ASP    OD2   34   0.908   2.194   2.576
    3ASP      C   35   1.166   1.865   2.833
    3ASP      O   36   1.287   1.853   2.845
    4GLY      N   37   1.093   1.753   2.825
    4GLY     HN   38   0.995   1.764   2.833
    4GLY     CA   39   1.151   1.622   2.814
    4GLY    HA1   40   1.068   1.555   2.832
    4GLY    HA2   41   1.216   1.617   2.900
    4GLY      C   42   1.229   1.591   2.689
    4GLY      O   43   1.282   1.678   2.620
    5PRO      N   44   1.241   1.460   2.656
    5PRO     CD   45   1.205   1.349   2.749
    5PRO    HD1   46   1.095   1.333   2.759
    5PRO    HD2   47   1.245   1.377   2.848
    5PRO     CA   48   1.320   1.408   2.543
    5PRO     HA   49   1.427   1.416   2.560
    5PRO     CB   50   1.276   1.256   2.543
    5PRO    HB1   51   1.347   1.186   2.495
    5PRO    HB2   52   1.178   1.248   2.490
    5PRO     CG   53   1.273   1.224   2.695
    5PRO    HG1   54   1.216   1.130   2.710
    5PRO    HG2   55   1.371   1.208   2.746
    5PRO      C   56   1.304   1.481   2.408
    5PRO      O   57   1.191   1.506   2.360
    6GLY      N   58   1.420   1.501   2.343
    6GLY     HN   59   1.505   1.483   2.392
    6GLY     CA   60   1.440   1.550   2.208
    6GLY    HA1   61   1.542   1.578   2.185
    6GLY    HA2   62   1.371   1.632   2.196
    6GLY      C   63   1.393   1.457   2.095
    6GLY      O   64   1.292   1.389   2.108
    7ASP      N   65   1.466   1.456   1.978
    7ASP     HN   66   1.550   1.510   1.970
    7ASP     CA   67   1.449   1.352   1.876
    7ASP     HA   68   1.358   1.365   1.819
    7ASP     CB   69   1.578   1.355   1.793
    7ASP    HB1   70   1.587   1.258   1.739
    7ASP    HB2   71   1.660   1.357   1.868
    7ASP     CG   72   1.586   1.462   1.692
    7ASP    OD1   73   1.479   1.494   1.635
    7ASP    OD2   74   1.693   1.514   1.657
    7ASP      C   75   1.436   1.208   1.927
    7ASP      O   76   1.485   1.186   2.035
    8PRO      N   77   1.376   1.107   1.857
    8PRO     CD   78   1.327   1.118   1.719
    8PRO    HD1   79   1.408   1.099   1.646
    8PRO    HD2   80   1.273   1.213   1.699
    8PRO     CA   81   1.353   0.966   1.914
    8PRO     HA   82   1.284   0.979   1.996
    8PRO     CB   83   1.294   0.892   1.793
    8PRO    HB1   84   1.217   0.824   1.837
    8PRO    HB2   85   1.372   0.842   1.734
    8PRO     CG   86   1.230   1.004   1.712
    8PRO    HG1   87   1.208   0.963   1.611
    8PRO    HG2   88   1.133   1.042   1.750
    8PRO      C   89   1.469   0.897   1.985
    8PRO      O   90   1.456   0.827   2.088
    9ASP      N   91   1.587   0.921   1.930
    9ASP     HN   92   1.583   0.978   1.848
    9ASP     CA   93   1.706   0.859   1.980
    9ASP     HA   94   1.679   0.763   2.022
    9ASP     CB   95   1.793   0.822   1.859
    9ASP    HB1   96   1.893   0.785   1.889
    9ASP    HB2   97   1.813   0.911   1.796
    9ASP     CG   98   1.717   0.715   1.782
    9ASP    OD1   99   1.673   0.747   1.669
    9ASP    OD2  100   1.693   0.596   1.827
    9ASP      C  101   1.783   0.945   2.080
    9ASP      O  102   1.888   0.913   2.140
   10ALA      N  103   1.721   1.057   2.121
   10ALA     HN  104   1.637   1.095   2.082
   10ALA     CA  105   1.760   1.135   2.232
   10ALA     HA  106   1.864   1.119   2.257
   10ALA     CB  107   1.752   1.289   2.222
   10ALA    HB1  108   1.815   1.305   2.131
   10ALA    HB2  109   1.797   1.350   2.303
   10ALA    HB3  110   1.644   1.309   2.205
   10ALA      C  111   1.680   1.098   2.355
   10ALA      O  112   1.556   1.099   2.356
   11GLY      N  113   1.747   1.077   2.466
   11GLY     HN  114   1.846   1.086   2.462
   11GLY     CA  115   1.683   1.050   2.595
   11GLY    HA1  116   1.600   0.982   2.582
   11GLY    HA2  117   1.651   1.148   2.627
   11GLY      C  118   1.776   0.993   2.709
   11GLY    OT1  119   1.754   0.885   2.766
   11GLY    OT2  120   1.882   1.054   2.749
   12LIT    LIT  121   4.751   4.349   1.372
   13LIT    LIT  122   1.371   2.913   0.685
   14LIT    LIT  123   4.503   0.263   4.175
   15LIT    LIT  124   3.295   5.865   4.298
   16LIT    LIT  125   4.915   5.569   3.591
   17LIT    LIT  126   4.837   0.148   3.118
   18LIT    LIT  127   1.610   2.860   3.693
   19LIT    LIT  128   4.788   5.567   1.632
   20LIT    LIT  129   1.579   1.871   3.814
   21LIT    LIT  130   4.651   4.495   1.019
   22LIT    LIT  131   6.311   3.655   2.712
   23LIT    LIT  132   6.153   0.810   1.204
   24LIT    LIT  133   0.903   4.922   4.594
   25LIT    LIT  134   0.274   4.093   2.083
   26LIT    LIT  135   3.869   1.495   4.741
   27LIT    LIT  136   5.476   5.563   4.561
   28LIT    LIT  137   1.617   1.952   3.319
   29LIT    LIT  138   2.040   4.960   2.954
   30LIT    LIT  139   2.059   0.549   4.606
   31LIT    LIT  140   5.082   2.887   2.906
   32LIT    LIT  141   4.310   5.931   1.747
   33LIT    LIT  142   3.822   0.809   0.377
   34CLA    CLA  143   2.400   3.812   2.398
   35CLA    CLA  144   4.790   4.834   2.727
   36CLA    CLA  145   5.004   2.370   2.589
   37CLA    CLA  146   4.864   1.776   3.249
   38CLA    CLA  147   1.804   2.458   3.619
   39CLA    CLA  148   2.938   0.567   1.914
   40CLA    CLA  149   2.164   4.406   0.901
   41CLA    CLA  150   3.488   5.932   5.001
   42CLA    CLA  151   5.355   5.771   0.316
   43CLA    CLA  152   0.553   1.740   4.501
   44CLA    CLA  153   1.160   5.226   0.233
   45CLA    CLA  154   1.064   2.345   3.810
   46CLA    CLA  155   4.048   2.361   3.789
   47CLA    CLA  156   3.918   1.581   4.940
   48CLA    CLA  157   5.242   3.391   0.171
   49CLA    CLA  158   5.542   5.512   1.713
   50CLA    CLA  159   2.939   5.353   1.870
   51CLA    CLA  160   2.350   5.141   0.286
   52TIP3   OH2  161   2.764   1.265   4.448
   52TIP3    H1  162   2.792   1.192   4.393
   52TIP3    H2  163   2.717   1.224   4.521
   53TIP3   OH2  164   0.982   3.231   1.198
   53TIP3    H1  165   1.027   3.183   1.129
   53TIP3    H2  166   1.011   3.322   1.186
   54TIP3   OH2  167   0.413   1.976   3.814
   54TIP3    H1  168   0.494   1.925   3.810
   54TIP3    H2  169   0.363   1.937   3.886
   55TIP3   OH2  170   1.174   0.594   2.010
   55TIP3    H1  171   1.207   0.550   2.088
   55TIP3    H2  172   1.238   0.573   1.941
   56TIP3   OH2  173   5.553   4.360   4.006
   56TIP3    H1  174   5.528   4.338   4.096
   56TIP3    H2  175   5.490   4.312   3.951
   57TIP3   OH2  176   4.370   4.884   3.291
   57TIP3    H1  177   4.465   4.891   3.289
   57TIP3    H2  178   4.340   4.927   3.211
   58TIP3   OH2  179   2.079   4.537   0.384
   58TIP3    H1  180   2.018   4.511   0.453
   58TIP3    H2  181   2.155   4.572   0.431
   59TIP3   OH2  182   0.580   4.162   2.136
   59TIP3    H1  183   0.516   4.223   2.172
   59TIP3    H2  184   0.643   4.149   2.207
   60TIP3   OH2  185   2.154   0.173   5.054
   60TIP3    H1  186   2.175   0.262   5.027
   60TIP3    H2  187   2.171   0.172   5.148
   61TIP3   OH2  188   0.968   5.482   1.085
   61TIP3    H1  189   0.903   5.551   1.075
   61TIP3    H2  190   0.965   5.460   1.178
   62TIP3   OH2  191   4.451   3.615   1.116
   62TIP3    H1  192   4.424   3.526   1.093
   62TIP3    H2  193   4.502   3.645   1.040
   63TIP3   OH2  194   1.149   1.619   0.318
   63TIP3    H1  195   1.201   1.656   0.246
   63TIP3    H2  196   1.099   1.548   0.277
   64TIP3   OH2  197   1.405   5.105   3.189
   64TIP3    H1  198   1.350   5.181   3.207
   64TIP3    H2  199   1.434   5.118   3.099
   65TIP3   OH2  200   4.855   0.587   1.592
   65TIP3    H1  201   4.834   0.582   1.685
   65TIP3    H2  202   4.864   0.496   1.564
   66TIP3   OH2  203   2.257   3.667   4.343
   66TIP3    H1  204   2.191   3.631   4.282
   66TIP3    H2  205   2.239   3.623   4.426
   67TIP3   OH2  206   1.275   0.661   4.373
   67TIP3    H1  207   1.330   0.629   4.444
   67TIP3    H2  208   1.195   0.692   4.417
   68TIP3   OH2  209   4.460   1.110   3.968
   68TIP3    H1  210   4.449   1.147   3.880
   68TIP3    H2  211   4.509   1.029   3.954
   69TIP3   OH2  212   1.902   4.415   0.558
   69TIP3    H1  213   1.814   4.422   0.521
   69TIP3    H2  214   1.892   4.359   0.634
   70TIP3   OH2  215   4.435   1.926   3.654
   70TIP3    H1  216   4.345   1.957   3.646
   70TIP3    H2  217   4.451   1.921   3.748
   71TIP3   OH2  218   5.583   0.309   2.177
   71TIP3    H1  219   5.638   0.279   2.104
   71TIP3    H2  220   5.494   0.304   2.144
   72TIP3   OH2  221   4.820   3.648  -0.036
   72TIP3    H1  222   4.874   3.569  -0.040
   72TIP3    H2  223   4.774   3.641   0.048
   73TIP3   OH2  224   4.541   1.151   0.157
   73TIP3    H1  225   4.500   1.084   0.102
   73TIP3    H2  226   4.508   1.234   0.122
   74TIP3   OH2  227   4.025   0.437   2.853
   74TIP3    H1  228   3.936   0.460   2.829
   74TIP3    H2  229   4.079   0.504   2.812
   75TIP3   OH2  230   4.731   1.853   1.313
   75TIP3    H1  231   4.750   1.790   1.243
   75TIP3    H2  232   4.689   1.926   1.268
   76TIP3   OH2  233   2.505   4.876   4.089
   76TIP3    H1  234   2.497   4.927   4.169
   76TIP3    H2  235   2.535   4.790   4.118
   77TIP3   OH2  236   1.288   2.622   3.782
   77TIP3    H1  237   1.346   2.639   3.855
   77TIP3    H2  238   1.210   2.582   3.822
   78TIP3   OH2  239   5.415   3.152   3.229
   78TIP3    H1  240   5.491   3.179   3.281
   78TIP3    H2  241   5.433   3.184   3.141
   79TIP3   OH2  242   1.649   5.712   1.012
   79TIP3    H1  243   1.557   5.708   0.986
   79TIP3    H2  244   1.690   5.638   0.967
   80TIP3   OH2  245   0.313   5.939   0.476
   80TIP3    H1  246   0.236   5.964   0.426
   80TIP3    H2  247   0.283   5.871   0.536
   81TIP3   OH2  248   3.104   5.855   0.623
   81TIP3    H1  249   3.082   5.901   0.541
   81TIP3    H2  250   3.124   5.766   0.595
   82TIP3   OH2  251   0.006   0.394   2.513
   82TIP3    H1  252   0.095   0.428   2.520
   82TIP3    H2  253  -0.036   0.420   2.595
   83TIP3   OH2  254   5.675   3.384   2.103
   83TIP3    H1  255   5.608   3.428   2.051
   83TIP3    H2  256   5.636   3.300   2.125
   84TIP3   OH2  257   2.158   2.481   2.514
   84TIP3    H1  258   2.144   2.387   2.507
   84TIP3    H2  259   2.185   2.495   2.605
   85TIP3   OH2  260   1.234   2.095   0.933
   85TIP3    H1  261   1.153   2.044   0.931
   85TIP3    H2  262   1.278   2.068   1.014
   86TIP3   OH2  263   2.606   2.860   0.307
   86TIP3    H1  264   2.608   2.767   0.288
   86TIP3    H2  265   2.693   2.892   0.285
   87TIP3   OH2  266   5.030   3.193   0.473
   87TIP3    H1  267   4.971   3.137   0.423
   87TIP3    H2  268   5.069   3.134   0.538
   88TIP3   OH2  269   2.767   1.385   2.086
   88TIP3    H1  270   2.811   1.369   2.170
   88TIP3    H2  271   2.816   1.457   2.046
   89TIP3   OH2  272   2.595   0.512   1.568
   89TIP3    H1  273   2.628   0.503   1.479
   89TIP3    H2  274   2.559   0.600   1.572
   90TIP3   OH2  275   5.618   5.291   1.942
   90TIP3    H1  276   5.578   5.360   1.889
   90TIP3    H2  277   5.667   5.338   2.009
   91TIP3   OH2  278   2.917   2.170   2.331
   91TIP3    H1  279   2.844   2.154   2.392
   91TIP3    H2  280   2.926   2.088   2.282
   92TIP3   OH2  281   0.813   3.270   0.476
   92TIP3    H1  282   0.840   3.359   0.499
   92TIP3    H2  283   0.753   3.244   0.546
   93TIP3   OH2  284   3.330   4.964   2.158
   93TIP3    H1  285   3.322   4.959   2.062
   93TIP3    H2  286   3.351   4.874   2.184
   94TIP3   OH2  287   4.859   3.944   2.845
   94TIP3    H1  288   4.871   4.037   2.827
   94TIP3    H2  289   4.853   3.938   2.940
   95TIP3   OH2  290   3.633   4.253   2.652
   95TIP3    H1  291   3.687   4.312   2.705
   95TIP3    H2  292   3.694   4.188   2.618
   96TIP3   OH2  293   5.829   5.234   1.408
   96TIP3    H1  294   5.757   5.260   1.351
   96TIP3    H2  295   5.789   5.221   1.494
   97TIP3   OH2  296   6.217   2.099   4.600
   97TIP3    H1  297   6.240   2.009   4.578
   97TIP3    H2  298   6.276   2.123   4.671
   98TIP3   OH2  299   3.938   5.137   1.172
   98TIP3    H1  300   3.856   5.158   1.126
   98TIP3    H2  301   3.953   5.045   1.152
   99TIP3   OH2  302   1.745   1.805   2.385
   99TIP3    H1  303   1.676   1.782   2.447
   99TIP3    H2  304   1.815   1.842   2.439
  100TIP3   OH2  305   5.180   5.335   3.127
  100TIP3    H1  306   5.121   5.315   3.200
  100TIP3    H2  307   5.123   5.348   3.052
  101TIP3   OH2  308   4.561   5.661   3.579
  101TIP3    H1  309   4.602   5.693   3.498
  101TIP3    H2  310   4.475   5.629   3.552
  102TIP3   OH2  311   4.956   2.827   4.030
  102TIP3    H1  312   4.948   2.892   4.100
  102TIP3    H2  313   4.872   2.829   3.985
  103TIP3   OH2  314   2.835   0.037   3.509
  103TIP3    H1  315   2.913   0.056   3.458
  103TIP3    H2  316   2.776  -0.007   3.447
  104TIP3   OH2  317   2.330   4.615   1.436
  104TIP3    H1  318   2.386   4.676   1.388
  104TIP3    H2  319   2.242   4.631   1.402
  105TIP3   OH2  320   3.903   1.003   2.948
  105TIP3    H1  321   3.911   0.908   2.952
  105TIP3    H2  322   3.956   1.035   3.021
  106TIP3   OH2  323   0.079   4.404   1.163
  106TIP3    H1  324   0.040   4.469   1.104
  106TIP3    H2  325   0.065   4.440   1.251
  107TIP3   OH2  326   0.341   1.653   3.254
  107TIP3    H1  327   0.373   1.700   3.330
  107TIP3    H2  328   0.267   1.706   3.223
  108TIP3   OH2  329   5.050   2.480   2.895
  108TIP3    H1  330   5.027   2.450   2.807
  108TIP3    H2  331   5.067   2.573   2.884
  109TIP3   OH2  332   5.685   0.354   2.472
  109TIP3    H1  333   5.630   0.356   2.551
  109TIP3    H2  334   5.663   0.435   2.426
  110TIP3   OH2  335   4.774   1.747   4.159
  110TIP3    H1  336   4.718   1.709   4.091
  110TIP3    H2  337   4.769   1.841   4.145
  111TIP3   OH2  338   2.120   3.809   1.989
  111TIP3    H1  339   2.214   3.791   1.999
  111TIP3    H2  340   2.078   3.724   2.000
  112TIP3   OH2  341   4.573   5.640   0.365
  112TIP3    H1  342   4.587   5.693   0.287
  112TIP3    H2  343   4.658   5.637   0.408
  113TIP3   OH2  344   1.057   0.746   1.232
  113TIP3    H1  345   1.056   0.825   1.286
  113TIP3    H2  346   1.148   0.737   1.205
  114TIP3   OH2  347   4.357   1.059   2.939
  114TIP3    H1  348   4.339   1.118   2.866
  114TIP3    H2  349   4.275   1.060   2.990
  115TIP3   OH2  350   3.676   2.678   2.524
  115TIP3    H1  351   3.634   2.679   2.439
  115TIP3    H2  352   3.674   2.586   2.551
  116TIP3   OH2  353   3.305   2.399   2.436
  116TIP3    H1  354   3.216   2.393   2.401
  116TIP3    H2  355   3.317   2.492   2.455
  117TIP3   OH2  356   6.289   0.714   0.344
  117TIP3    H1  357   6.332   0.633   0.318
  117TIP3    H2  358   6.241   0.742   0.266
  118TIP3   OH2  359   4.743   5.608   4.015
  118TIP3    H1  360   4.648   5.602   4.011
  118TIP3    H2  361   4.760   5.702   4.028
  119TIP3   OH2  362   1.078   4.259   1.485
  119TIP3    H1  363   1.011   4.320   1.455
  119TIP3    H2  364   1.074   4.265   1.581
  120TIP3   OH2  365   5.733   1.420   1.875
  120TIP3    H1  366   5.720   1.512   1.851
  120TIP3    H2  367   5.744   1.421   1.970
  121TIP3   OH2  368   5.839   0.256   3.252
  121TIP3    H1  369   5.775   0.295   3.311
  121TIP3    H2  370   5.905   0.217   3.311
  122TIP3   OH2  371   2.108   5.705   1.049
  122TIP3    H1  372   2.196   5.739   1.065
  122TIP3    H2  373   2.083   5.741   0.963
  123TIP3   OH2  374   2.897   2.325   4.179
  123TIP3    H1  375   2.967   2.342   4.116
  123TIP3    H2  376   2.936   2.266   4.243
  124TIP3   OH2  377   5.080   4.648   1.467
  124TIP3    H1  378   4.993   4.628   1.502
  124TIP3    H2  379   5.080   4.744   1.457
  125TIP3   OH2  380   4.098   4.270   1.129
  125TIP3    H1  381   4.130   4.245   1.042
  125TIP3    H2  382   4.069   4.361   1.119
  126TIP3   OH2  383   2.166   0.627   3.067
  126TIP3    H1  384   2.186   0.555   3.008
  126TIP3    H2  385   2.102   0.680   3.019
  127TIP3   OH2  386   4.741   3.052   3.498
  127TIP3    H1  387   4.807   3.113   3.532
  127TIP3    H2  388   4.659   3.083   3.536
  128TIP3   OH2  389   3.277   3.488   0.807
  128TIP3    H1  390   3.268   3.499   0.902
  128TIP3    H2  391   3.189   3.507   0.773
  129TIP3   OH2  392   2.436   1.488   2.291
  129TIP3    H1  393   2.448   1.542   2.369
  129TIP3    H2  394   2.480   1.405   2.312
  130TIP3   OH2  395   5.537   4.653   4.677
  130TIP3    H1  396   5.536   4.746   4.702
  130TIP3    H2  397   5.465   4.614   4.726
  131TIP3   OH2  398   2.174   1.757   5.051
  131TIP3    H1  399   2.080   1.765   5.030
  131TIP3    H2  400   2.214   1.733   4.967
  132TIP3   OH2  401   0.014   3.873   5.008
  132TIP3    H1  402   0.109   3.864   5.000
  132TIP3    H2  403  -0.022   3.820   4.937
  133TIP3   OH2  404   3.111   2.807   3.472
  133TIP3    H1  405   3.096   2.758   3.391
  133TIP3    H2  406   3.120   2.739   3.540
  134TIP3   OH2  407   1.087   3.302   3.954
  134TIP3    H1  408   1.110   3.215   3.988
  134TIP3    H2  409   0.997   3.292   3.920
  135TIP3   OH2  410   1.177   5.430   2.210
  135TIP3    H1  411   1.160   5.446   2.117
  135TIP3    H2  412   1.149   5.511   2.253
  136TIP3   OH2  413   5.687   2.812   3.991
  136TIP3    H1  414   5.640   2.729   4.000
  136TIP3    H2  415   5.619   2.875   3.968
  137TIP3   OH2  416   2.651   3.202   4.636
  137TIP3    H1  417   2.678   3.163   4.720
  137TIP3    H2  418   2.656   3.129   4.574
  138TIP3   OH2  419   0.597   0.483   4.803
  138TIP3    H1  420   0.570   0.393   4.785
  138TIP3    H2  421   0.532   0.538   4.760
  139TIP3   OH2  422   4.146   0.904   3.468
  139TIP3    H1  423   4.164   0.969   3.536
  139TIP3    H2  424   4.152   0.953   3.386
  140TIP3   OH2  425   0.753   0.425   1.085
  140TIP3    H1  426   0.774   0.451   0.995
  140TIP3    H2  427   0.828   0.455   1.137
  141TIP3   OH2  428   3.660   5.886   3.110
  141TIP3    H1  429   3.726   5.916   3.048
  141TIP3    H2  430   3.637   5.798   3.080
  142TIP3   OH2  431   4.762   3.606   4.598
  142TIP3    H1  432   4.781   3.571   4.686
  142TIP3    H2  433   4.742   3.698   4.613
  143TIP3   OH2  434   4.515   0.864   1.833
  143TIP3    H1  435   4.475   0.929   1.890
  143TIP3    H2  436   4.479   0.882   1.746
  144TIP3   OH2  437   1.643   5.312   3.915
  144TIP3    H1  438   1.656   5.276   3.827
  144TIP3    H2  439   1.584   5.386   3.902
  145TIP3   OH2  440   0.429   5.783   5.135
  145TIP3    H1  441   0.392   5.829   5.210
  145TIP3    H2  442   0.524   5.789   5.148
  146TIP3   OH2  443   1.443   4.056   5.053
  146TIP3    H1  444   1.389   4.133   5.037
  146TIP3    H2  445   1.524   4.089   5.090
  147TIP3   OH2  446   5.032   2.762   4.468
  147TIP3    H1  447   5.119   2.778   4.432
  147TIP3    H2  448   5.040   2.784   4.561
  148TIP3   OH2  449   5.559   4.265   3.081
  148TIP3    H1  450   5.566   4.195   3.016
  148TIP3    H2  451   5.643   4.265   3.126
  149TIP3   OH2  452   6.083   2.482   2.969
  149TIP3    H1  453   6.124   2.413   3.021
  149TIP3    H2  454   5.993   2.486   3.001
  150TIP3   OH2  455   1.434   0.375   3.447
  150TIP3    H1  456   1.360   0.397   3.390
  150TIP3    H2  457   1.396   0.372   3.535
  151TIP3   OH2  458   4.155   0.830   2.127
  151TIP3    H1  459   4.172   0.886   2.051
  151TIP3    H2  460   4.073   0.786   2.106
  152TIP3   OH2  461   1.442   0.901   0.605
  152TIP3    H1  462   1.472   0.943   0.525
  152TIP3    H2  463   1.417   0.973   0.662
  153TIP3   OH2  464   5.669   0.491   4.126
  153TIP3    H1  465   5.609   0.561   4.099
  153TIP3    H2  466   5.707   0.460   4.044
  154TIP3   OH2  467   1.467   4.569   3.997
  154TIP3    H1  468   1.550   4.522   3.989
  154TIP3    H2  469   1.487   4.658   3.968
  155TIP3   OH2  470   3.330   4.570   0.408
  155TIP3    H1  471   3.243   4.611   0.407
  155TIP3    H2  472   3.383   4.628   0.462
  156TIP3   OH2  473   0.108   4.070   1.952
  156TIP3    H1  474   0.057   3.991   1.934
  156TIP3    H2  475   0.043   4.141   1.953
  157TIP3   OH2  476   2.454   3.484   2.406
  157TIP3    H1  477   2.415   3.571   2.415
  157TIP3    H2  478   2.433   3.439   2.488
  158TIP3   OH2  479   5.805   3.044   0.574
  158TIP3    H1  480   5.807   3.002   0.488
  158TIP3    H2  481   5.718   3.025   0.608
  159TIP3   OH2  482   4.730   3.445   4.390
  159TIP3    H1  483   4.747   3.498   4.468
  159TIP3    H2  484   4.802   3.383   4.386
  160TIP3   OH2  485   1.722   3.415   1.765
  160TIP3    H1  486   1.791   3.411   1.699
  160TIP3    H2  487   1.763   3.458   1.840
  161TIP3   OH2  488   3.863   1.370   2.393
  161TIP3    H1  489   3.948   1.326   2.404
  161TIP3    H2  490   3.872   1.420   2.312
  162TIP3   OH2  491   6.151   0.576   3.314
  162TIP3    H1  492   6.078   0.559   3.255
  162TIP3    H2  493   6.176   0.667   3.296
  163TIP3   OH2  494   2.010   2.631   3.798
  163TIP3    H1  495   1.987   2.598   3.885
  163TIP3    H2  496   1.951   2.585   3.739
  164TIP3   OH2  497   0.110   0.611   3.062
  164TIP3    H1  498   0.168   0.609   3.137
  164TIP3    H2  499   0.046   0.542   3.078
  165TIP3   OH2  500   2.865   1.094   1.619
  165TIP3    H1  501   2.911   1.014   1.595
  165TIP3    H2  502   2.911   1.126   1.697
  166TIP3   OH2  503   3.353   2.287   4.985
  166TIP3    H1  504   3.408   2.360   4.955
  166TIP3    H2  505   3.413   2.212   4.989
  167TIP3   OH2  506   1.306   0.654   4.871
  167TIP3    H1  507   1.284   0.572   4.915
  167TIP3    H2  508   1.221   0.694   4.851
  168TIP3   OH2  509   5.731   2.394   3.764
  168TIP3    H1  510   5.677   2.446   3.823
  168TIP3    H2  511   5.695   2.411   3.677
  169TIP3   OH2  512   1.164   5.850   3.950
  169TIP3    H1  513   1.153   5.765   3.994
  169TIP3    H2  514   1.192   5.909   4.019
  170TIP3   OH2  515   5.748   3.952   3.286
  170TIP3    H1  516   5.714   3.880   3.234
  170TIP3    H2  517   5.829   3.979   3.242
  171TIP3   OH2  518   4.545   5.845   1.171
  171TIP3    H1  519   4.636   5.857   1.198
  171TIP3    H2  520   4.550   5.794   1.091
  172TIP3   OH2  521   2.155   3.533   3.943
  172TIP3    H1  522   2.251   3.528   3.940
  172TIP3    H2  523   2.136   3.627   3.935
  173TIP3   OH2  524   2.684   0.888   1.520
  173TIP3    H1  525   2.748   0.834   1.473
  173TIP3    H2  526   2.737   0.957   1.561
  174TIP3   OH2  527   4.331   0.847   2.666
  174TIP3    H1  528   4.290   0.927   2.633
  174TIP3    H2  529   4.401   0.829   2.602
  175TIP3   OH2  530   0.868   5.231   5.038
  175TIP3    H1  531   0.862   5.323   5.063
  175TIP3    H2  532   0.930   5.230   4.965
  176TIP3   OH2  533   0.085   3.455   4.108
  176TIP3    H1  534   0.135   3.464   4.188
  176TIP3    H2  535   0.000   3.493   4.128
  177TIP3   OH2  536   2.422   0.880   5.135
  177TIP3    H1  537   2.425   0.872   5.040
  177TIP3    H2  538   2.407   0.791   5.167
  178TIP3   OH2  539   2.295   3.320   3.214
  178TIP3    H1  540   2.221   3.327   3.153
  178TIP3    H2  541   2.283   3.392   3.275
  179TIP3   OH2  542   5.002   5.866   1.044
  179TIP3    H1  543   4.985   5.957   1.023
  179TIP3    H2  544   5.096   5.863   1.062
  180TIP3   OH2  545   4.642   1.184   0.440
  180TIP3    H1  546   4.730   1.161   0.409
  180TIP3    H2  547   4.584   1.155   0.371
  181TIP3   OH2  548   6.260   4.297   2.000
  181TIP3    H1  549   6.285   4.248   2.078
  181TIP3    H2  550   6.194   4.359   2.030
  182TIP3   OH2  551   2.856   5.011   0.115
  182TIP3    H1  552   2.875   4.958   0.193
  182TIP3    H2  553   2.763   4.995   0.099
  183TIP3   OH2  554   6.092   5.504   2.422
  183TIP3    H1  555   6.086   5.593   2.388
  183TIP3    H2  556   6.146   5.512   2.501
  184TIP3   OH2  557   6.134   4.482   0.570
  184TIP3    H1  558   6.169   4.482   0.481
  184TIP3    H2  559   6.131   4.574   0.596
  185TIP3   OH2  560   1.491   0.257   4.182
  185TIP3    H1  561   1.480   0.253   4.277
  185TIP3    H2  562   1.439   0.185   4.148
  186TIP3   OH2  563   3.527   5.202   2.449
  186TIP3    H1  564   3.474   5.200   2.369
  186TIP3    H2  565   3.491   5.275   2.500
  187TIP3   OH2  566   0.622   0.209   1.301
  187TIP3    H1  567   0.629   0.214   1.206
  187TIP3    H2  568   0.711   0.194   1.332
  188TIP3   OH2  569   3.393   0.146   2.533
  188TIP3    H1  570   3.342   0.157   2.452
  188TIP3    H2  571   3.348   0.200   2.598
  189TIP3   OH2  572   2.704   1.959   0.880
  189TIP3    H1  573   2.747   2.012   0.948
  189TIP3    H2  574   2.643   2.019   0.838
  190TIP3   OH2  575   5.307   1.264   0.878
  190TIP3    H1  576   5.376   1.207   0.914
  190TIP3    H2  577   5.226   1.214   0.889
  191TIP3   OH2  578   6.084   2.966   3.148
  191TIP3    H1  579   6.159   2.932   3.099
  191TIP3    H2  580   6.120   2.987   3.234
  192TIP3   OH2  581   5.343   1.274   4.432
  192TIP3    H1  582   5.301   1.350   4.393
  192TIP3    H2  583   5.383   1.309   4.512
  193TIP3   OH2  584   5.026   5.820   4.731
  193TIP3    H1  585   4.992   5.874   4.661
  193TIP3    H2  586   5.082   5.879   4.782
  194TIP3   OH2  587   3.315   5.837   3.609
  194TIP3    H1  588   3.401   5.877   3.599
  194TIP3    H2  589   3.289   5.813   3.521
  195TIP3   OH2  590   3.727   1.500   0.711
  195TIP3    H1  591   3.671   1.422   0.703
  195TIP3    H2  592   3.807   1.468   0.753
  196TIP3   OH2  593   3.380   5.180   4.056
  196TIP3    H1  594   3.342   5.235   4.125
  196TIP3    H2  595   3.425   5.111   4.103
  197TIP3   OH2  596   1.546   2.663   5.173
  197TIP3    H1  597   1.616   2.683   5.111
  197TIP3    H2  598   1.528   2.570   5.158
  198TIP3   OH2  599   4.734   5.910   1.819
  198TIP3    H1  600   4.756   5.973   1.751
  198TIP3    H2  601   4.690   5.962   1.887
  199TIP3   OH2  602   2.304   3.660   4.976
  199TIP3    H1  603   2.212   3.678   4.998
  199TIP3    H2  604   2.299   3.602   4.900
  200TIP3   OH2  605   0.712   4.015   0.991
  200TIP3    H1  606   0.769   3.952   0.947
  200TIP3    H2  607   0.726   4.098   0.945
  201TIP3   OH2  608   6.094   4.488   3.698
  201TIP3    H1  609   6.038   4.540   3.755
  201TIP3    H2  610   6.164   4.456   3.755
  202TIP3   OH2  611   2.355   5.229   4.446
  202TIP3    H1  612   2.421   5.291   4.414
  202TIP3    H2  613   2.377   5.146   4.403
  203TIP3   OH2  614   1.823   3.001   4.572
  203TIP3    H1  615   1.776   3.063   4.516
  203TIP3    H2  616   1.753   2.946   4.609
  204TIP3   OH2  617   0.337   3.891   2.440
  204TIP3    H1  618   0.354   3.800   2.416
  204TIP3    H2  619   0.393   3.907   2.516
  205TIP3   OH2  620   3.363   5.960   0.573
  205TIP3    H1  621   3.424   5.887   0.581
  205TIP3    H2  622   3.277   5.922   0.590
  206TIP3   OH2  623   3.080   1.593   4.266
  206TIP3    H1  624   3.151   1.655   4.284
  206TIP3    H2  625   3.085   1.529   4.337
  207TIP3   OH2  626   3.110   0.099   0.918
  207TIP3    H1  627   3.111   0.041   0.994
  207TIP3    H2  628   3.018   0.104   0.893
  208TIP3   OH2  629   2.941   3.357   4.237
  208TIP3    H1  630   2.903   3.297   4.173
  208TIP3    H2  631   2.991   3.301   4.297
  209TIP3   OH2  632   3.582   5.471   2.764
  209TIP3    H1  633   3.669   5.457   2.727
  209TIP3    H2  634   3.524   5.470   2.688
  210TIP3   OH2  635   3.129   2.152   1.910
  210TIP3    H1  636   3.181   2.219   1.953
  210TIP3    H2  637   3.192   2.100   1.860
  211TIP3   OH2  638   5.568   3.828   2.046
  211TIP3    H1  639   5.627   3.796   2.114
  211TIP3    H2  640   5.536   3.749   2.003
  212TIP3   OH2  641   2.015   5.126   0.965
  212TIP3    H1  642   1.953   5.124   0.892
  212TIP3    H2  643   1.970   5.176   1.033
  213TIP3   OH2  644   5.991   5.652   5.173
  213TIP3    H1  645   6.056   5.585   5.198
  213TIP3    H2  646   6.024   5.689   5.091
  214TIP3   OH2  647   2.632   3.972   4.199
  214TIP3    H1  648   2.613   3.895   4.145
  214TIP3    H2  649   2.726   3.984   4.191
  215TIP3   OH2  650   5.580   2.192   3.849
  215TIP3    H1  651   5.509   2.212   3.788
  215TIP3    H2  652   5.651   2.252   3.823
  216TIP3   OH2  653   4.542   0.876   2.273
  216TIP3    H1  654   4.560   0.943   2.339
  216TIP3    H2  655   4.597   0.901   2.198
  217TIP3   OH2  656   3.911   2.600   1.485
  217TIP3    H1  657   3.855   2.522   1.481
  217TIP3    H2  658   3.881   2.654   1.412
  218TIP3   OH2  659   2.251   3.634   3.312
  218TIP3    H1  660   2.238   3.622   3.406
  218TIP3    H2  661   2.346   3.631   3.300
  219TIP3   OH2  662   3.358   4.472   0.794
  219TIP3    H1  663   3.284   4.489   0.852
  219TIP3    H2  664   3.317   4.438   0.714
  220TIP3   OH2  665   4.563   3.650   3.967
  220TIP3    H1  666   4.528   3.563   3.944
  220TIP3    H2  667   4.627   3.668   3.899
  221TIP3   OH2  668   4.713   4.047   0.059
  221TIP3    H1  669   4.652   3.973   0.061
  221TIP3    H2  670   4.724   4.071   0.151
  222TIP3   OH2  671   4.258   3.905   0.797
  222TIP3    H1  672   4.172   3.935   0.827
  222TIP3    H2  673   4.239   3.849   0.721
  223TIP3   OH2  674   6.027   3.475   3.712
  223TIP3    H1  675   5.989   3.547   3.763
  223TIP3    H2  676   6.064   3.416   3.777
  224TIP3   OH2  677   5.414   2.408   1.329
  224TIP3    H1  678   5.397   2.499   1.354
  224TIP3    H2  679   5.346   2.387   1.265
  225TIP3   OH2  680   3.484   3.439   0.315
  225TIP3    H1  681   3.419   3.405   0.376
  225TIP3    H2  682   3.449   3.417   0.228
  226TIP3   OH2  683   4.994   3.749   2.688
  226TIP3    H1  684   4.952   3.811   2.748
  226TIP3    H2  685   5.004   3.669   2.740
  227TIP3   OH2  686   1.292   2.542   2.932
  227TIP3    H1  687   1.387   2.534   2.943
  227TIP3    H2  688   1.271   2.475   2.867
  228TIP3   OH2  689   3.489   0.231   4.498
  228TIP3    H1  690   3.395   0.246   4.488
  228TIP3    H2  691   3.496   0.142   4.532
  229TIP3   OH2  692   3.191   4.216   3.263
  229TIP3    H1  693   3.123   4.198   3.328
  229TIP3    H2  694   3.273   4.202   3.309
  230TIP3   OH2  695   0.211   1.013   1.717
  230TIP3    H1  696   0.224   1.068   1.795
  230TIP3    H2  697   0.218   0.923   1.750
  231TIP3   OH2  698   5.921   5.800   3.496
  231TIP3    H1  699   5.890   5.710   3.505
  231TIP3    H2  700   6.014   5.792   3.478
  232TIP3   OH2  701   2.839   2.648   2.745
  232TIP3    H1  702   2.891   2.693   2.812
  232TIP3    H2  703   2.773   2.712   2.718
  233TIP3   OH2  704   0.736   1.362   1.401
  233TIP3    H1  705   0.674   1.332   1.468
  233TIP3    H2  706   0.774   1.282   1.365
  234TIP3   OH2  707   3.130   3.550   4.235
  234TIP3    H1  708   3.063   3.490   4.267
  234TIP3    H2  709   3.089   3.636   4.238
  235TIP3   OH2  710   0.047   3.390   3.427
  235TIP3    H1  711   0.050   3.388   3.331
  235TIP3    H2  712   0.037   3.298   3.452
  236TIP3   OH2  713   2.041   5.145   1.315
  236TIP3    H1  714   2.059   5.084   1.243
  236TIP3    H2  715   1.988   5.214   1.275
  237TIP3   OH2  716   2.610   5.747   0.189
  237TIP3    H1  717   2.668   5.727   0.115
  237TIP3    H2  718   2.550   5.673   0.194
  238TIP3   OH2  719   5.778   5.795   3.175
  238TIP3    H1  720   5.852   5.737   3.160
  238TIP3    H2  721   5.817   5.881   3.193
  239TIP3   OH2  722   2.631   0.298   2.922
  239TIP3    H1  723   2.602   0.310   2.832
  239TIP3    H2  724   2.645   0.203   2.930
  240TIP3   OH2  725   4.926   0.086   3.716
  240TIP3    H1  726   4.950   0.095   3.808
  240TIP3    H2  727   5.009   0.089   3.669
  241TIP3   OH2  728   3.691   4.677   1.692
  241TIP3    H1  729   3.639   4.757   1.692
  241TIP3    H2  730   3.772   4.700   1.648
  242TIP3   OH2  731   2.789   4.171   2.900
  242TIP3    H1  732   2.856   4.155   2.833
  242TIP3    H2  733   2.707   4.173   2.851
  243TIP3   OH2  734   5.280   5.568   1.269
  243TIP3    H1  735   5.311   5.632   1.205
  243TIP3    H2  736   5.230   5.505   1.217
  244TIP3   OH2  737   3.513   2.665   3.823
  244TIP3    H1  738   3.480   2.728   3.887
  244TIP3    H2  739   3.467   2.583   3.844
  245TIP3   OH2  740   3.502   1.801   3.459
  245TIP3    H1  741   3.415   1.835   3.480
  245TIP3    H2  742   3.556   1.879   3.443
  246TIP3   OH2  743   1.115   4.575   1.506
  246TIP3    H1  744   1.158   4.631   1.571
  246TIP3    H2  745   1.042   4.536   1.553
  247TIP3   OH2  746   4.450   2.536   2.917
  247TIP3    H1  747   4.461   2.476   2.990
  247TIP3    H2  748   4.500   2.497   2.845
  248TIP3   OH2  749   3.943   4.051   2.092
  248TIP3    H1  750   3.909   4.073   2.005
  248TIP3    H2  751   3.867   4.020   2.141
  249TIP3   OH2  752   1.302   3.037   4.967
  249TIP3    H1  753   1.316   2.947   4.936
  249TIP3    H2  754   1.386   3.081   4.951
  250TIP3   OH2  755   4.033   4.663   0.474
  250TIP3    H1  756   4.072   4.668   0.561
  250TIP3    H2  757   3.942   4.691   0.486
  251TIP3   OH2  758   5.894   5.605   0.166
  251TIP3    H1  759   5.825   5.646   0.114
  251TIP3    H2  760   5.966   5.591   0.104
  252TIP3   OH2  761   4.696   5.110   3.889
  252TIP3    H1  762   4.773   5.065   3.853
  252TIP3    H2  763   4.646   5.136   3.812
  253TIP3   OH2  764   1.112   1.266   0.412
  253TIP3    H1  765   1.083   1.321   0.339
  253TIP3    H2  766   1.204   1.287   0.424
  254TIP3   OH2  767   1.097   4.452   0.913
  254TIP3    H1  768   1.168   4.499   0.871
  254TIP3    H2  769   1.049   4.411   0.842
  255TIP3   OH2  770   4.304   2.587   4.396
  255TIP3    H1  771   4.235   2.651   4.412
  255TIP3    H2  772   4.258   2.508   4.367
  256TIP3   OH2  773   0.684   0.997   3.646
  256TIP3    H1  774   0.772   0.996   3.610
  256TIP3    H2  775   0.674   0.911   3.686
  257TIP3   OH2  776   0.984   1.706   1.712
  257TIP3    H1  777   0.943   1.791   1.729
  257TIP3    H2  778   0.977   1.694   1.618
  258TIP3   OH2  779   5.264   1.873   2.718
  258TIP3    H1  780   5.254   1.968   2.725
  258TIP3    H2  781   5.194   1.846   2.659
  259TIP3   OH2  782   0.318   1.133   1.945
  259TIP3    H1  783   0.378   1.206   1.961
  259TIP3    H2  784   0.248   1.145   2.009
  260TIP3   OH2  785   4.142   5.896   3.858
  260TIP3    H1  786   4.083   5.862   3.791
  260TIP3    H2  787   4.216   5.835   3.859
  261TIP3   OH2  788   3.363   0.650   2.206
  261TIP3    H1  789   3.329   0.599   2.280
  261TIP3    H2  790   3.445   0.606   2.183
  262TIP3   OH2  791   2.795   2.783   4.130
  262TIP3    H1  792   2.884   2.752   4.147
  262TIP3    H2  793   2.739   2.710   4.157
  263TIP3   OH2  794   3.941   2.853   4.428
  263TIP3    H1  795   3.915   2.827   4.340
  263TIP3    H2  796   3.896   2.791   4.486
  264TIP3   OH2  797   0.298   2.311   4.487
  264TIP3    H1  798   0.340   2.236   4.446
  264TIP3    H2  799   0.320   2.385   4.429
  265TIP3   OH2  800   5.761   5.968   5.095
  265TIP3    H1  801   5.751   6.053   5.138
  265TIP3    H2  802   5.813   5.916   5.156
  266TIP3   OH2  803   2.347   3.352   4.806
  266TIP3    H1  804   2.259   3.314   4.809
  266TIP3    H2  805   2.389   3.323   4.887
  267TIP3   OH2  806   2.270   5.382   2.203
  267TIP3    H1  807   2.245   5.464   2.161
  267TIP3    H2  808   2.354   5.401   2.244
  268TIP3   OH2  809   1.911   1.517   2.542
  268TIP3    H1  810   1.939   1.431   2.575
  268TIP3    H2  811   1.991   1.570   2.543
  269TIP3   OH2  812   4.558   1.954   2.822
  269TIP3    H1  813   4.566   1.976   2.915
  269TIP3    H2  814   4.509   2.028   2.784
  270TIP3   OH2  815   5.460   5.381   2.312
  270TIP3    H1  816   5.369   5.395   2.340
  270TIP3    H2  817   5.469   5.435   2.233
  271TIP3   OH2  818   0.877   2.678   4.833
  271TIP3    H1  819   0.894   2.763   4.792
  271TIP3    H2  820   0.785   2.681   4.857
  272TIP3   OH2  821   1.528   4.030   3.953
  272TIP3    H1  822   1.474   3.989   4.021
  272TIP3    H2  823   1.591   4.084   4.001
  273TIP3   OH2  824   0.183   4.493   0.302
  273TIP3    H1  825   0.130   4.415   0.311
  273TIP3    H2  826   0.120   4.565   0.293
  274TIP3   OH2  827   3.828   3.098   0.627
  274TIP3    H1  828   3.748   3.151   0.619
  274TIP3    H2  829   3.865   3.098   0.538
  275TIP3   OH2  830   0.727   5.033   3.556
  275TIP3    H1  831   0.725   4.974   3.631
  275TIP3    H2  832   0.643   5.018   3.511
  276TIP3   OH2  833   4.134   4.129   3.723
  276TIP3    H1  834   4.100   4.174   3.646
  276TIP3    H2  835   4.077   4.053   3.734
  277TIP3   OH2  836   6.023   3.594   3.365
  277TIP3    H1  837   6.084   3.615   3.436
  277TIP3    H2  838   6.076   3.552   3.298
  278TIP3   OH2  839   0.540   4.125   1.552
  278TIP3    H1  840   0.564   4.110   1.461
  278TIP3    H2  841   0.624   4.133   1.598
  279TIP3   OH2  842   4.869   1.081   2.326
  279TIP3    H1  843   4.862   1.033   2.408
  279TIP3    H2  844   4.963   1.095   2.313
  280TIP3   OH2  845   1.380   1.097   1.007
  280TIP3    H1  846   1.414   1.011   0.983
  280TIP3    H2  847   1.335   1.128   0.929
  281TIP3   OH2  848   4.096   4.270   3.513
  281TIP3    H1  849   4.170   4.322   3.545
  281TIP3    H2  850   4.068   4.313   3.433
  282TIP3   OH2  851   1.492   2.821   3.539
  282TIP3    H1  852   1.460   2.747   3.486
  282TIP3    H2  853   1.460   2.898   3.492
  283TIP3   OH2  854   0.494   2.259   5.098
  283TIP3    H1  855   0.413   2.272   5.149
  283TIP3    H2  856   0.484   2.173   5.059
  284TIP3   OH2  857   1.589   1.681   1.131
  284TIP3    H1  858   1.541   1.691   1.213
  284TIP3    H2  859   1.678   1.657   1.158
  285TIP3   OH2  860   4.700   4.315   1.980
  285TIP3    H1  861   4.747   4.269   1.911
  285TIP3    H2  862   4.608   4.305   1.956
  286TIP3   OH2  863   3.986   0.351   2.292
  286TIP3    H1  864   4.019   0.296   2.221
  286TIP3    H2  865   3.891   0.338   2.291
  287TIP3   OH2  866   4.490   5.691   3.152
  287TIP3    H1  867   4.532   5.747   3.087
  287TIP3    H2  868   4.527   5.719   3.235
  288TIP3   OH2  869   5.452   1.624   2.995
  288TIP3    H1  870   5.368   1.664   3.017
  288TIP3    H2  871   5.450   1.614   2.900
  289TIP3   OH2  872   4.252   5.357   0.443
  289TIP3    H1  873   4.207   5.301   0.379
  289TIP3    H2  874   4.243   5.445   0.408
  290TIP3   OH2  875   3.391   0.918   2.838
  290TIP3    H1  876   3.359   0.981   2.903
  290TIP3    H2  877   3.486   0.923   2.845
  291TIP3   OH2  878   2.585   0.365   1.882
  291TIP3    H1  879   2.498   0.326   1.892
  291TIP3    H2  880   2.580   0.416   1.801
  292TIP3   OH2  881   1.284   2.211   5.040
  292TIP3    H1  882   1.250   2.145   4.979
  292TIP3    H2  883   1.378   2.214   5.023
  293TIP3   OH2  884   0.941   3.742   3.354
  293TIP3    H1  885   0.857   3.751   3.398
  293TIP3    H2  886   0.952   3.648   3.341
  294TIP3   OH2  887   4.170   5.582   2.764
  294TIP3    H1  888   4.110   5.623   2.702
  294TIP3    H2  889   4.214   5.655   2.807
  295TIP3   OH2  890   3.388   1.226   0.051
  295TIP3    H1  891   3.397   1.283  -0.025
  295TIP3    H2  892   3.343   1.148   0.018
  296TIP3   OH2  893   0.043   4.313   2.782
  296TIP3    H1  894  -0.002   4.326   2.865
  296TIP3    H2  895   0.003   4.378   2.723
  297TIP3   OH2  896   2.057   2.880   0.686
  297TIP3    H1  897   2.067   2.935   0.608
  297TIP3    H2  898   2.052   2.791   0.653
  298TIP3   OH2  899   0.226   2.066   1.605
  298TIP3    H1  900   0.162   2.025   1.663
  298TIP3    H2  901   0.285   2.113   1.665
  299TIP3   OH2  902   1.626   4.090   1.270
  299TIP3    H1  903   1.620   4.175   1.225
  299TIP3    H2  904   1.582   4.104   1.354
  300TIP3   OH2  905   2.766   5.278   1.437
  300TIP3    H1  906   2.700   5.345   1.419
  300TIP3    H2  907   2.784   5.238   1.352
  301TIP3   OH2  908   4.724   4.783   1.343
  301TIP3    H1  909   4.797   4.833   1.380
  301TIP3    H2  910   4.646   4.821   1.383
  302TIP3   OH2  911   3.526   5.775   2.676
  302TIP3    H1  912   3.595   5.744   2.618
  302TIP3    H2  913   3.542   5.729   2.759
  303TIP3   OH2  914   1.772   5.534   4.055
  303TIP3    H1  915   1.703   5.599   4.037
  303TIP3    H2  916   1.734   5.451   4.026
  304TIP3   OH2  917   0.300   5.561   4.018
  304TIP3    H1  918   0.228   5.498   4.012
  304TIP3    H2  919   0.257   5.645   4.031
  305TIP3   OH2  920   2.617   1.984   4.720
  305TIP3    H1  921   2.709   2.002   4.740
  305TIP3    H2  922   2.579   1.955   4.803
  306TIP3   OH2  923   0.859   5.870   2.599
  306TIP3    H1  924   0.828   5.950   2.640
  306TIP3    H2  925   0.852   5.804   2.668
  307TIP3   OH2  926   3.706   0.923   4.338
  307TIP3    H1  927   3.721   0.862   4.410
  307TIP3    H2  928   3.782   0.912   4.281
  308TIP3   OH2  929   4.119   5.930   4.958
  308TIP3    H1  930   4.097   6.021   4.978
  308TIP3    H2  931   4.093   5.918   4.866
  309TIP3   OH2  932   3.929   5.137   1.487
  309TIP3    H1  933   3.972   5.170   1.408
  309TIP3    H2  934   3.847   5.100   1.456
  310TIP3   OH2  935   4.512   5.460   4.559
  310TIP3    H1  936   4.585   5.514   4.528
  310TIP3    H2  937   4.530   5.447   4.652
  311TIP3   OH2  938   3.012   5.575   3.505
  311TIP3    H1  939   3.105   5.554   3.511
  311TIP3    H2  940   2.989   5.557   3.414
  312TIP3   OH2  941   1.285   3.716   1.970
  312TIP3    H1  942   1.240   3.676   1.896
  312TIP3    H2  943   1.330   3.643   2.012
  313TIP3   OH2  944   5.124   3.859   1.150
  313TIP3    H1  945   5.138   3.874   1.056
  313TIP3    H2  946   5.170   3.777   1.168
  314TIP3   OH2  947   0.814   1.478   2.729
  314TIP3    H1  948   0.851   1.488   2.642
  314TIP3    H2  949   0.764   1.397   2.725
  315TIP3   OH2  950   0.697   1.725   0.222
  315TIP3    H1  951   0.637   1.662   0.263
  315TIP3    H2  952   0.775   1.723   0.277
  316TIP3   OH2  953   1.385   4.403   0.362
  316TIP3    H1  954   1.300   4.418   0.321
  316TIP3    H2  955   1.379   4.448   0.446
  317TIP3   OH2  956   5.540   2.908   4.997
  317TIP3    H1  957   5.622   2.956   5.010
  317TIP3    H2  958   5.496   2.913   5.082
  318TIP3   OH2  959   2.704   5.545   2.929
  318TIP3    H1  960   2.731   5.571   3.017
  318TIP3    H2  961   2.656   5.463   2.943
  319TIP3   OH2  962   0.591   5.784   2.793
  319TIP3    H1  963   0.553   5.849   2.852
  319TIP3    H2  964   0.685   5.787   2.812
  320TIP3   OH2  965   2.424   1.361   5.137
  320TIP3    H1  966   2.376   1.421   5.080
  320TIP3    H2  967   2.375   1.279   5.132
  321TIP3   OH2  968   3.648   4.128   4.704
  321TIP3    H1  969   3.584   4.081   4.651
  321TIP3    H2  970   3.621   4.220   4.700
  322TIP3   OH2  971   6.234   2.841   4.748
  322TIP3    H1  972   6.206   2.925   4.784
  322TIP3    H2  973   6.199   2.776   4.809
  323TIP3   OH2  974   4.369   1.393   4.014
  323TIP3    H1  975   4.373   1.444   3.933
  323TIP3    H2  976   4.377   1.302   3.985
  324TIP3   OH2  977   0.474   5.916   0.235
  324TIP3    H1  978   0.437   5.904   0.322
  324TIP3    H2  979   0.463   5.831   0.192
  325TIP3   OH2  980   2.012   1.342   4.626
  325TIP3    H1  981   2.073   1.410   4.655
  325TIP3    H2  982   2.002   1.358   4.532
  326TIP3   OH2  983   2.402   1.354   3.883
  326TIP3    H1  984   2.460   1.426   3.907
  326TIP3    H2  985   2.373   1.317   3.967
  327TIP3   OH2  986   0.638   2.685   4.368
  327TIP3    H1  987   0.555   2.636   4.371
  327TIP3    H2  988   0.698   2.634   4.422
  328TIP3   OH2  989   6.295   0.065   0.665
  328TIP3    H1  990   6.309   0.015   0.746
  328TIP3    H2  991   6.320   0.155   0.687
  329TIP3   OH2  992   2.024   2.042   0.136
  329TIP3    H1  993   2.066   2.092   0.065
  329TIP3    H2  994   1.932   2.069   0.132
  330TIP3   OH2  995   3.682   2.399   3.038
  330TIP3    H1  996   3.714   2.323   3.088
  330TIP3    H2  997   3.731   2.473   3.073
  331TIP3   OH2  998   2.770   4.380   3.093
  331TIP3    H1  999   2.778   4.337   3.178
  331TIP3    H2 1000   2.769   4.308   3.030
  332TIP3   OH2 1001   3.720   2.329   0.648
  332TIP3    H1 1002   3.752   2.244   0.679
  332TIP3    H2 1003   3.706   2.380   0.728
  333TIP3   OH2 1004   4.383   1.319   2.329
  333TIP3    H1 1005   4.369   1.397   2.276
  333TIP3    H2 1006   4.473   1.292   2.311
  334TIP3   OH2 1007   1.182   5.363   0.502
  334TIP3    H1 1008   1.206   5.296   0.566
  334TIP3    H2 1009   1.182   5.317   0.418
  335TIP3   OH2 1010   0.686   0.384   3.958
  335TIP3    H1 1011   0.737   0.451   3.912
  335TIP3    H2 1012   0.743   0.308   3.962
  336TIP3   OH2 1013   1.999   4.801   2.829
  336TIP3    H1 1014   1.993   4.812   2.734
  336TIP3    H2 1015   2.020   4.709   2.842
  337TIP3   OH2 1016   1.416   3.190   0.043
  337TIP3    H1 1017   1.498   3.144   0.061
  337TIP3    H2 1018   1.363   3.125  -0.004
  338TIP3   OH2 1019   3.754   2.934   3.771
  338TIP3    H1 1020   3.773   3.020   3.735
  338TIP3    H2 1021   3.768   2.874   3.697
  339TIP3   OH2 1022   2.715   1.193   2.687
  339TIP3    H1 1023   2.770   1.115   2.689
  339TIP3    H2 1024   2.627   1.161   2.669
  340TIP3   OH2 1025   6.187   0.299   0.961
  340TIP3    H1 1026   6.225   0.312   1.048
  340TIP3    H2 1027   6.164   0.206   0.959
  341TIP3   OH2 1028   1.735   0.506   2.998
  341TIP3    H1 1029   1.662   0.527   2.939
  341TIP3    H2 1030   1.725   0.413   3.016
  342TIP3   OH2 1031   1.823   1.424   1.458
  342TIP3    H1 1032   1.795   1.450   1.546
  342TIP3    H2 1033   1.840   1.506   1.412
  343TIP3   OH2 1034   4.233   1.321   4.848
  343TIP3    H1 1035   4.269   1.309   4.760
  343TIP3    H2 1036   4.263   1.244   4.896
  344TIP3   OH2 1037   5.876   1.534   3.817
  344TIP3    H1 1038   5.791   1.564   3.784
  344TIP3    H2 1039   5.882   1.444   3.787
  345TIP3   OH2 1040   0.198   4.410   4.778
  345TIP3    H1 1041   0.187   4.451   4.692
  345TIP3    H2 1042   0.108   4.399   4.810
  346TIP3   OH2 1043   3.020   0.152   4.989
  346TIP3    H1 1044   3.074   0.084   4.947
  346TIP3    H2 1045   3.026   0.132   5.083
  347TIP3   OH2 1046   0.519   3.891   4.400
  347TIP3    H1 1047   0.528   3.847   4.485
  347TIP3    H2 1048   0.510   3.820   4.337
  348TIP3   OH2 1049   4.867   2.479   3.115
  348TIP3    H1 1050   4.938   2.516   3.168
  348TIP3    H2 1051   4.907   2.463   3.030
  349TIP3   OH2 1052   6.157   2.931   0.535
  349TIP3    H1 1053   6.243   2.956   0.569
  349TIP3    H2 1054   6.096   2.985   0.584
  350TIP3   OH2 1055   1.963   5.573   2.924
  350TIP3    H1 1056   2.035   5.612   2.874
  350TIP3    H2 1057   1.938   5.640   2.988
  351TIP3   OH2 1058   3.055   1.003   0.704
  351TIP3    H1 1059   3.021   1.035   0.621
  351TIP3    H2 1060   3.111   1.073   0.736
  352TIP3   OH2 1061   4.898   5.329   0.127
  352TIP3    H1 1062   4.935   5.256   0.176
  352TIP3    H2 1063   4.817   5.350   0.173
  353TIP3   OH2 1064   4.348   1.872   2.221
  353TIP3    H1 1065   4.289   1.938   2.186
  353TIP3    H2 1066   4.295   1.823   2.284
  354TIP3   OH2 1067   2.285   2.301   0.255
  354TIP3    H1 1068   2.206   2.333   0.210
  354TIP3    H2 1069   2.276   2.205   0.252
  355TIP3   OH2 1070   1.852   3.532   2.772
  355TIP3    H1 1071   1.924   3.508   2.830
  355TIP3    H2 1072   1.776   3.485   2.806
  356TIP3   OH2 1073   4.825   1.090   3.725
  356TIP3    H1 1074   4.896   1.141   3.685
  356TIP3    H2 1075   4.839   1.100   3.819
  357TIP3   OH2 1076   2.648   1.318   2.397
  357TIP3    H1 1077   2.670   1.244   2.341
  357TIP3    H2 1078   2.594   1.281   2.466
  358TIP3   OH2 1079   1.604   1.595   4.402
  358TIP3    H1 1080   1.638   1.606   4.313
  358TIP3    H2 1081   1.592   1.684   4.435
  359TIP3   OH2 1082   3.740   1.382   4.302
  359TIP3    H1 1083   3.673   1.351   4.241
  359TIP3    H2 1084   3.789   1.448   4.253
  360TIP3   OH2 1085   2.464   1.498   0.900
  360TIP3    H1 1086   2.519   1.576   0.906
  360TIP3    H2 1087   2.408   1.513   0.825
  361TIP3   OH2 1088   3.639   1.195   1.071
  361TIP3    H1 1089   3.548   1.173   1.053
  361TIP3    H2 1090   3.677   1.114   1.103
  362TIP3   OH2 1091   4.533   0.611   3.663
  362TIP3    H1 1092   4.514   0.613   3.569
  362TIP3    H2 1093   4.463   0.558   3.701
  363TIP3   OH2 1094   0.417   3.408   1.271
  363TIP3    H1 1095   0.445   3.340   1.210
  363TIP3    H2 1096   0.376   3.474   1.216
  364TIP3   OH2 1097   1.655   1.884   2.912
  364TIP3    H1 1098   1.635   1.890   2.818
  364TIP3    H2 1099   1.612   1.803   2.940
  365TIP3   OH2 1100   0.826   2.057   0.193
  365TIP3    H1 1101   0.847   2.150   0.182
  365TIP3    H2 1102   0.911   2.014   0.186
  366TIP3   OH2 1103   2.862   3.901   3.460
  366TIP3    H1 1104   2.793   3.912   3.395
  366TIP3    H2 1105   2.892   3.990   3.478
  367TIP3   OH2 1106   0.433   1.970   3.158
  367TIP3    H1 1107   0.373   1.913   3.109
  367TIP3    H2 1108   0.487   2.012   3.091
  368TIP3   OH2 1109   1.818   3.814   2.963
  368TIP3    H1 1110   1.729   3.835   2.936
  368TIP3    H2 1111   1.862   3.786   2.883
  369TIP3   OH2 1112   5.921   2.988   3.567
  369TIP3    H1 1113   5.966   2.903   3.563
  369TIP3    H2 1114   5.887   3.001   3.478
  370TIP3   OH2 1115   4.306   1.347   0.011
  370TIP3    H1 1116   4.354   1.291  -0.050
  370TIP3    H2 1117   4.368   1.417   0.032
  371TIP3   OH2 1118   2.394   0.655   3.510
  371TIP3    H1 1119   2.452   0.706   3.566
  371TIP3    H2 1120   2.309   0.699   3.516
  372TIP3   OH2 1121   4.677   2.480   2.773
  372TIP3    H1 1122   4.650   2.482   2.681
  372TIP3    H2 1123   4.740   2.408   2.778
  373TIP3   OH2 1124   2.764   1.735   0.736
  373TIP3    H1 1125   2.854   1.758   0.714
  373TIP3    H2 1126   2.735   1.804   0.796
  374TIP3   OH2 1127   3.920   1.441   0.928
  374TIP3    H1 1128   4.003   1.449   0.975
  374TIP3    H2 1129   3.859   1.409   0.994
  375TIP3   OH2 1130   0.527   4.025   4.146
  375TIP3    H1 1131   0.550   4.010   4.238
  375TIP3    H2 1132   0.584   3.967   4.097
  376TIP3   OH2 1133   4.846   4.522   2.834
  376TIP3    H1 1134   4.914   4.496   2.772
  376TIP3    H2 1135   4.846   4.617   2.832
  377TIP3   OH2 1136   4.877   2.961   4.255
  377TIP3    H1 1137   4.832   2.891   4.208
  377TIP3    H2 1138   4.912   2.918   4.333
  378TIP3   OH2 1139   5.246   4.637   3.686
  378TIP3    H1 1140   5.333   4.619   3.721
  378TIP3    H2 1141   5.256   4.630   3.591
  379TIP3   OH2 1142   4.091   1.829   0.914
  379TIP3    H1 1143   4.087   1.913   0.870
  379TIP3    H2 1144   4.068   1.848   1.005
  380TIP3   OH2 1145   0.676   0.580   0.295
  380TIP3    H1 1146   0.741   0.512   0.311
  380TIP3    H2 1147   0.684   0.638   0.370
  381TIP3   OH2 1148   2.578   2.841   3.964
  381TIP3    H1 1149   2.650   2.840   4.027
  381TIP3    H2 1150   2.504   2.802   4.011
  382TIP3   OH2 1151   5.263   0.267   2.062
  382TIP3    H1 1152   5.173   0.255   2.031
  382TIP3    H2 1153   5.314   0.202   2.014
  383TIP3   OH2 1154   1.723   1.592   3.511
  383TIP3    H1 1155   1.765   1.509   3.530
  383TIP3    H2 1156   1.633   1.569   3.487
  384TIP3   OH2 1157   5.568   0.970   5.026
  384TIP3    H1 1158   5.511   0.926   4.962
  384TIP3    H2 1159   5.627   1.024   4.973
  385TIP3   OH2 1160   1.743   2.638   0.841
  385TIP3    H1 1161   1.775   2.571   0.781
  385TIP3    H2 1162   1.816   2.655   0.900
  386TIP3   OH2 1163   3.619   2.507   0.844
  386TIP3    H1 1164   3.539   2.542   0.804
  386TIP3    H2 1165   3.620   2.543   0.932
  387TIP3   OH2 1166   3.976   3.431   4.800
  387TIP3    H1 1167   3.929   3.491   4.857
  387TIP3    H2 1168   3.910   3.404   4.735
  388TIP3   OH2 1169   5.321   3.890   4.733
  388TIP3    H1 1170   5.305   3.886   4.828
  388TIP3    H2 1171   5.415   3.876   4.724
  389TIP3   OH2 1172   3.144   3.370   4.618
  389TIP3    H1 1173   3.211   3.439   4.617
  389TIP3    H2 1174   3.061   3.417   4.615
  390TIP3   OH2 1175   4.940   4.923   4.622
  390TIP3    H1 1176   5.000   4.937   4.549
  390TIP3    H2 1177   4.857   4.899   4.580
  391TIP3   OH2 1178   2.982   5.933   1.968
  391TIP3    H1 1179   2.956   5.844   1.941
  391TIP3    H2 1180   3.077   5.933   1.962
  392TIP3   OH2 1181   3.156   4.851   3.360
  392TIP3    H1 1182   3.168   4.937   3.401
  392TIP3    H2 1183   3.072   4.820   3.395
  393TIP3   OH2 1184   6.176   3.282   2.534
  393TIP3    H1 1185   6.112   3.352   2.537
  393TIP3    H2 1186   6.214   3.287   2.445
  394TIP3   OH2 1187   5.548   1.865   2.403
  394TIP3    H1 1188   5.603   1.941   2.385
  394TIP3    H2 1189   5.495   1.853   2.324
  395TIP3   OH2 1190   4.170   1.907   3.870
  395TIP3    H1 1191   4.233   1.861   3.925
  395TIP3    H2 1192   4.097   1.928   3.928
  396TIP3   OH2 1193   1.333   4.259   1.799
  396TIP3    H1 1194   1.399   4.252   1.867
  396TIP3    H2 1195   1.352   4.341   1.754
  397TIP3   OH2 1196   4.114   5.233   3.946
  397TIP3    H1 1197   4.118   5.229   3.851
  397TIP3    H2 1198   4.088   5.145   3.973
  398TIP3   OH2 1199   5.566   5.746   3.357
  398TIP3    H1 1200   5.641   5.765   3.300
  398TIP3    H2 1201   5.496   5.802   3.324
  399TIP3   OH2 1202   4.102   1.144   3.079
  399TIP3    H1 1203   4.158   1.212   3.117
  399TIP3    H2 1204   4.123   1.065   3.129
  400TIP3   OH2 1205   4.460   4.099   2.109
  400TIP3    H1 1206   4.527   4.032   2.121
  400TIP3    H2 1207   4.379   4.049   2.095
  401TIP3   OH2 1208   3.909   2.447   3.380
  401TIP3    H1 1209   3.971   2.392   3.427
  401TIP3    H2 1210   3.960   2.521   3.349
  402TIP3   OH2 1211   3.184   4.425   2.176
  402TIP3    H1 1212   3.262   4.374   2.196
  402TIP3    H2 1213   3.137   4.373   2.110
  403TIP3   OH2 1214   1.796   1.620   0.921
  403TIP3    H1 1215   1.880   1.632   0.966
  403TIP3    H2 1216   1.733   1.665   0.977
  404TIP3   OH2 1217   4.494   0.925   3.288
  404TIP3    H1 1218   4.537   0.899   3.207
  404TIP3    H2 1219   4.405   0.891   3.280
  405TIP3   OH2 1220   3.197  -0.014   0.614
  405TIP3    H1 1221   3.184   0.059   0.674
  405TIP3    H2 1222   3.291  -0.012   0.594
  406TIP3   OH2 1223   0.555   3.013   4.851
  406TIP3    H1 1224   0.585   2.963   4.927
  406TIP3    H2 1225   0.598   2.970   4.776
  407TIP3   OH2 1226   2.159   4.796   0.904
  407TIP3    H1 1227   2.150   4.745   0.824
  407TIP3    H2 1228   2.079   4.849   0.908
  408TIP3   OH2 1229   2.973   0.331   1.331
  408TIP3    H1 1230   3.012   0.385   1.262
  408TIP3    H2 1231   3.009   0.367   1.413
  409TIP3   OH2 1232   2.717   5.459   0.143
  409TIP3    H1 1233   2.709   5.376   0.097
  409TIP3    H2 1234   2.776   5.511   0.089
  410TIP3   OH2 1235   4.742   2.696   2.912
  410TIP3    H1 1236   4.723   2.611   2.872
  410TIP3    H2 1237   4.676   2.706   2.980
  411TIP3   OH2 1238   3.469   5.796   4.208
  411TIP3    H1 1239   3.534   5.763   4.270
  411TIP3    H2 1240   3.475   5.736   4.133
  412TIP3   OH2 1241   3.039   5.578   5.099
  412TIP3    H1 1242   3.084   5.514   5.154
  412TIP3    H2 1243   3.059   5.663   5.138
  413TIP3   OH2 1244   1.568   0.079   4.436
  413TIP3    H1 1245   1.650   0.076   4.385
  413TIP3    H2 1246   1.568   0.166   4.475
  414TIP3   OH2 1247   5.525   0.526   4.678
  414TIP3    H1 1248   5.579   0.478   4.741
  414TIP3    H2 1249   5.460   0.572   4.732
  415TIP3   OH2 1250   1.446   5.547   0.228
  415TIP3    H1 1251   1.447   5.458   0.263
  415TIP3    H2 1252   1.538   5.570   0.219
  416TIP3   OH2 1253   6.234   3.707   4.470
  416TIP3    H1 1254   6.155   3.656   4.488
  416TIP3    H2 1255   6.285   3.701   4.551
  417TIP3   OH2 1256   1.300   5.968   5.013
  417TIP3    H1 1257   1.349   6.014   4.946
  417TIP3    H2 1258   1.210   5.968   4.981
  418TIP3   OH2 1259   1.520   0.662   0.721
  418TIP3    H1 1260   1.501   0.740   0.670
  418TIP3    H2 1261   1.607   0.635   0.693
  419TIP3   OH2 1262   4.243   2.858   4.693
  419TIP3    H1 1263   4.256   2.867   4.598
  419TIP3    H2 1264   4.209   2.769   4.703
  420TIP3   OH2 1265   0.536   5.887   1.474
  420TIP3    H1 1266   0.572   5.938   1.401
  420TIP3    H2 1267   0.595   5.812   1.482
  421TIP3   OH2 1268   1.982   0.836   2.905
  421TIP3    H1 1269   1.913   0.868   2.847
  421TIP3    H2 1270   2.056   0.894   2.888
  422TIP3   OH2 1271   3.630   5.076   4.723
  422TIP3    H1 1272   3.594   5.107   4.640
  422TIP3    H2 1273   3.698   5.013   4.697
  423TIP3   OH2 1274   4.718   1.782   1.579
  423TIP3    H1 1275   4.741   1.795   1.487
  423TIP3    H2 1276   4.801   1.792   1.626
  424TIP3   OH2 1277   5.230   3.785   3.511
  424TIP3    H1 1278   5.160   3.744   3.561
  424TIP3    H2 1279   5.309   3.768   3.561
  425TIP3   OH2 1280   1.100   0.830   3.521
  425TIP3    H1 1281   1.052   0.856   3.443
  425TIP3    H2 1282   1.127   0.739   3.504
  426TIP3   OH2 1283   4.350   5.449   3.534
  426TIP3    H1 1284   4.414   5.413   3.595
  426TIP3    H2 1285   4.351   5.388   3.460
  427TIP3   OH2 1286   4.914   0.889   3.965
  427TIP3    H1 1287   4.908   0.980   3.994
  427TIP3    H2 1288   4.942   0.841   4.043
  428TIP3   OH2 1289   3.840   4.138   4.144
  428TIP3    H1 1290   3.839   4.055   4.190
  428TIP3    H2 1291   3.917   4.134   4.087
  429TIP3   OH2 1292   2.112   1.674   4.781
  429TIP3    H1 1293   2.148   1.688   4.693
  429TIP3    H2 1294   2.033   1.728   4.783
  430TIP3   OH2 1295   5.494   4.959   2.459
  430TIP3    H1 1296   5.543   5.030   2.419
  430TIP3    H2 1297   5.453   4.914   2.384
  431TIP3   OH2 1298   5.026   2.203   4.901
  431TIP3    H1 1299   4.975   2.125   4.922
  431TIP3    H2 1300   4.969   2.276   4.925
  432TIP3   OH2 1301   1.849   3.538   1.181
  432TIP3    H1 1302   1.822   3.600   1.112
  432TIP3    H2 1303   1.840   3.587   1.262
  433TIP3   OH2 1304   3.748   3.626   4.347
  433TIP3    H1 1305   3.676   3.563   4.342
  433TIP3    H2 1306   3.817   3.579   4.394
  434TIP3   OH2 1307   4.831   0.146   0.509
  434TIP3    H1 1308   4.813   0.053   0.497
  434TIP3    H2 1309   4.748   0.189   0.488
  435TIP3   OH2 1310   1.690   0.509   3.440
  435TIP3    H1 1311   1.616   0.469   3.394
  435TIP3    H2 1312   1.651   0.552   3.516
  436TIP3   OH2 1313   6.128   3.884   4.683
  436TIP3    H1 1314   6.202   3.826   4.702
  436TIP3    H2 1315   6.165   3.954   4.630
  437TIP3   OH2 1316   4.346   2.550   4.060
  437TIP3    H1 1317   4.426   2.500   4.071
  437TIP3    H2 1318   4.276   2.486   4.074
  438TIP3   OH2 1319   6.341   5.340   2.018
  438TIP3    H1 1320   6.311   5.424   2.052
  438TIP3    H2 1321   6.387   5.361   1.937
  439TIP3   OH2 1322   2.197   5.278   3.801
  439TIP3    H1 1323   2.131   5.347   3.788
  439TIP3    H2 1324   2.162   5.224   3.872
  440TIP3   OH2 1325   4.612   1.382   3.843
  440TIP3    H1 1326   4.632   1.294   3.876
  440TIP3    H2 1327   4.676   1.395   3.772
  441TIP3   OH2 1328   6.082   0.396   2.400
  441TIP3    H1 1329   6.023   0.338   2.448
  441TIP3    H2 1330   6.170   0.365   2.423
  442TIP3   OH2 1331   3.663   3.016   4.618
  442TIP3    H1 1332   3.645   2.972   4.700
  442TIP3    H2 1333   3.759   3.023   4.615
  443TIP3   OH2 1334   1.673   4.862   0.290
  443TIP3    H1 1335   1.751   4.872   0.344
  443TIP3    H2 1336   1.609   4.821   0.348
  444TIP3   OH2 1337   3.223   3.392   1.880
  444TIP3    H1 1338   3.246   3.316   1.935
  444TIP3    H2 1339   3.265   3.375   1.796
  445TIP3   OH2 1340   5.484   1.404   1.817
  445TIP3    H1 1341   5.544   1.359   1.876
  445TIP3    H2 1342   5.540   1.437   1.746
  446TIP3   OH2 1343   3.328   1.076   0.417
  446TIP3    H1 1344   3.350   1.101   0.507
  446TIP3    H2 1345   3.315   1.159   0.371
  447TIP3   OH2 1346   1.125   5.450   2.685
  447TIP3    H1 1347   1.034   5.456   2.655
  447TIP3    H2 1348   1.162   5.378   2.635
  448TIP3   OH2 1349   1.096   5.010   0.882
  448TIP3    H1 1350   1.049   4.929   0.902
  448TIP3    H2 1351   1.041   5.054   0.816
  449TIP3   OH2 1352   2.455   0.475   3.098
  449TIP3    H1 1353   2.507   0.417   3.042
  449TIP3    H2 1354   2.369   0.476   3.057
  450TIP3   OH2 1355   0.419   2.826   4.634
  450TIP3    H1 1356   0.346   2.876   4.669
  450TIP3    H2 1357   0.395   2.734   4.650
  451TIP3   OH2 1358   4.254   3.404   1.169
  451TIP3    H1 1359   4.222   3.336   1.229
  451TIP3    H2 1360   4.217   3.485   1.204
  452TIP3   OH2 1361   1.833   4.488   1.450
  452TIP3    H1 1362   1.776   4.532   1.386
  452TIP3    H2 1363   1.895   4.439   1.397
  453TIP3   OH2 1364   0.595   0.711   0.932
  453TIP3    H1 1365   0.663   0.689   0.868
  453TIP3    H2 1366   0.584   0.806   0.924
  454TIP3   OH2 1367   4.206   0.456   4.090
  454TIP3    H1 1368   4.172   0.515   4.157
  454TIP3    H2 1369   4.140   0.459   4.020
  455TIP3   OH2 1370   2.108   4.169   0.701
  455TIP3    H1 1371   2.016   4.161   0.725
  455TIP3    H2 1372   2.148   4.214   0.775
  456TIP3   OH2 1373   2.258   1.447   4.601
  456TIP3    H1 1374   2.247   1.542   4.606
  456TIP3    H2 1375   2.351   1.433   4.622
  457TIP3   OH2 1376   0.933   0.251   0.842
  457TIP3    H1 1377   1.003   0.315   0.831
  457TIP3    H2 1378   0.853   0.303   0.838
  458TIP3   OH2 1379   0.229   5.223   1.375
  458TIP3    H1 1380   0.136   5.225   1.354
  458TIP3    H2 1381   0.240   5.148   1.433
  459TIP3   OH2 1382   4.943   0.608   0.312
  459TIP3    H1 1383   5.013   0.544   0.326
  459TIP3    H2 1384   4.863   0.560   0.332
  460TIP3   OH2 1385   1.657   2.602   3.252
  460TIP3    H1 1386   1.656   2.517   3.296
  460TIP3    H2 1387   1.567   2.633   3.257
  461TIP3   OH2 1388   5.027   5.889   3.227
  461TIP3    H1 1389   5.104   5.839   3.254
  461TIP3    H2 1390   5.029   5.885   3.131
  462TIP3   OH2 1391   4.094   1.017   5.024
  462TIP3    H1 1392   4.081   1.065   4.942
  462TIP3    H2 1393   4.187   1.026   5.042
  463TIP3   OH2 1394   3.730   3.464   3.707
  463TIP3    H1 1395   3.726   3.482   3.801
  463TIP3    H2 1396   3.821   3.481   3.683
  464TIP3   OH2 1397   1.957   5.273   2.073
  464TIP3    H1 1398   2.015   5.323   2.016
  464TIP3    H2 1399   1.999   5.187   2.082
  465TIP3   OH2 1400   5.533   0.590   0.444
  465TIP3    H1 1401   5.480   0.621   0.371
  465TIP3    H2 1402   5.578   0.512   0.410
  466TIP3   OH2 1403   2.149   5.131   5.015
  466TIP3    H1 1404   2.243   5.120   5.023
  466TIP3    H2 1405   2.114   5.042   5.011
  467TIP3   OH2 1406   1.175   0.854   2.954
  467TIP3    H1 1407   1.218   0.898   2.880
  467TIP3    H2 1408   1.246   0.805   2.996
  468TIP3   OH2 1409   0.799   5.685   0.070
  468TIP3    H1 1410   0.832   5.666  -0.018
  468TIP3    H2 1411   0.708   5.709   0.056
  469TIP3   OH2 1412   0.579   4.399   2.703
  469TIP3    H1 1413   0.558   4.316   2.661
  469TIP3    H2 1414   0.670   4.416   2.679
  470TIP3   OH2 1415   4.235   4.951   0.080
  470TIP3    H1 1416   4.259   5.033   0.037
  470TIP3    H2 1417   4.139   4.952   0.081
  471TIP3   OH2 1418   2.713   2.248   2.506
  471TIP3    H1 1419   2.772   2.318   2.479
  471TIP3    H2 1420   2.691   2.269   2.596
  472TIP3   OH2 1421   5.635   5.865   0.182
  472TIP3    H1 1422   5.691   5.848   0.258
  472TIP3    H2 1423   5.547   5.871   0.219
  473TIP3   OH2 1424   0.386   4.493   0.093
  473TIP3    H1 1425   0.331   4.511   0.169
  473TIP3    H2 1426   0.374   4.399   0.077
  474TIP3   OH2 1427   6.179   3.781   3.682
  474TIP3    H1 1428   6.100   3.743   3.720
  474TIP3    H2 1429   6.222   3.708   3.638
  475TIP3   OH2 1430   2.718   1.498   2.692
  475TIP3    H1 1431   2.801   1.494   2.646
  475TIP3    H2 1432   2.701   1.407   2.719
  476TIP3   OH2 1433   1.448   3.070   1.619
  476TIP3    H1 1434   1.421   2.998   1.563
  476TIP3    H2 1435   1.369   3.124   1.629
  477TIP3   OH2 1436   2.733   2.312   5.027
  477TIP3    H1 1437   2.761   2.352   5.109
  477TIP3    H2 1438   2.793   2.239   5.014
  478TIP3   OH2 1439   3.428   4.869   4.734
  478TIP3    H1 1440   3.514   4.911   4.741
  478TIP3    H2 1441   3.369   4.927   4.782
  479TIP3   OH2 1442   0.719   2.920   3.656
  479TIP3    H1 1443   0.796   2.900   3.602
  479TIP3    H2 1444   0.699   2.837   3.700
  480TIP3   OH2 1445   2.287   2.600   1.076
  480TIP3    H1 1446   2.259   2.564   1.160
  480TIP3    H2 1447   2.278   2.694   1.085
  481TIP3   OH2 1448   3.652   2.933   2.655
  481TIP3    H1 1449   3.659   2.869   2.727
  481TIP3    H2 1450   3.636   2.879   2.577
  482TIP3   OH2 1451   3.017   1.489   3.225
  482TIP3    H1 1452   2.937   1.449   3.192
  482TIP3    H2 1453   3.058   1.419   3.277
  483TIP3   OH2 1454   0.375   1.484   1.937
  483TIP3    H1 1455   0.451   1.426   1.936
  483TIP3    H2 1456   0.312   1.440   1.994
  484TIP3   OH2 1457   5.483   3.152   2.222
  484TIP3    H1 1458   5.441   3.182   2.142
  484TIP3    H2 1459   5.488   3.057   2.214
  485TIP3   OH2 1460   2.034   1.742   1.717
  485TIP3    H1 1461   2.051   1.651   1.695
  485TIP3    H2 1462   1.983   1.738   1.798
  486TIP3   OH2 1463   1.278   0.404   3.949
  486TIP3    H1 1464   1.252   0.415   4.040
  486TIP3    H2 1465   1.331   0.481   3.929
  487TIP3   OH2 1466   2.138   1.787   1.383
  487TIP3    H1 1467   2.107   1.708   1.429
  487TIP3    H2 1468   2.227   1.799   1.414
  488TIP3   OH2 1469   1.324   2.949   4.531
  488TIP3    H1 1470   1.344   3.042   4.529
  488TIP3    H2 1471   1.406   2.906   4.505
  489TIP3   OH2 1472   0.979   5.718   4.745
  489TIP3    H1 1473   0.986   5.633   4.790
  489TIP3    H2 1474   0.885   5.738   4.747
  490TIP3   OH2 1475   2.977   4.855   1.985
  490TIP3    H1 1476   2.924   4.829   1.910
  490TIP3    H2 1477   3.042   4.914   1.949
  491TIP3   OH2 1478   0.400   4.977   5.111
  491TIP3    H1 1479   0.475   5.035   5.124
  491TIP3    H2 1480   0.387   4.935   5.196
  492TIP3   OH2 1481   5.956   5.078   2.414
  492TIP3    H1 1482   6.020   5.145   2.393
  492TIP3    H2 1483   5.899   5.118   2.480
  493TIP3   OH2 1484   2.374   0.085   4.566
  493TIP3    H1 1485   2.424   0.015   4.524
  493TIP3    H2 1486   2.287   0.079   4.527
  494TIP3   OH2 1487   0.651   4.083   2.791
  494TIP3    H1 1488   0.606   4.105   2.710
  494TIP3    H2 1489   0.583   4.043   2.846
  495TIP3   OH2 1490   0.347   2.709  -0.009
  495TIP3    H1 1491   0.372   2.621   0.017
  495TIP3    H2 1492   0.278   2.734   0.053
  496TIP3   OH2 1493   2.516   3.976   0.938
  496TIP3    H1 1494   2.601   4.000   0.902
  496TIP3    H2 1495   2.464   4.056   0.935
  497TIP3   OH2 1496   1.530   1.767   2.557
  497TIP3    H1 1497   1.583   1.701   2.602
  497TIP3    H2 1498   1.444   1.727   2.546
  498TIP3   OH2 1499   0.267   2.284   3.407
  498TIP3    H1 1500   0.179   2.251   3.427
  498TIP3    H2 1501   0.321   2.205   3.402
  499TIP3   OH2 1502   5.706   5.386   0.569
  499TIP3    H1 1503   5.692   5.421   0.481
  499TIP3    H2 1504   5.734   5.462   0.620
  500TIP3   OH2 1505   4.312   4.697   2.513
  500TIP3    H1 1506   4.243   4.659   2.457
  500TIP3    H2 1507   4.264   4.735   2.587
  501TIP3   OH2 1508   1.678   0.136   1.467
  501TIP3    H1 1509   1.752   0.114   1.524
  501TIP3    H2 1510   1.717   0.154   1.382
  502TIP3   OH2 1511   5.988   2.222   0.703
  502TIP3    H1 1512   6.022   2.210   0.792
  502TIP3    H2 1513   5.984   2.317   0.692
  503TIP3   OH2 1514   4.756   5.560   0.665
  503TIP3    H1 1515   4.787   5.634   0.717
  503TIP3    H2 1516   4.785   5.580   0.576
  504TIP3   OH2 1517   5.398   0.202   0.033
  504TIP3    H1 1518   5.357   0.287   0.048
  504TIP3    H2 1519   5.427   0.205  -0.058
  505TIP3   OH2 1520   1.499   2.607   0.433
  505TIP3    H1 1521   1.562   2.567   0.373
  505TIP3    H2 1522   1.468   2.534   0.487
  506TIP3   OH2 1523   6.185   1.469   0.657
  506TIP3    H1 1524   6.156   1.475   0.748
  506TIP3    H2 1525   6.258   1.407   0.659
  507TIP3   OH2 1526   3.451   1.891   1.990
  507TIP3    H1 1527   3.456   1.797   1.973
  507TIP3    H2 1528   3.460   1.899   2.085
  508TIP3   OH2 1529   0.718   4.990   0.962
  508TIP3    H1 1530   0.649   5.008   0.899
  508TIP3    H2 1531   0.728   5.072   1.010
  509TIP3   OH2 1532   5.397   0.093   2.612
  509TIP3    H1 1533   5.396  -0.001   2.629
  509TIP3    H2 1534   5.321   0.127   2.659
  510TIP3   OH2 1535   0.698   0.149   1.029
  510TIP3    H1 1536   0.719   0.240   1.046
  510TIP3    H2 1537   0.606   0.150   1.003
  511TIP3   OH2 1538   5.888   4.395   0.534
  511TIP3    H1 1539   5.849   4.439   0.459
  511TIP3    H2 1540   5.982   4.414   0.527
  512TIP3   OH2 1541   2.834   0.134   0.846
  512TIP3    H1 1542   2.813   0.227   0.841
  512TIP3    H2 1543   2.787   0.102   0.923
  513TIP3   OH2 1544   2.901   0.594   1.612
  513TIP3    H1 1545   2.808   0.576   1.598
  513TIP3    H2 1546   2.917   0.567   1.703
  514TIP3   OH2 1547   3.343   2.651   2.485
  514TIP3    H1 1548   3.271   2.693   2.532
  514TIP3    H2 1549   3.389   2.724   2.443
  515TIP3   OH2 1550   3.832   5.038  -0.011
  515TIP3    H1 1551   3.879   5.078   0.062
  515TIP3    H2 1552   3.901   4.999  -0.065
  516TIP3   OH2 1553   5.692   4.664   1.018
  516TIP3    H1 1554   5.695   4.613   1.099
  516TIP3    H2 1555   5.673   4.600   0.950
  517TIP3   OH2 1556   3.036   1.687   0.677
  517TIP3    H1 1557   3.067   1.642   0.756
  517TIP3    H2 1558   3.025   1.618   0.612
  518TIP3   OH2 1559   3.793   2.080   0.721
  518TIP3    H1 1560   3.832   1.993   0.727
  518TIP3    H2 1561   3.718   2.069   0.662
  519TIP3   OH2 1562   6.304   5.088   2.465
  519TIP3    H1 1563   6.374   5.042   2.418
  519TIP3    H2 1564   6.251   5.128   2.396
  520TIP3   OH2 1565   1.936   0.254   2.949
  520TIP3    H1 1566   1.842   0.261   2.932
  520TIP3    H2 1567   1.955   0.160   2.941
  521TIP3   OH2 1568   5.807   2.216   2.313
  521TIP3    H1 1569   5.891   2.238   2.354
  521TIP3    H2 1570   5.812   2.256   2.226
  522TIP3   OH2 1571   5.450   2.285   2.577
  522TIP3    H1 1572   5.503   2.273   2.498
  522TIP3    H2 1573   5.449   2.199   2.618
  523TIP3   OH2 1574   3.452   0.099   0.270
  523TIP3    H1 1575   3.503   0.021   0.295
  523TIP3    H2 1576   3.412   0.129   0.352
  524TIP3   OH2 1577   5.799   4.215   0.259
  524TIP3    H1 1578   5.838   4.177   0.338
  524TIP3    H2 1579   5.871   4.259   0.215
  525TIP3   OH2 1580   3.336   4.008   2.531
  525TIP3    H1 1581   3.322   3.914   2.519
  525TIP3    H2 1582   3.395   4.013   2.606
  526TIP3   OH2 1583   0.198   3.195   1.253
  526TIP3    H1 1584   0.223   3.126   1.191
  526TIP3    H2 1585   0.280   3.238   1.275
  527TIP3   OH2 1586   2.854   5.124   3.951
  527TIP3    H1 1587   2.817   5.076   3.877
  527TIP3    H2 1588   2.949   5.117   3.939
  528TIP3   OH2 1589   2.014   2.616   0.590
  528TIP3    H1 1590   1.998   2.550   0.657
  528TIP3    H2 1591   2.073   2.572   0.528
  529TIP3   OH2 1592   4.517   4.933   1.439
  529TIP3    H1 1593   4.476   4.984   1.509
  529TIP3    H2 1594   4.457   4.942   1.365
  530TIP3   OH2 1595   3.160   1.693   1.875
  530TIP3    H1 1596   3.171   1.724   1.785
  530TIP3    H2 1597   3.176   1.599   1.870
  531TIP3   OH2 1598   1.134   0.014   2.559
  531TIP3    H1 1599   1.208   0.038   2.616
  531TIP3    H2 1600   1.166  -0.062   2.510
  532TIP3   OH2 1601   3.933   3.315   4.029
  532TIP3    H1 1602   3.965   3.232   3.995
  532TIP3    H2 1603   3.986   3.381   3.985
  533TIP3   OH2 1604   1.066   3.483   2.605
  533TIP3    H1 1605   0.985   3.516   2.644
  533TIP3    H2 1606   1.039   3.446   2.521
  534TIP3   OH2 1607   5.708   1.017   1.674
  534TIP3    H1 1608   5.778   1.082   1.684
  534TIP3    H2 1609   5.628   1.069   1.668
  535TIP3   OH2 1610   0.647   0.101   4.318
  535TIP3    H1 1611   0.684   0.176   4.365
  535TIP3    H2 1612   0.686   0.106   4.231
  536TIP3   OH2 1613   4.458   3.938   4.641
  536TIP3    H1 1614   4.452   3.872   4.572
  536TIP3    H2 1615   4.547   3.929   4.674
  537TIP3   OH2 1616   2.220   5.503   5.146
  537TIP3    H1 1617   2.169   5.480   5.224
  537TIP3    H2 1618   2.180   5.585   5.116
  538TIP3   OH2 1619   0.616   5.155   5.167
  538TIP3    H1 1620   0.705   5.151   5.132
  538TIP3    H2 1621   0.609   5.244   5.202
  539TIP3   OH2 1622   3.493   1.539   0.088
  539TIP3    H1 1623   3.496   1.531   0.183
  539TIP3    H2 1624   3.489   1.633   0.072
  540TIP3   OH2 1625   0.453   2.045   4.927
  540TIP3    H1 1626   0.498   1.960   4.922
  540TIP3    H2 1627   0.427   2.063   4.836
  541TIP3   OH2 1628   5.411   1.806   1.869
  541TIP3    H1 1629   5.347   1.747   1.829
  541TIP3    H2 1630   5.486   1.803   1.810
  542TIP3   OH2 1631   0.346   1.012   1.488
  542TIP3    H1 1632   0.302   1.042   1.568
  542TIP3    H2 1633   0.433   0.986   1.517
  543TIP3   OH2 1634   3.078   1.941   0.509
  543TIP3    H1 1635   2.989   1.924   0.478
  543TIP3    H2 1636   3.124   1.858   0.498
  544TIP3   OH2 1637   5.412   3.358   1.005
  544TIP3    H1 1638   5.365   3.318   1.078
  544TIP3    H2 1639   5.453   3.436   1.042
  545TIP3   OH2 1640   3.997   3.998   0.204
  545TIP3    H1 1641   4.024   3.973   0.116
  545TIP3    H2 1642   3.949   4.080   0.192
  546TIP3   OH2 1643   4.250   1.596   4.785
  546TIP3    H1 1644   4.316   1.531   4.760
  546TIP3    H2 1645   4.186   1.546   4.837
  547TIP3   OH2 1646   4.444   2.336   2.021
  547TIP3    H1 1647   4.471   2.261   1.969
  547TIP3    H2 1648   4.470   2.315   2.110
  548TIP3   OH2 1649   4.489   1.710   4.951
  548TIP3    H1 1650   4.464   1.646   4.884
  548TIP3    H2 1651   4.420   1.703   5.017
  549TIP3   OH2 1652   5.687   4.886   4.377
  549TIP3    H1 1653   5.753   4.817   4.367
  549TIP3    H2 1654   5.699   4.917   4.467
  550TIP3   OH2 1655   4.269   0.271   3.054
  550TIP3    H1 1656   4.273   0.319   2.971
  550TIP3    H2 1657   4.345   0.302   3.103
  551TIP3   OH2 1658   1.408   5.943   4.554
  551TIP3    H1 1659   1.425   5.983   4.639
  551TIP3    H2 1660   1.344   5.874   4.573
  552TIP3   OH2 1661   3.097   4.554   0.894
  552TIP3    H1 1662   3.052   4.630   0.931
  552TIP3    H2 1663   3.027   4.491   0.877
  553TIP3   OH2 1664   3.698   2.197   3.788
  553TIP3    H1 1665   3.666   2.256   3.857
  553TIP3    H2 1666   3.793   2.200   3.795
  554TIP3   OH2 1667   2.972   4.056   3.756
  554TIP3    H1 1668   2.974   4.150   3.773
  554TIP3    H2 1669   2.882   4.030   3.774
  555TIP3   OH2 1670   4.518   0.842   0.347
  555TIP3    H1 1671   4.426   0.833   0.370
  555TIP3    H2 1672   4.564   0.834   0.431
  556TIP3   OH2 1673   1.706   4.476   4.704
  556TIP3    H1 1674   1.671   4.467   4.792
  556TIP3    H2 1675   1.714   4.571   4.691
  557TIP3   OH2 1676   1.127   3.066   1.037
  557TIP3    H1 1677   1.124   2.973   1.014
  557TIP3    H2 1678   1.137   3.112   0.953
  558TIP3   OH2 1679   3.119   1.393   0.544
  558TIP3    H1 1680   3.169   1.362   0.468
  558TIP3    H2 1681   3.050   1.449   0.507
  559TIP3   OH2 1682   1.503   5.947   2.284
  559TIP3    H1 1683   1.414   5.955   2.317
  559TIP3    H2 1684   1.540   5.872   2.329
  560TIP3   OH2 1685   3.675   2.919   4.887
  560TIP3    H1 1686   3.756   2.969   4.899
  560TIP3    H2 1687   3.694   2.832   4.921
  561TIP3   OH2 1688   5.871   1.725   2.986
  561TIP3    H1 1689   5.870   1.648   2.928
  561TIP3    H2 1690   5.918   1.694   3.064
  562TIP3   OH2 1691   2.978   0.849   4.578
  562TIP3    H1 1692   3.060   0.842   4.530
  562TIP3    H2 1693   3.002   0.831   4.669
  563TIP3   OH2 1694   0.416   0.769   3.927
  563TIP3    H1 1695   0.491   0.713   3.906
  563TIP3    H2 1696   0.340   0.713   3.911
  564TIP3   OH2 1697   5.670   0.551   2.275
  564TIP3    H1 1698   5.643   0.465   2.243
  564TIP3    H2 1699   5.617   0.613   2.224
  565TIP3   OH2 1700   6.253   2.236   0.904
  565TIP3    H1 1701   6.321   2.267   0.964
  565TIP3    H2 1702   6.291   2.248   0.817
  566TIP3   OH2 1703   1.102   2.794   4.621
  566TIP3    H1 1704   1.156   2.791   4.700
  566TIP3    H2 1705   1.148   2.854   4.562
  567TIP3   OH2 1706   5.220   2.328   2.363
  567TIP3    H1 1707   5.158   2.304   2.431
  567TIP3    H2 1708   5.304   2.337   2.408
  568TIP3   OH2 1709   0.301   3.342   2.163
  568TIP3    H1 1710   0.385   3.363   2.204
  568TIP3    H2 1711   0.240   3.407   2.198
  569TIP3   OH2 1712   5.687   5.097   3.278
  569TIP3    H1 1713   5.757   5.072   3.219
  569TIP3    H2 1714   5.616   5.036   3.259
  570TIP3   OH2 1715   3.497   0.483   4.229
  570TIP3    H1 1716   3.536   0.397   4.242
  570TIP3    H2 1717   3.521   0.533   4.306
  571TIP3   OH2 1718   3.482   4.670   2.690
  571TIP3    H1 1719   3.494   4.629   2.775
  571TIP3    H2 1720   3.459   4.597   2.631
  572TIP3   OH2 1721   2.208   3.109   4.438
  572TIP3    H1 1722   2.285   3.150   4.399
  572TIP3    H2 1723   2.241   3.070   4.519
  573TIP3   OH2 1724   1.772   0.679   0.607
  573TIP3    H1 1725   1.760   0.770   0.634
  573TIP3    H2 1726   1.836   0.683   0.537
  574TIP3   OH2 1727   5.159   5.644   3.377
  574TIP3    H1 1728   5.106   5.571   3.346
  574TIP3    H2 1729   5.246   5.607   3.389
  575TIP3   OH2 1730   4.261   1.813   4.254
  575TIP3    H1 1731   4.312   1.822   4.174
  575TIP3    H2 1732   4.319   1.844   4.323
  576TIP3   OH2 1733   6.142   4.863   1.983
  576TIP3    H1 1734   6.077   4.870   1.913
  576TIP3    H2 1735   6.210   4.925   1.959
  577TIP3   OH2 1736   2.523   3.658   3.252
  577TIP3    H1 1737   2.550   3.656   3.344
  577TIP3    H2 1738   2.593   3.706   3.208
  578TIP3   OH2 1739   2.787   1.716   3.691
  578TIP3    H1 1740   2.838   1.667   3.755
  578TIP3    H2 1741   2.732   1.774   3.744
  579TIP3   OH2 1742   1.723   3.570   2.517
  579TIP3    H1 1743   1.723   3.479   2.488
  579TIP3    H2 1744   1.763   3.569   2.603
  580TIP3   OH2 1745   3.279   5.718   2.983
  580TIP3    H1 1746   3.245   5.805   2.963
  580TIP3    H2 1747   3.202   5.662   2.984
  581TIP3   OH2 1748   3.711   0.551   1.650
  581TIP3    H1 1749   3.653   0.604   1.705
  581TIP3    H2 1750   3.796   0.594   1.656
  582TIP3   OH2 1751   1.110   5.318   4.514
  582TIP3    H1 1752   1.103   5.260   4.590
  582TIP3    H2 1753   1.019   5.327   4.483
  583TIP3   OH2 1754   1.122   4.697   1.761
  583TIP3    H1 1755   1.057   4.733   1.702
  583TIP3    H2 1756   1.082   4.618   1.797
  584TIP3   OH2 1757   3.433   5.589   0.341
  584TIP3    H1 1758   3.484   5.626   0.413
  584TIP3    H2 1759   3.418   5.662   0.281
  585TIP3   OH2 1760   4.904   2.536   4.332
  585TIP3    H1 1761   4.839   2.592   4.375
  585TIP3    H2 1762   4.984   2.589   4.329
  586TIP3   OH2 1763   0.761   1.587   1.834
  586TIP3    H1 1764   0.848   1.601   1.797
  586TIP3    H2 1765   0.703   1.579   1.758
  587TIP3   OH2 1766   4.973   3.175   3.582
  587TIP3    H1 1767   4.968   3.266   3.554
  587TIP3    H2 1768   4.991   3.180   3.676
  588TIP3   OH2 1769   4.711   3.042   4.492
  588TIP3    H1 1770   4.730   2.960   4.448
  588TIP3    H2 1771   4.752   3.109   4.436
  589TIP3   OH2 1772   5.056   1.920   1.401
  589TIP3    H1 1773   5.115   1.987   1.436
  589TIP3    H2 1774   5.010   1.963   1.329
  590TIP3   OH2 1775   5.742   5.763   0.440
  590TIP3    H1 1776   5.741   5.681   0.390
  590TIP3    H2 1777   5.801   5.746   0.513
  591TIP3   OH2 1778   2.124   4.311   2.558
  591TIP3    H1 1779   2.176   4.231   2.558
  591TIP3    H2 1780   2.036   4.281   2.582
  592TIP3   OH2 1781   1.813   1.323   3.806
  592TIP3    H1 1782   1.851   1.283   3.728
  592TIP3    H2 1783   1.743   1.263   3.832
  593TIP3   OH2 1784   0.106   5.806   2.998
  593TIP3    H1 1785   0.097   5.717   2.964
  593TIP3    H2 1786   0.046   5.858   2.945
  594TIP3   OH2 1787   2.674   1.203   3.858
  594TIP3    H1 1788   2.682   1.293   3.825
  594TIP3    H2 1789   2.762   1.180   3.887
  595TIP3   OH2 1790   2.733   1.293   0.634
  595TIP3    H1 1791   2.712   1.386   0.636
  595TIP3    H2 1792   2.691   1.256   0.712
  596TIP3   OH2 1793   0.457   1.675   2.216
  596TIP3    H1 1794   0.372   1.631   2.226
  596TIP3    H2 1795   0.461   1.699   2.124
  597TIP3   OH2 1796   3.877   4.022   4.552
  597TIP3    H1 1797   3.968   4.052   4.544
  597TIP3    H2 1798   3.842   4.071   4.626
  598TIP3   OH2 1799   0.412   5.568   2.803
  598TIP3    H1 1800   0.492   5.620   2.793
  598TIP3    H2 1801   0.367   5.579   2.719
  599TIP3   OH2 1802   2.325   0.873   4.592
  599TIP3    H1 1803   2.251   0.834   4.546
  599TIP3    H2 1804   2.312   0.967   4.583
  600TIP3   OH2 1805   2.548   0.839   3.998
  600TIP3    H1 1806   2.637   0.804   3.997
  600TIP3    H2 1807   2.510   0.805   4.079
  601TIP3   OH2 1808   1.838   5.266   1.213
  601TIP3    H1 1809   1.790   5.343   1.244
  601TIP3    H2 1810   1.776   5.221   1.156
  602TIP3   OH2 1811   5.775   4.117   1.673
  602TIP3    H1 1812   5.712   4.085   1.608
  602TIP3    H2 1813   5.754   4.210   1.683
  603TIP3   OH2 1814   4.566   1.028   2.493
  603TIP3    H1 1815   4.636   1.088   2.516
  603TIP3    H2 1816   4.575   0.956   2.557
  604TIP3   OH2 1817   2.156   1.782   4.164
  604TIP3    H1 1818   2.131   1.823   4.246
  604TIP3    H2 1819   2.175   1.691   4.187
  605TIP3   OH2 1820  -0.004   0.641   2.362
  605TIP3    H1 1821   0.039   0.597   2.289
  605TIP3    H2 1822  -0.001   0.577   2.434
  606TIP3   OH2 1823   3.017   5.685   2.240
  606TIP3    H1 1824   2.924   5.704   2.223
  606TIP3    H2 1825   3.033   5.720   2.327
  607TIP3   OH2 1826   6.238   0.482   3.974
  607TIP3    H1 1827   6.168   0.464   4.037
  607TIP3    H2 1828   6.250   0.577   3.978
  608TIP3   OH2 1829   4.136   5.581   1.633
  608TIP3    H1 1830   4.213   5.539   1.593
  608TIP3    H2 1831   4.096   5.629   1.561
  609TIP3   OH2 1832   2.656   4.571   4.156
  609TIP3    H1 1833   2.728   4.611   4.204
  609TIP3    H2 1834   2.682   4.576   4.064
  610TIP3   OH2 1835   6.055   1.059   0.274
  610TIP3    H1 1836   5.964   1.076   0.247
  610TIP3    H2 1837   6.058   0.965   0.289
  611TIP3   OH2 1838   1.013   3.934   4.831
  611TIP3    H1 1839   1.093   3.986   4.831
  611TIP3    H2 1840   0.967   3.959   4.752
  612TIP3   OH2 1841   5.251   4.720   1.928
  612TIP3    H1 1842   5.217   4.650   1.872
  612TIP3    H2 1843   5.338   4.689   1.954
  613TIP3   OH2 1844   2.096   1.239   3.701
  613TIP3    H1 1845   2.169   1.238   3.639
  613TIP3    H2 1846   2.115   1.313   3.759
  614TIP3   OH2 1847   6.034   3.540   1.789
  614TIP3    H1 1848   5.997   3.574   1.871
  614TIP3    H2 1849   6.008   3.448   1.786
  615TIP3   OH2 1850   3.441   4.085   2.871
  615TIP3    H1 1851   3.407   4.165   2.831
  615TIP3    H2 1852   3.391   4.075   2.952
  616TIP3   OH2 1853   1.595   5.960   3.513
  616TIP3    H1 1854   1.618   6.023   3.581
  616TIP3    H2 1855   1.630   5.876   3.544
  617TIP3   OH2 1856   2.032   4.799   0.134
  617TIP3    H1 1857   2.128   4.796   0.131
  617TIP3    H2 1858   2.011   4.783   0.226
  618TIP3   OH2 1859   2.421   1.643   0.288
  618TIP3    H1 1860   2.326   1.636   0.278
  618TIP3    H2 1861   2.433   1.712   0.353
  619TIP3   OH2 1862   0.430   1.455   4.438
  619TIP3    H1 1863   0.485   1.528   4.467
  619TIP3    H2 1864   0.349   1.496   4.409
  620TIP3   OH2 1865   4.468   1.224   4.705
  620TIP3    H1 1866   4.435   1.134   4.697
  620TIP3    H2 1867   4.535   1.231   4.637
  621TIP3   OH2 1868   2.012   0.031   2.347
  621TIP3    H1 1869   2.053   0.054   2.430
  621TIP3    H2 1870   1.931   0.083   2.345
  622TIP3   OH2 1871   5.765   2.183   3.139
  622TIP3    H1 1872   5.819   2.146   3.069
  622TIP3    H2 1873   5.692   2.122   3.147
  623TIP3   OH2 1874   4.078   2.900   2.460
  623TIP3    H1 1875   4.054   2.807   2.453
  623TIP3    H2 1876   3.997   2.944   2.484
  624TIP3   OH2 1877   1.817   4.490   3.666
  624TIP3    H1 1878   1.889   4.460   3.722
  624TIP3    H2 1879   1.858   4.508   3.582
  625TIP3   OH2 1880   4.665   5.882   2.972
  625TIP3    H1 1881   4.643   5.939   3.046
  625TIP3    H2 1882   4.741   5.923   2.931
  626TIP3   OH2 1883   4.807   2.427   0.073
  626TIP3    H1 1884   4.794   2.495   0.139
  626TIP3    H2 1885   4.894   2.446   0.036
  627TIP3   OH2 1886   0.664   4.370   1.606
  627TIP3    H1 1887   0.679   4.446   1.550
  627TIP3    H2 1888   0.569   4.358   1.605
  628TIP3   OH2 1889   2.004   3.200   0.816
  628TIP3    H1 1890   2.099   3.209   0.808
  628TIP3    H2 1891   1.984   3.234   0.903
  629TIP3   OH2 1892   1.707   5.441   3.027
  629TIP3    H1 1893   1.785   5.474   2.983
  629TIP3    H2 1894   1.735   5.430   3.118
  630TIP3   OH2 1895   5.482   3.136   4.389
  630TIP3    H1 1896   5.434   3.061   4.424
  630TIP3    H2 1897   5.572   3.122   4.419
  631TIP3   OH2 1898   4.779   4.639   0.283
  631TIP3    H1 1899   4.697   4.600   0.253
  631TIP3    H2 1900   4.839   4.566   0.292
  632TIP3   OH2 1901   3.273   0.802   4.560
  632TIP3    H1 1902   3.272   0.709   4.537
  632TIP3    H2 1903   3.363   0.818   4.589
  633TIP3   OH2 1904   2.668   5.342   4.562
  633TIP3    H1 1905   2.625   5.394   4.630
  633TIP3    H2 1906   2.619   5.361   4.482
  634TIP3   OH2 1907   5.499   3.767   0.730
  634TIP3    H1 1908   5.541   3.681   0.732
  634TIP3    H2 1909   5.407   3.749   0.712
  635TIP3   OH2 1910   3.344   0.593   0.738
  635TIP3    H1 1911   3.362   0.683   0.763
  635TIP3    H2 1912   3.392   0.580   0.657
  636TIP3   OH2 1913   4.588   2.530   2.490
  636TIP3    H1 1914   4.518   2.559   2.548
  636TIP3    H2 1915   4.574   2.435   2.481
  637TIP3   OH2 1916   2.084   4.704   1.322
  637TIP3    H1 1917   2.048   4.666   1.242
  637TIP3    H2 1918   2.007   4.726   1.374
  638TIP3   OH2 1919   2.680   3.949   4.734
  638TIP3    H1 1920   2.729   3.967   4.814
  638TIP3    H2 1921   2.682   4.031   4.686
  639TIP3   OH2 1922   5.373   0.492   3.870
  639TIP3    H1 1923   5.418   0.551   3.932
  639TIP3    H2 1924   5.400   0.405   3.897
  640TIP3   OH2 1925   5.701   3.386   2.965
  640TIP3    H1 1926   5.756   3.314   2.997
  640TIP3    H2 1927   5.738   3.464   3.007
  641TIP3   OH2 1928   1.610   5.185   0.653
  641TIP3    H1 1929   1.589   5.257   0.593
  641TIP3    H2 1930   1.550   5.115   0.627
  642TIP3   OH2 1931   5.617   3.791   0.224
  642TIP3    H1 1932   5.560   3.721   0.256
  642TIP3    H2 1933   5.703   3.750   0.217
  643TIP3   OH2 1934   3.022   4.635   4.713
  643TIP3    H1 1935   3.058   4.720   4.739
  643TIP3    H2 1936   3.055   4.620   4.625
  644TIP3   OH2 1937   3.129   3.557   2.603
  644TIP3    H1 1938   3.072   3.482   2.587
  644TIP3    H2 1939   3.099   3.593   2.687
  645TIP3   OH2 1940   4.081   2.258   2.556
  645TIP3    H1 1941   4.061   2.204   2.632
  645TIP3    H2 1942   4.127   2.200   2.496
  646TIP3   OH2 1943   6.308   1.873   0.570
  646TIP3    H1 1944   6.237   1.888   0.632
  646TIP3    H2 1945   6.388   1.891   0.619
  647TIP3   OH2 1946   6.184   3.990   0.498
  647TIP3    H1 1947   6.228   3.917   0.542
  647TIP3    H2 1948   6.092   3.982   0.522
  648TIP3   OH2 1949   4.466   3.096   4.758
  648TIP3    H1 1950   4.453   3.154   4.684
  648TIP3    H2 1951   4.405   3.024   4.744
  649TIP3   OH2 1952   2.667   3.858   1.148
  649TIP3    H1 1953   2.633   3.883   1.062
  649TIP3    H2 1954   2.590   3.856   1.205
  650TIP3   OH2 1955   5.899   5.853   2.198
  650TIP3    H1 1956   5.977   5.888   2.157
  650TIP3    H2 1957   5.838   5.927   2.202
  651TIP3   OH2 1958   5.823   0.074   4.506
  651TIP3    H1 1959   5.898   0.026   4.471
  651TIP3    H2 1960   5.782   0.012   4.567
  652TIP3   OH2 1961   1.691   4.411   3.951
  652TIP3    H1 1962   1.757   4.474   3.978
  652TIP3    H2 1963   1.712   4.390   3.860
  653TIP3   OH2 1964   2.969   1.183   2.268
  653TIP3    H1 1965   3.041   1.178   2.206
  653TIP3    H2 1966   3.002   1.237   2.340
  654TIP3   OH2 1967   0.646   2.860   4.157
  654TIP3    H1 1968   0.721   2.897   4.111
  654TIP3    H2 1969   0.683   2.790   4.211
  655TIP3   OH2 1970   0.054   1.265   0.662
  655TIP3    H1 1971   0.033   1.193   0.721
  655TIP3    H2 1972   0.027   1.235   0.575
  656TIP3   OH2 1973   1.522   2.202   0.937
  656TIP3    H1 1974   1.443   2.147   0.930
  656TIP3    H2 1975   1.556   2.184   1.024
  657TIP3   OH2 1976   3.736   2.318   2.198
  657TIP3    H1 1977   3.782   2.234   2.202
  657TIP3    H2 1978   3.807   2.383   2.195
  658TIP3   OH2 1979   2.057   0.513   1.909
  658TIP3    H1 1980   2.104   0.572   1.850
  658TIP3    H2 1981   2.037   0.567   1.985
  659TIP3   OH2 1982   3.563   1.355   3.429
  659TIP3    H1 1983   3.603   1.432   3.469
  659TIP3    H2 1984   3.637   1.301   3.401
  660TIP3   OH2 1985   4.243   2.016   1.849
  660TIP3    H1 1986   4.221   1.942   1.906
  660TIP3    H2 1987   4.163   2.069   1.847
  661TIP3   OH2 1988   1.645   3.616   3.118
  661TIP3    H1 1989   1.605   3.636   3.033
  661TIP3    H2 1990   1.602   3.676   3.179
  662TIP3   OH2 1991   5.742   1.721   0.418
  662TIP3    H1 1992   5.773   1.697   0.506
  662TIP3    H2 1993   5.744   1.639   0.369
  663TIP3   OH2 1994   3.793   5.425   4.024
  663TIP3    H1 1995   3.858   5.420   3.954
  663TIP3    H2 1996   3.730   5.490   3.994
  664TIP3   OH2 1997   1.467   5.280   0.251
  664TIP3    H1 1998   1.488   5.226   0.326
  664TIP3    H2 1999   1.383   5.247   0.220
  665TIP3   OH2 2000   3.171   0.089   2.776
  665TIP3    H1 2001   3.245   0.051   2.824
  665TIP3    H2 2002   3.170   0.181   2.802
  666TIP3   OH2 2003   5.471   4.626   1.253
  666TIP3    H1 2004   5.422   4.544   1.266
  666TIP3    H2 2005   5.555   4.610   1.297
  667TIP3   OH2 2006   4.174   3.626   1.302
  667TIP3    H1 2007   4.229   3.694   1.340
  667TIP3    H2 2008   4.111   3.604   1.372
  668TIP3   OH2 2009   5.236   1.072   2.858
  668TIP3    H1 2010   5.312   1.104   2.907
  668TIP3    H2 2011   5.255   0.979   2.845
  669TIP3   OH2 2012   2.287   1.497   4.913
  669TIP3    H1 2013   2.359   1.493   4.850
  669TIP3    H2 2014   2.215   1.539   4.865
  670TIP3   OH2 2015   0.132   0.322   4.540
  670TIP3    H1 2016   0.083   0.320   4.458
  670TIP3    H2 2017   0.221   0.297   4.515
  671TIP3   OH2 2018   1.914   1.718   4.011
  671TIP3    H1 2019   1.887   1.792   3.956
  671TIP3    H2 2020   1.990   1.750   4.060
  672TIP3   OH2 2021   6.276   3.061   3.837
  672TIP3    H1 2022   6.244   3.004   3.907
  672TIP3    H2 2023   6.370   3.070   3.854
  673TIP3   OH2 2024   5.207   5.477   1.646
  673TIP3    H1 2025   5.258   5.538   1.592
  673TIP3    H2 2026   5.241   5.490   1.735
  674TIP3   OH2 2027   4.370   4.755   0.225
  674TIP3    H1 2028   4.360   4.764   0.320
  674TIP3    H2 2029   4.320   4.829   0.189
  675TIP3   OH2 2030   2.180   0.169   0.318
  675TIP3    H1 2031   2.232   0.208   0.389
  675TIP3    H2 2032   2.199   0.075   0.323
  676TIP3   OH2 2033   3.314   3.316   1.647
  676TIP3    H1 2034   3.340   3.403   1.618
  676TIP3    H2 2035   3.395   3.265   1.646
  677TIP3   OH2 2036   1.678   5.223   3.671
  677TIP3    H1 2037   1.607   5.220   3.608
  677TIP3    H2 2038   1.710   5.132   3.676
  678TIP3   OH2 2039   2.556   4.766   0.244
  678TIP3    H1 2040   2.574   4.700   0.311
  678TIP3    H2 2041   2.592   4.848   0.280
  679TIP3   OH2 2042   4.568   2.768   5.067
  679TIP3    H1 2043   4.610   2.756   5.152
  679TIP3    H2 2044   4.512   2.845   5.078
  680TIP3   OH2 2045   5.166   0.181   5.033
  680TIP3    H1 2046   5.220   0.101   5.026
  680TIP3    H2 2047   5.220   0.250   4.995
  681TIP3   OH2 2048   2.569   2.952   2.809
  681TIP3    H1 2049   2.611   2.962   2.895
  681TIP3    H2 2050   2.634   2.905   2.756
  682TIP3   OH2 2051   1.004   3.004   4.903
  682TIP3    H1 2052   1.095   3.028   4.886
  682TIP3    H2 2053   1.000   2.990   4.998
  683TIP3   OH2 2054   5.075   3.579   4.877
  683TIP3    H1 2055   5.120   3.552   4.958
  683TIP3    H2 2056   5.144   3.579   4.811
  684TIP3   OH2 2057   1.525   0.397   1.362
  684TIP3    H1 2058   1.574   0.450   1.424
  684TIP3    H2 2059   1.539   0.307   1.391
  685TIP3   OH2 2060   0.443   0.478   3.957
  685TIP3    H1 2061   0.527   0.437   3.980
  685TIP3    H2 2062   0.422   0.443   3.870
  686TIP3   OH2 2063   1.770   0.622   4.093
  686TIP3    H1 2064   1.700   0.586   4.148
  686TIP3    H2 2065   1.809   0.692   4.146
  687TIP3   OH2 2066   1.537   4.476   2.544
  687TIP3    H1 2067   1.611   4.417   2.530
  687TIP3    H2 2068   1.459   4.422   2.526
  688TIP3   OH2 2069   0.435   1.103   3.603
  688TIP3    H1 2070   0.437   1.188   3.559
  688TIP3    H2 2071   0.527   1.075   3.607
  689TIP3   OH2 2072   1.219   2.894   4.232
  689TIP3    H1 2073   1.185   2.931   4.150
  689TIP3    H2 2074   1.175   2.945   4.300
  690TIP3   OH2 2075   2.479   5.802   4.081
  690TIP3    H1 2076   2.565   5.761   4.083
  690TIP3    H2 2077   2.418   5.733   4.109
  691TIP3   OH2 2078   1.337   2.802   4.827
  691TIP3    H1 2079   1.310   2.736   4.892
  691TIP3    H2 2080   1.363   2.751   4.750
  692TIP3   OH2 2081   4.038   2.778   1.048
  692TIP3    H1 2082   4.130   2.765   1.025
  692TIP3    H2 2083   4.000   2.823   0.972
  693TIP3   OH2 2084   2.344   4.973   1.965
  693TIP3    H1 2085   2.318   5.018   2.045
  693TIP3    H2 2086   2.424   5.017   1.937
  694TIP3   OH2 2087   5.718   4.363   2.309
  694TIP3    H1 2088   5.735   4.457   2.310
  694TIP3    H2 2089   5.701   4.340   2.400
  695TIP3   OH2 2090   0.955   2.239   3.377
  695TIP3    H1 2091   0.934   2.155   3.335
  695TIP3    H2 2092   0.897   2.302   3.335
  696TIP3   OH2 2093   6.241   1.990   3.232
  696TIP3    H1 2094   6.317   1.945   3.267
  696TIP3    H2 2095   6.227   2.064   3.291
  697TIP3   OH2 2096   3.115   5.701   0.179
  697TIP3    H1 2097   3.039   5.701   0.237
  697TIP3    H2 2098   3.132   5.609   0.160
  698TIP3   OH2 2099   4.939   5.648   0.065
  698TIP3    H1 2100   4.883   5.579   0.101
  698TIP3    H2 2101   5.018   5.646   0.120
  699TIP3   OH2 2102   2.926   5.253   0.231
  699TIP3    H1 2103   2.913   5.236   0.325
  699TIP3    H2 2104   2.915   5.168   0.190
  700TIP3   OH2 2105   2.338   5.813   1.128
  700TIP3    H1 2106   2.357   5.754   1.200
  700TIP3    H2 2107   2.410   5.877   1.130
  701TIP3   OH2 2108   6.011   2.187   2.935
  701TIP3    H1 2109   5.935   2.178   2.878
  701TIP3    H2 2110   6.045   2.274   2.917
  702TIP3   OH2 2111   3.430   0.573   2.840
  702TIP3    H1 2112   3.432   0.648   2.781
  702TIP3    H2 2113   3.517   0.534   2.833
  703TIP3   OH2 2114   2.746   3.911   0.761
  703TIP3    H1 2115   2.806   3.904   0.687
  703TIP3    H2 2116   2.787   3.974   0.820
  704TIP3   OH2 2117   3.674   3.615   2.795
  704TIP3    H1 2118   3.701   3.697   2.836
  704TIP3    H2 2119   3.708   3.547   2.852
  705TIP3   OH2 2120   3.378   3.194   2.045
  705TIP3    H1 2121   3.369   3.202   2.140
  705TIP3    H2 2122   3.459   3.241   2.024
  706TIP3   OH2 2123   0.760   3.371   3.184
  706TIP3    H1 2124   0.810   3.411   3.254
  706TIP3    H2 2125   0.676   3.418   3.184
  707TIP3   OH2 2126   3.025   0.134   4.600
  707TIP3    H1 2127   2.987   0.212   4.640
  707TIP3    H2 2128   2.953   0.093   4.552
  708TIP3   OH2 2129   3.045   5.893   4.667
  708TIP3    H1 2130   3.096   5.900   4.748
  708TIP3    H2 2131   2.982   5.823   4.685
  709TIP3   OH2 2132   0.105   3.202   2.637
  709TIP3    H1 2133   0.022   3.242   2.611
  709TIP3    H2 2134   0.093   3.109   2.620
  710TIP3   OH2 2135   0.914   1.891   4.715
  710TIP3    H1 2136   0.892   1.917   4.626
  710TIP3    H2 2137   0.949   1.970   4.756
  711TIP3   OH2 2138   2.093   0.957   4.864
  711TIP3    H1 2139   2.072   0.965   4.771
  711TIP3    H2 2140   2.126   1.043   4.888
  712TIP3   OH2 2141   2.883   4.455   0.751
  712TIP3    H1 2142   2.878   4.398   0.828
  712TIP3    H2 2143   2.839   4.406   0.682
  713TIP3   OH2 2144   5.375   0.052   4.227
  713TIP3    H1 2145   5.382   0.134   4.276
  713TIP3    H2 2146   5.345   0.078   4.140
  714TIP3   OH2 2147   1.789   2.844   4.288
  714TIP3    H1 2148   1.873   2.804   4.307
  714TIP3    H2 2149   1.806   2.939   4.290
  715TIP3   OH2 2150   3.112   0.731   0.623
  715TIP3    H1 2151   3.129   0.820   0.653
  715TIP3    H2 2152   3.184   0.679   0.658
  716TIP3   OH2 2153   3.912   1.518   1.701
  716TIP3    H1 2154   3.881   1.493   1.613
  716TIP3    H2 2155   4.003   1.491   1.702
  717TIP3   OH2 2156   1.718   0.968   3.497
  717TIP3    H1 2157   1.733   0.878   3.468
  717TIP3    H2 2158   1.806   1.007   3.500
  718TIP3   OH2 2159   2.393   0.856   4.235
  718TIP3    H1 2160   2.388   0.942   4.276
  718TIP3    H2 2161   2.312   0.811   4.260
  719TIP3   OH2 2162   2.005   4.153   1.031
  719TIP3    H1 2163   1.966   4.165   1.118
  719TIP3    H2 2164   2.064   4.228   1.021
  720TIP3   OH2 2165   3.959   4.995   2.307
  720TIP3    H1 2166   4.032   5.008   2.368
  720TIP3    H2 2167   3.881   5.021   2.356
  721TIP3   OH2 2168   5.191   5.825   0.049
  721TIP3    H1 2169   5.268   5.802  -0.004
  721TIP3    H2 2170   5.220   5.815   0.139
  722TIP3   OH2 2171   1.862   2.721   1.388
  722TIP3    H1 2172   1.769   2.735   1.404
  722TIP3    H2 2173   1.880   2.634   1.423
  723TIP3   OH2 2174   3.739   0.530   0.707
  723TIP3    H1 2175   3.728   0.438   0.729
  723TIP3    H2 2176   3.755   0.574   0.790
  724TIP3   OH2 2177   4.861   5.643   3.224
  724TIP3    H1 2178   4.918   5.720   3.233
  724TIP3    H2 2179   4.832   5.645   3.133
  725TIP3   OH2 2180   0.635   3.897   3.198
  725TIP3    H1 2181   0.553   3.859   3.168
  725TIP3    H2 2182   0.627   3.899   3.294
  726TIP3   OH2 2183   1.249   4.349   1.130
  726TIP3    H1 2184   1.197   4.394   1.063
  726TIP3    H2 2185   1.244   4.256   1.105
  727TIP3   OH2 2186   6.222   4.454   0.308
  727TIP3    H1 2187   6.216   4.365   0.273
  727TIP3    H2 2188   6.199   4.511   0.235
  728TIP3   OH2 2189   0.552   0.753   2.934
  728TIP3    H1 2190   0.591   0.675   2.896
  728TIP3    H2 2191   0.594   0.761   3.020
  729TIP3   OH2 2192   0.802   1.103   3.225
  729TIP3    H1 2193   0.780   1.054   3.146
  729TIP3    H2 2194   0.807   1.194   3.195
  730TIP3   OH2 2195   5.492   5.430   3.714
  730TIP3    H1 2196   5.588   5.428   3.708
  730TIP3    H2 2197   5.474   5.479   3.794
  731TIP3   OH2 2198   3.929   3.920   2.382
  731TIP3    H1 2199   4.000   3.981   2.363
  731TIP3    H2 2200   3.920   3.922   2.477
  732TIP3   OH2 2201   2.596   1.645   4.334
  732TIP3    H1 2202   2.538   1.627   4.259
  732TIP3    H2 2203   2.540   1.693   4.396
  733TIP3   OH2 2204   5.953   4.661   1.893
  733TIP3    H1 2205   6.024   4.663   1.957
  733TIP3    H2 2206   5.908   4.579   1.909
  734TIP3   OH2 2207   0.562   5.240   2.229
  734TIP3    H1 2208   0.532   5.149   2.225
  734TIP3    H2 2209   0.572   5.259   2.322
  735TIP3   OH2 2210   4.780   0.478   2.440
  735TIP3    H1 2211   4.684   0.481   2.442
  735TIP3    H2 2212   4.806   0.453   2.529
  736TIP3   OH2 2213   4.547   5.236   2.476
  736TIP3    H1 2214   4.499   5.154   2.478
  736TIP3    H2 2215   4.561   5.253   2.382
  737TIP3   OH2 2216   2.071   4.041   2.861
  737TIP3    H1 2217   2.121   4.083   2.790
  737TIP3    H2 2218   2.100   3.950   2.859
  738TIP3   OH2 2219   5.292   2.879   0.393
  738TIP3    H1 2220   5.347   2.907   0.466
  738TIP3    H2 2221   5.296   2.952   0.331
  739TIP3   OH2 2222   1.891   1.828   5.099
  739TIP3    H1 2223   1.901   1.792   5.188
  739TIP3    H2 2224   1.811   1.787   5.066
  740TIP3   OH2 2225   2.114   4.554   2.829
  740TIP3    H1 2226   2.056   4.477   2.829
  740TIP3    H2 2227   2.170   4.542   2.753
  741TIP3   OH2 2228   2.674   2.700   0.768
  741TIP3    H1 2229   2.687   2.645   0.846
  741TIP3    H2 2230   2.633   2.779   0.801
  742TIP3   OH2 2231   2.267   5.939   4.872
  742TIP3    H1 2232   2.206   5.899   4.809
  742TIP3    H2 2233   2.352   5.903   4.849
  743TIP3   OH2 2234   3.196   0.813   4.974
  743TIP3    H1 2235   3.249   0.889   4.999
  743TIP3    H2 2236   3.239   0.740   5.019
  744TIP3   OH2 2237   1.473   5.869   0.370
  744TIP3    H1 2238   1.530   5.824   0.308
  744TIP3    H2 2239   1.475   5.815   0.449
  745TIP3   OH2 2240   5.592   1.589   2.415
  745TIP3    H1 2241   5.592   1.684   2.415
  745TIP3    H2 2242   5.501   1.564   2.433
  746TIP3   OH2 2243   3.499   3.209   3.677
  746TIP3    H1 2244   3.454   3.212   3.761
  746TIP3    H2 2245   3.489   3.118   3.647
  747TIP3   OH2 2246   1.749   2.913   1.885
  747TIP3    H1 2247   1.834   2.938   1.849
  747TIP3    H2 2248   1.688   2.979   1.852
  748TIP3   OH2 2249   4.575   5.840   4.055
  748TIP3    H1 2250   4.572   5.870   4.146
  748TIP3    H2 2251   4.664   5.858   4.027
  749TIP3   OH2 2252   0.400   1.193   4.970
  749TIP3    H1 2253   0.305   1.205   4.970
  749TIP3    H2 2254   0.434   1.278   4.999
  750TIP3   OH2 2255   4.938   2.592   1.914
  750TIP3    H1 2256   4.877   2.519   1.923
  750TIP3    H2 2257   4.888   2.668   1.946
  751TIP3   OH2 2258   1.408   3.459   4.130
  751TIP3    H1 2259   1.409   3.506   4.046
  751TIP3    H2 2260   1.371   3.521   4.192
  752TIP3   OH2 2261   6.063   5.361   0.259
  752TIP3    H1 2262   6.102   5.420   0.195
  752TIP3    H2 2263   6.040   5.418   0.333
  753TIP3   OH2 2264   4.630   2.282   4.598
  753TIP3    H1 2265   4.575   2.315   4.527
  753TIP3    H2 2266   4.710   2.334   4.591
  754TIP3   OH2 2267   6.112   5.170   3.908
  754TIP3    H1 2268   6.091   5.258   3.878
  754TIP3    H2 2269   6.041   5.148   3.969
  755TIP3   OH2 2270   3.794   0.868   1.921
  755TIP3    H1 2271   3.778   0.939   1.984
  755TIP3    H2 2272   3.706   0.837   1.898
  756TIP3   OH2 2273   0.178   3.832   0.654
  756TIP3    H1 2274   0.140   3.918   0.673
  756TIP3    H2 2275   0.183   3.789   0.739
  757TIP3   OH2 2276   5.167   3.120   4.440
  757TIP3    H1 2277   5.174   3.125   4.344
  757TIP3    H2 2278   5.226   3.188   4.472
  758TIP3   OH2 2279   2.477   4.792   2.198
  758TIP3    H1 2280   2.426   4.855   2.248
  758TIP3    H2 2281   2.466   4.818   2.107
  759TIP3   OH2 2282   0.159   1.707   1.418
  759TIP3    H1 2283   0.067   1.710   1.390
  759TIP3    H2 2284   0.194   1.793   1.394
  760TIP3   OH2 2285   1.053   1.392   0.179
  760TIP3    H1 2286   0.988   1.405   0.110
  760TIP3    H2 2287   1.119   1.336   0.139
  761TIP3   OH2 2288   0.713   3.797   3.965
  761TIP3    H1 2289   0.750   3.758   4.044
  761TIP3    H2 2290   0.624   3.763   3.960
  762TIP3   OH2 2291   1.731   4.842   3.072
  762TIP3    H1 2292   1.809   4.836   3.126
  762TIP3    H2 2293   1.752   4.791   2.994
  763TIP3   OH2 2294   2.855   2.082   4.928
  763TIP3    H1 2295   2.912   2.027   4.875
  763TIP3    H2 2296   2.861   2.045   5.016
  764TIP3   OH2 2297   0.982   2.468   4.694
  764TIP3    H1 2298   0.965   2.554   4.732
  764TIP3    H2 2299   1.010   2.414   4.767
  765TIP3   OH2 2300   0.552   1.924   4.232
  765TIP3    H1 2301   0.549   1.890   4.322
  765TIP3    H2 2302   0.504   1.859   4.181
  766TIP3   OH2 2303   0.856   1.816   2.299
  766TIP3    H1 2304   0.941   1.841   2.333
  766TIP3    H2 2305   0.868   1.726   2.268
  767TIP3   OH2 2306   0.090   2.475   2.637
  767TIP3    H1 2307   0.165   2.421   2.658
  767TIP3    H2 2308   0.043   2.484   2.721
  768TIP3   OH2 2309   2.529   5.457   4.332
  768TIP3    H1 2310   2.559   5.418   4.250
  768TIP3    H2 2311   2.476   5.532   4.306
  769TIP3   OH2 2312   3.015   4.921   0.871
  769TIP3    H1 2313   2.971   4.837   0.882
  769TIP3    H2 2314   2.978   4.976   0.940
  770TIP3   OH2 2315   2.676   3.959   0.397
  770TIP3    H1 2316   2.759   3.947   0.445
  770TIP3    H2 2317   2.637   4.036   0.439
  771TIP3   OH2 2318   0.179   0.934   1.289
  771TIP3    H1 2319   0.148   1.024   1.280
  771TIP3    H2 2320   0.267   0.942   1.323
  772TIP3   OH2 2321   3.387   0.929   2.212
  772TIP3    H1 2322   3.389   0.834   2.217
  772TIP3    H2 2323   3.368   0.958   2.301
  773TIP3   OH2 2324   1.098   1.143   3.327
  773TIP3    H1 2325   1.142   1.182   3.251
  773TIP3    H2 2326   1.005   1.142   3.303
  774TIP3   OH2 2327   5.927   1.785   4.951
  774TIP3    H1 2328   6.011   1.818   4.919
  774TIP3    H2 2329   5.949   1.734   5.029
  775TIP3   OH2 2330   6.247   2.876   2.940
  775TIP3    H1 2331   6.267   2.783   2.928
  775TIP3    H2 2332   6.220   2.905   2.852
  776TIP3   OH2 2333   5.671   2.378   4.667
  776TIP3    H1 2334   5.631   2.291   4.674
  776TIP3    H2 2335   5.694   2.387   4.574
  777TIP3   OH2 2336   6.102   0.346   4.591
  777TIP3    H1 2337   6.083   0.380   4.503
  777TIP3    H2 2338   6.042   0.272   4.601
  778TIP3   OH2 2339   3.837   2.636   0.616
  778TIP3    H1 2340   3.895   2.627   0.692
  778TIP3    H2 2341   3.751   2.655   0.654
  779TIP3   OH2 2342   0.224   2.031   5.151
  779TIP3    H1 2343   0.303   2.052   5.102
  779TIP3    H2 2344   0.217   2.099   5.217
  780TIP3   OH2 2345   4.472   4.491   2.412
  780TIP3    H1 2346   4.554   4.524   2.448
  780TIP3    H2 2347   4.405   4.551   2.443
  781TIP3   OH2 2348   0.769   2.971   5.070
  781TIP3    H1 2349   0.833   2.980   5.141
  781TIP3    H2 2350   0.809   3.017   4.996
  782TIP3   OH2 2351   0.288   4.437   3.828
  782TIP3    H1 2352   0.209   4.411   3.874
  782TIP3    H2 2353   0.296   4.374   3.757
  783TIP3   OH2 2354   2.007   4.304   0.232
  783TIP3    H1 2355   2.090   4.285   0.188
  783TIP3    H2 2356   2.031   4.361   0.306
  784TIP3   OH2 2357   2.937   2.153   0.759
  784TIP3    H1 2358   2.902   2.072   0.722
  784TIP3    H2 2359   3.001   2.183   0.695
  785TIP3   OH2 2360   1.675   2.373   5.073
  785TIP3    H1 2361   1.758   2.420   5.073
  785TIP3    H2 2362   1.666   2.341   5.163
  786TIP3   OH2 2363   2.820   4.868   4.574
  786TIP3    H1 2364   2.906   4.827   4.581
  786TIP3    H2 2365   2.770   4.807   4.519
  787TIP3   OH2 2366   4.273   4.233   5.068
  787TIP3    H1 2367   4.178   4.224   5.057
  787TIP3    H2 2368   4.301   4.149   5.104
  788TIP3   OH2 2369   0.189   3.604   3.547
  788TIP3    H1 2370   0.167   3.637   3.634
  788TIP3    H2 2371   0.107   3.565   3.515
  789TIP3   OH2 2372   4.842   3.723   4.113
  789TIP3    H1 2373   4.892   3.782   4.169
  789TIP3    H2 2374   4.764   3.773   4.089
  790TIP3   OH2 2375   2.223   5.163   3.504
  790TIP3    H1 2376   2.260   5.241   3.545
  790TIP3    H2 2377   2.226   5.182   3.410
  791TIP3   OH2 2378   0.643   0.203   4.792
  791TIP3    H1 2379   0.579   0.172   4.856
  791TIP3    H2 2380   0.630   0.146   4.716
  792TIP3   OH2 2381   1.512   3.137   0.389
  792TIP3    H1 2382   1.493   3.216   0.338
  792TIP3    H2 2383   1.577   3.166   0.454
  793TIP3   OH2 2384   1.883   4.740   4.877
  793TIP3    H1 2385   1.849   4.786   4.954
  793TIP3    H2 2386   1.973   4.771   4.868
  794TIP3   OH2 2387   0.374   4.027   2.920
  794TIP3    H1 2388   0.314   3.982   2.979
  794TIP3    H2 2389   0.422   4.088   2.976
  795TIP3   OH2 2390   3.735   0.254   2.051
  795TIP3    H1 2391   3.640   0.269   2.053
  795TIP3    H2 2392   3.772   0.336   2.019
  796TIP3   OH2 2393   6.136   4.085   2.429
  796TIP3    H1 2394   6.170   4.170   2.457
  796TIP3    H2 2395   6.054   4.106   2.384
  797TIP3   OH2 2396   5.483   5.775   2.398
  797TIP3    H1 2397   5.539   5.746   2.326
  797TIP3    H2 2398   5.495   5.709   2.466
  798TIP3   OH2 2399   1.926   3.373   3.516
  798TIP3    H1 2400   1.900   3.456   3.476
  798TIP3    H2 2401   1.911   3.308   3.448
  799TIP3   OH2 2402   4.300   3.448   0.108
  799TIP3    H1 2403   4.285   3.426   0.016
  799TIP3    H2 2404   4.244   3.387   0.157
  800TIP3   OH2 2405   3.539   0.921   4.560
  800TIP3    H1 2406   3.585   0.840   4.580
  800TIP3    H2 2407   3.564   0.942   4.470
  801TIP3   OH2 2408   6.094   5.226   1.456
  801TIP3    H1 2409   6.007   5.227   1.416
  801TIP3    H2 2410   6.106   5.315   1.490
  802TIP3   OH2 2411   3.505   5.946   4.673
  802TIP3    H1 2412   3.518   5.856   4.644
  802TIP3    H2 2413   3.517   5.943   4.768
  803TIP3   OH2 2414   0.565   3.827   4.699
  803TIP3    H1 2415   0.620   3.757   4.735
  803TIP3    H2 2416   0.563   3.894   4.768
  804TIP3   OH2 2417   5.521   2.137   4.718
  804TIP3    H1 2418   5.562   2.052   4.699
  804TIP3    H2 2419   5.441   2.114   4.765
  805TIP3   OH2 2420   0.715   5.307   1.738
  805TIP3    H1 2421   0.693   5.301   1.831
  805TIP3    H2 2422   0.808   5.331   1.737
  806TIP3   OH2 2423  -0.007   1.433   1.780
  806TIP3    H1 2424  -0.019   1.340   1.763
  806TIP3    H2 2425   0.072   1.456   1.731
  807TIP3   OH2 2426   4.325   1.888   2.612
  807TIP3    H1 2427   4.294   1.829   2.681
  807TIP3    H2 2428   4.415   1.861   2.596
  808TIP3   OH2 2429   3.381   5.397   3.853
  808TIP3    H1 2430   3.389   5.345   3.933
  808TIP3    H2 2431   3.384   5.488   3.882
  809TIP3   OH2 2432   3.797   2.240   3.235
  809TIP3    H1 2433   3.722   2.222   3.291
  809TIP3    H2 2434   3.838   2.317   3.274
  810TIP3   OH2 2435   3.078   4.206   1.338
  810TIP3    H1 2436   3.126   4.159   1.406
  810TIP3    H2 2437   3.080   4.147   1.262
  811TIP3   OH2 2438   0.564   5.554   4.116
  811TIP3    H1 2439   0.470   5.539   4.101
  811TIP3    H2 2440   0.567   5.635   4.168
  812TIP3   OH2 2441   3.392   3.166   2.880
  812TIP3    H1 2442   3.447   3.089   2.872
  812TIP3    H2 2443   3.327   3.157   2.810
  813TIP3   OH2 2444   0.402   3.095   2.103
  813TIP3    H1 2445   0.356   3.174   2.133
  813TIP3    H2 2446   0.386   3.031   2.171
  814TIP3   OH2 2447   4.877   4.425   2.212
  814TIP3    H1 2448   4.807   4.398   2.153
  814TIP3    H2 2449   4.940   4.353   2.209
  815TIP3   OH2 2450   4.137   5.199   3.653
  815TIP3    H1 2451   4.078   5.187   3.579
  815TIP3    H2 2452   4.203   5.130   3.643
  816TIP3   OH2 2453   3.144   1.782   2.393
  816TIP3    H1 2454   3.231   1.814   2.414
  816TIP3    H2 2455   3.123   1.822   2.309
  817TIP3   OH2 2456   4.586   1.608   0.107
  817TIP3    H1 2457   4.538   1.613   0.189
  817TIP3    H2 2458   4.519   1.605   0.039
  818TIP3   OH2 2459   5.153   0.770   4.289
  818TIP3    H1 2460   5.163   0.858   4.327
  818TIP3    H2 2461   5.217   0.766   4.219
  819TIP3   OH2 2462   5.462   5.761   3.620
  819TIP3    H1 2463   5.488   5.832   3.678
  819TIP3    H2 2464   5.517   5.772   3.542
  820TIP3   OH2 2465   5.628   4.369   3.606
  820TIP3    H1 2466   5.721   4.348   3.619
  820TIP3    H2 2467   5.583   4.285   3.616
  821TIP3   OH2 2468   0.691   2.954   1.924
  821TIP3    H1 2469   0.660   2.884   1.981
  821TIP3    H2 2470   0.769   2.919   1.882
  822TIP3   OH2 2471   2.174   3.928   1.073
  822TIP3    H1 2472   2.095   3.981   1.061
  822TIP3    H2 2473   2.243   3.993   1.088
  823TIP3   OH2 2474   0.787   5.421   2.731
  823TIP3    H1 2475   0.806   5.414   2.637
  823TIP3    H2 2476   0.709   5.368   2.744
  824TIP3   OH2 2477   1.712   3.831   1.220
  824TIP3    H1 2478   1.689   3.924   1.223
  824TIP3    H2 2479   1.748   3.818   1.132
  825TIP3   OH2 2480   5.454   4.029   0.593
  825TIP3    H1 2481   5.494   3.948   0.625
  825TIP3    H2 2482   5.469   4.027   0.498
  826TIP3   OH2 2483   2.858   3.155   3.218
  826TIP3    H1 2484   2.881   3.162   3.125
  826TIP3    H2 2485   2.787   3.091   3.221
  827TIP3   OH2 2486   1.131   2.165   0.493
  827TIP3    H1 2487   1.084   2.228   0.547
  827TIP3    H2 2488   1.064   2.103   0.464
  828TIP3   OH2 2489   3.008   4.499   4.156
  828TIP3    H1 2490   2.938   4.433   4.156
  828TIP3    H2 2491   3.086   4.450   4.130
  829TIP3   OH2 2492   6.012   5.482   0.504
  829TIP3    H1 2493   5.988   5.571   0.530
  829TIP3    H2 2494   6.083   5.458   0.564
  830TIP3   OH2 2495   1.770   5.100   4.893
  830TIP3    H1 2496   1.825   5.040   4.943
  830TIP3    H2 2497   1.828   5.135   4.825
  831TIP3   OH2 2498   2.250   5.142   1.513
  831TIP3    H1 2499   2.205   5.133   1.429
  831TIP3    H2 2500   2.197   5.205   1.562
  832TIP3   OH2 2501   5.669   4.184   1.224
  832TIP3    H1 2502   5.654   4.215   1.134
  832TIP3    H2 2503   5.744   4.125   1.217
  833TIP3   OH2 2504   3.876   5.794   4.510
  833TIP3    H1 2505   3.808   5.763   4.450
  833TIP3    H2 2506   3.953   5.740   4.490
  834TIP3   OH2 2507   1.536   2.169   0.476
  834TIP3    H1 2508   1.504   2.085   0.508
  834TIP3    H2 2509   1.592   2.202   0.547
  835TIP3   OH2 2510   4.453   3.704   3.091
  835TIP3    H1 2511   4.379   3.697   3.032
  835TIP3    H2 2512   4.528   3.721   3.035
  836TIP3   OH2 2513   1.307   4.083   0.503
  836TIP3    H1 2514   1.323   4.162   0.555
  836TIP3    H2 2515   1.287   4.015   0.566
  837TIP3   OH2 2516   6.030   0.736   1.903
  837TIP3    H1 2517   6.103   0.743   1.965
  837TIP3    H2 2518   5.966   0.800   1.934
  838TIP3   OH2 2519   5.746   5.071   2.090
  838TIP3    H1 2520   5.697   5.123   2.026
  838TIP3    H2 2521   5.704   5.091   2.174
  839TIP3   OH2 2522   1.083   0.460   4.882
  839TIP3    H1 2523   1.040   0.541   4.909
  839TIP3    H2 2524   1.012   0.397   4.872
  840TIP3   OH2 2525   3.250   2.069   3.939
  840TIP3    H1 2526   3.186   2.001   3.962
  840TIP3    H2 2527   3.203   2.128   3.880
  841TIP3   OH2 2528   0.935   1.038   0.985
  841TIP3    H1 2529   0.993   0.966   0.959
  841TIP3    H2 2530   0.881   1.055   0.908
  842TIP3   OH2 2531   6.087   2.875   2.141
  842TIP3    H1 2532   6.069   2.788   2.177
  842TIP3    H2 2533   6.177   2.868   2.107
  843TIP3   OH2 2534   3.535   3.890   2.183
  843TIP3    H1 2535   3.464   3.828   2.167
  843TIP3    H2 2536   3.526   3.956   2.114
  844TIP3   OH2 2537   3.535   2.328   1.935
  844TIP3    H1 2538   3.464   2.284   1.889
  844TIP3    H2 2539   3.531   2.294   2.024
  845TIP3   OH2 2540   0.691   5.741   4.797
  845TIP3    H1 2541   0.615   5.729   4.740
  845TIP3    H2 2542   0.686   5.833   4.824
  846TIP3   OH2 2543   1.019   0.206   0.404
  846TIP3    H1 2544   1.086   0.189   0.338
  846TIP3    H2 2545   1.066   0.207   0.487
  847TIP3   OH2 2546   6.333   1.826   4.537
  847TIP3    H1 2547   6.293   1.762   4.478
  847TIP3    H2 2548   6.412   1.856   4.491
  848TIP3   OH2 2549   2.235   5.077   4.018
  848TIP3    H1 2550   2.176   5.009   4.051
  848TIP3    H2 2551   2.300   5.089   4.088
  849TIP3   OH2 2552   2.001   0.729   2.432
  849TIP3    H1 2553   1.919   0.712   2.479
  849TIP3    H2 2554   2.026   0.818   2.457
  850TIP3   OH2 2555   2.117   1.534   1.530
  850TIP3    H1 2556   2.200   1.514   1.573
  850TIP3    H2 2557   2.082   1.449   1.505
  851TIP3   OH2 2558   1.253   2.373   0.328
  851TIP3    H1 2559   1.233   2.303   0.390
  851TIP3    H2 2560   1.198   2.446   0.356
  852TIP3   OH2 2561   5.144   5.888   0.510
  852TIP3    H1 2562   5.142   5.834   0.432
  852TIP3    H2 2563   5.236   5.884   0.539
  853TIP3   OH2 2564   2.008   2.782   2.248
  853TIP3    H1 2565   1.931   2.817   2.292
  853TIP3    H2 2566   2.079   2.793   2.312
  854TIP3   OH2 2567   0.250   0.619   3.317
  854TIP3    H1 2568   0.200   0.560   3.373
  854TIP3    H2 2569   0.281   0.688   3.375
  855TIP3   OH2 2570  -0.040   1.953   5.075
  855TIP3    H1 2571   0.051   1.964   5.104
  855TIP3    H2 2572  -0.069   1.871   5.116
  856TIP3   OH2 2573   1.527   3.219   3.668
  856TIP3    H1 2574   1.549   3.300   3.714
  856TIP3    H2 2575   1.612   3.180   3.646
  857TIP3   OH2 2576   5.952   3.443   2.422
  857TIP3    H1 2577   5.930   3.354   2.396
  857TIP3    H2 2578   5.947   3.494   2.341
  858TIP3   OH2 2579   0.533   1.259   1.572
  858TIP3    H1 2580   0.516   1.351   1.592
  858TIP3    H2 2581   0.553   1.219   1.657
  859TIP3   OH2 2582   1.648   1.004   1.617
  859TIP3    H1 2583   1.631   0.995   1.524
  859TIP3    H2 2584   1.650   0.914   1.650
  860TIP3   OH2 2585   3.011   0.565   0.362
  860TIP3    H1 2586   2.966   0.639   0.403
  860TIP3    H2 2587   2.999   0.493   0.424
  861TIP3   OH2 2588   1.153   2.029   1.353
  861TIP3    H1 2589   1.192   2.031   1.266
  861TIP3    H2 2590   1.194   1.954   1.396
  862TIP3   OH2 2591   6.238   4.830   1.588
  862TIP3    H1 2592   6.223   4.920   1.617
  862TIP3    H2 2593   6.325   4.833   1.547
  863TIP3   OH2 2594   2.078   3.561   4.769
  863TIP3    H1 2595   2.079   3.469   4.795
  863TIP3    H2 2596   2.127   3.564   4.687
  864TIP3   OH2 2597   3.855   5.166   4.436
  864TIP3    H1 2598   3.903   5.090   4.470
  864TIP3    H2 2599   3.820   5.136   4.352
  865TIP3   OH2 2600   1.988   1.052   3.216
  865TIP3    H1 2601   1.908   1.042   3.165
  865TIP3    H2 2602   2.018   1.140   3.195
  866TIP3   OH2 2603   4.659   3.258   2.226
  866TIP3    H1 2604   4.624   3.345   2.244
  866TIP3    H2 2605   4.587   3.199   2.248
  867TIP3   OH2 2606   4.201   1.893   4.874
  867TIP3    H1 2607   4.221   1.812   4.828
  867TIP3    H2 2608   4.281   1.913   4.923
  868TIP3   OH2 2609   5.060   2.721   0.752
  868TIP3    H1 2610   5.147   2.758   0.735
  868TIP3    H2 2611   5.077   2.642   0.802
  869TIP3   OH2 2612   0.803   2.640   4.048
  869TIP3    H1 2613   0.882   2.634   3.994
  869TIP3    H2 2614   0.731   2.626   3.986
  870TIP3   OH2 2615   3.797   4.362   0.540
  870TIP3    H1 2616   3.868   4.363   0.604
  870TIP3    H2 2617   3.773   4.269   0.533
  871TIP3   OH2 2618   0.796   0.176   3.346
  871TIP3    H1 2619   0.809   0.242   3.278
  871TIP3    H2 2620   0.784   0.094   3.298
  872TIP3   OH2 2621   3.679   5.576   1.744
  872TIP3    H1 2622   3.722   5.491   1.745
  872TIP3    H2 2623   3.644   5.584   1.655
  873TIP3   OH2 2624   2.172   5.382   4.907
  873TIP3    H1 2625   2.178   5.418   4.995
  873TIP3    H2 2626   2.148   5.290   4.920
  874TIP3   OH2 2627   5.344   5.625   4.438
  874TIP3    H1 2628   5.306   5.709   4.411
  874TIP3    H2 2629   5.288   5.560   4.396
  875TIP3   OH2 2630   3.759   5.774   4.923
  875TIP3    H1 2631   3.697   5.729   4.866
  875TIP3    H2 2632   3.705   5.829   4.979
  876TIP3   OH2 2633   1.350   1.934   4.708
  876TIP3    H1 2634   1.317   1.874   4.641
  876TIP3    H2 2635   1.276   1.992   4.726
  877TIP3   OH2 2636   1.883   5.019   1.552
  877TIP3    H1 2637   1.875   4.925   1.532
  877TIP3    H2 2638   1.963   5.046   1.508
  878TIP3   OH2 2639   1.123   2.680   2.525
  878TIP3    H1 2640   1.075   2.599   2.543
  878TIP3    H2 2641   1.213   2.662   2.550
  879TIP3   OH2 2642   0.515   3.218   1.470
  879TIP3    H1 2643   0.552   3.244   1.386
  879TIP3    H2 2644   0.500   3.124   1.462
  880TIP3   OH2 2645   1.358   5.576   4.786
  880TIP3    H1 2646   1.329   5.507   4.845
  880TIP3    H2 2647   1.443   5.602   4.819
  881TIP3   OH2 2648   4.861   0.940   2.562
  881TIP3    H1 2649   4.898   0.999   2.627
  881TIP3    H2 2650   4.929   0.874   2.547
  882TIP3   OH2 2651   3.099   5.585   0.872
  882TIP3    H1 2652   3.153   5.660   0.847
  882TIP3    H2 2653   3.113   5.521   0.804
  883TIP3   OH2 2654   5.784   0.971   4.003
  883TIP3    H1 2655   5.842   0.897   3.986
  883TIP3    H2 2656   5.756   0.959   4.094
  884TIP3   OH2 2657   1.440   2.561   4.277
  884TIP3    H1 2658   1.457   2.648   4.314
  884TIP3    H2 2659   1.375   2.523   4.336
  885TIP3   OH2 2660   4.871   0.587   3.509
  885TIP3    H1 2661   4.901   0.639   3.583
  885TIP3    H2 2662   4.797   0.635   3.474
  886TIP3   OH2 2663   1.317   2.521   4.846
  886TIP3    H1 2664   1.379   2.457   4.883
  886TIP3    H2 2665   1.266   2.470   4.782
  887TIP3   OH2 2666   3.944   1.784   1.730
  887TIP3    H1 2667   3.929   1.693   1.707
  887TIP3    H2 2668   3.941   1.831   1.647
  888TIP3   OH2 2669   4.590   4.585   3.973
  888TIP3    H1 2670   4.520   4.630   4.020
  888TIP3    H2 2671   4.658   4.569   4.039
  889TIP3   OH2 2672   4.059   4.375   3.256
  889TIP3    H1 2673   4.052   4.303   3.194
  889TIP3    H2 2674   4.138   4.422   3.230
  890TIP3   OH2 2675   0.440   3.140   0.562
  890TIP3    H1 2676   0.502   3.191   0.614
  890TIP3    H2 2677   0.495   3.091   0.500
  891TIP3   OH2 2678   4.036   3.179   0.953
  891TIP3    H1 2679   3.980   3.255   0.970
  891TIP3    H2 2680   3.977   3.104   0.961
  892TIP3   OH2 2681   3.583   4.959   4.987
  892TIP3    H1 2682   3.619   4.989   4.903
  892TIP3    H2 2683   3.579   5.038   5.041
  893TIP3   OH2 2684   0.342   5.188   3.608
  893TIP3    H1 2685   0.367   5.136   3.684
  893TIP3    H2 2686   0.292   5.128   3.553
  894TIP3   OH2 2687   2.399   1.443   0.021
  894TIP3    H1 2688   2.390   1.361   0.068
  894TIP3    H2 2689   2.411   1.509   0.089
  895TIP3   OH2 2690   1.802   2.082   2.124
  895TIP3    H1 2691   1.789   2.114   2.035
  895TIP3    H2 2692   1.760   1.996   2.126
  896TIP3   OH2 2693   2.607   5.157   4.066
  896TIP3    H1 2694   2.575   5.072   4.097
  896TIP3    H2 2695   2.699   5.141   4.043
  897TIP3   OH2 2696   2.482   2.975   0.777
  897TIP3    H1 2697   2.475   2.979   0.681
  897TIP3    H2 2698   2.392   2.980   0.808
  898TIP3   OH2 2699   3.475   5.144   0.930
  898TIP3    H1 2700   3.401   5.088   0.954
  898TIP3    H2 2701   3.513   5.170   1.014
  899TIP3   OH2 2702   3.273   0.351   2.669
  899TIP3    H1 2703   3.311   0.402   2.740
  899TIP3    H2 2704   3.185   0.387   2.657
  900TIP3   OH2 2705   0.434   1.676   2.906
  900TIP3    H1 2706   0.475   1.655   2.822
  900TIP3    H2 2707   0.452   1.769   2.919
  901TIP3   OH2 2708   3.242   3.105   1.510
  901TIP3    H1 2709   3.241   3.191   1.551
  901TIP3    H2 2710   3.313   3.058   1.553
  902TIP3   OH2 2711   0.076   4.463   2.385
  902TIP3    H1 2712   0.080   4.490   2.293
  902TIP3    H2 2713   0.168   4.460   2.412
  903TIP3   OH2 2714   2.245   2.763   3.871
  903TIP3    H1 2715   2.281   2.774   3.783
  903TIP3    H2 2716   2.178   2.696   3.862
  904TIP3   OH2 2717   4.280   3.828   1.884
  904TIP3    H1 2718   4.227   3.750   1.865
  904TIP3    H2 2719   4.281   3.877   1.802
  905TIP3   OH2 2720   5.100   5.036   1.232
  905TIP3    H1 2721   5.165   4.969   1.213
  905TIP3    H2 2722   5.133   5.114   1.187
  906TIP3   OH2 2723   2.412   5.674   1.772
  906TIP3    H1 2724   2.418   5.583   1.801
  906TIP3    H2 2725   2.322   5.700   1.792
  907TIP3   OH2 2726   1.660   1.713   5.001
  907TIP3    H1 2727   1.568   1.691   5.008
  907TIP3    H2 2728   1.695   1.652   4.936
  908TIP3   OH2 2729   1.910   2.444   1.437
  908TIP3    H1 2730   1.969   2.405   1.373
  908TIP3    H2 2731   1.912   2.384   1.511
  909TIP3   OH2 2732   5.060   2.489   1.622
  909TIP3    H1 2733   5.107   2.545   1.684
  909TIP3    H2 2734   4.991   2.545   1.586
  910TIP3   OH2 2735   5.634   1.908   4.637
  910TIP3    H1 2736   5.719   1.868   4.652
  910TIP3    H2 2737   5.650   1.974   4.570
  911TIP3   OH2 2738   3.466   2.196   2.555
  911TIP3    H1 2739   3.403   2.268   2.545
  911TIP3    H2 2740   3.450   2.161   2.643
  912TIP3   OH2 2741   5.016   0.332   4.304
  912TIP3    H1 2742   5.005   0.387   4.227
  912TIP3    H2 2743   5.068   0.385   4.364
  913TIP3   OH2 2744   0.824   5.903   1.307
  913TIP3    H1 2745   0.787   5.822   1.341
  913TIP3    H2 2746   0.876   5.938   1.380
  914TIP3   OH2 2747   5.802   2.550   3.016
  914TIP3    H1 2748   5.786   2.644   3.022
  914TIP3    H2 2749   5.718   2.512   2.989
  915TIP3   OH2 2750   4.203   3.223   4.587
  915TIP3    H1 2751   4.286   3.191   4.553
  915TIP3    H2 2752   4.226   3.266   4.670
  916TIP3   OH2 2753   4.915   0.989  -0.005
  916TIP3    H1 2754   4.879   1.062   0.045
  916TIP3    H2 2755   4.876   0.911   0.036
  917TIP3   OH2 2756   2.269   1.103   4.263
  917TIP3    H1 2757   2.327   1.100   4.188
  917TIP3    H2 2758   2.185   1.134   4.228
  918TIP3   OH2 2759   1.650   1.104   3.758
  918TIP3    H1 2760   1.623   1.118   3.667
  918TIP3    H2 2761   1.692   1.019   3.757
  919TIP3   OH2 2762   0.264   2.201   4.159
  919TIP3    H1 2763   0.237   2.288   4.129
  919TIP3    H2 2764   0.338   2.179   4.104
  920TIP3   OH2 2765   5.484   2.441   2.138
  920TIP3    H1 2766   5.404   2.396   2.110
  920TIP3    H2 2767   5.510   2.492   2.061
  921TIP3   OH2 2768   5.648   0.425   0.039
  921TIP3    H1 2769   5.717   0.483   0.007
  921TIP3    H2 2770   5.591   0.411  -0.036
  922TIP3   OH2 2771   0.170   3.187   0.504
  922TIP3    H1 2772   0.265   3.188   0.516
  922TIP3    H2 2773   0.138   3.127   0.571
  923TIP3   OH2 2774   5.648   5.360   2.998
  923TIP3    H1 2775   5.612   5.447   3.013
  923TIP3    H2 2776   5.577   5.300   3.020
  924TIP3   OH2 2777   1.534   4.112   2.674
  924TIP3    H1 2778   1.586   4.110   2.755
  924TIP3    H2 2779   1.543   4.024   2.638
  925TIP3   OH2 2780   4.830   5.893   4.004
  925TIP3    H1 2781   4.836   5.937   3.919
  925TIP3    H2 2782   4.899   5.932   4.056
  926TIP3   OH2 2783   5.846   4.709   3.619
  926TIP3    H1 2784   5.836   4.710   3.714
  926TIP3    H2 2785   5.843   4.802   3.594
  927TIP3   OH2 2786   4.237   3.498   4.504
  927TIP3    H1 2787   4.205   3.504   4.594
  927TIP3    H2 2788   4.207   3.413   4.474
  928TIP3   OH2 2789   5.121   3.803   1.637
  928TIP3    H1 2790   5.056   3.740   1.667
  928TIP3    H2 2791   5.072   3.883   1.621
  929TIP3   OH2 2792   1.332   1.893   2.236
  929TIP3    H1 2793   1.410   1.843   2.215
  929TIP3    H2 2794   1.330   1.964   2.171
  930TIP3   OH2 2795   5.470   1.319   3.505
  930TIP3    H1 2796   5.429   1.349   3.424
  930TIP3    H2 2797   5.482   1.399   3.556
  931TIP3   OH2 2798   5.820   0.692   3.009
  931TIP3    H1 2799   5.785   0.722   3.093
  931TIP3    H2 2800   5.885   0.626   3.032
  932TIP3   OH2 2801   4.047   2.025   2.712
  932TIP3    H1 2802   4.028   2.092   2.777
  932TIP3    H2 2803   4.135   1.995   2.733
  933TIP3   OH2 2804   5.290   2.839   4.891
  933TIP3    H1 2805   5.380   2.848   4.924
  933TIP3    H2 2806   5.252   2.769   4.944
  934TIP3   OH2 2807   1.855   4.140   3.040
  934TIP3    H1 2808   1.760   4.140   3.024
  934TIP3    H2 2809   1.889   4.074   2.980
  935TIP3   OH2 2810   3.591   0.985   0.007
  935TIP3    H1 2811   3.535   0.966  -0.068
  935TIP3    H2 2812   3.597   1.080   0.010
  936TIP3   OH2 2813   5.900   0.211   1.382
  936TIP3    H1 2814   5.836   0.170   1.441
  936TIP3    H2 2815   5.853   0.284   1.343
  937TIP3   OH2 2816   5.820   2.851   4.777
  937TIP3    H1 2817   5.904   2.805   4.768
  937TIP3    H2 2818   5.754   2.782   4.772
  938TIP3   OH2 2819   5.761   5.082   0.170
  938TIP3    H1 2820   5.763   5.164   0.120
  938TIP3    H2 2821   5.790   5.106   0.258
  939TIP3   OH2 2822   4.585   1.590   3.316
  939TIP3    H1 2823   4.666   1.640   3.330
  939TIP3    H2 2824   4.577   1.585   3.221
  940TIP3   OH2 2825   5.784   4.311   3.238
  940TIP3    H1 2826   5.834   4.262   3.303
  940TIP3    H2 2827   5.752   4.388   3.285
  941TIP3   OH2 2828   5.224   3.894   2.603
  941TIP3    H1 2829   5.143   3.873   2.650
  941TIP3    H2 2830   5.218   3.844   2.522
  942TIP3   OH2 2831   0.811   5.521   2.193
  942TIP3    H1 2832   0.838   5.592   2.135
  942TIP3    H2 2833   0.729   5.552   2.232
  943TIP3   OH2 2834   4.335   2.190   3.701
  943TIP3    H1 2835   4.250   2.192   3.746
  943TIP3    H2 2836   4.345   2.278   3.664
  944TIP3   OH2 2837   1.474   2.019   3.888
  944TIP3    H1 2838   1.382   1.992   3.887
  944TIP3    H2 2839   1.472   2.112   3.866
  945TIP3   OH2 2840   3.982   5.682   1.059
  945TIP3    H1 2841   3.975   5.620   0.986
  945TIP3    H2 2842   4.066   5.661   1.100
  946TIP3   OH2 2843   4.550   5.490   4.825
  946TIP3    H1 2844   4.624   5.459   4.877
  946TIP3    H2 2845   4.476   5.488   4.886
  947TIP3   OH2 2846   0.420   2.965   4.372
  947TIP3    H1 2847   0.419   2.897   4.439
  947TIP3    H2 2848   0.462   2.923   4.297
  948TIP3   OH2 2849   3.124   0.242   3.157
  948TIP3    H1 2850   3.166   0.305   3.099
  948TIP3    H2 2851   3.090   0.295   3.229
  949TIP3   OH2 2852   3.709   3.359   4.739
  949TIP3    H1 2853   3.647   3.354   4.812
  949TIP3    H2 2854   3.656   3.387   4.665
  950TIP3   OH2 2855   0.918   0.853   3.270
  950TIP3    H1 2856   0.941   0.822   3.182
  950TIP3    H2 2857   0.876   0.938   3.255
  951TIP3   OH2 2858   2.306   1.509   0.663
  951TIP3    H1 2859   2.328   1.415   0.662
  951TIP3    H2 2860   2.219   1.513   0.703
  952TIP3   OH2 2861   4.677   4.646   2.067
  952TIP3    H1 2862   4.688   4.598   2.149
  952TIP3    H2 2863   4.608   4.598   2.021
  953TIP3   OH2 2864   5.268   4.109   1.828
  953TIP3    H1 2865   5.185   4.070   1.854
  953TIP3    H2 2866   5.268   4.195   1.870
  954TIP3   OH2 2867   1.830   5.717   1.247
  954TIP3    H1 2868   1.753   5.720   1.190
  954TIP3    H2 2869   1.885   5.789   1.218
  955TIP3   OH2 2870   0.374   1.310   2.400
  955TIP3    H1 2871   0.447   1.367   2.424
  955TIP3    H2 2872   0.414   1.223   2.393
  956TIP3   OH2 2873   6.155   4.609   5.047
  956TIP3    H1 2874   6.098   4.533   5.034
  956TIP3    H2 2875   6.157   4.622   5.142
  957TIP3   OH2 2876   4.246   4.834   4.576
  957TIP3    H1 2877   4.280   4.757   4.532
  957TIP3    H2 2878   4.290   4.908   4.533
  958TIP3   OH2 2879   1.383   1.070   3.883
  958TIP3    H1 2880   1.474   1.083   3.911
  958TIP3    H2 2881   1.381   1.102   3.793
  959TIP3   OH2 2882   3.775   5.324   1.647
  959TIP3    H1 2883   3.731   5.304   1.565
  959TIP3    H2 2884   3.855   5.271   1.645
  960TIP3   OH2 2885   5.163   1.580   3.208
  960TIP3    H1 2886   5.090   1.550   3.262
  960TIP3    H2 2887   5.126   1.644   3.149
  961TIP3   OH2 2888   3.008   0.018   3.283
  961TIP3    H1 2889   3.061   0.095   3.262
  961TIP3    H2 2890   2.974  -0.011   3.198
  962TIP3   OH2 2891   0.401   2.467   2.351
  962TIP3    H1 2892   0.444   2.529   2.409
  962TIP3    H2 2893   0.473   2.418   2.310
  963TIP3   OH2 2894   2.258   0.304   0.958
  963TIP3    H1 2895   2.298   0.218   0.947
  963TIP3    H2 2896   2.320   0.364   0.916
  964TIP3   OH2 2897   0.865   0.849   1.851
  964TIP3    H1 2898   0.785   0.889   1.883
  964TIP3    H2 2899   0.895   0.907   1.781
  965TIP3   OH2 2900   4.685   2.557   1.078
  965TIP3    H1 2901   4.701   2.603   0.995
  965TIP3    H2 2902   4.602   2.592   1.109
  966TIP3   OH2 2903   5.640   4.873   0.060
  966TIP3    H1 2904   5.673   4.800   0.112
  966TIP3    H2 2905   5.677   4.951   0.101
  967TIP3   OH2 2906   3.714   2.058   4.217
  967TIP3    H1 2907   3.657   2.033   4.289
  967TIP3    H2 2908   3.662   2.041   4.138
  968TIP3   OH2 2909   0.373   2.741   4.068
  968TIP3    H1 2910   0.464   2.763   4.049
  968TIP3    H2 2911   0.338   2.709   3.985
  969TIP3   OH2 2912   4.836   3.439   4.819
  969TIP3    H1 2913   4.906   3.483   4.867
  969TIP3    H2 2914   4.877   3.359   4.786
  970TIP3   OH2 2915   5.294   5.002   4.234
  970TIP3    H1 2916   5.287   4.939   4.305
  970TIP3    H2 2917   5.277   4.951   4.154
  971TIP3   OH2 2918  -0.001   1.923   3.763
  971TIP3    H1 2919   0.015   1.862   3.692
  971TIP3    H2 2920   0.046   2.003   3.739
  972TIP3   OH2 2921   3.622   1.744   1.587
  972TIP3    H1 2922   3.562   1.727   1.660
  972TIP3    H2 2923   3.566   1.780   1.518
  973TIP3   OH2 2924   1.540   2.477   2.254
  973TIP3    H1 2925   1.485   2.399   2.251
  973TIP3    H2 2926   1.588   2.477   2.171
  974TIP3   OH2 2927   1.269   5.233   0.851
  974TIP3    H1 2928   1.184   5.277   0.851
  974TIP3    H2 2929   1.247   5.140   0.849
  975TIP3   OH2 2930   5.668   3.858   3.827
  975TIP3    H1 2931   5.597   3.861   3.891
  975TIP3    H2 2932   5.629   3.894   3.747
  976TIP3   OH2 2933   4.177   2.550   4.899
  976TIP3    H1 2934   4.139   2.551   4.811
  976TIP3    H2 2935   4.230   2.471   4.901
  977TIP3   OH2 2936   1.560   2.885   2.110
  977TIP3    H1 2937   1.576   2.873   2.017
  977TIP3    H2 2938   1.481   2.835   2.128
  978TIP3   OH2 2939   2.126   2.998   1.126
  978TIP3    H1 2940   2.175   2.960   1.053
  978TIP3    H2 2941   2.034   2.983   1.104
  979TIP3   OH2 2942   5.242   4.571   5.043
  979TIP3    H1 2943   5.177   4.523   4.992
  979TIP3    H2 2944   5.324   4.526   5.027
  980TIP3   OH2 2945   5.734   1.558   3.357
  980TIP3    H1 2946   5.757   1.647   3.333
  980TIP3    H2 2947   5.685   1.524   3.282
  981TIP3   OH2 2948   0.889   3.340   4.367
  981TIP3    H1 2949   0.816   3.322   4.427
  981TIP3    H2 2950   0.853   3.321   4.280
  982TIP3   OH2 2951   3.434   4.819   0.526
  982TIP3    H1 2952   3.456   4.872   0.450
  982TIP3    H2 2953   3.344   4.846   0.548
  983TIP3   OH2 2954   5.994   4.560   3.418
  983TIP3    H1 2955   5.904   4.545   3.390
  983TIP3    H2 2956   5.987   4.614   3.496
  984TIP3   OH2 2957   1.596   5.835   0.124
  984TIP3    H1 2958   1.621   5.744   0.106
  984TIP3    H2 2959   1.625   5.883   0.046
  985TIP3   OH2 2960   5.652   3.019   2.654
  985TIP3    H1 2961   5.632   2.942   2.601
  985TIP3    H2 2962   5.730   2.994   2.704
  986TIP3   OH2 2963   6.086   1.378   2.018
  986TIP3    H1 2964   6.013   1.374   2.080
  986TIP3    H2 2965   6.115   1.469   2.022
  987TIP3   OH2 2966   4.426   3.372   3.721
  987TIP3    H1 2967   4.521   3.381   3.720
  987TIP3    H2 2968   4.401   3.390   3.811
  988TIP3   OH2 2969   0.712   2.395   4.776
  988TIP3    H1 2970   0.682   2.304   4.783
  988TIP3    H2 2971   0.763   2.409   4.855
  989TIP3   OH2 2972   1.170   1.065   1.316
  989TIP3    H1 2973   1.254   1.020   1.325
  989TIP3    H2 2974   1.107   1.008   1.359
  990TIP3   OH2 2975   0.293   0.335   0.736
  990TIP3    H1 2976   0.339   0.415   0.761
  990TIP3    H2 2977   0.223   0.326   0.802
  991TIP3   OH2 2978   5.445   5.788   1.618
  991TIP3    H1 2979   5.472   5.785   1.526
  991TIP3    H2 2980   5.484   5.709   1.656
  992TIP3   OH2 2981   4.456   4.537   1.956
  992TIP3    H1 2982   4.392   4.533   1.885
  992TIP3    H2 2983   4.432   4.465   2.014
  993TIP3   OH2 2984   1.049   0.979   2.530
  993TIP3    H1 2985   1.056   0.986   2.435
  993TIP3    H2 2986   1.138   0.957   2.559
  994TIP3   OH2 2987   2.216   2.380   3.878
  994TIP3    H1 2988   2.156   2.406   3.949
  994TIP3    H2 2989   2.159   2.344   3.811
  995TIP3   OH2 2990   3.496   1.145   2.466
  995TIP3    H1 2991   3.524   1.221   2.517
  995TIP3    H2 2992   3.407   1.128   2.495
  996TIP3   OH2 2993   1.139   0.558   3.574
  996TIP3    H1 2994   1.201   0.505   3.625
  996TIP3    H2 2995   1.077   0.495   3.538
  997TIP3   OH2 2996   5.159   1.411   3.971
  997TIP3    H1 2997   5.131   1.405   3.879
  997TIP3    H2 2998   5.255   1.402   3.967
  998TIP3   OH2 2999   5.574   3.519   0.754
  998TIP3    H1 3000   5.594   3.428   0.731
  998TIP3    H2 3001   5.511   3.512   0.825
  999TIP3   OH2 3002   2.070   1.653   2.039
  999TIP3    H1 3003   2.002   1.650   2.107
  999TIP3    H2 3004   2.095   1.561   2.026
 1000TIP3   OH2 3005   1.989   3.002   3.221
 1000TIP3    H1 3006   1.907   2.977   3.179
 1000TIP3    H2 3007   2.052   3.008   3.148
 1001TIP3   OH2 3008   4.728   3.339   1.452
 1001TIP3    H1 3009   4.652   3.281   1.452
 1001TIP3    H2 3010   4.736   3.368   1.361
 1002TIP3   OH2 3011   1.261   1.120   4.141
 1002TIP3    H1 3012   1.174   1.083   4.129
 1002TIP3    H2 3013   1.291   1.141   4.053
 1003TIP3   OH2 3014   0.082   5.157   4.941
 1003TIP3    H1 3015  -0.008   5.191   4.943
 1003TIP3    H2 3016   0.099   5.131   5.032
 1004TIP3   OH2 3017   4.396   0.101   1.535
 1004TIP3    H1 3018   4.334   0.033   1.509
 1004TIP3    H2 3019   4.470   0.053   1.572
 1005TIP3   OH2 3020   0.443   4.815   3.588
 1005TIP3    H1 3021   0.378   4.756   3.549
 1005TIP3    H2 3022   0.505   4.757   3.632
 1006TIP3   OH2 3023   3.459   2.155   0.283
 1006TIP3    H1 3024   3.464   2.195   0.370
 1006TIP3    H2 3025   3.379   2.190   0.245
 1007TIP3   OH2 3026   5.492   3.472   2.804
 1007TIP3    H1 3027   5.450   3.500   2.885
 1007TIP3    H2 3028   5.585   3.468   2.826
 1008TIP3   OH2 3029   2.836   4.720   0.509
 1008TIP3    H1 3030   2.744   4.697   0.522
 1008TIP3    H2 3031   2.846   4.803   0.556
 1009TIP3   OH2 3032   2.112   2.681   2.761
 1009TIP3    H1 3033   2.152   2.738   2.826
 1009TIP3    H2 3034   2.171   2.606   2.755
 1010TIP3   OH2 3035   1.867   2.477   1.768
 1010TIP3    H1 3036   1.897   2.404   1.713
 1010TIP3    H2 3037   1.939   2.540   1.764
 1011TIP3   OH2 3038   3.669   5.527   1.184
 1011TIP3    H1 3039   3.681   5.622   1.187
 1011TIP3    H2 3040   3.607   5.513   1.112
 1012TIP3   OH2 3041   0.592   0.701   4.535
 1012TIP3    H1 3042   0.522   0.722   4.596
 1012TIP3    H2 3043   0.568   0.616   4.498
 1013TIP3   OH2 3044   5.642   3.873   2.674
 1013TIP3    H1 3045   5.591   3.807   2.629
 1013TIP3    H2 3046   5.617   3.956   2.632
 1014TIP3   OH2 3047   5.613   3.458   1.708
 1014TIP3    H1 3048   5.689   3.418   1.752
 1014TIP3    H2 3049   5.641   3.467   1.617
 1015TIP3   OH2 3050   4.275   2.653   5.131
 1015TIP3    H1 3051   4.298   2.746   5.126
 1015TIP3    H2 3052   4.296   2.619   5.044
 1016TIP3   OH2 3053   3.692   4.967   0.648
 1016TIP3    H1 3054   3.637   5.040   0.621
 1016TIP3    H2 3055   3.670   4.953   0.740
 1017TIP3   OH2 3056   3.727   1.204   4.958
 1017TIP3    H1 3057   3.784   1.161   5.022
 1017TIP3    H2 3058   3.661   1.139   4.938
 1018TIP3   OH2 3059   0.948   0.228   2.854
 1018TIP3    H1 3060   0.870   0.186   2.818
 1018TIP3    H2 3061   0.978   0.287   2.785
 1019TIP3   OH2 3062   2.683   2.827   3.705
 1019TIP3    H1 3063   2.632   2.846   3.784
 1019TIP3    H2 3064   2.773   2.844   3.730
 1020TIP3   OH2 3065   5.538   4.060   2.882
 1020TIP3    H1 3066   5.531   3.982   2.937
 1020TIP3    H2 3067   5.451   4.070   2.844
 1021TIP3   OH2 3068   0.251   2.452   0.459
 1021TIP3    H1 3069   0.302   2.376   0.486
 1021TIP3    H2 3070   0.165   2.417   0.436
 1022TIP3   OH2 3071   2.612   1.267   1.309
 1022TIP3    H1 3072   2.563   1.212   1.370
 1022TIP3    H2 3073   2.546   1.302   1.250
 1023TIP3   OH2 3074   5.469   5.885   0.564
 1023TIP3    H1 3075   5.470   5.836   0.482
 1023TIP3    H2 3076   5.560   5.890   0.591
 1024TIP3   OH2 3077   1.319   3.801   4.971
 1024TIP3    H1 3078   1.338   3.881   5.022
 1024TIP3    H2 3079   1.286   3.834   4.887
 1025TIP3   OH2 3080   5.124   0.802   3.255
 1025TIP3    H1 3081   5.197   0.838   3.203
 1025TIP3    H2 3082   5.067   0.877   3.271
 1026TIP3   OH2 3083   1.921   0.943   1.520
 1026TIP3    H1 3084   1.837   0.968   1.559
 1026TIP3    H2 3085   1.915   0.849   1.508
 1027TIP3   OH2 3086   6.092   0.477   1.453
 1027TIP3    H1 3087   6.077   0.521   1.537
 1027TIP3    H2 3088   6.056   0.389   1.466
 1028TIP3   OH2 3089   3.796   3.669   1.989
 1028TIP3    H1 3090   3.791   3.659   2.084
 1028TIP3    H2 3091   3.714   3.712   1.965
 1029TIP3   OH2 3092   2.735   5.808   1.798
 1029TIP3    H1 3093   2.670   5.778   1.734
 1029TIP3    H2 3094   2.685   5.860   1.861
 1030TIP3   OH2 3095   5.381   5.273   0.478
 1030TIP3    H1 3096   5.293   5.280   0.439
 1030TIP3    H2 3097   5.437   5.246   0.405
 1031TIP3   OH2 3098   2.168   3.120   0.233
 1031TIP3    H1 3099   2.131   3.166   0.158
 1031TIP3    H2 3100   2.263   3.131   0.224
 1032TIP3   OH2 3101   1.428   2.224   2.044
 1032TIP3    H1 3102   1.352   2.240   1.988
 1032TIP3    H2 3103   1.504   2.246   1.989
 1033TIP3   OH2 3104   5.012   1.131   2.686
 1033TIP3    H1 3105   5.028   1.215   2.643
 1033TIP3    H2 3106   5.073   1.130   2.760
 1034TIP3   OH2 3107   5.161   1.969   0.396
 1034TIP3    H1 3108   5.201   2.053   0.419
 1034TIP3    H2 3109   5.218   1.903   0.435
 1035TIP3   OH2 3110   0.376   2.592   3.046
 1035TIP3    H1 3111   0.407   2.681   3.033
 1035TIP3    H2 3112   0.432   2.538   2.990
 1036TIP3   OH2 3113   4.467   2.656   1.573
 1036TIP3    H1 3114   4.467   2.655   1.669
 1036TIP3    H2 3115   4.375   2.652   1.549
 1037TIP3   OH2 3116   2.303   4.552   4.837
 1037TIP3    H1 3117   2.222   4.571   4.790
 1037TIP3    H2 3118   2.371   4.598   4.788
 1038TIP3   OH2 3119   4.388   5.049   4.486
 1038TIP3    H1 3120   4.398   5.077   4.395
 1038TIP3    H2 3121   4.473   5.068   4.526
 1039TIP3   OH2 3122   0.276   1.672   0.735
 1039TIP3    H1 3123   0.242   1.749   0.780
 1039TIP3    H2 3124   0.299   1.611   0.805
 1040TIP3   OH2 3125   1.422   1.072   3.453
 1040TIP3    H1 3126   1.512   1.040   3.448
 1040TIP3    H2 3127   1.381   1.043   3.371
 1041TIP3   OH2 3128   2.835   0.632   4.425
 1041TIP3    H1 3129   2.797   0.663   4.343
 1041TIP3    H2 3130   2.862   0.711   4.471
 1042TIP3   OH2 3131   5.435   2.235   3.629
 1042TIP3    H1 3132   5.445   2.319   3.674
 1042TIP3    H2 3133   5.340   2.223   3.622
 1043TIP3   OH2 3134   1.814   2.289   3.148
 1043TIP3    H1 3135   1.785   2.359   3.090
 1043TIP3    H2 3136   1.768   2.305   3.230
 1044TIP3   OH2 3137   1.452   3.052   1.018
 1044TIP3    H1 3138   1.399   3.129   1.038
 1044TIP3    H2 3139   1.415   2.983   1.073
 1045TIP3   OH2 3140   5.511   2.451   4.345
 1045TIP3    H1 3141   5.460   2.413   4.417
 1045TIP3    H2 3142   5.453   2.448   4.270
 1046TIP3   OH2 3143   3.511   0.668   1.471
 1046TIP3    H1 3144   3.415   0.669   1.470
 1046TIP3    H2 3145   3.533   0.580   1.498
 1047TIP3   OH2 3146   2.278   3.216   0.794
 1047TIP3    H1 3147   2.311   3.269   0.721
 1047TIP3    H2 3148   2.327   3.246   0.870
 1048TIP3   OH2 3149   1.850   0.195   3.965
 1048TIP3    H1 3150   1.943   0.217   3.961
 1048TIP3    H2 3151   1.834   0.143   3.886
 1049TIP3   OH2 3152   0.839   2.548   1.985
 1049TIP3    H1 3153   0.846   2.461   2.024
 1049TIP3    H2 3154   0.929   2.571   1.960
 1050TIP3   OH2 3155   1.294   5.177   2.577
 1050TIP3    H1 3156   1.279   5.091   2.539
 1050TIP3    H2 3157   1.317   5.160   2.668
 1051TIP3   OH2 3158   1.665   4.634   2.316
 1051TIP3    H1 3159   1.729   4.566   2.295
 1051TIP3    H2 3160   1.678   4.701   2.249
 1052TIP3   OH2 3161   2.832   5.608   2.666
 1052TIP3    H1 3162   2.887   5.533   2.643
 1052TIP3    H2 3163   2.789   5.582   2.747
 1053TIP3   OH2 3164   1.965   3.845   1.750
 1053TIP3    H1 3165   2.006   3.846   1.837
 1053TIP3    H2 3166   1.984   3.757   1.716
 1054TIP3   OH2 3167   0.132   5.776   4.076
 1054TIP3    H1 3168   0.139   5.848   4.139
 1054TIP3    H2 3169   0.047   5.789   4.035
 1055TIP3   OH2 3170   6.027   1.869   1.671
 1055TIP3    H1 3171   6.015   1.832   1.759
 1055TIP3    H2 3172   5.956   1.830   1.620
 1056TIP3   OH2 3173   6.312   0.023   1.329
 1056TIP3    H1 3174   6.261   0.076   1.391
 1056TIP3    H2 3175   6.354  -0.044   1.382
 1057TIP3   OH2 3176   0.083   0.419   4.879
 1057TIP3    H1 3177   0.093   0.492   4.818
 1057TIP3    H2 3178  -0.012   0.407   4.887
 1058TIP3   OH2 3179   1.855   4.113   0.752
 1058TIP3    H1 3180   1.815   4.037   0.709
 1058TIP3    H2 3181   1.867   4.085   0.843
 1059TIP3   OH2 3182   4.576   0.930   3.038
 1059TIP3    H1 3183   4.620   0.897   2.959
 1059TIP3    H2 3184   4.499   0.976   3.005
 1060TIP3   OH2 3185   5.468   4.423   1.627
 1060TIP3    H1 3186   5.513   4.426   1.543
 1060TIP3    H2 3187   5.538   4.418   1.692
 1061TIP3   OH2 3188   0.827   0.278   3.093
 1061TIP3    H1 3189   0.898   0.340   3.111
 1061TIP3    H2 3190   0.859   0.227   3.018
 1062TIP3   OH2 3191   4.292   3.295   3.084
 1062TIP3    H1 3192   4.309   3.345   3.004
 1062TIP3    H2 3193   4.362   3.321   3.144
 1063TIP3   OH2 3194   1.298   2.749   0.250
 1063TIP3    H1 3195   1.390   2.738   0.275
 1063TIP3    H2 3196   1.290   2.704   0.166
 1064TIP3   OH2 3197   1.598   1.859   2.144
 1064TIP3    H1 3198   1.656   1.851   2.068
 1064TIP3    H2 3199   1.655   1.846   2.219
 1065TIP3   OH2 3200   1.713   5.480   4.690
 1065TIP3    H1 3201   1.697   5.422   4.765
 1065TIP3    H2 3202   1.809   5.482   4.681
 1066TIP3   OH2 3203   4.658   2.864   2.709
 1066TIP3    H1 3204   4.564   2.853   2.722
 1066TIP3    H2 3205   4.699   2.810   2.777
 1067TIP3   OH2 3206   6.197   3.839   0.243
 1067TIP3    H1 3207   6.199   3.775   0.314
 1067TIP3    H2 3208   6.233   3.919   0.281
 1068TIP3   OH2 3209   1.380   1.950   1.122
 1068TIP3    H1 3210   1.462   1.982   1.161
 1068TIP3    H2 3211   1.385   1.855   1.129
 1069TIP3   OH2 3212   4.277   2.878   2.111
 1069TIP3    H1 3213   4.330   2.811   2.153
 1069TIP3    H2 3214   4.260   2.844   2.023
 1070TIP3   OH2 3215   5.563   3.437   3.588
 1070TIP3    H1 3216   5.593   3.354   3.626
 1070TIP3    H2 3217   5.643   3.483   3.564
 1071TIP3   OH2 3218   2.113   2.051   2.751
 1071TIP3    H1 3219   2.183   2.077   2.812
 1071TIP3    H2 3220   2.032   2.072   2.799
 1072TIP3   OH2 3221   2.209   4.230   5.065
 1072TIP3    H1 3222   2.235   4.321   5.055
 1072TIP3    H2 3223   2.288   4.185   5.095
 1073TIP3   OH2 3224   1.695   1.530   4.793
 1073TIP3    H1 3225   1.731   1.459   4.846
 1073TIP3    H2 3226   1.618   1.492   4.751
 1074TIP3   OH2 3227   1.184   3.306   3.396
 1074TIP3    H1 3228   1.204   3.367   3.467
 1074TIP3    H2 3229   1.140   3.360   3.330
 1075TIP3   OH2 3230   1.541   4.399   3.646
 1075TIP3    H1 3231   1.556   4.305   3.648
 1075TIP3    H2 3232   1.627   4.437   3.629
 1076TIP3   OH2 3233   4.914   2.841   3.535
 1076TIP3    H1 3234   4.839   2.900   3.528
 1076TIP3    H2 3235   4.969   2.880   3.603
 1077TIP3   OH2 3236   0.104   4.066   0.810
 1077TIP3    H1 3237   0.067   4.018   0.885
 1077TIP3    H2 3238   0.081   4.157   0.827
 1078TIP3   OH2 3239   4.157   3.440   1.724
 1078TIP3    H1 3240   4.187   3.441   1.815
 1078TIP3    H2 3241   4.071   3.398   1.728
 1079TIP3   OH2 3242   4.502   3.728   2.003
 1079TIP3    H1 3243   4.426   3.772   1.965
 1079TIP3    H2 3244   4.521   3.655   1.944
 1080TIP3   OH2 3245   0.996   0.477   1.181
 1080TIP3    H1 3246   1.074   0.428   1.209
 1080TIP3    H2 3247   1.007   0.563   1.221
 1081TIP3   OH2 3248   3.118   2.502   4.786
 1081TIP3    H1 3249   3.074   2.421   4.762
 1081TIP3    H2 3250   3.105   2.510   4.880
 1082TIP3   OH2 3251   3.761   0.635   1.002
 1082TIP3    H1 3252   3.697   0.570   1.033
 1082TIP3    H2 3253   3.845   0.590   1.007
 1083TIP3   OH2 3254   0.800   5.891   0.698
 1083TIP3    H1 3255   0.895   5.904   0.697
 1083TIP3    H2 3256   0.767   5.964   0.750
 1084TIP3   OH2 3257   3.220   3.906   0.635
 1084TIP3    H1 3258   3.199   3.875   0.547
 1084TIP3    H2 3259   3.306   3.949   0.626
 1085TIP3   OH2 3260   0.510   0.172   1.667
 1085TIP3    H1 3261   0.445   0.239   1.647
 1085TIP3    H2 3262   0.589   0.222   1.690
 1086TIP3   OH2 3263   2.390   2.610   2.435
 1086TIP3    H1 3264   2.428   2.529   2.402
 1086TIP3    H2 3265   2.305   2.585   2.469
 1087TIP3   OH2 3266   0.249   0.024   0.220
 1087TIP3    H1 3267   0.275   0.115   0.205
 1087TIP3    H2 3268   0.213   0.024   0.309
 1088TIP3   OH2 3269  -0.018   2.247   2.467
 1088TIP3    H1 3270   0.050   2.254   2.400
 1088TIP3    H2 3271  -0.003   2.323   2.524
 1089TIP3   OH2 3272   3.322   0.422   3.614
 1089TIP3    H1 3273   3.359   0.340   3.581
 1089TIP3    H2 3274   3.228   0.405   3.619
 1090TIP3   OH2 3275   3.676   4.107   0.395
 1090TIP3    H1 3276   3.749   4.072   0.344
 1090TIP3    H2 3277   3.651   4.187   0.349
 1091TIP3   OH2 3278   2.007   1.284   2.694
 1091TIP3    H1 3279   2.086   1.278   2.747
 1091TIP3    H2 3280   1.948   1.218   2.729
 1092TIP3   OH2 3281   5.618   3.154   3.431
 1092TIP3    H1 3282   5.680   3.103   3.379
 1092TIP3    H2 3283   5.661   3.164   3.516
 1093TIP3   OH2 3284   2.548   1.164   4.696
 1093TIP3    H1 3285   2.526   1.098   4.762
 1093TIP3    H2 3286   2.468   1.178   4.647
 1094TIP3   OH2 3287   4.325   5.491   5.060
 1094TIP3    H1 3288   4.378   5.414   5.042
 1094TIP3    H2 3289   4.374   5.540   5.126
 1095TIP3   OH2 3290   5.206   3.956   3.075
 1095TIP3    H1 3291   5.229   4.036   3.027
 1095TIP3    H2 3292   5.228   3.976   3.166
 1096TIP3   OH2 3293   4.236   0.362   5.071
 1096TIP3    H1 3294   4.263   0.340   5.160
 1096TIP3    H2 3295   4.305   0.326   5.015
 1097TIP3   OH2 3296   4.915   4.722   4.871
 1097TIP3    H1 3297   4.989   4.676   4.833
 1097TIP3    H2 3298   4.890   4.787   4.805
 1098TIP3   OH2 3299   0.086   5.757   1.776
 1098TIP3    H1 3300   0.064   5.667   1.801
 1098TIP3    H2 3301   0.158   5.782   1.834
 1099TIP3   OH2 3302   5.191   5.840   4.372
 1099TIP3    H1 3303   5.255   5.894   4.325
 1099TIP3    H2 3304   5.157   5.898   4.441
 1100TIP3   OH2 3305   6.159   1.814   3.964
 1100TIP3    H1 3306   6.068   1.840   3.946
 1100TIP3    H2 3307   6.207   1.838   3.885
 1101TIP3   OH2 3308   5.264   0.859   2.211
 1101TIP3    H1 3309   5.336   0.915   2.184
 1101TIP3    H2 3310   5.300   0.805   2.281
 1102TIP3   OH2 3311   3.346   2.944   1.726
 1102TIP3    H1 3312   3.314   2.885   1.658
 1102TIP3    H2 3313   3.279   2.943   1.793
 1103TIP3   OH2 3314   5.963   4.000   5.095
 1103TIP3    H1 3315   5.876   3.975   5.126
 1103TIP3    H2 3316   5.968   3.966   5.006
 1104TIP3   OH2 3317   6.058   2.735   1.835
 1104TIP3    H1 3318   6.081   2.716   1.926
 1104TIP3    H2 3319   6.019   2.823   1.838
 1105TIP3   OH2 3320   0.209   4.991   0.351
 1105TIP3    H1 3321   0.273   4.983   0.280
 1105TIP3    H2 3322   0.142   4.925   0.330
 1106TIP3   OH2 3323   2.808   4.351   1.379
 1106TIP3    H1 3324   2.756   4.280   1.341
 1106TIP3    H2 3325   2.899   4.322   1.372
 1107TIP3   OH2 3326   5.040   2.184   3.776
 1107TIP3    H1 3327   5.063   2.102   3.732
 1107TIP3    H2 3328   4.952   2.203   3.745
 1108TIP3   OH2 3329   2.154   0.793   3.566
 1108TIP3    H1 3330   2.164   0.887   3.554
 1108TIP3    H2 3331   2.063   0.775   3.542
 1109TIP3   OH2 3332   5.544   4.340   1.909
 1109TIP3    H1 3333   5.546   4.244   1.917
 1109TIP3    H2 3334   5.451   4.363   1.913
 1110TIP3   OH2 3335   3.883   1.883   0.250
 1110TIP3    H1 3336   3.834   1.870   0.331
 1110TIP3    H2 3337   3.888   1.979   0.240
 1111TIP3   OH2 3338   4.342   0.408   0.177
 1111TIP3    H1 3339   4.339   0.412   0.273
 1111TIP3    H2 3340   4.257   0.439   0.149
 1112TIP3   OH2 3341   4.572   3.506   2.276
 1112TIP3    H1 3342   4.557   3.568   2.204
 1112TIP3    H2 3343   4.635   3.550   2.333
 1113TIP3   OH2 3344   0.126   2.639   1.509
 1113TIP3    H1 3345   0.059   2.653   1.575
 1113TIP3    H2 3346   0.080   2.648   1.425
 1114TIP3   OH2 3347   2.798   1.377   1.486
 1114TIP3    H1 3348   2.730   1.351   1.423
 1114TIP3    H2 3349   2.835   1.295   1.517
 1115TIP3   OH2 3350   1.876   3.602   5.000
 1115TIP3    H1 3351   1.961   3.641   5.018
 1115TIP3    H2 3352   1.813   3.671   5.023
 1116TIP3   OH2 3353   3.333   1.106   3.983
 1116TIP3    H1 3354   3.376   1.092   4.068
 1116TIP3    H2 3355   3.353   1.027   3.933
 1117TIP3   OH2 3356   3.099   1.731   3.325
 1117TIP3    H1 3357   3.062   1.645   3.306
 1117TIP3    H2 3358   3.191   1.724   3.299
 1118TIP3   OH2 3359   0.546   5.230   0.717
 1118TIP3    H1 3360   0.590   5.242   0.801
 1118TIP3    H2 3361   0.609   5.181   0.664
 1119TIP3   OH2 3362   0.324   1.484   1.394
 1119TIP3    H1 3363   0.289   1.411   1.445
 1119TIP3    H2 3364   0.252   1.547   1.389
 1120TIP3   OH2 3365   5.433   4.421   0.452
 1120TIP3    H1 3366   5.376   4.388   0.383
 1120TIP3    H2 3367   5.394   4.390   0.533
 1121TIP3   OH2 3368   3.903   4.559   3.692
 1121TIP3    H1 3369   3.814   4.587   3.671
 1121TIP3    H2 3370   3.891   4.477   3.739
 1122TIP3   OH2 3371   6.178   5.863   3.332
 1122TIP3    H1 3372   6.213   5.933   3.387
 1122TIP3    H2 3373   6.251   5.803   3.319
 1123TIP3   OH2 3374   0.959   1.435   3.430
 1123TIP3    H1 3375   0.917   1.504   3.481
 1123TIP3    H2 3376   0.984   1.368   3.494
 1124TIP3   OH2 3377   5.513   2.781   1.474
 1124TIP3    H1 3378   5.431   2.824   1.447
 1124TIP3    H2 3379   5.570   2.853   1.500
 1125TIP3   OH2 3380   4.542   5.172   4.784
 1125TIP3    H1 3381   4.626   5.157   4.740
 1125TIP3    H2 3382   4.495   5.089   4.776
 1126TIP3   OH2 3383   6.033   1.196   3.360
 1126TIP3    H1 3384   6.079   1.274   3.391
 1126TIP3    H2 3385   6.082   1.168   3.283
 1127TIP3   OH2 3386   4.779   5.569   3.727
 1127TIP3    H1 3387   4.767   5.559   3.821
 1127TIP3    H2 3388   4.691   5.589   3.694
 1128TIP3   OH2 3389   6.018   5.291   2.751
 1128TIP3    H1 3390   6.053   5.237   2.822
 1128TIP3    H2 3391   5.947   5.239   2.714
 1129TIP3   OH2 3392   3.608   5.847   0.788
 1129TIP3    H1 3393   3.659   5.772   0.819
 1129TIP3    H2 3394   3.668   5.921   0.794
 1130TIP3   OH2 3395   0.764   4.193   3.683
 1130TIP3    H1 3396   0.748   4.284   3.658
 1130TIP3    H2 3397   0.846   4.170   3.640
 1131TIP3   OH2 3398   3.086   3.311   0.259
 1131TIP3    H1 3399   3.046   3.339   0.342
 1131TIP3    H2 3400   3.129   3.228   0.279
 1132TIP3   OH2 3401   4.315   1.456   3.744
 1132TIP3    H1 3402   4.229   1.431   3.712
 1132TIP3    H2 3403   4.366   1.473   3.665
 1133TIP3   OH2 3404   3.894   1.608   1.259
 1133TIP3    H1 3405   3.834   1.551   1.211
 1133TIP3    H2 3406   3.859   1.611   1.348
 1134TIP3   OH2 3407   5.685   2.009   0.242
 1134TIP3    H1 3408   5.596   2.021   0.209
 1134TIP3    H2 3409   5.683   2.047   0.330
 1135TIP3   OH2 3410   5.141   2.620   4.119
 1135TIP3    H1 3411   5.135   2.534   4.077
 1135TIP3    H2 3412   5.064   2.668   4.087
 1136TIP3   OH2 3413   3.985   1.776   2.912
 1136TIP3    H1 3414   3.954   1.814   2.994
 1136TIP3    H2 3415   4.075   1.805   2.904
 1137TIP3   OH2 3416   3.763   5.697   2.575
 1137TIP3    H1 3417   3.774   5.617   2.523
 1137TIP3    H2 3418   3.846   5.744   2.562
 1138TIP3   OH2 3419   2.291   2.996   3.643
 1138TIP3    H1 3420   2.328   2.920   3.598
 1138TIP3    H2 3421   2.252   3.048   3.573
 1139TIP3   OH2 3422   4.210   2.617   1.622
 1139TIP3    H1 3423   4.132   2.608   1.567
 1139TIP3    H2 3424   4.220   2.530   1.661
 1140TIP3   OH2 3425   5.813   3.646   3.070
 1140TIP3    H1 3426   5.895   3.659   3.117
 1140TIP3    H2 3427   5.826   3.686   2.985
 1141TIP3   OH2 3428   3.175   4.266   4.356
 1141TIP3    H1 3429   3.244   4.322   4.320
 1141TIP3    H2 3430   3.189   4.181   4.314
 1142TIP3   OH2 3431   4.793   3.660   3.788
 1142TIP3    H1 3432   4.797   3.726   3.718
 1142TIP3    H2 3433   4.873   3.673   3.838
 1143TIP3   OH2 3434   1.951   3.667   0.256
 1143TIP3    H1 3435   1.982   3.677   0.346
 1143TIP3    H2 3436   1.873   3.723   0.252
 1144TIP3   OH2 3437   5.004   4.494   3.578
 1144TIP3    H1 3438   5.058   4.523   3.652
 1144TIP3    H2 3439   4.990   4.573   3.526
 1145TIP3   OH2 3440   1.024   0.970   4.121
 1145TIP3    H1 3441   0.939   0.932   4.098
 1145TIP3    H2 3442   1.013   0.999   4.212
 1146TIP3   OH2 3443   0.730   3.467   2.463
 1146TIP3    H1 3444   0.673   3.457   2.539
 1146TIP3    H2 3445   0.787   3.390   2.465
 1147TIP3   OH2 3446   1.813   2.268   0.084
 1147TIP3    H1 3447   1.893   2.319   0.097
 1147TIP3    H2 3448   1.822   2.232  -0.004
 1148TIP3   OH2 3449   0.279   3.333   3.076
 1148TIP3    H1 3450   0.251   3.358   2.988
 1148TIP3    H2 3451   0.361   3.286   3.063
 1149TIP3   OH2 3452   0.041   5.310   3.259
 1149TIP3    H1 3453   0.046   5.276   3.169
 1149TIP3    H2 3454  -0.052   5.308   3.280
 1150TIP3   OH2 3455   2.558   2.223   0.560
 1150TIP3    H1 3456   2.549   2.290   0.628
 1150TIP3    H2 3457   2.570   2.273   0.479
 1151TIP3   OH2 3458   1.716   2.718   3.763
 1151TIP3    H1 3459   1.723   2.702   3.857
 1151TIP3    H2 3460   1.744   2.636   3.723
 1152TIP3   OH2 3461   6.182   3.739   1.337
 1152TIP3    H1 3462   6.217   3.769   1.254
 1152TIP3    H2 3463   6.257   3.742   1.397
 1153TIP3   OH2 3464   4.619   0.609   5.135
 1153TIP3    H1 3465   4.715   0.612   5.128
 1153TIP3    H2 3466   4.602   0.597   5.228
 1154TIP3   OH2 3467   5.666   0.397   0.321
 1154TIP3    H1 3468   5.607   0.349   0.262
 1154TIP3    H2 3469   5.740   0.421   0.265
 1155TIP3   OH2 3470   5.149   4.725   2.804
 1155TIP3    H1 3471   5.074   4.759   2.756
 1155TIP3    H2 3472   5.170   4.642   2.761
 1156TIP3   OH2 3473   2.593   4.540   3.387
 1156TIP3    H1 3474   2.582   4.633   3.406
 1156TIP3    H2 3475   2.666   4.536   3.325
 1157TIP3   OH2 3476   5.962   1.299   4.123
 1157TIP3    H1 3477   5.891   1.262   4.176
 1157TIP3    H2 3478   5.932   1.387   4.101
 1158TIP3   OH2 3479   1.330   2.934   1.436
 1158TIP3    H1 3480   1.264   3.003   1.434
 1158TIP3    H2 3481   1.346   2.914   1.343
 1159TIP3   OH2 3482   5.110   1.679   1.286
 1159TIP3    H1 3483   5.083   1.756   1.337
 1159TIP3    H2 3484   5.034   1.660   1.231
 1160TIP3   OH2 3485   2.815   4.696   0.866
 1160TIP3    H1 3486   2.835   4.626   0.804
 1160TIP3    H2 3487   2.808   4.651   0.950
 1161TIP3   OH2 3488   2.640   2.784   2.607
 1161TIP3    H1 3489   2.578   2.735   2.553
 1161TIP3    H2 3490   2.661   2.861   2.554
 1162TIP3   OH2 3491   1.544   3.598   1.189
 1162TIP3    H1 3492   1.600   3.660   1.235
 1162TIP3    H2 3493   1.535   3.524   1.249
 1163TIP3   OH2 3494   0.969   0.520   3.084
 1163TIP3    H1 3495   0.911   0.591   3.057
 1163TIP3    H2 3496   1.054   0.542   3.046
 1164TIP3   OH2 3497   1.341   1.734   3.082
 1164TIP3    H1 3498   1.305   1.803   3.027
 1164TIP3    H2 3499   1.267   1.705   3.136
 1165TIP3   OH2 3500   4.306   0.658   0.670
 1165TIP3    H1 3501   4.365   0.709   0.725
 1165TIP3    H2 3502   4.263   0.598   0.731
 1166TIP3   OH2 3503   2.361   5.107   2.486
 1166TIP3    H1 3504   2.299   5.171   2.520
 1166TIP3    H2 3505   2.412   5.079   2.562
 1167TIP3   OH2 3506   2.952   2.956   4.495
 1167TIP3    H1 3507   2.870   2.936   4.541
 1167TIP3    H2 3508   3.018   2.903   4.538
 1168TIP3   OH2 3509   0.663   4.404   0.478
 1168TIP3    H1 3510   0.687   4.312   0.488
 1168TIP3    H2 3511   0.747   4.451   0.477
 1169TIP3   OH2 3512   4.023   1.307   5.041
 1169TIP3    H1 3513   3.963   1.350   4.981
 1169TIP3    H2 3514   4.098   1.366   5.048
 1170TIP3   OH2 3515   5.642   1.104   3.552
 1170TIP3    H1 3516   5.581   1.177   3.550
 1170TIP3    H2 3517   5.595   1.031   3.511
 1171TIP3   OH2 3518   3.419   4.172   3.372
 1171TIP3    H1 3519   3.465   4.094   3.404
 1171TIP3    H2 3520   3.488   4.227   3.334
 1172TIP3   OH2 3521   5.200   5.850   3.572
 1172TIP3    H1 3522   5.175   5.798   3.495
 1172TIP3    H2 3523   5.293   5.831   3.585
 1173TIP3   OH2 3524   3.997   2.207   5.066
 1173TIP3    H1 3525   4.052   2.188   5.141
 1173TIP3    H2 3526   3.924   2.146   5.073
 1174TIP3   OH2 3527   2.668   4.486   1.569
 1174TIP3    H1 3528   2.680   4.581   1.565
 1174TIP3    H2 3529   2.719   4.452   1.495
 1175TIP3   OH2 3530   6.043   2.531   1.242
 1175TIP3    H1 3531   6.033   2.553   1.150
 1175TIP3    H2 3532   6.008   2.606   1.290
 1176TIP3   OH2 3533   2.754   2.590   2.210
 1176TIP3    H1 3534   2.776   2.572   2.301
 1176TIP3    H2 3535   2.710   2.511   2.179
 1177TIP3   OH2 3536   0.805   4.122   3.385
 1177TIP3    H1 3537   0.723   4.169   3.399
 1177TIP3    H2 3538   0.779   4.033   3.363
 1178TIP3   OH2 3539   0.221   1.747   1.897
 1178TIP3    H1 3540   0.216   1.651   1.901
 1178TIP3    H2 3541   0.303   1.769   1.940
 1179TIP3   OH2 3542   6.156   4.336   3.342
 1179TIP3    H1 3543   6.092   4.394   3.383
 1179TIP3    H2 3544   6.213   4.308   3.413
 1180TIP3   OH2 3545   5.756   1.300   4.322
 1180TIP3    H1 3546   5.675   1.280   4.275
 1180TIP3    H2 3547   5.755   1.243   4.399
 1181TIP3   OH2 3548   2.373   0.901   0.188
 1181TIP3    H1 3549   2.441   0.857   0.240
 1181TIP3    H2 3550   2.304   0.835   0.178
 1182TIP3   OH2 3551   1.652   3.342   4.095
 1182TIP3    H1 3552   1.572   3.393   4.110
 1182TIP3    H2 3553   1.722   3.396   4.130
 1183TIP3   OH2 3554   3.527   1.600   2.048
 1183TIP3    H1 3555   3.530   1.572   1.957
 1183TIP3    H2 3556   3.619   1.604   2.075
 1184TIP3   OH2 3557   0.036   4.860   1.218
 1184TIP3    H1 3558   0.108   4.849   1.155
 1184TIP3    H2 3559   0.076   4.839   1.302
 1185TIP3   OH2 3560   2.886   1.671   2.181
 1185TIP3    H1 3561   2.879   1.612   2.256
 1185TIP3    H2 3562   2.980   1.678   2.164
 1186TIP3   OH2 3563   1.131   2.736   1.965
 1186TIP3    H1 3564   1.155   2.731   2.058
 1186TIP3    H2 3565   1.151   2.648   1.931
 1187TIP3   OH2 3566   5.026   1.370   2.593
 1187TIP3    H1 3567   4.984   1.442   2.642
 1187TIP3    H2 3568   5.017   1.396   2.501
 1188TIP3   OH2 3569   4.282   4.474   3.109
 1188TIP3    H1 3570   4.268   4.554   3.059
 1188TIP3    H2 3571   4.359   4.434   3.068
 1189TIP3   OH2 3572   5.962   0.854   2.371
 1189TIP3    H1 3573   6.055   0.863   2.388
 1189TIP3    H2 3574   5.954   0.769   2.327
 1190TIP3   OH2 3575   5.017   4.607   2.430
 1190TIP3    H1 3576   5.049   4.544   2.495
 1190TIP3    H2 3577   4.927   4.580   2.414
 1191TIP3   OH2 3578   4.982   2.363   0.825
 1191TIP3    H1 3579   4.967   2.272   0.851
 1191TIP3    H2 3580   5.076   2.376   0.837
 1192TIP3   OH2 3581   5.353   0.466   1.900
 1192TIP3    H1 3582   5.324   0.391   1.950
 1192TIP3    H2 3583   5.274   0.518   1.886
 1193TIP3   OH2 3584   0.823   3.656   1.525
 1193TIP3    H1 3585   0.878   3.690   1.454
 1193TIP3    H2 3586   0.766   3.592   1.482
 1194TIP3   OH2 3587   4.088   3.239   1.345
 1194TIP3    H1 3588   4.113   3.213   1.433
 1194TIP3    H2 3589   4.010   3.187   1.326
 1195TIP3   OH2 3590   5.408   4.196   3.570
 1195TIP3    H1 3591   5.400   4.236   3.483
 1195TIP3    H2 3592   5.320   4.167   3.591
 1196TIP3   OH2 3593   4.502   1.099   1.566
 1196TIP3    H1 3594   4.446   1.177   1.572
 1196TIP3    H2 3595   4.588   1.133   1.544
 1197TIP3   OH2 3596   4.972   1.343   3.036
 1197TIP3    H1 3597   4.922   1.420   3.007
 1197TIP3    H2 3598   4.911   1.270   3.026
 1198TIP3   OH2 3599   2.026   0.287   2.063
 1198TIP3    H1 3600   1.990   0.322   2.145
 1198TIP3    H2 3601   2.053   0.364   2.013
 1199TIP3   OH2 3602   6.010   1.690   1.984
 1199TIP3    H1 3603   6.010   1.763   2.046
 1199TIP3    H2 3604   5.918   1.677   1.962
 1200TIP3   OH2 3605   3.678   1.259   0.079
 1200TIP3    H1 3606   3.719   1.250   0.165
 1200TIP3    H2 3607   3.599   1.311   0.095
 1201TIP3   OH2 3608   4.817   5.854   4.951
 1201TIP3    H1 3609   4.870   5.874   4.874
 1201TIP3    H2 3610   4.874   5.798   5.005
 1202TIP3   OH2 3611   3.458   5.072   0.279
 1202TIP3    H1 3612   3.366   5.065   0.254
 1202TIP3    H2 3613   3.471   5.165   0.297
 1203TIP3   OH2 3614   4.878   3.250   3.218
 1203TIP3    H1 3615   4.795   3.206   3.199
 1203TIP3    H2 3616   4.929   3.240   3.137
 1204TIP3   OH2 3617   5.024   4.206   2.076
 1204TIP3    H1 3618   5.105   4.201   2.127
 1204TIP3    H2 3619   4.986   4.118   2.084
 1205TIP3   OH2 3620   6.158   5.477   4.119
 1205TIP3    H1 3621   6.111   5.539   4.064
 1205TIP3    H2 3622   6.233   5.450   4.065
 1206TIP3   OH2 3623   5.769   1.206   3.215
 1206TIP3    H1 3624   5.846   1.235   3.263
 1206TIP3    H2 3625   5.706   1.277   3.226
 1207TIP3   OH2 3626   1.538   0.254   4.764
 1207TIP3    H1 3627   1.581   0.339   4.757
 1207TIP3    H2 3628   1.472   0.266   4.833
 1208TIP3   OH2 3629   2.428   3.825   4.651
 1208TIP3    H1 3630   2.440   3.751   4.591
 1208TIP3    H2 3631   2.515   3.843   4.686
 1209TIP3   OH2 3632   0.706   0.169   5.170
 1209TIP3    H1 3633   0.732   0.081   5.197
 1209TIP3    H2 3634   0.657   0.155   5.088
 1210TIP3   OH2 3635   5.035   3.558   0.906
 1210TIP3    H1 3636   4.940   3.560   0.902
 1210TIP3    H2 3637   5.058   3.467   0.886
 1211TIP3   OH2 3638   4.281   4.607   4.052
 1211TIP3    H1 3639   4.276   4.680   4.113
 1211TIP3    H2 3640   4.246   4.641   3.969
 1212TIP3   OH2 3641   2.874   3.673   3.633
 1212TIP3    H1 3642   2.872   3.749   3.575
 1212TIP3    H2 3643   2.946   3.619   3.599
 1213TIP3   OH2 3644   0.336   0.767   4.261
 1213TIP3    H1 3645   0.414   0.820   4.273
 1213TIP3    H2 3646   0.369   0.679   4.244
 1214TIP3   OH2 3647   0.926   0.745   2.948
 1214TIP3    H1 3648   1.015   0.777   2.968
 1214TIP3    H2 3649   0.935   0.702   2.863
 1215TIP3   OH2 3650   4.938   2.809   0.029
 1215TIP3    H1 3651   5.001   2.737   0.018
 1215TIP3    H2 3652   4.985   2.887   0.001
 1216TIP3   OH2 3653   6.074   5.531   2.880
 1216TIP3    H1 3654   5.999   5.576   2.842
 1216TIP3    H2 3655   6.091   5.458   2.821
 1217TIP3   OH2 3656   0.841   4.824   3.139
 1217TIP3    H1 3657   0.909   4.769   3.100
 1217TIP3    H2 3658   0.809   4.773   3.214
 1218TIP3   OH2 3659   5.565   4.376   0.081
 1218TIP3    H1 3660   5.603   4.291   0.106
 1218TIP3    H2 3661   5.622   4.408   0.011
 1219TIP3   OH2 3662   2.510   1.781   0.976
 1219TIP3    H1 3663   2.553   1.763   1.059
 1219TIP3    H2 3664   2.566   1.845   0.932
 1220TIP3   OH2 3665   3.852   2.738   1.253
 1220TIP3    H1 3666   3.894   2.728   1.167
 1220TIP3    H2 3667   3.759   2.723   1.236
 1221TIP3   OH2 3668   0.313   4.221   0.108
 1221TIP3    H1 3669   0.363   4.171   0.044
 1221TIP3    H2 3670   0.251   4.159   0.145
 1222TIP3   OH2 3671   2.453   2.500   4.183
 1222TIP3    H1 3672   2.445   2.588   4.145
 1222TIP3    H2 3673   2.533   2.503   4.235
 1223TIP3   OH2 3674   1.600   1.766   3.229
 1223TIP3    H1 3675   1.626   1.676   3.245
 1223TIP3    H2 3676   1.521   1.759   3.176
 1224TIP3   OH2 3677   4.615   0.295   1.390
 1224TIP3    H1 3678   4.521   0.307   1.376
 1224TIP3    H2 3679   4.630   0.326   1.479
 1225TIP3   OH2 3680   1.087   0.063   4.208
 1225TIP3    H1 3681   1.097   0.144   4.259
 1225TIP3    H2 3682   1.149   0.072   4.136
 1226TIP3   OH2 3683   0.386   2.172   2.506
 1226TIP3    H1 3684   0.462   2.118   2.484
 1226TIP3    H2 3685   0.349   2.199   2.422
 1227TIP3   OH2 3686   6.263   5.676   0.418
 1227TIP3    H1 3687   6.245   5.660   0.325
 1227TIP3    H2 3688   6.205   5.749   0.441
 1228TIP3   OH2 3689   5.798   3.563   3.543
 1228TIP3    H1 3690   5.851   3.575   3.622
 1228TIP3    H2 3691   5.862   3.545   3.474
 1229TIP3   OH2 3692   0.038   1.673   2.730
 1229TIP3    H1 3693   0.012   1.738   2.665
 1229TIP3    H2 3694   0.122   1.640   2.699
 1230TIP3   OH2 3695   1.363   0.950   4.359
 1230TIP3    H1 3696   1.328   0.986   4.277
 1230TIP3    H2 3697   1.315   0.868   4.372
 1231TIP3   OH2 3698   4.714   0.181   3.551
 1231TIP3    H1 3699   4.643   0.122   3.527
 1231TIP3    H2 3700   4.779   0.125   3.593
 1232TIP3   OH2 3701   3.299   2.647   0.478
 1232TIP3    H1 3702   3.270   2.725   0.431
 1232TIP3    H2 3703   3.375   2.677   0.528
 1233TIP3   OH2 3704   4.446   3.483   0.601
 1233TIP3    H1 3705   4.465   3.545   0.531
 1233TIP3    H2 3706   4.406   3.408   0.557
 1234TIP3   OH2 3707   4.117   1.033   4.386
 1234TIP3    H1 3708   4.096   1.014   4.294
 1234TIP3    H2 3709   4.156   1.120   4.385
 1235TIP3   OH2 3710   2.391   0.548   4.305
 1235TIP3    H1 3711   2.431   0.542   4.218
 1235TIP3    H2 3712   2.427   0.473   4.353
 1236TIP3   OH2 3713   3.580   2.469   4.929
 1236TIP3    H1 3714   3.666   2.461   4.888
 1236TIP3    H2 3715   3.587   2.546   4.985
 1237TIP3   OH2 3716   5.454   4.834   2.181
 1237TIP3    H1 3717   5.383   4.899   2.183
 1237TIP3    H2 3718   5.498   4.850   2.098
 1238TIP3   OH2 3719   0.403   0.484   4.217
 1238TIP3    H1 3720   0.357   0.404   4.244
 1238TIP3    H2 3721   0.403   0.480   4.122
 1239TIP3   OH2 3722   4.383   3.126   2.184
 1239TIP3    H1 3723   4.437   3.128   2.105
 1239TIP3    H2 3724   4.349   3.036   2.186
 1240TIP3   OH2 3725   1.203   1.824   1.553
 1240TIP3    H1 3726   1.122   1.851   1.595
 1240TIP3    H2 3727   1.255   1.786   1.623
 1241TIP3   OH2 3728   2.879   2.228   3.494
 1241TIP3    H1 3729   2.814   2.172   3.537
 1241TIP3    H2 3730   2.942   2.167   3.456
 1242TIP3   OH2 3731   2.062   5.485   1.212
 1242TIP3    H1 3732   2.085   5.560   1.158
 1242TIP3    H2 3733   1.971   5.465   1.189
 1243TIP3   OH2 3734   5.619   3.079   4.670
 1243TIP3    H1 3735   5.590   2.990   4.652
 1243TIP3    H2 3736   5.682   3.098   4.601
 1244TIP3   OH2 3737   6.158   2.677   3.889
 1244TIP3    H1 3738   6.252   2.673   3.871
 1244TIP3    H2 3739   6.146   2.758   3.939
 1245TIP3   OH2 3740   4.927   0.457   2.700
 1245TIP3    H1 3741   4.995   0.478   2.765
 1245TIP3    H2 3742   4.968   0.475   2.616
 1246TIP3   OH2 3743   5.595   0.969   2.407
 1246TIP3    H1 3744   5.644   1.051   2.407
 1246TIP3    H2 3745   5.632   0.919   2.480
 1247TIP3   OH2 3746   3.936   0.230   4.075
 1247TIP3    H1 3747   3.945   0.242   4.170
 1247TIP3    H2 3748   3.870   0.294   4.050
 1248TIP3   OH2 3749   2.329   1.508   3.656
 1248TIP3    H1 3750   2.397   1.575   3.660
 1248TIP3    H2 3751   2.334   1.463   3.740
 1249TIP3   OH2 3752   0.717   5.768   3.665
 1249TIP3    H1 3753   0.633   5.755   3.708
 1249TIP3    H2 3754   0.709   5.853   3.622
 1250TIP3   OH2 3755   5.746   2.730   0.451
 1250TIP3    H1 3756   5.711   2.801   0.397
 1250TIP3    H2 3757   5.724   2.650   0.403
 1251TIP3   OH2 3758   3.331   3.944   1.010
 1251TIP3    H1 3759   3.359   3.977   0.924
 1251TIP3    H2 3760   3.408   3.956   1.065
 1252TIP3   OH2 3761   2.175   4.633   4.307
 1252TIP3    H1 3762   2.102   4.603   4.362
 1252TIP3    H2 3763   2.253   4.596   4.348
 1253TIP3   OH2 3764   3.893   3.476   5.141
 1253TIP3    H1 3765   3.798   3.465   5.138
 1253TIP3    H2 3766   3.926   3.391   5.169
 1254TIP3   OH2 3767   2.632   1.541   0.565
 1254TIP3    H1 3768   2.686   1.598   0.619
 1254TIP3    H2 3769   2.543   1.576   0.574
 1255TIP3   OH2 3770   4.059   0.433   0.110
 1255TIP3    H1 3771   3.986   0.401   0.163
 1255TIP3    H2 3772   4.090   0.356   0.063
 1256TIP3   OH2 3773   2.962   1.154   0.518
 1256TIP3    H1 3774   3.009   1.235   0.499
 1256TIP3    H2 3775   2.873   1.183   0.540
 1257TIP3   OH2 3776   0.703   0.165   2.691
 1257TIP3    H1 3777   0.638   0.234   2.685
 1257TIP3    H2 3778   0.667   0.104   2.756
 1258TIP3   OH2 3779   1.986   3.872   2.595
 1258TIP3    H1 3780   2.009   3.816   2.520
 1258TIP3    H2 3781   2.038   3.837   2.668
 1259TIP3   OH2 3782   1.078   2.014   4.434
 1259TIP3    H1 3783   1.074   2.101   4.474
 1259TIP3    H2 3784   0.987   1.989   4.422
 1260TIP3   OH2 3785   1.798   5.529   2.130
 1260TIP3    H1 3786   1.758   5.601   2.177
 1260TIP3    H2 3787   1.756   5.451   2.165
 1261TIP3   OH2 3788   2.392   0.480   0.789
 1261TIP3    H1 3789   2.353   0.567   0.790
 1261TIP3    H2 3790   2.444   0.478   0.708
 1262TIP3   OH2 3791   0.545   4.674   0.960
 1262TIP3    H1 3792   0.604   4.625   0.904
 1262TIP3    H2 3793   0.480   4.610   0.989
 1263TIP3   OH2 3794   1.638   0.982   4.347
 1263TIP3    H1 3795   1.640   0.995   4.252
 1263TIP3    H2 3796   1.550   0.949   4.365
 1264TIP3   OH2 3797   1.922   4.940   0.658
 1264TIP3    H1 3798   1.919   5.028   0.697
 1264TIP3    H2 3799   1.889   4.882   0.727
 1265TIP3   OH2 3800   2.563   3.072   0.493
 1265TIP3    H1 3801   2.610   3.004   0.445
 1265TIP3    H2 3802   2.594   3.154   0.454
 1266TIP3   OH2 3803   4.690   3.408   3.758
 1266TIP3    H1 3804   4.750   3.356   3.810
 1266TIP3    H2 3805   4.719   3.499   3.770
 1267TIP3   OH2 3806   1.952   2.519   5.102
 1267TIP3    H1 3807   2.031   2.573   5.096
 1267TIP3    H2 3808   1.984   2.429   5.096
 1268TIP3   OH2 3809   0.011   1.435   4.500
 1268TIP3    H1 3810   0.072   1.487   4.447
 1268TIP3    H2 3811  -0.070   1.435   4.449
 1269TIP3   OH2 3812   2.465   3.111   4.212
 1269TIP3    H1 3813   2.537   3.104   4.274
 1269TIP3    H2 3814   2.491   3.056   4.138
 1270TIP3   OH2 3815   0.274   2.216   3.772
 1270TIP3    H1 3816   0.343   2.153   3.793
 1270TIP3    H2 3817   0.320   2.288   3.729
 1271TIP3   OH2 3818   3.600   0.827   3.261
 1271TIP3    H1 3819   3.631   0.737   3.261
 1271TIP3    H2 3820   3.514   0.823   3.220
 1272TIP3   OH2 3821   5.936   1.783   2.647
 1272TIP3    H1 3822   5.929   1.846   2.719
 1272TIP3    H2 3823   6.001   1.719   2.678
 1273TIP3   OH2 3824   6.139   5.717   1.165
 1273TIP3    H1 3825   6.120   5.801   1.207
 1273TIP3    H2 3826   6.100   5.652   1.222
 1274TIP3   OH2 3827   1.826   0.277   3.597
 1274TIP3    H1 3828   1.788   0.205   3.649
 1274TIP3    H2 3829   1.763   0.291   3.526
 1275TIP3   OH2 3830   3.314   5.085   4.840
 1275TIP3    H1 3831   3.315   5.127   4.926
 1275TIP3    H2 3832   3.353   5.150   4.781
 1276TIP3   OH2 3833   1.936   0.589   4.891
 1276TIP3    H1 3834   1.909   0.619   4.979
 1276TIP3    H2 3835   2.026   0.621   4.882
 1277TIP3   OH2 3836   5.664   5.410   2.663
 1277TIP3    H1 3837   5.597   5.342   2.668
 1277TIP3    H2 3838   5.715   5.399   2.743
 1278TIP3   OH2 3839   3.522   4.693   0.784
 1278TIP3    H1 3840   3.471   4.613   0.774
 1278TIP3    H2 3841   3.482   4.755   0.723
 1279TIP3   OH2 3842   4.061   2.799   0.566
 1279TIP3    H1 3843   4.005   2.748   0.509
 1279TIP3    H2 3844   4.140   2.746   0.577
 1280TIP3   OH2 3845   2.485   5.329   3.284
 1280TIP3    H1 3846   2.518   5.258   3.339
 1280TIP3    H2 3847   2.542   5.329   3.207
 1281TIP3   OH2 3848   1.538   5.853   3.034
 1281TIP3    H1 3849   1.523   5.861   3.128
 1281TIP3    H2 3850   1.587   5.932   3.011
 1282TIP3   OH2 3851   5.262   4.157   2.189
 1282TIP3    H1 3852   5.329   4.224   2.190
 1282TIP3    H2 3853   5.308   4.076   2.210
 1283TIP3   OH2 3854   4.143   0.230   2.757
 1283TIP3    H1 3855   4.101   0.311   2.784
 1283TIP3    H2 3856   4.071   0.170   2.739
 1284TIP3   OH2 3857   3.976   5.271   0.492
 1284TIP3    H1 3858   3.999   5.355   0.454
 1284TIP3    H2 3859   4.022   5.269   0.576
 1285TIP3   OH2 3860   3.186   1.485   3.011
 1285TIP3    H1 3861   3.266   1.490   3.063
 1285TIP3    H2 3862   3.115   1.498   3.074
 1286TIP3   OH2 3863   3.886   1.321   3.067
 1286TIP3    H1 3864   3.935   1.403   3.059
 1286TIP3    H2 3865   3.948   1.253   3.040
 1287TIP3   OH2 3866   1.452   1.791   3.646
 1287TIP3    H1 3867   1.409   1.712   3.614
 1287TIP3    H2 3868   1.462   1.847   3.569
 1288TIP3   OH2 3869   4.665   0.810   4.459
 1288TIP3    H1 3870   4.670   0.738   4.522
 1288TIP3    H2 3871   4.721   0.783   4.387
 1289TIP3   OH2 3872   5.353   2.681   1.076
 1289TIP3    H1 3873   5.317   2.673   1.164
 1289TIP3    H2 3874   5.447   2.691   1.090
 1290TIP3   OH2 3875   1.347   4.427   1.382
 1290TIP3    H1 3876   1.275   4.467   1.432
 1290TIP3    H2 3877   1.307   4.402   1.299
 1291TIP3   OH2 3878   0.296   5.165   2.604
 1291TIP3    H1 3879   0.303   5.156   2.509
 1291TIP3    H2 3880   0.276   5.077   2.635
 1292TIP3   OH2 3881   0.151   2.707   4.395
 1292TIP3    H1 3882   0.235   2.662   4.388
 1292TIP3    H2 3883   0.091   2.641   4.430
 1293TIP3   OH2 3884   4.162   3.151   3.539
 1293TIP3    H1 3885   4.252   3.169   3.567
 1293TIP3    H2 3886   4.117   3.126   3.619
 1294TIP3   OH2 3887   5.380   1.001   3.741
 1294TIP3    H1 3888   5.343   0.977   3.826
 1294TIP3    H2 3889   5.461   1.047   3.762
 1295TIP3   OH2 3890   1.102   5.031   4.602
 1295TIP3    H1 3891   1.136   5.004   4.516
 1295TIP3    H2 3892   1.180   5.060   4.650
 1296TIP3   OH2 3893   0.113   1.331   2.602
 1296TIP3    H1 3894   0.052   1.340   2.675
 1296TIP3    H2 3895   0.124   1.237   2.591
 1297TIP3   OH2 3896   3.490   4.547   2.936
 1297TIP3    H1 3897   3.499   4.622   2.994
 1297TIP3    H2 3898   3.396   4.533   2.929
 1298TIP3   OH2 3899   1.455   5.031   2.243
 1298TIP3    H1 3900   1.449   4.964   2.175
 1298TIP3    H2 3901   1.548   5.035   2.265
 1299TIP3   OH2 3902   4.609   5.697   2.049
 1299TIP3    H1 3903   4.578   5.719   2.137
 1299TIP3    H2 3904   4.665   5.620   2.061
 1300TIP3   OH2 3905   2.418   0.751   3.194
 1300TIP3    H1 3906   2.342   0.770   3.250
 1300TIP3    H2 3907   2.418   0.656   3.185
 1301TIP3   OH2 3908   2.467   3.025   1.541
 1301TIP3    H1 3909   2.530   3.085   1.581
 1301TIP3    H2 3910   2.518   2.945   1.526
 1302TIP3   OH2 3911   0.331   5.382   0.661
 1302TIP3    H1 3912   0.267   5.333   0.608
 1302TIP3    H2 3913   0.416   5.351   0.630
 1303TIP3   OH2 3914   3.200   5.957   0.925
 1303TIP3    H1 3915   3.229   5.873   0.891
 1303TIP3    H2 3916   3.138   5.935   0.995
 1304TIP3   OH2 3917   2.938   5.859   3.286
 1304TIP3    H1 3918   2.987   5.902   3.356
 1304TIP3    H2 3919   2.871   5.808   3.331
 1305TIP3   OH2 3920   2.575   5.174   5.170
 1305TIP3    H1 3921   2.547   5.133   5.089
 1305TIP3    H2 3922   2.627   5.106   5.214
 1306TIP3   OH2 3923   0.724   2.433   4.492
 1306TIP3    H1 3924   0.725   2.455   4.585
 1306TIP3    H2 3925   0.658   2.364   4.484
 1307TIP3   OH2 3926   5.667   1.928   2.030
 1307TIP3    H1 3927   5.650   2.015   1.995
 1307TIP3    H2 3928   5.597   1.914   2.094
 1308TIP3   OH2 3929   4.988   0.051   1.082
 1308TIP3    H1 3930   5.059  -0.014   1.077
 1308TIP3    H2 3931   5.030   0.133   1.056
 1309TIP3   OH2 3932   4.809   1.211   0.104
 1309TIP3    H1 3933   4.792   1.295   0.062
 1309TIP3    H2 3934   4.733   1.196   0.161
 1310TIP3   OH2 3935   4.110   3.605   0.981
 1310TIP3    H1 3936   4.153   3.603   1.066
 1310TIP3    H2 3937   4.180   3.592   0.917
 1311TIP3   OH2 3938   3.721   3.828   4.180
 1311TIP3    H1 3939   3.787   3.825   4.110
 1311TIP3    H2 3940   3.741   3.753   4.235
 1312TIP3   OH2 3941   0.761   5.250   3.107
 1312TIP3    H1 3942   0.689   5.310   3.090
 1312TIP3    H2 3943   0.825   5.270   3.039
 1313TIP3   OH2 3944   1.071   5.403   1.612
 1313TIP3    H1 3945   1.129   5.328   1.597
 1313TIP3    H2 3946   1.129   5.479   1.614
 1314TIP3   OH2 3947   3.042   4.014   2.813
 1314TIP3    H1 3948   3.111   4.074   2.786
 1314TIP3    H2 3949   3.070   3.982   2.899
 1315TIP3   OH2 3950   5.519   4.666   1.898
 1315TIP3    H1 3951   5.590   4.712   1.852
 1315TIP3    H2 3952   5.561   4.588   1.935
 1316TIP3   OH2 3953   1.610   0.134   1.881
 1316TIP3    H1 3954   1.588   0.044   1.857
 1316TIP3    H2 3955   1.533   0.166   1.929
 1317TIP3   OH2 3956   3.065   4.907   4.723
 1317TIP3    H1 3957   3.063   4.986   4.669
 1317TIP3    H2 3958   3.078   4.938   4.812
 1318TIP3   OH2 3959   6.142   0.089   2.724
 1318TIP3    H1 3960   6.231   0.107   2.754
 1318TIP3    H2 3961   6.105   0.175   2.704
 1319TIP3   OH2 3962   0.340   4.585   1.397
 1319TIP3    H1 3963   0.370   4.508   1.446
 1319TIP3    H2 3964   0.380   4.659   1.442
 1320TIP3   OH2 3965   4.316   5.750   4.904
 1320TIP3    H1 3966   4.261   5.823   4.933
 1320TIP3    H2 3967   4.302   5.682   4.970
 1321TIP3   OH2 3968   0.213   0.778   0.423
 1321TIP3    H1 3969   0.196   0.685   0.408
 1321TIP3    H2 3970   0.168   0.822   0.352
 1322TIP3   OH2 3971   0.132   0.370   4.084
 1322TIP3    H1 3972   0.061   0.407   4.032
 1322TIP3    H2 3973   0.211   0.412   4.050
 1323TIP3   OH2 3974   0.313   5.344   5.203
 1323TIP3    H1 3975   0.292   5.340   5.109
 1323TIP3    H2 3976   0.408   5.356   5.206
 1324TIP3   OH2 3977   0.466   0.140   3.428
 1324TIP3    H1 3978   0.467   0.235   3.442
 1324TIP3    H2 3979   0.401   0.107   3.490
 1325TIP3   OH2 3980   0.396   1.261   4.206
 1325TIP3    H1 3981   0.365   1.249   4.295
 1325TIP3    H2 3982   0.367   1.183   4.159
 1326TIP3   OH2 3983   0.530   4.124   2.537
 1326TIP3    H1 3984   0.590   4.110   2.464
 1326TIP3    H2 3985   0.445   4.137   2.494
 1327TIP3   OH2 3986   3.332   4.379   3.840
 1327TIP3    H1 3987   3.423   4.409   3.847
 1327TIP3    H2 3988   3.333   4.316   3.768
 1328TIP3   OH2 3989   4.075   1.471   3.345
 1328TIP3    H1 3990   4.107   1.467   3.436
 1328TIP3    H2 3991   4.139   1.421   3.295
 1329TIP3   OH2 3992   0.372   0.456   2.916
 1329TIP3    H1 3993   0.454   0.476   2.962
 1329TIP3    H2 3994   0.343   0.540   2.881
 1330TIP3   OH2 3995   1.160   1.287   0.830
 1330TIP3    H1 3996   1.098   1.260   0.897
 1330TIP3    H2 3997   1.105   1.319   0.758
 1331TIP3   OH2 3998   1.412   4.859   1.021
 1331TIP3    H1 3999   1.399   4.948   1.053
 1331TIP3    H2 4000   1.369   4.804   1.086
 1332TIP3   OH2 4001   1.165   0.553   2.293
 1332TIP3    H1 4002   1.094   0.494   2.319
 1332TIP3    H2 4003   1.144   0.636   2.334
 1333TIP3   OH2 4004   0.899   3.198   1.541
 1333TIP3    H1 4005   0.841   3.210   1.466
 1333TIP3    H2 4006   0.855   3.243   1.613
 1334TIP3   OH2 4007   1.906   3.237   0.144
 1334TIP3    H1 4008   1.928   3.284   0.224
 1334TIP3    H2 4009   1.848   3.167   0.172
 1335TIP3   OH2 4010   3.978   0.162   1.538
 1335TIP3    H1 4011   3.990   0.083   1.591
 1335TIP3    H2 4012   3.933   0.223   1.596
 1336TIP3   OH2 4013   6.160   5.112   0.281
 1336TIP3    H1 4014   6.239   5.128   0.229
 1336TIP3    H2 4015   6.107   5.191   0.269
 1337TIP3   OH2 4016   5.381   4.349   2.746
 1337TIP3    H1 4017   5.448   4.408   2.712
 1337TIP3    H2 4018   5.363   4.288   2.675
 1338TIP3   OH2 4019   4.774   1.157   2.830
 1338TIP3    H1 4020   4.858   1.171   2.788
 1338TIP3    H2 4021   4.712   1.207   2.777
 1339TIP3   OH2 4022   4.776   5.301   4.689
 1339TIP3    H1 4023   4.739   5.329   4.772
 1339TIP3    H2 4024   4.870   5.293   4.706
 1340TIP3   OH2 4025   4.415   0.625   4.022
 1340TIP3    H1 4026   4.375   0.551   4.068
 1340TIP3    H2 4027   4.387   0.615   3.931
 1341TIP3   OH2 4028   1.529   5.021   4.383
 1341TIP3    H1 4029   1.460   5.068   4.430
 1341TIP3    H2 4030   1.538   5.068   4.300
 1342TIP3   OH2 4031   5.184   2.663   2.281
 1342TIP3    H1 4032   5.213   2.613   2.205
 1342TIP3    H2 4033   5.096   2.692   2.259
 1343TIP3   OH2 4034   0.390   0.695   4.709
 1343TIP3    H1 4035   0.301   0.662   4.699
 1343TIP3    H2 4036   0.383   0.789   4.695
 1344TIP3   OH2 4037   4.793   2.821   1.204
 1344TIP3    H1 4038   4.720   2.859   1.253
 1344TIP3    H2 4039   4.762   2.733   1.181
 1345TIP3   OH2 4040   1.278   0.528   0.189
 1345TIP3    H1 4041   1.273   0.496   0.279
 1345TIP3    H2 4042   1.303   0.451   0.137
 1346TIP3   OH2 4043   1.267   0.707   1.052
 1346TIP3    H1 4044   1.327   0.781   1.047
 1346TIP3    H2 4045   1.304   0.642   0.992
 1347TIP3   OH2 4046   0.303   4.235   2.230
 1347TIP3    H1 4047   0.294   4.295   2.304
 1347TIP3    H2 4048   0.333   4.291   2.157
 1348TIP3   OH2 4049   3.815   0.253   4.755
 1348TIP3    H1 4050   3.897   0.209   4.732
 1348TIP3    H2 4051   3.839   0.314   4.825
 1349TIP3   OH2 4052   3.702   1.778   5.032
 1349TIP3    H1 4053   3.677   1.762   5.123
 1349TIP3    H2 4054   3.773   1.716   5.015
 1350TIP3   OH2 4055   0.201   1.961   2.264
 1350TIP3    H1 4056   0.182   2.053   2.246
 1350TIP3    H2 4057   0.288   1.962   2.304
 1351TIP3   OH2 4058   1.595   0.361   2.278
 1351TIP3    H1 4059   1.612   0.410   2.198
 1351TIP3    H2 4060   1.529   0.412   2.324
 1352TIP3   OH2 4061   3.436   4.426   5.020
 1352TIP3    H1 4062   3.409   4.500   4.965
 1352TIP3    H2 4063   3.361   4.410   5.078
 1353TIP3   OH2 4064   4.134   4.012   3.263
 1353TIP3    H1 4065   4.206   4.018   3.326
 1353TIP3    H2 4066   4.101   3.922   3.273
 1354TIP3   OH2 4067   5.834   3.014   3.315
 1354TIP3    H1 4068   5.789   2.938   3.279
 1354TIP3    H2 4069   5.891   3.044   3.245
 1355TIP3   OH2 4070   1.543   4.826   3.948
 1355TIP3    H1 4071   1.464   4.880   3.949
 1355TIP3    H2 4072   1.591   4.855   3.871
 1356TIP3   OH2 4073   1.579   5.685   4.594
 1356TIP3    H1 4074   1.636   5.608   4.594
 1356TIP3    H2 4075   1.491   5.649   4.606
 1357TIP3   OH2 4076   5.151   2.688   1.754
 1357TIP3    H1 4077   5.089   2.664   1.822
 1357TIP3    H2 4078   5.131   2.780   1.735
 1358TIP3   OH2 4079   2.778   1.886   3.465
 1358TIP3    H1 4080   2.787   1.811   3.524
 1358TIP3    H2 4081   2.762   1.960   3.524
 1359TIP3   OH2 4082   4.372   5.456   4.230
 1359TIP3    H1 4083   4.355   5.529   4.290
 1359TIP3    H2 4084   4.339   5.487   4.146
 1360TIP3   OH2 4085   3.538   3.735   0.676
 1360TIP3    H1 4086   3.578   3.779   0.751
 1360TIP3    H2 4087   3.529   3.643   0.704
 1361TIP3   OH2 4088   2.004   3.339   3.775
 1361TIP3    H1 4089   1.999   3.334   3.680
 1361TIP3    H2 4090   2.071   3.406   3.792
 1362TIP3   OH2 4091   1.036   2.744   2.268
 1362TIP3    H1 4092   0.961   2.686   2.259
 1362TIP3    H2 4093   1.068   2.729   2.357
 1363TIP3   OH2 4094   3.085   0.675   0.104
 1363TIP3    H1 4095   3.089   0.653   0.197
 1363TIP3    H2 4096   3.164   0.726   0.088
 1364TIP3   OH2 4097   5.059   3.936   0.123
 1364TIP3    H1 4098   5.052   3.934   0.028
 1364TIP3    H2 4099   5.014   4.017   0.149
 1365TIP3   OH2 4100   1.555   0.909   0.156
 1365TIP3    H1 4101   1.476   0.933   0.108
 1365TIP3    H2 4102   1.524   0.892   0.246
 1366TIP3   OH2 4103   5.466   4.318   2.231
 1366TIP3    H1 4104   5.425   4.399   2.261
 1366TIP3    H2 4105   5.560   4.332   2.243
 1367TIP3   OH2 4106   1.289   3.333   2.668
 1367TIP3    H1 4107   1.205   3.378   2.658
 1367TIP3    H2 4108   1.269   3.255   2.720
 1368TIP3   OH2 4109   0.799   3.786   0.643
 1368TIP3    H1 4110   0.801   3.793   0.739
 1368TIP3    H2 4111   0.879   3.828   0.614
 1369TIP3   OH2 4112   1.930   3.321   1.043
 1369TIP3    H1 4113   1.995   3.286   1.104
 1369TIP3    H2 4114   1.903   3.405   1.082
 1370TIP3   OH2 4115   3.382   1.804   0.047
 1370TIP3    H1 4116   3.290   1.827   0.036
 1370TIP3    H2 4117   3.416   1.794  -0.042
 1371TIP3   OH2 4118   0.780   2.665   3.478
 1371TIP3    H1 4119   0.798   2.655   3.384
 1371TIP3    H2 4120   0.689   2.693   3.482
 1372TIP3   OH2 4121   4.109   2.922   3.299
 1372TIP3    H1 4122   4.139   2.980   3.229
 1372TIP3    H2 4123   4.178   2.924   3.364
 1373TIP3   OH2 4124   5.531   5.180   1.006
 1373TIP3    H1 4125   5.533   5.084   1.010
 1373TIP3    H2 4126   5.467   5.199   0.938
 1374TIP3   OH2 4127   1.339   1.994   0.567
 1374TIP3    H1 4128   1.295   2.076   0.544
 1374TIP3    H2 4129   1.365   1.955   0.484
 1375TIP3   OH2 4130   0.709   3.301   4.919
 1375TIP3    H1 4131   0.643   3.240   4.952
 1375TIP3    H2 4132   0.763   3.322   4.995
 1376TIP3   OH2 4133   4.678   4.601   2.558
 1376TIP3    H1 4134   4.720   4.522   2.594
 1376TIP3    H2 4135   4.735   4.673   2.585
 1377TIP3   OH2 4136   0.552   3.962   3.762
 1377TIP3    H1 4137   0.639   3.926   3.744
 1377TIP3    H2 4138   0.502   3.888   3.796
 1378TIP3   OH2 4139   1.845   5.661   0.515
 1378TIP3    H1 4140   1.917   5.669   0.453
 1378TIP3    H2 4141   1.810   5.573   0.499
 1379TIP3   OH2 4142   0.234   5.512   2.086
 1379TIP3    H1 4143   0.150   5.483   2.050
 1379TIP3    H2 4144   0.249   5.597   2.046
 1380TIP3   OH2 4145   1.796   5.456   3.599
 1380TIP3    H1 4146   1.760   5.501   3.522
 1380TIP3    H2 4147   1.749   5.373   3.603
 1381TIP3   OH2 4148   3.238   0.852   0.331
 1381TIP3    H1 4149   3.281   0.936   0.350
 1381TIP3    H2 4150   3.144   0.873   0.330
 1382TIP3   OH2 4151   5.255   5.169   0.917
 1382TIP3    H1 4152   5.194   5.211   0.855
 1382TIP3    H2 4153   5.258   5.078   0.889
 1383TIP3   OH2 4154   5.144   2.238   4.342
 1383TIP3    H1 4155   5.152   2.202   4.431
 1383TIP3    H2 4156   5.088   2.175   4.297
 1384TIP3   OH2 4157   0.117   0.049   1.104
 1384TIP3    H1 4158   0.057   0.042   1.178
 1384TIP3    H2 4159   0.186  -0.014   1.123
 1385TIP3   OH2 4160   2.524   4.731   0.564
 1385TIP3    H1 4161   2.531   4.819   0.527
 1385TIP3    H2 4162   2.536   4.743   0.658
 1386TIP3   OH2 4163   1.019   4.229   3.495
 1386TIP3    H1 4164   1.090   4.192   3.442
 1386TIP3    H2 4165   0.940   4.207   3.447
 1387TIP3   OH2 4166   1.609   3.384   2.817
 1387TIP3    H1 4167   1.644   3.295   2.807
 1387TIP3    H2 4168   1.520   3.370   2.850
 1388TIP3   OH2 4169   5.718   5.810   3.833
 1388TIP3    H1 4170   5.663   5.732   3.832
 1388TIP3    H2 4171   5.725   5.834   3.925
 1389TIP3   OH2 4172   2.880   4.908   3.358
 1389TIP3    H1 4173   2.892   4.972   3.288
 1389TIP3    H2 4174   2.790   4.877   3.347
 1390TIP3   OH2 4175   1.794   4.548   0.216
 1390TIP3    H1 4176   1.883   4.514   0.227
 1390TIP3    H2 4177   1.765   4.569   0.305
 1391TIP3   OH2 4178   3.729   5.885   3.388
 1391TIP3    H1 4179   3.694   5.893   3.299
 1391TIP3    H2 4180   3.660   5.920   3.444
 1392TIP3   OH2 4181   4.131   3.927   4.627
 1392TIP3    H1 4182   4.161   3.849   4.674
 1392TIP3    H2 4183   4.184   3.998   4.662
 1393TIP3   OH2 4184   3.149   5.897   4.940
 1393TIP3    H1 4185   3.232   5.851   4.933
 1393TIP3    H2 4186   3.106   5.858   5.016
 1394TIP3   OH2 4187   0.948   5.310   2.922
 1394TIP3    H1 4188   1.038   5.338   2.937
 1394TIP3    H2 4189   0.910   5.378   2.867
 1395TIP3   OH2 4190   3.606   4.288   0.008
 1395TIP3    H1 4191   3.611   4.305   0.102
 1395TIP3    H2 4192   3.546   4.354  -0.026
 1396TIP3   OH2 4193   1.999   0.653   2.138
 1396TIP3    H1 4194   1.987   0.748   2.133
 1396TIP3    H2 4195   2.003   0.634   2.232
 1397TIP3   OH2 4196   4.480   2.167   2.353
 1397TIP3    H1 4197   4.559   2.186   2.402
 1397TIP3    H2 4198   4.511   2.129   2.270
 1398TIP3   OH2 4199   5.447   1.847   3.457
 1398TIP3    H1 4200   5.400   1.921   3.421
 1398TIP3    H2 4201   5.538   1.876   3.461
 1399TIP3   OH2 4202   0.881   2.235   1.841
 1399TIP3    H1 4203   0.862   2.141   1.831
 1399TIP3    H2 4204   0.798   2.273   1.871
 1400TIP3   OH2 4205   0.607   3.582   1.331
 1400TIP3    H1 4206   0.527   3.530   1.322
 1400TIP3    H2 4207   0.587   3.665   1.289
 1401TIP3   OH2 4208   5.841   0.949   1.931
 1401TIP3    H1 4209   5.832   0.993   2.015
 1401TIP3    H2 4210   5.758   0.969   1.885
 1402TIP3   OH2 4211   1.705   1.613   4.155
 1402TIP3    H1 4212   1.692   1.658   4.071
 1402TIP3    H2 4213   1.783   1.654   4.193
 1403TIP3   OH2 4214   2.495   4.994   1.627
 1403TIP3    H1 4215   2.585   5.011   1.599
 1403TIP3    H2 4216   2.441   5.051   1.572
 1404TIP3   OH2 4217   1.069   1.668   4.855
 1404TIP3    H1 4218   1.127   1.702   4.923
 1404TIP3    H2 4219   1.001   1.734   4.844
 1405TIP3   OH2 4220   3.374   1.152   3.354
 1405TIP3    H1 4221   3.446   1.215   3.342
 1405TIP3    H2 4222   3.370   1.104   3.271
 1406TIP3   OH2 4223   2.404   0.449   0.114
 1406TIP3    H1 4224   2.479   0.389   0.115
 1406TIP3    H2 4225   2.411   0.495   0.030
 1407TIP3   OH2 4226   4.041   0.457   3.874
 1407TIP3    H1 4227   3.976   0.398   3.913
 1407TIP3    H2 4228   3.996   0.541   3.866
 1408TIP3   OH2 4229   3.161   0.955   1.748
 1408TIP3    H1 4230   3.109   1.007   1.809
 1408TIP3    H2 4231   3.252   0.972   1.773
 1409TIP3   OH2 4232   2.022   5.413   0.873
 1409TIP3    H1 4233   2.055   5.324   0.859
 1409TIP3    H2 4234   2.098   5.464   0.898
 1410TIP3   OH2 4235   4.061   5.379   5.027
 1410TIP3    H1 4236   4.130   5.443   5.039
 1410TIP3    H2 4237   4.103   5.307   4.980
 1411TIP3   OH2 4238   1.208   5.070   1.117
 1411TIP3    H1 4239   1.167   5.077   1.030
 1411TIP3    H2 4240   1.291   5.118   1.108
 1412TIP3   OH2 4241   4.875   1.053   0.400
 1412TIP3    H1 4242   4.940   0.990   0.433
 1412TIP3    H2 4243   4.922   1.102   0.332
 1413TIP3   OH2 4244   5.466   1.549   4.890
 1413TIP3    H1 4245   5.388   1.548   4.946
 1413TIP3    H2 4246   5.449   1.618   4.827
 1414TIP3   OH2 4247   2.271   5.431   0.377
 1414TIP3    H1 4248   2.265   5.447   0.471
 1414TIP3    H2 4249   2.282   5.336   0.370
 1415TIP3   OH2 4250   2.125   5.217   2.572
 1415TIP3    H1 4251   2.071   5.226   2.651
 1415TIP3    H2 4252   2.064   5.226   2.500
 1416TIP3   OH2 4253   0.225   0.482   0.425
 1416TIP3    H1 4254   0.307   0.488   0.376
 1416TIP3    H2 4255   0.251   0.446   0.510
 1417TIP3   OH2 4256   5.904   0.480   1.962
 1417TIP3    H1 4257   5.951   0.460   2.043
 1417TIP3    H2 4258   5.930   0.570   1.942
 1418TIP3   OH2 4259   6.119   3.113   4.214
 1418TIP3    H1 4260   6.086   3.181   4.273
 1418TIP3    H2 4261   6.214   3.125   4.214
 1419TIP3   OH2 4262   3.592   1.335   4.055
 1419TIP3    H1 4263   3.516   1.277   4.051
 1419TIP3    H2 4264   3.668   1.276   4.053
 1420TIP3   OH2 4265   2.937   5.524   3.231
 1420TIP3    H1 4266   2.922   5.434   3.262
 1420TIP3    H2 4267   2.850   5.556   3.207
 1421TIP3   OH2 4268   6.136   2.337   2.173
 1421TIP3    H1 4269   6.059   2.311   2.124
 1421TIP3    H2 4270   6.117   2.314   2.264
 1422TIP3   OH2 4271   3.643   4.299   2.956
 1422TIP3    H1 4272   3.592   4.378   2.972
 1422TIP3    H2 4273   3.579   4.235   2.923
 1423TIP3   OH2 4274   3.821   5.617   5.145
 1423TIP3    H1 4275   3.915   5.623   5.125
 1423TIP3    H2 4276   3.777   5.641   5.063
 1424TIP3   OH2 4277   4.464   1.135   3.667
 1424TIP3    H1 4278   4.474   1.040   3.675
 1424TIP3    H2 4279   4.545   1.164   3.625
 1425TIP3   OH2 4280   3.996   0.129   0.744
 1425TIP3    H1 4281   4.044   0.210   0.763
 1425TIP3    H2 4282   4.003   0.078   0.825
 1426TIP3   OH2 4283   2.672   5.538   1.421
 1426TIP3    H1 4284   2.604   5.582   1.370
 1426TIP3    H2 4285   2.744   5.602   1.425
 1427TIP3   OH2 4286   5.159   4.303   1.499
 1427TIP3    H1 4287   5.207   4.294   1.581
 1427TIP3    H2 4288   5.139   4.213   1.473
 1428TIP3   OH2 4289   1.256   1.799   4.501
 1428TIP3    H1 4290   1.208   1.717   4.511
 1428TIP3    H2 4291   1.191   1.862   4.470
 1429TIP3   OH2 4292   3.780   2.008   2.654
 1429TIP3    H1 4293   3.875   1.993   2.650
 1429TIP3    H2 4294   3.771   2.089   2.704
 1430TIP3   OH2 4295   5.682   3.818   3.505
 1430TIP3    H1 4296   5.718   3.875   3.437
 1430TIP3    H2 4297   5.711   3.730   3.482
 1431TIP3   OH2 4298   4.487   5.816   4.408
 1431TIP3    H1 4299   4.441   5.782   4.485
 1431TIP3    H2 4300   4.579   5.794   4.424
 1432TIP3   OH2 4301   4.115   2.204   0.137
 1432TIP3    H1 4302   4.180   2.170   0.077
 1432TIP3    H2 4303   4.154   2.193   0.224
 1433TIP3   OH2 4304   0.138   2.928   1.593
 1433TIP3    H1 4305   0.201   2.859   1.571
 1433TIP3    H2 4306   0.191   3.008   1.596
 1434TIP3   OH2 4307   5.969   2.491   2.716
 1434TIP3    H1 4308   5.912   2.419   2.687
 1434TIP3    H2 4309   5.960   2.492   2.811
 1435TIP3   OH2 4310   3.222   4.811   3.100
 1435TIP3    H1 4311   3.185   4.827   3.187
 1435TIP3    H2 4312   3.214   4.716   3.088
 1436TIP3   OH2 4313   5.287   0.205   0.388
 1436TIP3    H1 4314   5.261   0.122   0.428
 1436TIP3    H2 4315   5.381   0.194   0.372
 1437TIP3   OH2 4316   2.055   5.143   0.358
 1437TIP3    H1 4317   2.027   5.206   0.292
 1437TIP3    H2 4318   2.147   5.126   0.338
 1438TIP3   OH2 4319   4.893   4.605   1.637
 1438TIP3    H1 4320   4.872   4.518   1.604
 1438TIP3    H2 4321   4.917   4.591   1.729
 1439TIP3   OH2 4322   5.989   4.090  -0.005
 1439TIP3    H1 4323   6.005   4.176   0.035
 1439TIP3    H2 4324   6.075   4.061  -0.035
 1440TIP3   OH2 4325   2.297   1.963   3.129
 1440TIP3    H1 4326   2.258   2.047   3.106
 1440TIP3    H2 4327   2.317   1.921   3.046
 1441TIP3   OH2 4328   2.573   1.942   4.992
 1441TIP3    H1 4329   2.520   1.914   5.067
 1441TIP3    H2 4330   2.635   1.870   4.979
 1442TIP3   OH2 4331   4.060   5.251   4.229
 1442TIP3    H1 4332   4.082   5.264   4.137
 1442TIP3    H2 4333   4.028   5.161   4.234
 1443TIP3   OH2 4334   5.308   4.552   0.880
 1443TIP3    H1 4335   5.311   4.470   0.929
 1443TIP3    H2 4336   5.225   4.592   0.906
 1444TIP3   OH2 4337   3.143   2.726   2.666
 1444TIP3    H1 4338   3.055   2.698   2.642
 1444TIP3    H2 4339   3.149   2.711   2.761
 1445TIP3   OH2 4340   5.129   4.837   0.459
 1445TIP3    H1 4341   5.159   4.772   0.522
 1445TIP3    H2 4342   5.126   4.789   0.376
 1446TIP3   OH2 4343   3.450   4.405   2.237
 1446TIP3    H1 4344   3.483   4.316   2.248
 1446TIP3    H2 4345   3.492   4.436   2.157
 1447TIP3   OH2 4346   2.092   5.359   4.487
 1447TIP3    H1 4347   2.171   5.307   4.470
 1447TIP3    H2 4348   2.059   5.382   4.400
 1448TIP3   OH2 4349   6.192   4.048   2.791
 1448TIP3    H1 4350   6.232   4.131   2.768
 1448TIP3    H2 4351   6.130   4.069   2.861
 1449TIP3   OH2 4352   3.021   1.209   3.024
 1449TIP3    H1 4353   2.956   1.248   3.082
 1449TIP3    H2 4354   2.992   1.232   2.936
 1450TIP3   OH2 4355   4.363   2.449   3.596
 1450TIP3    H1 4356   4.314   2.518   3.643
 1450TIP3    H2 4357   4.418   2.497   3.534
 1451TIP3   OH2 4358   2.908   3.533   0.367
 1451TIP3    H1 4359   2.926   3.612   0.316
 1451TIP3    H2 4360   2.852   3.480   0.310
 1452TIP3   OH2 4361   3.669   1.439   4.756
 1452TIP3    H1 4362   3.584   1.459   4.796
 1452TIP3    H2 4363   3.682   1.346   4.774
 1453TIP3   OH2 4364   6.099   1.870   0.362
 1453TIP3    H1 4365   6.025   1.814   0.385
 1453TIP3    H2 4366   6.174   1.830   0.408
 1454TIP3   OH2 4367   0.619   0.569   1.783
 1454TIP3    H1 4368   0.658   0.482   1.772
 1454TIP3    H2 4369   0.693   0.629   1.774
 1455TIP3   OH2 4370   1.796   4.937   0.070
 1455TIP3    H1 4371   1.878   4.890   0.078
 1455TIP3    H2 4372   1.753   4.926   0.155
 1456TIP3   OH2 4373   0.333   4.666   0.507
 1456TIP3    H1 4374   0.273   4.740   0.517
 1456TIP3    H2 4375   0.308   4.627   0.423
 1457TIP3   OH2 4376   3.387   3.018   0.987
 1457TIP3    H1 4377   3.352   2.938   1.026
 1457TIP3    H2 4378   3.313   3.078   0.983
 1458TIP3   OH2 4379   3.444   1.563   4.897
 1458TIP3    H1 4380   3.502   1.546   4.972
 1458TIP3    H2 4381   3.415   1.653   4.910
 1459TIP3   OH2 4382   5.221   1.497   0.984
 1459TIP3    H1 4383   5.247   1.409   0.958
 1459TIP3    H2 4384   5.126   1.499   0.968
 1460TIP3   OH2 4385   2.220   4.134   4.373
 1460TIP3    H1 4386   2.287   4.091   4.320
 1460TIP3    H2 4387   2.170   4.062   4.411
 1461TIP3   OH2 4388   3.399   1.883   0.734
 1461TIP3    H1 4389   3.392   1.943   0.809
 1461TIP3    H2 4390   3.443   1.806   0.769
 1462TIP3   OH2 4391   3.654   3.054   1.251
 1462TIP3    H1 4392   3.562   3.030   1.263
 1462TIP3    H2 4393   3.660   3.143   1.283
 1463TIP3   OH2 4394   6.060   2.189   2.462
 1463TIP3    H1 4395   6.151   2.208   2.483
 1463TIP3    H2 4396   6.025   2.152   2.543
 1464TIP3   OH2 4397   2.893   1.512   0.437
 1464TIP3    H1 4398   2.869   1.496   0.346
 1464TIP3    H2 4399   2.831   1.579   0.467
 1465TIP3   OH2 4400   3.483   5.467   1.009
 1465TIP3    H1 4401   3.413   5.412   1.044
 1465TIP3    H2 4402   3.449   5.501   0.927
 1466TIP3   OH2 4403   5.903   5.369   3.091
 1466TIP3    H1 4404   5.967   5.354   3.022
 1466TIP3    H2 4405   5.820   5.379   3.044
 1467TIP3   OH2 4406   3.196   3.014   2.324
 1467TIP3    H1 4407   3.136   3.051   2.389
 1467TIP3    H2 4408   3.225   3.089   2.272
 1468TIP3   OH2 4409   0.278   1.330   0.331
 1468TIP3    H1 4410   0.262   1.409   0.383
 1468TIP3    H2 4411   0.252   1.258   0.389
 1469TIP3   OH2 4412   1.170   3.979   2.618
 1469TIP3    H1 4413   1.168   3.887   2.646
 1469TIP3    H2 4414   1.210   3.976   2.531
 1470TIP3   OH2 4415   2.637   3.552   3.514
 1470TIP3    H1 4416   2.594   3.619   3.567
 1470TIP3    H2 4417   2.713   3.524   3.566
 1471TIP3   OH2 4418   4.929   1.074   1.830
 1471TIP3    H1 4419   4.867   1.012   1.790
 1471TIP3    H2 4420   4.911   1.069   1.924
 1472TIP3   OH2 4421   0.798   1.982   4.465
 1472TIP3    H1 4422   0.788   2.014   4.376
 1472TIP3    H2 4423   0.738   1.908   4.471
 1473TIP3   OH2 4424   2.461   4.181   1.337
 1473TIP3    H1 4425   2.450   4.253   1.400
 1473TIP3    H2 4426   2.373   4.145   1.327
 1474TIP3   OH2 4427   0.840   3.546   1.182
 1474TIP3    H1 4428   0.904   3.572   1.249
 1474TIP3    H2 4429   0.757   3.539   1.229
 1475TIP3   OH2 4430   0.499   5.110   4.443
 1475TIP3    H1 4431   0.552   5.158   4.379
 1475TIP3    H2 4432   0.441   5.176   4.480
 1476TIP3   OH2 4433   1.266   4.123   1.305
 1476TIP3    H1 4434   1.202   4.164   1.363
 1476TIP3    H2 4435   1.351   4.140   1.346
 1477TIP3   OH2 4436   1.651   4.173   1.736
 1477TIP3    H1 4437   1.685   4.135   1.817
 1477TIP3    H2 4438   1.705   4.250   1.721
 1478TIP3   OH2 4439   3.347   4.453   4.225
 1478TIP3    H1 4440   3.361   4.486   4.137
 1478TIP3    H2 4441   3.419   4.489   4.276
 1479TIP3   OH2 4442   3.825   0.872   4.739
 1479TIP3    H1 4443   3.792   0.814   4.672
 1479TIP3    H2 4444   3.764   0.862   4.812
 1480TIP3   OH2 4445   1.997   2.007   1.430
 1480TIP3    H1 4446   2.050   1.928   1.415
 1480TIP3    H2 4447   1.911   1.974   1.454
 1481TIP3   OH2 4448   1.702   5.915   4.661
 1481TIP3    H1 4449   1.792   5.888   4.641
 1481TIP3    H2 4450   1.649   5.839   4.635
 1482TIP3   OH2 4451   2.213   2.206   4.210
 1482TIP3    H1 4452   2.189   2.299   4.210
 1482TIP3    H2 4453   2.232   2.186   4.302
 1483TIP3   OH2 4454   4.987   2.059   4.137
 1483TIP3    H1 4455   5.047   1.986   4.152
 1483TIP3    H2 4456   4.926   2.027   4.070
 1484TIP3   OH2 4457   4.383   4.964   1.201
 1484TIP3    H1 4458   4.402   4.926   1.115
 1484TIP3    H2 4459   4.400   5.058   1.190
 1485TIP3   OH2 4460   4.680   5.452   1.743
 1485TIP3    H1 4461   4.670   5.357   1.743
 1485TIP3    H2 4462   4.682   5.476   1.836
 1486TIP3   OH2 4463   1.352   1.534   0.652
 1486TIP3    H1 4464   1.370   1.520   0.745
 1486TIP3    H2 4465   1.280   1.597   0.651
 1487TIP3   OH2 4466   2.459   5.855   1.567
 1487TIP3    H1 4467   2.454   5.818   1.656
 1487TIP3    H2 4468   2.413   5.791   1.512
 1488TIP3   OH2 4469   3.762   4.911   4.087
 1488TIP3    H1 4470   3.790   5.001   4.103
 1488TIP3    H2 4471   3.667   4.915   4.089
 1489TIP3   OH2 4472   1.044   0.182   1.099
 1489TIP3    H1 4473   0.995   0.193   1.017
 1489TIP3    H2 4474   1.132   0.212   1.079
 1490TIP3   OH2 4475   5.330   5.065   4.948
 1490TIP3    H1 4476   5.238   5.063   4.923
 1490TIP3    H2 4477   5.343   4.986   5.001
 1491TIP3   OH2 4478   3.822   3.751   3.551
 1491TIP3    H1 4479   3.876   3.688   3.599
 1491TIP3    H2 4480   3.743   3.761   3.604
 1492TIP3   OH2 4481   4.970   5.152   5.105
 1492TIP3    H1 4482   5.024   5.228   5.127
 1492TIP3    H2 4483   4.982   5.140   5.011
 1493TIP3   OH2 4484   0.715   3.855   2.434
 1493TIP3    H1 4485   0.716   3.845   2.529
 1493TIP3    H2 4486   0.767   3.934   2.418
 1494TIP3   OH2 4487   0.604   4.703   0.332
 1494TIP3    H1 4488   0.573   4.739   0.249
 1494TIP3    H2 4489   0.591   4.609   0.324
 1495TIP3   OH2 4490   3.924   4.966   0.261
 1495TIP3    H1 4491   3.890   4.876   0.263
 1495TIP3    H2 4492   3.881   5.009   0.335
 1496TIP3   OH2 4493   2.895   3.214   0.538
 1496TIP3    H1 4494   2.842   3.271   0.594
 1496TIP3    H2 4495   2.851   3.216   0.453
 1497TIP3   OH2 4496   6.284   3.349   3.865
 1497TIP3    H1 4497   6.297   3.257   3.844
 1497TIP3    H2 4498   6.366   3.377   3.905
 1498TIP3   OH2 4499   0.350   0.390   1.608
 1498TIP3    H1 4500   0.269   0.362   1.565
 1498TIP3    H2 4501   0.411   0.405   1.537
 1499TIP3   OH2 4502   4.115   3.808   4.371
 1499TIP3    H1 4503   4.133   3.850   4.456
 1499TIP3    H2 4504   4.039   3.753   4.388
 1500TIP3   OH2 4505   0.933   2.684   4.442
 1500TIP3    H1 4506   0.934   2.611   4.504
 1500TIP3    H2 4507   0.989   2.750   4.483
 1501TIP3   OH2 4508   4.837   1.623   0.480
 1501TIP3    H1 4509   4.907   1.565   0.451
 1501TIP3    H2 4510   4.873   1.669   0.555
 1502TIP3   OH2 4511   1.137   0.052   2.929
 1502TIP3    H1 4512   1.065   0.107   2.900
 1502TIP3    H2 4513   1.210   0.074   2.870
 1503TIP3   OH2 4514   4.434   3.614   4.779
 1503TIP3    H1 4515   4.348   3.654   4.790
 1503TIP3    H2 4516   4.460   3.635   4.689
 1504TIP3   OH2 4517   3.531   1.971   3.983
 1504TIP3    H1 4518   3.544   1.942   3.893
 1504TIP3    H2 4519   3.441   2.003   3.986
 1505TIP3   OH2 4520   0.760   0.974   2.500
 1505TIP3    H1 4521   0.849   0.940   2.514
 1505TIP3    H2 4522   0.722   0.976   2.588
 1506TIP3   OH2 4523   5.746   3.755   2.289
 1506TIP3    H1 4524   5.827   3.802   2.270
 1506TIP3    H2 4525   5.767   3.702   2.365
 1507TIP3   OH2 4526   4.976   0.747   2.097
 1507TIP3    H1 4527   4.947   0.675   2.153
 1507TIP3    H2 4528   5.071   0.752   2.110
 1508TIP3   OH2 4529   4.662   4.375   3.446
 1508TIP3    H1 4530   4.614   4.358   3.527
 1508TIP3    H2 4531   4.654   4.470   3.433
 1509TIP3   OH2 4532   5.155   4.979   1.659
 1509TIP3    H1 4533   5.230   4.927   1.631
 1509TIP3    H2 4534   5.129   4.940   1.743
 1510TIP3   OH2 4535   5.686   1.354   0.066
 1510TIP3    H1 4536   5.654   1.317   0.149
 1510TIP3    H2 4537   5.607   1.381   0.020
 1511TIP3   OH2 4538   5.698   3.289   1.263
 1511TIP3    H1 4539   5.629   3.224   1.250
 1511TIP3    H2 4540   5.690   3.349   1.188
 1512TIP3   OH2 4541   1.750   5.568   2.490
 1512TIP3    H1 4542   1.845   5.560   2.495
 1512TIP3    H2 4543   1.717   5.490   2.534
 1513TIP3   OH2 4544   0.339   3.553   0.227
 1513TIP3    H1 4545   0.408   3.505   0.272
 1513TIP3    H2 4546   0.280   3.581   0.297
 1514TIP3   OH2 4547   1.131   0.248   3.559
 1514TIP3    H1 4548   1.148   0.219   3.470
 1514TIP3    H2 4549   1.039   0.227   3.574
 1515TIP3   OH2 4550   5.220   4.282   4.026
 1515TIP3    H1 4551   5.290   4.288   4.091
 1515TIP3    H2 4552   5.264   4.254   3.946
 1516TIP3   OH2 4553   4.655   4.905   4.540
 1516TIP3    H1 4554   4.640   4.843   4.611
 1516TIP3    H2 4555   4.658   4.851   4.461
 1517TIP3   OH2 4556   1.235   3.553   4.709
 1517TIP3    H1 4557   1.198   3.555   4.621
 1517TIP3    H2 4558   1.296   3.627   4.712
 1518TIP3   OH2 4559   0.291   5.588   2.559
 1518TIP3    H1 4560   0.329   5.547   2.481
 1518TIP3    H2 4561   0.247   5.666   2.526
 1519TIP3   OH2 4562   1.931   0.410   4.672
 1519TIP3    H1 4563   1.927   0.347   4.744
 1519TIP3    H2 4564   1.854   0.390   4.619
 1520TIP3   OH2 4565   3.541   2.191   1.360
 1520TIP3    H1 4566   3.581   2.164   1.277
 1520TIP3    H2 4567   3.450   2.211   1.337
 1521TIP3   OH2 4568   6.141   4.393   4.155
 1521TIP3    H1 4569   6.059   4.390   4.205
 1521TIP3    H2 4570   6.170   4.302   4.151
 1522TIP3   OH2 4571   3.429   1.746   4.562
 1522TIP3    H1 4572   3.430   1.740   4.658
 1522TIP3    H2 4573   3.470   1.664   4.533
 1523TIP3   OH2 4574   1.891   4.164   2.612
 1523TIP3    H1 4575   1.831   4.190   2.542
 1523TIP3    H2 4576   1.863   4.076   2.636
 1524TIP3   OH2 4577   5.808   2.410   3.255
 1524TIP3    H1 4578   5.793   2.322   3.220
 1524TIP3    H2 4579   5.788   2.468   3.182
 1525TIP3   OH2 4580   3.396   2.546   4.723
 1525TIP3    H1 4581   3.302   2.543   4.742
 1525TIP3    H2 4582   3.437   2.506   4.800
 1526TIP3   OH2 4583   2.871   0.612   0.629
 1526TIP3    H1 4584   2.957   0.654   0.629
 1526TIP3    H2 4585   2.810   0.680   0.602
 1527TIP3   OH2 4586   5.198   4.434   4.375
 1527TIP3    H1 4587   5.201   4.527   4.355
 1527TIP3    H2 4588   5.173   4.392   4.292
 1528TIP3   OH2 4589   3.481   5.394   0.061
 1528TIP3    H1 4590   3.448   5.391  -0.029
 1528TIP3    H2 4591   3.410   5.437   0.110
 1529TIP3   OH2 4592   3.814   0.563   0.058
 1529TIP3    H1 4593   3.906   0.544   0.044
 1529TIP3    H2 4594   3.812   0.616   0.138
 1530TIP3   OH2 4595   3.847   3.404   2.936
 1530TIP3    H1 4596   3.793   3.327   2.952
 1530TIP3    H2 4597   3.891   3.420   3.020
 1531TIP3   OH2 4598   4.706   1.095   5.111
 1531TIP3    H1 4599   4.704   1.129   5.022
 1531TIP3    H2 4600   4.662   1.010   5.105
 1532TIP3   OH2 4601   2.867   3.214   1.224
 1532TIP3    H1 4602   2.865   3.286   1.287
 1532TIP3    H2 4603   2.941   3.235   1.166
 1533TIP3   OH2 4604   2.439   0.075   0.910
 1533TIP3    H1 4605   2.496   0.008   0.946
 1533TIP3    H2 4606   2.488   0.110   0.835
 1534TIP3   OH2 4607   5.911   0.278   2.606
 1534TIP3    H1 4608   5.838   0.315   2.556
 1534TIP3    H2 4609   5.883   0.189   2.628
 1535TIP3   OH2 4610   0.919   1.740   0.357
 1535TIP3    H1 4611   1.005   1.700   0.370
 1535TIP3    H2 4612   0.926   1.826   0.398
 1536TIP3   OH2 4613   2.652   0.096   5.145
 1536TIP3    H1 4614   2.710   0.154   5.194
 1536TIP3    H2 4615   2.623   0.031   5.210
 1537TIP3   OH2 4616   5.207   0.941   0.010
 1537TIP3    H1 4617   5.241   0.905  -0.072
 1537TIP3    H2 4618   5.123   0.897   0.023
 1538TIP3   OH2 4619   5.622   2.736   3.543
 1538TIP3    H1 4620   5.685   2.712   3.611
 1538TIP3    H2 4621   5.676   2.749   3.465
 1539TIP3   OH2 4622   3.173   1.309   2.404
 1539TIP3    H1 4623   3.241   1.375   2.389
 1539TIP3    H2 4624   3.181   1.288   2.497
 1540TIP3   OH2 4625   0.720   0.612   3.275
 1540TIP3    H1 4626   0.778   0.688   3.280
 1540TIP3    H2 4627   0.639   0.647   3.238
 1541TIP3   OH2 4628   0.700   3.839   2.692
 1541TIP3    H1 4629   0.668   3.778   2.758
 1541TIP3    H2 4630   0.693   3.925   2.734
 1542TIP3   OH2 4631   4.974   4.033   1.553
 1542TIP3    H1 4632   4.889   3.989   1.552
 1542TIP3    H2 4633   4.997   4.041   1.461
 1543TIP3   OH2 4634   3.309   1.741   4.313
 1543TIP3    H1 4635   3.384   1.707   4.265
 1543TIP3    H2 4636   3.339   1.749   4.404
 1544TIP3   OH2 4637   1.492   4.095   1.506
 1544TIP3    H1 4638   1.488   4.001   1.524
 1544TIP3    H2 4639   1.541   4.132   1.580
 1545TIP3   OH2 4640   3.020   2.353   2.935
 1545TIP3    H1 4641   3.019   2.290   3.007
 1545TIP3    H2 4642   2.988   2.434   2.974
 1546TIP3   OH2 4643   5.597   3.522   1.125
 1546TIP3    H1 4644   5.676   3.567   1.095
 1546TIP3    H2 4645   5.547   3.591   1.170
 1547TIP3   OH2 4646   0.492   3.007   3.341
 1547TIP3    H1 4647   0.518   2.929   3.389
 1547TIP3    H2 4648   0.559   3.018   3.274
 1548TIP3   OH2 4649   1.863   3.313   1.558
 1548TIP3    H1 4650   1.867   3.278   1.469
 1548TIP3    H2 4651   1.886   3.239   1.614
 1549TIP3   OH2 4652   4.397   3.300   2.598
 1549TIP3    H1 4653   4.365   3.210   2.596
 1549TIP3    H2 4654   4.354   3.342   2.524
 1550TIP3   OH2 4655   5.230   0.993   4.414
 1550TIP3    H1 4656   5.264   1.081   4.396
 1550TIP3    H2 4657   5.256   0.976   4.504
 1551TIP3   OH2 4658   3.514   4.626   4.375
 1551TIP3    H1 4659   3.591   4.569   4.372
 1551TIP3    H2 4660   3.550   4.713   4.395
 1552TIP3   OH2 4661   3.823   1.836   3.528
 1552TIP3    H1 4662   3.781   1.840   3.443
 1552TIP3    H2 4663   3.904   1.789   3.513
 1553TIP3   OH2 4664   4.809   0.580   1.888
 1553TIP3    H1 4665   4.725   0.619   1.863
 1553TIP3    H2 4666   4.830   0.621   1.972
 1554TIP3   OH2 4667   4.352   2.916   2.465
 1554TIP3    H1 4668   4.363   3.003   2.504
 1554TIP3    H2 4669   4.257   2.907   2.452
 1555TIP3   OH2 4670   3.445   2.585   2.031
 1555TIP3    H1 4671   3.479   2.505   1.992
 1555TIP3    H2 4672   3.439   2.646   1.958
 1556TIP3   OH2 4673   0.052   0.702   2.785
 1556TIP3    H1 4674   0.039   0.684   2.878
 1556TIP3    H2 4675   0.147   0.704   2.774
 1557TIP3   OH2 4676   2.337   0.731   0.631
 1557TIP3    H1 4677   2.301   0.814   0.661
 1557TIP3    H2 4678   2.267   0.692   0.579
 1558TIP3   OH2 4679   5.692   0.806   0.277
 1558TIP3    H1 4680   5.640   0.849   0.346
 1558TIP3    H2 4681   5.746   0.743   0.324
 1559TIP3   OH2 4682   1.069   0.675   4.545
 1559TIP3    H1 4683   1.074   0.678   4.640
 1559TIP3    H2 4684   0.994   0.730   4.523
 1560TIP3   OH2 4685   5.078   2.198   1.985
 1560TIP3    H1 4686   5.045   2.247   2.061
 1560TIP3    H2 4687   5.014   2.214   1.916
 1561TIP3   OH2 4688   3.735   4.161   4.973
 1561TIP3    H1 4689   3.687   4.162   4.891
 1561TIP3    H2 4690   3.773   4.073   4.978
 1562TIP3   OH2 4691   3.328   2.423   3.850
 1562TIP3    H1 4692   3.392   2.362   3.887
 1562TIP3    H2 4693   3.257   2.366   3.817
 1563TIP3   OH2 4694   3.230   3.746   4.539
 1563TIP3    H1 4695   3.164   3.749   4.469
 1563TIP3    H2 4696   3.310   3.780   4.499
 1564TIP3   OH2 4697   1.336   2.058   4.369
 1564TIP3    H1 4698   1.249   2.026   4.390
 1564TIP3    H2 4699   1.329   2.091   4.279
 1565TIP3   OH2 4700   3.579   1.289   2.261
 1565TIP3    H1 4701   3.541   1.218   2.312
 1565TIP3    H2 4702   3.664   1.307   2.303
 1566TIP3   OH2 4703   6.056   0.240   3.851
 1566TIP3    H1 4704   6.105   0.278   3.778
 1566TIP3    H2 4705   6.115   0.249   3.926
 1567TIP3   OH2 4706   3.280   5.894   4.498
 1567TIP3    H1 4707   3.348   5.905   4.565
 1567TIP3    H2 4708   3.202   5.870   4.548
 1568TIP3   OH2 4709   0.059   5.856   2.708
 1568TIP3    H1 4710  -0.033   5.836   2.725
 1568TIP3    H2 4711   0.075   5.826   2.619
 1569TIP3   OH2 4712   3.999   3.737   1.806
 1569TIP3    H1 4713   3.939   3.694   1.866
 1569TIP3    H2 4714   3.948   3.807   1.766
 1570TIP3   OH2 4715   4.353   3.358   4.774
 1570TIP3    H1 4716   4.395   3.442   4.758
 1570TIP3    H2 4717   4.409   3.315   4.839
 1571TIP3   OH2 4718   5.173   0.521   2.808
 1571TIP3    H1 4719   5.217   0.477   2.882
 1571TIP3    H2 4720   5.245   0.552   2.753
 1572TIP3   OH2 4721   6.310   1.178   1.685
 1572TIP3    H1 4722   6.368   1.106   1.662
 1572TIP3    H2 4723   6.238   1.137   1.733
 1573TIP3   OH2 4724   1.439   5.270   2.107
 1573TIP3    H1 4725   1.346   5.283   2.125
 1573TIP3    H2 4726   1.445   5.178   2.082
 1574TIP3   OH2 4727   2.607   4.725   1.674
 1574TIP3    H1 4728   2.570   4.654   1.726
 1574TIP3    H2 4729   2.543   4.796   1.680
 1575TIP3   OH2 4730   4.742   0.473   2.957
 1575TIP3    H1 4731   4.782   0.550   2.997
 1575TIP3    H2 4732   4.772   0.475   2.866
 1576TIP3   OH2 4733   4.827   0.987   2.075
 1576TIP3    H1 4734   4.845   0.999   2.168
 1576TIP3    H2 4735   4.844   0.894   2.060
 1577TIP3   OH2 4736   6.215   4.573   2.789
 1577TIP3    H1 4737   6.151   4.644   2.795
 1577TIP3    H2 4738   6.300   4.617   2.785
 1578TIP3   OH2 4739   1.610   1.503   3.143
 1578TIP3    H1 4740   1.696   1.468   3.124
 1578TIP3    H2 4741   1.566   1.435   3.193
 1579TIP3   OH2 4742   0.881   0.207   3.863
 1579TIP3    H1 4743   0.940   0.281   3.873
 1579TIP3    H2 4744   0.895   0.176   3.773
 1580TIP3   OH2 4745   1.603   0.476   1.084
 1580TIP3    H1 4746   1.576   0.444   1.171
 1580TIP3    H2 4747   1.695   0.499   1.095
 1581TIP3   OH2 4748   1.171   5.868   2.611
 1581TIP3    H1 4749   1.220   5.950   2.603
 1581TIP3    H2 4750   1.083   5.895   2.638
 1582TIP3   OH2 4751   0.364   0.395   3.656
 1582TIP3    H1 4752   0.359   0.301   3.637
 1582TIP3    H2 4753   0.447   0.422   3.617
 1583TIP3   OH2 4754   2.401   3.645   1.145
 1583TIP3    H1 4755   2.411   3.707   1.217
 1583TIP3    H2 4756   2.395   3.699   1.067
 1584TIP3   OH2 4757   2.398   3.018   2.603
 1584TIP3    H1 4758   2.446   2.993   2.682
 1584TIP3    H2 4759   2.321   3.064   2.635
 1585TIP3   OH2 4760   4.548   1.614   1.681
 1585TIP3    H1 4761   4.467   1.662   1.665
 1585TIP3    H2 4762   4.618   1.672   1.651
 1586TIP3   OH2 4763   5.675   5.574   0.795
 1586TIP3    H1 4764   5.731   5.639   0.838
 1586TIP3    H2 4765   5.591   5.618   0.786
 1587TIP3   OH2 4766   3.359   1.751   3.199
 1587TIP3    H1 4767   3.357   1.658   3.175
 1587TIP3    H2 4768   3.427   1.756   3.267
 1588TIP3   OH2 4769   2.259   3.200   1.450
 1588TIP3    H1 4770   2.284   3.281   1.494
 1588TIP3    H2 4771   2.332   3.141   1.466
 1589TIP3   OH2 4772   4.360   1.568   4.503
 1589TIP3    H1 4773   4.338   1.490   4.453
 1589TIP3    H2 4774   4.402   1.534   4.582
 1590TIP3   OH2 4775   5.542   1.525   2.733
 1590TIP3    H1 4776   5.580   1.573   2.660
 1590TIP3    H2 4777   5.488   1.457   2.692
 1591TIP3   OH2 4778   1.804   4.487   3.139
 1591TIP3    H1 4779   1.894   4.456   3.132
 1591TIP3    H2 4780   1.776   4.499   3.048
 1592TIP3   OH2 4781   1.744   3.376   4.916
 1592TIP3    H1 4782   1.802   3.450   4.934
 1592TIP3    H2 4783   1.766   3.350   4.827
 1593TIP3   OH2 4784   3.401   1.102   0.674
 1593TIP3    H1 4785   3.444   1.021   0.702
 1593TIP3    H2 4786   3.344   1.126   0.747
 1594TIP3   OH2 4787   2.971   2.699   1.683
 1594TIP3    H1 4788   2.963   2.608   1.712
 1594TIP3    H2 4789   2.881   2.731   1.678
 1595TIP3   OH2 4790   1.864   4.500   2.519
 1595TIP3    H1 4791   1.823   4.461   2.442
 1595TIP3    H2 4792   1.958   4.488   2.504
 1596TIP3   OH2 4793   5.285   5.091   4.670
 1596TIP3    H1 4794   5.339   5.111   4.747
 1596TIP3    H2 4795   5.269   4.997   4.677
 1597TIP3   OH2 4796   4.174   1.386   1.056
 1597TIP3    H1 4797   4.226   1.372   1.136
 1597TIP3    H2 4798   4.229   1.441   1.001
 1598TIP3   OH2 4799   3.367   4.177   1.334
 1598TIP3    H1 4800   3.384   4.105   1.274
 1598TIP3    H2 4801   3.321   4.242   1.281
 1599TIP3   OH2 4802   2.285   1.874   3.805
 1599TIP3    H1 4803   2.267   1.789   3.846
 1599TIP3    H2 4804   2.251   1.938   3.866
 1600TIP3   OH2 4805   6.281   3.074   1.781
 1600TIP3    H1 4806   6.212   3.016   1.812
 1600TIP3    H2 4807   6.348   3.016   1.745
 1601TIP3   OH2 4808   4.714   0.016   1.954
 1601TIP3    H1 4809   4.641  -0.011   2.010
 1601TIP3    H2 4810   4.689   0.102   1.921
 1602TIP3   OH2 4811   1.480   2.756   0.668
 1602TIP3    H1 4812   1.488   2.702   0.589
 1602TIP3    H2 4813   1.559   2.737   0.719
 1603TIP3   OH2 4814   4.714   0.491   0.423
 1603TIP3    H1 4815   4.698   0.428   0.493
 1603TIP3    H2 4816   4.630   0.496   0.377
 1604TIP3   OH2 4817   2.512   3.434   4.478
 1604TIP3    H1 4818   2.560   3.369   4.528
 1604TIP3    H2 4819   2.579   3.484   4.432
 1605TIP3   OH2 4820   2.273   1.257   1.510
 1605TIP3    H1 4821   2.234   1.260   1.597
 1605TIP3    H2 4822   2.349   1.199   1.520
 1606TIP3   OH2 4823   4.817   0.246   2.185
 1606TIP3    H1 4824   4.726   0.235   2.210
 1606TIP3    H2 4825   4.866   0.190   2.245
 1607TIP3   OH2 4826   1.307   1.133   2.237
 1607TIP3    H1 4827   1.324   1.213   2.189
 1607TIP3    H2 4828   1.389   1.113   2.282
 1608TIP3   OH2 4829   0.556   0.408   3.117
 1608TIP3    H1 4830   0.549   0.463   3.196
 1608TIP3    H2 4831   0.650   0.398   3.103
 1609TIP3   OH2 4832   0.059   5.343   4.041
 1609TIP3    H1 4833   0.037   5.334   3.948
 1609TIP3    H2 4834   0.126   5.277   4.056
 1610TIP3   OH2 4835   4.268   2.980   3.765
 1610TIP3    H1 4836   4.276   2.890   3.796
 1610TIP3    H2 4837   4.191   3.014   3.810
 1611TIP3   OH2 4838   5.864   1.207   3.670
 1611TIP3    H1 4839   5.923   1.251   3.609
 1611TIP3    H2 4840   5.795   1.171   3.615
 1612TIP3   OH2 4841   4.691   3.924   1.863
 1612TIP3    H1 4842   4.668   3.992   1.927
 1612TIP3    H2 4843   4.628   3.853   1.879
 1613TIP3   OH2 4844   0.681   1.815   3.868
 1613TIP3    H1 4845   0.651   1.761   3.942
 1613TIP3    H2 4846   0.771   1.787   3.853
 1614TIP3   OH2 4847   2.234   3.133   3.412
 1614TIP3    H1 4848   2.271   3.199   3.353
 1614TIP3    H2 4849   2.157   3.100   3.365
 1615TIP3   OH2 4850   2.483   0.660   4.963
 1615TIP3    H1 4851   2.493   0.586   4.903
 1615TIP3    H2 4852   2.570   0.671   5.003
 1616TIP3   OH2 4853   0.036   2.621   4.107
 1616TIP3    H1 4854   0.007   2.557   4.173
 1616TIP3    H2 4855   0.035   2.705   4.153
 1617TIP3   OH2 4856   2.675   3.546   3.805
 1617TIP3    H1 4857   2.725   3.465   3.803
 1617TIP3    H2 4858   2.737   3.614   3.779
 1618TIP3   OH2 4859   4.014   4.203   5.013
 1618TIP3    H1 4860   4.003   4.116   5.049
 1618TIP3    H2 4861   3.926   4.242   5.014
 1619TIP3   OH2 4862   3.469   3.603   3.911
 1619TIP3    H1 4863   3.399   3.575   3.970
 1619TIP3    H2 4864   3.548   3.563   3.946
 1620TIP3   OH2 4865   5.174   2.091   1.590
 1620TIP3    H1 4866   5.110   2.125   1.651
 1620TIP3    H2 4867   5.249   2.151   1.597
 1621TIP3   OH2 4868   3.928   5.482   1.302
 1621TIP3    H1 4869   3.842   5.470   1.262
 1621TIP3    H2 4870   3.926   5.571   1.336
 1622TIP3   OH2 4871   6.138   3.147   2.252
 1622TIP3    H1 4872   6.063   3.154   2.310
 1622TIP3    H2 4873   6.111   3.082   2.186
 1623TIP3   OH2 4874   1.123   4.863   4.960
 1623TIP3    H1 4875   1.112   4.918   5.037
 1623TIP3    H2 4876   1.217   4.849   4.953
 1624TIP3   OH2 4877   6.259   5.443   0.600
 1624TIP3    H1 4878   6.323   5.378   0.574
 1624TIP3    H2 4879   6.271   5.516   0.538
 1625TIP3   OH2 4880   2.206   4.107   1.416
 1625TIP3    H1 4881   2.256   4.111   1.497
 1625TIP3    H2 4882   2.127   4.058   1.438
 1626TIP3   OH2 4883   5.157   3.305   3.114
 1626TIP3    H1 4884   5.245   3.298   3.077
 1626TIP3    H2 4885   5.143   3.400   3.124
 1627TIP3   OH2 4886   1.586   5.184   2.531
 1627TIP3    H1 4887   1.621   5.128   2.462
 1627TIP3    H2 4888   1.492   5.190   2.513
 1628TIP3   OH2 4889   4.680   5.095   0.460
 1628TIP3    H1 4890   4.629   5.111   0.539
 1628TIP3    H2 4891   4.771   5.093   0.490
 1629TIP3   OH2 4892   0.247   4.872   2.971
 1629TIP3    H1 4893   0.152   4.876   2.984
 1629TIP3    H2 4894   0.261   4.797   2.914
 1630TIP3   OH2 4895   4.875   1.666   1.126
 1630TIP3    H1 4896   4.858   1.573   1.108
 1630TIP3    H2 4897   4.806   1.712   1.077
 1631TIP3   OH2 4898   3.269   2.690   5.016
 1631TIP3    H1 4899   3.302   2.705   4.927
 1631TIP3    H2 4900   3.348   2.689   5.070
 1632TIP3   OH2 4901   4.875   0.817   4.252
 1632TIP3    H1 4902   4.947   0.781   4.303
 1632TIP3    H2 4903   4.891   0.911   4.251
 1633TIP3   OH2 4904   5.798   4.057   2.121
 1633TIP3    H1 4905   5.873   4.114   2.135
 1633TIP3    H2 4906   5.757   4.091   2.041
 1634TIP3   OH2 4907   0.710   5.989   0.058
 1634TIP3    H1 4908   0.618   5.975   0.081
 1634TIP3    H2 4909   0.718   5.956  -0.031
 1635TIP3   OH2 4910   3.180   1.684   0.400
 1635TIP3    H1 4911   3.167   1.633   0.321
 1635TIP3    H2 4912   3.262   1.731   0.385
 1636TIP3   OH2 4913   2.493   3.293   2.230
 1636TIP3    H1 4914   2.465   3.366   2.285
 1636TIP3    H2 4915   2.412   3.248   2.207
 1637TIP3   OH2 4916   5.316   0.797   2.827
 1637TIP3    H1 4917   5.317   0.832   2.916
 1637TIP3    H2 4918   5.390   0.737   2.825
 1638TIP3   OH2 4919   1.554   2.157   4.497
 1638TIP3    H1 4920   1.548   2.103   4.576
 1638TIP3    H2 4921   1.489   2.120   4.438
 1639TIP3   OH2 4922   5.208   4.545   1.718
 1639TIP3    H1 4923   5.155   4.578   1.645
 1639TIP3    H2 4924   5.288   4.512   1.676
 1640TIP3   OH2 4925   0.311   5.556   0.876
 1640TIP3    H1 4926   0.283   5.527   0.962
 1640TIP3    H2 4927   0.314   5.477   0.823
 1641TIP3   OH2 4928   0.419   5.092   2.925
 1641TIP3    H1 4929   0.484   5.054   2.984
 1641TIP3    H2 4930   0.351   5.025   2.917
 1642TIP3   OH2 4931   6.179   3.360   2.078
 1642TIP3    H1 4932   6.140   3.437   2.120
 1642TIP3    H2 4933   6.175   3.292   2.145
 1643TIP3   OH2 4934   0.242   4.568   3.569
 1643TIP3    H1 4935   0.148   4.586   3.563
 1643TIP3    H2 4936   0.257   4.550   3.661
 1644TIP3   OH2 4937   2.891   0.499   4.139
 1644TIP3    H1 4938   2.835   0.422   4.151
 1644TIP3    H2 4939   2.847   0.550   4.070
 1645TIP3   OH2 4940   1.530   0.639   3.614
 1645TIP3    H1 4941   1.597   0.633   3.682
 1645TIP3    H2 4942   1.465   0.573   3.637
 1646TIP3   OH2 4943   4.109   5.092   2.491
 1646TIP3    H1 4944   4.138   5.183   2.505
 1646TIP3    H2 4945   4.080   5.063   2.577
 1647TIP3   OH2 4946   5.602   2.750   4.386
 1647TIP3    H1 4947   5.568   2.662   4.373
 1647TIP3    H2 4948   5.529   2.799   4.424
 1648TIP3   OH2 4949   2.067   3.752   5.122
 1648TIP3    H1 4950   2.130   3.738   5.192
 1648TIP3    H2 4951   2.059   3.847   5.114
 1649TIP3   OH2 4952   2.049   5.339   3.303
 1649TIP3    H1 4953   2.103   5.346   3.224
 1649TIP3    H2 4954   1.984   5.408   3.294
 1650TIP3   OH2 4955   2.802   5.546   0.888
 1650TIP3    H1 4956   2.869   5.515   0.949
 1650TIP3    H2 4957   2.816   5.640   0.883
 1651TIP3   OH2 4958   3.816   4.017   2.663
 1651TIP3    H1 4959   3.816   3.937   2.717
 1651TIP3    H2 4960   3.880   4.074   2.705
 1652TIP3   OH2 4961   6.317   4.617   4.205
 1652TIP3    H1 4962   6.282   4.670   4.277
 1652TIP3    H2 4963   6.260   4.541   4.201
 1653TIP3   OH2 4964   2.330   3.765   3.852
 1653TIP3    H1 4965   2.310   3.811   3.933
 1653TIP3    H2 4966   2.352   3.676   3.879
 1654TIP3   OH2 4967   5.521   4.919   3.549
 1654TIP3    H1 4968   5.530   4.942   3.642
 1654TIP3    H2 4969   5.604   4.879   3.526
 1655TIP3   OH2 4970   3.923   0.696   2.079
 1655TIP3    H1 4971   3.873   0.753   2.020
 1655TIP3    H2 4972   3.866   0.684   2.155
 1656TIP3   OH2 4973   5.955   0.703   3.988
 1656TIP3    H1 4974   6.029   0.749   3.949
 1656TIP3    H2 4975   5.989   0.670   4.071
 1657TIP3   OH2 4976   0.155   4.594   5.104
 1657TIP3    H1 4977   0.160   4.683   5.069
 1657TIP3    H2 4978   0.075   4.557   5.066
 1658TIP3   OH2 4979   4.205   2.584   2.682
 1658TIP3    H1 4980   4.143   2.613   2.614
 1658TIP3    H2 4981   4.175   2.496   2.706
 1659TIP3   OH2 4982   2.491   2.224   4.645
 1659TIP3    H1 4983   2.538   2.141   4.650
 1659TIP3    H2 4984   2.466   2.244   4.735
 1660TIP3   OH2 4985   3.336   1.327   3.772
 1660TIP3    H1 4986   3.368   1.270   3.842
 1660TIP3    H2 4987   3.366   1.285   3.692
 1661TIP3   OH2 4988   0.188   3.420   2.443
 1661TIP3    H1 4989   0.173   3.388   2.532
 1661TIP3    H2 4990   0.134   3.363   2.388
 1662TIP3   OH2 4991   2.278   3.634   3.580
 1662TIP3    H1 4992   2.299   3.681   3.661
 1662TIP3    H2 4993   2.322   3.550   3.588
 1663TIP3   OH2 4994   4.911   0.779   3.721
 1663TIP3    H1 4995   4.893   0.813   3.808
 1663TIP3    H2 4996   5.005   0.788   3.711
 1664TIP3   OH2 4997   5.554   1.985   4.372
 1664TIP3    H1 4998   5.604   2.060   4.404
 1664TIP3    H2 4999   5.618   1.933   4.324
 1665TIP3   OH2 5000   1.958   4.325   2.822
 1665TIP3    H1 5001   1.958   4.267   2.898
 1665TIP3    H2 5002   1.946   4.267   2.747
 1666TIP3   OH2 5003   1.942   5.804   3.116
 1666TIP3    H1 5004   1.974   5.848   3.037
 1666TIP3    H2 5005   1.872   5.861   3.148
 1667TIP3   OH2 5006   5.055   0.058   2.274
 1667TIP3    H1 5007   5.113   0.057   2.197
 1667TIP3    H2 5008   4.989  -0.009   2.255
 1668TIP3   OH2 5009   2.014   1.470   3.462
 1668TIP3    H1 5010   1.993   1.482   3.370
 1668TIP3    H2 5011   1.946   1.412   3.496
 1669TIP3   OH2 5012   3.265   0.054   1.544
 1669TIP3    H1 5013   3.182   0.065   1.498
 1669TIP3    H2 5014   3.312  -0.013   1.494
 1670TIP3   OH2 5015   6.208   5.929   2.943
 1670TIP3    H1 5016   6.224   5.892   3.030
 1670TIP3    H2 5017   6.152   5.865   2.899
 1671TIP3   OH2 5018   5.467   2.390   0.048
 1671TIP3    H1 5019   5.491   2.450   0.119
 1671TIP3    H2 5020   5.528   2.411  -0.023
 1672TIP3   OH2 5021   1.174   2.444   0.641
 1672TIP3    H1 5022   1.269   2.434   0.649
 1672TIP3    H2 5023   1.163   2.512   0.574
 1673TIP3   OH2 5024   3.359   3.223   0.036
 1673TIP3    H1 5025   3.352   3.316   0.060
 1673TIP3    H2 5026   3.444   3.196   0.070
 1674TIP3   OH2 5027   4.086   2.055   0.791
 1674TIP3    H1 5028   4.075   2.053   0.696
 1674TIP3    H2 5029   4.073   2.146   0.816
 1675TIP3   OH2 5030   2.910   1.527   5.053
 1675TIP3    H1 5031   2.942   1.455   4.999
 1675TIP3    H2 5032   2.844   1.487   5.110
 1676TIP3   OH2 5033   3.892   2.570   2.171
 1676TIP3    H1 5034   3.929   2.579   2.082
 1676TIP3    H2 5035   3.967   2.545   2.225
 1677TIP3   OH2 5036   3.603   3.514   2.392
 1677TIP3    H1 5037   3.690   3.551   2.407
 1677TIP3    H2 5038   3.549   3.552   2.462
 1678TIP3   OH2 5039   2.722   2.519   4.220
 1678TIP3    H1 5040   2.789   2.454   4.196
 1678TIP3    H2 5041   2.709   2.507   4.314
 1679TIP3   OH2 5042   3.285   3.494   1.093
 1679TIP3    H1 5043   3.271   3.477   1.186
 1679TIP3    H2 5044   3.252   3.583   1.079
 1680TIP3   OH2 5045   4.692   5.863   3.737
 1680TIP3    H1 5046   4.655   5.947   3.711
 1680TIP3    H2 5047   4.649   5.799   3.680
 1681TIP3   OH2 5048   3.017   4.034   2.471
 1681TIP3    H1 5049   3.101   4.066   2.505
 1681TIP3    H2 5050   2.952   4.067   2.533
 1682TIP3   OH2 5051   4.263   1.251   3.528
 1682TIP3    H1 5052   4.323   1.189   3.568
 1682TIP3    H2 5053   4.315   1.329   3.510
 1683TIP3   OH2 5054   0.689   4.421   3.554
 1683TIP3    H1 5055   0.629   4.352   3.526
 1683TIP3    H2 5056   0.632   4.494   3.578
 1684TIP3   OH2 5057   2.617   5.404   0.743
 1684TIP3    H1 5058   2.678   5.467   0.781
 1684TIP3    H2 5059   2.532   5.448   0.744
 1685TIP3   OH2 5060   3.572   3.201   0.964
 1685TIP3    H1 5061   3.652   3.148   0.957
 1685TIP3    H2 5062   3.502   3.137   0.973
 1686TIP3   OH2 5063   5.862   3.185   2.342
 1686TIP3    H1 5064   5.790   3.176   2.405
 1686TIP3    H2 5065   5.838   3.127   2.270
 1687TIP3   OH2 5066   1.939   0.991   5.103
 1687TIP3    H1 5067   1.894   1.074   5.088
 1687TIP3    H2 5068   1.989   0.975   5.023
 1688TIP3   OH2 5069   5.649   4.889   2.679
 1688TIP3    H1 5070   5.612   4.803   2.698
 1688TIP3    H2 5071   5.608   4.915   2.597
 1689TIP3   OH2 5072   1.574   0.368   3.943
 1689TIP3    H1 5073   1.535   0.342   4.026
 1689TIP3    H2 5074   1.647   0.308   3.930
 1690TIP3   OH2 5075   5.786   2.955   1.613
 1690TIP3    H1 5076   5.824   2.982   1.529
 1690TIP3    H2 5077   5.810   2.863   1.621
 1691TIP3   OH2 5078   5.631   1.159   0.713
 1691TIP3    H1 5079   5.721   1.159   0.746
 1691TIP3    H2 5080   5.577   1.148   0.791
 1692TIP3   OH2 5081   5.203   2.831   3.278
 1692TIP3    H1 5082   5.263   2.883   3.332
 1692TIP3    H2 5083   5.121   2.881   3.278
 1693TIP3   OH2 5084   3.941   3.501   0.157
 1693TIP3    H1 5085   3.877   3.532   0.221
 1693TIP3    H2 5086   3.942   3.570   0.090
 1694TIP3   OH2 5087   5.644   2.634   4.758
 1694TIP3    H1 5088   5.649   2.542   4.734
 1694TIP3    H2 5089   5.602   2.634   4.844
 1695TIP3   OH2 5090   4.821   4.893   0.171
 1695TIP3    H1 5091   4.838   4.802   0.196
 1695TIP3    H2 5092   4.731   4.893   0.138
 1696TIP3   OH2 5093   1.185   2.478   1.486
 1696TIP3    H1 5094   1.252   2.545   1.502
 1696TIP3    H2 5095   1.163   2.444   1.573
 1697TIP3   OH2 5096   2.062   3.290   1.285
 1697TIP3    H1 5097   2.080   3.384   1.290
 1697TIP3    H2 5098   2.137   3.249   1.328
 1698TIP3   OH2 5099   6.032   3.576   2.160
 1698TIP3    H1 5100   5.957   3.597   2.105
 1698TIP3    H2 5101   6.072   3.661   2.179
 1699TIP3   OH2 5102   3.173   3.857   4.765
 1699TIP3    H1 5103   3.176   3.947   4.733
 1699TIP3    H2 5104   3.175   3.803   4.686
 1700TIP3   OH2 5105   4.910   1.168   4.005
 1700TIP3    H1 5106   4.986   1.220   4.029
 1700TIP3    H2 5107   4.848   1.180   4.077
 1701TIP3   OH2 5108   2.270   4.966   0.524
 1701TIP3    H1 5109   2.185   5.009   0.537
 1701TIP3    H2 5110   2.309   5.012   0.450
 1702TIP3   OH2 5111   1.681   2.685   1.606
 1702TIP3    H1 5112   1.734   2.624   1.656
 1702TIP3    H2 5113   1.739   2.760   1.590
 1703TIP3   OH2 5114   2.844   1.502   2.379
 1703TIP3    H1 5115   2.914   1.467   2.434
 1703TIP3    H2 5116   2.771   1.441   2.391
 1704TIP3   OH2 5117   3.912   1.398   3.661
 1704TIP3    H1 5118   3.818   1.381   3.666
 1704TIP3    H2 5119   3.925   1.476   3.715
 1705TIP3   OH2 5120   4.854   1.443   4.230
 1705TIP3    H1 5121   4.850   1.538   4.239
 1705TIP3    H2 5122   4.763   1.416   4.222
 1706TIP3   OH2 5123   2.685   4.658   0.037
 1706TIP3    H1 5124   2.630   4.719   0.086
 1706TIP3    H2 5125   2.739   4.714  -0.019
 1707TIP3   OH2 5126   0.902   1.590   1.473
 1707TIP3    H1 5127   0.821   1.543   1.491
 1707TIP3    H2 5128   0.957   1.527   1.427
 1708TIP3   OH2 5129   4.396   0.113   2.715
 1708TIP3    H1 5130   4.310   0.156   2.713
 1708TIP3    H2 5131   4.409   0.090   2.807
 1709TIP3   OH2 5132   3.855   0.691   1.325
 1709TIP3    H1 5133   3.811   0.736   1.253
 1709TIP3    H2 5134   3.799   0.616   1.346
 1710TIP3   OH2 5135   1.507   0.833   0.943
 1710TIP3    H1 5136   1.593   0.836   0.984
 1710TIP3    H2 5137   1.517   0.770   0.871
 1711TIP3   OH2 5138   2.493   2.203   4.924
 1711TIP3    H1 5139   2.532   2.116   4.928
 1711TIP3    H2 5140   2.554   2.259   4.973
 1712TIP3   OH2 5141   2.838   0.266   1.920
 1712TIP3    H1 5142   2.754   0.310   1.909
 1712TIP3    H2 5143   2.900   0.337   1.936
 1713TIP3   OH2 5144   0.962   1.947   0.534
 1713TIP3    H1 5145   1.034   1.926   0.593
 1713TIP3    H2 5146   0.890   1.973   0.592
 1714TIP3   OH2 5147   5.720   3.281   2.586
 1714TIP3    H1 5148   5.697   3.191   2.607
 1714TIP3    H2 5149   5.647   3.313   2.531
 1715TIP3   OH2 5150   6.205   3.032   0.238
 1715TIP3    H1 5151   6.299   3.026   0.252
 1715TIP3    H2 5152   6.166   3.028   0.325
 1716TIP3   OH2 5153   2.602   4.336   2.721
 1716TIP3    H1 5154   2.539   4.364   2.655
 1716TIP3    H2 5155   2.571   4.375   2.802
 1717TIP3   OH2 5156   5.606   5.213   3.932
 1717TIP3    H1 5157   5.589   5.307   3.944
 1717TIP3    H2 5158   5.548   5.188   3.860
 1718TIP3   OH2 5159   3.200   5.551   2.478
 1718TIP3    H1 5160   3.200   5.574   2.385
 1718TIP3    H2 5161   3.204   5.636   2.523
 1719TIP3   OH2 5162   2.970   0.398   2.710
 1719TIP3    H1 5163   2.903   0.423   2.647
 1719TIP3    H2 5164   2.980   0.475   2.767
 1720TIP3   OH2 5165   2.559   4.643   2.775
 1720TIP3    H1 5166   2.494   4.614   2.839
 1720TIP3    H2 5167   2.507   4.686   2.706
 1721TIP3   OH2 5168   2.512   3.612   5.152
 1721TIP3    H1 5169   2.593   3.638   5.109
 1721TIP3    H2 5170   2.445   3.617   5.084
 1722TIP3   OH2 5171   0.174   3.790   4.481
 1722TIP3    H1 5172   0.093   3.757   4.442
 1722TIP3    H2 5173   0.195   3.868   4.429
 1723TIP3   OH2 5174   0.135   5.130   1.731
 1723TIP3    H1 5175   0.072   5.122   1.659
 1723TIP3    H2 5176   0.085   5.105   1.809
 1724TIP3   OH2 5177   0.371   2.655   1.352
 1724TIP3    H1 5178   0.412   2.630   1.435
 1724TIP3    H2 5179   0.285   2.689   1.377
 1725TIP3   OH2 5180   4.804   1.574   3.020
 1725TIP3    H1 5181   4.805   1.625   3.101
 1725TIP3    H2 5182   4.808   1.640   2.950
 1726TIP3   OH2 5183   5.187   5.408   2.443
 1726TIP3    H1 5184   5.169   5.373   2.530
 1726TIP3    H2 5185   5.160   5.500   2.448
 1727TIP3   OH2 5186   5.427   0.781   1.598
 1727TIP3    H1 5187   5.370   0.711   1.565
 1727TIP3    H2 5188   5.514   0.741   1.600
 1728TIP3   OH2 5189   4.202   1.249   2.740
 1728TIP3    H1 5190   4.240   1.186   2.679
 1728TIP3    H2 5191   4.108   1.233   2.735
 1729TIP3   OH2 5192   4.084   3.331   0.323
 1729TIP3    H1 5193   4.022   3.287   0.382
 1729TIP3    H2 5194   4.029   3.370   0.255
 1730TIP3   OH2 5195   2.326   2.199   1.379
 1730TIP3    H1 5196   2.240   2.240   1.395
 1730TIP3    H2 5197   2.320   2.113   1.420
 1731TIP3   OH2 5198   3.033   2.683   3.230
 1731TIP3    H1 5199   3.086   2.605   3.215
 1731TIP3    H2 5200   2.949   2.663   3.189
 1732TIP3   OH2 5201   4.474   4.339   3.667
 1732TIP3    H1 5202   4.394   4.383   3.638
 1732TIP3    H2 5203   4.513   4.398   3.730
 1733TIP3   OH2 5204   4.221   0.681   0.995
 1733TIP3    H1 5205   4.181   0.595   1.010
 1733TIP3    H2 5206   4.149   0.736   0.964
 1734TIP3   OH2 5207   1.458   5.386   1.272
 1734TIP3    H1 5208   1.550   5.412   1.274
 1734TIP3    H2 5209   1.415   5.456   1.223
 1735TIP3   OH2 5210   6.033   2.731   3.520
 1735TIP3    H1 5211   5.994   2.649   3.549
 1735TIP3    H2 5212   6.103   2.704   3.461
 1736TIP3   OH2 5213   2.681   0.825   1.142
 1736TIP3    H1 5214   2.596   0.780   1.150
 1736TIP3    H2 5215   2.678   0.866   1.056
 1737TIP3   OH2 5216   4.116   2.317   3.478
 1737TIP3    H1 5217   4.105   2.316   3.574
 1737TIP3    H2 5218   4.198   2.270   3.463
 1738TIP3   OH2 5219   1.911   2.986   2.595
 1738TIP3    H1 5220   1.940   2.926   2.526
 1738TIP3    H2 5221   1.896   3.069   2.550
 1739TIP3   OH2 5222   2.752   0.382   0.813
 1739TIP3    H1 5223   2.814   0.453   0.796
 1739TIP3    H2 5224   2.682   0.395   0.749
 1740TIP3   OH2 5225   2.644   3.997   3.228
 1740TIP3    H1 5226   2.585   4.039   3.290
 1740TIP3    H2 5227   2.717   4.058   3.219
 1741TIP3   OH2 5228   3.218   3.018   3.622
 1741TIP3    H1 5229   3.192   2.960   3.551
 1741TIP3    H2 5230   3.313   3.024   3.615
 1742TIP3   OH2 5231   5.986   1.881   4.452
 1742TIP3    H1 5232   5.993   1.849   4.542
 1742TIP3    H2 5233   6.048   1.828   4.403
 1743TIP3   OH2 5234   2.387   3.709   2.949
 1743TIP3    H1 5235   2.364   3.619   2.926
 1743TIP3    H2 5236   2.462   3.730   2.893
 1744TIP3   OH2 5237   4.582   1.118   1.984
 1744TIP3    H1 5238   4.609   1.209   1.985
 1744TIP3    H2 5239   4.663   1.069   2.000
 1745TIP3   OH2 5240   1.060   1.245   1.149
 1745TIP3    H1 5241   1.016   1.191   1.083
 1745TIP3    H2 5242   1.112   1.182   1.199
 1746TIP3   OH2 5243   1.815   1.712   0.679
 1746TIP3    H1 5244   1.742   1.690   0.621
 1746TIP3    H2 5245   1.796   1.664   0.760
 1747TIP3   OH2 5246   0.804   1.035   0.754
 1747TIP3    H1 5247   0.869   1.058   0.688
 1747TIP3    H2 5248   0.756   1.116   0.771
 1748TIP3   OH2 5249   0.187   4.815   1.769
 1748TIP3    H1 5250   0.138   4.873   1.826
 1748TIP3    H2 5251   0.197   4.863   1.687
 1749TIP3   OH2 5252   2.273   4.674   4.039
 1749TIP3    H1 5253   2.239   4.631   4.118
 1749TIP3    H2 5254   2.246   4.766   4.048
 1750TIP3   OH2 5255   2.656   2.150   4.122
 1750TIP3    H1 5256   2.705   2.224   4.158
 1750TIP3    H2 5257   2.573   2.188   4.093
 1751TIP3   OH2 5258   6.114   5.198   3.002
 1751TIP3    H1 5259   6.204   5.184   2.972
 1751TIP3    H2 5260   6.105   5.143   3.079
 1752TIP3   OH2 5261   2.288   2.148   2.348
 1752TIP3    H1 5262   2.260   2.064   2.313
 1752TIP3    H2 5263   2.211   2.182   2.393
 1753TIP3   OH2 5264   2.012   1.455   3.907
 1753TIP3    H1 5265   1.936   1.399   3.891
 1753TIP3    H2 5266   1.976   1.543   3.911
 1754TIP3   OH2 5267   2.295   1.689   3.370
 1754TIP3    H1 5268   2.242   1.741   3.431
 1754TIP3    H2 5269   2.385   1.700   3.401
 1755TIP3   OH2 5270   2.161   0.844   3.242
 1755TIP3    H1 5271   2.151   0.772   3.179
 1755TIP3    H2 5272   2.082   0.896   3.230
 1756TIP3   OH2 5273   1.512   1.120   4.726
 1756TIP3    H1 5274   1.592   1.139   4.678
 1756TIP3    H2 5275   1.441   1.148   4.668
 1757TIP3   OH2 5276   3.649   1.342   2.569
 1757TIP3    H1 5277   3.686   1.376   2.650
 1757TIP3    H2 5278   3.723   1.342   2.507
 1758TIP3   OH2 5279   2.424   2.330   1.168
 1758TIP3    H1 5280   2.398   2.291   1.252
 1758TIP3    H2 5281   2.418   2.425   1.184
 1759TIP3   OH2 5282   5.274   5.264   1.184
 1759TIP3    H1 5283   5.295   5.233   1.095
 1759TIP3    H2 5284   5.329   5.210   1.241
 1760TIP3   OH2 5285   4.217   1.183   0.382
 1760TIP3    H1 5286   4.153   1.168   0.313
 1760TIP3    H2 5287   4.261   1.099   0.393
 1761TIP3   OH2 5288   0.115   1.129   3.367
 1761TIP3    H1 5289   0.033   1.158   3.407
 1761TIP3    H2 5290   0.162   1.210   3.347
 1762TIP3   OH2 5291   2.147   3.229   3.986
 1762TIP3    H1 5292   2.178   3.308   4.030
 1762TIP3    H2 5293   2.093   3.262   3.914
 1763TIP3   OH2 5294   2.548   5.530   3.744
 1763TIP3    H1 5295   2.462   5.571   3.752
 1763TIP3    H2 5296   2.567   5.499   3.833
 1764TIP3   OH2 5297   0.704   2.074   3.881
 1764TIP3    H1 5298   0.740   2.109   3.800
 1764TIP3    H2 5299   0.712   1.979   3.872
 1765TIP3   OH2 5300   0.589   1.886   3.503
 1765TIP3    H1 5301   0.560   1.802   3.538
 1765TIP3    H2 5302   0.685   1.883   3.511
 1766TIP3   OH2 5303   1.856   2.514   4.467
 1766TIP3    H1 5304   1.913   2.579   4.425
 1766TIP3    H2 5305   1.800   2.482   4.396
 1767TIP3   OH2 5306   3.628   2.654   1.360
 1767TIP3    H1 5307   3.631   2.582   1.423
 1767TIP3    H2 5308   3.628   2.733   1.414
 1768TIP3   OH2 5309   4.337   5.063   3.082
 1768TIP3    H1 5310   4.355   5.066   2.988
 1768TIP3    H2 5311   4.282   5.140   3.098
 1769TIP3   OH2 5312   1.403   1.310   3.669
 1769TIP3    H1 5313   1.442   1.230   3.634
 1769TIP3    H2 5314   1.310   1.304   3.645
 1770TIP3   OH2 5315   2.615   3.664   0.768
 1770TIP3    H1 5316   2.639   3.661   0.676
 1770TIP3    H2 5317   2.660   3.741   0.803
 1771TIP3   OH2 5318   1.695   5.366   2.676
 1771TIP3    H1 5319   1.658   5.297   2.621
 1771TIP3    H2 5320   1.649   5.357   2.760
 1772TIP3   OH2 5321   2.174   2.267   4.791
 1772TIP3    H1 5322   2.129   2.265   4.707
 1772TIP3    H2 5323   2.209   2.179   4.801
 1773TIP3   OH2 5324   3.632   4.195   2.100
 1773TIP3    H1 5325   3.561   4.168   2.041
 1773TIP3    H2 5326   3.621   4.139   2.177
 1774TIP3   OH2 5327   1.087   1.141   3.058
 1774TIP3    H1 5328   1.048   1.219   3.019
 1774TIP3    H2 5329   1.048   1.068   3.009
 1775TIP3   OH2 5330   2.167   5.675   2.127
 1775TIP3    H1 5331   2.146   5.767   2.107
 1775TIP3    H2 5332   2.187   5.675   2.220
 1776TIP3   OH2 5333   0.095   2.920   5.021
 1776TIP3    H1 5334   0.172   2.935   4.967
 1776TIP3    H2 5335   0.026   2.972   4.981
 1777TIP3   OH2 5336   2.773   4.117   0.099
 1777TIP3    H1 5337   2.720   4.055   0.051
 1777TIP3    H2 5338   2.710   4.174   0.143
 1778TIP3   OH2 5339   0.670   3.409   3.514
 1778TIP3    H1 5340   0.653   3.316   3.529
 1778TIP3    H2 5341   0.590   3.442   3.474
 1779TIP3   OH2 5342   0.283   0.086   3.663
 1779TIP3    H1 5343   0.291   0.120   3.752
 1779TIP3    H2 5344   0.189   0.085   3.645
 1780TIP3   OH2 5345   5.193   3.029   2.608
 1780TIP3    H1 5346   5.211   3.099   2.545
 1780TIP3    H2 5347   5.106   2.997   2.584
 1781TIP3   OH2 5348   1.934   1.867   2.915
 1781TIP3    H1 5349   1.920   1.960   2.931
 1781TIP3    H2 5350   1.847   1.834   2.892
 1782TIP3   OH2 5351   1.654   4.205   2.455
 1782TIP3    H1 5352   1.606   4.164   2.528
 1782TIP3    H2 5353   1.599   4.187   2.378
 1783TIP3   OH2 5354   4.571   6.019   4.704
 1783TIP3    H1 5355   4.592   5.926   4.709
 1783TIP3    H2 5356   4.476   6.022   4.690
 1784TIP3   OH2 5357   5.032   2.869   0.314
 1784TIP3    H1 5358   4.973   2.921   0.369
 1784TIP3    H2 5359   5.109   2.856   0.368
 1785TIP3   OH2 5360   1.667   4.298   0.717
 1785TIP3    H1 5361   1.705   4.354   0.785
 1785TIP3    H2 5362   1.724   4.221   0.715
 1786TIP3   OH2 5363   2.128   3.940   0.556
 1786TIP3    H1 5364   2.093   4.017   0.602
 1786TIP3    H2 5365   2.206   3.916   0.606
 1787TIP3   OH2 5366   0.090   5.352   0.256
 1787TIP3    H1 5367   0.075   5.337   0.350
 1787TIP3    H2 5368   0.184   5.368   0.248
 1788TIP3   OH2 5369   4.216   1.939   2.924
 1788TIP3    H1 5370   4.299   1.896   2.906
 1788TIP3    H2 5371   4.224   1.969   3.015
 1789TIP3   OH2 5372   4.150   5.863   0.268
 1789TIP3    H1 5373   4.134   5.952   0.236
 1789TIP3    H2 5374   4.118   5.864   0.358
 1790TIP3   OH2 5375   3.615   4.372   4.372
 1790TIP3    H1 5376   3.619   4.372   4.277
 1790TIP3    H2 5377   3.706   4.364   4.400
 1791TIP3   OH2 5378   3.882   1.427   2.117
 1791TIP3    H1 5379   3.819   1.362   2.086
 1791TIP3    H2 5380   3.850   1.510   2.080
 1792TIP3   OH2 5381   0.550   3.658   5.068
 1792TIP3    H1 5382   0.623   3.693   5.017
 1792TIP3    H2 5383   0.539   3.721   5.140
 1793TIP3   OH2 5384   4.970   1.208   1.582
 1793TIP3    H1 5385   4.958   1.168   1.668
 1793TIP3    H2 5386   5.042   1.160   1.542
 1794TIP3   OH2 5387   2.343   3.349   4.233
 1794TIP3    H1 5388   2.394   3.273   4.205
 1794TIP3    H2 5389   2.386   3.380   4.312
 1795TIP3   OH2 5390   0.039   0.547   1.468
 1795TIP3    H1 5391   0.102   0.612   1.500
 1795TIP3    H2 5392  -0.045   0.576   1.504
 1796TIP3   OH2 5393   2.905   4.384   0.017
 1796TIP3    H1 5394   2.819   4.351   0.043
 1796TIP3    H2 5395   2.966   4.313   0.039
 1797TIP3   OH2 5396   0.306   3.960   0.430
 1797TIP3    H1 5397   0.302   4.049   0.465
 1797TIP3    H2 5398   0.264   3.907   0.498
 1798TIP3   OH2 5399   6.053   1.692   3.561
 1798TIP3    H1 5400   6.139   1.662   3.590
 1798TIP3    H2 5401   6.058   1.788   3.566
 1799TIP3   OH2 5402   4.945   2.826   3.031
 1799TIP3    H1 5403   4.935   2.848   3.124
 1799TIP3    H2 5404   4.874   2.764   3.013
 1800TIP3   OH2 5405   2.374   0.374   1.668
 1800TIP3    H1 5406   2.435   0.416   1.607
 1800TIP3    H2 5407   2.404   0.283   1.672
 1801TIP3   OH2 5408   2.833   4.757   3.793
 1801TIP3    H1 5409   2.857   4.706   3.870
 1801TIP3    H2 5410   2.763   4.705   3.752
 1802TIP3   OH2 5411   0.418   5.698   1.986
 1802TIP3    H1 5412   0.384   5.788   1.990
 1802TIP3    H2 5413   0.449   5.680   2.075
 1803TIP3   OH2 5414   2.563   5.832   4.373
 1803TIP3    H1 5415   2.605   5.774   4.437
 1803TIP3    H2 5416   2.626   5.837   4.301
 1804TIP3   OH2 5417   3.739   2.733   0.982
 1804TIP3    H1 5418   3.798   2.666   0.947
 1804TIP3    H2 5419   3.711   2.782   0.905
 1805TIP3   OH2 5420   3.021   2.462   1.837
 1805TIP3    H1 5421   2.970   2.530   1.881
 1805TIP3    H2 5422   3.059   2.411   1.909
 1806TIP3   OH2 5423   3.025   2.267   1.151
 1806TIP3    H1 5424   2.990   2.185   1.115
 1806TIP3    H2 5425   3.102   2.285   1.097
 1807TIP3   OH2 5426   3.210   0.749   1.445
 1807TIP3    H1 5427   3.239   0.658   1.444
 1807TIP3    H2 5428   3.191   0.768   1.353
 1808TIP3   OH2 5429   3.713   5.579   2.009
 1808TIP3    H1 5430   3.621   5.578   2.037
 1808TIP3    H2 5431   3.708   5.576   1.913
 1809TIP3   OH2 5432   4.874   1.655   2.433
 1809TIP3    H1 5433   4.941   1.588   2.417
 1809TIP3    H2 5434   4.839   1.675   2.346
 1810TIP3   OH2 5435   3.112   3.468   0.027
 1810TIP3    H1 5436   3.086   3.428   0.110
 1810TIP3    H2 5437   3.053   3.429  -0.038
 1811TIP3   OH2 5438   3.929   4.248   0.135
 1811TIP3    H1 5439   3.938   4.324   0.193
 1811TIP3    H2 5440   3.980   4.271   0.057
 1812TIP3   OH2 5441   5.097   2.396   3.967
 1812TIP3    H1 5442   5.101   2.319   3.910
 1812TIP3    H2 5443   5.004   2.406   3.988
 1813TIP3   OH2 5444   3.554   0.260   0.049
 1813TIP3    H1 5445   3.581   0.350   0.069
 1813TIP3    H2 5446   3.541   0.219   0.134
 1814TIP3   OH2 5447   2.967   3.075   1.807
 1814TIP3    H1 5448   3.022   3.003   1.836
 1814TIP3    H2 5449   2.961   3.064   1.712
 1815TIP3   OH2 5450   6.287   2.099   2.831
 1815TIP3    H1 5451   6.199   2.114   2.866
 1815TIP3    H2 5452   6.338   2.065   2.904
 1816TIP3   OH2 5453   0.571   0.836   1.308
 1816TIP3    H1 5454   0.506   0.778   1.268
 1816TIP3    H2 5455   0.647   0.829   1.249
 1817TIP3   OH2 5456   3.259   2.816   1.117
 1817TIP3    H1 5457   3.230   2.729   1.087
 1817TIP3    H2 5458   3.180   2.855   1.156
 1818TIP3   OH2 5459   5.190   1.294   3.187
 1818TIP3    H1 5460   5.237   1.375   3.205
 1818TIP3    H2 5461   5.113   1.321   3.138
 1819TIP3   OH2 5462   4.440   0.445   3.225
 1819TIP3    H1 5463   4.532   0.444   3.252
 1819TIP3    H2 5464   4.397   0.386   3.287
 1820TIP3   OH2 5465   5.119   4.085   3.674
 1820TIP3    H1 5466   5.102   4.008   3.728
 1820TIP3    H2 5467   5.036   4.103   3.630
 1821TIP3   OH2 5468   6.097   4.855   4.960
 1821TIP3    H1 5469   6.179   4.872   5.007
 1821TIP3    H2 5470   6.084   4.761   4.968
 1822TIP3   OH2 5471   3.129   3.623   1.395
 1822TIP3    H1 5472   3.110   3.717   1.398
 1822TIP3    H2 5473   3.202   3.611   1.456
 1823TIP3   OH2 5474   4.710   4.024   0.362
 1823TIP3    H1 5475   4.654   4.094   0.395
 1823TIP3    H2 5476   4.769   4.004   0.435
 1824TIP3   OH2 5477   5.443   1.958   1.012
 1824TIP3    H1 5478   5.425   2.008   1.092
 1824TIP3    H2 5479   5.442   1.867   1.039
 1825TIP3   OH2 5480   1.292   4.461   3.552
 1825TIP3    H1 5481   1.221   4.499   3.604
 1825TIP3    H2 5482   1.362   4.443   3.614
 1826TIP3   OH2 5483   2.462   1.053   1.460
 1826TIP3    H1 5484   2.392   0.993   1.486
 1826TIP3    H2 5485   2.543   1.004   1.476
 1827TIP3   OH2 5486   3.832   2.975   2.398
 1827TIP3    H1 5487   3.772   2.940   2.333
 1827TIP3    H2 5488   3.777   2.995   2.474
 1828TIP3   OH2 5489   4.866   4.799   3.608
 1828TIP3    H1 5490   4.788   4.851   3.588
 1828TIP3    H2 5491   4.832   4.720   3.650
 1829TIP3   OH2 5492   2.880   3.088   2.078
 1829TIP3    H1 5493   2.886   3.079   1.983
 1829TIP3    H2 5494   2.893   3.000   2.112
 1830TIP3   OH2 5495   3.501   3.735   4.979
 1830TIP3    H1 5496   3.566   3.799   4.948
 1830TIP3    H2 5497   3.552   3.669   5.025
 1831TIP3   OH2 5498   5.751   4.008   4.155
 1831TIP3    H1 5499   5.788   4.021   4.067
 1831TIP3    H2 5500   5.746   4.096   4.192
 1832TIP3   OH2 5501   0.247   5.946   3.386
 1832TIP3    H1 5502   0.296   5.955   3.304
 1832TIP3    H2 5503   0.204   5.861   3.378
 1833TIP3   OH2 5504   3.932   1.131   1.592
 1833TIP3    H1 5505   4.010   1.077   1.590
 1833TIP3    H2 5506   3.921   1.162   1.502
 1834TIP3   OH2 5507   2.866   4.991   0.635
 1834TIP3    H1 5508   2.897   4.966   0.722
 1834TIP3    H2 5509   2.792   5.050   0.652
 1835TIP3   OH2 5510   3.434   4.930   2.747
 1835TIP3    H1 5511   3.409   4.844   2.712
 1835TIP3    H2 5512   3.509   4.956   2.694
 1836TIP3   OH2 5513   3.181   3.732   1.066
 1836TIP3    H1 5514   3.228   3.814   1.052
 1836TIP3    H2 5515   3.118   3.727   0.995
 1837TIP3   OH2 5516   4.048   2.665   3.297
 1837TIP3    H1 5517   4.079   2.755   3.289
 1837TIP3    H2 5518   3.992   2.651   3.221
 1838TIP3   OH2 5519   3.571   4.399   3.532
 1838TIP3    H1 5520   3.553   4.415   3.625
 1838TIP3    H2 5521   3.635   4.328   3.532
 1839TIP3   OH2 5522   5.650   0.939   1.417
 1839TIP3    H1 5523   5.555   0.933   1.426
 1839TIP3    H2 5524   5.684   0.936   1.506
 1840TIP3   OH2 5525   0.872   0.070   2.473
 1840TIP3    H1 5526   0.961   0.042   2.498
 1840TIP3    H2 5527   0.839   0.118   2.549
 1841TIP3   OH2 5528   3.303   1.292   1.246
 1841TIP3    H1 5529   3.324   1.200   1.230
 1841TIP3    H2 5530   3.212   1.301   1.218
 1842TIP3   OH2 5531   3.929   3.943   5.053
 1842TIP3    H1 5532   4.017   3.916   5.027
 1842TIP3    H2 5533   3.917   3.904   5.140
 1843TIP3   OH2 5534   2.740   2.502   3.391
 1843TIP3    H1 5535   2.745   2.597   3.403
 1843TIP3    H2 5536   2.826   2.470   3.419
 1844TIP3   OH2 5537   3.187   4.745   2.741
 1844TIP3    H1 5538   3.228   4.739   2.654
 1844TIP3    H2 5539   3.095   4.765   2.722
 1845TIP3   OH2 5540   1.732   0.959   4.887
 1845TIP3    H1 5541   1.741   1.045   4.845
 1845TIP3    H2 5542   1.782   0.900   4.831
 1846TIP3   OH2 5543   4.008   3.082   3.858
 1846TIP3    H1 5544   3.965   3.003   3.891
 1846TIP3    H2 5545   3.947   3.118   3.794
 1847TIP3   OH2 5546   4.588   4.256   4.453
 1847TIP3    H1 5547   4.525   4.202   4.405
 1847TIP3    H2 5548   4.541   4.285   4.530
 1848TIP3   OH2 5549   3.272   3.731   2.423
 1848TIP3    H1 5550   3.194   3.755   2.373
 1848TIP3    H2 5551   3.239   3.675   2.493
 1849TIP3   OH2 5552   3.647   4.284   3.256
 1849TIP3    H1 5553   3.680   4.368   3.286
 1849TIP3    H2 5554   3.666   4.283   3.162
 1850TIP3   OH2 5555   4.390   1.940   1.054
 1850TIP3    H1 5556   4.330   1.869   1.033
 1850TIP3    H2 5557   4.357   1.976   1.137
 1851TIP3   OH2 5558   2.562   5.794   2.780
 1851TIP3    H1 5559   2.587   5.708   2.814
 1851TIP3    H2 5560   2.477   5.780   2.738
 1852TIP3   OH2 5561   3.438   1.079   4.800
 1852TIP3    H1 5562   3.470   1.006   4.747
 1852TIP3    H2 5563   3.421   1.149   4.737
 1853TIP3   OH2 5564   4.621   2.802   2.388
 1853TIP3    H1 5565   4.596   2.717   2.424
 1853TIP3    H2 5566   4.538   2.850   2.380
 1854TIP3   OH2 5567   4.259   3.554   3.628
 1854TIP3    H1 5568   4.283   3.638   3.666
 1854TIP3    H2 5569   4.331   3.496   3.652
 1855TIP3   OH2 5570   4.008   3.048   4.152
 1855TIP3    H1 5571   4.033   2.993   4.078
 1855TIP3    H2 5572   4.091   3.083   4.185
 1856TIP3   OH2 5573   4.576   2.387   4.104
 1856TIP3    H1 5574   4.670   2.368   4.104
 1856TIP3    H2 5575   4.535   2.305   4.076
 1857TIP3   OH2 5576   6.025   3.865   4.372
 1857TIP3    H1 5577   5.931   3.846   4.361
 1857TIP3    H2 5578   6.049   3.821   4.453
 1858TIP3   OH2 5579   4.340   4.602   3.349
 1858TIP3    H1 5580   4.334   4.696   3.329
 1858TIP3    H2 5581   4.307   4.558   3.271
 1859TIP3   OH2 5582   4.450   4.849   1.980
 1859TIP3    H1 5583   4.529   4.795   1.971
 1859TIP3    H2 5584   4.437   4.856   2.075
 1860TIP3   OH2 5585   3.164   3.020   0.212
 1860TIP3    H1 5586   3.123   2.959   0.273
 1860TIP3    H2 5587   3.164   2.974   0.128
 1861TIP3   OH2 5588   4.737   4.292   1.560
 1861TIP3    H1 5589   4.796   4.257   1.627
 1861TIP3    H2 5590   4.653   4.251   1.578
 1862TIP3   OH2 5591   5.005   5.409   2.239
 1862TIP3    H1 5592   5.089   5.403   2.286
 1862TIP3    H2 5593   4.993   5.323   2.199
 1863TIP3   OH2 5594   1.387   0.433   0.425
 1863TIP3    H1 5595   1.475   0.443   0.461
 1863TIP3    H2 5596   1.333   0.409   0.500
 1864TIP3   OH2 5597   5.599   1.854   1.691
 1864TIP3    H1 5598   5.538   1.880   1.623
 1864TIP3    H2 5599   5.650   1.933   1.709
 1865TIP3   OH2 5600   3.396   1.503   4.103
 1865TIP3    H1 5601   3.483   1.470   4.082
 1865TIP3    H2 5602   3.405   1.599   4.102
 1866TIP3   OH2 5603   4.613   0.903   3.716
 1866TIP3    H1 5604   4.644   0.812   3.709
 1866TIP3    H2 5605   4.693   0.955   3.716
 1867TIP3   OH2 5606   0.290   4.386   2.713
 1867TIP3    H1 5607   0.357   4.390   2.781
 1867TIP3    H2 5608   0.218   4.337   2.753
 1868TIP3   OH2 5609   2.832   2.650   1.954
 1868TIP3    H1 5610   2.809   2.657   2.047
 1868TIP3    H2 5611   2.771   2.586   1.919
 1869TIP3   OH2 5612   2.799   2.943   5.154
 1869TIP3    H1 5613   2.887   2.908   5.170
 1869TIP3    H2 5614   2.814   3.027   5.112
 1870TIP3   OH2 5615   0.900   0.200   1.336
 1870TIP3    H1 5616   0.968   0.154   1.386
 1870TIP3    H2 5617   0.935   0.206   1.248
 1871TIP3   OH2 5618   4.098   5.936   3.319
 1871TIP3    H1 5619   4.146   5.853   3.310
 1871TIP3    H2 5620   4.101   5.975   3.232
 1872TIP3   OH2 5621   6.193   2.627   4.554
 1872TIP3    H1 5622   6.207   2.701   4.613
 1872TIP3    H2 5623   6.110   2.589   4.583
 1873TIP3   OH2 5624   2.437   4.981   3.329
 1873TIP3    H1 5625   2.480   4.911   3.379
 1873TIP3    H2 5626   2.372   5.017   3.390
 1874TIP3   OH2 5627   3.196   3.847   0.366
 1874TIP3    H1 5628   3.285   3.812   0.378
 1874TIP3    H2 5629   3.201   3.898   0.286
 1875TIP3   OH2 5630   4.098   2.043   4.288
 1875TIP3    H1 5631   4.171   2.101   4.311
 1875TIP3    H2 5632   4.141   1.962   4.258
 1876TIP3   OH2 5633   2.320   0.764   2.239
 1876TIP3    H1 5634   2.395   0.801   2.285
 1876TIP3    H2 5635   2.250   0.828   2.252
 1877TIP3   OH2 5636   3.335   1.440   0.692
 1877TIP3    H1 5637   3.371   1.355   0.668
 1877TIP3    H2 5638   3.243   1.435   0.669
 1878TIP3   OH2 5639   1.382   4.294   0.709
 1878TIP3    H1 5640   1.353   4.246   0.786
 1878TIP3    H2 5641   1.477   4.283   0.708
 1879TIP3   OH2 5642   4.735   5.136   3.495
 1879TIP3    H1 5643   4.813   5.082   3.477
 1879TIP3    H2 5644   4.726   5.191   3.418
 1880TIP3   OH2 5645   0.210   1.102   3.022
 1880TIP3    H1 5646   0.285   1.099   3.081
 1880TIP3    H2 5647   0.144   1.153   3.069
 1881TIP3   OH2 5648   0.327   2.655   3.813
 1881TIP3    H1 5649   0.243   2.690   3.782
 1881TIP3    H2 5650   0.343   2.579   3.756
 1882TIP3   OH2 5651   1.642   2.851   2.628
 1882TIP3    H1 5652   1.612   2.789   2.562
 1882TIP3    H2 5653   1.724   2.813   2.660
 1883TIP3   OH2 5654   2.987   1.306   0.818
 1883TIP3    H1 5655   2.956   1.272   0.734
 1883TIP3    H2 5656   2.937   1.386   0.832
 1884TIP3   OH2 5657   0.636   4.461  -0.003
 1884TIP3    H1 5658   0.549   4.469   0.036
 1884TIP3    H2 5659   0.666   4.373   0.021
 1885TIP3   OH2 5660   2.993   5.816   2.488
 1885TIP3    H1 5661   2.950   5.900   2.471
 1885TIP3    H2 5662   3.033   5.826   2.574
 1886TIP3   OH2 5663   3.429   5.582   2.042
 1886TIP3    H1 5664   3.375   5.635   2.100
 1886TIP3    H2 5665   3.367   5.526   1.995
 1887TIP3   OH2 5666   1.226   0.384   0.668
 1887TIP3    H1 5667   1.184   0.299   0.658
 1887TIP3    H2 5668   1.199   0.414   0.755
 1888TIP3   OH2 5669   4.449   5.549   1.295
 1888TIP3    H1 5670   4.481   5.488   1.361
 1888TIP3    H2 5671   4.514   5.547   1.225
 1889TIP3   OH2 5672   3.070   2.972   4.020
 1889TIP3    H1 5673   3.046   2.897   4.074
 1889TIP3    H2 5674   3.145   3.011   4.066
 1890TIP3   OH2 5675   0.059   3.255   1.593
 1890TIP3    H1 5676   0.034   3.205   1.671
 1890TIP3    H2 5677   0.154   3.262   1.598
 1891TIP3   OH2 5678   6.029   4.967   0.778
 1891TIP3    H1 5679   6.019   5.041   0.838
 1891TIP3    H2 5680   5.940   4.950   0.747
 1892TIP3   OH2 5681   1.914   5.341   5.104
 1892TIP3    H1 5682   1.969   5.363   5.029
 1892TIP3    H2 5683   1.944   5.253   5.129
 1893TIP3   OH2 5684   5.267   5.244   4.451
 1893TIP3    H1 5685   5.267   5.186   4.527
 1893TIP3    H2 5686   5.305   5.190   4.381
 1894TIP3   OH2 5687   2.937   0.970   2.729
 1894TIP3    H1 5688   2.913   0.954   2.638
 1894TIP3    H2 5689   2.902   0.895   2.777
 1895TIP3   OH2 5690   5.526   4.065   1.948
 1895TIP3    H1 5691   5.439   4.066   1.909
 1895TIP3    H2 5692   5.545   3.972   1.962
 1896TIP3   OH2 5693   4.437   3.095   3.278
 1896TIP3    H1 5694   4.501   3.058   3.217
 1896TIP3    H2 5695   4.411   3.020   3.332
 1897TIP3   OH2 5696   3.815   5.821   1.755
 1897TIP3    H1 5697   3.749   5.754   1.738
 1897TIP3    H2 5698   3.819   5.872   1.674
 1898TIP3   OH2 5699   1.914   4.104   1.302
 1898TIP3    H1 5700   1.932   4.068   1.389
 1898TIP3    H2 5701   1.819   4.096   1.291
 1899TIP3   OH2 5702   4.530   3.892   2.783
 1899TIP3    H1 5703   4.505   3.833   2.712
 1899TIP3    H2 5704   4.503   3.979   2.753
 1900TIP3   OH2 5705   2.217   3.511   2.235
 1900TIP3    H1 5706   2.228   3.570   2.160
 1900TIP3    H2 5707   2.305   3.506   2.273
 1901TIP3   OH2 5708   3.918   1.302   0.680
 1901TIP3    H1 5709   3.827   1.272   0.676
 1901TIP3    H2 5710   3.929   1.331   0.771
 1902TIP3   OH2 5711   4.192   5.605   0.174
 1902TIP3    H1 5712   4.171   5.695   0.198
 1902TIP3    H2 5713   4.193   5.605   0.078
 1903TIP3   OH2 5714   3.578   3.979   1.144
 1903TIP3    H1 5715   3.631   3.991   1.223
 1903TIP3    H2 5716   3.592   3.887   1.121
 1904TIP3   OH2 5717   3.426   0.193   1.746
 1904TIP3    H1 5718   3.369   0.138   1.693
 1904TIP3    H2 5719   3.371   0.269   1.769
 1905TIP3   OH2 5720   2.263   0.789   2.674
 1905TIP3    H1 5721   2.228   0.876   2.655
 1905TIP3    H2 5722   2.263   0.783   2.770
 1906TIP3   OH2 5723   1.552   2.791   4.444
 1906TIP3    H1 5724   1.622   2.780   4.380
 1906TIP3    H2 5725   1.594   2.779   4.529
 1907TIP3   OH2 5726   4.439   3.693   4.509
 1907TIP3    H1 5727   4.359   3.646   4.486
 1907TIP3    H2 5728   4.490   3.694   4.429
 1908TIP3   OH2 5729   5.150   3.026   0.683
 1908TIP3    H1 5730   5.204   2.948   0.696
 1908TIP3    H2 5731   5.091   3.029   0.758
 1909TIP3   OH2 5732   0.722   2.891   2.912
 1909TIP3    H1 5733   0.746   2.807   2.872
 1909TIP3    H2 5734   0.760   2.957   2.853
 1910TIP3   OH2 5735   5.672   0.301   4.552
 1910TIP3    H1 5736   5.711   0.213   4.548
 1910TIP3    H2 5737   5.721   0.352   4.489
 1911TIP3   OH2 5738   5.619   4.221   0.722
 1911TIP3    H1 5739   5.624   4.130   0.692
 1911TIP3    H2 5740   5.562   4.264   0.658
 1912TIP3   OH2 5741   4.171   3.451   2.021
 1912TIP3    H1 5742   4.110   3.389   2.063
 1912TIP3    H2 5743   4.149   3.536   2.058
 1913TIP3   OH2 5744   3.909   0.371   0.364
 1913TIP3    H1 5745   3.978   0.382   0.430
 1913TIP3    H2 5746   3.892   0.276   0.364
 1914TIP3   OH2 5747   5.938   1.468   0.082
 1914TIP3    H1 5748   5.978   1.415   0.013
 1914TIP3    H2 5749   5.852   1.428   0.096
 1915TIP3   OH2 5750   4.952   3.826   4.885
 1915TIP3    H1 5751   4.982   3.735   4.875
 1915TIP3    H2 5752   4.917   3.830   4.974
 1916TIP3   OH2 5753   2.952   3.099   2.969
 1916TIP3    H1 5754   2.995   3.184   2.967
 1916TIP3    H2 5755   2.958   3.066   2.879
 1917TIP3   OH2 5756   0.977   1.683   4.212
 1917TIP3    H1 5757   1.050   1.629   4.241
 1917TIP3    H2 5758   0.899   1.637   4.245
 1918TIP3   OH2 5759   4.222   5.582   1.156
 1918TIP3    H1 5760   4.272   5.561   1.236
 1918TIP3    H2 5761   4.282   5.560   1.084
 1919TIP3   OH2 5762   2.294   0.240   0.563
 1919TIP3    H1 5763   2.383   0.213   0.586
 1919TIP3    H2 5764   2.299   0.335   0.559
 1920TIP3   OH2 5765   5.146   4.070   1.337
 1920TIP3    H1 5766   5.134   4.003   1.270
 1920TIP3    H2 5767   5.235   4.104   1.322
 1921TIP3   OH2 5768   0.656   1.141   3.961
 1921TIP3    H1 5769   0.582   1.111   3.908
 1921TIP3    H2 5770   0.718   1.177   3.898
 1922TIP3   OH2 5771   0.714   1.825   2.523
 1922TIP3    H1 5772   0.680   1.907   2.486
 1922TIP3    H2 5773   0.760   1.784   2.450
 1923TIP3   OH2 5774   4.853   1.081   4.263
 1923TIP3    H1 5775   4.919   1.118   4.322
 1923TIP3    H2 5776   4.774   1.075   4.317
 1924TIP3   OH2 5777   0.460   5.033   0.020
 1924TIP3    H1 5778   0.450   4.943   0.050
 1924TIP3    H2 5779   0.511   5.026  -0.061
 1925TIP3   OH2 5780   4.562   3.008   4.189
 1925TIP3    H1 5781   4.577   2.957   4.269
 1925TIP3    H2 5782   4.467   3.010   4.179
 1926TIP3   OH2 5783   1.869   1.398   4.394
 1926TIP3    H1 5784   1.829   1.483   4.377
 1926TIP3    H2 5785   1.796   1.339   4.410
 1927TIP3   OH2 5786   3.051   2.857   4.894
 1927TIP3    H1 5787   3.134   2.809   4.891
 1927TIP3    H2 5788   3.071   2.941   4.851
 1928TIP3   OH2 5789   4.818   4.430   0.685
 1928TIP3    H1 5790   4.810   4.421   0.590
 1928TIP3    H2 5791   4.854   4.517   0.698
 1929TIP3   OH2 5792   5.709   1.956   0.918
 1929TIP3    H1 5793   5.680   2.036   0.874
 1929TIP3    H2 5794   5.634   1.931   0.972
 1930TIP3   OH2 5795   4.397   4.813   0.936
 1930TIP3    H1 5796   4.483   4.791   0.900
 1930TIP3    H2 5797   4.338   4.812   0.861
 1931TIP3   OH2 5798   2.912   1.412   0.168
 1931TIP3    H1 5799   2.889   1.447   0.082
 1931TIP3    H2 5800   2.894   1.318   0.161
 1932TIP3   OH2 5801   1.349   2.203   2.319
 1932TIP3    H1 5802   1.321   2.112   2.321
 1932TIP3    H2 5803   1.382   2.216   2.230
 1933TIP3   OH2 5804   4.956   5.353   1.905
 1933TIP3    H1 5805   4.980   5.296   1.978
 1933TIP3    H2 5806   5.000   5.314   1.829
 1934TIP3   OH2 5807   3.608   2.385   3.992
 1934TIP3    H1 5808   3.569   2.386   4.079
 1934TIP3    H2 5809   3.654   2.468   3.985
 1935TIP3   OH2 5810   2.319   5.627   4.793
 1935TIP3    H1 5811   2.247   5.601   4.851
 1935TIP3    H2 5812   2.377   5.551   4.791
 1936TIP3   OH2 5813   2.382   3.998   5.053
 1936TIP3    H1 5814   2.371   3.930   5.119
 1936TIP3    H2 5815   2.477   4.007   5.043
 1937TIP3   OH2 5816   5.576   0.817   2.165
 1937TIP3    H1 5817   5.577   0.871   2.244
 1937TIP3    H2 5818   5.646   0.855   2.111
 1938TIP3   OH2 5819   0.750   3.350   4.652
 1938TIP3    H1 5820   0.734   3.345   4.747
 1938TIP3    H2 5821   0.811   3.279   4.634
 1939TIP3   OH2 5822   2.542   3.252   0.964
 1939TIP3    H1 5823   2.475   3.220   1.023
 1939TIP3    H2 5824   2.562   3.176   0.908
 1940TIP3   OH2 5825   5.122   5.125   2.457
 1940TIP3    H1 5826   5.175   5.132   2.377
 1940TIP3    H2 5827   5.097   5.215   2.477
 1941TIP3   OH2 5828   1.318   0.965   0.022
 1941TIP3    H1 5829   1.266   0.959  -0.057
 1941TIP3    H2 5830   1.272   0.910   0.085
 1942TIP3   OH2 5831   5.191   5.310   0.274
 1942TIP3    H1 5832   5.218   5.317   0.182
 1942TIP3    H2 5833   5.144   5.228   0.280
 1943TIP3   OH2 5834   6.286   3.466   1.000
 1943TIP3    H1 5835   6.222   3.513   1.053
 1943TIP3    H2 5836   6.258   3.480   0.910
 1944TIP3   OH2 5837   0.173   1.618   4.358
 1944TIP3    H1 5838   0.215   1.704   4.359
 1944TIP3    H2 5839   0.130   1.613   4.272
 1945TIP3   OH2 5840   2.294   5.672   1.425
 1945TIP3    H1 5841   2.216   5.705   1.469
 1945TIP3    H2 5842   2.316   5.592   1.471
 1946TIP3   OH2 5843   6.234   5.841   3.946
 1946TIP3    H1 5844   6.231   5.842   3.851
 1946TIP3    H2 5845   6.161   5.783   3.971
 1947TIP3   OH2 5846   4.947   3.356   2.651
 1947TIP3    H1 5847   4.948   3.409   2.731
 1947TIP3    H2 5848   4.858   3.321   2.647
 1948TIP3   OH2 5849   1.934   1.783   3.269
 1948TIP3    H1 5850   1.986   1.849   3.316
 1948TIP3    H2 5851   1.846   1.820   3.266
 1949TIP3   OH2 5852   6.070   0.593   3.558
 1949TIP3    H1 5853   6.096   0.572   3.468
 1949TIP3    H2 5854   6.130   0.662   3.584
 1950TIP3   OH2 5855   0.861   3.519   0.560
 1950TIP3    H1 5856   0.885   3.512   0.653
 1950TIP3    H2 5857   0.849   3.613   0.546
 1951TIP3   OH2 5858   2.027   0.403   0.630
 1951TIP3    H1 5859   1.987   0.340   0.689
 1951TIP3    H2 5860   2.024   0.362   0.544
 1952TIP3   OH2 5861   0.895   4.791   0.868
 1952TIP3    H1 5862   0.834   4.718   0.852
 1952TIP3    H2 5863   0.843   4.855   0.916
 1953TIP3   OH2 5864   1.517   1.287   0.085
 1953TIP3    H1 5865   1.596   1.245   0.119
 1953TIP3    H2 5866   1.518   1.268  -0.008
 1954TIP3   OH2 5867   0.503   4.936   0.458
 1954TIP3    H1 5868   0.515   4.851   0.416
 1954TIP3    H2 5869   0.449   4.917   0.535
 1955TIP3   OH2 5870   2.920   1.763   3.076
 1955TIP3    H1 5871   2.964   1.728   3.153
 1955TIP3    H2 5872   2.981   1.829   3.041
 1956TIP3   OH2 5873   2.116   2.849   4.664
 1956TIP3    H1 5874   2.075   2.925   4.705
 1956TIP3    H2 5875   2.048   2.812   4.607
 1957TIP3   OH2 5876   2.211   2.617   1.701
 1957TIP3    H1 5877   2.202   2.623   1.796
 1957TIP3    H2 5878   2.232   2.706   1.673
 1958TIP3   OH2 5879   0.785   1.387   3.219
 1958TIP3    H1 5880   0.721   1.453   3.191
 1958TIP3    H2 5881   0.825   1.425   3.296
 1959TIP3   OH2 5882   6.101   2.916   4.026
 1959TIP3    H1 5883   6.094   2.978   4.098
 1959TIP3    H2 5884   6.023   2.933   3.972
 1960TIP3   OH2 5885   3.605   1.306   2.887
 1960TIP3    H1 5886   3.555   1.382   2.858
 1960TIP3    H2 5887   3.696   1.327   2.865
 1961TIP3   OH2 5888   5.792   1.091   0.235
 1961TIP3    H1 5889   5.774   0.998   0.252
 1961TIP3    H2 5890   5.706   1.133   0.241
 1962TIP3   OH2 5891   2.768   4.983   4.974
 1962TIP3    H1 5892   2.769   4.911   5.037
 1962TIP3    H2 5893   2.854   4.978   4.931
 1963TIP3   OH2 5894   2.205   0.100   3.784
 1963TIP3    H1 5895   2.123   0.052   3.799
 1963TIP3    H2 5896   2.258   0.041   3.730
 1964TIP3   OH2 5897   0.046   0.971   4.721
 1964TIP3    H1 5898   0.100   1.013   4.788
 1964TIP3    H2 5899   0.025   1.041   4.659
 1965TIP3   OH2 5900   1.543   1.472   3.909
 1965TIP3    H1 5901   1.589   1.415   3.970
 1965TIP3    H2 5902   1.453   1.440   3.909
 1966TIP3   OH2 5903   4.971   2.554   4.767
 1966TIP3    H1 5904   4.957   2.508   4.684
 1966TIP3    H2 5905   4.883   2.569   4.802
 1967TIP3   OH2 5906   3.285   4.525   1.075
 1967TIP3    H1 5907   3.224   4.539   1.003
 1967TIP3    H2 5908   3.229   4.511   1.151
 1968TIP3   OH2 5909   2.897   4.309   3.837
 1968TIP3    H1 5910   2.811   4.329   3.875
 1968TIP3    H2 5911   2.959   4.325   3.909
 1969TIP3   OH2 5912   4.821   4.855   1.983
 1969TIP3    H1 5913   4.825   4.938   2.030
 1969TIP3    H2 5914   4.766   4.799   2.037
 1970TIP3   OH2 5915   1.772   0.116   4.759
 1970TIP3    H1 5916   1.813   0.174   4.823
 1970TIP3    H2 5917   1.695   0.165   4.728
 1971TIP3   OH2 5918   5.081   1.888   4.790
 1971TIP3    H1 5919   5.047   1.908   4.877
 1971TIP3    H2 5920   5.013   1.917   4.730
 1972TIP3   OH2 5921   3.515   4.647   4.054
 1972TIP3    H1 5922   3.599   4.634   4.098
 1972TIP3    H2 5923   3.536   4.699   3.977
 1973TIP3   OH2 5924   5.835  -0.010   2.188
 1973TIP3    H1 5925   5.877  -0.017   2.274
 1973TIP3    H2 5926   5.748   0.025   2.207
 1974TIP3   OH2 5927   3.984   0.054   2.075
 1974TIP3    H1 5928   3.893   0.030   2.057
 1974TIP3    H2 5929   3.989   0.060   2.170
 1975TIP3   OH2 5930   5.047   0.723   0.072
 1975TIP3    H1 5931   5.122   0.677   0.033
 1975TIP3    H2 5932   5.018   0.664   0.142
 1976TIP3   OH2 5933   1.064   0.806   4.790
 1976TIP3    H1 5934   1.028   0.884   4.747
 1976TIP3    H2 5935   1.033   0.812   4.880
 1977TIP3   OH2 5936   4.050   4.294   0.620
 1977TIP3    H1 5937   4.061   4.200   0.608
 1977TIP3    H2 5938   4.097   4.333   0.546
 1978TIP3   OH2 5939   5.683   0.312   4.839
 1978TIP3    H1 5940   5.679   0.292   4.746
 1978TIP3    H2 5941   5.697   0.227   4.881
 1979TIP3   OH2 5942   2.416   3.475   3.959
 1979TIP3    H1 5943   2.404   3.427   4.041
 1979TIP3    H2 5944   2.510   3.476   3.945
 1980TIP3   OH2 5945   4.447   5.790   1.422
 1980TIP3    H1 5946   4.404   5.706   1.409
 1980TIP3    H2 5947   4.481   5.813   1.336
 1981TIP3   OH2 5948   3.912   5.363   3.320
 1981TIP3    H1 5949   3.949   5.435   3.269
 1981TIP3    H2 5950   3.856   5.316   3.258
 1982TIP3   OH2 5951   1.980   1.113   4.365
 1982TIP3    H1 5952   1.945   1.196   4.399
 1982TIP3    H2 5953   1.971   1.121   4.270
 1983TIP3   OH2 5954   1.777   3.206   3.848
 1983TIP3    H1 5955   1.855   3.250   3.814
 1983TIP3    H2 5956   1.758   3.251   3.931
 1984TIP3   OH2 5957   5.966   4.798   1.101
 1984TIP3    H1 5958   5.892   4.780   1.043
 1984TIP3    H2 5959   5.975   4.893   1.098
 1985TIP3   OH2 5960   2.051   2.257   1.274
 1985TIP3    H1 5961   2.106   2.178   1.269
 1985TIP3    H2 5962   2.057   2.295   1.186
 1986TIP3   OH2 5963   3.767   5.155   0.378
 1986TIP3    H1 5964   3.830   5.217   0.415
 1986TIP3    H2 5965   3.690   5.163   0.434
 1987TIP3   OH2 5966   1.933   0.265   4.942
 1987TIP3    H1 5967   2.017   0.238   4.980
 1987TIP3    H2 5968   1.874   0.271   5.018
 1988TIP3   OH2 5969   0.280   3.444   1.719
 1988TIP3    H1 5970   0.218   3.445   1.793
 1988TIP3    H2 5971   0.365   3.426   1.759
 1989TIP3   OH2 5972   1.006   2.709   3.607
 1989TIP3    H1 5973   0.916   2.684   3.587
 1989TIP3    H2 5974   1.009   2.803   3.589
 1990TIP3   OH2 5975   4.936   4.549   1.919
 1990TIP3    H1 5976   4.870   4.494   1.960
 1990TIP3    H2 5977   4.910   4.639   1.941
 1991TIP3   OH2 5978   5.098   3.819   0.860
 1991TIP3    H1 5979   5.138   3.824   0.773
 1991TIP3    H2 5980   5.078   3.726   0.872
 1992TIP3   OH2 5981   6.011   0.785   0.266
 1992TIP3    H1 5982   6.018   0.694   0.237
 1992TIP3    H2 5983   6.002   0.779   0.361
 1993TIP3   OH2 5984   5.582   1.269   1.202
 1993TIP3    H1 5985   5.563   1.357   1.172
 1993TIP3    H2 5986   5.498   1.224   1.202
 1994TIP3   OH2 5987   3.600   2.603   2.250
 1994TIP3    H1 5988   3.557   2.614   2.166
 1994TIP3    H2 5989   3.675   2.547   2.232
 1995TIP3   OH2 5990   4.263   4.373   4.688
 1995TIP3    H1 5991   4.350   4.406   4.709
 1995TIP3    H2 5992   4.279   4.294   4.637
 1996TIP3   OH2 5993   5.252   4.182   2.935
 1996TIP3    H1 5994   5.311   4.240   2.886
 1996TIP3    H2 5995   5.172   4.233   2.946
 1997TIP3   OH2 5996   4.372   1.401   0.294
 1997TIP3    H1 5997   4.310   1.331   0.315
 1997TIP3    H2 5998   4.438   1.395   0.363
 1998TIP3   OH2 5999   6.175   1.670   4.358
 1998TIP3    H1 6000   6.252   1.671   4.302
 1998TIP3    H2 6001   6.134   1.585   4.342
 1999TIP3   OH2 6002   3.326   4.247   4.766
 1999TIP3    H1 6003   3.402   4.290   4.726
 1999TIP3    H2 6004   3.312   4.295   4.848
 2000TIP3   OH2 6005   5.903   3.731   3.766
 2000TIP3    H1 6006   5.934   3.750   3.854
 2000TIP3    H2 6007   5.815   3.771   3.763
 2001TIP3   OH2 6008   0.244   1.356   2.148
 2001TIP3    H1 6009   0.167   1.300   2.161
 2001TIP3    H2 6010   0.275   1.377   2.236
 2002TIP3   OH2 6011   4.448   1.817   4.464
 2002TIP3    H1 6012   4.544   1.814   4.475
 2002TIP3    H2 6013   4.418   1.732   4.494
 2003TIP3   OH2 6014   5.539   0.344   2.723
 2003TIP3    H1 6015   5.498   0.261   2.699
 2003TIP3    H2 6016   5.576   0.329   2.810
 2004TIP3   OH2 6017   3.702   0.019   1.485
 2004TIP3    H1 6018   3.663   0.049   1.566
 2004TIP3    H2 6019   3.781   0.072   1.475
 2005TIP3   OH2 6020   1.713   3.733   2.278
 2005TIP3    H1 6021   1.778   3.711   2.344
 2005TIP3    H2 6022   1.762   3.780   2.211
 2006TIP3   OH2 6023   4.277   5.661   1.986
 2006TIP3    H1 6024   4.248   5.749   2.010
 2006TIP3    H2 6025   4.197   5.615   1.961
 2007TIP3   OH2 6026   4.482   2.546   0.241
 2007TIP3    H1 6027   4.547   2.476   0.245
 2007TIP3    H2 6028   4.506   2.597   0.163
 2008TIP3   OH2 6029   0.674   0.356   0.828
 2008TIP3    H1 6030   0.593   0.315   0.857
 2008TIP3    H2 6031   0.651   0.399   0.746
 2009TIP3   OH2 6032   3.945   0.706   3.767
 2009TIP3    H1 6033   4.004   0.723   3.841
 2009TIP3    H2 6034   3.918   0.793   3.738
 2010TIP3   OH2 6035   2.858   2.146   3.918
 2010TIP3    H1 6036   2.873   2.240   3.911
 2010TIP3    H2 6037   2.787   2.138   3.982
 2011TIP3   OH2 6038   1.103   5.673   4.130
 2011TIP3    H1 6039   1.111   5.579   4.140
 2011TIP3    H2 6040   1.179   5.709   4.176
 2012TIP3   OH2 6041   0.837   5.283   4.457
 2012TIP3    H1 6042   0.795   5.363   4.425
 2012TIP3    H2 6043   0.776   5.249   4.523
 2013TIP3   OH2 6044   4.504   3.823   0.916
 2013TIP3    H1 6045   4.421   3.848   0.874
 2013TIP3    H2 6046   4.553   3.779   0.846
 2014TIP3   OH2 6047   4.500   3.051   1.905
 2014TIP3    H1 6048   4.516   2.995   1.829
 2014TIP3    H2 6049   4.417   3.094   1.886
 2015TIP3   OH2 6050   3.671   5.128   2.753
 2015TIP3    H1 6051   3.667   5.223   2.744
 2015TIP3    H2 6052   3.727   5.100   2.681
 2016TIP3   OH2 6053   4.557   2.028   2.115
 2016TIP3    H1 6054   4.553   2.045   2.021
 2016TIP3    H2 6055   4.488   1.963   2.130
 2017TIP3   OH2 6056   2.082   0.340   3.504
 2017TIP3    H1 6057   2.001   0.331   3.554
 2017TIP3    H2 6058   2.069   0.419   3.451
 2018TIP3   OH2 6059   3.073   4.021   5.088
 2018TIP3    H1 6060   3.158   3.978   5.077
 2018TIP3    H2 6061   3.060   4.026   5.183
 2019TIP3   OH2 6062   0.410   1.590   0.975
 2019TIP3    H1 6063   0.427   1.507   1.020
 2019TIP3    H2 6064   0.349   1.637   1.032
 2020TIP3   OH2 6065   4.109   1.785   1.253
 2020TIP3    H1 6066   4.033   1.732   1.231
 2020TIP3    H2 6067   4.086   1.873   1.225
 2021TIP3   OH2 6068   1.250   5.125   4.157
 2021TIP3    H1 6069   1.163   5.150   4.126
 2021TIP3    H2 6070   1.241   5.033   4.182
 2022TIP3   OH2 6071   1.127   5.034   1.383
 2022TIP3    H1 6072   1.126   5.046   1.288
 2022TIP3    H2 6073   1.067   4.962   1.399
 2023TIP3   OH2 6074   0.332   0.282   0.135
 2023TIP3    H1 6075   0.367   0.370   0.147
 2023TIP3    H2 6076   0.343   0.265   0.041
 2024TIP3   OH2 6077   1.147   2.111   4.741
 2024TIP3    H1 6078   1.170   2.195   4.701
 2024TIP3    H2 6079   1.088   2.134   4.813
 2025TIP3   OH2 6080   6.146   1.535   3.893
 2025TIP3    H1 6081   6.148   1.614   3.946
 2025TIP3    H2 6082   6.060   1.536   3.852
 2026TIP3   OH2 6083   5.386   2.987   4.110
 2026TIP3    H1 6084   5.475   3.014   4.133
 2026TIP3    H2 6085   5.392   2.958   4.020
 2027TIP3   OH2 6086   5.182   1.515   4.912
 2027TIP3    H1 6087   5.147   1.429   4.891
 2027TIP3    H2 6088   5.164   1.568   4.834
 2028TIP3   OH2 6089   1.913   4.985   4.287
 2028TIP3    H1 6090   1.894   5.072   4.254
 2028TIP3    H2 6091   1.865   4.926   4.228
 2029TIP3   OH2 6092   1.357   0.285   0.128
 2029TIP3    H1 6093   1.317   0.246   0.206
 2029TIP3    H2 6094   1.401   0.213   0.084
 2030TIP3   OH2 6095   4.252   2.647   0.405
 2030TIP3    H1 6096   4.336   2.607   0.384
 2030TIP3    H2 6097   4.190   2.604   0.346
 2031TIP3   OH2 6098   0.306   5.640   0.576
 2031TIP3    H1 6099   0.372   5.635   0.507
 2031TIP3    H2 6100   0.308   5.553   0.618
 2032TIP3   OH2 6101   2.798   4.607   4.431
 2032TIP3    H1 6102   2.887   4.575   4.418
 2032TIP3    H2 6103   2.760   4.546   4.494
 2033TIP3   OH2 6104   5.752   3.220   3.659
 2033TIP3    H1 6105   5.782   3.130   3.656
 2033TIP3    H2 6106   5.832   3.272   3.670
 2034TIP3   OH2 6107   4.602   0.096   4.217
 2034TIP3    H1 6108   4.668   0.101   4.287
 2034TIP3    H2 6109   4.596   0.002   4.198
 2035TIP3   OH2 6110   3.080   5.939   0.367
 2035TIP3    H1 6111   3.090   5.848   0.337
 2035TIP3    H2 6112   3.000   5.969   0.326
 2036TIP3   OH2 6113   0.132   4.806   1.463
 2036TIP3    H1 6114   0.146   4.712   1.450
 2036TIP3    H2 6115   0.220   4.842   1.470
 2037TIP3   OH2 6116   6.091   4.448   2.178
 2037TIP3    H1 6117   6.139   4.465   2.259
 2037TIP3    H2 6118   6.032   4.523   2.169
 2038TIP3   OH2 6119   0.558   0.974   1.996
 2038TIP3    H1 6120   0.569   1.038   1.925
 2038TIP3    H2 6121   0.465   0.978   2.017
 2039TIP3   OH2 6122   5.021   5.663   1.408
 2039TIP3    H1 6123   5.065   5.641   1.325
 2039TIP3    H2 6124   5.014   5.579   1.454
 2040TIP3   OH2 6125   5.761   2.026   3.715
 2040TIP3    H1 6126   5.668   2.042   3.734
 2040TIP3    H2 6127   5.795   2.112   3.691
 2041TIP3   OH2 6128   2.078   3.659   3.093
 2041TIP3    H1 6129   1.995   3.695   3.125
 2041TIP3    H2 6130   2.136   3.661   3.169
 2042TIP3   OH2 6131   5.861   5.122   0.437
 2042TIP3    H1 6132   5.861   5.147   0.530
 2042TIP3    H2 6133   5.908   5.192   0.393
 2043TIP3   OH2 6134   3.363   3.610   1.931
 2043TIP3    H1 6135   3.394   3.620   2.021
 2043TIP3    H2 6136   3.325   3.522   1.929
 2044TIP3   OH2 6137   3.242   1.604   2.576
 2044TIP3    H1 6138   3.176   1.655   2.529
 2044TIP3    H2 6139   3.300   1.570   2.507
 2045TIP3   OH2 6140   3.733   5.442   3.071
 2045TIP3    H1 6141   3.669   5.377   3.100
 2045TIP3    H2 6142   3.680   5.510   3.029
 2046TIP3   OH2 6143   1.190   1.752   0.594
 2046TIP3    H1 6144   1.185   1.712   0.508
 2046TIP3    H2 6145   1.264   1.812   0.589
 2047TIP3   OH2 6146   0.434   5.663   4.701
 2047TIP3    H1 6147   0.374   5.696   4.768
 2047TIP3    H2 6148   0.435   5.569   4.715
 2048TIP3   OH2 6149   0.434   4.795   1.528
 2048TIP3    H1 6150   0.439   4.769   1.620
 2048TIP3    H2 6151   0.484   4.877   1.524
 2049TIP3   OH2 6152   0.240   4.707   3.811
 2049TIP3    H1 6153   0.250   4.624   3.857
 2049TIP3    H2 6154   0.197   4.765   3.874
 2050TIP3   OH2 6155   6.065   1.495   0.894
 2050TIP3    H1 6156   5.973   1.477   0.872
 2050TIP3    H2 6157   6.062   1.529   0.984
 2051TIP3   OH2 6158   2.402   5.230   4.730
 2051TIP3    H1 6159   2.459   5.155   4.709
 2051TIP3    H2 6160   2.349   5.241   4.651
 2052TIP3   OH2 6161   1.514   3.772   3.614
 2052TIP3    H1 6162   1.542   3.844   3.558
 2052TIP3    H2 6163   1.595   3.740   3.655
 2053TIP3   OH2 6164   2.039   5.019   2.046
 2053TIP3    H1 6165   2.091   4.946   2.081
 2053TIP3    H2 6166   2.032   5.001   1.953
 2054TIP3   OH2 6167   0.814   2.069   2.157
 2054TIP3    H1 6168   0.833   1.981   2.189
 2054TIP3    H2 6169   0.899   2.112   2.152
 2055TIP3   OH2 6170   4.337   1.529   2.124
 2055TIP3    H1 6171   4.277   1.473   2.074
 2055TIP3    H2 6172   4.282   1.569   2.191
 2056TIP3   OH2 6173   1.970   5.687   3.935
 2056TIP3    H1 6174   1.886   5.660   3.972
 2056TIP3    H2 6175   1.980   5.778   3.962
 2057TIP3   OH2 6176   0.685   2.974   0.575
 2057TIP3    H1 6177   0.652   2.888   0.552
 2057TIP3    H2 6178   0.681   2.977   0.671
 2058TIP3   OH2 6179   5.342   3.524   3.033
 2058TIP3    H1 6180   5.303   3.595   2.981
 2058TIP3    H2 6181   5.336   3.555   3.124
 2059TIP3   OH2 6182   1.076   2.560   3.067
 2059TIP3    H1 6183   1.064   2.648   3.103
 2059TIP3    H2 6184   1.156   2.567   3.014
 2060TIP3   OH2 6185   2.475   2.410   3.466
 2060TIP3    H1 6186   2.566   2.438   3.457
 2060TIP3    H2 6187   2.445   2.452   3.546
 2061TIP3   OH2 6188   1.389   1.330   3.249
 2061TIP3    H1 6189   1.307   1.361   3.210
 2061TIP3    H2 6190   1.383   1.358   3.341
 2062TIP3   OH2 6191   3.281   5.438   3.236
 2062TIP3    H1 6192   3.224   5.489   3.179
 2062TIP3    H2 6193   3.364   5.485   3.237
 2063TIP3   OH2 6194   1.621   1.937   4.683
 2063TIP3    H1 6195   1.657   2.005   4.739
 2063TIP3    H2 6196   1.531   1.924   4.716
 2064TIP3   OH2 6197   2.765   0.541   2.928
 2064TIP3    H1 6198   2.731   0.456   2.956
 2064TIP3    H2 6199   2.807   0.577   3.006
 2065TIP3   OH2 6200   1.764   1.185   1.341
 2065TIP3    H1 6201   1.669   1.186   1.331
 2065TIP3    H2 6202   1.784   1.264   1.391
 2066TIP3   OH2 6203   4.887   2.896   0.583
 2066TIP3    H1 6204   4.948   2.837   0.626
 2066TIP3    H2 6205   4.823   2.918   0.650
 2067TIP3   OH2 6206   3.750   2.349   1.480
 2067TIP3    H1 6207   3.671   2.307   1.447
 2067TIP3    H2 6208   3.818   2.282   1.472
 2068TIP3   OH2 6209   5.691   2.986   0.052
 2068TIP3    H1 6210   5.609   3.001   0.006
 2068TIP3    H2 6211   5.757   2.986  -0.018
 2069TIP3   OH2 6212   3.580   0.558   3.330
 2069TIP3    H1 6213   3.627   0.490   3.282
 2069TIP3    H2 6214   3.488   0.546   3.306
 2070TIP3   OH2 6215   4.316   4.050   4.837
 2070TIP3    H1 6216   4.383   4.010   4.781
 2070TIP3    H2 6217   4.354   4.134   4.864
 2071TIP3   OH2 6218   5.974   2.494   4.608
 2071TIP3    H1 6219   5.944   2.404   4.599
 2071TIP3    H2 6220   5.921   2.544   4.546
 2072TIP3   OH2 6221   0.709   5.790   4.001
 2072TIP3    H1 6222   0.699   5.763   3.909
 2072TIP3    H2 6223   0.620   5.806   4.031
 2073TIP3   OH2 6224   1.876   2.893   1.176
 2073TIP3    H1 6225   1.801   2.924   1.126
 2073TIP3    H2 6226   1.839   2.831   1.239
 2074TIP3   OH2 6227   2.026   5.337   0.543
 2074TIP3    H1 6228   1.950   5.352   0.487
 2074TIP3    H2 6229   2.075   5.267   0.500
 2075TIP3   OH2 6230   1.779   2.222   4.783
 2075TIP3    H1 6231   1.786   2.315   4.761
 2075TIP3    H2 6232   1.815   2.216   4.872
 2076TIP3   OH2 6233   3.279   5.476   3.528
 2076TIP3    H1 6234   3.279   5.419   3.604
 2076TIP3    H2 6235   3.295   5.418   3.454
 2077TIP3   OH2 6236   3.713   2.275   2.706
 2077TIP3    H1 6237   3.674   2.350   2.751
 2077TIP3    H2 6238   3.641   2.239   2.653
 2078TIP3   OH2 6239   4.376   2.149   0.041
 2078TIP3    H1 6240   4.419   2.071   0.075
 2078TIP3    H2 6241   4.440   2.219   0.055
 2079TIP3   OH2 6242   4.454   2.113   5.067
 2079TIP3    H1 6243   4.501   2.139   4.988
 2079TIP3    H2 6244   4.521   2.070   5.121
 2080TIP3   OH2 6245   1.298   3.384   0.565
 2080TIP3    H1 6246   1.351   3.344   0.497
 2080TIP3    H2 6247   1.322   3.477   0.563
 2081TIP3   OH2 6248   2.500   3.445   0.512
 2081TIP3    H1 6249   2.431   3.503   0.481
 2081TIP3    H2 6250   2.580   3.498   0.509
 2082TIP3   OH2 6251   2.784   5.236   2.097
 2082TIP3    H1 6252   2.834   5.261   2.019
 2082TIP3    H2 6253   2.694   5.229   2.066
 2083TIP3   OH2 6254   2.691   0.056   4.267
 2083TIP3    H1 6255   2.622   0.121   4.262
 2083TIP3    H2 6256   2.679   0.014   4.352
 2084TIP3   OH2 6257   4.533   1.221   0.901
 2084TIP3    H1 6258   4.526   1.150   0.964
 2084TIP3    H2 6259   4.602   1.193   0.841
 2085TIP3   OH2 6260   4.513   2.147   0.919
 2085TIP3    H1 6261   4.449   2.084   0.951
 2085TIP3    H2 6262   4.475   2.232   0.940
 2086TIP3   OH2 6263   2.953   2.752   0.725
 2086TIP3    H1 6264   2.870   2.736   0.769
 2086TIP3    H2 6265   2.930   2.801   0.647
 2087TIP3   OH2 6266   0.533   5.034   3.365
 2087TIP3    H1 6267   0.542   5.057   3.272
 2087TIP3    H2 6268   0.480   4.954   3.365
 2088TIP3   OH2 6269   5.045   1.880   1.058
 2088TIP3    H1 6270   5.002   1.801   1.091
 2088TIP3    H2 6271   5.122   1.890   1.113
 2089TIP3   OH2 6272   0.576   2.935   1.108
 2089TIP3    H1 6273   0.631   2.938   1.186
 2089TIP3    H2 6274   0.550   2.843   1.101
 2090TIP3   OH2 6275   0.167   2.781   2.776
 2090TIP3    H1 6276   0.098   2.718   2.797
 2090TIP3    H2 6277   0.167   2.842   2.850
 2091TIP3   OH2 6278   3.644   2.894   2.242
 2091TIP3    H1 6279   3.679   2.809   2.215
 2091TIP3    H2 6280   3.597   2.927   2.165
 2092TIP3   OH2 6281   0.877   5.794   4.228
 2092TIP3    H1 6282   0.961   5.752   4.207
 2092TIP3    H2 6283   0.833   5.803   4.143
 2093TIP3   OH2 6284   0.761   5.864   2.222
 2093TIP3    H1 6285   0.683   5.863   2.278
 2093TIP3    H2 6286   0.735   5.913   2.145
 2094TIP3   OH2 6287   6.233   3.302   0.581
 2094TIP3    H1 6288   6.295   3.275   0.514
 2094TIP3    H2 6289   6.225   3.226   0.639
 2095TIP3   OH2 6290   1.625   3.657   0.755
 2095TIP3    H1 6291   1.566   3.729   0.733
 2095TIP3    H2 6292   1.635   3.609   0.673
 2096TIP3   OH2 6293   2.125   5.515   3.502
 2096TIP3    H1 6294   2.068   5.438   3.503
 2096TIP3    H2 6295   2.165   5.514   3.415
 2097TIP3   OH2 6296   0.996   5.669   3.057
 2097TIP3    H1 6297   1.053   5.667   2.981
 2097TIP3    H2 6298   1.051   5.702   3.128
 2098TIP3   OH2 6299   2.479   0.504   4.683
 2098TIP3    H1 6300   2.493   0.465   4.596
 2098TIP3    H2 6301   2.558   0.557   4.697
 2099TIP3   OH2 6302   3.015   3.295   4.860
 2099TIP3    H1 6303   3.013   3.390   4.876
 2099TIP3    H2 6304   3.073   3.285   4.784
 2100TIP3   OH2 6305   2.033   4.454   3.838
 2100TIP3    H1 6306   2.016   4.478   3.929
 2100TIP3    H2 6307   2.097   4.519   3.808
 2101TIP3   OH2 6308   3.115   1.575   0.171
 2101TIP3    H1 6309   3.059   1.498   0.175
 2101TIP3    H2 6310   3.129   1.590   0.077
 2102TIP3   OH2 6311   2.804   0.259   2.215
 2102TIP3    H1 6312   2.714   0.269   2.245
 2102TIP3    H2 6313   2.796   0.228   2.125
 2103TIP3   OH2 6314   3.691   3.790   4.784
 2103TIP3    H1 6315   3.756   3.724   4.758
 2103TIP3    H2 6316   3.680   3.845   4.707
 2104TIP3   OH2 6317   3.809   3.911   3.077
 2104TIP3    H1 6318   3.854   3.883   3.157
 2104TIP3    H2 6319   3.716   3.898   3.097
 2105TIP3   OH2 6320   4.458   3.021   0.848
 2105TIP3    H1 6321   4.501   2.996   0.930
 2105TIP3    H2 6322   4.429   3.111   0.863
 2106TIP3   OH2 6323   3.059   1.519   1.542
 2106TIP3    H1 6324   3.030   1.609   1.553
 2106TIP3    H2 6325   2.978   1.468   1.532
 2107TIP3   OH2 6326   3.700   3.146   1.973
 2107TIP3    H1 6327   3.704   3.237   2.004
 2107TIP3    H2 6328   3.792   3.120   1.966
 2108TIP3   OH2 6329   2.953   1.755   2.771
 2108TIP3    H1 6330   2.951   1.746   2.867
 2108TIP3    H2 6331   2.919   1.672   2.738
 2109TIP3   OH2 6332   1.648   2.272   3.803
 2109TIP3    H1 6333   1.576   2.323   3.840
 2109TIP3    H2 6334   1.702   2.337   3.757
 2110TIP3   OH2 6335   0.817   1.129   1.280
 2110TIP3    H1 6336   0.892   1.133   1.221
 2110TIP3    H2 6337   0.801   1.035   1.291
 2111TIP3   OH2 6338   1.854   4.379   4.263
 2111TIP3    H1 6339   1.938   4.363   4.221
 2111TIP3    H2 6340   1.876   4.394   4.355
 2112TIP3   OH2 6341   4.878   3.913   3.114
 2112TIP3    H1 6342   4.973   3.914   3.100
 2112TIP3    H2 6343   4.856   3.820   3.121
 2113TIP3   OH2 6344   2.826   2.058   3.195
 2113TIP3    H1 6345   2.801   2.025   3.108
 2113TIP3    H2 6346   2.754   2.031   3.252
 2114TIP3   OH2 6347   3.897   4.322   1.712
 2114TIP3    H1 6348   3.911   4.330   1.806
 2114TIP3    H2 6349   3.887   4.412   1.681
 2115TIP3   OH2 6350   5.845   1.324   5.054
 2115TIP3    H1 6351   5.769   1.326   5.113
 2115TIP3    H2 6352   5.887   1.240   5.071
 2116TIP3   OH2 6353   0.296   3.588   1.469
 2116TIP3    H1 6354   0.340   3.532   1.405
 2116TIP3    H2 6355   0.309   3.544   1.553
 2117TIP3   OH2 6356   0.407   3.972   2.012
 2117TIP3    H1 6357   0.493   4.013   2.018
 2117TIP3    H2 6358   0.421   3.896   1.955
 2118TIP3   OH2 6359   1.230   4.052   3.880
 2118TIP3    H1 6360   1.269   4.011   3.956
 2118TIP3    H2 6361   1.287   4.127   3.861
 2119TIP3   OH2 6362   1.191   0.139   3.306
 2119TIP3    H1 6363   1.286   0.146   3.304
 2119TIP3    H2 6364   1.171   0.060   3.256
 2120TIP3   OH2 6365   2.883   2.809   1.021
 2120TIP3    H1 6366   2.889   2.716   1.000
 2120TIP3    H2 6367   2.954   2.824   1.083
 2121TIP3   OH2 6368   2.160   4.768   0.634
 2121TIP3    H1 6369   2.075   4.811   0.629
 2121TIP3    H2 6370   2.220   4.828   0.589
 2122TIP3   OH2 6371   1.890   2.493   2.424
 2122TIP3    H1 6372   1.860   2.450   2.344
 2122TIP3    H2 6373   1.985   2.498   2.414
 2123TIP3   OH2 6374   4.973   4.886   2.274
 2123TIP3    H1 6375   4.899   4.944   2.292
 2123TIP3    H2 6376   4.987   4.839   2.357
 2124TIP3   OH2 6377   3.703   0.504   2.537
 2124TIP3    H1 6378   3.750   0.567   2.482
 2124TIP3    H2 6379   3.691   0.427   2.481
 2125TIP3   OH2 6380   1.514   5.726   0.588
 2125TIP3    H1 6381   1.594   5.778   0.585
 2125TIP3    H2 6382   1.471   5.754   0.669
 2126TIP3   OH2 6383   1.827   2.715   2.767
 2126TIP3    H1 6384   1.920   2.714   2.747
 2126TIP3    H2 6385   1.805   2.623   2.784
 2127TIP3   OH2 6386   2.187   1.382   1.274
 2127TIP3    H1 6387   2.108   1.345   1.234
 2127TIP3    H2 6388   2.203   1.327   1.351
 2128TIP3   OH2 6389   4.023   1.820   2.220
 2128TIP3    H1 6390   4.001   1.811   2.313
 2128TIP3    H2 6391   3.945   1.858   2.181
 2129TIP3   OH2 6392   4.400   0.674   3.057
 2129TIP3    H1 6393   4.408   0.607   3.125
 2129TIP3    H2 6394   4.491   0.696   3.035
 2130TIP3   OH2 6395   2.369   1.026   1.177
 2130TIP3    H1 6396   2.395   1.035   1.268
 2130TIP3    H2 6397   2.418   1.094   1.131
 2131TIP3   OH2 6398   2.298   3.804   1.541
 2131TIP3    H1 6399   2.256   3.879   1.585
 2131TIP3    H2 6400   2.322   3.746   1.613
 2132TIP3   OH2 6401   0.040   2.438   3.703
 2132TIP3    H1 6402   0.080   2.354   3.724
 2132TIP3    H2 6403   0.017   2.431   3.611
 2133TIP3   OH2 6404   1.273   2.714   5.100
 2133TIP3    H1 6405   1.350   2.706   5.156
 2133TIP3    H2 6406   1.210   2.763   5.152
 2134TIP3   OH2 6407   5.415   1.856   3.768
 2134TIP3    H1 6408   5.415   1.932   3.827
 2134TIP3    H2 6409   5.418   1.895   3.680
 2135TIP3   OH2 6410   2.214   0.512   4.737
 2135TIP3    H1 6411   2.202   0.458   4.815
 2135TIP3    H2 6412   2.308   0.531   4.735
 2136TIP3   OH2 6413   3.428   5.256   1.752
 2136TIP3    H1 6414   3.498   5.206   1.794
 2136TIP3    H2 6415   3.372   5.283   1.824
 2137TIP3   OH2 6416   0.221   0.642   3.653
 2137TIP3    H1 6417   0.249   0.551   3.659
 2137TIP3    H2 6418   0.301   0.691   3.630
 2138TIP3   OH2 6419   3.700   1.427   1.181
 2138TIP3    H1 6420   3.654   1.345   1.162
 2138TIP3    H2 6421   3.631   1.491   1.198
 2139TIP3   OH2 6422   2.093   4.941   3.611
 2139TIP3    H1 6423   2.004   4.969   3.589
 2139TIP3    H2 6424   2.147   5.019   3.601
 2140TIP3   OH2 6425   6.085   2.610   2.115
 2140TIP3    H1 6426   6.175   2.607   2.084
 2140TIP3    H2 6427   6.071   2.524   2.155
 2141TIP3   OH2 6428   1.371   3.274   4.469
 2141TIP3    H1 6429   1.300   3.270   4.404
 2141TIP3    H2 6430   1.419   3.353   4.445
 2142TIP3   OH2 6431   1.684   2.906   0.981
 2142TIP3    H1 6432   1.603   2.957   0.992
 2142TIP3    H2 6433   1.715   2.930   0.894
 2143TIP3   OH2 6434   1.558   3.140   2.210
 2143TIP3    H1 6435   1.563   3.051   2.175
 2143TIP3    H2 6436   1.561   3.128   2.305
 2144TIP3   OH2 6437   3.691   4.950   2.958
 2144TIP3    H1 6438   3.606   4.969   2.997
 2144TIP3    H2 6439   3.699   5.015   2.887
 2145TIP3   OH2 6440   5.341   0.682   0.639
 2145TIP3    H1 6441   5.357   0.591   0.664
 2145TIP3    H2 6442   5.394   0.695   0.560
 2146TIP3   OH2 6443   2.412   0.176   3.940
 2146TIP3    H1 6444   2.495   0.145   3.901
 2146TIP3    H2 6445   2.345   0.147   3.878
 2147TIP3   OH2 6446   3.591   4.364   0.263
 2147TIP3    H1 6447   3.635   4.449   0.265
 2147TIP3    H2 6448   3.533   4.364   0.339
 2148TIP3   OH2 6449   0.799   4.258   4.164
 2148TIP3    H1 6450   0.879   4.260   4.216
 2148TIP3    H2 6451   0.819   4.198   4.092
 2149TIP3   OH2 6452   4.928   1.731   3.848
 2149TIP3    H1 6453   4.899   1.648   3.810
 2149TIP3    H2 6454   5.024   1.722   3.852
 2150TIP3   OH2 6455   0.446   5.402   4.478
 2150TIP3    H1 6456   0.370   5.421   4.423
 2150TIP3    H2 6457   0.412   5.402   4.568
 2151TIP3   OH2 6458   3.734   3.130   4.173
 2151TIP3    H1 6459   3.823   3.097   4.158
 2151TIP3    H2 6460   3.736   3.166   4.262
 2152TIP3   OH2 6461   3.445   0.834   3.931
 2152TIP3    H1 6462   3.424   0.856   3.841
 2152TIP3    H2 6463   3.537   0.808   3.929
 2153TIP3   OH2 6464   4.909   3.960   2.159
 2153TIP3    H1 6465   4.817   3.954   2.184
 2153TIP3    H2 6466   4.931   3.872   2.126
 2154TIP3   OH2 6467   5.068   5.281   3.384
 2154TIP3    H1 6468   5.148   5.301   3.433
 2154TIP3    H2 6469   5.055   5.187   3.396
 2155TIP3   OH2 6470   5.697   5.472   0.306
 2155TIP3    H1 6471   5.777   5.495   0.259
 2155TIP3    H2 6472   5.628   5.477   0.240
 2156TIP3   OH2 6473   2.774   1.648   1.352
 2156TIP3    H1 6474   2.745   1.631   1.441
 2156TIP3    H2 6475   2.770   1.743   1.342
 2157TIP3   OH2 6476   2.482   5.753   3.059
 2157TIP3    H1 6477   2.496   5.793   2.973
 2157TIP3    H2 6478   2.432   5.818   3.108
 2158TIP3   OH2 6479   5.166   3.149   1.974
 2158TIP3    H1 6480   5.124   3.136   2.058
 2158TIP3    H2 6481   5.124   3.226   1.937
 2159TIP3   OH2 6482   0.399   0.585   0.758
 2159TIP3    H1 6483   0.462   0.629   0.816
 2159TIP3    H2 6484   0.433   0.599   0.670
 2160TIP3   OH2 6485   4.998   0.936   4.859
 2160TIP3    H1 6486   5.001   0.913   4.953
 2160TIP3    H2 6487   4.925   0.997   4.852
 2161TIP3   OH2 6488   2.080   2.210   3.698
 2161TIP3    H1 6489   2.026   2.133   3.680
 2161TIP3    H2 6490   2.028   2.284   3.665
 2162TIP3   OH2 6491   5.971   0.709   1.319
 2162TIP3    H1 6492   5.897   0.699   1.259
 2162TIP3    H2 6493   5.955   0.645   1.388
 2163TIP3   OH2 6494   4.475   5.199   4.253
 2163TIP3    H1 6495   4.434   5.283   4.231
 2163TIP3    H2 6496   4.550   5.223   4.308
 2164TIP3   OH2 6497   1.060   2.974   2.519
 2164TIP3    H1 6498   1.066   2.879   2.514
 2164TIP3    H2 6499   1.060   3.003   2.427
 2165TIP3   OH2 6500   4.506   4.414   1.089
 2165TIP3    H1 6501   4.483   4.321   1.095
 2165TIP3    H2 6502   4.423   4.457   1.068
 2166TIP3   OH2 6503   1.804   5.653   1.815
 2166TIP3    H1 6504   1.852   5.577   1.848
 2166TIP3    H2 6505   1.733   5.666   1.878
 2167TIP3   OH2 6506   5.559   5.176   0.694
 2167TIP3    H1 6507   5.620   5.244   0.667
 2167TIP3    H2 6508   5.497   5.170   0.621
 2168TIP3   OH2 6509   1.118   3.588   0.799
 2168TIP3    H1 6510   1.106   3.519   0.734
 2168TIP3    H2 6511   1.101   3.546   0.883
 2169TIP3   OH2 6512   3.865   2.300   4.137
 2169TIP3    H1 6513   3.790   2.251   4.170
 2169TIP3    H2 6514   3.839   2.330   4.050
 2170TIP3   OH2 6515   1.417   3.842   1.530
 2170TIP3    H1 6516   1.472   3.784   1.584
 2170TIP3    H2 6517   1.345   3.786   1.501
 2171TIP3   OH2 6518   4.265   3.076   0.529
 2171TIP3    H1 6519   4.312   2.994   0.546
 2171TIP3    H2 6520   4.189   3.050   0.477
 2172TIP3   OH2 6521   3.691   2.902   3.155
 2172TIP3    H1 6522   3.645   2.820   3.140
 2172TIP3    H2 6523   3.698   2.942   3.068
 2173TIP3   OH2 6524   0.041   2.144   3.481
 2173TIP3    H1 6525  -0.018   2.139   3.557
 2173TIP3    H2 6526   0.009   2.219   3.431
 2174TIP3   OH2 6527   5.276   3.422   0.508
 2174TIP3    H1 6528   5.316   3.358   0.567
 2174TIP3    H2 6529   5.198   3.378   0.473
 2175TIP3   OH2 6530   6.185   4.808   0.504
 2175TIP3    H1 6531   6.089   4.807   0.495
 2175TIP3    H2 6532   6.203   4.885   0.558
 2176TIP3   OH2 6533   5.717   4.325   1.460
 2176TIP3    H1 6534   5.697   4.263   1.390
 2176TIP3    H2 6535   5.812   4.323   1.467
 2177TIP3   OH2 6536   5.734   0.940   4.267
 2177TIP3    H1 6537   5.805   0.880   4.289
 2177TIP3    H2 6538   5.741   1.010   4.331
 2178TIP3   OH2 6539   4.664   5.743   4.755
 2178TIP3    H1 6540   4.692   5.764   4.844
 2178TIP3    H2 6541   4.627   5.655   4.761
 2179TIP3   OH2 6542   3.735   5.411   2.500
 2179TIP3    H1 6543   3.724   5.320   2.474
 2179TIP3    H2 6544   3.680   5.461   2.440
 2180TIP3   OH2 6545   4.060   0.400   0.793
 2180TIP3    H1 6546   4.142   0.380   0.837
 2180TIP3    H2 6547   4.043   0.492   0.813
 2181TIP3   OH2 6548   5.252   3.110   4.837
 2181TIP3    H1 6549   5.252   3.124   4.932
 2181TIP3    H2 6550   5.273   3.017   4.827
 2182TIP3   OH2 6551   5.170   0.676   3.971
 2182TIP3    H1 6552   5.190   0.753   3.918
 2182TIP3    H2 6553   5.231   0.609   3.940
 2183TIP3   OH2 6554   0.204   4.653   0.793
 2183TIP3    H1 6555   0.272   4.594   0.826
 2183TIP3    H2 6556   0.226   4.666   0.700
 2184TIP3   OH2 6557   3.974   4.532   1.926
 2184TIP3    H1 6558   3.923   4.610   1.903
 2184TIP3    H2 6559   3.948   4.512   2.016
 2185TIP3   OH2 6560   4.579   5.683   0.957
 2185TIP3    H1 6561   4.609   5.593   0.968
 2185TIP3    H2 6562   4.642   5.722   0.897
 2186TIP3   OH2 6563   4.723   2.408   1.918
 2186TIP3    H1 6564   4.631   2.436   1.916
 2186TIP3    H2 6565   4.727   2.344   1.990
 2187TIP3   OH2 6566   3.387   4.747   5.018
 2187TIP3    H1 6567   3.320   4.714   4.958
 2187TIP3    H2 6568   3.426   4.821   4.972
 2188TIP3   OH2 6569   1.099   3.129   0.514
 2188TIP3    H1 6570   1.179   3.078   0.499
 2188TIP3    H2 6571   1.073   3.160   0.428
 2189TIP3   OH2 6572   1.088   1.650   1.948
 2189TIP3    H1 6573   1.051   1.666   1.861
 2189TIP3    H2 6574   1.175   1.615   1.930
 2190TIP3   OH2 6575   3.894   4.378   2.966
 2190TIP3    H1 6576   3.801   4.358   2.952
 2190TIP3    H2 6577   3.931   4.296   2.999
 2191TIP3   OH2 6578   3.201   3.258   3.369
 2191TIP3    H1 6579   3.239   3.193   3.311
 2191TIP3    H2 6580   3.219   3.225   3.457
 2192TIP3   OH2 6581   2.307   2.054   1.105
 2192TIP3    H1 6582   2.333   2.104   1.183
 2192TIP3    H2 6583   2.389   2.037   1.059
 2193TIP3   OH2 6584   0.757   2.648   5.184
 2193TIP3    H1 6585   0.724   2.685   5.102
 2193TIP3    H2 6586   0.841   2.691   5.197
 2194TIP3   OH2 6587   2.101   0.066   3.507
 2194TIP3    H1 6588   2.096   0.160   3.522
 2194TIP3    H2 6589   2.178   0.056   3.450
 2195TIP3   OH2 6590   1.841   3.359   5.174
 2195TIP3    H1 6591   1.777   3.324   5.111
 2195TIP3    H2 6592   1.893   3.422   5.124
 2196TIP3   OH2 6593   5.437   1.149   1.496
 2196TIP3    H1 6594   5.414   1.148   1.403
 2196TIP3    H2 6595   5.360   1.112   1.540
 2197TIP3   OH2 6596   3.609   4.255   4.086
 2197TIP3    H1 6597   3.580   4.231   3.998
 2197TIP3    H2 6598   3.696   4.215   4.095
 2198TIP3   OH2 6599   0.047   0.307  -0.013
 2198TIP3    H1 6600   0.129   0.264   0.013
 2198TIP3    H2 6601   0.045   0.388   0.038
 2199TIP3   OH2 6602   3.929   1.211   2.765
 2199TIP3    H1 6603   3.893   1.294   2.795
 2199TIP3    H2 6604   3.918   1.152   2.840
 2200TIP3   OH2 6605   6.088   5.573   4.372
 2200TIP3    H1 6606   6.099   5.549   4.280
 2200TIP3    H2 6607   6.109   5.493   4.421
 2201TIP3   OH2 6608   3.575   3.347   2.709
 2201TIP3    H1 6609   3.607   3.437   2.716
 2201TIP3    H2 6610   3.541   3.327   2.796
 2202TIP3   OH2 6611   3.927   3.677   4.943
 2202TIP3    H1 6612   3.905   3.765   4.973
 2202TIP3    H2 6613   3.937   3.625   5.023
 2203TIP3   OH2 6614   1.482   3.585   2.381
 2203TIP3    H1 6615   1.503   3.499   2.418
 2203TIP3    H2 6616   1.567   3.626   2.367
 2204TIP3   OH2 6617   1.654   3.795   5.040
 2204TIP3    H1 6618   1.654   3.736   5.116
 2204TIP3    H2 6619   1.620   3.878   5.074
 2205TIP3   OH2 6620   0.619   5.005   3.085
 2205TIP3    H1 6621   0.697   5.059   3.074
 2205TIP3    H2 6622   0.652   4.918   3.105
 2206TIP3   OH2 6623   2.061   4.756   3.377
 2206TIP3    H1 6624   2.106   4.761   3.462
 2206TIP3    H2 6625   1.977   4.714   3.396
 2207TIP3   OH2 6626   3.079   5.843   1.181
 2207TIP3    H1 6627   3.144   5.829   1.250
 2207TIP3    H2 6628   3.063   5.756   1.145
 2208TIP3   OH2 6629   5.383   5.448   4.669
 2208TIP3    H1 6630   5.391   5.433   4.764
 2208TIP3    H2 6631   5.317   5.385   4.641
 2209TIP3   OH2 6632   1.471   5.809   2.737
 2209TIP3    H1 6633   1.443   5.719   2.722
 2209TIP3    H2 6634   1.498   5.811   2.829
 2210TIP3   OH2 6635   4.008   3.250   2.111
 2210TIP3    H1 6636   4.030   3.157   2.104
 2210TIP3    H2 6637   3.950   3.254   2.187
 2211TIP3   OH2 6638   3.925   2.761   1.746
 2211TIP3    H1 6639   3.915   2.734   1.655
 2211TIP3    H2 6640   3.961   2.685   1.791
 2212TIP3   OH2 6641   4.726   5.255   3.231
 2212TIP3    H1 6642   4.658   5.314   3.197
 2212TIP3    H2 6643   4.803   5.273   3.177
 2213TIP3   OH2 6644   5.963   3.989   0.855
 2213TIP3    H1 6645   5.960   4.031   0.769
 2213TIP3    H2 6646   5.871   3.978   0.880
 2214TIP3   OH2 6647   3.974   3.537   2.383
 2214TIP3    H1 6648   3.921   3.459   2.367
 2214TIP3    H2 6649   3.915   3.596   2.431
 2215TIP3   OH2 6650   0.429   2.247   1.421
 2215TIP3    H1 6651   0.352   2.297   1.448
 2215TIP3    H2 6652   0.499   2.311   1.415
 2216TIP3   OH2 6653   3.586   3.405   2.094
 2216TIP3    H1 6654   3.659   3.399   2.156
 2216TIP3    H2 6655   3.518   3.452   2.142
 2217TIP3   OH2 6656   3.422   3.612   2.213
 2217TIP3    H1 6657   3.370   3.662   2.276
 2217TIP3    H2 6658   3.503   3.592   2.259
 2218TIP3   OH2 6659   2.037   0.040   4.160
 2218TIP3    H1 6660   2.020  -0.029   4.096
 2218TIP3    H2 6661   2.068   0.114   4.108
 2219TIP3   OH2 6662   1.093   3.536   0.405
 2219TIP3    H1 6663   1.008   3.520   0.444
 2219TIP3    H2 6664   1.151   3.472   0.447
 2220TIP3   OH2 6665   3.469   2.280   4.499
 2220TIP3    H1 6666   3.427   2.234   4.572
 2220TIP3    H2 6667   3.557   2.300   4.532
 2221TIP3   OH2 6668   2.608   3.958   2.107
 2221TIP3    H1 6669   2.636   3.922   2.023
 2221TIP3    H2 6670   2.688   3.966   2.158
 2222TIP3   OH2 6671   0.829   2.745   0.901
 2222TIP3    H1 6672   0.763   2.678   0.885
 2222TIP3    H2 6673   0.854   2.776   0.814
 2223TIP3   OH2 6674   1.658   4.634   1.625
 2223TIP3    H1 6675   1.593   4.664   1.561
 2223TIP3    H2 6676   1.725   4.589   1.572
 2224TIP3   OH2 6677   4.190   3.773   3.951
 2224TIP3    H1 6678   4.250   3.766   3.877
 2224TIP3    H2 6679   4.221   3.709   4.015
 2225TIP3   OH2 6680   1.480   0.462   5.063
 2225TIP3    H1 6681   1.429   0.477   5.142
 2225TIP3    H2 6682   1.502   0.550   5.032
 2226TIP3   OH2 6683   2.459   1.754   4.096
 2226TIP3    H1 6684   2.472   1.681   4.036
 2226TIP3    H2 6685   2.365   1.759   4.110
 2227TIP3   OH2 6686   5.763   4.914   0.719
 2227TIP3    H1 6687   5.707   4.990   0.705
 2227TIP3    H2 6688   5.714   4.859   0.780
 2228TIP3   OH2 6689   2.138   4.439   1.719
 2228TIP3    H1 6690   2.162   4.530   1.739
 2228TIP3    H2 6691   2.206   4.409   1.658
 2229TIP3   OH2 6692   4.496   3.232   0.247
 2229TIP3    H1 6693   4.443   3.273   0.316
 2229TIP3    H2 6694   4.556   3.301   0.220
 2230TIP3   OH2 6695   3.234   4.284   2.911
 2230TIP3    H1 6696   3.237   4.379   2.914
 2230TIP3    H2 6697   3.171   4.260   2.979
 2231TIP3   OH2 6698   1.060   3.504   0.071
 2231TIP3    H1 6699   0.989   3.468   0.124
 2231TIP3    H2 6700   1.139   3.490   0.124
 2232TIP3   OH2 6701   5.711   5.869   4.827
 2232TIP3    H1 6702   5.711   5.953   4.782
 2232TIP3    H2 6703   5.736   5.889   4.917
 2233TIP3   OH2 6704   6.352   5.529   4.551
 2233TIP3    H1 6705   6.319   5.618   4.538
 2233TIP3    H2 6706   6.275   5.480   4.581
 2234TIP3   OH2 6707   5.885   4.300   3.657
 2234TIP3    H1 6708   5.910   4.257   3.576
 2234TIP3    H2 6709   5.960   4.355   3.680
 2235TIP3   OH2 6710   0.499   0.465   2.294
 2235TIP3    H1 6711   0.522   0.411   2.219
 2235TIP3    H2 6712   0.482   0.404   2.365
 2236TIP3   OH2 6713   5.377   0.033   2.275
 2236TIP3    H1 6714   5.472   0.038   2.290
 2236TIP3    H2 6715   5.340   0.096   2.337
 2237TIP3   OH2 6716   4.616   4.429   3.149
 2237TIP3    H1 6717   4.640   4.441   3.241
 2237TIP3    H2 6718   4.605   4.334   3.140
 2238TIP3   OH2 6719   0.924   2.626   1.197
 2238TIP3    H1 6720   0.870   2.595   1.124
 2238TIP3    H2 6721   1.008   2.581   1.185
 2239TIP3   OH2 6722   4.134   0.629   2.719
 2239TIP3    H1 6723   4.082   0.635   2.639
 2239TIP3    H2 6724   4.197   0.701   2.712
 2240TIP3   OH2 6725   6.000   4.378   5.111
 2240TIP3    H1 6726   5.989   4.350   5.202
 2240TIP3    H2 6727   5.941   4.321   5.061
 2241TIP3   OH2 6728   5.221   0.962   1.531
 2241TIP3    H1 6729   5.161   0.917   1.471
 2241TIP3    H2 6730   5.282   0.894   1.560
 2242TIP3   OH2 6731   5.256   3.209   1.172
 2242TIP3    H1 6732   5.217   3.160   1.100
 2242TIP3    H2 6733   5.181   3.241   1.223
 2243TIP3   OH2 6734   1.188   5.846   3.216
 2243TIP3    H1 6735   1.138   5.853   3.297
 2243TIP3    H2 6736   1.271   5.888   3.235
 2244TIP3   OH2 6737   0.229   4.109   3.645
 2244TIP3    H1 6738   0.304   4.128   3.700
 2244TIP3    H2 6739   0.182   4.040   3.692
 2245TIP3   OH2 6740   4.646   2.049   0.701
 2245TIP3    H1 6741   4.604   2.087   0.778
 2245TIP3    H2 6742   4.686   2.123   0.656
 2246TIP3   OH2 6743   4.353   5.284   3.305
 2246TIP3    H1 6744   4.276   5.305   3.253
 2246TIP3    H2 6745   4.426   5.294   3.244
 2247TIP3   OH2 6746   0.702   0.440   0.040
 2247TIP3    H1 6747   0.797   0.446   0.048
 2247TIP3    H2 6748   0.669   0.456   0.128
 2248TIP3   OH2 6749   4.045   3.446   2.763
 2248TIP3    H1 6750   3.967   3.446   2.818
 2248TIP3    H2 6751   4.038   3.527   2.712
 2249TIP3   OH2 6752   0.143   4.592   2.152
 2249TIP3    H1 6753   0.136   4.682   2.121
 2249TIP3    H2 6754   0.236   4.571   2.146
 2250TIP3   OH2 6755   0.736   0.690   0.530
 2250TIP3    H1 6756   0.775   0.686   0.618
 2250TIP3    H2 6757   0.647   0.722   0.544
 2251TIP3   OH2 6758   4.093   5.760   2.336
 2251TIP3    H1 6759   4.178   5.734   2.371
 2251TIP3    H2 6760   4.057   5.681   2.298
 2252TIP3   OH2 6761   5.729   3.738   1.456
 2252TIP3    H1 6762   5.825   3.739   1.464
 2252TIP3    H2 6763   5.707   3.646   1.441
 2253TIP3   OH2 6764   5.042   3.743   2.431
 2253TIP3    H1 6765   5.019   3.750   2.524
 2253TIP3    H2 6766   5.070   3.652   2.420
 2254TIP3   OH2 6767   4.542   0.114   0.471
 2254TIP3    H1 6768   4.546   0.175   0.545
 2254TIP3    H2 6769   4.513   0.168   0.398
 2255TIP3   OH2 6770   5.419   0.429   0.714
 2255TIP3    H1 6771   5.467   0.388   0.642
 2255TIP3    H2 6772   5.438   0.373   0.790
 2256TIP3   OH2 6773   6.330   3.848   3.187
 2256TIP3    H1 6774   6.320   3.866   3.280
 2256TIP3    H2 6775   6.252   3.799   3.163
 2257TIP3   OH2 6776   1.254   0.999   3.653
 2257TIP3    H1 6777   1.317   1.024   3.586
 2257TIP3    H2 6778   1.210   0.922   3.618
 2258TIP3   OH2 6779   5.972   5.168   0.954
 2258TIP3    H1 6780   5.979   5.124   1.039
 2258TIP3    H2 6781   5.912   5.241   0.969
 2259TIP3   OH2 6782   2.789   2.777   3.458
 2259TIP3    H1 6783   2.751   2.781   3.546
 2259TIP3    H2 6784   2.883   2.789   3.472
 2260TIP3   OH2 6785   2.934   4.394   3.573
 2260TIP3    H1 6786   2.907   4.355   3.656
 2260TIP3    H2 6787   2.866   4.459   3.553
 2261TIP3   OH2 6788   3.474   3.376   4.552
 2261TIP3    H1 6789   3.449   3.378   4.645
 2261TIP3    H2 6790   3.470   3.467   4.523
 2262TIP3   OH2 6791   5.091   5.508   3.659
 2262TIP3    H1 6792   5.148   5.438   3.628
 2262TIP3    H2 6793   5.128   5.534   3.743
 2263TIP3   OH2 6794   4.347   0.340   1.408
 2263TIP3    H1 6795   4.294   0.408   1.449
 2263TIP3    H2 6796   4.356   0.273   1.475
 2264TIP3   OH2 6797   5.723   0.642   3.864
 2264TIP3    H1 6798   5.795   0.657   3.927
 2264TIP3    H2 6799   5.750   0.691   3.786
 2265TIP3   OH2 6800   2.211   2.397   1.550
 2265TIP3    H1 6801   2.183   2.325   1.606
 2265TIP3    H2 6802   2.208   2.474   1.607
 2266TIP3   OH2 6803   1.118   2.361   0.912
 2266TIP3    H1 6804   1.157   2.422   0.850
 2266TIP3    H2 6805   1.152   2.276   0.887
 2267TIP3   OH2 6806   0.573   2.943   2.655
 2267TIP3    H1 6807   0.641   2.985   2.707
 2267TIP3    H2 6808   0.531   3.014   2.608
 2268TIP3   OH2 6809   1.877   4.599   4.044
 2268TIP3    H1 6810   1.893   4.564   4.132
 2268TIP3    H2 6811   1.894   4.693   4.051
 2269TIP3   OH2 6812   1.290   1.393   1.137
 2269TIP3    H1 6813   1.307   1.351   1.222
 2269TIP3    H2 6814   1.201   1.366   1.115
 2270TIP3   OH2 6815   4.180   2.584   2.974
 2270TIP3    H1 6816   4.190   2.608   2.882
 2270TIP3    H2 6817   4.249   2.519   2.989
 2271TIP3   OH2 6818   1.110   1.412   3.212
 2271TIP3    H1 6819   1.071   1.434   3.297
 2271TIP3    H2 6820   1.059   1.462   3.149
 2272TIP3   OH2 6821   0.666   4.008   0.606
 2272TIP3    H1 6822   0.693   3.918   0.626
 2272TIP3    H2 6823   0.585   4.020   0.656
 2273TIP3   OH2 6824   1.488   4.765   0.486
 2273TIP3    H1 6825   1.462   4.814   0.564
 2273TIP3    H2 6826   1.456   4.677   0.502
 2274TIP3   OH2 6827   6.081   0.180   4.916
 2274TIP3    H1 6828   6.115   0.269   4.907
 2274TIP3    H2 6829   6.082   0.145   4.827
 2275TIP3   OH2 6830   0.906   1.375   2.958
 2275TIP3    H1 6831   0.862   1.446   2.911
 2275TIP3    H2 6832   0.867   1.377   3.046
 2276TIP3   OH2 6833   1.562   4.774   2.530
 2276TIP3    H1 6834   1.614   4.711   2.480
 2276TIP3    H2 6835   1.471   4.753   2.509
 2277TIP3   OH2 6836   0.475   4.396   0.870
 2277TIP3    H1 6837   0.469   4.421   0.778
 2277TIP3    H2 6838   0.416   4.321   0.879
 2278TIP3   OH2 6839   0.887   0.138   3.610
 2278TIP3    H1 6840   0.851   0.159   3.524
 2278TIP3    H2 6841   0.892   0.043   3.612
 2279TIP3   OH2 6842   5.122   0.394   4.726
 2279TIP3    H1 6843   5.118   0.445   4.645
 2279TIP3    H2 6844   5.156   0.309   4.698
 2280TIP3   OH2 6845   0.840   2.170   3.663
 2280TIP3    H1 6846   0.902   2.229   3.706
 2280TIP3    H2 6847   0.774   2.227   3.625
 2281TIP3   OH2 6848   2.138   4.274   2.228
 2281TIP3    H1 6849   2.103   4.186   2.240
 2281TIP3    H2 6850   2.233   4.264   2.236
 2282TIP3   OH2 6851   1.701   3.876   2.585
 2282TIP3    H1 6852   1.794   3.854   2.588
 2282TIP3    H2 6853   1.668   3.833   2.506
 2283TIP3   OH2 6854   3.992   2.412   0.015
 2283TIP3    H1 6855   3.928   2.372  -0.044
 2283TIP3    H2 6856   4.060   2.345   0.026
 2284TIP3   OH2 6857   0.301   1.369   3.293
 2284TIP3    H1 6858   0.392   1.362   3.322
 2284TIP3    H2 6859   0.280   1.462   3.302
 2285TIP3   OH2 6860   2.348   4.439   2.609
 2285TIP3    H1 6861   2.266   4.389   2.614
 2285TIP3    H2 6862   2.350   4.473   2.520
 2286TIP3   OH2 6863   1.193   4.023   0.240
 2286TIP3    H1 6864   1.242   4.068   0.309
 2286TIP3    H2 6865   1.203   3.930   0.261
 2287TIP3   OH2 6866   1.739   3.825   1.989
 2287TIP3    H1 6867   1.647   3.849   1.993
 2287TIP3    H2 6868   1.773   3.873   1.913
 2288TIP3   OH2 6869   3.789   2.407   2.470
 2288TIP3    H1 6870   3.746   2.352   2.536
 2288TIP3    H2 6871   3.762   2.370   2.386
 2289TIP3   OH2 6872   1.606   5.078   2.988
 2289TIP3    H1 6873   1.653   5.011   3.038
 2289TIP3    H2 6874   1.621   5.055   2.897
 2290TIP3   OH2 6875   2.129   3.591   0.072
 2290TIP3    H1 6876   2.208   3.631   0.110
 2290TIP3    H2 6877   2.057   3.629   0.122
 2291TIP3   OH2 6878   3.764   1.206   3.296
 2291TIP3    H1 6879   3.849   1.201   3.339
 2291TIP3    H2 6880   3.784   1.224   3.204
 2292TIP3   OH2 6881   1.025   1.964   1.955
 2292TIP3    H1 6882   0.935   1.958   1.922
 2292TIP3    H2 6883   1.034   1.890   2.014
 2293TIP3   OH2 6884   3.236   0.455   2.990
 2293TIP3    H1 6885   3.164   0.509   2.959
 2293TIP3    H2 6886   3.313   0.491   2.947
 2294TIP3   OH2 6887   0.606   2.677   4.892
 2294TIP3    H1 6888   0.578   2.618   4.822
 2294TIP3    H2 6889   0.524   2.713   4.926
 2295TIP3   OH2 6890   5.482   0.671   4.038
 2295TIP3    H1 6891   5.474   0.743   4.101
 2295TIP3    H2 6892   5.553   0.697   3.981
 2296TIP3   OH2 6893   2.393   3.501   0.845
 2296TIP3    H1 6894   2.443   3.445   0.905
 2296TIP3    H2 6895   2.450   3.576   0.828
 2297TIP3   OH2 6896   4.588   3.564   5.007
 2297TIP3    H1 6897   4.674   3.523   4.995
 2297TIP3    H2 6898   4.550   3.565   4.919
 2298TIP3   OH2 6899   2.137   1.977   3.368
 2298TIP3    H1 6900   2.106   2.065   3.350
 2298TIP3    H2 6901   2.213   1.966   3.310
 2299TIP3   OH2 6902   6.108   1.843   0.754
 2299TIP3    H1 6903   6.067   1.862   0.839
 2299TIP3    H2 6904   6.054   1.773   0.718
 2300TIP3   OH2 6905   5.706   2.890   1.928
 2300TIP3    H1 6906   5.700   2.799   1.901
 2300TIP3    H2 6907   5.639   2.935   1.877
 2301TIP3   OH2 6908   3.257   3.431   3.691
 2301TIP3    H1 6909   3.342   3.437   3.648
 2301TIP3    H2 6910   3.277   3.430   3.785
 2302TIP3   OH2 6911   5.258   2.646   1.350
 2302TIP3    H1 6912   5.199   2.571   1.359
 2302TIP3    H2 6913   5.211   2.718   1.391
 2303TIP3   OH2 6914   5.791   4.451   1.993
 2303TIP3    H1 6915   5.754   4.442   2.080
 2303TIP3    H2 6916   5.728   4.408   1.935
 2304TIP3   OH2 6917   1.523   1.632   2.879
 2304TIP3    H1 6918   1.516   1.594   2.967
 2304TIP3    H2 6919   1.440   1.678   2.866
 2305TIP3   OH2 6920   6.118   5.340   3.290
 2305TIP3    H1 6921   6.090   5.277   3.357
 2305TIP3    H2 6922   6.036   5.376   3.256
 2306TIP3   OH2 6923   4.081   1.867   5.158
 2306TIP3    H1 6924   4.124   1.862   5.073
 2306TIP3    H2 6925   4.015   1.935   5.147
 2307TIP3   OH2 6926   1.176   3.093   1.951
 2307TIP3    H1 6927   1.259   3.127   1.985
 2307TIP3    H2 6928   1.162   3.141   1.869
 2308TIP3   OH2 6929   3.652   0.447   1.163
 2308TIP3    H1 6930   3.557   0.450   1.149
 2308TIP3    H2 6931   3.662   0.439   1.258
 2309TIP3   OH2 6932   1.405   5.657   1.194
 2309TIP3    H1 6933   1.468   5.729   1.196
 2309TIP3    H2 6934   1.379   5.651   1.102
 2310TIP3   OH2 6935   1.812   2.557   0.374
 2310TIP3    H1 6936   1.871   2.627   0.404
 2310TIP3    H2 6937   1.838   2.480   0.425
 2311TIP3   OH2 6938   0.445   1.021   3.152
 2311TIP3    H1 6939   0.494   1.067   3.220
 2311TIP3    H2 6940   0.493   1.039   3.071
 2312TIP3   OH2 6941   4.216   5.706   3.183
 2312TIP3    H1 6942   4.166   5.629   3.157
 2312TIP3    H2 6943   4.307   5.675   3.185
 2313TIP3   OH2 6944   5.854   2.300   4.918
 2313TIP3    H1 6945   5.918   2.367   4.944
 2313TIP3    H2 6946   5.796   2.345   4.856
 2314TIP3   OH2 6947   2.500   1.385   0.317
 2314TIP3    H1 6948   2.469   1.474   0.300
 2314TIP3    H2 6949   2.583   1.397   0.364
 2315TIP3   OH2 6950   3.003   3.374   2.941
 2315TIP3    H1 6951   3.045   3.447   2.895
 2315TIP3    H2 6952   3.033   3.381   3.031
 2316TIP3   OH2 6953   4.275   4.874   4.164
 2316TIP3    H1 6954   4.341   4.913   4.106
 2316TIP3    H2 6955   4.293   4.912   4.250
 2317TIP3   OH2 6956   1.856   1.271   0.121
 2317TIP3    H1 6957   1.835   1.325   0.045
 2317TIP3    H2 6958   1.890   1.334   0.186
 2318TIP3   OH2 6959   4.329   5.678   4.588
 2318TIP3    H1 6960   4.321   5.663   4.683
 2318TIP3    H2 6961   4.386   5.607   4.558
 2319TIP3   OH2 6962   5.868   3.784   2.832
 2319TIP3    H1 6963   5.932   3.777   2.760
 2319TIP3    H2 6964   5.805   3.849   2.801
 2320TIP3   OH2 6965   0.492   0.131   5.002
 2320TIP3    H1 6966   0.397   0.134   5.000
 2320TIP3    H2 6967   0.513   0.038   4.995
 2321TIP3   OH2 6968   2.690   5.772   3.390
 2321TIP3    H1 6969   2.658   5.796   3.477
 2321TIP3    H2 6970   2.701   5.677   3.394
 2322TIP3   OH2 6971   0.334   1.640   3.778
 2322TIP3    H1 6972   0.372   1.660   3.864
 2322TIP3    H2 6973   0.255   1.589   3.798
 2323TIP3   OH2 6974   4.743   5.060   2.190
 2323TIP3    H1 6975   4.734   5.012   2.273
 2323TIP3    H2 6976   4.669   5.120   2.189
 2324TIP3   OH2 6977   0.892   1.835   1.320
 2324TIP3    H1 6978   0.902   1.755   1.372
 2324TIP3    H2 6979   0.936   1.903   1.370
 2325TIP3   OH2 6980   2.312   2.438   3.223
 2325TIP3    H1 6981   2.341   2.360   3.176
 2325TIP3    H2 6982   2.362   2.437   3.304
 2326TIP3   OH2 6983   4.865   0.491   4.829
 2326TIP3    H1 6984   4.894   0.525   4.914
 2326TIP3    H2 6985   4.941   0.444   4.795
 2327TIP3   OH2 6986   0.832   1.761   2.765
 2327TIP3    H1 6987   0.806   1.805   2.684
 2327TIP3    H2 6988   0.768   1.691   2.775
 2328TIP3   OH2 6989   0.591   0.412   3.434
 2328TIP3    H1 6990   0.648   0.337   3.418
 2328TIP3    H2 6991   0.643   0.488   3.406
 2329TIP3   OH2 6992   5.633   4.775   3.284
 2329TIP3    H1 6993   5.572   4.815   3.345
 2329TIP3    H2 6994   5.579   4.721   3.227
 2330TIP3   OH2 6995   4.757   1.268   4.577
 2330TIP3    H1 6996   4.852   1.258   4.575
 2330TIP3    H2 6997   4.726   1.225   4.497
 2331TIP3   OH2 6998   3.418   2.871   4.335
 2331TIP3    H1 6999   3.354   2.818   4.383
 2331TIP3    H2 7000   3.442   2.941   4.395
 2332TIP3   OH2 7001   1.984   2.889   3.681
 2332TIP3    H1 7002   2.007   2.809   3.727
 2332TIP3    H2 7003   2.051   2.899   3.614
 2333TIP3   OH2 7004   4.677   1.251   3.548
 2333TIP3    H1 7005   4.725   1.278   3.469
 2333TIP3    H2 7006   4.739   1.195   3.596
 2334TIP3   OH2 7007   4.911   4.162   2.379
 2334TIP3    H1 7008   4.919   4.088   2.318
 2334TIP3    H2 7009   4.857   4.129   2.450
 2335TIP3   OH2 7010   2.316   5.312   1.287
 2335TIP3    H1 7011   2.220   5.310   1.283
 2335TIP3    H2 7012   2.343   5.353   1.205
 2336TIP3   OH2 7013   5.863   4.872   1.486
 2336TIP3    H1 7014   5.951   4.883   1.450
 2336TIP3    H2 7015   5.862   4.784   1.523
 2337TIP3   OH2 7016   2.159   1.943   4.406
 2337TIP3    H1 7017   2.211   2.010   4.451
 2337TIP3    H2 7018   2.069   1.974   4.412
 2338TIP3   OH2 7019   1.182   3.023   3.974
 2338TIP3    H1 7020   1.162   2.988   3.888
 2338TIP3    H2 7021   1.275   3.048   3.969
 2339TIP3   OH2 7022   4.329   3.326   0.430
 2339TIP3    H1 7023   4.304   3.240   0.463
 2339TIP3    H2 7024   4.253   3.355   0.380
 2340TIP3   OH2 7025   3.060   1.369   1.075
 2340TIP3    H1 7026   3.062   1.383   0.980
 2340TIP3    H2 7027   2.975   1.328   1.091
 2341TIP3   OH2 7028   1.059   4.242   1.769
 2341TIP3    H1 7029   1.035   4.209   1.855
 2341TIP3    H2 7030   1.154   4.238   1.767
 2342TIP3   OH2 7031   0.413   1.874   1.719
 2342TIP3    H1 7032   0.357   1.926   1.662
 2342TIP3    H2 7033   0.478   1.836   1.661
 2343TIP3   OH2 7034   2.433   2.896   2.372
 2343TIP3    H1 7035   2.426   2.956   2.447
 2343TIP3    H2 7036   2.365   2.830   2.387
 2344TIP3   OH2 7037   0.765   5.677   1.449
 2344TIP3    H1 7038   0.723   5.603   1.406
 2344TIP3    H2 7039   0.858   5.654   1.453
 2345TIP3   OH2 7040   5.282   4.812   1.223
 2345TIP3    H1 7041   5.284   4.838   1.315
 2345TIP3    H2 7042   5.351   4.747   1.215
 2346TIP3   OH2 7043   4.128   1.413   0.547
 2346TIP3    H1 7044   4.055   1.382   0.601
 2346TIP3    H2 7045   4.170   1.333   0.515
 2347TIP3   OH2 7046   0.734   4.859   3.787
 2347TIP3    H1 7047   0.712   4.852   3.879
 2347TIP3    H2 7048   0.804   4.795   3.774
 2348TIP3   OH2 7049   3.293   5.341   0.783
 2348TIP3    H1 7050   3.356   5.273   0.757
 2348TIP3    H2 7051   3.274   5.388   0.702
 2349TIP3   OH2 7052   4.247   3.579   2.476
 2349TIP3    H1 7053   4.177   3.548   2.418
 2349TIP3    H2 7054   4.202   3.636   2.539
 2350TIP3   OH2 7055   4.144   4.812   2.681
 2350TIP3    H1 7056   4.093   4.771   2.611
 2350TIP3    H2 7057   4.090   4.886   2.709
 2351TIP3   OH2 7058   3.275   5.721   1.760
 2351TIP3    H1 7059   3.186   5.704   1.792
 2351TIP3    H2 7060   3.303   5.639   1.721
 2352TIP3   OH2 7061   3.828   0.459   1.897
 2352TIP3    H1 7062   3.863   0.382   1.853
 2352TIP3    H2 7063   3.905   0.516   1.909
 2353TIP3   OH2 7064   1.973   4.068   3.998
 2353TIP3    H1 7065   1.911   4.111   4.058
 2353TIP3    H2 7066   1.956   4.108   3.913
 2354TIP3   OH2 7067   1.146   5.071   0.524
 2354TIP3    H1 7068   1.067   5.101   0.569
 2354TIP3    H2 7069   1.118   5.057   0.433
 2355TIP3   OH2 7070   1.480   1.515   0.234
 2355TIP3    H1 7071   1.485   1.446   0.169
 2355TIP3    H2 7072   1.548   1.578   0.208
 2356TIP3   OH2 7073   3.210   5.639   0.525
 2356TIP3    H1 7074   3.281   5.618   0.464
 2356TIP3    H2 7075   3.149   5.566   0.517
 2357TIP3   OH2 7076   1.999   4.190   3.759
 2357TIP3    H1 7077   2.021   4.278   3.790
 2357TIP3    H2 7078   2.016   4.191   3.665
 2358TIP3   OH2 7079   4.372   4.260   1.383
 2358TIP3    H1 7080   4.358   4.353   1.365
 2358TIP3    H2 7081   4.383   4.220   1.296
 2359TIP3   OH2 7082   0.578   1.073   2.300
 2359TIP3    H1 7083   0.559   1.006   2.235
 2359TIP3    H2 7084   0.654   1.040   2.348
 2360TIP3   OH2 7085   4.583   3.822   3.570
 2360TIP3    H1 7086   4.579   3.799   3.478
 2360TIP3    H2 7087   4.628   3.906   3.572
 2361TIP3   OH2 7088   1.640   3.501   1.470
 2361TIP3    H1 7089   1.715   3.452   1.502
 2361TIP3    H2 7090   1.643   3.584   1.518
 2362TIP3   OH2 7091   2.008   2.029   2.330
 2362TIP3    H1 7092   2.033   1.937   2.325
 2362TIP3    H2 7093   1.942   2.040   2.261
 2363TIP3   OH2 7094   1.650   3.152   1.782
 2363TIP3    H1 7095   1.581   3.132   1.718
 2363TIP3    H2 7096   1.677   3.241   1.761
 2364TIP3   OH2 7097   4.776   1.732   2.173
 2364TIP3    H1 7098   4.842   1.730   2.104
 2364TIP3    H2 7099   4.695   1.707   2.129
 2365TIP3   OH2 7100   0.162   3.594   3.199
 2365TIP3    H1 7101   0.205   3.619   3.280
 2365TIP3    H2 7102   0.217   3.524   3.162
 2366TIP3   OH2 7103   5.824   3.815   1.766
 2366TIP3    H1 7104   5.789   3.887   1.713
 2366TIP3    H2 7105   5.832   3.742   1.705
 2367TIP3   OH2 7106   5.956   2.223   3.878
 2367TIP3    H1 7107   5.873   2.262   3.849
 2367TIP3    H2 7108   5.996   2.290   3.933
 2368TIP3   OH2 7109   2.734   0.037   2.966
 2368TIP3    H1 7110   2.791  -0.031   3.003
 2368TIP3    H2 7111   2.780   0.066   2.887
 2369TIP3   OH2 7112   0.223   3.626   2.192
 2369TIP3    H1 7113   0.302   3.648   2.143
 2369TIP3    H2 7114   0.250   3.629   2.284
 2370TIP3   OH2 7115   2.517   2.709   1.829
 2370TIP3    H1 7116   2.580   2.656   1.782
 2370TIP3    H2 7117   2.454   2.646   1.864
 2371TIP3   OH2 7118   4.037   0.516   1.645
 2371TIP3    H1 7119   4.019   0.610   1.642
 2371TIP3    H2 7120   4.065   0.500   1.735
 2372TIP3   OH2 7121   2.799   3.230   5.033
 2372TIP3    H1 7122   2.876   3.244   4.978
 2372TIP3    H2 7123   2.811   3.289   5.107
 2373TIP3   OH2 7124   6.095   0.993   2.726
 2373TIP3    H1 7125   6.089   0.910   2.678
 2373TIP3    H2 7126   6.178   0.988   2.773
 2374TIP3   OH2 7127   0.923   4.453   1.703
 2374TIP3    H1 7128   0.835   4.416   1.716
 2374TIP3    H2 7129   0.981   4.390   1.745
 2375TIP3   OH2 7130   3.603   2.676   4.326
 2375TIP3    H1 7131   3.548   2.754   4.331
 2375TIP3    H2 7132   3.607   2.644   4.417
 2376TIP3   OH2 7133   1.609   3.674   3.992
 2376TIP3    H1 7134   1.617   3.739   3.922
 2376TIP3    H2 7135   1.632   3.722   4.071
 2377TIP3   OH2 7136   0.752   5.016   2.683
 2377TIP3    H1 7137   0.814   4.952   2.718
 2377TIP3    H2 7138   0.806   5.073   2.628
 2378TIP3   OH2 7139   5.120   0.347   1.697
 2378TIP3    H1 7140   5.166   0.268   1.669
 2378TIP3    H2 7141   5.081   0.324   1.781
 2379TIP3   OH2 7142   3.775   2.634   0.346
 2379TIP3    H1 7143   3.712   2.565   0.328
 2379TIP3    H2 7144   3.794   2.625   0.440
 2380TIP3   OH2 7145   3.344   3.331   2.559
 2380TIP3    H1 7146   3.285   3.404   2.576
 2380TIP3    H2 7147   3.426   3.356   2.599
 2381TIP3   OH2 7148   3.139   5.255   4.177
 2381TIP3    H1 7149   3.104   5.318   4.114
 2381TIP3    H2 7150   3.135   5.171   4.132
 2382TIP3   OH2 7151   0.022   2.891   2.084
 2382TIP3    H1 7152   0.109   2.859   2.106
 2382TIP3    H2 7153   0.036   2.983   2.061
 2383TIP3   OH2 7154   2.598   2.688   1.035
 2383TIP3    H1 7155   2.670   2.674   1.097
 2383TIP3    H2 7156   2.533   2.737   1.085
 2384TIP3   OH2 7157   2.374   2.142   4.415
 2384TIP3    H1 7158   2.443   2.124   4.351
 2384TIP3    H2 7159   2.416   2.197   4.481
 2385TIP3   OH2 7160   1.023   5.091   3.812
 2385TIP3    H1 7161   0.931   5.091   3.786
 2385TIP3    H2 7162   1.031   5.165   3.873
 2386TIP3   OH2 7163   5.338   1.725   1.071
 2386TIP3    H1 7164   5.406   1.669   1.107
 2386TIP3    H2 7165   5.278   1.666   1.026
 2387TIP3   OH2 7166   4.117   0.917   0.625
 2387TIP3    H1 7167   4.143   0.890   0.537
 2387TIP3    H2 7168   4.173   0.991   0.646
 2388TIP3   OH2 7169   4.899   2.373   4.563
 2388TIP3    H1 7170   4.907   2.394   4.470
 2388TIP3    H2 7171   4.969   2.310   4.579
 2389TIP3   OH2 7172   4.689   0.445   4.540
 2389TIP3    H1 7173   4.612   0.390   4.547
 2389TIP3    H2 7174   4.753   0.404   4.598
 2390TIP3   OH2 7175   0.669   0.024   2.286
 2390TIP3    H1 7176   0.713  -0.051   2.246
 2390TIP3    H2 7177   0.721   0.044   2.363
 2391TIP3   OH2 7178   2.992   1.483   2.648
 2391TIP3    H1 7179   2.995   1.406   2.706
 2391TIP3    H2 7180   3.068   1.535   2.672
 2392TIP3   OH2 7181   0.761   0.978   2.989
 2392TIP3    H1 7182   0.777   1.022   2.906
 2392TIP3    H2 7183   0.808   0.895   2.982
 2393TIP3   OH2 7184   1.502   0.115   0.458
 2393TIP3    H1 7185   1.582   0.079   0.497
 2393TIP3    H2 7186   1.484   0.194   0.509
 2394TIP3   OH2 7187   2.797   4.513   1.109
 2394TIP3    H1 7188   2.828   4.451   1.175
 2394TIP3    H2 7189   2.746   4.461   1.048
 2395TIP3   OH2 7190   2.129   1.651   2.888
 2395TIP3    H1 7191   2.149   1.624   2.977
 2395TIP3    H2 7192   2.071   1.727   2.899
 2396TIP3   OH2 7193   1.842   3.301   2.584
 2396TIP3    H1 7194   1.937   3.297   2.573
 2396TIP3    H2 7195   1.827   3.278   2.676
 2397TIP3   OH2 7196   6.251   5.535   0.157
 2397TIP3    H1 7197   6.303   5.461   0.189
 2397TIP3    H2 7198   6.310   5.583   0.099
 2398TIP3   OH2 7199   0.710   4.328   1.014
 2398TIP3    H1 7200   0.637   4.358   0.960
 2398TIP3    H2 7201   0.672   4.314   1.101
 2399TIP3   OH2 7202   5.873   3.071   1.369
 2399TIP3    H1 7203   5.819   3.135   1.322
 2399TIP3    H2 7204   5.959   3.112   1.375
 2400TIP3   OH2 7205   2.076   3.321   4.884
 2400TIP3    H1 7206   2.049   3.232   4.863
 2400TIP3    H2 7207   2.098   3.318   4.977
 2401TIP3   OH2 7208   5.291   5.882   1.051
 2401TIP3    H1 7209   5.385   5.890   1.037
 2401TIP3    H2 7210   5.266   5.964   1.093
 2402TIP3   OH2 7211   1.351   1.352   1.426
 2402TIP3    H1 7212   1.412   1.293   1.382
 2402TIP3    H2 7213   1.398   1.382   1.504
 2403TIP3   OH2 7214   3.572   2.243   1.079
 2403TIP3    H1 7215   3.493   2.219   1.032
 2403TIP3    H2 7216   3.565   2.338   1.092
 2404TIP3   OH2 7217   0.846   0.286   2.025
 2404TIP3    H1 7218   0.876   0.218   1.965
 2404TIP3    H2 7219   0.836   0.364   1.970
 2405TIP3   OH2 7220   0.411   3.087   2.858
 2405TIP3    H1 7221   0.326   3.047   2.877
 2405TIP3    H2 7222   0.415   3.090   2.762
 2406TIP3   OH2 7223   2.964   5.390   2.555
 2406TIP3    H1 7224   3.029   5.430   2.498
 2406TIP3    H2 7225   2.893   5.363   2.496
 2407TIP3   OH2 7226   2.130   5.884   4.238
 2407TIP3    H1 7227   2.158   5.922   4.155
 2407TIP3    H2 7228   2.074   5.951   4.278
 2408TIP3   OH2 7229   5.357   0.260   0.936
 2408TIP3    H1 7230   5.264   0.277   0.953
 2408TIP3    H2 7231   5.362   0.164   0.928
 2409TIP3   OH2 7232   2.729   1.077   2.279
 2409TIP3    H1 7233   2.725   1.011   2.210
 2409TIP3    H2 7234   2.815   1.117   2.268
 2410TIP3   OH2 7235   2.928   1.766   1.012
 2410TIP3    H1 7236   2.875   1.806   1.081
 2410TIP3    H2 7237   2.891   1.679   1.000
 2411TIP3   OH2 7238   6.259   0.324   1.220
 2411TIP3    H1 7239   6.208   0.377   1.282
 2411TIP3    H2 7240   6.240   0.234   1.245
 2412TIP3   OH2 7241   1.421   3.214   1.263
 2412TIP3    H1 7242   1.507   3.222   1.223
 2412TIP3    H2 7243   1.428   3.138   1.321
 2413TIP3   OH2 7244   6.227   4.166   4.985
 2413TIP3    H1 7245   6.166   4.177   5.058
 2413TIP3    H2 7246   6.239   4.071   4.979
 2414TIP3   OH2 7247   5.206   3.955   4.982
 2414TIP3    H1 7248   5.125   3.906   4.971
 2414TIP3    H2 7249   5.200   3.992   5.070
 2415TIP3   OH2 7250   4.238   4.013   2.609
 2415TIP3    H1 7251   4.332   4.024   2.621
 2415TIP3    H2 7252   4.221   4.047   2.521
 2416TIP3   OH2 7253   0.169   3.997   0.215
 2416TIP3    H1 7254   0.152   3.920   0.161
 2416TIP3    H2 7255   0.250   3.975   0.263
 2417TIP3   OH2 7256   3.007   3.573   4.890
 2417TIP3    H1 7257   2.997   3.607   4.801
 2417TIP3    H2 7258   2.922   3.589   4.931
 2418TIP3   OH2 7259   1.693   5.073   4.589
 2418TIP3    H1 7260   1.660   5.032   4.510
 2418TIP3    H2 7261   1.697   5.002   4.653
 2419TIP3   OH2 7262   2.209   5.035   2.912
 2419TIP3    H1 7263   2.240   5.110   2.861
 2419TIP3    H2 7264   2.279   5.018   2.975
 2420TIP3   OH2 7265   3.204   0.262   4.455
 2420TIP3    H1 7266   3.175   0.327   4.391
 2420TIP3    H2 7267   3.132   0.199   4.459
 2421TIP3   OH2 7268   1.372   2.557   1.230
 2421TIP3    H1 7269   1.396   2.549   1.322
 2421TIP3    H2 7270   1.445   2.517   1.183
 2422TIP3   OH2 7271   5.742   4.845   1.789
 2422TIP3    H1 7272   5.811   4.911   1.784
 2422TIP3    H2 7273   5.787   4.763   1.808
 2423TIP3   OH2 7274   1.655   5.550   3.363
 2423TIP3    H1 7275   1.584   5.552   3.299
 2423TIP3    H2 7276   1.631   5.616   3.428
 2424TIP3   OH2 7277   5.276   3.549   4.212
 2424TIP3    H1 7278   5.181   3.553   4.226
 2424TIP3    H2 7279   5.291   3.460   4.180
 2425TIP3   OH2 7280   1.623   0.844   3.941
 2425TIP3    H1 7281   1.716   0.857   3.921
 2425TIP3    H2 7282   1.585   0.932   3.932
 2426TIP3   OH2 7283   6.240   0.709   2.091
 2426TIP3    H1 7284   6.311   0.770   2.112
 2426TIP3    H2 7285   6.209   0.678   2.175
 2427TIP3   OH2 7286   3.307   3.504   4.983
 2427TIP3    H1 7287   3.321   3.595   5.006
 2427TIP3    H2 7288   3.213   3.490   4.991
 2428TIP3   OH2 7289   0.394   5.498   2.317
 2428TIP3    H1 7290   0.329   5.512   2.249
 2428TIP3    H2 7291   0.443   5.421   2.289
 2429TIP3   OH2 7292   4.118   1.026   3.798
 2429TIP3    H1 7293   4.032   1.000   3.763
 2429TIP3    H2 7294   4.167   0.944   3.803
 2430TIP3   OH2 7295   4.188   3.708   0.621
 2430TIP3    H1 7296   4.205   3.634   0.679
 2430TIP3    H2 7297   4.181   3.669   0.534
 2431TIP3   OH2 7298   3.905   1.883   4.854
 2431TIP3    H1 7299   3.993   1.919   4.839
 2431TIP3    H2 7300   3.920   1.792   4.880
 2432TIP3   OH2 7301   3.756   3.739   2.272
 2432TIP3    H1 7302   3.807   3.795   2.330
 2432TIP3    H2 7303   3.676   3.790   2.254
 2433TIP3   OH2 7304   0.239   1.546   0.495
 2433TIP3    H1 7305   0.230   1.571   0.586
 2433TIP3    H2 7306   0.240   1.628   0.447
 2434TIP3   OH2 7307   3.472   2.506   2.696
 2434TIP3    H1 7308   3.399   2.452   2.725
 2434TIP3    H2 7309   3.439   2.552   2.619
 2435TIP3   OH2 7310   4.874   3.220   2.058
 2435TIP3    H1 7311   4.800   3.251   2.109
 2435TIP3    H2 7312   4.916   3.154   2.113
 2436TIP3   OH2 7313   3.638   5.019   3.662
 2436TIP3    H1 7314   3.700   5.071   3.713
 2436TIP3    H2 7315   3.563   5.076   3.650
 2437TIP3   OH2 7316   0.011   5.348   3.774
 2437TIP3    H1 7317   0.049   5.371   3.690
 2437TIP3    H2 7318  -0.033   5.264   3.758
 2438TIP3   OH2 7319   3.266   1.736   3.978
 2438TIP3    H1 7320   3.218   1.806   3.933
 2438TIP3    H2 7321   3.234   1.739   4.068
 2439TIP3   OH2 7322   2.392   3.145   3.855
 2439TIP3    H1 7323   2.354   3.073   3.805
 2439TIP3    H2 7324   2.322   3.171   3.915
 2440TIP3   OH2 7325   3.682   0.880   1.567
 2440TIP3    H1 7326   3.643   0.958   1.529
 2440TIP3    H2 7327   3.630   0.807   1.533
 2441TIP3   OH2 7328   0.649   2.052   1.459
 2441TIP3    H1 7329   0.582   2.119   1.448
 2441TIP3    H2 7330   0.731   2.094   1.432
 2442TIP3   OH2 7331   3.111   0.840   4.002
 2442TIP3    H1 7332   3.155   0.799   4.076
 2442TIP3    H2 7333   3.172   0.907   3.972
 2443TIP3   OH2 7334   0.093   5.886   0.295
 2443TIP3    H1 7335   0.054   5.804   0.326
 2443TIP3    H2 7336   0.119   5.869   0.205
 2444TIP3   OH2 7337   3.713   3.504   3.194
 2444TIP3    H1 7338   3.636   3.553   3.165
 2444TIP3    H2 7339   3.782   3.570   3.199
 2445TIP3   OH2 7340   0.301   3.015   4.102
 2445TIP3    H1 7341   0.303   2.920   4.089
 2445TIP3    H2 7342   0.278   3.027   4.194
 2446TIP3   OH2 7343   1.722   2.022   3.171
 2446TIP3    H1 7344   1.687   1.988   3.089
 2446TIP3    H2 7345   1.762   2.106   3.146
 2447TIP3   OH2 7346   2.891   4.324   1.700
 2447TIP3    H1 7347   2.978   4.363   1.707
 2447TIP3    H2 7348   2.845   4.380   1.638
 2448TIP3   OH2 7349   0.672   4.915   1.815
 2448TIP3    H1 7350   0.600   4.973   1.793
 2448TIP3    H2 7351   0.724   4.963   1.880
 2449TIP3   OH2 7352   1.535   0.102   2.170
 2449TIP3    H1 7353   1.452   0.124   2.128
 2449TIP3    H2 7354   1.570   0.187   2.199
 2450TIP3   OH2 7355   2.535   0.267   2.212
 2450TIP3    H1 7356   2.473   0.225   2.271
 2450TIP3    H2 7357   2.494   0.258   2.125
 2451TIP3   OH2 7358   5.570   1.600   3.871
 2451TIP3    H1 7359   5.561   1.689   3.905
 2451TIP3    H2 7360   5.547   1.608   3.778
 2452TIP3   OH2 7361   5.532   0.120   0.273
 2452TIP3    H1 7362   5.478   0.158   0.203
 2452TIP3    H2 7363   5.620   0.116   0.237
 2453TIP3   OH2 7364   5.947   0.714   0.522
 2453TIP3    H1 7365   5.870   0.684   0.570
 2453TIP3    H2 7366   6.021   0.672   0.566
 2454TIP3   OH2 7367   3.135   5.425   1.363
 2454TIP3    H1 7368   3.056   5.472   1.391
 2454TIP3    H2 7369   3.171   5.389   1.444
 2455TIP3   OH2 7370   0.638   1.838   1.202
 2455TIP3    H1 7371   0.590   1.769   1.247
 2455TIP3    H2 7372   0.730   1.823   1.226
 2456TIP3   OH2 7373   3.349   4.228   2.009
 2456TIP3    H1 7374   3.277   4.262   1.956
 2456TIP3    H2 7375   3.307   4.177   2.078
 2457TIP3   OH2 7376   0.685   1.383   0.308
 2457TIP3    H1 7377   0.605   1.433   0.293
 2457TIP3    H2 7378   0.743   1.443   0.354
 2458TIP3   OH2 7379   3.628   0.504   3.792
 2458TIP3    H1 7380   3.566   0.431   3.787
 2458TIP3    H2 7381   3.606   0.559   3.716
 2459TIP3   OH2 7382   0.601   3.349   0.690
 2459TIP3    H1 7383   0.682   3.384   0.727
 2459TIP3    H2 7384   0.532   3.397   0.736
 2460TIP3   OH2 7385   5.693   3.348   4.727
 2460TIP3    H1 7386   5.640   3.365   4.806
 2460TIP3    H2 7387   5.664   3.262   4.697
 2461TIP3   OH2 7388   6.143   2.989  -0.047
 2461TIP3    H1 7389   6.098   2.906  -0.030
 2461TIP3    H2 7390   6.197   3.003   0.031
 2462TIP3   OH2 7391   4.793   1.995   3.473
 2462TIP3    H1 7392   4.814   1.929   3.407
 2462TIP3    H2 7393   4.715   2.039   3.440
 2463TIP3   OH2 7394   5.471   3.226   1.959
 2463TIP3    H1 7395   5.379   3.226   1.933
 2463TIP3    H2 7396   5.516   3.180   1.888
 2464TIP3   OH2 7397   1.951   0.647   1.578
 2464TIP3    H1 7398   2.004   0.588   1.632
 2464TIP3    H2 7399   1.862   0.613   1.584
 2465TIP3   OH2 7400   2.353   5.734   3.505
 2465TIP3    H1 7401   2.287   5.692   3.560
 2465TIP3    H2 7402   2.372   5.669   3.438
 2466TIP3   OH2 7403   2.144   3.564   1.257
 2466TIP3    H1 7404   2.103   3.649   1.272
 2466TIP3    H2 7405   2.208   3.580   1.187
 2467TIP3   OH2 7406   1.799   3.108   3.392
 2467TIP3    H1 7407   1.769   3.036   3.448
 2467TIP3    H2 7408   1.866   3.069   3.336
 2468TIP3   OH2 7409   0.957   1.234   2.221
 2468TIP3    H1 7410   1.014   1.160   2.243
 2468TIP3    H2 7411   0.972   1.297   2.291
 2469TIP3   OH2 7412   4.424   0.333   1.144
 2469TIP3    H1 7413   4.341   0.331   1.096
 2469TIP3    H2 7414   4.399   0.359   1.233
 2470TIP3   OH2 7415   4.094   5.477   3.604
 2470TIP3    H1 7416   4.190   5.482   3.597
 2470TIP3    H2 7417   4.069   5.411   3.539
 2471TIP3   OH2 7418   0.486   1.638   3.559
 2471TIP3    H1 7419   0.417   1.656   3.623
 2471TIP3    H2 7420   0.506   1.545   3.572
 2472TIP3   OH2 7421   5.672   1.961   0.517
 2472TIP3    H1 7422   5.743   1.963   0.581
 2472TIP3    H2 7423   5.686   1.881   0.468
 2473TIP3   OH2 7424   3.700   3.023   3.404
 2473TIP3    H1 7425   3.680   2.977   3.323
 2473TIP3    H2 7426   3.689   3.115   3.383
 2474TIP3   OH2 7427   4.605   5.356   0.157
 2474TIP3    H1 7428   4.623   5.264   0.140
 2474TIP3    H2 7429   4.513   5.358   0.185
 2475TIP3   OH2 7430   5.771   1.795   3.565
 2475TIP3    H1 7431   5.769   1.876   3.616
 2475TIP3    H2 7432   5.846   1.748   3.599
 2476TIP3   OH2 7433   0.796   4.317   4.851
 2476TIP3    H1 7434   0.822   4.244   4.907
 2476TIP3    H2 7435   0.781   4.389   4.913
 2477TIP3   OH2 7436   6.007   0.907   1.099
 2477TIP3    H1 7437   5.912   0.916   1.100
 2477TIP3    H2 7438   6.037   0.975   1.040
 2478TIP3   OH2 7439   0.620   1.657   4.083
 2478TIP3    H1 7440   0.534   1.624   4.056
 2478TIP3    H2 7441   0.635   1.619   4.169
 2479TIP3   OH2 7442   5.554   0.235   3.838
 2479TIP3    H1 7443   5.583   0.164   3.895
 2479TIP3    H2 7444   5.621   0.302   3.847
 2480TIP3   OH2 7445   5.724   5.534   1.450
 2480TIP3    H1 7446   5.640   5.561   1.487
 2480TIP3    H2 7447   5.705   5.451   1.406
 2481TIP3   OH2 7448   5.556   1.582   3.568
 2481TIP3    H1 7449   5.524   1.667   3.539
 2481TIP3    H2 7450   5.634   1.566   3.514
 2482TIP3   OH2 7451   1.482   4.751   0.126
 2482TIP3    H1 7452   1.416   4.820   0.133
 2482TIP3    H2 7453   1.551   4.778   0.187
 2483TIP3   OH2 7454   5.271   4.456   1.294
 2483TIP3    H1 7455   5.223   4.536   1.315
 2483TIP3    H2 7456   5.237   4.391   1.356
 2484TIP3   OH2 7457   0.667   1.212   1.821
 2484TIP3    H1 7458   0.632   1.238   1.906
 2484TIP3    H2 7459   0.735   1.276   1.802
 2485TIP3   OH2 7460   5.877   1.725   1.339
 2485TIP3    H1 7461   5.896   1.670   1.415
 2485TIP3    H2 7462   5.942   1.699   1.274
 2486TIP3   OH2 7463   4.463   4.144   1.134
 2486TIP3    H1 7464   4.414   4.177   1.058
 2486TIP3    H2 7465   4.432   4.055   1.146
 2487TIP3   OH2 7466   0.163   2.119   3.134
 2487TIP3    H1 7467   0.199   2.067   3.206
 2487TIP3    H2 7468   0.237   2.174   3.105
 2488TIP3   OH2 7469   5.244   4.818   4.734
 2488TIP3    H1 7470   5.256   4.771   4.817
 2488TIP3    H2 7471   5.170   4.774   4.692
 2489TIP3   OH2 7472   1.283   0.247   4.938
 2489TIP3    H1 7473   1.222   0.316   4.909
 2489TIP3    H2 7474   1.282   0.253   5.034
 2490TIP3   OH2 7475   2.650   4.485   5.084
 2490TIP3    H1 7476   2.676   4.404   5.039
 2490TIP3    H2 7477   2.689   4.555   5.031
 2491TIP3   OH2 7478   2.349   2.787   4.796
 2491TIP3    H1 7479   2.354   2.692   4.806
 2491TIP3    H2 7480   2.261   2.803   4.763
 2492TIP3   OH2 7481   1.325   5.121   4.769
 2492TIP3    H1 7482   1.370   5.083   4.845
 2492TIP3    H2 7483   1.396   5.147   4.711
 2493TIP3   OH2 7484   1.216   0.805   0.243
 2493TIP3    H1 7485   1.140   0.796   0.301
 2493TIP3    H2 7486   1.258   0.719   0.244
 2494TIP3   OH2 7487   1.497   4.181   0.286
 2494TIP3    H1 7488   1.470   4.265   0.321
 2494TIP3    H2 7489   1.592   4.190   0.272
 2495TIP3   OH2 7490   0.513   2.935   3.915
 2495TIP3    H1 7491   0.445   2.946   3.981
 2495TIP3    H2 7492   0.595   2.946   3.963
 2496TIP3   OH2 7493   3.404   5.236   2.210
 2496TIP3    H1 7494   3.381   5.143   2.206
 2496TIP3    H2 7495   3.332   5.280   2.164
 2497TIP3   OH2 7496   5.171   0.521   4.441
 2497TIP3    H1 7497   5.150   0.583   4.371
 2497TIP3    H2 7498   5.265   0.532   4.455
 2498TIP3   OH2 7499   2.412   3.899   1.307
 2498TIP3    H1 7500   2.447   3.979   1.344
 2498TIP3    H2 7501   2.380   3.848   1.382
 2499TIP3   OH2 7502   5.092   1.969   2.518
 2499TIP3    H1 7503   5.115   1.985   2.426
 2499TIP3    H2 7504   5.002   1.938   2.514
 2500TIP3   OH2 7505   2.551   2.346   1.556
 2500TIP3    H1 7506   2.531   2.308   1.642
 2500TIP3    H2 7507   2.466   2.350   1.511
 2501TIP3   OH2 7508   2.942   4.065   3.105
 2501TIP3    H1 7509   2.958   3.981   3.063
 2501TIP3    H2 7510   2.926   4.126   3.032
 2502TIP3   OH2 7511   0.210   2.654   1.872
 2502TIP3    H1 7512   0.140   2.670   1.809
 2502TIP3    H2 7513   0.230   2.740   1.908
 2503TIP3   OH2 7514   4.385   5.756   0.701
 2503TIP3    H1 7515   4.333   5.800   0.768
 2503TIP3    H2 7516   4.443   5.699   0.750
 2504TIP3   OH2 7517   0.076   3.644   2.541
 2504TIP3    H1 7518   0.049   3.703   2.471
 2504TIP3    H2 7519   0.117   3.570   2.495
 2505TIP3   OH2 7520   1.946   5.781   4.586
 2505TIP3    H1 7521   1.951   5.708   4.648
 2505TIP3    H2 7522   2.037   5.811   4.577
 2506TIP3   OH2 7523   3.197   4.009   4.116
 2506TIP3    H1 7524   3.259   4.008   4.042
 2506TIP3    H2 7525   3.194   3.917   4.145
 2507TIP3   OH2 7526   0.758   2.440   3.285
 2507TIP3    H1 7527   0.770   2.391   3.203
 2507TIP3    H2 7528   0.734   2.528   3.257
 2508TIP3   OH2 7529   0.026   4.208   4.120
 2508TIP3    H1 7530   0.121   4.199   4.113
 2508TIP3    H2 7531  -0.008   4.170   4.039
 2509TIP3   OH2 7532   1.091   1.566   4.569
 2509TIP3    H1 7533   1.007   1.524   4.551
 2509TIP3    H2 7534   1.079   1.608   4.654
 2510TIP3   OH2 7535   2.859   4.618   3.371
 2510TIP3    H1 7536   2.919   4.587   3.303
 2510TIP3    H2 7537   2.839   4.708   3.347
 2511TIP3   OH2 7538   4.716   0.507   4.035
 2511TIP3    H1 7539   4.627   0.541   4.027
 2511TIP3    H2 7540   4.722   0.441   3.966
 2512TIP3   OH2 7541   0.877   2.023   3.184
 2512TIP3    H1 7542   0.820   1.953   3.216
 2512TIP3    H2 7543   0.865   2.022   3.089
 2513TIP3   OH2 7544   2.677   3.953   1.460
 2513TIP3    H1 7545   2.741   3.999   1.514
 2513TIP3    H2 7546   2.607   3.929   1.521
 2514TIP3   OH2 7547   4.976   0.143   0.735
 2514TIP3    H1 7548   5.060   0.185   0.713
 2514TIP3    H2 7549   4.927   0.143   0.653
 2515TIP3   OH2 7550   4.534   2.433   4.385
 2515TIP3    H1 7551   4.479   2.511   4.373
 2515TIP3    H2 7552   4.562   2.410   4.296
 2516TIP3   OH2 7553   6.300   1.628   2.002
 2516TIP3    H1 7554   6.217   1.664   1.971
 2516TIP3    H2 7555   6.319   1.557   1.941
 2517TIP3   OH2 7556   5.438   5.078   1.293
 2517TIP3    H1 7557   5.484   5.110   1.371
 2517TIP3    H2 7558   5.498   5.014   1.254
 2518TIP3   OH2 7559   1.209   3.410   5.007
 2518TIP3    H1 7560   1.180   3.339   4.950
 2518TIP3    H2 7561   1.264   3.465   4.951
 2519TIP3   OH2 7562   3.362   1.938   2.453
 2519TIP3    H1 7563   3.385   2.028   2.475
 2519TIP3    H2 7564   3.378   1.888   2.533
 2520TIP3   OH2 7565   4.355   1.071   4.218
 2520TIP3    H1 7566   4.390   1.097   4.133
 2520TIP3    H2 7567   4.369   0.977   4.222
 2521TIP3   OH2 7568   0.132   3.062   0.270
 2521TIP3    H1 7569   0.224   3.033   0.274
 2521TIP3    H2 7570   0.128   3.136   0.331
 2522TIP3   OH2 7571   2.162   2.647   1.967
 2522TIP3    H1 7572   2.179   2.581   2.035
 2522TIP3    H2 7573   2.070   2.670   1.979
 2523TIP3   OH2 7574   0.287   0.118   3.928
 2523TIP3    H1 7575   0.285   0.026   3.957
 2523TIP3    H2 7576   0.218   0.160   3.979
 2524TIP3   OH2 7577   1.986   5.419   4.217
 2524TIP3    H1 7578   1.921   5.473   4.172
 2524TIP3    H2 7579   2.057   5.409   4.153
 2525TIP3   OH2 7580   6.313   4.878   2.703
 2525TIP3    H1 7581   6.252   4.951   2.696
 2525TIP3    H2 7582   6.300   4.828   2.623
 2526TIP3   OH2 7583   5.388   1.923   1.532
 2526TIP3    H1 7584   5.304   1.968   1.535
 2526TIP3    H2 7585   5.365   1.830   1.524
 2527TIP3   OH2 7586   6.001   5.836   4.666
 2527TIP3    H1 7587   6.027   5.833   4.574
 2527TIP3    H2 7588   5.997   5.930   4.687
 2528TIP3   OH2 7589   3.086   4.477   1.273
 2528TIP3    H1 7590   3.096   4.383   1.287
 2528TIP3    H2 7591   3.088   4.514   1.361
 2529TIP3   OH2 7592   3.761   0.992   0.440
 2529TIP3    H1 7593   3.721   1.058   0.382
 2529TIP3    H2 7594   3.799   1.043   0.511
 2530TIP3   OH2 7595   3.687   2.882   1.500
 2530TIP3    H1 7596   3.682   2.897   1.594
 2530TIP3    H2 7597   3.647   2.960   1.461
 2531TIP3   OH2 7598   1.623   5.751   4.322
 2531TIP3    H1 7599   1.629   5.756   4.417
 2531TIP3    H2 7600   1.714   5.751   4.292
 2532TIP3   OH2 7601   0.817   3.008   2.310
 2532TIP3    H1 7602   0.884   2.982   2.246
 2532TIP3    H2 7603   0.748   2.943   2.300
 2533TIP3   OH2 7604   2.557   0.108   0.656
 2533TIP3    H1 7605   2.519   0.053   0.589
 2533TIP3    H2 7606   2.626   0.157   0.612
 2534TIP3   OH2 7607   0.286   4.170   1.687
 2534TIP3    H1 7608   0.208   4.115   1.675
 2534TIP3    H2 7609   0.352   4.131   1.630
 2535TIP3   OH2 7610   5.180   3.324   0.851
 2535TIP3    H1 7611   5.257   3.328   0.909
 2535TIP3    H2 7612   5.207   3.266   0.780
 2536TIP3   OH2 7613   0.650   5.349   2.003
 2536TIP3    H1 7614   0.623   5.300   2.081
 2536TIP3    H2 7615   0.721   5.405   2.033
 2537TIP3   OH2 7616   4.976   5.181   2.100
 2537TIP3    H1 7617   4.901   5.150   2.151
 2537TIP3    H2 7618   5.011   5.102   2.059
 2538TIP3   OH2 7619   0.297   0.407   1.228
 2538TIP3    H1 7620   0.265   0.497   1.236
 2538TIP3    H2 7621   0.389   0.416   1.203
 2539TIP3   OH2 7622   0.224   5.729   4.381
 2539TIP3    H1 7623   0.235   5.634   4.383
 2539TIP3    H2 7624   0.144   5.745   4.433
 2540TIP3   OH2 7625   3.064   3.166   3.806
 2540TIP3    H1 7626   3.081   3.102   3.874
 2540TIP3    H2 7627   3.131   3.149   3.740
 2541TIP3   OH2 7628   6.070   1.463   1.763
 2541TIP3    H1 7629   6.165   1.459   1.749
 2541TIP3    H2 7630   6.055   1.409   1.841
 2542TIP3   OH2 7631   1.712   4.046   4.459
 2542TIP3    H1 7632   1.738   4.135   4.483
 2542TIP3    H2 7633   1.792   4.006   4.425
 2543TIP3   OH2 7634   6.166   5.608   3.508
 2543TIP3    H1 7635   6.085   5.590   3.556
 2543TIP3    H2 7636   6.175   5.536   3.447
 2544TIP3   OH2 7637   2.528   2.204   0.858
 2544TIP3    H1 7638   2.482   2.288   0.854
 2544TIP3    H2 7639   2.458   2.139   0.864
 2545TIP3   OH2 7640   3.269   0.418   1.808
 2545TIP3    H1 7641   3.280   0.418   1.903
 2545TIP3    H2 7642   3.291   0.507   1.781
 2546TIP3   OH2 7643   3.442   1.237   4.569
 2546TIP3    H1 7644   3.438   1.196   4.483
 2546TIP3    H2 7645   3.471   1.327   4.551
 2547TIP3   OH2 7646   5.440   2.722   2.344
 2547TIP3    H1 7647   5.482   2.775   2.276
 2547TIP3    H2 7648   5.352   2.705   2.311
 2548TIP3   OH2 7649   2.013   5.536   2.445
 2548TIP3    H1 7650   2.025   5.449   2.406
 2548TIP3    H2 7651   2.094   5.582   2.425
 2549TIP3   OH2 7652   5.490   4.018   4.442
 2549TIP3    H1 7653   5.578   4.004   4.478
 2549TIP3    H2 7654   5.451   3.931   4.438
 2550TIP3   OH2 7655   1.683   4.609   1.902
 2550TIP3    H1 7656   1.656   4.586   1.813
 2550TIP3    H2 7657   1.710   4.701   1.897
 2551TIP3   OH2 7658   4.778   4.342   2.596
 2551TIP3    H1 7659   4.804   4.326   2.505
 2551TIP3    H2 7660   4.763   4.255   2.632
 2552TIP3   OH2 7661   3.237   1.128   1.498
 2552TIP3    H1 7662   3.193   1.090   1.575
 2552TIP3    H2 7663   3.229   1.060   1.431
 2553TIP3   OH2 7664   2.991   2.573   5.030
 2553TIP3    H1 7665   2.907   2.601   5.067
 2553TIP3    H2 7666   3.050   2.646   5.045
 2554TIP3   OH2 7667   0.165   4.854   5.019
 2554TIP3    H1 7668   0.231   4.871   5.086
 2554TIP3    H2 7669   0.200   4.894   4.940
 2555TIP3   OH2 7670   3.752   1.533   0.401
 2555TIP3    H1 7671   3.779   1.624   0.401
 2555TIP3    H2 7672   3.707   1.521   0.485
 2556TIP3   OH2 7673   3.229   4.764   2.442
 2556TIP3    H1 7674   3.208   4.855   2.420
 2556TIP3    H2 7675   3.302   4.743   2.383
 2557TIP3   OH2 7676   5.470   4.750   0.804
 2557TIP3    H1 7677   5.429   4.695   0.870
 2557TIP3    H2 7678   5.504   4.689   0.739
 2558TIP3   OH2 7679   6.022   5.282   1.777
 2558TIP3    H1 7680   6.021   5.333   1.858
 2558TIP3    H2 7681   5.987   5.342   1.711
 2559TIP3   OH2 7682   5.455   1.204   2.985
 2559TIP3    H1 7683   5.458   1.190   3.079
 2559TIP3    H2 7684   5.393   1.277   2.973
 2560TIP3   OH2 7685   5.397   2.615   0.439
 2560TIP3    H1 7686   5.479   2.622   0.390
 2560TIP3    H2 7687   5.345   2.690   0.410
 2561TIP3   OH2 7688   6.196   3.095   4.885
 2561TIP3    H1 7689   6.107   3.105   4.852
 2561TIP3    H2 7690   6.250   3.145   4.823
 2562TIP3   OH2 7691   2.139   0.589   0.482
 2562TIP3    H1 7692   2.100   0.524   0.541
 2562TIP3    H2 7693   2.077   0.595   0.409
 2563TIP3   OH2 7694   2.168   5.634   2.753
 2563TIP3    H1 7695   2.250   5.603   2.792
 2563TIP3    H2 7696   2.192   5.659   2.664
 2564TIP3   OH2 7697   1.663   5.214   3.233
 2564TIP3    H1 7698   1.634   5.217   3.142
 2564TIP3    H2 7699   1.583   5.206   3.284
 2565TIP3   OH2 7700   3.759   3.499   1.762
 2565TIP3    H1 7701   3.808   3.560   1.817
 2565TIP3    H2 7702   3.692   3.463   1.820
 2566TIP3   OH2 7703   5.179   3.498   3.596
 2566TIP3    H1 7704   5.262   3.467   3.559
 2566TIP3    H2 7705   5.113   3.475   3.530
 2567TIP3   OH2 7706   1.749   4.508   2.821
 2567TIP3    H1 7707   1.753   4.533   2.729
 2567TIP3    H2 7708   1.819   4.444   2.832
 2568TIP3   OH2 7709   4.002   0.299   3.104
 2568TIP3    H1 7710   4.096   0.281   3.103
 2568TIP3    H2 7711   3.988   0.360   3.032
 2569TIP3   OH2 7712   3.309   1.070   5.035
 2569TIP3    H1 7713   3.378   1.058   5.099
 2569TIP3    H2 7714   3.354   1.092   4.954
 2570TIP3   OH2 7715   5.262   5.618   5.007
 2570TIP3    H1 7716   5.317   5.558   4.957
 2570TIP3    H2 7717   5.290   5.606   5.098
 2571TIP3   OH2 7718   6.026   0.154   1.762
 2571TIP3    H1 7719   6.012   0.099   1.839
 2571TIP3    H2 7720   5.990   0.239   1.786
 2572TIP3   OH2 7721   5.915   0.994   0.637
 2572TIP3    H1 7722   5.945   0.932   0.571
 2572TIP3    H2 7723   5.839   0.952   0.678
 2573TIP3   OH2 7724   4.888   0.478   0.739
 2573TIP3    H1 7725   4.966   0.437   0.701
 2573TIP3    H2 7726   4.898   0.571   0.721
 2574TIP3   OH2 7727   0.076   1.537   1.094
 2574TIP3    H1 7728   0.035   1.598   1.033
 2574TIP3    H2 7729   0.007   1.518   1.158
 2575TIP3   OH2 7730   3.596   5.226   0.577
 2575TIP3    H1 7731   3.584   5.309   0.625
 2575TIP3    H2 7732   3.556   5.243   0.491
 2576TIP3   OH2 7733   1.381   2.319   3.865
 2576TIP3    H1 7734   1.294   2.326   3.827
 2576TIP3    H2 7735   1.392   2.398   3.917
 2577TIP3   OH2 7736   1.136   2.987   3.721
 2577TIP3    H1 7737   1.203   3.031   3.669
 2577TIP3    H2 7738   1.053   3.016   3.684
 2578TIP3   OH2 7739   5.298   3.790   4.455
 2578TIP3    H1 7740   5.290   3.698   4.481
 2578TIP3    H2 7741   5.294   3.839   4.537
 2579TIP3   OH2 7742   5.241   3.140   3.800
 2579TIP3    H1 7743   5.256   3.228   3.837
 2579TIP3    H2 7744   5.288   3.141   3.717
 2580TIP3   OH2 7745   1.299   4.851   3.313
 2580TIP3    H1 7746   1.269   4.931   3.271
 2580TIP3    H2 7747   1.325   4.794   3.241
 2581TIP3   OH2 7748   2.234   0.498   2.196
 2581TIP3    H1 7749   2.145   0.527   2.174
 2581TIP3    H2 7750   2.282   0.579   2.212
 2582TIP3   OH2 7751   5.416   1.798   4.752
 2582TIP3    H1 7752   5.503   1.836   4.767
 2582TIP3    H2 7753   5.383   1.843   4.675
 2583TIP3   OH2 7754   0.987   2.282   4.498
 2583TIP3    H1 7755   0.978   2.348   4.568
 2583TIP3    H2 7756   0.897   2.259   4.475
 2584TIP3   OH2 7757   0.927   4.466   4.444
 2584TIP3    H1 7758   0.943   4.557   4.467
 2584TIP3    H2 7759   0.853   4.440   4.499
 2585TIP3   OH2 7760   2.665   5.924   1.402
 2585TIP3    H1 7761   2.603   5.933   1.475
 2585TIP3    H2 7762   2.728   5.859   1.433
 2586TIP3   OH2 7763   0.212   0.459   2.276
 2586TIP3    H1 7764   0.307   0.460   2.268
 2586TIP3    H2 7765   0.180   0.462   2.186
 2587TIP3   OH2 7766   0.198   4.181   3.176
 2587TIP3    H1 7767   0.223   4.257   3.229
 2587TIP3    H2 7768   0.115   4.206   3.136
 2588TIP3   OH2 7769   5.548   4.484   4.439
 2588TIP3    H1 7770   5.542   4.544   4.513
 2588TIP3    H2 7771   5.636   4.500   4.403
 2589TIP3   OH2 7772   3.808   1.846   4.601
 2589TIP3    H1 7773   3.828   1.910   4.532
 2589TIP3    H2 7774   3.867   1.869   4.672
 2590TIP3   OH2 7775   3.755   0.047   1.029
 2590TIP3    H1 7776   3.757  -0.045   1.003
 2590TIP3    H2 7777   3.847   0.071   1.039
 2591TIP3   OH2 7778   1.697   2.770   4.663
 2591TIP3    H1 7779   1.658   2.815   4.737
 2591TIP3    H2 7780   1.711   2.680   4.694
 2592TIP3   OH2 7781   3.987   0.510   4.471
 2592TIP3    H1 7782   4.007   0.499   4.564
 2592TIP3    H2 7783   3.914   0.451   4.455
 2593TIP3   OH2 7784   0.327   3.586   2.653
 2593TIP3    H1 7785   0.362   3.594   2.564
 2593TIP3    H2 7786   0.245   3.635   2.652
 2594TIP3   OH2 7787   1.372   0.508   0.897
 2594TIP3    H1 7788   1.446   0.507   0.958
 2594TIP3    H2 7789   1.406   0.553   0.819
 2595TIP3   OH2 7790   1.700   0.686   2.586
 2595TIP3    H1 7791   1.708   0.761   2.645
 2595TIP3    H2 7792   1.717   0.722   2.499
 2596TIP3   OH2 7793   1.289   3.299   2.251
 2596TIP3    H1 7794   1.371   3.250   2.247
 2596TIP3    H2 7795   1.316   3.389   2.269
 2597TIP3   OH2 7796   3.697   3.912   0.855
 2597TIP3    H1 7797   3.681   3.834   0.908
 2597TIP3    H2 7798   3.739   3.974   0.915
 2598TIP3   OH2 7799   3.817   2.105   0.992
 2598TIP3    H1 7800   3.737   2.154   1.012
 2598TIP3    H2 7801   3.804   2.074   0.902
 2599TIP3   OH2 7802   3.931   2.901   3.503
 2599TIP3    H1 7803   3.843   2.933   3.483
 2599TIP3    H2 7804   3.982   2.923   3.425
 2600TIP3   OH2 7805   1.822   5.938   3.987
 2600TIP3    H1 7806   1.742   5.888   4.004
 2600TIP3    H2 7807   1.810   6.020   4.035
 2601TIP3   OH2 7808   5.590   0.123   0.760
 2601TIP3    H1 7809   5.563   0.060   0.694
 2601TIP3    H2 7810   5.648   0.183   0.714
 2602TIP3   OH2 7811   3.739   5.320   0.156
 2602TIP3    H1 7812   3.755   5.256   0.225
 2602TIP3    H2 7813   3.645   5.335   0.159
 2603TIP3   OH2 7814   0.117   5.260   0.520
 2603TIP3    H1 7815   0.176   5.191   0.490
 2603TIP3    H2 7816   0.032   5.218   0.525
 2604TIP3   OH2 7817   1.384   2.866   2.334
 2604TIP3    H1 7818   1.393   2.771   2.325
 2604TIP3    H2 7819   1.300   2.886   2.293
 2605TIP3   OH2 7820   4.975   5.020   3.434
 2605TIP3    H1 7821   5.054   4.972   3.459
 2605TIP3    H2 7822   4.958   4.993   3.344
 2606TIP3   OH2 7823   4.035   4.657   0.789
 2606TIP3    H1 7824   3.964   4.679   0.849
 2606TIP3    H2 7825   4.076   4.741   0.769
 2607TIP3   OH2 7826   2.582   4.191   0.509
 2607TIP3    H1 7827   2.600   4.284   0.521
 2607TIP3    H2 7828   2.490   4.181   0.533
 2608TIP3   OH2 7829   1.931   5.104   2.900
 2608TIP3    H1 7830   1.839   5.100   2.877
 2608TIP3    H2 7831   1.961   5.188   2.865
 2609TIP3   OH2 7832   1.194   2.893   3.350
 2609TIP3    H1 7833   1.219   2.804   3.376
 2609TIP3    H2 7834   1.273   2.928   3.308
 2610TIP3   OH2 7835   1.528   3.064   2.478
 2610TIP3    H1 7836   1.584   2.999   2.520
 2610TIP3    H2 7837   1.467   3.013   2.425
 2611TIP3   OH2 7838   5.827   4.097   3.895
 2611TIP3    H1 7839   5.837   4.170   3.834
 2611TIP3    H2 7840   5.790   4.027   3.842
 2612TIP3   OH2 7841   4.629   0.907   4.041
 2612TIP3    H1 7842   4.719   0.907   4.008
 2612TIP3    H2 7843   4.634   0.862   4.125
 2613TIP3   OH2 7844   0.563   3.999   4.941
 2613TIP3    H1 7845   0.630   4.051   4.897
 2613TIP3    H2 7846   0.600   3.979   5.027
 2614TIP3   OH2 7847   4.064   1.029   4.703
 2614TIP3    H1 7848   3.994   0.964   4.700
 2614TIP3    H2 7849   4.066   1.066   4.615
 2615TIP3   OH2 7850   3.823   1.983   3.074
 2615TIP3    H1 7851   3.868   2.027   3.001
 2615TIP3    H2 7852   3.807   2.054   3.137
 2616TIP3   OH2 7853   1.888   4.305   1.655
 2616TIP3    H1 7854   1.860   4.369   1.589
 2616TIP3    H2 7855   1.967   4.343   1.693
 2617TIP3   OH2 7856   1.080   3.645   2.200
 2617TIP3    H1 7857   1.101   3.571   2.144
 2617TIP3    H2 7858   0.988   3.632   2.225
 2618TIP3   OH2 7859   5.472   4.540   3.784
 2618TIP3    H1 7860   5.521   4.483   3.725
 2618TIP3    H2 7861   5.490   4.506   3.871
 2619TIP3   OH2 7862   4.470   2.323   0.569
 2619TIP3    H1 7863   4.550   2.306   0.618
 2619TIP3    H2 7864   4.500   2.355   0.484
 2620TIP3   OH2 7865   4.399   0.698   4.523
 2620TIP3    H1 7866   4.397   0.627   4.587
 2620TIP3    H2 7867   4.442   0.771   4.569
 2621TIP3   OH2 7868   1.422   5.416   2.407
 2621TIP3    H1 7869   1.433   5.467   2.488
 2621TIP3    H2 7870   1.327   5.409   2.397
 2622TIP3   OH2 7871   2.961   2.027   1.012
 2622TIP3    H1 7872   2.960   2.054   0.920
 2622TIP3    H2 7873   2.990   1.936   1.009
 2623TIP3   OH2 7874   5.962   0.935   3.451
 2623TIP3    H1 7875   6.058   0.936   3.457
 2623TIP3    H2 7876   5.937   1.027   3.444
 2624TIP3   OH2 7877   4.929   4.378   0.421
 2624TIP3    H1 7878   4.947   4.330   0.340
 2624TIP3    H2 7879   4.987   4.338   0.486
 2625TIP3   OH2 7880   4.111   3.233   2.573
 2625TIP3    H1 7881   4.152   3.267   2.494
 2625TIP3    H2 7882   4.053   3.303   2.603
 2626TIP3   OH2 7883   2.218   4.984   4.688
 2626TIP3    H1 7884   2.159   4.953   4.619
 2626TIP3    H2 7885   2.204   5.078   4.691
 2627TIP3   OH2 7886   6.067   5.035   4.470
 2627TIP3    H1 7887   6.099   4.958   4.423
 2627TIP3    H2 7888   6.107   5.028   4.557
 2628TIP3   OH2 7889   6.152   5.756   1.942
 2628TIP3    H1 7890   6.202   5.770   1.861
 2628TIP3    H2 7891   6.141   5.844   1.979
 2629TIP3   OH2 7892   4.908   3.649   2.005
 2629TIP3    H1 7893   4.866   3.564   1.991
 2629TIP3    H2 7894   4.964   3.636   2.081
 2630TIP3   OH2 7895   5.553   1.197   0.270
 2630TIP3    H1 7896   5.519   1.130   0.210
 2630TIP3    H2 7897   5.506   1.277   0.245
 2631TIP3   OH2 7898   1.097   2.773   0.979
 2631TIP3    H1 7899   1.003   2.759   0.992
 2631TIP3    H2 7900   1.135   2.685   0.985
 2632TIP3   OH2 7901   2.822   5.231   0.883
 2632TIP3    H1 7902   2.729   5.210   0.896
 2632TIP3    H2 7903   2.824   5.281   0.802
 2633TIP3   OH2 7904   4.663   0.261   3.100
 2633TIP3    H1 7905   4.704   0.333   3.051
 2633TIP3    H2 7906   4.635   0.301   3.182
 2634TIP3   OH2 7907   3.996   1.111   0.243
 2634TIP3    H1 7908   3.986   1.045   0.174
 2634TIP3    H2 7909   4.040   1.184   0.199
 2635TIP3   OH2 7910   2.098   4.037   3.194
 2635TIP3    H1 7911   2.068   4.047   3.103
 2635TIP3    H2 7912   2.185   3.998   3.187
 2636TIP3   OH2 7913   3.567   4.856   1.992
 2636TIP3    H1 7914   3.509   4.796   1.946
 2636TIP3    H2 7915   3.571   4.934   1.935
 2637TIP3   OH2 7916   5.856   0.065   0.439
 2637TIP3    H1 7917   5.915   0.134   0.469
 2637TIP3    H2 7918   5.904  -0.016   0.451
 2638TIP3   OH2 7919   0.961   1.040   3.649
 2638TIP3    H1 7920   1.000   0.967   3.601
 2638TIP3    H2 7921   1.024   1.061   3.717
 2639TIP3   OH2 7922   5.250   5.230   4.043
 2639TIP3    H1 7923   5.201   5.192   3.971
 2639TIP3    H2 7924   5.229   5.174   4.119
 2640TIP3   OH2 7925   0.380   2.842   1.929
 2640TIP3    H1 7926   0.452   2.782   1.950
 2640TIP3    H2 7927   0.376   2.902   2.004
 2641TIP3   OH2 7928   6.127   5.497   1.511
 2641TIP3    H1 7929   6.189   5.569   1.517
 2641TIP3    H2 7930   6.063   5.526   1.446
 2642TIP3   OH2 7931   1.733   3.293   0.855
 2642TIP3    H1 7932   1.652   3.310   0.903
 2642TIP3    H2 7933   1.802   3.332   0.908
 2643TIP3   OH2 7934   0.393   0.721   2.268
 2643TIP3    H1 7935   0.466   0.774   2.237
 2643TIP3    H2 7936   0.426   0.631   2.268
 2644TIP3   OH2 7937   0.704   3.057   3.155
 2644TIP3    H1 7938   0.787   3.046   3.202
 2644TIP3    H2 7939   0.721   3.021   3.068
 2645TIP3   OH2 7940   5.453   4.614   2.335
 2645TIP3    H1 7941   5.436   4.675   2.263
 2645TIP3    H2 7942   5.383   4.631   2.398
 2646TIP3   OH2 7943   0.071   0.770   4.314
 2646TIP3    H1 7944   0.166   0.759   4.319
 2646TIP3    H2 7945   0.036   0.711   4.380
 2647TIP3   OH2 7946   2.995   3.705   0.852
 2647TIP3    H1 7947   2.960   3.660   0.928
 2647TIP3    H2 7948   2.997   3.639   0.783
 2648TIP3   OH2 7949   0.640   5.550   3.452
 2648TIP3    H1 7950   0.657   5.521   3.541
 2648TIP3    H2 7951   0.574   5.489   3.419
 2649TIP3   OH2 7952   1.143   4.282   2.851
 2649TIP3    H1 7953   1.094   4.267   2.770
 2649TIP3    H2 7954   1.168   4.374   2.847
 2650TIP3   OH2 7955   3.459   5.904   1.027
 2650TIP3    H1 7956   3.484   5.882   0.937
 2650TIP3    H2 7957   3.400   5.980   1.017
 2651TIP3   OH2 7958   5.911   4.822   3.275
 2651TIP3    H1 7959   5.851   4.776   3.333
 2651TIP3    H2 7960   5.910   4.771   3.194
 2652TIP3   OH2 7961   4.386   0.857   1.499
 2652TIP3    H1 7962   4.445   0.932   1.494
 2652TIP3    H2 7963   4.301   0.895   1.522
 2653TIP3   OH2 7964   2.596   4.969   0.420
 2653TIP3    H1 7965   2.522   5.012   0.376
 2653TIP3    H2 7966   2.622   5.030   0.488
 2654TIP3   OH2 7967   3.970   5.909   0.503
 2654TIP3    H1 7968   4.018   5.961   0.568
 2654TIP3    H2 7969   3.962   5.822   0.543
 2655TIP3   OH2 7970   2.753   5.582   2.069
 2655TIP3    H1 7971   2.673   5.530   2.068
 2655TIP3    H2 7972   2.815   5.533   2.015
 2656TIP3   OH2 7973   4.254   4.746   2.942
 2656TIP3    H1 7974   4.236   4.757   2.848
 2656TIP3    H2 7975   4.323   4.810   2.960
 2657TIP3   OH2 7976   6.171   5.747   2.294
 2657TIP3    H1 7977   6.181   5.842   2.301
 2657TIP3    H2 7978   6.102   5.734   2.229
 2658TIP3   OH2 7979   5.274   0.959   5.016
 2658TIP3    H1 7980   5.267   0.884   5.075
 2658TIP3    H2 7981   5.304   1.030   5.073
 2659TIP3   OH2 7982   0.859   3.399   0.224
 2659TIP3    H1 7983   0.800   3.472   0.241
 2659TIP3    H2 7984   0.855   3.346   0.303
 2660TIP3   OH2 7985   3.675   4.591   3.366
 2660TIP3    H1 7986   3.629   4.521   3.413
 2660TIP3    H2 7987   3.606   4.651   3.339
 2661TIP3   OH2 7988   0.973   0.481   4.367
 2661TIP3    H1 7989   0.886   0.455   4.398
 2661TIP3    H2 7990   1.009   0.534   4.438
 2662TIP3   OH2 7991   4.219   2.707   0.005
 2662TIP3    H1 7992   4.220   2.771   0.077
 2662TIP3    H2 7993   4.259   2.629   0.043
 2663TIP3   OH2 7994   0.758   5.820   3.082
 2663TIP3    H1 7995   0.830   5.757   3.093
 2663TIP3    H2 7996   0.703   5.808   3.159
 2664TIP3   OH2 7997   2.228   4.680   1.832
 2664TIP3    H1 7998   2.217   4.723   1.917
 2664TIP3    H2 7999   2.200   4.745   1.768
 2665TIP3   OH2 8000   1.646   1.227   3.249
 2665TIP3    H1 8001   1.556   1.237   3.279
 2665TIP3    H2 8002   1.656   1.132   3.237
 2666TIP3   OH2 8003   0.580   3.083   0.301
 2666TIP3    H1 8004   0.639   3.057   0.371
 2666TIP3    H2 8005   0.637   3.111   0.230
 2667TIP3   OH2 8006   1.673   2.231   0.729
 2667TIP3    H1 8007   1.624   2.238   0.811
 2667TIP3    H2 8008   1.712   2.144   0.732
 2668TIP3   OH2 8009   1.942   0.276   0.379
 2668TIP3    H1 8010   1.864   0.260   0.327
 2668TIP3    H2 8011   2.010   0.222   0.338
 2669TIP3   OH2 8012   1.472   1.103   0.393
 2669TIP3    H1 8013   1.421   1.175   0.431
 2669TIP3    H2 8014   1.562   1.136   0.390
 2670TIP3   OH2 8015   1.396   2.257   2.600
 2670TIP3    H1 8016   1.418   2.167   2.624
 2670TIP3    H2 8017   1.378   2.253   2.506
 2671TIP3   OH2 8018   4.739   3.776   0.251
 2671TIP3    H1 8019   4.818   3.777   0.197
 2671TIP3    H2 8020   4.740   3.859   0.297
 2672TIP3   OH2 8021   0.129   3.156   3.258
 2672TIP3    H1 8022   0.195   3.206   3.211
 2672TIP3    H2 8023   0.081   3.109   3.190
 2673TIP3   OH2 8024   4.494   5.456   0.653
 2673TIP3    H1 8025   4.587   5.481   0.654
 2673TIP3    H2 8026   4.477   5.430   0.562
 2674TIP3   OH2 8027   3.311   4.264   3.606
 2674TIP3    H1 8028   3.323   4.237   3.515
 2674TIP3    H2 8029   3.275   4.353   3.601
 2675TIP3   OH2 8030   4.604   0.328   2.695
 2675TIP3    H1 8031   4.561   0.409   2.723
 2675TIP3    H2 8032   4.533   0.271   2.667
 2676TIP3   OH2 8033   4.180   3.860   5.014
 2676TIP3    H1 8034   4.219   3.773   5.004
 2676TIP3    H2 8035   4.235   3.917   4.960
 2677TIP3   OH2 8036   2.887   1.587   3.909
 2677TIP3    H1 8037   2.958   1.532   3.942
 2677TIP3    H2 8038   2.863   1.643   3.982
 2678TIP3   OH2 8039   0.386   1.945   4.639
 2678TIP3    H1 8040   0.429   1.886   4.577
 2678TIP3    H2 8041   0.317   1.893   4.678
 2679TIP3   OH2 8042   1.580   0.722   4.946
 2679TIP3    H1 8043   1.487   0.715   4.923
 2679TIP3    H2 8044   1.597   0.816   4.947
 2680TIP3   OH2 8045   4.943   4.411   1.351
 2680TIP3    H1 8046   5.024   4.395   1.401
 2680TIP3    H2 8047   4.973   4.454   1.271
 2681TIP3   OH2 8048   0.756   2.213   5.072
 2681TIP3    H1 8049   0.772   2.148   5.140
 2681TIP3    H2 8050   0.663   2.233   5.079
 2682TIP3   OH2 8051   4.998   0.115   1.358
 2682TIP3    H1 8052   4.962   0.062   1.429
 2682TIP3    H2 8053   4.944   0.093   1.282
 2683TIP3   OH2 8054   0.775   0.408   5.061
 2683TIP3    H1 8055   0.737   0.329   5.101
 2683TIP3    H2 8056   0.760   0.397   4.967
 2684TIP3   OH2 8057   1.234   1.501   4.012
 2684TIP3    H1 8058   1.255   1.590   4.040
 2684TIP3    H2 8059   1.187   1.463   4.087
 2685TIP3   OH2 8060   0.284   4.216   0.521
 2685TIP3    H1 8061   0.296   4.298   0.473
 2685TIP3    H2 8062   0.334   4.228   0.602
 2686TIP3   OH2 8063   5.201   1.727   3.550
 2686TIP3    H1 8064   5.284   1.758   3.514
 2686TIP3    H2 8065   5.156   1.807   3.577
 2687TIP3   OH2 8066   4.836   1.318   3.312
 2687TIP3    H1 8067   4.785   1.277   3.242
 2687TIP3    H2 8068   4.880   1.391   3.269
 2688TIP3   OH2 8069   2.843   5.364   3.583
 2688TIP3    H1 8070   2.873   5.274   3.577
 2688TIP3    H2 8071   2.923   5.416   3.581
 2689TIP3   OH2 8072   1.841   3.163   4.299
 2689TIP3    H1 8073   1.932   3.138   4.283
 2689TIP3    H2 8074   1.808   3.191   4.213
 2690TIP3   OH2 8075   4.808   3.967   0.869
 2690TIP3    H1 8076   4.874   3.960   0.939
 2690TIP3    H2 8077   4.728   3.994   0.914
 2691TIP3   OH2 8078   5.084   2.577   3.294
 2691TIP3    H1 8079   5.105   2.670   3.294
 2691TIP3    H2 8080   5.012   2.569   3.356
 2692TIP3   OH2 8081   5.391   1.592   0.627
 2692TIP3    H1 8082   5.432   1.577   0.712
 2692TIP3    H2 8083   5.421   1.518   0.573
 2693TIP3   OH2 8084   5.684   3.899   0.896
 2693TIP3    H1 8085   5.608   3.864   0.848
 2693TIP3    H2 8086   5.648   3.937   0.975
 2694TIP3   OH2 8087   2.368   3.686   0.156
 2694TIP3    H1 8088   2.442   3.630   0.132
 2694TIP3    H2 8089   2.402   3.776   0.151
 2695TIP3   OH2 8090   1.622   3.567   0.217
 2695TIP3    H1 8091   1.671   3.637   0.174
 2695TIP3    H2 8092   1.685   3.527   0.277
 2696TIP3   OH2 8093   4.240   1.630   0.390
 2696TIP3    H1 8094   4.183   1.591   0.455
 2696TIP3    H2 8095   4.265   1.558   0.332
 2697TIP3   OH2 8096   6.246   0.892   2.411
 2697TIP3    H1 8097   6.284   0.825   2.355
 2697TIP3    H2 8098   6.320   0.948   2.434
 2698TIP3   OH2 8099   1.492   2.646   1.885
 2698TIP3    H1 8100   1.407   2.681   1.913
 2698TIP3    H2 8101   1.515   2.697   1.808
 2699TIP3   OH2 8102   2.637   4.922   2.938
 2699TIP3    H1 8103   2.629   4.831   2.910
 2699TIP3    H2 8104   2.722   4.950   2.902
 2700TIP3   OH2 8105   0.406   5.290   1.177
 2700TIP3    H1 8106   0.361   5.293   1.262
 2700TIP3    H2 8107   0.347   5.334   1.117
 2701TIP3   OH2 8108   3.961   0.748   0.251
 2701TIP3    H1 8109   4.015   0.670   0.260
 2701TIP3    H2 8110   4.005   0.801   0.184
 2702TIP3   OH2 8111   4.234   1.692   3.412
 2702TIP3    H1 8112   4.175   1.722   3.343
 2702TIP3    H2 8113   4.240   1.766   3.472
 2703TIP3   OH2 8114   1.739   1.201   0.431
 2703TIP3    H1 8115   1.739   1.245   0.516
 2703TIP3    H2 8116   1.831   1.199   0.405
 2704TIP3   OH2 8117   4.330   3.314   1.548
 2704TIP3    H1 8118   4.275   3.372   1.602
 2704TIP3    H2 8119   4.384   3.374   1.496
 2705TIP3   OH2 8120   4.062   4.394   0.869
 2705TIP3    H1 8121   4.035   4.350   0.788
 2705TIP3    H2 8122   4.066   4.487   0.846
 2706TIP3   OH2 8123   5.545   5.085   4.264
 2706TIP3    H1 8124   5.453   5.057   4.268
 2706TIP3    H2 8125   5.592   5.020   4.317
 2707TIP3   OH2 8126   5.193   0.475   1.228
 2707TIP3    H1 8127   5.098   0.483   1.214
 2707TIP3    H2 8128   5.203   0.467   1.323
 2708TIP3   OH2 8129   1.443   1.847   0.338
 2708TIP3    H1 8130   1.389   1.833   0.260
 2708TIP3    H2 8131   1.533   1.838   0.307
 2709TIP3   OH2 8132   0.897   2.459   2.328
 2709TIP3    H1 8133   0.983   2.442   2.290
 2709TIP3    H2 8134   0.912   2.458   2.422
 2710TIP3   OH2 8135   3.270   2.968   3.263
 2710TIP3    H1 8136   3.313   2.882   3.262
 2710TIP3    H2 8137   3.176   2.948   3.260
 2711TIP3   OH2 8138   4.291   0.523   3.764
 2711TIP3    H1 8139   4.230   0.576   3.714
 2711TIP3    H2 8140   4.239   0.450   3.797
 2712TIP3   OH2 8141   1.850   4.834   0.898
 2712TIP3    H1 8142   1.809   4.879   0.971
 2712TIP3    H2 8143   1.779   4.786   0.855
 2713TIP3   OH2 8144   0.277   5.570   3.689
 2713TIP3    H1 8145   0.224   5.565   3.768
 2713TIP3    H2 8146   0.238   5.508   3.629
 2714TIP3   OH2 8147   4.190   4.862   4.949
 2714TIP3    H1 8148   4.185   4.781   5.000
 2714TIP3    H2 8149   4.194   4.931   5.015
 2715TIP3   OH2 8150   2.027   5.917   2.886
 2715TIP3    H1 8151   2.018   5.910   2.791
 2715TIP3    H2 8152   2.092   5.986   2.900
 2716TIP3   OH2 8153   0.306   5.575   5.005
 2716TIP3    H1 8154   0.241   5.632   4.965
 2716TIP3    H2 8155   0.372   5.634   5.040
 2717TIP3   OH2 8156   0.630   2.435   1.823
 2717TIP3    H1 8157   0.546   2.437   1.869
 2717TIP3    H2 8158   0.690   2.482   1.881
 2718TIP3   OH2 8159   1.932   1.491   1.779
 2718TIP3    H1 8160   1.959   1.412   1.732
 2718TIP3    H2 8161   1.851   1.519   1.736
 2719TIP3   OH2 8162   2.404   4.542   2.362
 2719TIP3    H1 8163   2.458   4.465   2.342
 2719TIP3    H2 8164   2.440   4.612   2.307
 2720TIP3   OH2 8165   0.737   4.572   0.782
 2720TIP3    H1 8166   0.765   4.485   0.754
 2720TIP3    H2 8167   0.738   4.625   0.702
 2721TIP3   OH2 8168   2.482   0.745   0.400
 2721TIP3    H1 8169   2.463   0.793   0.481
 2721TIP3    H2 8170   2.450   0.656   0.417
 2722TIP3   OH2 8171   2.693   3.997   3.757
 2722TIP3    H1 8172   2.666   3.950   3.678
 2722TIP3    H2 8173   2.611   4.023   3.799
 2723TIP3   OH2 8174   2.319   1.199   2.703
 2723TIP3    H1 8175   2.269   1.257   2.645
 2723TIP3    H2 8176   2.352   1.257   2.771
 2724TIP3   OH2 8177   4.362   0.440   0.827
 2724TIP3    H1 8178   4.342   0.378   0.897
 2724TIP3    H2 8179   4.448   0.474   0.849
 2725TIP3   OH2 8180   5.107   3.062   2.953
 2725TIP3    H1 8181   5.162   3.132   2.918
 2725TIP3    H2 8182   5.069   3.099   3.033
 2726TIP3   OH2 8183   4.636   3.012   3.827
 2726TIP3    H1 8184   4.583   3.049   3.756
 2726TIP3    H2 8185   4.577   2.952   3.872
 2727TIP3   OH2 8186   3.071   1.609   1.216
 2727TIP3    H1 8187   3.007   1.599   1.287
 2727TIP3    H2 8188   3.060   1.530   1.162
 2728TIP3   OH2 8189   3.245   2.370   1.004
 2728TIP3    H1 8190   3.216   2.447   0.955
 2728TIP3    H2 8191   3.338   2.387   1.022
 2729TIP3   OH2 8192   2.396   4.891   3.821
 2729TIP3    H1 8193   2.416   4.882   3.914
 2729TIP3    H2 8194   2.364   4.981   3.813
 2730TIP3   OH2 8195   6.269   5.565   2.626
 2730TIP3    H1 8196   6.312   5.537   2.707
 2730TIP3    H2 8197   6.338   5.608   2.576
 2731TIP3   OH2 8198   1.225   0.167   2.255
 2731TIP3    H1 8199   1.147   0.209   2.293
 2731TIP3    H2 8200   1.265   0.235   2.201
 2732TIP3   OH2 8201   3.941   0.990   3.281
 2732TIP3    H1 8202   3.909   0.995   3.372
 2732TIP3    H2 8203   3.936   0.897   3.259
 2733TIP3   OH2 8204   1.993   5.447   3.803
 2733TIP3    H1 8205   1.983   5.528   3.854
 2733TIP3    H2 8206   1.922   5.451   3.739
 2734TIP3   OH2 8207   5.747   0.762   3.283
 2734TIP3    H1 8208   5.831   0.805   3.299
 2734TIP3    H2 8209   5.686   0.834   3.269
 2735TIP3   OH2 8210   5.894   2.984   3.852
 2735TIP3    H1 8211   5.807   2.969   3.890
 2735TIP3    H2 8212   5.891   2.941   3.767
 2736TIP3   OH2 8213   5.548   4.494   2.572
 2736TIP3    H1 8214   5.499   4.507   2.491
 2736TIP3    H2 8215   5.515   4.561   2.631
 2737TIP3   OH2 8216   4.461   2.583   4.666
 2737TIP3    H1 8217   4.372   2.601   4.698
 2737TIP3    H2 8218   4.451   2.575   4.571
 2738TIP3   OH2 8219   3.208   1.862   1.655
 2738TIP3    H1 8220   3.277   1.919   1.689
 2738TIP3    H2 8221   3.182   1.903   1.573
 2739TIP3   OH2 8222   2.001   5.538   4.713
 2739TIP3    H1 8223   2.039   5.491   4.787
 2739TIP3    H2 8224   2.059   5.519   4.640
 2740TIP3   OH2 8225   1.860   0.820   4.285
 2740TIP3    H1 8226   1.770   0.835   4.313
 2740TIP3    H2 8227   1.909   0.895   4.318
 2741TIP3   OH2 8228   5.194   3.574   1.135
 2741TIP3    H1 8229   5.130   3.579   1.064
 2741TIP3    H2 8230   5.163   3.502   1.190
 2742TIP3   OH2 8231   1.119   0.842   0.604
 2742TIP3    H1 8232   1.052   0.895   0.560
 2742TIP3    H2 8233   1.202   0.880   0.578
 2743TIP3   OH2 8234   0.214   1.843   0.121
 2743TIP3    H1 8235   0.184   1.754   0.105
 2743TIP3    H2 8236   0.135   1.892   0.144
 2744TIP3   OH2 8237   2.185   2.669   5.102
 2744TIP3    H1 8238   2.195   2.759   5.071
 2744TIP3    H2 8239   2.274   2.639   5.120
 2745TIP3   OH2 8240   0.289   0.766   0.974
 2745TIP3    H1 8241   0.343   0.835   0.937
 2745TIP3    H2 8242   0.260   0.715   0.898
 2746TIP3   OH2 8243   2.044   0.197   0.841
 2746TIP3    H1 8244   2.126   0.239   0.866
 2746TIP3    H2 8245   2.069   0.131   0.776
 2747TIP3   OH2 8246   3.044   3.979   0.849
 2747TIP3    H1 8247   3.032   3.886   0.868
 2747TIP3    H2 8248   3.109   3.982   0.779
 2748TIP3   OH2 8249   6.173   3.004   5.180
 2748TIP3    H1 8250   6.130   3.013   5.095
 2748TIP3    H2 8251   6.255   3.053   5.171
 2749TIP3   OH2 8252   0.335   2.483   0.202
 2749TIP3    H1 8253   0.267   2.475   0.134
 2749TIP3    H2 8254   0.321   2.407   0.258
 2750TIP3   OH2 8255   1.122   3.101   1.405
 2750TIP3    H1 8256   1.044   3.100   1.460
 2750TIP3    H2 8257   1.091   3.132   1.320
 2751TIP3   OH2 8258   1.443   2.015   2.679
 2751TIP3    H1 8259   1.372   1.997   2.741
 2751TIP3    H2 8260   1.453   1.934   2.629
 2752TIP3   OH2 8261   5.921   4.658   2.855
 2752TIP3    H1 8262   5.903   4.628   2.944
 2752TIP3    H2 8263   5.886   4.588   2.799
 2753TIP3   OH2 8264   0.353   4.238   1.953
 2753TIP3    H1 8265   0.415   4.308   1.937
 2753TIP3    H2 8266   0.311   4.222   1.869
 2754TIP3   OH2 8267   0.137   3.714   1.829
 2754TIP3    H1 8268   0.112   3.741   1.740
 2754TIP3    H2 8269   0.231   3.698   1.823
 2755TIP3   OH2 8270   1.464   0.352   4.444
 2755TIP3    H1 8271   1.396   0.385   4.386
 2755TIP3    H2 8272   1.435   0.377   4.532
 2756TIP3   OH2 8273   1.247   4.114   0.859
 2756TIP3    H1 8274   1.270   4.023   0.881
 2756TIP3    H2 8275   1.152   4.113   0.851
 2757TIP3   OH2 8276   5.115   0.464   2.491
 2757TIP3    H1 8277   5.157   0.540   2.532
 2757TIP3    H2 8278   5.165   0.448   2.412
 2758TIP3   OH2 8279   5.213   1.678   3.837
 2758TIP3    H1 8280   5.280   1.723   3.784
 2758TIP3    H2 8281   5.196   1.596   3.790
 2759TIP3   OH2 8282   4.225   5.789   4.191
 2759TIP3    H1 8283   4.239   5.708   4.142
 2759TIP3    H2 8284   4.167   5.763   4.263
 2760TIP3   OH2 8285   6.215   2.664   3.288
 2760TIP3    H1 8286   6.284   2.618   3.240
 2760TIP3    H2 8287   6.248   2.753   3.297
 2761TIP3   OH2 8288   4.128   0.144   4.386
 2761TIP3    H1 8289   4.150   0.155   4.478
 2761TIP3    H2 8290   4.042   0.185   4.376
 2762TIP3   OH2 8291   3.054   4.633   1.506
 2762TIP3    H1 8292   2.972   4.672   1.475
 2762TIP3    H2 8293   3.036   4.606   1.596
 2763TIP3   OH2 8294   4.362   4.050   3.826
 2763TIP3    H1 8295   4.313   4.124   3.789
 2763TIP3    H2 8296   4.301   3.976   3.820
 2764TIP3   OH2 8297   3.797   2.639   2.810
 2764TIP3    H1 8298   3.703   2.651   2.826
 2764TIP3    H2 8299   3.829   2.727   2.789
 2765TIP3   OH2 8300   5.126   1.617   4.670
 2765TIP3    H1 8301   5.145   1.635   4.578
 2765TIP3    H2 8302   5.126   1.703   4.712
 2766TIP3   OH2 8303   3.900   5.427   3.786
 2766TIP3    H1 8304   3.989   5.431   3.749
 2766TIP3    H2 8305   3.852   5.496   3.739
 2767TIP3   OH2 8306   5.264   2.247   1.139
 2767TIP3    H1 8307   5.175   2.224   1.163
 2767TIP3    H2 8308   5.318   2.175   1.173
 2768TIP3   OH2 8309   0.945   0.084   4.563
 2768TIP3    H1 8310   0.903   0.161   4.601
 2768TIP3    H2 8311   0.979   0.036   4.639
 2769TIP3   OH2 8312   5.347   1.536   4.329
 2769TIP3    H1 8313   5.370   1.565   4.241
 2769TIP3    H2 8314   5.423   1.557   4.382
 2770TIP3   OH2 8315   2.639   0.589   2.023
 2770TIP3    H1 8316   2.590   0.527   1.969
 2770TIP3    H2 8317   2.729   0.580   1.992
 2771TIP3   OH2 8318   1.778   2.881   2.353
 2771TIP3    H1 8319   1.728   2.875   2.272
 2771TIP3    H2 8320   1.750   2.804   2.404
 2772TIP3   OH2 8321   4.097   0.657   4.271
 2772TIP3    H1 8322   4.067   0.607   4.347
 2772TIP3    H2 8323   4.152   0.726   4.308
 2773TIP3   OH2 8324   1.242   3.619   4.323
 2773TIP3    H1 8325   1.172   3.620   4.389
 2773TIP3    H2 8326   1.317   3.579   4.369
 2774TIP3   OH2 8327   4.857   4.276   4.830
 2774TIP3    H1 8328   4.831   4.218   4.903
 2774TIP3    H2 8329   4.886   4.216   4.762
 2775TIP3   OH2 8330   2.520   1.821   4.531
 2775TIP3    H1 8331   2.559   1.865   4.606
 2775TIP3    H2 8332   2.507   1.890   4.466
 2776TIP3   OH2 8333   2.879   5.024   2.808
 2776TIP3    H1 8334   2.971   5.029   2.834
 2776TIP3    H2 8335   2.874   4.949   2.750
 2777TIP3   OH2 8336   5.041   0.323   0.025
 2777TIP3    H1 8337   5.055   0.235   0.060
 2777TIP3    H2 8338   4.956   0.349   0.059
 2778TIP3   OH2 8339   5.221   4.084   4.565
 2778TIP3    H1 8340   5.264   4.032   4.633
 2778TIP3    H2 8341   5.286   4.092   4.496
 2779TIP3   OH2 8342   4.689   4.752   4.289
 2779TIP3    H1 8343   4.726   4.833   4.254
 2779TIP3    H2 8344   4.753   4.685   4.266
 2780TIP3   OH2 8345   1.143   5.676   2.834
 2780TIP3    H1 8346   1.147   5.740   2.763
 2780TIP3    H2 8347   1.146   5.591   2.789
 2781TIP3   OH2 8348   3.776   0.031   5.022
 2781TIP3    H1 8349   3.856   0.032   5.074
 2781TIP3    H2 8350   3.796   0.088   4.948
 2782TIP3   OH2 8351   5.360   3.224   0.670
 2782TIP3    H1 8352   5.451   3.253   0.678
 2782TIP3    H2 8353   5.365   3.128   0.668
 2783TIP3   OH2 8354   3.974   4.337   2.582
 2783TIP3    H1 8355   3.985   4.408   2.646
 2783TIP3    H2 8356   3.981   4.257   2.634
 2784TIP3   OH2 8357   3.745   5.178   4.157
 2784TIP3    H1 8358   3.770   5.255   4.106
 2784TIP3    H2 8359   3.650   5.185   4.167
 2785TIP3   OH2 8360   4.622   1.096   4.412
 2785TIP3    H1 8361   4.620   1.046   4.493
 2785TIP3    H2 8362   4.541   1.072   4.366
 2786TIP3   OH2 8363   3.392   3.571   4.728
 2786TIP3    H1 8364   3.375   3.574   4.823
 2786TIP3    H2 8365   3.381   3.662   4.700
 2787TIP3   OH2 8366   2.491   0.646   1.082
 2787TIP3    H1 8367   2.414   0.594   1.105
 2787TIP3    H2 8368   2.562   0.582   1.072
 2788TIP3   OH2 8369   1.656   5.331   4.437
 2788TIP3    H1 8370   1.736   5.362   4.479
 2788TIP3    H2 8371   1.644   5.242   4.471
 2789TIP3   OH2 8372   5.837   5.934   2.663
 2789TIP3    H1 8373   5.865   5.882   2.588
 2789TIP3    H2 8374   5.770   5.993   2.628
 2790TIP3   OH2 8375   3.077   2.230   0.527
 2790TIP3    H1 8376   3.021   2.245   0.451
 2790TIP3    H2 8377   3.079   2.135   0.537
 2791TIP3   OH2 8378   5.371   2.233   0.872
 2791TIP3    H1 8379   5.391   2.157   0.927
 2791TIP3    H2 8380   5.340   2.299   0.934
 2792TIP3   OH2 8381   3.071   5.866   3.981
 2792TIP3    H1 8382   3.005   5.917   4.029
 2792TIP3    H2 8383   3.129   5.931   3.942
 2793TIP3   OH2 8384   4.122   3.401   4.208
 2793TIP3    H1 8385   4.049   3.379   4.149
 2793TIP3    H2 8386   4.080   3.414   4.293
 2794TIP3   OH2 8387   0.157   2.969   2.985
 2794TIP3    H1 8388   0.062   2.971   2.985
 2794TIP3    H2 8389   0.181   2.930   3.069
 2795TIP3   OH2 8390   0.356   4.741   4.137
 2795TIP3    H1 8391   0.429   4.782   4.091
 2795TIP3    H2 8392   0.278   4.771   4.090
 2796TIP3   OH2 8393   2.490   1.492   1.930
 2796TIP3    H1 8394   2.486   1.399   1.952
 2796TIP3    H2 8395   2.583   1.514   1.938
 2797TIP3   OH2 8396   1.009   2.809   3.138
 2797TIP3    H1 8397   1.033   2.853   3.056
 2797TIP3    H2 8398   1.071   2.843   3.202
 2798TIP3   OH2 8399   4.534   1.715   2.499
 2798TIP3    H1 8400   4.489   1.640   2.537
 2798TIP3    H2 8401   4.533   1.698   2.404
 2799TIP3   OH2 8402   5.310   3.800   0.119
 2799TIP3    H1 8403   5.306   3.721   0.065
 2799TIP3    H2 8404   5.220   3.834   0.119
 2800TIP3   OH2 8405   5.517   5.634   3.907
 2800TIP3    H1 8406   5.487   5.567   3.970
 2800TIP3    H2 8407   5.444   5.696   3.901
 2801TIP3   OH2 8408   4.378   2.382   2.585
 2801TIP3    H1 8409   4.356   2.297   2.622
 2801TIP3    H2 8410   4.310   2.441   2.618
 2802TIP3   OH2 8411   3.500   2.511   0.135
 2802TIP3    H1 8412   3.550   2.523   0.054
 2802TIP3    H2 8413   3.553   2.452   0.188
 2803TIP3   OH2 8414   5.557   5.569   1.123
 2803TIP3    H1 8415   5.487   5.542   1.064
 2803TIP3    H2 8416   5.599   5.487   1.150
 2804TIP3   OH2 8417   6.241   1.928   1.254
 2804TIP3    H1 8418   6.288   1.845   1.263
 2804TIP3    H2 8419   6.238   1.964   1.343
 2805TIP3   OH2 8420   4.317   5.347   0.118
 2805TIP3    H1 8421   4.232   5.302   0.121
 2805TIP3    H2 8422   4.304   5.426   0.169
 2806TIP3   OH2 8423   3.831   3.201   3.667
 2806TIP3    H1 8424   3.794   3.280   3.705
 2806TIP3    H2 8425   3.821   3.212   3.573
 2807TIP3   OH2 8426   0.202   1.782   4.748
 2807TIP3    H1 8427   0.108   1.787   4.730
 2807TIP3    H2 8428   0.216   1.692   4.778
 2808TIP3   OH2 8429   0.485   3.194   1.124
 2808TIP3    H1 8430   0.579   3.187   1.142
 2808TIP3    H2 8431   0.460   3.108   1.091
 2809TIP3   OH2 8432   6.088   4.049   3.592
 2809TIP3    H1 8433   6.131   4.106   3.656
 2809TIP3    H2 8434   6.146   3.973   3.586
 2810TIP3   OH2 8435   5.426   1.393   3.978
 2810TIP3    H1 8436   5.466   1.477   3.958
 2810TIP3    H2 8437   5.498   1.330   3.972
 2811TIP3   OH2 8438   0.090   1.872   3.462
 2811TIP3    H1 8439   0.181   1.886   3.488
 2811TIP3    H2 8440   0.054   1.961   3.457
 2812TIP3   OH2 8441   1.007   2.298   4.932
 2812TIP3    H1 8442   1.047   2.372   4.978
 2812TIP3    H2 8443   0.941   2.264   4.992
 2813TIP3   OH2 8444   4.711   3.511   3.478
 2813TIP3    H1 8445   4.685   3.492   3.568
 2813TIP3    H2 8446   4.662   3.448   3.425
 2814TIP3   OH2 8447   0.566   1.592   1.359
 2814TIP3    H1 8448   0.618   1.512   1.354
 2814TIP3    H2 8449   0.476   1.563   1.341
 2815TIP3   OH2 8450   1.456   4.363   3.006
 2815TIP3    H1 8451   1.413   4.355   2.921
 2815TIP3    H2 8452   1.478   4.456   3.012
 2816TIP3   OH2 8453   3.758   4.655   0.929
 2816TIP3    H1 8454   3.689   4.647   0.863
 2816TIP3    H2 8455   3.712   4.678   1.010
 2817TIP3   OH2 8456   5.615   5.466   4.453
 2817TIP3    H1 8457   5.584   5.424   4.372
 2817TIP3    H2 8458   5.709   5.477   4.440
 2818TIP3   OH2 8459   0.033   1.730   4.152
 2818TIP3    H1 8460  -0.033   1.716   4.084
 2818TIP3    H2 8461   0.018   1.819   4.182
 2819TIP3   OH2 8462   5.638   3.154   4.007
 2819TIP3    H1 8463   5.647   3.202   3.924
 2819TIP3    H2 8464   5.593   3.214   4.065
 2820TIP3   OH2 8465   1.903   2.704   2.010
 2820TIP3    H1 8466   1.826   2.755   1.985
 2820TIP3    H2 8467   1.933   2.744   2.092
 2821TIP3   OH2 8468   5.816   0.370   3.910
 2821TIP3    H1 8469   5.905   0.338   3.894
 2821TIP3    H2 8470   5.824   0.465   3.902
 2822TIP3   OH2 8471   0.029   0.448   3.398
 2822TIP3    H1 8472  -0.047   0.504   3.383
 2822TIP3    H2 8473   0.036   0.442   3.493
 2823TIP3   OH2 8474   4.126   0.217   4.674
 2823TIP3    H1 8475   4.200   0.263   4.713
 2823TIP3    H2 8476   4.108   0.145   4.734
 2824TIP3   OH2 8477   2.726   0.478   0.317
 2824TIP3    H1 8478   2.783   0.466   0.241
 2824TIP3    H2 8479   2.679   0.395   0.326
 2825TIP3   OH2 8480   5.440   5.896   5.178
 2825TIP3    H1 8481   5.414   5.891   5.086
 2825TIP3    H2 8482   5.535   5.906   5.176
 2826TIP3   OH2 8483   2.978   4.250   0.939
 2826TIP3    H1 8484   2.987   4.189   0.865
 2826TIP3    H2 8485   3.047   4.223   1.000
 2827TIP3   OH2 8486   1.107   0.369   1.588
 2827TIP3    H1 8487   1.123   0.282   1.553
 2827TIP3    H2 8488   1.029   0.400   1.541
 2828TIP3   OH2 8489   1.314   3.285   0.880
 2828TIP3    H1 8490   1.388   3.344   0.886
 2828TIP3    H2 8491   1.313   3.255   0.789
 2829TIP3   OH2 8492   0.699   1.187   0.500
 2829TIP3    H1 8493   0.686   1.241   0.422
 2829TIP3    H2 8494   0.721   1.249   0.569
 2830TIP3   OH2 8495   5.883   5.184   3.689
 2830TIP3    H1 8496   5.926   5.117   3.743
 2830TIP3    H2 8497   5.810   5.138   3.648
 2831TIP3   OH2 8498   4.452   1.798   3.132
 2831TIP3    H1 8499   4.531   1.806   3.185
 2831TIP3    H2 8500   4.467   1.720   3.079
 2832TIP3   OH2 8501   1.466   4.083   4.285
 2832TIP3    H1 8502   1.526   4.109   4.354
 2832TIP3    H2 8503   1.442   4.165   4.242
 2833TIP3   OH2 8504   1.288   2.192   1.764
 2833TIP3    H1 8505   1.349   2.118   1.770
 2833TIP3    H2 8506   1.343   2.267   1.745
 2834TIP3   OH2 8507   1.459   5.220   3.505
 2834TIP3    H1 8508   1.410   5.148   3.465
 2834TIP3    H2 8509   1.428   5.299   3.460
 2835TIP3   OH2 8510   2.634   2.031   2.960
 2835TIP3    H1 8511   2.713   2.071   2.925
 2835TIP3    H2 8512   2.592   1.990   2.884
 2836TIP3   OH2 8513   3.331   5.488   1.642
 2836TIP3    H1 8514   3.400   5.506   1.577
 2836TIP3    H2 8515   3.354   5.402   1.677
 2837TIP3   OH2 8516   2.426   4.816   5.041
 2837TIP3    H1 8517   2.415   4.821   5.135
 2837TIP3    H2 8518   2.432   4.907   5.011
 2838TIP3   OH2 8519   0.058   1.364   1.478
 2838TIP3    H1 8520  -0.034   1.387   1.463
 2838TIP3    H2 8521   0.053   1.284   1.532
 2839TIP3   OH2 8522   4.328   2.330   4.908
 2839TIP3    H1 8523   4.328   2.252   4.963
 2839TIP3    H2 8524   4.408   2.322   4.856
 2840TIP3   OH2 8525   0.314   5.050   1.550
 2840TIP3    H1 8526   0.407   5.062   1.570
 2840TIP3    H2 8527   0.268   5.086   1.625
 2841TIP3   OH2 8528   4.583   4.877   3.538
 2841TIP3    H1 8529   4.510   4.867   3.599
 2841TIP3    H2 8530   4.602   4.971   3.539
 2842TIP3   OH2 8531   3.026   0.112   2.356
 2842TIP3    H1 8532   2.964   0.152   2.295
 2842TIP3    H2 8533   3.013   0.018   2.344
 2843TIP3   OH2 8534   6.330   3.469   4.822
 2843TIP3    H1 8535   6.393   3.414   4.775
 2843TIP3    H2 8536   6.248   3.419   4.819
 2844TIP3   OH2 8537   5.892   4.901   5.161
 2844TIP3    H1 8538   5.972   4.911   5.109
 2844TIP3    H2 8539   5.923   4.872   5.247
 2845TIP3   OH2 8540   0.521   2.348   4.195
 2845TIP3    H1 8541   0.610   2.378   4.174
 2845TIP3    H2 8542   0.501   2.283   4.129
 2846TIP3   OH2 8543   4.972   0.147   0.219
 2846TIP3    H1 8544   4.896   0.095   0.198
 2846TIP3    H2 8545   4.957   0.177   0.309
 2847TIP3   OH2 8546   0.234   4.524   4.243
 2847TIP3    H1 8547   0.298   4.590   4.217
 2847TIP3    H2 8548   0.149   4.566   4.227
 2848TIP3   OH2 8549   1.608   4.650   0.982
 2848TIP3    H1 8550   1.599   4.631   0.889
 2848TIP3    H2 8551   1.614   4.745   0.987
 2849TIP3   OH2 8552   5.018   4.105   4.119
 2849TIP3    H1 8553   5.050   4.015   4.127
 2849TIP3    H2 8554   5.092   4.152   4.080
 2850TIP3   OH2 8555   0.552   1.651   0.559
 2850TIP3    H1 8556   0.461   1.625   0.551
 2850TIP3    H2 8557   0.556   1.739   0.521
 2851TIP3   OH2 8558   2.000   0.515   2.833
 2851TIP3    H1 8559   1.993   0.610   2.825
 2851TIP3    H2 8560   1.924   0.490   2.885
 2852TIP3   OH2 8561   1.585   4.127   3.005
 2852TIP3    H1 8562   1.512   4.070   3.027
 2852TIP3    H2 8563   1.550   4.216   3.017
 2853TIP3   OH2 8564   6.027   2.199   3.287
 2853TIP3    H1 8565   6.001   2.120   3.239
 2853TIP3    H2 8566   6.090   2.242   3.230
 2854TIP3   OH2 8567   2.829   3.594   2.055
 2854TIP3    H1 8568   2.821   3.499   2.065
 2854TIP3    H2 8569   2.753   3.630   2.100
 2855TIP3   OH2 8570   2.752   2.370   0.791
 2855TIP3    H1 8571   2.796   2.299   0.745
 2855TIP3    H2 8572   2.694   2.326   0.853
 2856TIP3   OH2 8573   2.880   4.067   4.895
 2856TIP3    H1 8574   2.945   4.036   4.958
 2856TIP3    H2 8575   2.905   4.158   4.878
 2857TIP3   OH2 8576   3.099   2.207   2.559
 2857TIP3    H1 8577   3.096   2.113   2.574
 2857TIP3    H2 8578   3.074   2.218   2.467
 2858TIP3   OH2 8579   4.875   3.355   0.626
 2858TIP3    H1 8580   4.939   3.311   0.571
 2858TIP3    H2 8581   4.842   3.426   0.571
 2859TIP3   OH2 8582   2.631   1.621   1.665
 2859TIP3    H1 8583   2.659   1.532   1.643
 2859TIP3    H2 8584   2.650   1.630   1.758
 2860TIP3   OH2 8585   0.335   3.102   1.631
 2860TIP3    H1 8586   0.393   3.138   1.564
 2860TIP3    H2 8587   0.369   3.139   1.713
 2861TIP3   OH2 8588   6.001   3.389   4.282
 2861TIP3    H1 8589   6.080   3.442   4.267
 2861TIP3    H2 8590   5.934   3.432   4.229
 2862TIP3   OH2 8591   0.328   5.076   0.748
 2862TIP3    H1 8592   0.394   5.144   0.737
 2862TIP3    H2 8593   0.377   4.998   0.773
 2863TIP3   OH2 8594   1.659   4.634   0.709
 2863TIP3    H1 8595   1.747   4.596   0.711
 2863TIP3    H2 8596   1.627   4.617   0.621
 2864TIP3   OH2 8597   6.067   2.133   0.174
 2864TIP3    H1 8598   6.063   2.101   0.264
 2864TIP3    H2 8599   6.019   2.068   0.123
 2865TIP3   OH2 8600   0.736   1.050   4.933
 2865TIP3    H1 8601   0.692   1.134   4.923
 2865TIP3    H2 8602   0.703   1.015   5.016
 2866TIP3   OH2 8603   0.976   5.092   1.653
 2866TIP3    H1 8604   1.060   5.135   1.638
 2866TIP3    H2 8605   0.943   5.131   1.734
 2867TIP3   OH2 8606   0.052   3.144   3.571
 2867TIP3    H1 8607   0.095   3.167   3.654
 2867TIP3    H2 8608   0.124   3.116   3.515
 2868TIP3   OH2 8609   5.659   4.047   3.621
 2868TIP3    H1 8610   5.590   4.053   3.555
 2868TIP3    H2 8611   5.735   4.015   3.573
 2869TIP3   OH2 8612   1.250   5.966   2.945
 2869TIP3    H1 8613   1.224   5.983   3.036
 2869TIP3    H2 8614   1.272   5.873   2.943
 2870TIP3   OH2 8615   1.127   2.467   1.896
 2870TIP3    H1 8616   1.130   2.390   1.953
 2870TIP3    H2 8617   1.066   2.444   1.826
 2871TIP3   OH2 8618   0.030   0.606   4.519
 2871TIP3    H1 8619   0.031   0.657   4.600
 2871TIP3    H2 8620   0.052   0.517   4.547
 2872TIP3   OH2 8621   2.208   0.922   1.500
 2872TIP3    H1 8622   2.115   0.943   1.509
 2872TIP3    H2 8623   2.210   0.843   1.446
 2873TIP3   OH2 8624   5.531   2.990   0.496
 2873TIP3    H1 8625   5.546   2.941   0.415
 2873TIP3    H2 8626   5.525   3.081   0.469
 2874TIP3   OH2 8627   4.017   0.696   0.787
 2874TIP3    H1 8628   3.976   0.755   0.850
 2874TIP3    H2 8629   4.058   0.754   0.723
 2875TIP3   OH2 8630   5.564   1.522   1.105
 2875TIP3    H1 8631   5.640   1.572   1.076
 2875TIP3    H2 8632   5.544   1.558   1.192
 2876TIP3   OH2 8633   1.869   4.099   4.743
 2876TIP3    H1 8634   1.802   4.055   4.691
 2876TIP3    H2 8635   1.923   4.028   4.778
 2877TIP3   OH2 8636   2.855   5.743   1.528
 2877TIP3    H1 8637   2.899   5.658   1.534
 2877TIP3    H2 8638   2.927   5.806   1.522
 2878TIP3   OH2 8639   0.149   1.041   2.569
 2878TIP3    H1 8640   0.242   1.030   2.588
 2878TIP3    H2 8641   0.105   1.020   2.651
 2879TIP3   OH2 8642   5.506   1.456   0.844
 2879TIP3    H1 8643   5.516   1.482   0.935
 2879TIP3    H2 8644   5.420   1.414   0.840
 2880TIP3   OH2 8645   4.416   0.831   0.837
 2880TIP3    H1 8646   4.459   0.886   0.903
 2880TIP3    H2 8647   4.354   0.778   0.887
 2881TIP3   OH2 8648   1.054   6.001   3.752
 2881TIP3    H1 8649   1.045   5.972   3.843
 2881TIP3    H2 8650   1.022   5.927   3.701
 2882TIP3   OH2 8651   5.844   2.514   2.354
 2882TIP3    H1 8652   5.758   2.504   2.396
 2882TIP3    H2 8653   5.825   2.515   2.260
 2883TIP3   OH2 8654   0.493   2.133   4.046
 2883TIP3    H1 8655   0.497   2.042   4.078
 2883TIP3    H2 8656   0.541   2.131   3.963
 2884TIP3   OH2 8657   2.867   0.338   4.702
 2884TIP3    H1 8658   2.802   0.394   4.745
 2884TIP3    H2 8659   2.866   0.366   4.611
 2885TIP3   OH2 8660   6.074   4.078   4.026
 2885TIP3    H1 8661   5.987   4.119   4.024
 2885TIP3    H2 8662   6.111   4.096   3.940
 2886TIP3   OH2 8663   3.431   2.918   2.415
 2886TIP3    H1 8664   3.487   2.929   2.338
 2886TIP3    H2 8665   3.345   2.951   2.388
 2887TIP3   OH2 8666   5.930   4.176   3.417
 2887TIP3    H1 8667   5.997   4.195   3.352
 2887TIP3    H2 8668   5.973   4.117   3.479
 2888TIP3   OH2 8669   3.013   2.977   1.523
 2888TIP3    H1 8670   3.029   2.894   1.569
 2888TIP3    H2 8671   3.099   3.018   1.516
 2889TIP3   OH2 8672   0.004   5.164   0.064
 2889TIP3    H1 8673   0.054   5.121  -0.005
 2889TIP3    H2 8674   0.058   5.239   0.089
 2890TIP3   OH2 8675   2.643   3.532   1.149
 2890TIP3    H1 8676   2.604   3.448   1.174
 2890TIP3    H2 8677   2.569   3.593   1.148
 2891TIP3   OH2 8678   6.245   3.521   1.633
 2891TIP3    H1 8679   6.157   3.527   1.671
 2891TIP3    H2 8680   6.300   3.488   1.704
 2892TIP3   OH2 8681   1.452   2.994   3.255
 2892TIP3    H1 8682   1.469   3.026   3.167
 2892TIP3    H2 8683   1.519   2.927   3.270
 2893TIP3   OH2 8684   0.491   3.446   3.275
 2893TIP3    H1 8685   0.446   3.400   3.204
 2893TIP3    H2 8686   0.434   3.434   3.351
 2894TIP3   OH2 8687   1.369   4.291   3.271
 2894TIP3    H1 8688   1.396   4.319   3.184
 2894TIP3    H2 8689   1.389   4.197   3.273
 2895TIP3   OH2 8690   4.013   5.574   1.910
 2895TIP3    H1 8691   4.028   5.593   1.817
 2895TIP3    H2 8692   3.925   5.608   1.928
 2896TIP3   OH2 8693   3.898   3.097   0.369
 2896TIP3    H1 8694   3.820   3.147   0.346
 2896TIP3    H2 8695   3.893   3.017   0.317
 2897TIP3   OH2 8696   0.267   4.013   3.379
 2897TIP3    H1 8697   0.248   4.051   3.465
 2897TIP3    H2 8698   0.274   4.088   3.320
 2898TIP3   OH2 8699   4.381   5.101   3.494
 2898TIP3    H1 8700   4.364   5.173   3.433
 2898TIP3    H2 8701   4.379   5.022   3.439
 2899TIP3   OH2 8702   5.468   0.555   4.375
 2899TIP3    H1 8703   5.520   0.589   4.303
 2899TIP3    H2 8704   5.522   0.567   4.453
 2900TIP3   OH2 8705   2.182   4.716   3.754
 2900TIP3    H1 8706   2.137   4.780   3.699
 2900TIP3    H2 8707   2.250   4.766   3.798
 2901TIP3   OH2 8708   0.338   1.103   2.754
 2901TIP3    H1 8709   0.287   1.088   2.834
 2901TIP3    H2 8710   0.359   1.196   2.756
 2902TIP3   OH2 8711   0.057   3.595   5.096
 2902TIP3    H1 8712   0.015   3.573   5.013
 2902TIP3    H2 8713   0.148   3.571   5.084
 2903TIP3   OH2 8714   0.918   4.831   1.653
 2903TIP3    H1 8715   0.949   4.922   1.665
 2903TIP3    H2 8716   0.826   4.834   1.676
 2904TIP3   OH2 8717   2.951   3.406   1.700
 2904TIP3    H1 8718   2.990   3.337   1.753
 2904TIP3    H2 8719   2.903   3.359   1.632
 2905TIP3   OH2 8720   0.451   1.379   2.741
 2905TIP3    H1 8721   0.413   1.455   2.697
 2905TIP3    H2 8722   0.522   1.350   2.683
 2906TIP3   OH2 8723   5.048   5.811   5.090
 2906TIP3    H1 8724   5.072   5.859   5.011
 2906TIP3    H2 8725   5.099   5.730   5.085
 2907TIP3   OH2 8726   3.242   4.978   4.300
 2907TIP3    H1 8727   3.153   5.014   4.306
 2907TIP3    H2 8728   3.235   4.908   4.235
 2908TIP3   OH2 8729   1.694   5.712   3.619
 2908TIP3    H1 8730   1.780   5.718   3.661
 2908TIP3    H2 8731   1.641   5.662   3.681
 2909TIP3   OH2 8732   6.168   4.578   1.626
 2909TIP3    H1 8733   6.238   4.522   1.661
 2909TIP3    H2 8734   6.202   4.667   1.637
 2910TIP3   OH2 8735   3.721   2.255   4.625
 2910TIP3    H1 8736   3.753   2.194   4.558
 2910TIP3    H2 8737   3.791   2.257   4.690
 2911TIP3   OH2 8738   4.649   4.794   0.767
 2911TIP3    H1 8739   4.669   4.795   0.673
 2911TIP3    H2 8740   4.735   4.799   0.810
 2912TIP3   OH2 8741   1.443   3.565   4.932
 2912TIP3    H1 8742   1.408   3.653   4.947
 2912TIP3    H2 8743   1.536   3.579   4.915
 2913TIP3   OH2 8744   5.381   0.878   3.124
 2913TIP3    H1 8745   5.476   0.882   3.113
 2913TIP3    H2 8746   5.359   0.960   3.168
 2914TIP3   OH2 8747   0.690   5.306   3.985
 2914TIP3    H1 8748   0.704   5.283   3.894
 2914TIP3    H2 8749   0.706   5.401   3.989
 2915TIP3   OH2 8750   6.115   4.388   4.656
 2915TIP3    H1 8751   6.165   4.374   4.736
 2915TIP3    H2 8752   6.083   4.478   4.663
 2916TIP3   OH2 8753   0.783   5.057   4.178
 2916TIP3    H1 8754   0.846   5.126   4.156
 2916TIP3    H2 8755   0.700   5.103   4.187
 2917TIP3   OH2 8756   1.607   2.430   0.237
 2917TIP3    H1 8757   1.641   2.357   0.186
 2917TIP3    H2 8758   1.686   2.477   0.267
 2918TIP3   OH2 8759   5.298   4.417   0.197
 2918TIP3    H1 8760   5.273   4.386   0.110
 2918TIP3    H2 8761   5.391   4.437   0.190
 2919TIP3   OH2 8762   3.967   0.399   4.915
 2919TIP3    H1 8763   4.054   0.375   4.947
 2919TIP3    H2 8764   3.984   0.466   4.849
 2920TIP3   OH2 8765   0.061   2.497   1.224
 2920TIP3    H1 8766  -0.020   2.534   1.260
 2920TIP3    H2 8767   0.107   2.464   1.301
 2921TIP3   OH2 8768   1.930   5.216   4.669
 2921TIP3    H1 8769   1.987   5.276   4.622
 2921TIP3    H2 8770   1.891   5.161   4.600
 2922TIP3   OH2 8771   5.211   1.761   2.978
 2922TIP3    H1 8772   5.227   1.803   2.894
 2922TIP3    H2 8773   5.175   1.831   3.033
 2923TIP3   OH2 8774   4.280   5.487   3.971
 2923TIP3    H1 8775   4.227   5.565   3.955
 2923TIP3    H2 8776   4.217   5.419   3.994
 2924TIP3   OH2 8777   4.243   3.184   1.907
 2924TIP3    H1 8778   4.212   3.263   1.952
 2924TIP3    H2 8779   4.163   3.142   1.874
 2925TIP3   OH2 8780   5.088   2.148   3.363
 2925TIP3    H1 8781   5.024   2.097   3.412
 2925TIP3    H2 8782   5.089   2.233   3.406
 2926TIP3   OH2 8783   2.167   2.027   4.931
 2926TIP3    H1 8784   2.222   2.069   4.997
 2926TIP3    H2 8785   2.147   1.941   4.967
 2927TIP3   OH2 8786   1.962   5.965   3.393
 2927TIP3    H1 8787   1.989   5.885   3.439
 2927TIP3    H2 8788   1.902   6.009   3.453
 2928TIP3   OH2 8789   2.247   0.374   2.935
 2928TIP3    H1 8790   2.186   0.378   2.861
 2928TIP3    H2 8791   2.288   0.288   2.927
 2929TIP3   OH2 8792   1.081   0.665   1.622
 2929TIP3    H1 8793   1.112   0.580   1.588
 2929TIP3    H2 8794   1.139   0.729   1.581
 2930TIP3   OH2 8795   3.649   0.771   0.290
 2930TIP3    H1 8796   3.584   0.741   0.353
 2930TIP3    H2 8797   3.610   0.848   0.249
 2931TIP3   OH2 8798   2.506   0.262   2.663
 2931TIP3    H1 8799   2.441   0.255   2.593
 2931TIP3    H2 8800   2.583   0.217   2.628
 2932TIP3   OH2 8801   5.623   4.337   0.975
 2932TIP3    H1 8802   5.716   4.350   0.992
 2932TIP3    H2 8803   5.617   4.324   0.880
 2933TIP3   OH2 8804   4.472   5.369   1.509
 2933TIP3    H1 8805   4.383   5.362   1.542
 2933TIP3    H2 8806   4.527   5.339   1.581
 2934TIP3   OH2 8807   0.595   1.397   3.650
 2934TIP3    H1 8808   0.549   1.403   3.733
 2934TIP3    H2 8809   0.683   1.366   3.673
 2935TIP3   OH2 8810   1.852   0.263   3.265
 2935TIP3    H1 8811   1.911   0.255   3.340
 2935TIP3    H2 8812   1.904   0.304   3.197
 2936TIP3   OH2 8813   0.207   1.871   0.891
 2936TIP3    H1 8814   0.229   1.834   0.976
 2936TIP3    H2 8815   0.132   1.928   0.908
 2937TIP3   OH2 8816   0.508   5.339   3.025
 2937TIP3    H1 8817   0.453   5.276   2.980
 2937TIP3    H2 8818   0.508   5.416   2.968
 2938TIP3   OH2 8819   4.571   2.785   3.093
 2938TIP3    H1 8820   4.579   2.793   3.188
 2938TIP3    H2 8821   4.477   2.799   3.076
 2939TIP3   OH2 8822   2.599   5.274   2.434
 2939TIP3    H1 8823   2.573   5.195   2.385
 2939TIP3    H2 8824   2.593   5.344   2.369
 2940TIP3   OH2 8825   5.236   4.894   0.783
 2940TIP3    H1 8826   5.327   4.870   0.761
 2940TIP3    H2 8827   5.199   4.924   0.700
 2941TIP3   OH2 8828   2.075   4.336   1.305
 2941TIP3    H1 8829   2.145   4.303   1.362
 2941TIP3    H2 8830   2.020   4.260   1.289
 2942TIP3   OH2 8831   5.107   1.938   1.913
 2942TIP3    H1 8832   5.111   2.034   1.922
 2942TIP3    H2 8833   5.198   1.910   1.912
 2943TIP3   OH2 8834   5.117   4.585   0.303
 2943TIP3    H1 8835   5.046   4.522   0.317
 2943TIP3    H2 8836   5.190   4.533   0.270
 2944TIP3   OH2 8837   0.268   2.860   3.239
 2944TIP3    H1 8838   0.338   2.820   3.187
 2944TIP3    H2 8839   0.312   2.932   3.286
 2945TIP3   OH2 8840   3.215   4.639   3.845
 2945TIP3    H1 8841   3.165   4.656   3.766
 2945TIP3    H2 8842   3.242   4.547   3.838
 2946TIP3   OH2 8843   5.818   2.747   2.703
 2946TIP3    H1 8844   5.732   2.749   2.660
 2946TIP3    H2 8845   5.853   2.661   2.682
 2947TIP3   OH2 8846   5.343   1.084   2.541
 2947TIP3    H1 8847   5.304   1.005   2.579
 2947TIP3    H2 8848   5.427   1.054   2.506
 2948TIP3   OH2 8849   6.164   0.812   4.787
 2948TIP3    H1 8850   6.075   0.809   4.751
 2948TIP3    H2 8851   6.210   0.876   4.732
 2949TIP3   OH2 8852   5.402   3.514   4.888
 2949TIP3    H1 8853   5.450   3.447   4.936
 2949TIP3    H2 8854   5.322   3.528   4.940
 2950TIP3   OH2 8855   5.897   5.239   5.092
 2950TIP3    H1 8856   5.821   5.193   5.128
 2950TIP3    H2 8857   5.863   5.284   5.015
 2951TIP3   OH2 8858   1.171   5.538   0.239
 2951TIP3    H1 8859   1.166   5.445   0.218
 2951TIP3    H2 8860   1.264   5.555   0.252
 2952TIP3   OH2 8861   2.151   4.847   4.907
 2952TIP3    H1 8862   2.220   4.784   4.930
 2952TIP3    H2 8863   2.188   4.899   4.836
 2953TIP3   OH2 8864   6.263   4.153   3.804
 2953TIP3    H1 8865   6.309   4.204   3.737
 2953TIP3    H2 8866   6.305   4.068   3.802
 2954TIP3   OH2 8867   4.309   1.379   2.940
 2954TIP3    H1 8868   4.281   1.327   2.864
 2954TIP3    H2 8869   4.228   1.403   2.984
 2955TIP3   OH2 8870   0.346   1.322   3.878
 2955TIP3    H1 8871   0.254   1.328   3.854
 2955TIP3    H2 8872   0.359   1.229   3.900
 2956TIP3   OH2 8873   5.016   5.077   4.836
 2956TIP3    H1 8874   5.017   5.136   4.761
 2956TIP3    H2 8875   5.000   4.991   4.798
 2957TIP3   OH2 8876   5.096   5.633   0.685
 2957TIP3    H1 8877   5.170   5.613   0.626
 2957TIP3    H2 8878   5.039   5.690   0.634
 2958TIP3   OH2 8879   1.363   1.130   3.011
 2958TIP3    H1 8880   1.400   1.204   3.057
 2958TIP3    H2 8881   1.268   1.144   3.014
 2959TIP3   OH2 8882   2.488   4.106   3.450
 2959TIP3    H1 8883   2.431   4.182   3.442
 2959TIP3    H2 8884   2.530   4.117   3.535
 2960TIP3   OH2 8885   0.850   3.218   2.495
 2960TIP3    H1 8886   0.822   3.176   2.577
 2960TIP3    H2 8887   0.843   3.150   2.429
 2961TIP3   OH2 8888   1.470   1.938   1.445
 2961TIP3    H1 8889   1.394   1.936   1.502
 2961TIP3    H2 8890   1.485   2.031   1.428
 2962TIP3   OH2 8891   1.891   0.040   1.598
 2962TIP3    H1 8892   1.836  -0.015   1.653
 2962TIP3    H2 8893   1.974  -0.007   1.591
 2963TIP3   OH2 8894   5.303   3.541   4.628
 2963TIP3    H1 8895   5.358   3.554   4.705
 2963TIP3    H2 8896   5.315   3.449   4.604
 2964TIP3   OH2 8897   3.407   3.010   1.307
 2964TIP3    H1 8898   3.325   3.051   1.335
 2964TIP3    H2 8899   3.383   2.920   1.285
 2965TIP3   OH2 8900   3.964   4.920   2.961
 2965TIP3    H1 8901   3.869   4.930   2.969
 2965TIP3    H2 8902   3.979   4.826   2.969
 2966TIP3   OH2 8903   3.828   1.204   4.527
 2966TIP3    H1 8904   3.752   1.147   4.512
 2966TIP3    H2 8905   3.841   1.250   4.444
 2967TIP3   OH2 8906   3.386   2.227   0.555
 2967TIP3    H1 8907   3.392   2.317   0.586
 2967TIP3    H2 8908   3.293   2.215   0.535
 2968TIP3   OH2 8909   4.786   0.892   1.721
 2968TIP3    H1 8910   4.807   0.857   1.634
 2968TIP3    H2 8911   4.690   0.891   1.724
 2969TIP3   OH2 8912   2.566   1.882   3.811
 2969TIP3    H1 8913   2.545   1.879   3.905
 2969TIP3    H2 8914   2.482   1.866   3.767
 2970TIP3   OH2 8915   3.229   3.779   1.772
 2970TIP3    H1 8916   3.138   3.750   1.758
 2970TIP3    H2 8917   3.270   3.707   1.819
 2971TIP3   OH2 8918   4.918   1.972   4.439
 2971TIP3    H1 8919   4.896   1.960   4.532
 2971TIP3    H2 8920   5.013   1.982   4.438
 2972TIP3   OH2 8921   6.214   5.838   3.661
 2972TIP3    H1 8922   6.203   5.758   3.610
 2972TIP3    H2 8923   6.248   5.902   3.599
 2973TIP3   OH2 8924   6.109   4.319   1.218
 2973TIP3    H1 8925   6.196   4.290   1.245
 2973TIP3    H2 8926   6.108   4.413   1.236
 2974TIP3   OH2 8927   3.518   5.655   4.608
 2974TIP3    H1 8928   3.572   5.578   4.622
 2974TIP3    H2 8929   3.434   5.620   4.576
 2975TIP3   OH2 8930   1.022   4.137   3.164
 2975TIP3    H1 8931   0.941   4.172   3.202
 2975TIP3    H2 8932   1.002   4.127   3.070
 2976TIP3   OH2 8933   3.173   1.856   2.992
 2976TIP3    H1 8934   3.182   1.952   2.985
 2976TIP3    H2 8935   3.251   1.829   3.040
 2977TIP3   OH2 8936   2.795   4.334   2.148
 2977TIP3    H1 8937   2.707   4.328   2.111
 2977TIP3    H2 8938   2.828   4.418   2.116
 2978TIP3   OH2 8939   5.264   5.777   1.918
 2978TIP3    H1 8940   5.218   5.823   1.848
 2978TIP3    H2 8941   5.284   5.844   1.982
 2979TIP3   OH2 8942   2.171   2.551   4.524
 2979TIP3    H1 8943   2.243   2.568   4.585
 2979TIP3    H2 8944   2.128   2.472   4.559
 2980TIP3   OH2 8945   2.147   0.725   5.032
 2980TIP3    H1 8946   2.135   0.798   4.971
 2980TIP3    H2 8947   2.181   0.766   5.112
 2981TIP3   OH2 8948   2.249   1.343   3.449
 2981TIP3    H1 8949   2.292   1.415   3.497
 2981TIP3    H2 8950   2.161   1.375   3.433
 2982TIP3   OH2 8951   0.469   5.973   3.797
 2982TIP3    H1 8952   0.471   5.920   3.877
 2982TIP3    H2 8953   0.397   5.935   3.746
 2983TIP3   OH2 8954   0.511   1.774   1.945
 2983TIP3    H1 8955   0.497   1.834   1.872
 2983TIP3    H2 8956   0.537   1.692   1.904
 2984TIP3   OH2 8957   4.872   5.480   3.432
 2984TIP3    H1 8958   4.845   5.522   3.351
 2984TIP3    H2 8959   4.903   5.394   3.404
 2985TIP3   OH2 8960   5.434   2.670   0.099
 2985TIP3    H1 8961   5.426   2.678   0.004
 2985TIP3    H2 8962   5.344   2.675   0.132
 2986TIP3   OH2 8963   3.779   0.691   5.127
 2986TIP3    H1 8964   3.871   0.697   5.103
 2986TIP3    H2 8965   3.769   0.756   5.198
 2987TIP3   OH2 8966   2.653   2.491   4.837
 2987TIP3    H1 8967   2.729   2.542   4.808
 2987TIP3    H2 8968   2.687   2.435   4.907
 2988TIP3   OH2 8969   5.836   0.056   1.584
 2988TIP3    H1 8970   5.754   0.064   1.634
 2988TIP3    H2 8971   5.905   0.078   1.647
 2989TIP3   OH2 8972   3.750   1.827   0.475
 2989TIP3    H1 8973   3.781   1.818   0.566
 2989TIP3    H2 8974   3.679   1.890   0.480
 2990TIP3   OH2 8975   1.791   5.989   2.350
 2990TIP3    H1 8976   1.704   6.027   2.364
 2990TIP3    H2 8977   1.800   5.924   2.420
 2991TIP3   OH2 8978   1.323   0.178   1.077
 2991TIP3    H1 8979   1.417   0.200   1.071
 2991TIP3    H2 8980   1.312   0.106   1.016
 2992TIP3   OH2 8981   2.483   4.819   4.503
 2992TIP3    H1 8982   2.451   4.825   4.593
 2992TIP3    H2 8983   2.482   4.726   4.483
 2993TIP3   OH2 8984   0.147   4.896   4.661
 2993TIP3    H1 8985   0.204   4.887   4.585
 2993TIP3    H2 8986   0.206   4.913   4.734
 2994TIP3   OH2 8987   1.964   2.989   1.741
 2994TIP3    H1 8988   2.023   2.954   1.675
 2994TIP3    H2 8989   2.005   3.070   1.770
 2995TIP3   OH2 8990   5.985   0.903   4.392
 2995TIP3    H1 8991   6.070   0.945   4.388
 2995TIP3    H2 8992   6.002   0.818   4.434
 2996TIP3   OH2 8993   2.800   3.654   1.685
 2996TIP3    H1 8994   2.865   3.586   1.704
 2996TIP3    H2 8995   2.786   3.649   1.591
 2997TIP3   OH2 8996   3.437   4.016   3.803
 2997TIP3    H1 8997   3.472   3.978   3.883
 2997TIP3    H2 8998   3.343   3.996   3.806
 2998TIP3   OH2 8999   4.337   2.929   5.159
 2998TIP3    H1 9000   4.242   2.927   5.170
 2998TIP3    H2 9001   4.363   3.013   5.198
 2999TIP3   OH2 9002   2.726   5.926   2.560
 2999TIP3    H1 9003   2.720   6.011   2.605
 2999TIP3    H2 9004   2.687   5.864   2.622
 3000TIP3   OH2 9005   5.390   1.949   5.087
 3000TIP3    H1 9006   5.371   1.992   5.004
 3000TIP3    H2 9007   5.469   1.897   5.070
 3001TIP3   OH2 9008   0.957   0.596   2.739
 3001TIP3    H1 9009   0.925   0.599   2.649
 3001TIP3    H2 9010   1.017   0.521   2.741
 3002TIP3   OH2 9011   3.494   1.096   4.204
 3002TIP3    H1 9012   3.566   1.040   4.232
 3002TIP3    H2 9013   3.426   1.085   4.271
 3003TIP3   OH2 9014   2.326   1.403   4.139
 3003TIP3    H1 9015   2.283   1.453   4.209
 3003TIP3    H2 9016   2.400   1.361   4.182
 3004TIP3   OH2 9017   0.417   5.866   4.479
 3004TIP3    H1 9018   0.438   5.812   4.555
 3004TIP3    H2 9019   0.367   5.809   4.421
 3005TIP3   OH2 9020   4.647   3.841   5.047
 3005TIP3    H1 9021   4.641   3.749   5.021
 3005TIP3    H2 9022   4.615   3.843   5.137
 3006TIP3   OH2 9023   5.098   1.534   0.274
 3006TIP3    H1 9024   5.139   1.576   0.199
 3006TIP3    H2 9025   5.025   1.485   0.237
 3007TIP3   OH2 9026   4.467   5.012   4.013
 3007TIP3    H1 9027   4.432   5.085   4.064
 3007TIP3    H2 9028   4.553   5.043   3.984
 3008TIP3   OH2 9029   0.787   4.157   1.741
 3008TIP3    H1 9030   0.744   4.241   1.726
 3008TIP3    H2 9031   0.878   4.172   1.717
 3009TIP3   OH2 9032   4.797   2.389   4.999
 3009TIP3    H1 9033   4.760   2.478   4.995
 3009TIP3    H2 9034   4.836   2.384   5.086
 3010TIP3   OH2 9035   3.320   2.452   0.722
 3010TIP3    H1 9036   3.311   2.513   0.649
 3010TIP3    H2 9037   3.281   2.498   0.796
 3011TIP3   OH2 9038   4.704   3.029   2.507
 3011TIP3    H1 9039   4.696   2.990   2.594
 3011TIP3    H2 9040   4.689   2.956   2.447
 3012TIP3   OH2 9041   3.518   2.923   1.991
 3012TIP3    H1 9042   3.449   2.929   1.924
 3012TIP3    H2 9043   3.549   3.012   2.001
 3013TIP3   OH2 9044   2.881   5.719   0.373
 3013TIP3    H1 9045   2.837   5.656   0.317
 3013TIP3    H2 9046   2.826   5.723   0.452
 3014TIP3   OH2 9047   1.999   1.930   1.966
 3014TIP3    H1 9048   2.079   1.879   1.982
 3014TIP3    H2 9049   2.029   2.021   1.967
 3015TIP3   OH2 9050   1.923   1.614   2.264
 3015TIP3    H1 9051   1.856   1.669   2.305
 3015TIP3    H2 9052   1.947   1.551   2.332
 3016TIP3   OH2 9053   5.078   0.172   2.528
 3016TIP3    H1 9054   5.072   0.266   2.511
 3016TIP3    H2 9055   5.063   0.131   2.442
 3017TIP3   OH2 9056   2.352   0.564   3.881
 3017TIP3    H1 9057   2.354   0.481   3.834
 3017TIP3    H2 9058   2.259   0.583   3.891
 3018TIP3   OH2 9059   3.562   2.799   0.175
 3018TIP3    H1 9060   3.646   2.774   0.213
 3018TIP3    H2 9061   3.515   2.716   0.167
 3019TIP3   OH2 9062   3.211   2.754   1.530
 3019TIP3    H1 9063   3.146   2.728   1.595
 3019TIP3    H2 9064   3.197   2.693   1.457
 3020TIP3   OH2 9065   4.073   4.212   1.484
 3020TIP3    H1 9066   4.031   4.298   1.497
 3020TIP3    H2 9067   4.145   4.230   1.424
 3021TIP3   OH2 9068   1.177   3.754   0.248
 3021TIP3    H1 9069   1.242   3.706   0.196
 3021TIP3    H2 9070   1.150   3.692   0.316
 3022TIP3   OH2 9071   4.289   0.056   1.187
 3022TIP3    H1 9072   4.338  -0.017   1.149
 3022TIP3    H2 9073   4.352   0.128   1.191
 3023TIP3   OH2 9074   0.059   5.562   2.895
 3023TIP3    H1 9075   0.113   5.509   2.837
 3023TIP3    H2 9076   0.018   5.498   2.954
 3024TIP3   OH2 9077   6.082   2.512   1.561
 3024TIP3    H1 9078   6.094   2.567   1.483
 3024TIP3    H2 9079   6.148   2.443   1.552
 3025TIP3   OH2 9080   1.045   2.313   1.663
 3025TIP3    H1 9081   1.100   2.236   1.678
 3025TIP3    H2 9082   0.968   2.298   1.718
 3026TIP3   OH2 9083   1.482   2.823   4.131
 3026TIP3    H1 9084   1.395   2.836   4.170
 3026TIP3    H2 9085   1.542   2.860   4.195
 3027TIP3   OH2 9086   0.335   5.676   1.170
 3027TIP3    H1 9087   0.416   5.626   1.180
 3027TIP3    H2 9088   0.265   5.614   1.194
 3028TIP3   OH2 9089   0.113   1.107   3.717
 3028TIP3    H1 9090   0.185   1.087   3.657
 3028TIP3    H2 9091   0.071   1.184   3.679
 3029TIP3   OH2 9092   0.226   3.434   4.353
 3029TIP3    H1 9093   0.309   3.388   4.360
 3029TIP3    H2 9094   0.160   3.369   4.378
 3030TIP3   OH2 9095   0.045   3.796   0.042
 3030TIP3    H1 9096  -0.010   3.810   0.119
 3030TIP3    H2 9097  -0.012   3.753  -0.022
 3031TIP3   OH2 9098   5.372   1.833   0.502
 3031TIP3    H1 9099   5.420   1.888   0.563
 3031TIP3    H2 9100   5.393   1.743   0.529
 3032TIP3   OH2 9101   4.815   1.539   3.676
 3032TIP3    H1 9102   4.885   1.565   3.616
 3032TIP3    H2 9103   4.735   1.549   3.624
 3033TIP3   OH2 9104   4.960   5.063   0.528
 3033TIP3    H1 9105   5.011   4.982   0.524
 3033TIP3    H2 9106   5.007   5.118   0.591
 3034TIP3   OH2 9107   4.801   3.060   4.750
 3034TIP3    H1 9108   4.747   3.029   4.677
 3034TIP3    H2 9109   4.851   3.134   4.714
 3035TIP3   OH2 9110   2.947   3.821   1.174
 3035TIP3    H1 9111   2.997   3.747   1.141
 3035TIP3    H2 9112   2.856   3.800   1.154
 3036TIP3   OH2 9113   2.084   4.333   3.207
 3036TIP3    H1 9114   2.168   4.369   3.235
 3036TIP3    H2 9115   2.097   4.238   3.208
 3037TIP3   OH2 9116   1.635   5.351   2.274
 3037TIP3    H1 9117   1.571   5.381   2.338
 3037TIP3    H2 9118   1.586   5.293   2.217
 3038TIP3   OH2 9119   2.335   2.501   4.770
 3038TIP3    H1 9120   2.284   2.420   4.769
 3038TIP3    H2 9121   2.427   2.472   4.775
 3039TIP3   OH2 9122   3.158   5.054   2.352
 3039TIP3    H1 9123   3.072   5.045   2.310
 3039TIP3    H2 9124   3.219   5.012   2.291
 3040TIP3   OH2 9125   1.463   3.601   2.660
 3040TIP3    H1 9126   1.472   3.509   2.686
 3040TIP3    H2 9127   1.488   3.603   2.568
 3041TIP3   OH2 9128   4.199   2.323   0.671
 3041TIP3    H1 9129   4.163   2.317   0.759
 3041TIP3    H2 9130   4.292   2.305   0.681
 3042TIP3   OH2 9131   4.228   2.056   2.406
 3042TIP3    H1 9132   4.319   2.082   2.398
 3042TIP3    H2 9133   4.228   1.988   2.473
 3043TIP3   OH2 9134   0.658   4.810   4.898
 3043TIP3    H1 9135   0.615   4.891   4.927
 3043TIP3    H2 9136   0.607   4.781   4.823
 3044TIP3   OH2 9137   4.009   3.928   1.551
 3044TIP3    H1 9138   4.006   3.922   1.456
 3044TIP3    H2 9139   3.986   4.019   1.570
 3045TIP3   OH2 9140   2.352   3.833   0.801
 3045TIP3    H1 9141   2.405   3.887   0.859
 3045TIP3    H2 9142   2.412   3.765   0.771
 3046TIP3   OH2 9143   2.323   4.521   0.635
 3046TIP3    H1 9144   2.292   4.611   0.631
 3046TIP3    H2 9145   2.291   4.488   0.719
 3047TIP3   OH2 9146   1.890   2.078   4.487
 3047TIP3    H1 9147   1.821   2.071   4.552
 3047TIP3    H2 9148   1.851   2.042   4.407
 3048TIP3   OH2 9149   3.157   2.404   5.195
 3048TIP3    H1 9150   3.224   2.356   5.147
 3048TIP3    H2 9151   3.095   2.432   5.128
 3049TIP3   OH2 9152   2.656   3.355   4.130
 3049TIP3    H1 9153   2.672   3.301   4.052
 3049TIP3    H2 9154   2.698   3.306   4.201
 3050TIP3   OH2 9155   0.559   4.609   3.728
 3050TIP3    H1 9156   0.632   4.574   3.780
 3050TIP3    H2 9157   0.481   4.592   3.782
 3051TIP3   OH2 9158   5.963   0.597   2.233
 3051TIP3    H1 9159   5.874   0.566   2.251
 3051TIP3    H2 9160   6.020   0.528   2.264
 3052TIP3   OH2 9161   0.289   3.482   3.924
 3052TIP3    H1 9162   0.232   3.480   4.001
 3052TIP3    H2 9163   0.327   3.394   3.921
 3053TIP3   OH2 9164   5.646   0.514   0.908
 3053TIP3    H1 9165   5.582   0.578   0.876
 3053TIP3    H2 9166   5.726   0.534   0.859
 3054TIP3   OH2 9167   3.685   1.265   3.756
 3054TIP3    H1 9168   3.693   1.206   3.831
 3054TIP3    H2 9169   3.620   1.222   3.700
 3055TIP3   OH2 9170   4.292   5.287   4.633
 3055TIP3    H1 9171   4.379   5.325   4.622
 3055TIP3    H2 9172   4.295   5.206   4.581
 3056TIP3   OH2 9173   1.519   4.681   2.796
 3056TIP3    H1 9174   1.582   4.613   2.819
 3056TIP3    H2 9175   1.568   4.741   2.740
 3057TIP3   OH2 9176   3.431   0.547  -0.018
 3057TIP3    H1 9177   3.383   0.482   0.033
 3057TIP3    H2 9178   3.393   0.631   0.008
 3058TIP3   OH2 9179   4.886   3.271   1.675
 3058TIP3    H1 9180   4.823   3.291   1.606
 3058TIP3    H2 9181   4.943   3.204   1.636
 3059TIP3   OH2 9182   1.974   3.800   3.952
 3059TIP3    H1 9183   1.951   3.761   4.036
 3059TIP3    H2 9184   2.008   3.886   3.974
 3060TIP3   OH2 9185   2.709   2.989   2.453
 3060TIP3    H1 9186   2.673   2.974   2.366
 3060TIP3    H2 9187   2.704   3.084   2.465
 3061TIP3   OH2 9188   1.705   0.263   0.227
 3061TIP3    H1 9189   1.701   0.244   0.133
 3061TIP3    H2 9190   1.616   0.245   0.258
 3062TIP3   OH2 9191   2.690   0.947   0.900
 3062TIP3    H1 9192   2.652   1.035   0.895
 3062TIP3    H2 9193   2.649   0.899   0.828
 3063TIP3   OH2 9194   0.570   1.282   2.053
 3063TIP3    H1 9195   0.568   1.232   2.134
 3063TIP3    H2 9196   0.640   1.346   2.066
 3064TIP3   OH2 9197   0.891   4.027   2.936
 3064TIP3    H1 9198   0.945   4.074   2.872
 3064TIP3    H2 9199   0.803   4.060   2.922
 3065TIP3   OH2 9200   0.490   2.683   2.565
 3065TIP3    H1 9201   0.506   2.772   2.599
 3065TIP3    H2 9202   0.424   2.647   2.624
 3066TIP3   OH2 9203   0.970   3.225   3.650
 3066TIP3    H1 9204   1.057   3.266   3.650
 3066TIP3    H2 9205   0.964   3.184   3.563
 3067TIP3   OH2 9206   4.290   1.323   3.227
 3067TIP3    H1 9207   4.339   1.352   3.150
 3067TIP3    H2 9208   4.353   1.273   3.278
 3068TIP3   OH2 9209   3.040   5.055   1.776
 3068TIP3    H1 9210   3.015   5.119   1.710
 3068TIP3    H2 9211   3.010   5.092   1.859
 3069TIP3   OH2 9212   5.468   5.574   0.092
 3069TIP3    H1 9213   5.428   5.615   0.169
 3069TIP3    H2 9214   5.410   5.502   0.070
 3070TIP3   OH2 9215   1.788   5.741   4.882
 3070TIP3    H1 9216   1.728   5.672   4.913
 3070TIP3    H2 9217   1.734   5.795   4.826
 3071TIP3   OH2 9218   5.984   1.641   0.580
 3071TIP3    H1 9219   6.048   1.578   0.614
 3071TIP3    H2 9220   5.918   1.649   0.648
 3072TIP3   OH2 9221   4.088   1.428   1.462
 3072TIP3    H1 9222   4.097   1.523   1.467
 3072TIP3    H2 9223   4.149   1.395   1.528
 3073TIP3   OH2 9224   5.264   2.706   3.877
 3073TIP3    H1 9225   5.189   2.744   3.831
 3073TIP3    H2 9226   5.237   2.703   3.969
 3074TIP3   OH2 9227   5.363   5.598   3.075
 3074TIP3    H1 9228   5.384   5.541   3.149
 3074TIP3    H2 9229   5.292   5.553   3.030
 3075TIP3   OH2 9230   1.742   3.603   3.741
 3075TIP3    H1 9231   1.777   3.526   3.696
 3075TIP3    H2 9232   1.803   3.673   3.719
 3076TIP3   OH2 9233   3.658   2.853   0.730
 3076TIP3    H1 9234   3.731   2.914   0.723
 3076TIP3    H2 9235   3.596   2.883   0.662
 3077TIP3   OH2 9236   0.364   5.376   0.186
 3077TIP3    H1 9237   0.382   5.309   0.119
 3077TIP3    H2 9238   0.391   5.335   0.268
 3078TIP3   OH2 9239   2.309   2.096   0.543
 3078TIP3    H1 9240   2.389   2.146   0.558
 3078TIP3    H2 9241   2.333   2.005   0.561
 3079TIP3   OH2 9242   2.875   4.054   1.627
 3079TIP3    H1 9243   2.880   4.149   1.636
 3079TIP3    H2 9244   2.880   4.021   1.717
 3080TIP3   OH2 9245   5.860   4.772   4.579
 3080TIP3    H1 9246   5.808   4.706   4.624
 3080TIP3    H2 9247   5.844   4.853   4.627
 3081TIP3   OH2 9248   1.282   4.419   4.629
 3081TIP3    H1 9249   1.366   4.403   4.586
 3081TIP3    H2 9250   1.305   4.466   4.710
 3082TIP3   OH2 9251   4.140   5.309   1.236
 3082TIP3    H1 9252   4.084   5.386   1.239
 3082TIP3    H2 9253   4.083   5.238   1.205
 3083TIP3   OH2 9254   5.444   2.144   0.150
 3083TIP3    H1 9255   5.459   2.229   0.108
 3083TIP3    H2 9256   5.381   2.100   0.093
 3084TIP3   OH2 9257   4.724   0.954   1.244
 3084TIP3    H1 9258   4.740   0.912   1.328
 3084TIP3    H2 9259   4.773   1.036   1.247
 3085TIP3   OH2 9260   0.964   5.221   1.917
 3085TIP3    H1 9261   1.031   5.154   1.933
 3085TIP3    H2 9262   1.010   5.304   1.926
 3086TIP3   OH2 9263   5.519   2.074   2.969
 3086TIP3    H1 9264   5.586   2.006   2.965
 3086TIP3    H2 9265   5.495   2.089   2.877
 3087TIP3   OH2 9266   1.724   3.947   0.556
 3087TIP3    H1 9267   1.786   3.959   0.484
 3087TIP3    H2 9268   1.649   3.902   0.515
 3088TIP3   OH2 9269   2.864   1.122   4.232
 3088TIP3    H1 9270   2.932   1.160   4.175
 3088TIP3    H2 9271   2.874   1.028   4.221
 3089TIP3   OH2 9272   0.606   2.120   1.782
 3089TIP3    H1 9273   0.654   2.159   1.709
 3089TIP3    H2 9274   0.519   2.160   1.777
 3090TIP3   OH2 9275   1.981   2.470   4.013
 3090TIP3    H1 9276   1.931   2.389   4.029
 3090TIP3    H2 9277   2.031   2.483   4.094
 3091TIP3   OH2 9278   5.467   2.880   3.853
 3091TIP3    H1 9279   5.470   2.899   3.760
 3091TIP3    H2 9280   5.394   2.819   3.863
 3092TIP3   OH2 9281   1.288   1.696   1.294
 3092TIP3    H1 9282   1.260   1.725   1.381
 3092TIP3    H2 9283   1.364   1.640   1.312
 3093TIP3   OH2 9284   5.746   0.554   0.606
 3093TIP3    H1 9285   5.736   0.459   0.606
 3093TIP3    H2 9286   5.667   0.587   0.564
 3094TIP3   OH2 9287   0.262   5.868   3.651
 3094TIP3    H1 9288   0.274   5.773   3.652
 3094TIP3    H2 9289   0.260   5.890   3.558
 3095TIP3   OH2 9290   4.039   0.725   2.993
 3095TIP3    H1 9291   3.959   0.740   2.944
 3095TIP3    H2 9292   4.108   0.726   2.927
 3096TIP3   OH2 9293   1.683   2.889   2.924
 3096TIP3    H1 9294   1.640   2.965   2.885
 3096TIP3    H2 9295   1.735   2.851   2.853
 3097TIP3   OH2 9296   1.397   4.312   0.030
 3097TIP3    H1 9297   1.402   4.407   0.022
 3097TIP3    H2 9298   1.422   4.294   0.121
 3098TIP3   OH2 9299   4.803   3.586   2.398
 3098TIP3    H1 9300   4.824   3.502   2.356
 3098TIP3    H2 9301   4.851   3.651   2.347
 3099TIP3   OH2 9302   2.197   2.515   0.415
 3099TIP3    H1 9303   2.218   2.603   0.384
 3099TIP3    H2 9304   2.248   2.456   0.359
 3100TIP3   OH2 9305   5.143   0.442   0.267
 3100TIP3    H1 9306   5.198   0.370   0.298
 3100TIP3    H2 9307   5.114   0.414   0.180
 3101TIP3   OH2 9308   2.122   1.689   2.594
 3101TIP3    H1 9309   2.120   1.662   2.686
 3101TIP3    H2 9310   2.202   1.740   2.587
 3102TIP3   OH2 9311   1.208   0.040   1.809
 3102TIP3    H1 9312   1.269   0.114   1.802
 3102TIP3    H2 9313   1.246  -0.027   1.752
 3103TIP3   OH2 9314   5.425   1.194   4.174
 3103TIP3    H1 9315   5.403   1.213   4.265
 3103TIP3    H2 9316   5.383   1.264   4.124
 3104TIP3   OH2 9317   2.813   2.466   0.102
 3104TIP3    H1 9318   2.818   2.491   0.010
 3104TIP3    H2 9319   2.747   2.525   0.139
 3105TIP3   OH2 9320   2.457   2.883   4.461
 3105TIP3    H1 9321   2.440   2.954   4.523
 3105TIP3    H2 9322   2.504   2.817   4.512
 3106TIP3   OH2 9323   6.319   3.870   1.132
 3106TIP3    H1 9324   6.365   3.930   1.190
 3106TIP3    H2 9325   6.238   3.917   1.108
 3107TIP3   OH2 9326   1.789   0.148   4.261
 3107TIP3    H1 9327   1.861   0.089   4.242
 3107TIP3    H2 9328   1.770   0.192   4.178
 3108TIP3   OH2 9329   5.924   0.981   3.101
 3108TIP3    H1 9330   5.858   0.972   3.033
 3108TIP3    H2 9331   5.899   1.062   3.147
 3109TIP3   OH2 9332   5.750   1.381   2.867
 3109TIP3    H1 9333   5.687   1.440   2.826
 3109TIP3    H2 9334   5.828   1.387   2.813
 3110TIP3   OH2 9335   5.486   5.492   3.289
 3110TIP3    H1 9336   5.569   5.446   3.302
 3110TIP3    H2 9337   5.491   5.568   3.346
 3111TIP3   OH2 9338   2.377   5.928   2.114
 3111TIP3    H1 9339   2.286   5.934   2.083
 3111TIP3    H2 9340   2.381   5.994   2.184
 3112TIP3   OH2 9341   4.007   4.649   3.450
 3112TIP3    H1 9342   3.990   4.618   3.539
 3112TIP3    H2 9343   4.057   4.579   3.409
 3113TIP3   OH2 9344   4.967   5.454   4.026
 3113TIP3    H1 9345   5.048   5.489   3.990
 3113TIP3    H2 9346   4.901   5.521   4.007
 3114TIP3   OH2 9347   2.381   3.770   2.090
 3114TIP3    H1 9348   2.474   3.787   2.071
 3114TIP3    H2 9349   2.370   3.799   2.181
 3115TIP3   OH2 9350   4.295   2.492   3.273
 3115TIP3    H1 9351   4.238   2.567   3.257
 3115TIP3    H2 9352   4.274   2.465   3.362
 3116TIP3   OH2 9353   4.026   1.688   4.353
 3116TIP3    H1 9354   4.099   1.728   4.306
 3116TIP3    H2 9355   4.044   1.706   4.446
 3117TIP3   OH2 9356   0.340   4.538   1.107
 3117TIP3    H1 9357   0.264   4.480   1.111
 3117TIP3    H2 9358   0.360   4.558   1.198
 3118TIP3   OH2 9359   5.893   2.825   1.232
 3118TIP3    H1 9360   5.948   2.837   1.154
 3118TIP3    H2 9361   5.874   2.914   1.262
 3119TIP3   OH2 9362   5.574   3.286   0.412
 3119TIP3    H1 9363   5.507   3.354   0.405
 3119TIP3    H2 9364   5.637   3.307   0.343
 3120TIP3   OH2 9365   0.796   3.658   4.189
 3120TIP3    H1 9366   0.786   3.633   4.281
 3120TIP3    H2 9367   0.890   3.668   4.177
 3121TIP3   OH2 9368   2.987   3.670   2.818
 3121TIP3    H1 9369   2.915   3.714   2.773
 3121TIP3    H2 9370   2.997   3.719   2.900
 3122TIP3   OH2 9371   4.094   0.987   2.361
 3122TIP3    H1 9372   4.091   1.075   2.323
 3122TIP3    H2 9373   4.127   0.932   2.290
 3123TIP3   OH2 9374   5.820   2.373   2.070
 3123TIP3    H1 9375   5.838   2.435   1.999
 3123TIP3    H2 9376   5.744   2.323   2.039
 3124TIP3   OH2 9377   6.064   2.629   4.823
 3124TIP3    H1 9378   6.081   2.553   4.879
 3124TIP3    H2 9379   6.015   2.593   4.748
 3125TIP3   OH2 9380   4.374   1.760   4.006
 3125TIP3    H1 9381   4.456   1.724   3.972
 3125TIP3    H2 9382   4.310   1.689   3.994
 3126TIP3   OH2 9383   2.010   5.754   3.599
 3126TIP3    H1 9384   2.020   5.672   3.551
 3126TIP3    H2 9385   2.070   5.746   3.673
 3127TIP3   OH2 9386   2.642   4.797   3.276
 3127TIP3    H1 9387   2.598   4.873   3.239
 3127TIP3    H2 9388   2.648   4.734   3.204
 3128TIP3   OH2 9389   2.803   0.357   4.415
 3128TIP3    H1 9390   2.831   0.447   4.428
 3128TIP3    H2 9391   2.823   0.338   4.323
 3129TIP3   OH2 9392   2.254   5.651   2.402
 3129TIP3    H1 9393   2.314   5.596   2.452
 3129TIP3    H2 9394   2.285   5.741   2.417
 3130TIP3   OH2 9395   0.491   2.495   2.048
 3130TIP3    H1 9396   0.401   2.464   2.055
 3130TIP3    H2 9397   0.544   2.415   2.041
 3131TIP3   OH2 9398   3.230   3.793   3.546
 3131TIP3    H1 9399   3.199   3.703   3.558
 3131TIP3    H2 9400   3.262   3.818   3.633
 3132TIP3   OH2 9401   3.616   5.216   3.158
 3132TIP3    H1 9402   3.643   5.187   3.245
 3132TIP3    H2 9403   3.560   5.145   3.126
 3133TIP3   OH2 9404   4.941   5.758   3.559
 3133TIP3    H1 9405   4.873   5.825   3.565
 3133TIP3    H2 9406   5.019   5.799   3.598
 3134TIP3   OH2 9407   0.638   5.332   4.666
 3134TIP3    H1 9408   0.591   5.350   4.584
 3134TIP3    H2 9409   0.686   5.413   4.685
 3135TIP3   OH2 9410   5.524   5.792   2.762
 3135TIP3    H1 9411   5.535   5.765   2.854
 3135TIP3    H2 9412   5.483   5.717   2.720
 3136TIP3   OH2 9413   5.775   1.960   2.856
 3136TIP3    H1 9414   5.713   1.905   2.807
 3136TIP3    H2 9415   5.822   1.898   2.912
 3137TIP3   OH2 9416   1.224   4.157   4.446
 3137TIP3    H1 9417   1.272   4.223   4.496
 3137TIP3    H2 9418   1.292   4.096   4.417
 3138TIP3   OH2 9419   5.537   3.007   2.919
 3138TIP3    H1 9420   5.530   3.011   2.824
 3138TIP3    H2 9421   5.492   3.086   2.950
 3139TIP3   OH2 9422   3.758   1.545   1.478
 3139TIP3    H1 9423   3.690   1.509   1.420
 3139TIP3    H2 9424   3.719   1.625   1.513
 3140TIP3   OH2 9425   4.012   4.736   4.761
 3140TIP3    H1 9426   4.061   4.744   4.680
 3140TIP3    H2 9427   4.079   4.726   4.829
 3141TIP3   OH2 9428   0.716   3.202   2.108
 3141TIP3    H1 9429   0.778   3.160   2.169
 3141TIP3    H2 9430   0.653   3.133   2.086
 3142TIP3   OH2 9431   5.113   4.896   2.043
 3142TIP3    H1 9432   5.054   4.872   2.115
 3142TIP3    H2 9433   5.157   4.814   2.021
 3143TIP3   OH2 9434   0.845   0.824   4.498
 3143TIP3    H1 9435   0.860   0.881   4.573
 3143TIP3    H2 9436   0.753   0.799   4.505
 3144TIP3   OH2 9437   5.479   3.999   5.023
 3144TIP3    H1 9438   5.515   3.913   5.001
 3144TIP3    H2 9439   5.385   3.988   5.012
 3145TIP3   OH2 9440   3.530   4.141   2.372
 3145TIP3    H1 9441   3.491   4.064   2.412
 3145TIP3    H2 9442   3.538   4.204   2.444
 3146TIP3   OH2 9443   1.901   3.206   2.319
 3146TIP3    H1 9444   1.860   3.269   2.379
 3146TIP3    H2 9445   1.828   3.166   2.272
 3147TIP3   OH2 9446   3.518   0.788   1.208
 3147TIP3    H1 9447   3.484   0.712   1.161
 3147TIP3    H2 9448   3.498   0.771   1.300
 3148TIP3   OH2 9449   1.420   0.574   4.604
 3148TIP3    H1 9450   1.515   0.588   4.594
 3148TIP3    H2 9451   1.403   0.594   4.696
 3149TIP3   OH2 9452   3.433   5.361   4.699
 3149TIP3    H1 9453   3.528   5.359   4.709
 3149TIP3    H2 9454   3.399   5.362   4.788
 3150TIP3   OH2 9455   2.410   5.010   0.781
 3150TIP3    H1 9456   2.385   5.003   0.690
 3150TIP3    H2 9457   2.452   4.926   0.801
 3151TIP3   OH2 9458   3.618   4.863   0.174
 3151TIP3    H1 9459   3.572   4.926   0.229
 3151TIP3    H2 9460   3.645   4.913   0.097
 3152TIP3   OH2 9461   3.584   3.049   3.943
 3152TIP3    H1 9462   3.657   3.083   3.995
 3152TIP3    H2 9463   3.625   2.985   3.884
 3153TIP3   OH2 9464   5.451   3.713   3.636
 3153TIP3    H1 9465   5.480   3.623   3.644
 3153TIP3    H2 9466   5.530   3.761   3.611
 3154TIP3   OH2 9467   2.822   1.514   0.902
 3154TIP3    H1 9468   2.775   1.533   0.983
 3154TIP3    H2 9469   2.794   1.582   0.841
 3155TIP3   OH2 9470   2.784   1.253   1.085
 3155TIP3    H1 9471   2.724   1.299   1.026
 3155TIP3    H2 9472   2.743   1.260   1.171
 3156TIP3   OH2 9473   0.584   0.949   2.730
 3156TIP3    H1 9474   0.551   0.899   2.805
 3156TIP3    H2 9475   0.525   1.024   2.723
 3157TIP3   OH2 9476   1.256   1.692   3.389
 3157TIP3    H1 9477   1.174   1.697   3.340
 3157TIP3    H2 9478   1.301   1.774   3.371
 3158TIP3   OH2 9479   5.290   5.349   3.546
 3158TIP3    H1 9480   5.356   5.384   3.605
 3158TIP3    H2 9481   5.338   5.285   3.493
 3159TIP3   OH2 9482   5.739   2.854   3.031
 3159TIP3    H1 9483   5.652   2.885   3.007
 3159TIP3    H2 9484   5.799   2.909   2.981
 3160TIP3   OH2 9485   2.806   0.024   4.886
 3160TIP3    H1 9486   2.890   0.070   4.878
 3160TIP3    H2 9487   2.775   0.046   4.974
 3161TIP3   OH2 9488   0.555   3.428   1.650
 3161TIP3    H1 9489   0.539   3.360   1.585
 3161TIP3    H2 9490   0.623   3.392   1.706
 3162TIP3   OH2 9491   4.304   2.762   0.905
 3162TIP3    H1 9492   4.304   2.844   0.856
 3162TIP3    H2 9493   4.294   2.694   0.838
 3163TIP3   OH2 9494   0.842   5.191   2.506
 3163TIP3    H1 9495   0.915   5.244   2.474
 3163TIP3    H2 9496   0.766   5.248   2.496
 3164TIP3   OH2 9497   0.467   0.689   5.014
 3164TIP3    H1 9498   0.404   0.620   5.037
 3164TIP3    H2 9499   0.445   0.712   4.924
 3165TIP3   OH2 9500   2.695   4.318   4.882
 3165TIP3    H1 9501   2.781   4.307   4.841
 3165TIP3    H2 9502   2.644   4.364   4.815
 3166TIP3   OH2 9503   6.077   2.177   1.749
 3166TIP3    H1 9504   6.022   2.133   1.684
 3166TIP3    H2 9505   6.120   2.106   1.796
 3167TIP3   OH2 9506   3.566   4.471   1.978
 3167TIP3    H1 9507   3.598   4.381   1.976
 3167TIP3    H2 9508   3.621   4.518   1.916
 3168TIP3   OH2 9509   2.757   0.090   4.591
 3168TIP3    H1 9510   2.755   0.074   4.686
 3168TIP3    H2 9511   2.765   0.185   4.583
 3169TIP3   OH2 9512   1.632   4.685   5.120
 3169TIP3    H1 9513   1.698   4.644   5.175
 3169TIP3    H2 9514   1.583   4.611   5.082
 3170TIP3   OH2 9515   1.659   4.744   3.717
 3170TIP3    H1 9516   1.568   4.751   3.689
 3170TIP3    H2 9517   1.688   4.660   3.683
 3171TIP3   OH2 9518   3.799   1.457   2.773
 3171TIP3    H1 9519   3.748   1.511   2.833
 3171TIP3    H2 9520   3.849   1.519   2.721
 3172TIP3   OH2 9521   0.107   2.155   0.429
 3172TIP3    H1 9522   0.158   2.144   0.348
 3172TIP3    H2 9523   0.039   2.088   0.423
 3173TIP3   OH2 9524   1.279   1.408   4.879
 3173TIP3    H1 9525   1.288   1.500   4.901
 3173TIP3    H2 9526   1.284   1.363   4.964
 3174TIP3   OH2 9527   5.522   1.059   1.930
 3174TIP3    H1 9528   5.462   1.080   2.002
 3174TIP3    H2 9529   5.468   1.011   1.867
 3175TIP3   OH2 9530   5.057   1.558   0.700
 3175TIP3    H1 9531   5.123   1.490   0.692
 3175TIP3    H2 9532   5.107   1.637   0.723
 3176TIP3   OH2 9533   1.660   1.476   2.528
 3176TIP3    H1 9534   1.665   1.441   2.617
 3176TIP3    H2 9535   1.746   1.513   2.511
 3177TIP3   OH2 9536   1.867   5.198   0.751
 3177TIP3    H1 9537   1.777   5.219   0.727
 3177TIP3    H2 9538   1.920   5.244   0.685
 3178TIP3   OH2 9539   0.562   1.321   3.386
 3178TIP3    H1 9540   0.641   1.314   3.332
 3178TIP3    H2 9541   0.593   1.351   3.471
 3179TIP3   OH2 9542   6.105   2.755   0.121
 3179TIP3    H1 9543   6.092   2.668   0.084
 3179TIP3    H2 9544   6.087   2.745   0.214
 3180TIP3   OH2 9545   2.307   2.862   2.924
 3180TIP3    H1 9546   2.351   2.799   2.981
 3180TIP3    H2 9547   2.377   2.900   2.871
 3181TIP3   OH2 9548   0.307   4.392   3.344
 3181TIP3    H1 9549   0.303   4.433   3.257
 3181TIP3    H2 9550   0.281   4.461   3.404
 3182TIP3   OH2 9551   5.780   3.039   5.071
 3182TIP3    H1 9552   5.811   3.075   4.988
 3182TIP3    H2 9553   5.739   3.113   5.116
 3183TIP3   OH2 9554   2.974   0.501   2.214
 3183TIP3    H1 9555   2.917   0.425   2.202
 3183TIP3    H2 9556   2.958   0.556   2.137
 3184TIP3   OH2 9557   4.194   1.732   1.972
 3184TIP3    H1 9558   4.145   1.711   2.053
 3184TIP3    H2 9559   4.284   1.708   1.992
 3185TIP3   OH2 9560   5.837   2.968   2.152
 3185TIP3    H1 9561   5.922   2.925   2.158
 3185TIP3    H2 9562   5.796   2.931   2.075
 3186TIP3   OH2 9563   1.392   4.707   1.833
 3186TIP3    H1 9564   1.437   4.703   1.749
 3186TIP3    H2 9565   1.300   4.689   1.812
 3187TIP3   OH2 9566   2.487   0.115   1.613
 3187TIP3    H1 9567   2.568   0.070   1.635
 3187TIP3    H2 9568   2.440   0.054   1.557
 3188TIP3   OH2 9569   3.875   5.955   0.059
 3188TIP3    H1 9570   3.880   5.968  -0.035
 3188TIP3    H2 9571   3.964   5.972   0.091
 3189TIP3   OH2 9572   1.258   0.138   4.015
 3189TIP3    H1 9573   1.277   0.230   3.996
 3189TIP3    H2 9574   1.275   0.092   3.933
 3190TIP3   OH2 9575   5.582   0.730   2.626
 3190TIP3    H1 9576   5.676   0.708   2.623
 3190TIP3    H2 9577   5.571   0.776   2.709
 3191TIP3   OH2 9578   2.590   0.815   0.690
 3191TIP3    H1 9579   2.518   0.773   0.736
 3191TIP3    H2 9580   2.548   0.876   0.629
 3192TIP3   OH2 9581   0.168   0.837   2.143
 3192TIP3    H1 9582   0.150   0.915   2.194
 3192TIP3    H2 9583   0.234   0.789   2.194
 3193TIP3   OH2 9584   1.016   4.262   4.307
 3193TIP3    H1 9585   1.006   4.333   4.371
 3193TIP3    H2 9586   1.094   4.215   4.336
 3194TIP3   OH2 9587   4.593   0.406   4.262
 3194TIP3    H1 9588   4.670   0.429   4.210
 3194TIP3    H2 9589   4.605   0.452   4.345
 3195TIP3   OH2 9590   0.829   3.492   3.963
 3195TIP3    H1 9591   0.840   3.523   3.873
 3195TIP3    H2 9592   0.814   3.571   4.014
 3196TIP3   OH2 9593   6.137   2.403   4.025
 3196TIP3    H1 9594   6.151   2.494   3.998
 3196TIP3    H2 9595   6.224   2.364   4.023
 3197TIP3   OH2 9596   3.319   2.588   3.490
 3197TIP3    H1 9597   3.285   2.503   3.465
 3197TIP3    H2 9598   3.272   2.609   3.571
 3198TIP3   OH2 9599   4.702   2.729   4.180
 3198TIP3    H1 9600   4.692   2.708   4.087
 3198TIP3    H2 9601   4.654   2.660   4.226
 3199TIP3   OH2 9602   5.367   3.050   1.448
 3199TIP3    H1 9603   5.425   3.057   1.373
 3199TIP3    H2 9604   5.375   3.134   1.493
 3200TIP3   OH2 9605   5.142   5.457   4.324
 3200TIP3    H1 9606   5.193   5.392   4.371
 3200TIP3    H2 9607   5.053   5.448   4.359
 3201TIP3   OH2 9608   2.144   4.347   4.189
 3201TIP3    H1 9609   2.231   4.378   4.162
 3201TIP3    H2 9610   2.163   4.286   4.261
 3202TIP3   OH2 9611   1.233   5.642   1.681
 3202TIP3    H1 9612   1.279   5.686   1.610
 3202TIP3    H2 9613   1.249   5.697   1.758
 3203TIP3   OH2 9614   4.347   0.303   3.431
 3203TIP3    H1 9615   4.343   0.225   3.376
 3203TIP3    H2 9616   4.268   0.299   3.485
 3204TIP3   OH2 9617   5.340   0.653   0.253
 3204TIP3    H1 9618   5.276   0.584   0.238
 3204TIP3    H2 9619   5.361   0.686   0.166
 3205TIP3   OH2 9620   0.752   1.815   5.069
 3205TIP3    H1 9621   0.827   1.874   5.061
 3205TIP3    H2 9622   0.707   1.822   4.985
 3206TIP3   OH2 9623   0.331   4.424   2.463
 3206TIP3    H1 9624   0.413   4.474   2.461
 3206TIP3    H2 9625   0.312   4.413   2.556
 3207TIP3   OH2 9626   3.072   4.499   2.421
 3207TIP3    H1 9627   3.102   4.587   2.441
 3207TIP3    H2 9628   3.108   4.480   2.334
 3208TIP3   OH2 9629   4.085   3.997   1.226
 3208TIP3    H1 9630   4.086   4.093   1.216
 3208TIP3    H2 9631   4.171   3.969   1.195
 3209TIP3   OH2 9632   0.635   1.181   1.069
 3209TIP3    H1 9633   0.721   1.195   1.109
 3209TIP3    H2 9634   0.577   1.163   1.144
 3210TIP3   OH2 9635   5.857   2.705   3.800
 3210TIP3    H1 9636   5.946   2.719   3.831
 3210TIP3    H2 9637   5.801   2.737   3.871
 3211TIP3   OH2 9638   6.056   4.652   4.726
 3211TIP3    H1 9639   6.147   4.670   4.703
 3211TIP3    H2 9640   6.006   4.679   4.649
 3212TIP3   OH2 9641   4.377   1.307   1.265
 3212TIP3    H1 9642   4.393   1.400   1.247
 3212TIP3    H2 9643   4.430   1.288   1.343
 3213TIP3   OH2 9644   4.603   2.441   1.478
 3213TIP3    H1 9645   4.576   2.447   1.386
 3213TIP3    H2 9646   4.567   2.520   1.519
 3214TIP3   OH2 9647   0.469   0.470   4.500
 3214TIP3    H1 9648   0.407   0.453   4.430
 3214TIP3    H2 9649   0.432   0.426   4.576
 3215TIP3   OH2 9650   4.523   0.261   3.984
 3215TIP3    H1 9651   4.449   0.260   3.924
 3215TIP3    H2 9652   4.592   0.212   3.939
 3216TIP3   OH2 9653   2.668   4.915   1.267
 3216TIP3    H1 9654   2.585   4.961   1.251
 3216TIP3    H2 9655   2.646   4.823   1.256
 3217TIP3   OH2 9656   5.998   4.556   2.502
 3217TIP3    H1 9657   5.931   4.542   2.569
 3217TIP3    H2 9658   5.962   4.624   2.445
 3218TIP3   OH2 9659   3.242   1.739   3.618
 3218TIP3    H1 9660   3.163   1.698   3.582
 3218TIP3    H2 9661   3.268   1.681   3.691
 3219TIP3   OH2 9662   1.975   1.069   3.494
 3219TIP3    H1 9663   2.041   1.097   3.558
 3219TIP3    H2 9664   2.019   1.074   3.410
 3220TIP3   OH2 9665   1.963   3.715   4.234
 3220TIP3    H1 9666   1.938   3.625   4.211
 3220TIP3    H2 9667   1.966   3.715   4.330
 3221TIP3   OH2 9668   1.605   2.140   4.208
 3221TIP3    H1 9669   1.618   2.178   4.295
 3221TIP3    H2 9670   1.514   2.158   4.187
 3222TIP3   OH2 9671   2.889   0.117   2.756
 3222TIP3    H1 9672   2.982   0.102   2.743
 3222TIP3    H2 9673   2.880   0.212   2.764
 3223TIP3   OH2 9674   1.845   1.737   4.680
 3223TIP3    H1 9675   1.757   1.775   4.680
 3223TIP3    H2 9676   1.833   1.650   4.718
 3224TIP3   OH2 9677   4.359   0.374   2.043
 3224TIP3    H1 9678   4.450   0.367   2.074
 3224TIP3    H2 9679   4.306   0.357   2.121
 3225TIP3   OH2 9680   5.961   4.036   1.504
 3225TIP3    H1 9681   5.903   4.061   1.576
 3225TIP3    H2 9682   5.973   3.941   1.514
 3226TIP3   OH2 9683   2.984   5.804   2.792
 3226TIP3    H1 9684   2.969   5.732   2.854
 3226TIP3    H2 9685   2.947   5.772   2.710
 3227TIP3   OH2 9686   5.553   2.216   0.516
 3227TIP3    H1 9687   5.592   2.134   0.485
 3227TIP3    H2 9688   5.588   2.227   0.604
 3228TIP3   OH2 9689   3.096   2.512   4.356
 3228TIP3    H1 9690   3.115   2.445   4.291
 3228TIP3    H2 9691   3.035   2.469   4.416
 3229TIP3   OH2 9692   5.766   3.318   0.115
 3229TIP3    H1 9693   5.692   3.264   0.090
 3229TIP3    H2 9694   5.836   3.255   0.136
 3230TIP3   OH2 9695   1.125   3.573   1.782
 3230TIP3    H1 9696   1.152   3.494   1.830
 3230TIP3    H2 9697   1.029   3.568   1.781
 3231TIP3   OH2 9698   1.697   2.125   2.686
 3231TIP3    H1 9699   1.606   2.094   2.692
 3231TIP3    H2 9700   1.742   2.057   2.636
 3232TIP3   OH2 9701   6.091   1.205   2.986
 3232TIP3    H1 9702   6.038   1.267   3.035
 3232TIP3    H2 9703   6.058   1.119   3.011
 3233TIP3   OH2 9704   4.653   5.896   2.327
 3233TIP3    H1 9705   4.728   5.954   2.316
 3233TIP3    H2 9706   4.595   5.917   2.254
 3234TIP3   OH2 9707   3.107   0.948   3.535
 3234TIP3    H1 9708   3.011   0.946   3.539
 3234TIP3    H2 9709   3.128   0.929   3.444
 3235TIP3   OH2 9710   3.978   2.013   4.024
 3235TIP3    H1 9711   3.898   1.962   4.037
 3235TIP3    H2 9712   3.999   2.048   4.110
 3236TIP3   OH2 9713   6.358   2.647   2.420
 3236TIP3    H1 9714   6.264   2.651   2.404
 3236TIP3    H2 9715   6.370   2.568   2.473
 3237TIP3   OH2 9716   3.754   0.425   3.478
 3237TIP3    H1 9717   3.736   0.364   3.407
 3237TIP3    H2 9718   3.683   0.489   3.474
 3238TIP3   OH2 9719   6.222   3.541   3.160
 3238TIP3    H1 9720   6.193   3.603   3.094
 3238TIP3    H2 9721   6.316   3.555   3.166
 3239TIP3   OH2 9722   3.002   4.630   0.056
 3239TIP3    H1 9723   2.957   4.686  -0.007
 3239TIP3    H2 9724   2.966   4.543   0.041
 3240TIP3   OH2 9725   3.127   5.889   1.566
 3240TIP3    H1 9726   3.130   5.825   1.637
 3240TIP3    H2 9727   3.075   5.962   1.601
 3241TIP3   OH2 9728   0.136   2.605   3.201
 3241TIP3    H1 9729   0.159   2.689   3.241
 3241TIP3    H2 9730   0.202   2.592   3.133
 3242TIP3   OH2 9731   5.422   2.048   1.258
 3242TIP3    H1 9732   5.416   2.075   1.350
 3242TIP3    H2 9733   5.506   2.003   1.252
 3243TIP3   OH2 9734   5.295   2.215   0.376
 3243TIP3    H1 9735   5.327   2.214   0.286
 3243TIP3    H2 9736   5.374   2.216   0.430
 3244TIP3   OH2 9737   0.259   2.245   2.252
 3244TIP3    H1 9738   0.277   2.333   2.285
 3244TIP3    H2 9739   0.203   2.259   2.176
 3245TIP3   OH2 9740   4.353   4.396   2.174
 3245TIP3    H1 9741   4.409   4.413   2.250
 3245TIP3    H2 9742   4.269   4.369   2.211
 3246TIP3   OH2 9743   2.997   2.677   4.625
 3246TIP3    H1 9744   3.049   2.605   4.660
 3246TIP3    H2 9745   2.921   2.683   4.683
 3247TIP3   OH2 9746   5.549   2.981   0.941
 3247TIP3    H1 9747   5.597   3.064   0.945
 3247TIP3    H2 9748   5.569   2.946   0.854
 3248TIP3   OH2 9749   0.771   1.895   0.706
 3248TIP3    H1 9750   0.694   1.857   0.748
 3248TIP3    H2 9751   0.840   1.830   0.718
 3249TIP3   OH2 9752   3.142   5.093   3.946
 3249TIP3    H1 9753   3.172   5.015   3.898
 3249TIP3    H2 9754   3.222   5.132   3.980
 3250TIP3   OH2 9755   1.795   3.768   0.946
 3250TIP3    H1 9756   1.875   3.791   0.899
 3250TIP3    H2 9757   1.742   3.720   0.883
 3251TIP3   OH2 9758   0.839   2.388   0.944
 3251TIP3    H1 9759   0.913   2.419   0.892
 3251TIP3    H2 9760   0.762   2.413   0.893
 3252TIP3   OH2 9761   1.647   3.324   1.140
 3252TIP3    H1 9762   1.721   3.264   1.156
 3252TIP3    H2 9763   1.678   3.408   1.173
 3253TIP3   OH2 9764   5.267   3.970   3.969
 3253TIP3    H1 9765   5.335   3.939   4.029
 3253TIP3    H2 9766   5.230   3.890   3.931
 3254TIP3   OH2 9767   2.570   1.948   4.280
 3254TIP3    H1 9768   2.532   1.884   4.219
 3254TIP3    H2 9769   2.627   2.002   4.225
 3255TIP3   OH2 9770   2.151   5.878   0.547
 3255TIP3    H1 9771   2.103   5.914   0.472
 3255TIP3    H2 9772   2.206   5.809   0.509
 3256TIP3   OH2 9773   2.728   0.080   1.739
 3256TIP3    H1 9774   2.774   0.156   1.776
 3256TIP3    H2 9775   2.769   0.068   1.653
 3257TIP3   OH2 9776   0.569   5.269   4.246
 3257TIP3    H1 9777   0.590   5.267   4.153
 3257TIP3    H2 9778   0.606   5.352   4.277
 3258TIP3   OH2 9779   2.535   4.265   2.088
 3258TIP3    H1 9780   2.465   4.206   2.115
 3258TIP3    H2 9781   2.489   4.339   2.047
 3259TIP3   OH2 9782   1.951   1.358   5.086
 3259TIP3    H1 9783   1.999   1.421   5.140
 3259TIP3    H2 9784   2.018   1.320   5.029
 3260TIP3   OH2 9785   4.128   0.160   2.462
 3260TIP3    H1 9786   4.110   0.212   2.540
 3260TIP3    H2 9787   4.043   0.127   2.435
 3261TIP3   OH2 9788   2.762   3.433   0.167
 3261TIP3    H1 9789   2.790   3.402   0.080
 3261TIP3    H2 9790   2.667   3.443   0.159
 3262TIP3   OH2 9791   2.778   2.563   1.442
 3262TIP3    H1 9792   2.690   2.574   1.407
 3262TIP3    H2 9793   2.765   2.519   1.526
 3263TIP3   OH2 9794   5.989   5.452   1.992
 3263TIP3    H1 9795   5.960   5.520   1.931
 3263TIP3    H2 9796   5.912   5.434   2.046
 3264TIP3   OH2 9797   4.211   1.633   2.349
 3264TIP3    H1 9798   4.209   1.572   2.423
 3264TIP3    H2 9799   4.132   1.686   2.360
 3265TIP3   OH2 9800   3.935   5.550   2.263
 3265TIP3    H1 9801   3.958   5.466   2.224
 3265TIP3    H2 9802   3.861   5.581   2.211
 3266TIP3   OH2 9803   2.658   3.673   2.236
 3266TIP3    H1 9804   2.577   3.715   2.266
 3266TIP3    H2 9805   2.701   3.645   2.317
 3267TIP3   OH2 9806   2.650   5.499   0.405
 3267TIP3    H1 9807   2.673   5.491   0.313
 3267TIP3    H2 9808   2.579   5.436   0.417
 3268TIP3   OH2 9809   2.482   0.009   1.926
 3268TIP3    H1 9810   2.412   0.074   1.924
 3268TIP3    H2 9811   2.517   0.009   1.837
 3269TIP3   OH2 9812   0.615   4.837   2.488
 3269TIP3    H1 9813   0.673   4.882   2.427
 3269TIP3    H2 9814   0.641   4.868   2.574
 3270TIP3   OH2 9815   4.260   3.124   0.143
 3270TIP3    H1 9816   4.336   3.144   0.198
 3270TIP3    H2 9817   4.228   3.040   0.176
 3271TIP3   OH2 9818   0.529   0.202   0.317
 3271TIP3    H1 9819   0.473   0.179   0.391
 3271TIP3    H2 9820   0.470   0.203   0.241
 3272TIP3   OH2 9821   1.976   2.266   4.986
 3272TIP3    H1 9822   2.048   2.265   4.923
 3272TIP3    H2 9823   1.979   2.180   5.027
 3273TIP3   OH2 9824   3.793   4.038   1.319
 3273TIP3    H1 9825   3.875   4.012   1.279
 3273TIP3    H2 9826   3.809   4.128   1.349
 3274TIP3   OH2 9827   5.762   0.382   1.222
 3274TIP3    H1 9828   5.667   0.377   1.210
 3274TIP3    H2 9829   5.797   0.380   1.133
 3275TIP3   OH2 9830   6.118   1.596   2.662
 3275TIP3    H1 9831   6.207   1.573   2.688
 3275TIP3    H2 9832   6.068   1.515   2.674
 3276TIP3   OH2 9833   5.643   4.046   0.083
 3276TIP3    H1 9834   5.713   4.087   0.134
 3276TIP3    H2 9835   5.647   3.953   0.106
 3277TIP3   OH2 9836   2.456   1.002   0.508
 3277TIP3    H1 9837   2.519   1.023   0.438
 3277TIP3    H2 9838   2.394   1.075   0.506
 3278TIP3   OH2 9839   4.038   2.006   1.121
 3278TIP3    H1 9840   3.958   2.050   1.095
 3278TIP3    H2 9841   4.107   2.072   1.110
 3279TIP3   OH2 9842   6.254   0.412   2.791
 3279TIP3    H1 9843   6.255   0.348   2.863
 3279TIP3    H2 9844   6.194   0.480   2.820
 3280TIP3   OH2 9845   0.065   4.061   1.308
 3280TIP3    H1 9846   0.122   3.995   1.346
 3280TIP3    H2 9847   0.024   4.105   1.382
 3281TIP3   OH2 9848   2.910   1.068   3.908
 3281TIP3    H1 9849   2.948   1.107   3.828
 3281TIP3    H2 9850   2.973   1.090   3.977
 3282TIP3   OH2 9851   0.817   4.544   2.926
 3282TIP3    H1 9852   0.840   4.496   2.847
 3282TIP3    H2 9853   0.900   4.577   2.960
 3283TIP3   OH2 9854   6.022   3.439   1.407
 3283TIP3    H1 9855   6.105   3.470   1.444
 3283TIP3    H2 9856   6.033   3.452   1.313
 3284TIP3   OH2 9857   1.651   2.662   1.120
 3284TIP3    H1 9858   1.653   2.745   1.073
 3284TIP3    H2 9859   1.637   2.596   1.052
 3285TIP3   OH2 9860   1.011   1.816   0.053
 3285TIP3    H1 9861   1.094   1.773   0.033
 3285TIP3    H2 9862   0.987   1.782   0.139
 3286TIP3   OH2 9863   4.043   0.733   5.035
 3286TIP3    H1 9864   4.055   0.826   5.016
 3286TIP3    H2 9865   4.079   0.688   4.958
 3287TIP3   OH2 9866   3.254   4.935   1.895
 3287TIP3    H1 9867   3.178   4.964   1.845
 3287TIP3    H2 9868   3.286   4.859   1.847
 3288TIP3   OH2 9869   6.015   1.081   0.891
 3288TIP3    H1 9870   6.014   1.054   0.799
 3288TIP3    H2 9871   5.927   1.115   0.907
 3289TIP3   OH2 9872   5.905   4.337   1.007
 3289TIP3    H1 9873   5.967   4.368   1.073
 3289TIP3    H2 9874   5.948   4.354   0.923
 3290TIP3   OH2 9875   3.588   5.336   4.375
 3290TIP3    H1 9876   3.610   5.243   4.375
 3290TIP3    H2 9877   3.496   5.339   4.352
 3291TIP3   OH2 9878   1.969   2.694   0.958
 3291TIP3    H1 9879   2.054   2.728   0.930
 3291TIP3    H2 9880   1.972   2.697   1.053
 3292TIP3   OH2 9881   3.990   2.304   0.930
 3292TIP3    H1 9882   3.915   2.245   0.922
 3292TIP3    H2 9883   3.997   2.321   1.024
 3293TIP3   OH2 9884   2.968   4.004   4.422
 3293TIP3    H1 9885   2.998   4.018   4.512
 3293TIP3    H2 9886   2.916   4.081   4.402
 3294TIP3   OH2 9887   0.812   3.093   2.727
 3294TIP3    H1 9888   0.900   3.074   2.695
 3294TIP3    H2 9889   0.824   3.166   2.788
 3295TIP3   OH2 9890   3.777   4.449   1.260
 3295TIP3    H1 9891   3.693   4.475   1.222
 3295TIP3    H2 9892   3.754   4.385   1.327
 3296TIP3   OH2 9893   4.072   5.067   2.759
 3296TIP3    H1 9894   4.073   5.160   2.782
 3296TIP3    H2 9895   4.056   5.022   2.842
 3297TIP3   OH2 9896   6.032   2.722   0.377
 3297TIP3    H1 9897   6.065   2.803   0.416
 3297TIP3    H2 9898   5.940   2.719   0.402
 3298TIP3   OH2 9899   4.345   0.473   4.690
 3298TIP3    H1 9900   4.391   0.433   4.617
 3298TIP3    H2 9901   4.364   0.416   4.765
 3299TIP3   OH2 9902   3.500   0.587   4.609
 3299TIP3    H1 9903   3.408   0.565   4.626
 3299TIP3    H2 9904   3.550   0.528   4.665
 3300TIP3   OH2 9905   5.943   4.219   2.302
 3300TIP3    H1 9906   5.852   4.249   2.292
 3300TIP3    H2 9907   5.993   4.272   2.240
 3301TIP3   OH2 9908   0.307   4.903   3.259
 3301TIP3    H1 9909   0.307   4.926   3.166
 3301TIP3    H2 9910   0.349   4.817   3.263
 3302TIP3   OH2 9911   3.438   0.810   5.119
 3302TIP3    H1 9912   3.428   0.809   5.214
 3302TIP3    H2 9913   3.443   0.718   5.094
 3303TIP3   OH2 9914   1.203   2.445   4.072
 3303TIP3    H1 9915   1.182   2.536   4.094
 3303TIP3    H2 9916   1.147   2.425   3.997
 3304TIP3   OH2 9917   3.984   2.073   3.733
 3304TIP3    H1 9918   3.966   2.046   3.823
 3304TIP3    H2 9919   4.015   2.163   3.741
 3305TIP3   OH2 9920   3.877   4.832   3.314
 3305TIP3    H1 9921   3.832   4.753   3.285
 3305TIP3    H2 9922   3.954   4.799   3.361
 3306TIP3   OH2 9923   4.528   2.910   0.608
 3306TIP3    H1 9924   4.585   2.837   0.627
 3306TIP3    H2 9925   4.502   2.945   0.693
 3307TIP3   OH2 9926   3.969   5.272   2.213
 3307TIP3    H1 9927   4.054   5.243   2.179
 3307TIP3    H2 9928   3.969   5.245   2.305
 3308TIP3   OH2 9929   3.408   2.104   4.696
 3308TIP3    H1 9930   3.481   2.043   4.701
 3308TIP3    H2 9931   3.330   2.048   4.699
 3309TIP3   OH2 9932   1.451   2.416   1.726
 3309TIP3    H1 9933   1.483   2.428   1.636
 3309TIP3    H2 9934   1.479   2.495   1.772
 3310TIP3   OH2 9935   2.580   0.793   4.511
 3310TIP3    H1 9936   2.585   0.743   4.429
 3310TIP3    H2 9937   2.486   0.799   4.528
 3311TIP3   OH2 9938   0.839   3.314   2.874
 3311TIP3    H1 9939   0.901   3.387   2.884
 3311TIP3    H2 9940   0.791   3.312   2.957
 3312TIP3   OH2 9941   0.869   3.023   0.302
 3312TIP3    H1 9942   0.883   3.103   0.353
 3312TIP3    H2 9943   0.858   3.054   0.212
 3313TIP3   OH2 9944   2.667   5.695   4.954
 3313TIP3    H1 9945   2.666   5.601   4.972
 3313TIP3    H2 9946   2.596   5.731   5.007
 3314TIP3   OH2 9947   5.631   0.097   2.346
 3314TIP3    H1 9948   5.634   0.192   2.356
 3314TIP3    H2 9949   5.688   0.064   2.415
 3315TIP3   OH2 9950   1.473   3.551   4.470
 3315TIP3    H1 9951   1.548   3.514   4.517
 3315TIP3    H2 9952   1.489   3.646   4.471
 3316TIP3   OH2 9953   3.314   1.806   2.741
 3316TIP3    H1 9954   3.250   1.807   2.813
 3316TIP3    H2 9955   3.311   1.716   2.708
 3317TIP3   OH2 9956   1.376   5.234   4.478
 3317TIP3    H1 9957   1.432   5.303   4.442
 3317TIP3    H2 9958   1.290   5.274   4.486
 3318TIP3   OH2 9959   2.940   4.379   5.147
 3318TIP3    H1 9960   2.949   4.349   5.057
 3318TIP3    H2 9961   2.886   4.313   5.189
 3319TIP3   OH2 9962   1.146   4.478   0.240
 3319TIP3    H1 9963   1.131   4.568   0.269
 3319TIP3    H2 9964   1.116   4.477   0.149
 3320TIP3   OH2 9965   2.295   4.799   0.144
 3320TIP3    H1 9966   2.286   4.884   0.102
 3320TIP3    H2 9967   2.385   4.797   0.176
 3321TIP3   OH2 9968   6.015   3.260   3.958
 3321TIP3    H1 9969   6.033   3.230   4.048
 3321TIP3    H2 9970   6.097   3.242   3.911
 3322TIP3   OH2 9971   0.204   5.973   4.250
 3322TIP3    H1 9972   0.231   5.890   4.291
 3322TIP3    H2 9973   0.152   6.017   4.317
 3323TIP3   OH2 9974   3.630   1.281   0.614
 3323TIP3    H1 9975   3.568   1.211   0.635
 3323TIP3    H2 9976   3.650   1.267   0.521
 3324TIP3   OH2 9977   5.906   2.964   2.846
 3324TIP3    H1 9978   5.865   2.890   2.802
 3324TIP3    H2 9979   5.987   2.979   2.798
 3325TIP3   OH2 9980   4.728   1.795   4.853
 3325TIP3    H1 9981   4.767   1.724   4.801
 3325TIP3    H2 9982   4.644   1.760   4.882
 3326TIP3   OH2 9983   1.374   1.350   0.457
 3326TIP3    H1 9984   1.436   1.382   0.390
 3326TIP3    H2 9985   1.382   1.414   0.528
 3327TIP3   OH2 9986   3.711   1.535   3.808
 3327TIP3    H1 9987   3.629   1.584   3.801
 3327TIP3    H2 9988   3.684   1.447   3.836
 3328TIP3   OH2 9989   3.555   0.782   1.860
 3328TIP3    H1 9990   3.492   0.734   1.806
 3328TIP3    H2 9991   3.524   0.873   1.858
 3329TIP3   OH2 9992   3.031   2.241   4.754
 3329TIP3    H1 9993   3.099   2.178   4.777
 3329TIP3    H2 9994   2.958   2.221   4.813
 3330TIP3   OH2 9995   4.464   0.016   5.135
 3330TIP3    H1 9996   4.483  -0.056   5.195
 3330TIP3    H2 9997   4.427  -0.027   5.057
 3331TIP3   OH2 9998   4.006   2.189   2.948
 3331TIP3    H1 9999   4.065   2.201   3.022
 3331TIP3    H210000   4.002   2.275   2.906
 3332TIP3   OH210001   1.693   1.345   4.986
 3332TIP3    H110002   1.614   1.337   5.040
 3332TIP3    H210003   1.766   1.338   5.048
 3333TIP3   OH210004   0.177   1.680   2.180
 3333TIP3    H110005   0.106   1.649   2.124
 3333TIP3    H210006   0.173   1.776   2.172
 3334TIP3   OH210007   3.091   4.577   0.542
 3334TIP3    H110008   3.104   4.514   0.613
 3334TIP3    H210009   2.999   4.601   0.547
 3335TIP3   OH210010   5.269   2.811   4.291
 3335TIP3    H110011   5.224   2.740   4.246
 3335TIP3    H210012   5.306   2.864   4.221
 3336TIP3   OH210013   0.286   5.752   1.479
 3336TIP3    H110014   0.375   5.782   1.462
 3336TIP3    H210015   0.298   5.670   1.529
 3337TIP3   OH210016   4.345   4.526   1.330
 3337TIP3    H110017   4.308   4.557   1.248
 3337TIP3    H210018   4.303   4.581   1.397
 3338TIP3   OH210019   1.510   3.566   2.070
 3338TIP3    H110020   1.588   3.514   2.051
 3338TIP3    H210021   1.535   3.620   2.145
 3339TIP3   OH210022   1.336   2.968   0.496
 3339TIP3    H110023   1.320   2.916   0.418
 3339TIP3    H210024   1.401   3.033   0.469
 3340TIP3   OH210025   5.397   2.910   4.504
 3340TIP3    H110026   5.333   2.892   4.435
 3340TIP3    H210027   5.365   2.861   4.580
 3341TIP3   OH210028   4.008   5.491   2.522
 3341TIP3    H110029   3.921   5.476   2.560
 3341TIP3    H210030   3.990   5.527   2.435
 3342TIP3   OH210031   5.492   5.217   2.746
 3342TIP3    H110032   5.483   5.221   2.841
 3342TIP3    H210033   5.441   5.141   2.720
 3343TIP3   OH210034   3.406   4.722   2.228
 3343TIP3    H110035   3.421   4.628   2.237
 3343TIP3    H210036   3.482   4.754   2.181
 3344TIP3   OH210037   3.594   5.781   0.469
 3344TIP3    H110038   3.672   5.749   0.424
 3344TIP3    H210039   3.597   5.876   0.457
 3345TIP3   OH210040   5.264   3.717   2.872
 3345TIP3    H110041   5.292   3.805   2.897
 3345TIP3    H210042   5.171   3.726   2.851
 3346TIP3   OH210043   3.477   0.257   2.126
 3346TIP3    H110044   3.421   0.193   2.171
 3346TIP3    H210045   3.419   0.330   2.106
 3347TIP3   OH210046   2.594   5.769   0.701
 3347TIP3    H110047   2.675   5.784   0.748
 3347TIP3    H210048   2.609   5.806   0.614
 3348TIP3   OH210049   3.319   1.010   1.221
 3348TIP3    H110050   3.240   0.962   1.248
 3348TIP3    H210051   3.366   0.948   1.166
 3349TIP3   OH210052   2.458   2.486   0.893
 3349TIP3    H110053   2.510   2.562   0.920
 3349TIP3    H210054   2.379   2.491   0.946
 3350TIP3   OH210055   2.838   1.933   2.148
 3350TIP3    H110056   2.853   1.946   2.055
 3350TIP3    H210057   2.842   1.838   2.161
 3351TIP3   OH210058   5.856   4.959   4.845
 3351TIP3    H110059   5.803   4.930   4.919
 3351TIP3    H210060   5.946   4.944   4.873
 3352TIP3   OH210061   3.103   3.435   3.182
 3352TIP3    H110062   3.084   3.524   3.211
 3352TIP3    H210063   3.136   3.391   3.261
 3353TIP3   OH210064   4.962   2.929   2.478
 3353TIP3    H110065   4.890   2.990   2.492
 3353TIP3    H210066   4.932   2.873   2.407
 3354TIP3   OH210067   0.020   5.864   1.539
 3354TIP3    H110068   0.054   5.824   1.620
 3354TIP3    H210069   0.096   5.872   1.482
 3355TIP3   OH210070   5.032   4.385   3.027
 3355TIP3    H110071   5.083   4.432   3.092
 3355TIP3    H210072   4.971   4.450   2.992
 3356TIP3   OH210073   1.697   0.503   1.544
 3356TIP3    H110074   1.677   0.581   1.595
 3356TIP3    H210075   1.706   0.433   1.609
 3357TIP3   OH210076   3.706   4.758   5.132
 3357TIP3    H110077   3.669   4.700   5.066
 3357TIP3    H210078   3.676   4.845   5.108
 3358TIP3   OH210079   4.590   2.032   1.603
 3358TIP3    H110080   4.615   1.962   1.542
 3358TIP3    H210081   4.673   2.078   1.621
 3359TIP3   OH210082   5.207   1.462   2.942
 3359TIP3    H110083   5.139   1.411   2.986
 3359TIP3    H210084   5.198   1.550   2.978
 3360TIP3   OH210085   5.062   1.874   0.173
 3360TIP3    H110086   4.973   1.851   0.199
 3360TIP3    H210087   5.102   1.911   0.251
 3361TIP3   OH210088   3.262   5.786   2.649
 3361TIP3    H110089   3.356   5.769   2.647
 3361TIP3    H210090   3.226   5.715   2.703
 3362TIP3   OH210091   5.810   2.061   5.085
 3362TIP3    H110092   5.854   2.141   5.057
 3362TIP3    H210093   5.880   2.002   5.111
 3363TIP3   OH210094   2.015   0.325   1.646
 3363TIP3    H110095   1.973   0.239   1.632
 3363TIP3    H210096   1.965   0.364   1.717
 3364TIP3   OH210097   2.408   0.886   2.957
 3364TIP3    H110098   2.430   0.828   3.030
 3364TIP3    H210099   2.434   0.973   2.987
 3365TIP3   OH210100   0.966   4.175   1.030
 3365TIP3    H110101   0.900   4.244   1.020
 3365TIP3    H210102   0.979   4.142   0.942
 3366TIP3   OH210103   0.766   5.657   1.063
 3366TIP3    H110104   0.707   5.627   1.132
 3366TIP3    H210105   0.732   5.615   0.983
 3367TIP3   OH210106   4.166   4.051   0.472
 3367TIP3    H110107   4.152   3.962   0.503
 3367TIP3    H210108   4.097   4.066   0.407
 3368TIP3   OH210109   2.705   2.476   1.789
 3368TIP3    H110110   2.627   2.423   1.805
 3368TIP3    H210111   2.761   2.420   1.735
 3369TIP3   OH210112   5.870   2.504   4.186
 3369TIP3    H110113   5.838   2.457   4.263
 3369TIP3    H210114   5.955   2.464   4.167
 3370TIP3   OH210115   1.649   0.933   1.321
 3370TIP3    H110116   1.719   0.999   1.314
 3370TIP3    H210117   1.692   0.851   1.299
 3371TIP3   OH210118   1.642   4.467   0.485
 3371TIP3    H110119   1.580   4.453   0.413
 3371TIP3    H210120   1.643   4.385   0.533
 3372TIP3   OH210121   0.745   4.698   1.168
 3372TIP3    H110122   0.683   4.709   1.096
 3372TIP3    H210123   0.811   4.637   1.134
 3373TIP3   OH210124   1.305   5.827   1.892
 3373TIP3    H110125   1.245   5.848   1.963
 3373TIP3    H210126   1.342   5.911   1.865
 3374TIP3   OH210127   5.582   0.489   3.261
 3374TIP3    H110128   5.639   0.477   3.337
 3374TIP3    H210129   5.569   0.584   3.256
 3375TIP3   OH210130   3.467   2.270   2.237
 3375TIP3    H110131   3.427   2.319   2.310
 3375TIP3    H210132   3.560   2.266   2.260
 3376TIP3   OH210133   3.651   3.167   2.517
 3376TIP3    H110134   3.624   3.242   2.570
 3376TIP3    H210135   3.652   3.093   2.579
 3377TIP3   OH210136   0.590   2.851   2.353
 3377TIP3    H110137   0.508   2.898   2.339
 3377TIP3    H210138   0.569   2.784   2.418
 3378TIP3   OH210139   3.091   5.382   4.436
 3378TIP3    H110140   3.135   5.310   4.391
 3378TIP3    H210141   3.017   5.341   4.481
 3379TIP3   OH210142   6.147   1.533   4.867
 3379TIP3    H110143   6.094   1.573   4.935
 3379TIP3    H210144   6.184   1.607   4.819
 3380TIP3   OH210145   3.709   4.743   3.604
 3380TIP3    H110146   3.704   4.838   3.614
 3380TIP3    H210147   3.691   4.728   3.511
 3381TIP3   OH210148   5.410   5.197   3.012
 3381TIP3    H110149   5.434   5.124   3.069
 3381TIP3    H210150   5.352   5.251   3.065
 3382TIP3   OH210151   1.112   1.383   1.571
 3382TIP3    H110152   1.161   1.357   1.494
 3382TIP3    H210153   1.169   1.446   1.615
 3383TIP3   OH210154   1.667   2.477   2.001
 3383TIP3    H110155   1.597   2.526   1.959
 3383TIP3    H210156   1.747   2.507   1.957
 3384TIP3   OH210157   3.099   0.184   0.342
 3384TIP3    H110158   3.071   0.093   0.352
 3384TIP3    H210159   3.051   0.232   0.410
 3385TIP3   OH210160   3.901   3.994   0.658
 3385TIP3    H110161   3.974   3.998   0.720
 3385TIP3    H210162   3.834   3.943   0.703
 3386TIP3   OH210163   3.687   0.045   4.310
 3386TIP3    H110164   3.625   0.058   4.382
 3386TIP3    H210165   3.729  -0.038   4.330
 3387TIP3   OH210166   2.998   1.116   1.921
 3387TIP3    H110167   2.943   1.046   1.958
 3387TIP3    H210168   3.063   1.133   1.989
 3388TIP3   OH210169   3.255   5.811   3.328
 3388TIP3    H110170   3.297   5.869   3.265
 3388TIP3    H210171   3.163   5.811   3.304
 3389TIP3   OH210172   0.281   3.031   4.852
 3389TIP3    H110173   0.376   3.029   4.846
 3389TIP3    H210174   0.260   3.121   4.876
 3390TIP3   OH210175   1.252  -0.002   4.523
 3390TIP3    H110176   1.265   0.086   4.558
 3390TIP3    H210177   1.198   0.011   4.445
 3391TIP3   OH210178   0.648   1.271   0.803
 3391TIP3    H110179   0.652   1.366   0.797
 3391TIP3    H210180   0.654   1.252   0.896
 3392TIP3   OH210181   3.869   2.852   0.214
 3392TIP3    H110182   3.821   2.798   0.276
 3392TIP3    H210183   3.869   2.802   0.133
 3393TIP3   OH210184   2.081   2.241   3.264
 3393TIP3    H110185   2.024   2.257   3.189
 3393TIP3    H210186   2.126   2.324   3.279
 3394TIP3   OH210187   5.912   1.331   0.548
 3394TIP3    H110188   5.908   1.250   0.498
 3394TIP3    H210189   5.999   1.330   0.588
 3395TIP3   OH210190   3.250   0.368   3.950
 3395TIP3    H110191   3.166   0.360   3.905
 3395TIP3    H210192   3.232   0.336   4.039
 3396TIP3   OH210193   1.825   0.048   0.917
 3396TIP3    H110194   1.871  -0.035   0.934
 3396TIP3    H210195   1.895   0.111   0.901
 3397TIP3   OH210196   3.318   4.961   3.715
 3397TIP3    H110197   3.254   4.906   3.669
 3397TIP3    H210198   3.340   5.030   3.652
 3398TIP3   OH210199   3.356   3.536   3.344
 3398TIP3    H110200   3.408   3.551   3.424
 3398TIP3    H210201   3.308   3.455   3.361
 3399TIP3   OH210202   0.325   1.927   3.541
 3399TIP3    H110203   0.347   1.965   3.626
 3399TIP3    H210204   0.408   1.925   3.494
 3400TIP3   OH210205   1.329   5.769   4.280
 3400TIP3    H110206   1.288   5.728   4.357
 3400TIP3    H210207   1.422   5.771   4.301
 3401TIP3   OH210208   5.190   1.504   5.199
 3401TIP3    H110209   5.183   1.506   5.104
 3401TIP3    H210210   5.177   1.411   5.222
 3402TIP3   OH210211   2.138   0.718   4.276
 3402TIP3    H110212   2.167   0.653   4.213
 3402TIP3    H210213   2.058   0.755   4.238
 3403TIP3   OH210214   2.776   0.789   4.919
 3403TIP3    H110215   2.840   0.856   4.943
 3403TIP3    H210216   2.751   0.748   5.001
 3404TIP3   OH210217   3.148   2.017   3.572
 3404TIP3    H110218   3.171   1.928   3.599
 3404TIP3    H210219   3.107   2.006   3.486
 3405TIP3   OH210220   1.088   3.967   3.349
 3405TIP3    H110221   1.013   3.910   3.369
 3405TIP3    H210222   1.062   4.013   3.269
 3406TIP3   OH210223   2.970   4.511   2.955
 3406TIP3    H110224   2.916   4.533   2.879
 3406TIP3    H210225   2.909   4.475   3.019
 3407TIP3   OH210226   3.249   4.581   4.872
 3407TIP3    H110227   3.157   4.597   4.891
 3407TIP3    H210228   3.255   4.587   4.776
 3408TIP3   OH210229   3.561   0.724   0.578
 3408TIP3    H110230   3.628   0.655   0.577
 3408TIP3    H210231   3.570   0.763   0.665
 3409TIP3   OH210232   5.176   4.294   3.324
 3409TIP3    H110233   5.107   4.287   3.390
 3409TIP3    H210234   5.195   4.204   3.299
 3410TIP3   OH210235   0.730   3.174   1.265
 3410TIP3    H110236   0.732   3.082   1.294
 3410TIP3    H210237   0.819   3.191   1.235
 3411TIP3   OH210238   0.736   1.553   4.305
 3411TIP3    H110239   0.676   1.609   4.355
 3411TIP3    H210240   0.727   1.467   4.345
 3412TIP3   OH210241   1.909   3.838   3.221
 3412TIP3    H110242   1.987   3.894   3.221
 3412TIP3    H210243   1.874   3.845   3.133
 3413TIP3   OH210244   1.029   3.341   0.709
 3413TIP3    H110245   0.975   3.279   0.758
 3413TIP3    H210246   1.063   3.291   0.635
 3414TIP3   OH210247   1.289   1.663   0.093
 3414TIP3    H110248   1.366   1.605   0.096
 3414TIP3    H210249   1.285   1.693   0.003
 3415TIP3   OH210250   2.101   3.512   1.983
 3415TIP3    H110251   2.190   3.501   1.949
 3415TIP3    H210252   2.094   3.448   2.053
 3416TIP3   OH210253   4.728   2.755   2.040
 3416TIP3    H110254   4.683   2.831   2.078
 3416TIP3    H210255   4.663   2.717   1.980
 3417TIP3   OH210256   0.605   5.644   2.536
 3417TIP3    H110257   0.619   5.680   2.623
 3417TIP3    H210258   0.595   5.721   2.480
 3418TIP3   OH210259   4.389   3.390   3.993
 3418TIP3    H110260   4.368   3.428   4.078
 3418TIP3    H210261   4.453   3.321   4.014
 3419TIP3   OH210262   3.137   1.133   4.747
 3419TIP3    H110263   3.214   1.099   4.792
 3419TIP3    H210264   3.159   1.126   4.654
 3420TIP3   OH210265   4.138   3.767   2.663
 3420TIP3    H110266   4.175   3.845   2.620
 3420TIP3    H210267   4.115   3.797   2.751
 3421TIP3   OH210268   1.787   4.236   3.308
 3421TIP3    H110269   1.811   4.172   3.241
 3421TIP3    H210270   1.777   4.318   3.260
 3422TIP3   OH210271   2.490   2.303   1.826
 3422TIP3    H110272   2.402   2.289   1.790
 3422TIP3    H210273   2.479   2.292   1.920
 3423TIP3   OH210274   5.552   0.863   4.607
 3423TIP3    H110275   5.561   0.771   4.584
 3423TIP3    H210276   5.468   0.869   4.653
 3424TIP3   OH210277   2.992   5.680   1.797
 3424TIP3    H110278   2.985   5.585   1.809
 3424TIP3    H210279   2.917   5.702   1.742
 3425TIP3   OH210280   1.964   2.585   3.376
 3425TIP3    H110281   1.868   2.579   3.386
 3425TIP3    H210282   1.998   2.531   3.448
 3426TIP3   OH210283   0.201   0.976   5.113
 3426TIP3    H110284   0.152   0.902   5.077
 3426TIP3    H210285   0.181   1.049   5.053
 3427TIP3   OH210286   4.427   3.652   0.377
 3427TIP3    H110287   4.425   3.748   0.371
 3427TIP3    H210288   4.339   3.625   0.352
 3428TIP3   OH210289   2.093   3.223   1.814
 3428TIP3    H110290   2.182   3.200   1.788
 3428TIP3    H210291   2.102   3.254   1.904
 3429TIP3   OH210292   2.768   3.683   1.396
 3429TIP3    H110293   2.794   3.762   1.445
 3429TIP3    H210294   2.773   3.710   1.304
 3430TIP3   OH210295   1.652   1.246   4.376
 3430TIP3    H110296   1.558   1.255   4.361
 3430TIP3    H210297   1.666   1.153   4.390
 3431TIP3   OH210298   4.041   5.709   1.418
 3431TIP3    H110299   3.961   5.756   1.441
 3431TIP3    H210300   4.062   5.738   1.329
 3432TIP3   OH210301   0.639   3.843   2.140
 3432TIP3    H110302   0.649   3.936   2.164
 3432TIP3    H210303   0.719   3.822   2.092
 3433TIP3   OH210304   5.889   4.611   1.644
 3433TIP3    H110305   5.902   4.636   1.735
 3433TIP3    H210306   5.974   4.575   1.616
 3434TIP3   OH210307   4.344   1.652   5.175
 3434TIP3    H110308   4.278   1.687   5.234
 3434TIP3    H210309   4.347   1.558   5.194
 3435TIP3   OH210310   1.122   4.815   2.593
 3435TIP3    H110311   1.106   4.892   2.537
 3435TIP3    H210312   1.036   4.792   2.627
 3436TIP3   OH210313   5.660   1.892   1.227
 3436TIP3    H110314   5.720   1.829   1.265
 3436TIP3    H210315   5.712   1.972   1.217
 3437TIP3   OH210316   3.568   2.693   5.140
 3437TIP3    H110317   3.504   2.634   5.180
 3437TIP3    H210318   3.547   2.779   5.178
 3438TIP3   OH210319   2.002   3.826   4.823
 3438TIP3    H110320   2.085   3.854   4.862
 3438TIP3    H210321   2.017   3.736   4.796
 3439TIP3   OH210322   0.497   1.274   3.007
 3439TIP3    H110323   0.450   1.338   3.060
 3439TIP3    H210324   0.478   1.299   2.916
 3440TIP3   OH210325   6.016   3.863   2.156
 3440TIP3    H110326   6.090   3.896   2.105
 3440TIP3    H210327   5.941   3.916   2.128
 3441TIP3   OH210328   6.137   5.950   0.506
 3441TIP3    H110329   6.223   5.961   0.548
 3441TIP3    H210330   6.084   6.021   0.540
 3442TIP3   OH210331   5.791   1.752   0.726
 3442TIP3    H110332   5.699   1.730   0.716
 3442TIP3    H210333   5.806   1.757   0.820
 3443TIP3   OH210334   5.347   2.747   3.531
 3443TIP3    H110335   5.441   2.762   3.540
 3443TIP3    H210336   5.340   2.667   3.479
 3444TIP3   OH210337   0.628   3.298   3.970
 3444TIP3    H110338   0.674   3.219   3.941
 3444TIP3    H210339   0.697   3.363   3.982
 3445TIP3   OH210340   3.036   1.944   2.586
 3445TIP3    H110341   3.010   1.882   2.655
 3445TIP3    H210342   3.025   1.895   2.505
 3446TIP3   OH210343   3.566   3.065   5.174
 3446TIP3    H110344   3.537   3.005   5.242
 3446TIP3    H210345   3.518   3.038   5.096
 3447TIP3   OH210346   5.615   0.988   3.216
 3447TIP3    H110347   5.534   1.027   3.247
 3447TIP3    H210348   5.680   1.058   3.223
 3448TIP3   OH210349   2.128   1.613   3.172
 3448TIP3    H110350   2.054   1.670   3.193
 3448TIP3    H210351   2.194   1.635   3.238
 3449TIP3   OH210352   1.613   4.543   4.254
 3449TIP3    H110353   1.579   4.572   4.169
 3449TIP3    H210354   1.704   4.518   4.238
 3450TIP3   OH210355   4.799   1.149   4.826
 3450TIP3    H110356   4.882   1.179   4.863
 3450TIP3    H210357   4.789   1.200   4.746
 3451TIP3   OH210358   2.344   1.495   1.685
 3451TIP3    H110359   2.384   1.523   1.768
 3451TIP3    H210360   2.394   1.417   1.659
 3452TIP3   OH210361   4.845   5.413   2.712
 3452TIP3    H110362   4.799   5.480   2.661
 3452TIP3    H210363   4.776   5.354   2.742
 3453TIP3   OH210364   1.044   3.514   4.516
 3453TIP3    H110365   0.997   3.443   4.471
 3453TIP3    H210366   0.977   3.577   4.539
 3454TIP3   OH210367   4.086   0.919   1.515
 3454TIP3    H110368   4.019   0.868   1.560
 3454TIP3    H210369   4.069   0.905   1.422
 3455TIP3   OH210370   3.876   1.595   4.564
 3455TIP3    H110371   3.834   1.679   4.581
 3455TIP3    H210372   3.907   1.602   4.473
 3456TIP3   OH210373   1.216   3.676   3.237
 3456TIP3    H110374   1.183   3.755   3.280
 3456TIP3    H210375   1.285   3.644   3.295
 3457TIP3   OH210376   4.021   4.660   2.494
 3457TIP3    H110377   3.961   4.677   2.422
 3457TIP3    H210378   3.972   4.603   2.554
 3458TIP3   OH210379   3.455   2.935   0.544
 3458TIP3    H110380   3.378   2.973   0.585
 3458TIP3    H210381   3.450   2.963   0.452
 3459TIP3   OH210382   3.113   0.906   3.253
 3459TIP3    H110383   3.079   0.833   3.201
 3459TIP3    H210384   3.159   0.961   3.189
 3460TIP3   OH210385   6.184   2.189   5.151
 3460TIP3    H110386   6.111   2.143   5.191
 3460TIP3    H210387   6.240   2.120   5.115
 3461TIP3   OH210388   4.296   5.809   2.896
 3461TIP3    H110389   4.339   5.894   2.886
 3461TIP3    H210390   4.285   5.799   2.990
 3462TIP3   OH210391   0.264   4.205   5.022
 3462TIP3    H110392   0.346   4.162   4.998
 3462TIP3    H210393   0.227   4.236   4.939
 3463TIP3   OH210394   5.939   5.045   1.876
 3463TIP3    H110395   5.967   5.131   1.847
 3463TIP3    H210396   5.880   5.063   1.950
 3464TIP3   OH210397   5.825   1.449   2.410
 3464TIP3    H110398   5.745   1.502   2.415
 3464TIP3    H210399   5.894   1.513   2.391
 3465TIP3   OH210400   1.306   3.749   3.838
 3465TIP3    H110401   1.322   3.819   3.775
 3465TIP3    H210402   1.224   3.775   3.881
 3466TIP3   OH210403   2.929   5.277   4.625
 3466TIP3    H110404   2.839   5.294   4.595
 3466TIP3    H210405   2.939   5.333   4.702
 3467TIP3   OH210406   2.643   4.008   5.093
 3467TIP3    H110407   2.690   4.081   5.133
 3467TIP3    H210408   2.690   3.991   5.011
 3468TIP3   OH210409   1.715   5.482   1.302
 3468TIP3    H110410   1.755   5.568   1.289
 3468TIP3    H210411   1.699   5.478   1.397
 3469TIP3   OH210412   2.441   3.050   0.186
 3469TIP3    H110413   2.440   3.002   0.103
 3469TIP3    H210414   2.493   2.995   0.244
 3470TIP3   OH210415   1.461   3.767   3.269
 3470TIP3    H110416   1.439   3.839   3.209
 3470TIP3    H210417   1.459   3.807   3.356
 3471TIP3   OH210418   2.066   4.283   4.849
 3471TIP3    H110419   2.127   4.233   4.904
 3471TIP3    H210420   1.994   4.221   4.832
 3472TIP3   OH210421   4.515   1.488   4.737
 3472TIP3    H110422   4.606   1.501   4.762
 3472TIP3    H210423   4.506   1.394   4.726
 3473TIP3   OH210424   4.253   5.127   5.091
 3473TIP3    H110425   4.204   5.138   5.010
 3473TIP3    H210426   4.335   5.175   5.075
 3474TIP3   OH210427   3.948   5.340   4.666
 3474TIP3    H110428   4.008   5.407   4.634
 3474TIP3    H210429   3.940   5.279   4.592
 3475TIP3   OH210430   4.522   0.194   2.238
 3475TIP3    H110431   4.473   0.270   2.268
 3475TIP3    H210432   4.550   0.150   2.318
 3476TIP3   OH210433   6.070   0.612   4.212
 3476TIP3    H110434   6.071   0.644   4.302
 3476TIP3    H210435   6.036   0.522   4.219
 3477TIP3   OH210436   2.290   1.223   0.398
 3477TIP3    H110437   2.341   1.303   0.409
 3477TIP3    H210438   2.245   1.235   0.314
 3478TIP3   OH210439   1.124   2.474   1.163
 3478TIP3    H110440   1.134   2.406   1.097
 3478TIP3    H210441   1.211   2.483   1.202
 3479TIP3   OH210442   4.530   3.149   1.425
 3479TIP3    H110443   4.442   3.169   1.396
 3479TIP3    H210444   4.518   3.085   1.495
 3480TIP3   OH210445   5.324   1.498   2.476
 3480TIP3    H110446   5.321   1.435   2.548
 3480TIP3    H210447   5.246   1.480   2.424
 3481TIP3   OH210448   4.073   4.207   3.995
 3481TIP3    H110449   4.131   4.150   4.045
 3481TIP3    H210450   4.095   4.189   3.903
 3482TIP3   OH210451   2.879   5.271   3.314
 3482TIP3    H110452   2.871   5.228   3.229
 3482TIP3    H210453   2.922   5.207   3.370
 3483TIP3   OH210454   4.271   2.673   3.805
 3483TIP3    H110455   4.184   2.703   3.780
 3483TIP3    H210456   4.256   2.617   3.881
 3484TIP3   OH210457   5.171   4.012   0.597
 3484TIP3    H110458   5.155   4.069   0.522
 3484TIP3    H210459   5.266   4.005   0.603
 3485TIP3   OH210460   2.926   5.459   1.562
 3485TIP3    H110461   2.927   5.434   1.655
 3485TIP3    H210462   2.858   5.405   1.523
 3486TIP3   OH210463   0.317   3.574   4.960
 3486TIP3    H110464   0.292   3.594   4.870
 3486TIP3    H210465   0.402   3.618   4.971
 3487TIP3   OH210466   5.895   2.215   3.549
 3487TIP3    H110467   5.948   2.216   3.469
 3487TIP3    H210468   5.902   2.304   3.583
 3488TIP3   OH210469   2.256   5.582   3.798
 3488TIP3    H110470   2.213   5.510   3.751
 3488TIP3    H210471   2.219   5.578   3.886
 3489TIP3   OH210472   2.573   4.296   2.356
 3489TIP3    H110473   2.654   4.336   2.325
 3489TIP3    H210474   2.539   4.249   2.280
 3490TIP3   OH210475   2.066   3.063   4.186
 3490TIP3    H110476   2.115   3.106   4.116
 3490TIP3    H210477   2.133   3.034   4.249
 3491TIP3   OH210478   0.648   1.551   0.788
 3491TIP3    H110479   0.643   1.621   0.853
 3491TIP3    H210480   0.602   1.586   0.711
 3492TIP3   OH210481   4.048   1.251   3.934
 3492TIP3    H110482   4.116   1.202   3.886
 3492TIP3    H210483   3.993   1.289   3.865
 3493TIP3   OH210484   2.241   2.202   1.749
 3493TIP3    H110485   2.179   2.201   1.822
 3493TIP3    H210486   2.261   2.109   1.734
 3494TIP3   OH210487   4.557   2.518   3.349
 3494TIP3    H110488   4.482   2.528   3.291
 3494TIP3    H210489   4.584   2.607   3.371
 3495TIP3   OH210490   4.968   3.396   3.443
 3495TIP3    H110491   4.887   3.446   3.452
 3495TIP3    H210492   4.971   3.373   3.350
 3496TIP3   OH210493   2.788   0.516   0.011
 3496TIP3    H110494   2.710   0.461   0.005
 3496TIP3    H210495   2.862   0.455   0.005
 3497TIP3   OH210496   4.123   5.213   0.715
 3497TIP3    H110497   4.181   5.289   0.720
 3497TIP3    H210498   4.079   5.210   0.800
 3498TIP3   OH210499   6.276   0.086   3.065
 3498TIP3    H110500   6.329   0.158   3.099
 3498TIP3    H210501   6.308   0.074   2.975
 3499TIP3   OH210502   1.352   0.872   1.369
 3499TIP3    H110503   1.432   0.892   1.321
 3499TIP3    H210504   1.371   0.790   1.415
 3500TIP3   OH210505   1.431   3.504   3.775
 3500TIP3    H110506   1.383   3.587   3.782
 3500TIP3    H210507   1.523   3.531   3.767
 3501TIP3   OH210508   4.046   4.925   3.698
 3501TIP3    H110509   3.969   4.973   3.728
 3501TIP3    H210510   4.042   4.930   3.602
 3502TIP3   OH210511   3.956   2.300   4.765
 3502TIP3    H110512   3.971   2.230   4.828
 3502TIP3    H210513   4.025   2.289   4.700
 3503TIP3   OH210514   2.373   4.440   5.077
 3503TIP3    H110515   2.342   4.479   4.996
 3503TIP3    H210516   2.468   4.449   5.073
 3504TIP3   OH210517   3.456   1.531   0.395
 3504TIP3    H110518   3.459   1.513   0.489
 3504TIP3    H210519   3.505   1.613   0.384
 3505TIP3   OH210520   4.122   0.476   1.949
 3505TIP3    H110521   4.108   0.564   1.983
 3505TIP3    H210522   4.212   0.455   1.974
 3506TIP3   OH210523   3.104   1.676   4.897
 3506TIP3    H110524   3.181   1.690   4.951
 3506TIP3    H210525   3.044   1.627   4.954
 3507TIP3   OH210526   1.794   2.459   2.950
 3507TIP3    H110527   1.882   2.483   2.981
 3507TIP3    H210528   1.807   2.438   2.858
 3508TIP3   OH210529   4.567   3.321   0.954
 3508TIP3    H110530   4.480   3.284   0.971
 3508TIP3    H210531   4.592   3.285   0.869
 3509TIP3   OH210532   3.504   1.161   3.088
 3509TIP3    H110533   3.572   1.100   3.115
 3509TIP3    H210534   3.544   1.211   3.016
 3510TIP3   OH210535   5.121   2.371   3.542
 3510TIP3    H110536   5.035   2.389   3.580
 3510TIP3    H210537   5.153   2.457   3.514
 3511TIP3   OH210538   2.933   3.875   0.558
 3511TIP3    H110539   2.988   3.877   0.480
 3511TIP3    H210540   2.993   3.852   0.629
 3512TIP3   OH210541   5.671   0.730   1.689
 3512TIP3    H110542   5.638   0.711   1.776
 3512TIP3    H210543   5.694   0.823   1.691
 3513TIP3   OH210544   2.796   5.074   4.387
 3513TIP3    H110545   2.798   5.012   4.459
 3513TIP3    H210546   2.876   5.056   4.337
 3514TIP3   OH210547   1.461   3.068   0.735
 3514TIP3    H110548   1.505   3.132   0.680
 3514TIP3    H210549   1.496   3.084   0.823
 3515TIP3   OH210550   2.935   4.634   5.074
 3515TIP3    H110551   2.952   4.544   5.101
 3515TIP3    H210552   2.975   4.687   5.143
 3516TIP3   OH210553   5.115   1.960   3.157
 3516TIP3    H110554   5.122   2.042   3.206
 3516TIP3    H210555   5.033   1.921   3.188
 3517TIP3   OH210556   0.050   3.240   2.282
 3517TIP3    H110557   0.113   3.215   2.214
 3517TIP3    H210558  -0.022   3.179   2.272
 3518TIP3   OH210559   5.710   1.686   1.887
 3518TIP3    H110560   5.698   1.714   1.796
 3518TIP3    H210561   5.688   1.763   1.939
 3519TIP3   OH210562   0.540   3.342   0.087
 3519TIP3    H110563   0.514   3.434   0.088
 3519TIP3    H210564   0.571   3.325   0.176
 3520TIP3   OH210565   4.787   2.779   3.829
 3520TIP3    H110566   4.751   2.863   3.801
 3520TIP3    H210567   4.873   2.775   3.787
 3521TIP3   OH210568   4.575   5.574  -0.013
 3521TIP3    H110569   4.592   5.488   0.025
 3521TIP3    H210570   4.599   5.636   0.056
 3522TIP3   OH210571   1.232   5.417   4.206
 3522TIP3    H110572   1.195   5.355   4.268
 3522TIP3    H210573   1.321   5.432   4.237
 3523TIP3   OH210574   5.470   4.966   3.136
 3523TIP3    H110575   5.384   4.934   3.163
 3523TIP3    H210576   5.516   4.888   3.105
 3524TIP3   OH210577   3.470   3.926   3.475
 3524TIP3    H110578   3.389   3.881   3.500
 3524TIP3    H210579   3.537   3.886   3.530
 3525TIP3   OH210580   3.314   4.017   3.122
 3525TIP3    H110581   3.266   4.094   3.151
 3525TIP3    H210582   3.270   3.943   3.165
 3526TIP3   OH210583   2.956   0.564   0.955
 3526TIP3    H110584   3.015   0.516   0.897
 3526TIP3    H210585   2.962   0.655   0.926
 3527TIP3   OH210586   0.279   1.946   1.372
 3527TIP3    H110587   0.349   2.008   1.349
 3527TIP3    H210588   0.247   1.976   1.457
 3528TIP3   OH210589   6.216   3.596   4.214
 3528TIP3    H110590   6.158   3.662   4.176
 3528TIP3    H210591   6.263   3.642   4.284
 3529TIP3   OH210592   4.610   4.496   1.368
 3529TIP3    H110593   4.629   4.589   1.379
 3529TIP3    H210594   4.521   4.494   1.333
 3530TIP3   OH210595   3.845   1.773   0.773
 3530TIP3    H110596   3.938   1.792   0.786
 3530TIP3    H210597   3.835   1.683   0.804
 3531TIP3   OH210598   2.857   1.729   4.164
 3531TIP3    H110599   2.770   1.707   4.197
 3531TIP3    H210600   2.916   1.672   4.214
 3532TIP3   OH210601   3.236   5.150   1.574
 3532TIP3    H110602   3.239   5.054   1.576
 3532TIP3    H210603   3.286   5.177   1.651
 3533TIP3   OH210604   4.454   0.814   4.821
 3533TIP3    H110605   4.424   0.743   4.879
 3533TIP3    H210606   4.520   0.773   4.766
 3534TIP3   OH210607   5.108   4.267   0.848
 3534TIP3    H110608   5.178   4.292   0.908
 3534TIP3    H210609   5.127   4.177   0.823
 3535TIP3   OH210610   5.317   2.154   2.089
 3535TIP3    H110611   5.326   2.111   2.174
 3535TIP3    H210612   5.228   2.191   2.090
 3536TIP3   OH210613   5.720   5.903   0.701
 3536TIP3    H110614   5.772   5.873   0.775
 3536TIP3    H210615   5.697   5.993   0.722
 3537TIP3   OH210616   4.624   5.170   4.511
 3537TIP3    H110617   4.679   5.098   4.481
 3537TIP3    H210618   4.683   5.227   4.561
 3538TIP3   OH210619   2.443   5.372   1.054
 3538TIP3    H110620   2.505   5.308   1.018
 3538TIP3    H210621   2.421   5.428   0.979
 3539TIP3   OH210622   2.338   0.277   2.003
 3539TIP3    H110623   2.287   0.219   2.059
 3539TIP3    H210624   2.305   0.365   2.022
 3540TIP3   OH210625   1.756   3.828   0.147
 3540TIP3    H110626   1.663   3.851   0.155
 3540TIP3    H210627   1.802   3.911   0.161
 3541TIP3   OH210628   0.424   0.769   1.732
 3541TIP3    H110629   0.487   0.825   1.687
 3541TIP3    H210630   0.474   0.691   1.755
 3542TIP3   OH210631   2.536   0.244   4.161
 3542TIP3    H110632   2.471   0.225   4.093
 3542TIP3    H210633   2.548   0.338   4.156
 3543TIP3   OH210634   2.301   1.168   4.553
 3543TIP3    H110635   2.299   1.163   4.458
 3543TIP3    H210636   2.229   1.227   4.575
 3544TIP3   OH210637   5.998   2.119   0.437
 3544TIP3    H110638   5.991   2.155   0.525
 3544TIP3    H210639   6.024   2.028   0.450
 3545TIP3   OH210640   3.320   2.313   3.381
 3545TIP3    H110641   3.357   2.323   3.293
 3545TIP3    H210642   3.391   2.276   3.433
 3546TIP3   OH210643   1.829   3.005   0.774
 3546TIP3    H110644   1.889   2.933   0.756
 3546TIP3    H210645   1.886   3.076   0.806
 3547TIP3   OH210646   4.841   2.502   2.356
 3547TIP3    H110647   4.755   2.517   2.395
 3547TIP3    H210648   4.889   2.451   2.422
 3548TIP3   OH210649   2.433   4.532   3.903
 3548TIP3    H110650   2.385   4.585   3.840
 3548TIP3    H210651   2.387   4.545   3.986
 3549TIP3   OH210652   4.641   3.283   1.923
 3549TIP3    H110653   4.728   3.244   1.922
 3549TIP3    H210654   4.580   3.209   1.921
 3550TIP3   OH210655   3.778   3.307   1.559
 3550TIP3    H110656   3.769   3.384   1.615
 3550TIP3    H210657   3.777   3.342   1.470
 3551TIP3   OH210658   5.267   1.675   0.108
 3551TIP3    H110659   5.199   1.741   0.096
 3551TIP3    H210660   5.338   1.722   0.152
 3552TIP3   OH210661   5.665   1.874   4.047
 3552TIP3    H110662   5.632   1.964   4.049
 3552TIP3    H210663   5.713   1.864   4.129
 3553TIP3   OH210664   1.296   4.747   3.029
 3553TIP3    H110665   1.304   4.834   2.990
 3553TIP3    H210666   1.386   4.714   3.033
 3554TIP3   OH210667   3.202   2.117   2.955
 3554TIP3    H110668   3.222   2.138   2.864
 3554TIP3    H210669   3.222   2.198   3.003
 3555TIP3   OH210670   3.078   2.338   0.007
 3555TIP3    H110671   3.095   2.400   0.077
 3555TIP3    H210672   3.141   2.267   0.020
 3556TIP3   OH210673   5.196   4.936   2.967
 3556TIP3    H110674   5.249   4.995   2.914
 3556TIP3    H210675   5.190   4.856   2.914
 3557TIP3   OH210676   1.450   0.903   2.837
 3557TIP3    H110677   1.545   0.898   2.846
 3557TIP3    H210678   1.425   0.982   2.884
 3558TIP3   OH210679   6.114   0.625   2.903
 3558TIP3    H110680   6.143   0.672   2.982
 3558TIP3    H210681   6.118   0.691   2.834
 3559TIP3   OH210682   3.222   3.543   0.426
 3559TIP3    H110683   3.140   3.567   0.471
 3559TIP3    H210684   3.269   3.626   0.417
 3560TIP3   OH210685   5.801   1.560   4.386
 3560TIP3    H110686   5.823   1.534   4.475
 3560TIP3    H210687   5.795   1.478   4.338
 3561TIP3   OH210688   1.538   2.650   3.003
 3561TIP3    H110689   1.589   2.716   2.956
 3561TIP3    H210690   1.602   2.603   3.057
 3562TIP3   OH210691   0.388   2.798   1.645
 3562TIP3    H110692   0.382   2.893   1.646
 3562TIP3    H210693   0.384   2.772   1.737
 3563TIP3   OH210694   0.552   4.179   4.493
 3563TIP3    H110695   0.508   4.101   4.461
 3563TIP3    H210696   0.621   4.146   4.551
 3564TIP3   OH210697   5.016   4.682   3.360
 3564TIP3    H110698   4.966   4.652   3.284
 3564TIP3    H210699   4.949   4.713   3.421
 3565TIP3   OH210700   3.861   1.618   3.343
 3565TIP3    H110701   3.925   1.547   3.343
 3565TIP3    H210702   3.789   1.585   3.396
 3566TIP3   OH210703   5.015   1.931   3.633
 3566TIP3    H110704   4.983   1.872   3.701
 3566TIP3    H210705   4.940   1.944   3.575
 3567TIP3   OH210706   3.454   5.813   1.539
 3567TIP3    H110707   3.497   5.890   1.577
 3567TIP3    H210708   3.398   5.781   1.610
 3568TIP3   OH210709   2.154   0.454   4.464
 3568TIP3    H110710   2.214   0.515   4.422
 3568TIP3    H210711   2.176   0.369   4.427
 3569TIP3   OH210712   1.451   0.090   1.607
 3569TIP3    H110713   1.407   0.064   1.527
 3569TIP3    H210714   1.533   0.130   1.578
 3570TIP3   OH210715   4.026   2.978   2.191
 3570TIP3    H110716   4.101   2.920   2.203
 3570TIP3    H210717   3.978   2.973   2.273
 3571TIP3   OH210718   1.676   2.645   2.464
 3571TIP3    H110719   1.764   2.611   2.445
 3571TIP3    H210720   1.617   2.582   2.424
 3572TIP3   OH210721   4.499   4.864   5.033
 3572TIP3    H110722   4.499   4.880   4.939
 3572TIP3    H210723   4.408   4.843   5.054
 3573TIP3   OH210724   1.177   4.831   4.128
 3573TIP3    H110725   1.234   4.802   4.057
 3573TIP3    H210726   1.093   4.788   4.109
 3574TIP3   OH210727   4.279   4.502   3.600
 3574TIP3    H110728   4.272   4.580   3.654
 3574TIP3    H210729   4.310   4.535   3.515
 3575TIP3   OH210730   1.830   4.966   3.524
 3575TIP3    H110731   1.766   4.894   3.532
 3575TIP3    H210732   1.843   4.976   3.430
 3576TIP3   OH210733   2.773   5.378   3.872
 3576TIP3    H110734   2.795   5.300   3.923
 3576TIP3    H210735   2.766   5.346   3.782
 3577TIP3   OH210736   5.609   4.959   1.516
 3577TIP3    H110737   5.622   5.017   1.590
 3577TIP3    H210738   5.696   4.928   1.493
 3578TIP3   OH210739   3.784   0.734   2.878
 3578TIP3    H110740   3.742   0.796   2.819
 3578TIP3    H210741   3.734   0.653   2.866
 3579TIP3   OH210742   3.723   5.573   0.854
 3579TIP3    H110743   3.815   5.554   0.833
 3579TIP3    H210744   3.696   5.499   0.909
 3580TIP3   OH210745   0.536   3.257   3.014
 3580TIP3    H110746   0.585   3.191   3.064
 3580TIP3    H210747   0.493   3.207   2.945
 3581TIP3   OH210748   2.503   1.722   3.528
 3581TIP3    H110749   2.590   1.684   3.512
 3581TIP3    H210750   2.503   1.803   3.478
 3582TIP3   OH210751   3.407   0.138   3.670
 3582TIP3    H110752   3.323   0.112   3.709
 3582TIP3    H210753   3.453   0.182   3.742
 3583TIP3   OH210754   5.863   0.048   1.154
 3583TIP3    H110755   5.885   0.074   1.244
 3583TIP3    H210756   5.789   0.103   1.131
 3584TIP3   OH210757   3.230   0.529   4.586
 3584TIP3    H110758   3.182   0.487   4.515
 3584TIP3    H210759   3.163   0.574   4.637
 3585TIP3   OH210760   3.176   5.440   2.201
 3585TIP3    H110761   3.099   5.403   2.244
 3585TIP3    H210762   3.155   5.534   2.193
 3586TIP3   OH210763   5.526   3.313   4.196
 3586TIP3    H110764   5.493   3.241   4.249
 3586TIP3    H210765   5.599   3.349   4.246
 3587TIP3   OH210766   0.806   2.177   0.698
 3587TIP3    H110767   0.845   2.199   0.783
 3587TIP3    H210768   0.747   2.104   0.718
 3588TIP3   OH210769   2.113   1.680   3.613
 3588TIP3    H110770   2.192   1.633   3.640
 3588TIP3    H210771   2.066   1.620   3.556
 3589TIP3   OH210772   4.660   5.507   4.289
 3589TIP3    H110773   4.567   5.486   4.295
 3589TIP3    H210774   4.687   5.473   4.204
 3590TIP3   OH210775   1.292   4.279   4.997
 3590TIP3    H110776   1.207   4.258   5.037
 3590TIP3    H210777   1.275   4.357   4.946
 3591TIP3   OH210778   0.181   3.902   4.042
 3591TIP3    H110779   0.201   3.852   4.121
 3591TIP3    H210780   0.174   3.993   4.072
 3592TIP3   OH210781   1.768   1.876   4.280
 3592TIP3    H110782   1.742   1.881   4.187
 3592TIP3    H210783   1.685   1.876   4.327
 3593TIP3   OH210784   0.972   5.754   3.576
 3593TIP3    H110785   0.887   5.769   3.616
 3593TIP3    H210786   0.953   5.744   3.482
 3594TIP3   OH210787   3.901   5.153   3.129
 3594TIP3    H110788   3.904   5.059   3.110
 3594TIP3    H210789   3.819   5.183   3.091
 3595TIP3   OH210790   3.417   0.561   1.074
 3595TIP3    H110791   3.408   0.466   1.084
 3595TIP3    H210792   3.415   0.575   0.979
 3596TIP3   OH210793   1.113   0.139   0.645
 3596TIP3    H110794   1.178   0.078   0.610
 3596TIP3    H210795   1.070   0.091   0.716
 3597TIP3   OH210796   0.646   4.845   4.036
 3597TIP3    H110797   0.640   4.786   4.112
 3597TIP3    H210798   0.705   4.915   4.065
 3598TIP3   OH210799   1.839   3.552   4.043
 3598TIP3    H110800   1.887   3.533   3.962
 3598TIP3    H210801   1.752   3.578   4.013
 3599TIP3   OH210802   2.615   2.232  -0.004
 3599TIP3    H110803   2.577   2.150   0.029
 3599TIP3    H210804   2.705   2.210  -0.025
 3600TIP3   OH210805   2.083   3.273   2.122
 3600TIP3    H110806   2.133   3.194   2.102
 3600TIP3    H210807   2.017   3.245   2.185
 3601TIP3   OH210808   4.347   5.664   2.347
 3601TIP3    H110809   4.426   5.675   2.401
 3601TIP3    H210810   4.348   5.740   2.288
 3602TIP3   OH210811   0.212   3.133   3.836
 3602TIP3    H110812   0.261   3.095   3.909
 3602TIP3    H210813   0.267   3.205   3.804
 3603TIP3   OH210814   4.155   5.219   4.847
 3603TIP3    H110815   4.078   5.256   4.805
 3603TIP3    H210816   4.224   5.227   4.781
 3604TIP3   OH210817   5.444   5.570   2.603
 3604TIP3    H110818   5.509   5.508   2.636
 3604TIP3    H210819   5.401   5.524   2.531
 3605TIP3   OH210820   3.307   4.625   4.595
 3605TIP3    H110821   3.389   4.609   4.549
 3605TIP3    H210822   3.316   4.713   4.632
 3606TIP3   OH210823   2.644   3.473   1.824
 3606TIP3    H110824   2.692   3.555   1.811
 3606TIP3    H210825   2.697   3.423   1.886
 3607TIP3   OH210826   3.564   1.500   4.502
 3607TIP3    H110827   3.614   1.482   4.581
 3607TIP3    H210828   3.629   1.499   4.432
 3608TIP3   OH210829   1.930   5.087   3.292
 3608TIP3    H110830   1.993   5.152   3.322
 3608TIP3    H210831   1.846   5.132   3.295
 3609TIP3   OH210832   5.835   4.452   2.694
 3609TIP3    H110833   5.845   4.358   2.706
 3609TIP3    H210834   5.740   4.464   2.681
 3610TIP3   OH210835   3.398   4.717   1.775
 3610TIP3    H110836   3.433   4.632   1.751
 3610TIP3    H210837   3.422   4.774   1.702
 3611TIP3   OH210838   1.542   5.739   2.422
 3611TIP3    H110839   1.583   5.653   2.415
 3611TIP3    H210840   1.517   5.748   2.514
 3612TIP3   OH210841   0.886   4.660   4.253
 3612TIP3    H110842   0.888   4.568   4.279
 3612TIP3    H210843   0.921   4.661   4.164
 3613TIP3   OH210844   4.873   3.971   1.169
 3613TIP3    H110845   4.966   3.957   1.152
 3613TIP3    H210846   4.854   3.917   1.246
 3614TIP3   OH210847   2.487   4.079   1.840
 3614TIP3    H110848   2.542   4.035   1.905
 3614TIP3    H210849   2.521   4.168   1.836
 3615TIP3   OH210850   3.628   3.283   3.024
 3615TIP3    H110851   3.561   3.242   3.080
 3615TIP3    H210852   3.625   3.375   3.048
 3616TIP3   OH210853   2.458   5.083   1.244
 3616TIP3    H110854   2.381   5.034   1.217
 3616TIP3    H210855   2.424   5.158   1.292
 3617TIP3   OH210856   4.516   5.808   2.549
 3617TIP3    H110857   4.519   5.842   2.639
 3617TIP3    H210858   4.563   5.872   2.497
 3618TIP3   OH210859   2.465   1.112   4.070
 3618TIP3    H110860   2.527   1.120   3.996
 3618TIP3    H210861   2.449   1.018   4.077
 3619TIP3   OH210862   5.791   3.112   0.973
 3619TIP3    H110863   5.856   3.183   0.972
 3619TIP3    H210864   5.843   3.032   0.972
 3620TIP3   OH210865   6.318   4.445   3.937
 3620TIP3    H110866   6.342   4.509   4.003
 3620TIP3    H210867   6.274   4.375   3.985
 3621TIP3   OH210868   0.217   1.044   4.162
 3621TIP3    H110869   0.217   0.954   4.194
 3621TIP3    H210870   0.176   1.039   4.075
 3622TIP3   OH210871   5.457   4.682   2.749
 3622TIP3    H110872   5.431   4.686   2.841
 3622TIP3    H210873   5.374   4.685   2.701
 3623TIP3   OH210874   1.509   4.664   4.491
 3623TIP3    H110875   1.509   4.595   4.424
 3623TIP3    H210876   1.599   4.697   4.491
 3624TIP3   OH210877   3.274   3.785   3.268
 3624TIP3    H110878   3.313   3.698   3.261
 3624TIP3    H210879   3.246   3.792   3.359
 3625TIP3   OH210880   3.833   4.335   3.851
 3625TIP3    H110881   3.808   4.243   3.849
 3625TIP3    H210882   3.863   4.350   3.941
 3626TIP3   OH210883   6.227   1.816   4.828
 3626TIP3    H110884   6.255   1.861   4.748
 3626TIP3    H210885   6.264   1.870   4.899
 3627TIP3   OH210886   1.741   1.821   1.922
 3627TIP3    H110887   1.768   1.732   1.946
 3627TIP3    H210888   1.809   1.878   1.958
 3628TIP3   OH210889   2.456   0.770   1.643
 3628TIP3    H110890   2.391   0.830   1.677
 3628TIP3    H210891   2.539   0.819   1.647
 3629TIP3   OH210892   1.593   4.937   1.629
 3629TIP3    H110893   1.641   5.004   1.580
 3629TIP3    H210894   1.567   4.873   1.562
 3630TIP3   OH210895   0.982   4.723   4.574
 3630TIP3    H110896   1.060   4.690   4.529
 3630TIP3    H210897   0.979   4.674   4.656
 3631TIP3   OH210898   0.926   0.750   0.337
 3631TIP3    H110899   0.848   0.778   0.384
 3631TIP3    H210900   0.960   0.676   0.387
 3632TIP3   OH210901   4.274   5.457   0.830
 3632TIP3    H110902   4.336   5.492   0.766
 3632TIP3    H210903   4.323   5.389   0.877
 3633TIP3   OH210904   3.675   4.506   4.929
 3633TIP3    H110905   3.586   4.483   4.956
 3633TIP3    H210906   3.729   4.436   4.964
 3634TIP3   OH210907   5.795   2.243   1.481
 3634TIP3    H110908   5.750   2.199   1.409
 3634TIP3    H210909   5.872   2.282   1.440
 3635TIP3   OH210910   3.176   0.822   2.690
 3635TIP3    H110911   3.112   0.892   2.705
 3635TIP3    H210912   3.249   0.843   2.749
 3636TIP3   OH210913   0.854   4.372   2.091
 3636TIP3    H110914   0.933   4.318   2.082
 3636TIP3    H210915   0.854   4.400   2.182
 3637TIP3   OH210916   6.190   0.835   3.769
 3637TIP3    H110917   6.241   0.863   3.845
 3637TIP3    H210918   6.123   0.903   3.759
 3638TIP3   OH210919   1.827   0.753   3.121
 3638TIP3    H110920   1.850   0.782   3.033
 3638TIP3    H210921   1.788   0.667   3.108
 3639TIP3   OH210922   2.811   4.748   1.438
 3639TIP3    H110923   2.720   4.759   1.467
 3639TIP3    H210924   2.815   4.793   1.354
 3640TIP3   OH210925   2.260   5.427   4.062
 3640TIP3    H110926   2.347   5.467   4.063
 3640TIP3    H210927   2.263   5.363   3.991
 3641TIP3   OH210928   6.032   3.088   0.726
 3641TIP3    H110929   5.939   3.074   0.707
 3641TIP3    H210930   6.032   3.148   0.801
 3642TIP3   OH210931   1.420   1.521   0.914
 3642TIP3    H110932   1.489   1.579   0.944
 3642TIP3    H210933   1.369   1.502   0.993
 3643TIP3   OH210934   5.971   0.496   0.215
 3643TIP3    H110935   6.023   0.471   0.292
 3643TIP3    H210936   6.022   0.464   0.141
 3644TIP3   OH210937   0.856   3.803   1.969
 3644TIP3    H110938   0.939   3.852   1.967
 3644TIP3    H210939   0.805   3.839   1.897
 3645TIP3   OH210940   3.168   2.459   0.266
 3645TIP3    H110941   3.205   2.509   0.339
 3645TIP3    H210942   3.083   2.428   0.300
 3646TIP3   OH210943   4.550   2.107   3.882
 3646TIP3    H110944   4.491   2.101   3.957
 3646TIP3    H210945   4.500   2.154   3.815
 3647TIP3   OH210946   3.653   0.056   2.586
 3647TIP3    H110947   3.563   0.074   2.560
 3647TIP3    H210948   3.646  -0.025   2.638
 3648TIP3   OH210949   5.636   3.280   0.672
 3648TIP3    H110950   5.711   3.225   0.694
 3648TIP3    H210951   5.627   3.271   0.577
 3649TIP3   OH210952   4.998   2.115   1.187
 3649TIP3    H110953   4.939   2.188   1.171
 3649TIP3    H210954   4.980   2.053   1.116
 3650TIP3   OH210955   3.748   1.260   0.355
 3650TIP3    H110956   3.748   1.356   0.359
 3650TIP3    H210957   3.841   1.236   0.363
 3651TIP3   OH210958   3.711   0.420   4.045
 3651TIP3    H110959   3.631   0.438   4.095
 3651TIP3    H210960   3.700   0.468   3.963
 3652TIP3   OH210961   5.478   1.327   0.529
 3652TIP3    H110962   5.532   1.292   0.459
 3652TIP3    H210963   5.497   1.270   0.604
 3653TIP3   OH210964   1.935   1.965   3.854
 3653TIP3    H110965   1.945   1.953   3.759
 3653TIP3    H210966   2.020   1.997   3.883
 3654TIP3   OH210967   1.070   4.981   3.142
 3654TIP3    H110968   1.027   5.049   3.193
 3654TIP3    H210969   1.004   4.913   3.131
 3655TIP3   OH210970   1.033   4.429   3.686
 3655TIP3    H110971   1.042   4.395   3.775
 3655TIP3    H210972   1.025   4.352   3.631
 3656TIP3   OH210973   0.955   0.125   1.811
 3656TIP3    H110974   0.908   0.062   1.756
 3656TIP3    H210975   1.044   0.091   1.816
 3657TIP3   OH210976   5.886   2.119   2.663
 3657TIP3    H110977   5.810   2.177   2.652
 3657TIP3    H210978   5.858   2.054   2.727
 3658TIP3   OH210979   0.822   0.717   1.605
 3658TIP3    H110980   0.836   0.638   1.554
 3658TIP3    H210981   0.904   0.730   1.652
 3659TIP3   OH210982   5.491   0.727   0.033
 3659TIP3    H110983   5.498   0.750  -0.060
 3659TIP3    H210984   5.550   0.652   0.043
 3660TIP3   OH210985   1.747   0.341   1.771
 3660TIP3    H110986   1.733   0.432   1.799
 3660TIP3    H210987   1.695   0.289   1.833
 3661TIP3   OH210988   0.440   5.232   0.406
 3661TIP3    H110989   0.525   5.273   0.391
 3661TIP3    H210990   0.459   5.139   0.412
 3662TIP3   OH210991   0.611   5.576   0.845
 3662TIP3    H110992   0.639   5.626   0.769
 3662TIP3    H210993   0.557   5.506   0.808
 3663TIP3   OH210994   0.524   2.673   0.268
 3663TIP3    H110995   0.605   2.634   0.235
 3663TIP3    H210996   0.458   2.604   0.258
 3664TIP3   OH210997   0.463   3.680   3.100
 3664TIP3    H110998   0.466   3.628   3.180
 3664TIP3    H210999   0.383   3.732   3.109
 3665TIP3   OH211000   4.208   1.014   1.911
 3665TIP3    H111001   4.276   1.080   1.919
 3665TIP3    H211002   4.129   1.062   1.889
 3666TIP3   OH211003   5.588   5.244   4.747
 3666TIP3    H111004   5.609   5.337   4.739
 3666TIP3    H211005   5.561   5.233   4.839
 3667TIP3   OH211006   4.499   3.688   2.545
 3667TIP3    H111007   4.489   3.727   2.458
 3667TIP3    H211008   4.429   3.624   2.551
 3668TIP3   OH211009   4.002   2.146   1.862
 3668TIP3    H111010   3.941   2.219   1.859
 3668TIP3    H211011   3.947   2.068   1.869
 3669TIP3   OH211012   3.844   5.152   3.798
 3669TIP3    H111013   3.897   5.148   3.877
 3669TIP3    H211014   3.830   5.245   3.783
 3670TIP3   OH211015   0.057   1.340   4.180
 3670TIP3    H111016   0.148   1.318   4.159
 3670TIP3    H211017   0.005   1.283   4.124
 3671TIP3   OH211018   0.135   2.389   2.948
 3671TIP3    H111019   0.200   2.393   3.018
 3671TIP3    H211020   0.168   2.320   2.889
 3672TIP3   OH211021   0.565   2.442   2.938
 3672TIP3    H111022   0.585   2.377   2.870
 3672TIP3    H211023   0.650   2.476   2.965
 3673TIP3   OH211024   2.416   1.552   1.235
 3673TIP3    H111025   2.323   1.532   1.243
 3673TIP3    H211026   2.435   1.609   1.310
 3674TIP3   OH211027   5.255   0.235   4.568
 3674TIP3    H111028   5.280   0.144   4.556
 3674TIP3    H211029   5.289   0.280   4.491
 3675TIP3   OH211030   0.680   1.194   0.094
 3675TIP3    H111031   0.732   1.117   0.117
 3675TIP3    H211032   0.659   1.235   0.178
 3676TIP3   OH211033   0.884   4.161   0.527
 3676TIP3    H111034   0.810   4.101   0.543
 3676TIP3    H211035   0.913   4.139   0.438
 3677TIP3   OH211036   2.325   3.485   1.457
 3677TIP3    H111037   2.283   3.555   1.407
 3677TIP3    H211038   2.284   3.490   1.544
 3678TIP3   OH211039   2.126   0.036   0.641
 3678TIP3    H111040   2.194  -0.027   0.667
 3678TIP3    H211041   2.175   0.115   0.618
 3679TIP3   OH211042   5.898   1.937   0.059
 3679TIP3    H111043   5.860   1.859   0.020
 3679TIP3    H211044   5.835   1.965   0.125
 3680TIP3   OH211045   2.106   5.795   1.572
 3680TIP3    H111046   2.018   5.833   1.567
 3680TIP3    H211047   2.118   5.773   1.664
 3681TIP3   OH211048   4.205   4.623   2.248
 3681TIP3    H111049   4.227   4.591   2.160
 3681TIP3    H211050   4.203   4.718   2.239
 3682TIP3   OH211051   0.478   3.637   2.418
 3682TIP3    H111052   0.526   3.561   2.386
 3682TIP3    H211053   0.537   3.711   2.402
 3683TIP3   OH211054   1.383   4.643   2.207
 3683TIP3    H111055   1.427   4.715   2.161
 3683TIP3    H211056   1.449   4.610   2.268
 3684TIP3   OH211057   0.872   0.660   2.209
 3684TIP3    H111058   0.886   0.602   2.134
 3684TIP3    H211059   0.939   0.727   2.201
 3685TIP3   OH211060   4.598   3.714   3.323
 3685TIP3    H111061   4.552   3.690   3.243
 3685TIP3    H211062   4.610   3.631   3.370
 3686TIP3   OH211063   5.325   4.169   2.552
 3686TIP3    H111064   5.271   4.226   2.497
 3686TIP3    H211065   5.294   4.080   2.532
 3687TIP3   OH211066   4.613   2.128   1.240
 3687TIP3    H111067   4.681   2.187   1.272
 3687TIP3    H211068   4.600   2.153   1.148
 3688TIP3   OH211069   2.074   1.005   1.798
 3688TIP3    H111070   2.061   0.974   1.708
 3688TIP3    H211071   2.169   1.003   1.810
 3689TIP3   OH211072   4.174   3.023   4.911
 3689TIP3    H111073   4.251   3.024   4.968
 3689TIP3    H211074   4.208   2.997   4.825
 3690TIP3   OH211075   3.243   2.329   2.077
 3690TIP3    H111076   3.215   2.386   2.148
 3690TIP3    H211077   3.312   2.275   2.116
 3691TIP3   OH211078   4.128   3.955   4.135
 3691TIP3    H111079   4.167   3.918   4.056
 3691TIP3    H211080   4.115   3.880   4.193
 3692TIP3   OH211081   5.640   1.513   1.555
 3692TIP3    H111082   5.627   1.425   1.518
 3692TIP3    H211083   5.610   1.572   1.486
 3693TIP3   OH211084   2.033   5.488   1.500
 3693TIP3    H111085   2.052   5.481   1.407
 3693TIP3    H211086   2.007   5.579   1.513
 3694TIP3   OH211087   0.206   4.022   4.319
 3694TIP3    H111088   0.291   4.044   4.282
 3694TIP3    H211089   0.160   4.106   4.326
 3695TIP3   OH211090   2.297   3.224   1.128
 3695TIP3    H111091   2.336   3.207   1.214
 3695TIP3    H211092   2.233   3.154   1.116
 3696TIP3   OH211093   4.299   2.806   3.100
 3696TIP3    H111094   4.263   2.732   3.051
 3696TIP3    H211095   4.257   2.883   3.061
 3697TIP3   OH211096   2.287   1.944   0.221
 3697TIP3    H111097   2.202   1.978   0.194
 3697TIP3    H211098   2.270   1.900   0.304
 3698TIP3   OH211099   3.095   4.054   1.123
 3698TIP3    H111100   3.042   3.975   1.128
 3698TIP3    H211101   3.160   4.035   1.055
 3699TIP3   OH211102   4.519   1.543   3.042
 3699TIP3    H111103   4.451   1.491   2.998
 3699TIP3    H211104   4.601   1.501   3.017
 3700TIP3   OH211105   6.011   5.669   3.938
 3700TIP3    H111106   5.956   5.733   3.894
 3700TIP3    H211107   5.953   5.627   4.001
 3701TIP3   OH211108   0.612   4.425   1.959
 3701TIP3    H111109   0.696   4.396   1.995
 3701TIP3    H211110   0.635   4.496   1.899
 3702TIP3   OH211111   0.907   4.536   3.371
 3702TIP3    H111112   0.896   4.494   3.457
 3702TIP3    H211113   0.991   4.503   3.339
 3703TIP3   OH211114   5.762   5.419   3.798
 3703TIP3    H111115   5.785   5.442   3.888
 3703TIP3    H211116   5.794   5.329   3.788
 3704TIP3   OH211117   4.159   4.496   4.405
 3704TIP3    H111118   4.191   4.476   4.493
 3704TIP3    H211119   4.214   4.442   4.347
 3705TIP3   OH211120   0.591   2.205   2.797
 3705TIP3    H111121   0.684   2.207   2.820
 3705TIP3    H211122   0.585   2.259   2.718
 3706TIP3   OH211123   6.149   0.442   4.852
 3706TIP3    H111124   6.108   0.521   4.888
 3706TIP3    H211125   6.119   0.439   4.761
 3707TIP3   OH211126   2.073   1.344   3.171
 3707TIP3    H111127   2.117   1.428   3.155
 3707TIP3    H211128   2.144   1.279   3.170
 3708TIP3   OH211129   5.254   4.844   5.115
 3708TIP3    H111130   5.252   4.760   5.069
 3708TIP3    H211131   5.167   4.851   5.156
 3709TIP3   OH211132   2.452   3.641   1.707
 3709TIP3    H111133   2.452   3.619   1.800
 3709TIP3    H211134   2.488   3.564   1.664
 3710TIP3   OH211135   0.853   5.923   0.336
 3710TIP3    H111136   0.919   5.865   0.298
 3710TIP3    H211137   0.786   5.930   0.267
 3711TIP3   OH211138   1.665   0.236   2.978
 3711TIP3    H111139   1.625   0.161   3.022
 3711TIP3    H211140   1.591   0.295   2.960
 3712TIP3   OH211141   2.494   5.059   4.944
 3712TIP3    H111142   2.577   5.045   4.898
 3712TIP3    H211143   2.440   5.106   4.880
 3713TIP3   OH211144   3.684   5.414   4.639
 3713TIP3    H111145   3.776   5.394   4.659
 3713TIP3    H211146   3.660   5.351   4.572
 3714TIP3   OH211147   4.720   4.151   4.035
 3714TIP3    H111148   4.801   4.149   4.085
 3714TIP3    H211149   4.655   4.111   4.092
 3715TIP3   OH211150   4.420   1.018   0.603
 3715TIP3    H111151   4.425   0.962   0.681
 3715TIP3    H211152   4.482   0.978   0.541
 3716TIP3   OH211153   3.297   0.678   1.705
 3716TIP3    H111154   3.268   0.700   1.794
 3716TIP3    H211155   3.254   0.742   1.649
 3717TIP3   OH211156   0.131   2.781   0.684
 3717TIP3    H111157   0.164   2.760   0.596
 3717TIP3    H211158   0.141   2.700   0.733
 3718TIP3   OH211159   3.446   0.083   1.036
 3718TIP3    H111160   3.539   0.062   1.031
 3718TIP3    H211161   3.442   0.177   1.019
 3719TIP3   OH211162   0.571  -0.003   1.480
 3719TIP3    H111163   0.561   0.060   1.408
 3719TIP3    H211164   0.573   0.051   1.559
 3720TIP3   OH211165   5.242   0.971   3.986
 3720TIP3    H111166   5.169   1.003   4.039
 3720TIP3    H211167   5.314   0.963   4.049
 3721TIP3   OH211168   0.423   5.643   0.135
 3721TIP3    H111169   0.468   5.616   0.215
 3721TIP3    H211170   0.356   5.576   0.121
 3722TIP3   OH211171   0.430   3.544   0.851
 3722TIP3    H111172   0.427   3.561   0.945
 3722TIP3    H211173   0.339   3.526   0.826
 3723TIP3   OH211174   4.463   1.897   0.131
 3723TIP3    H111175   4.380   1.871   0.171
 3723TIP3    H211176   4.519   1.920   0.205
 3724TIP3   OH211177   2.898   0.665   1.303
 3724TIP3    H111178   2.859   0.696   1.221
 3724TIP3    H211179   2.829   0.615   1.346
 3725TIP3   OH211180   4.827   5.319   0.757
 3725TIP3    H111181   4.799   5.401   0.714
 3725TIP3    H211182   4.756   5.258   0.740
 3726TIP3   OH211183   1.824   2.942   4.963
 3726TIP3    H111184   1.811   2.848   4.976
 3726TIP3    H211185   1.757   2.966   4.898
 3727TIP3   OH211186   2.498   1.257   3.339
 3727TIP3    H111187   2.556   1.331   3.354
 3727TIP3    H211188   2.413   1.287   3.370
 3728TIP3   OH211189   0.765   4.973   2.294
 3728TIP3    H111190   0.784   4.988   2.201
 3728TIP3    H211191   0.799   5.051   2.338
 3729TIP3   OH211192   2.508   1.152   0.141
 3729TIP3    H111193   2.489   1.219   0.206
 3729TIP3    H211194   2.454   1.077   0.167
 3730TIP3   OH211195   0.438   4.984   2.330
 3730TIP3    H111196   0.492   4.922   2.282
 3730TIP3    H211197   0.441   4.954   2.421
 3731TIP3   OH211198   0.500   2.135   3.381
 3731TIP3    H111199   0.553   2.069   3.426
 3731TIP3    H211200   0.469   2.091   3.302
 3732TIP3   OH211201   5.728   4.528   3.395
 3732TIP3    H111202   5.669   4.491   3.460
 3732TIP3    H211203   5.704   4.621   3.391
 3733TIP3   OH211204   3.532   1.947   2.988
 3733TIP3    H111205   3.623   1.959   2.960
 3733TIP3    H211206   3.539   1.884   3.060
 3734TIP3   OH211207   5.335   0.985   0.403
 3734TIP3    H111208   5.416   0.944   0.430
 3734TIP3    H211209   5.351   1.014   0.313
 3735TIP3   OH211210   5.338   3.356   2.589
 3735TIP3    H111211   5.392   3.399   2.655
 3735TIP3    H211212   5.402   3.323   2.525
 3736TIP3   OH211213   4.074   3.660   2.161
 3736TIP3    H111214   4.042   3.617   2.240
 3736TIP3    H211215   4.010   3.729   2.144
 3737TIP3   OH211216   3.095   4.729   1.120
 3737TIP3    H111217   3.040   4.803   1.144
 3737TIP3    H211218   3.056   4.654   1.164
 3738TIP3   OH211219   1.243   2.644   3.503
 3738TIP3    H111220   1.288   2.657   3.587
 3738TIP3    H211221   1.151   2.665   3.522
 3739TIP3   OH211222   2.692   4.480   0.254
 3739TIP3    H111223   2.641   4.408   0.216
 3739TIP3    H211224   2.702   4.543   0.183
 3740TIP3   OH211225   6.278   4.556   3.520
 3740TIP3    H111226   6.186   4.548   3.545
 3740TIP3    H211227   6.278   4.615   3.445
 3741TIP3   OH211228   5.344   4.878   3.982
 3741TIP3    H111229   5.396   4.948   3.942
 3741TIP3    H211230   5.261   4.880   3.933
 3742TIP3   OH211231   6.281   5.208   2.702
 3742TIP3    H111232   6.197   5.253   2.688
 3742TIP3    H211233   6.301   5.168   2.618
 3743TIP3   OH211234   5.756   0.640   1.131
 3743TIP3    H111235   5.754   0.611   1.040
 3743TIP3    H211236   5.796   0.567   1.179
 3744TIP3   OH211237   0.643   2.242   2.060
 3744TIP3    H111238   0.586   2.176   2.019
 3744TIP3    H211239   0.722   2.194   2.084
 3745TIP3   OH211240   1.203   4.548   3.942
 3745TIP3    H111241   1.298   4.555   3.950
 3745TIP3    H211242   1.189   4.462   3.902
 3746TIP3   OH211243   2.180   5.348   3.043
 3746TIP3    H111244   2.201   5.404   2.969
 3746TIP3    H211245   2.177   5.259   3.006
 3747TIP3   OH211246   1.307   3.773   2.302
 3747TIP3    H111247   1.370   3.703   2.310
 3747TIP3    H211248   1.225   3.730   2.276
 3748TIP3   OH211249   1.872   0.948   3.854
 3748TIP3    H111250   1.889   0.894   3.776
 3748TIP3    H211251   1.939   1.016   3.851
 3749TIP3   OH211252   3.254   0.369   0.169
 3749TIP3    H111253   3.296   0.283   0.177
 3749TIP3    H211254   3.171   0.359   0.216
 3750TIP3   OH211255   2.197   4.891   2.423
 3750TIP3    H111256   2.233   4.971   2.460
 3750TIP3    H211257   2.242   4.820   2.469
 3751TIP3   OH211258   1.352   5.375   3.307
 3751TIP3    H111259   1.276   5.415   3.349
 3751TIP3    H211260   1.390   5.445   3.254
 3752TIP3   OH211261   3.342   1.547   3.437
 3752TIP3    H111262   3.325   1.622   3.493
 3752TIP3    H211263   3.416   1.502   3.478
 3753TIP3   OH211264   0.448   0.775   0.548
 3753TIP3    H111265   0.477   0.864   0.568
 3753TIP3    H211266   0.389   0.785   0.473
 3754TIP3   OH211267   5.824   1.434   0.812
 3754TIP3    H111268   5.815   1.410   0.719
 3754TIP3    H211269   5.746   1.399   0.854
 3755TIP3   OH211270   0.233   2.383   1.562
 3755TIP3    H111271   0.175   2.459   1.561
 3755TIP3    H211272   0.174   2.308   1.567
 3756TIP3   OH211273   4.040   1.609   0.158
 3756TIP3    H111274   3.974   1.674   0.186
 3756TIP3    H211275   4.124   1.649   0.183
 3757TIP3   OH211276   1.275   4.903   3.866
 3757TIP3    H111277   1.185   4.934   3.872
 3757TIP3    H211278   1.324   4.979   3.833
 3758TIP3   OH211279   1.163   2.994   2.975
 3758TIP3    H111280   1.178   3.053   3.048
 3758TIP3    H211281   1.156   3.051   2.898
 3759TIP3   OH211282   6.119   3.925   1.887
 3759TIP3    H111283   6.044   3.890   1.837
 3759TIP3    H211284   6.087   4.008   1.922
 3760TIP3   OH211285   2.125   1.247   0.970
 3760TIP3    H111286   2.097   1.180   1.032
 3760TIP3    H211287   2.049   1.260   0.913
 3761TIP3   OH211288   4.747   1.965   3.057
 3761TIP3    H111289   4.775   1.900   3.122
 3761TIP3    H211290   4.783   2.048   3.089
 3762TIP3   OH211291   2.752   0.406   3.875
 3762TIP3    H111292   2.698   0.422   3.797
 3762TIP3    H211293   2.808   0.333   3.850
 3763TIP3   OH211294   1.407   5.137   3.780
 3763TIP3    H111295   1.392   5.223   3.821
 3763TIP3    H211296   1.432   5.158   3.690
 3764TIP3   OH211297   2.680   2.922   3.276
 3764TIP3    H111298   2.594   2.893   3.306
 3764TIP3    H211299   2.741   2.888   3.341
 3765TIP3   OH211300   1.211   2.019   3.861
 3765TIP3    H111301   1.154   2.096   3.856
 3765TIP3    H211302   1.178   1.970   3.936
 3766TIP3   OH211303   0.899   4.499   0.405
 3766TIP3    H111304   0.969   4.473   0.345
 3766TIP3    H211305   0.876   4.588   0.378
 3767TIP3   OH211306   3.568   2.020   0.545
 3767TIP3    H111307   3.533   1.951   0.600
 3767TIP3    H211308   3.500   2.088   0.545
 3768TIP3   OH211309   5.740   2.741   3.282
 3768TIP3    H111310   5.798   2.665   3.279
 3768TIP3    H211311   5.744   2.778   3.194
 3769TIP3   OH211312   1.746   1.388   0.640
 3769TIP3    H111313   1.704   1.349   0.717
 3769TIP3    H211314   1.692   1.465   0.619
 3770TIP3   OH211315   0.128   3.729   2.793
 3770TIP3    H111316   0.162   3.808   2.750
 3770TIP3    H211317   0.172   3.727   2.878
 3771TIP3   OH211318   6.208   5.101   0.556
 3771TIP3    H111319   6.180   5.085   0.466
 3771TIP3    H211320   6.134   5.145   0.598
 3772TIP3   OH211321   1.017   5.893   1.124
 3772TIP3    H111322   0.974   5.878   1.208
 3772TIP3    H211323   0.983   5.824   1.067
 3773TIP3   OH211324   6.358   2.021   1.010
 3773TIP3    H111325   6.297   1.988   1.077
 3773TIP3    H211326   6.316   2.101   0.978
 3774TIP3   OH211327   4.128   5.268   1.846
 3774TIP3    H111328   4.080   5.327   1.905
 3774TIP3    H211329   4.160   5.326   1.777
 3775TIP3   OH211330   0.524   4.869   0.763
 3775TIP3    H111331   0.567   4.819   0.694
 3775TIP3    H211332   0.516   4.808   0.836
 3776TIP3   OH211333   3.380   5.393   2.603
 3776TIP3    H111334   3.340   5.310   2.629
 3776TIP3    H211335   3.315   5.433   2.544
 3777TIP3   OH211336   4.925   4.661   0.690
 3777TIP3    H111337   4.904   4.737   0.744
 3777TIP3    H211338   5.009   4.683   0.650
 3778TIP3   OH211339   3.016   3.868   1.441
 3778TIP3    H111340   2.986   3.891   1.353
 3778TIP3    H211341   2.968   3.928   1.499
 3779TIP3   OH211342   1.095   1.860   3.650
 3779TIP3    H111343   1.098   1.765   3.663
 3779TIP3    H211344   1.140   1.897   3.726
 3780TIP3   OH211345   5.840   1.909   2.424
 3780TIP3    H111346   5.876   1.856   2.495
 3780TIP3    H211347   5.839   1.998   2.458
 3781TIP3   OH211348   5.242   4.022   3.344
 3781TIP3    H111349   5.225   3.956   3.412
 3781TIP3    H211350   5.337   4.034   3.346
 3782TIP3   OH211351   6.011   2.606   0.960
 3782TIP3    H111352   6.069   2.662   0.910
 3782TIP3    H211353   5.964   2.555   0.894
 3783TIP3   OH211354   0.604   1.770   0.922
 3783TIP3    H111355   0.628   1.820   1.001
 3783TIP3    H211356   0.529   1.717   0.949
 3784TIP3   OH211357   3.498   2.403   4.248
 3784TIP3    H111358   3.489   2.497   4.259
 3784TIP3    H211359   3.482   2.366   4.335
 3785TIP3   OH211360   5.533   1.674   1.335
 3785TIP3    H111361   5.559   1.763   1.309
 3785TIP3    H211362   5.455   1.686   1.388
 3786TIP3   OH211363   5.216   0.606   1.573
 3786TIP3    H111364   5.187   0.642   1.656
 3786TIP3    H211365   5.199   0.512   1.580
 3787TIP3   OH211366   0.379   0.045   2.675
 3787TIP3    H111367   0.459  -0.005   2.691
 3787TIP3    H211368   0.354   0.080   2.760
 3788TIP3   OH211369   1.970   0.240   0.043
 3788TIP3    H111370   2.033   0.202  -0.018
 3788TIP3    H211371   1.893   0.184   0.035
 3789TIP3   OH211372   4.884   5.660   0.440
 3789TIP3    H111373   4.966   5.617   0.417
 3789TIP3    H211374   4.879   5.736   0.382
 3790TIP3   OH211375   0.966   3.777   3.050
 3790TIP3    H111376   0.936   3.852   2.999
 3790TIP3    H211377   0.937   3.795   3.139
 3791TIP3   OH211378   1.859   1.486   0.291
 3791TIP3    H111379   1.801   1.556   0.260
 3791TIP3    H211380   1.843   1.482   0.385
 3792TIP3   OH211381   4.501   3.354   4.296
 3792TIP3    H111382   4.588   3.389   4.315
 3792TIP3    H211383   4.516   3.289   4.227
 3793TIP3   OH211384   4.198   1.840   0.239
 3793TIP3    H111385   4.211   1.784   0.316
 3793TIP3    H211386   4.145   1.913   0.272
 3794TIP3   OH211387   0.314   3.694   4.683
 3794TIP3    H111388   0.370   3.770   4.702
 3794TIP3    H211389   0.278   3.713   4.596
 3795TIP3   OH211390   0.028   3.166   4.189
 3795TIP3    H111391   0.068   3.250   4.166
 3795TIP3    H211392   0.090   3.125   4.249
 3796TIP3   OH211393   2.546   1.859   2.450
 3796TIP3    H111394   2.605   1.893   2.518
 3796TIP3    H211395   2.549   1.926   2.382
 3797TIP3   OH211396   3.060   0.098   4.244
 3797TIP3    H111397   3.006   0.141   4.178
 3797TIP3    H211398   3.023   0.010   4.252
 3798TIP3   OH211399   2.043   2.297   4.544
 3798TIP3    H111400   1.986   2.369   4.515
 3798TIP3    H211401   1.997   2.218   4.518
 3799TIP3   OH211402   5.541   5.730   4.618
 3799TIP3    H111403   5.507   5.820   4.613
 3799TIP3    H211404   5.629   5.741   4.655
 3800TIP3   OH211405   1.035   3.484   3.245
 3800TIP3    H111406   1.034   3.462   3.152
 3800TIP3    H211407   1.092   3.560   3.252
 3801TIP3   OH211408   4.799   2.321   1.182
 3801TIP3    H111409   4.852   2.382   1.233
 3801TIP3    H211410   4.786   2.365   1.098
 3802TIP3   OH211411   4.263   2.589   0.683
 3802TIP3    H111412   4.280   2.630   0.598
 3802TIP3    H211413   4.261   2.495   0.664
 3803TIP3   OH211414   3.335   0.525   3.246
 3803TIP3    H111415   3.253   0.499   3.290
 3803TIP3    H211416   3.332   0.480   3.162
 3804TIP3   OH211417   5.117   4.762   0.995
 3804TIP3    H111418   5.161   4.783   1.077
 3804TIP3    H211419   5.170   4.806   0.928
 3805TIP3   OH211420   3.933   4.608   1.127
 3805TIP3    H111421   3.882   4.581   1.204
 3805TIP3    H211422   3.878   4.586   1.053
 3806TIP3   OH211423   4.906   5.416   4.418
 3806TIP3    H111424   4.866   5.452   4.497
 3806TIP3    H211425   4.837   5.421   4.352
 3807TIP3   OH211426   1.056   4.285   2.356
 3807TIP3    H111427   1.133   4.230   2.344
 3807TIP3    H211428   1.088   4.374   2.342
 3808TIP3   OH211429   5.978   5.983   3.755
 3808TIP3    H111430   5.889   5.997   3.790
 3808TIP3    H211431   5.972   5.900   3.708
 3809TIP3   OH211432   4.888   4.219   2.837
 3809TIP3    H111433   4.912   4.243   2.926
 3809TIP3    H211434   4.846   4.297   2.801
 3810TIP3   OH211435   4.927   4.243   3.528
 3810TIP3    H111436   4.969   4.322   3.562
 3810TIP3    H211437   4.850   4.275   3.482
 3811TIP3   OH211438   2.374   4.077   2.222
 3811TIP3    H111439   2.451   4.043   2.177
 3811TIP3    H211440   2.355   4.012   2.289
 3812TIP3   OH211441   2.145   0.126   2.541
 3812TIP3    H111442   2.117   0.214   2.564
 3812TIP3    H211443   2.146   0.079   2.624
 3813TIP3   OH211444   4.360   3.881   1.201
 3813TIP3    H111445   4.410   3.851   1.277
 3813TIP3    H211446   4.389   3.824   1.130
 3814TIP3   OH211447   5.963   1.492   4.600
 3814TIP3    H111448   6.050   1.491   4.560
 3814TIP3    H211449   5.975   1.449   4.684
 3815TIP3   OH211450   4.394   3.765   3.761
 3815TIP3    H111451   4.452   3.783   3.687
 3815TIP3    H211452   4.453   3.756   3.836
 3816TIP3   OH211453   4.798   2.747   0.847
 3816TIP3    H111454   4.778   2.834   0.884
 3816TIP3    H211455   4.880   2.760   0.800
 3817TIP3   OH211456   1.394   0.307   2.010
 3817TIP3    H111457   1.325   0.311   1.944
 3817TIP3    H211458   1.439   0.392   2.002
 3818TIP3   OH211459   4.848   2.204   2.779
 3818TIP3    H111460   4.908   2.163   2.841
 3818TIP3    H211461   4.904   2.240   2.710
 3819TIP3   OH211462   1.082   1.467   3.785
 3819TIP3    H111463   1.147   1.483   3.854
 3819TIP3    H211464   1.131   1.422   3.717
 3820TIP3   OH211465   2.752   2.038   0.251
 3820TIP3    H111466   2.675   1.999   0.211
 3820TIP3    H211467   2.813   1.965   0.262
 3821TIP3   OH211468   1.821   4.796   1.442
 3821TIP3    H111469   1.778   4.713   1.423
 3821TIP3    H211470   1.772   4.860   1.391
 3822TIP3   OH211471   0.498   2.293   0.901
 3822TIP3    H111472   0.489   2.198   0.912
 3822TIP3    H211473   0.529   2.323   0.987
 3823TIP3   OH211474   4.046   5.337   2.809
 3823TIP3    H111475   4.057   5.353   2.903
 3823TIP3    H211476   4.077   5.417   2.767
 3824TIP3   OH211477   3.446   4.598   1.354
 3824TIP3    H111478   3.409   4.686   1.343
 3824TIP3    H211479   3.458   4.566   1.264
 3825TIP3   OH211480   3.641   2.736   3.588
 3825TIP3    H111481   3.594   2.711   3.668
 3825TIP3    H211482   3.697   2.660   3.569
 3826TIP3   OH211483   3.579   3.812   1.559
 3826TIP3    H111484   3.505   3.838   1.505
 3826TIP3    H211485   3.655   3.819   1.501
 3827TIP3   OH211486   2.083   4.820   4.503
 3827TIP3    H111487   2.161   4.822   4.448
 3827TIP3    H211488   2.101   4.753   4.569
 3828TIP3   OH211489   3.505   2.544   1.101
 3828TIP3    H111490   3.460   2.616   1.057
 3828TIP3    H211491   3.543   2.584   1.179
 3829TIP3   OH211492   4.671   2.041   4.292
 3829TIP3    H111493   4.690   2.058   4.200
 3829TIP3    H211494   4.757   2.047   4.335
 3830TIP3   OH211495   0.937   1.718   3.852
 3830TIP3    H111496   0.974   1.747   3.935
 3830TIP3    H211497   0.981   1.636   3.832
 3831TIP3   OH211498   5.648   2.118   3.452
 3831TIP3    H111499   5.736   2.143   3.478
 3831TIP3    H211500   5.594   2.194   3.472
 3832TIP3   OH211501   6.158   0.726   2.623
 3832TIP3    H111502   6.229   0.706   2.683
 3832TIP3    H211503   6.202   0.752   2.542
 3833TIP3   OH211504   0.540   0.972   0.905
 3833TIP3    H111505   0.497   1.035   0.846
 3833TIP3    H211506   0.533   1.012   0.992
 3834TIP3   OH211507   1.220   5.172   1.591
 3834TIP3    H111508   1.200   5.139   1.503
 3834TIP3    H211509   1.268   5.100   1.633
 3835TIP3   OH211510   2.023   0.085   4.638
 3835TIP3    H111511   2.043   0.048   4.724
 3835TIP3    H211512   1.931   0.111   4.645
 3836TIP3   OH211513   5.947   1.906   2.136
 3836TIP3    H111514   5.931   1.904   2.230
 3836TIP3    H211515   5.867   1.946   2.100
 3837TIP3   OH211516  -0.014   0.858   1.103
 3837TIP3    H111517   0.009   0.928   1.042
 3837TIP3    H211518   0.061   0.851   1.162
 3838TIP3   OH211519   5.986   4.927   2.827
 3838TIP3    H111520   5.948   4.951   2.743
 3838TIP3    H211521   5.958   4.836   2.841
 3839TIP3   OH211522   4.262   0.175   0.474
 3839TIP3    H111523   4.243   0.117   0.400
 3839TIP3    H211524   4.284   0.115   0.546
 3840TIP3   OH211525   5.645   5.235   1.631
 3840TIP3    H111526   5.617   5.194   1.713
 3840TIP3    H211527   5.611   5.325   1.637
 3841TIP3   OH211528   3.149   1.240   5.173
 3841TIP3    H111529   3.145   1.306   5.104
 3841TIP3    H211530   3.195   1.166   5.134
 3842TIP3   OH211531   5.077   4.640   4.650
 3842TIP3    H111532   4.987   4.613   4.630
 3842TIP3    H211533   5.124   4.629   4.568
 3843TIP3   OH211534   4.973   0.294   3.121
 3843TIP3    H111535   5.023   0.308   3.041
 3843TIP3    H211536   4.992   0.370   3.176
 3844TIP3   OH211537   1.461   0.557   1.930
 3844TIP3    H111538   1.546   0.551   1.886
 3844TIP3    H211539   1.461   0.643   1.972
 3845TIP3   OH211540   6.227   0.700   1.655
 3845TIP3    H111541   6.299   0.761   1.668
 3845TIP3    H211542   6.176   0.704   1.736
 3846TIP3   OH211543   2.997   4.727   4.006
 3846TIP3    H111544   2.984   4.647   4.058
 3846TIP3    H211545   3.075   4.709   3.953
 3847TIP3   OH211546   5.046   4.902   2.577
 3847TIP3    H111547   5.063   4.983   2.528
 3847TIP3    H211548   4.971   4.923   2.633
 3848TIP3   OH211549   3.651   4.160   3.752
 3848TIP3    H111550   3.568   4.118   3.734
 3848TIP3    H211551   3.705   4.141   3.675
 3849TIP3   OH211552   1.211   3.173   1.668
 3849TIP3    H111553   1.240   3.263   1.676
 3849TIP3    H211554   1.158   3.171   1.588
 3850TIP3   OH211555   2.330   1.728   1.923
 3850TIP3    H111556   2.252   1.698   1.970
 3850TIP3    H211557   2.394   1.658   1.934
 3851TIP3   OH211558   5.773   1.440   0.346
 3851TIP3    H111559   5.773   1.367   0.284
 3851TIP3    H211560   5.836   1.413   0.413
 3852TIP3   OH211561   5.050   0.057   4.156
 3852TIP3    H111562   5.019   0.141   4.122
 3852TIP3    H211563   5.077   0.076   4.246
 3853TIP3   OH211564   6.261   1.893   2.225
 3853TIP3    H111565   6.222   1.828   2.284
 3853TIP3    H211566   6.348   1.909   2.261
 3854TIP3   OH211567   0.315   2.572   4.687
 3854TIP3    H111568   0.340   2.519   4.762
 3854TIP3    H211569   0.229   2.539   4.661
 3855TIP3   OH211570   6.298   5.808   4.507
 3855TIP3    H111571   6.226   5.844   4.453
 3855TIP3    H211572   6.307   5.871   4.579
 3856TIP3   OH211573   3.989   2.035   3.368
 3856TIP3    H111574   3.938   2.040   3.449
 3856TIP3    H211575   3.948   2.099   3.310
 3857TIP3   OH211576   0.175   1.941   2.845
 3857TIP3    H111577   0.158   1.849   2.827
 3857TIP3    H211578   0.267   1.954   2.821
 3858TIP3   OH211579   0.977   3.798   0.051
 3858TIP3    H111580   0.960   3.704   0.061
 3858TIP3    H211581   1.028   3.821   0.129
 3859TIP3   OH211582   4.797   1.804   0.685
 3859TIP3    H111583   4.878   1.855   0.674
 3859TIP3    H211584   4.728   1.870   0.692
 3860TIP3   OH211585   2.051   2.396   0.142
 3860TIP3    H111586   2.078   2.376   0.053
 3860TIP3    H211587   2.045   2.492   0.144
 3861TIP3   OH211588   5.504   0.001   3.173
 3861TIP3    H111589   5.594   0.003   3.142
 3861TIP3    H211590   5.451   0.012   3.094
 3862TIP3   OH211591   0.854   2.684   2.795
 3862TIP3    H111592   0.800   2.639   2.729
 3862TIP3    H211593   0.917   2.619   2.824
 3863TIP3   OH211594   4.696   0.388   3.350
 3863TIP3    H111595   4.686   0.327   3.423
 3863TIP3    H211596   4.755   0.456   3.384
 3864TIP3   OH211597   1.618   0.951   3.191
 3864TIP3    H111598   1.541   0.911   3.153
 3864TIP3    H211599   1.683   0.881   3.193
 3865TIP3   OH211600   1.912   0.719   0.365
 3865TIP3    H111601   1.885   0.728   0.274
 3865TIP3    H211602   1.964   0.797   0.382
 3866TIP3   OH211603   2.462   2.224   3.085
 3866TIP3    H111604   2.540   2.271   3.115
 3866TIP3    H211605   2.480   2.133   3.108
 3867TIP3   OH211606   6.120   3.788   0.760
 3867TIP3    H111607   6.189   3.795   0.825
 3867TIP3    H211608   6.051   3.847   0.791
 3868TIP3   OH211609   2.405   3.370   2.945
 3868TIP3    H111610   2.360   3.341   3.024
 3868TIP3    H211611   2.482   3.416   2.978
 3869TIP3   OH211612   4.388   2.768   2.769
 3869TIP3    H111613   4.332   2.719   2.709
 3869TIP3    H211614   4.391   2.715   2.849
 3870TIP3   OH211615   4.821   1.525   2.673
 3870TIP3    H111616   4.848   1.569   2.754
 3870TIP3    H211617   4.821   1.595   2.608
 3871TIP3   OH211618   0.724   0.784   0.055
 3871TIP3    H111619   0.717   0.746  -0.032
 3871TIP3    H211620   0.729   0.708   0.114
 3872TIP3   OH211621   3.860   1.858   1.461
 3872TIP3    H111622   3.782   1.837   1.513
 3872TIP3    H211623   3.826   1.883   1.375
 3873TIP3   OH211624   5.730   0.460   3.525
 3873TIP3    H111625   5.642   0.450   3.562
 3873TIP3    H211626   5.760   0.544   3.557
 3874TIP3   OH211627   0.867   0.977   4.707
 3874TIP3    H111628   0.863   1.065   4.670
 3874TIP3    H211629   0.837   0.988   4.797
 3875TIP3   OH211630   2.387   4.661   1.041
 3875TIP3    H111631   2.369   4.584   0.987
 3875TIP3    H211632   2.304   4.709   1.040
 3876TIP3   OH211633   0.699   4.719   3.381
 3876TIP3    H111634   0.754   4.641   3.375
 3876TIP3    H211635   0.730   4.764   3.460
 3877TIP3   OH211636   0.591   5.792   3.312
 3877TIP3    H111637   0.507   5.813   3.273
 3877TIP3    H211638   0.574   5.715   3.366
 3878TIP3   OH211639   3.056   0.832   2.998
 3878TIP3    H111640   3.115   0.906   2.987
 3878TIP3    H211641   2.969   0.871   3.002
 3879TIP3   OH211642   3.305   2.607   3.118
 3879TIP3    H111643   3.376   2.641   3.172
 3879TIP3    H211644   3.332   2.517   3.098
 3880TIP3   OH211645   2.860   2.225   2.002
 3880TIP3    H111646   2.863   2.271   1.919
 3880TIP3    H211647   2.941   2.174   2.004
 3881TIP3   OH211648   2.605   5.226   3.501
 3881TIP3    H111649   2.597   5.209   3.595
 3881TIP3    H211650   2.687   5.275   3.493
 3882TIP3   OH211651   4.846   3.962   0.598
 3882TIP3    H111652   4.817   3.964   0.690
 3882TIP3    H211653   4.938   3.939   0.603
 3883TIP3   OH211654   1.789   0.963   0.545
 3883TIP3    H111655   1.756   0.994   0.629
 3883TIP3    H211656   1.797   1.042   0.492
 3884TIP3   OH211657   5.377   3.419   3.386
 3884TIP3    H111658   5.366   3.325   3.368
 3884TIP3    H211659   5.450   3.423   3.448
 3885TIP3   OH211660   5.336   2.018   3.975
 3885TIP3    H111661   5.319   2.020   4.069
 3885TIP3    H211662   5.249   2.020   3.934
 3886TIP3   OH211663   1.895   3.240   2.865
 3886TIP3    H111664   1.968   3.181   2.883
 3886TIP3    H211665   1.863   3.267   2.951
 3887TIP3   OH211666   3.805   2.009   5.115
 3887TIP3    H111667   3.761   1.930   5.083
 3887TIP3    H211668   3.755   2.035   5.192
 3888TIP3   OH211669   2.575   1.683   2.159
 3888TIP3    H111670   2.541   1.595   2.173
 3888TIP3    H211671   2.601   1.712   2.246
 3889TIP3   OH211672   6.187   3.254   1.176
 3889TIP3    H111673   6.246   3.189   1.215
 3889TIP3    H211674   6.240   3.333   1.168
 3890TIP3   OH211675   0.477   1.156   1.283
 3890TIP3    H111676   0.390   1.128   1.312
 3890TIP3    H211677   0.529   1.158   1.363
 3891TIP3   OH211678   2.356   1.815   2.900
 3891TIP3    H111679   2.279   1.769   2.866
 3891TIP3    H211680   2.428   1.782   2.846
 3892TIP3   OH211681   3.561   3.170   1.666
 3892TIP3    H111682   3.578   3.084   1.703
 3892TIP3    H211683   3.648   3.208   1.651
 3893TIP3   OH211684   4.000   3.510   3.594
 3893TIP3    H111685   3.987   3.456   3.516
 3893TIP3    H211686   4.093   3.533   3.592
 3894TIP3   OH211687   2.453   4.799   3.553
 3894TIP3    H111688   2.482   4.847   3.631
 3894TIP3    H211689   2.358   4.796   3.561
 3895TIP3   OH211690   0.749   1.932   1.879
 3895TIP3    H111691   0.688   1.893   1.941
 3895TIP3    H211692   0.694   1.983   1.820
 3896TIP3   OH211693   2.735   5.664   2.417
 3896TIP3    H111694   2.799   5.627   2.477
 3896TIP3    H211695   2.736   5.758   2.436
 3897TIP3   OH211696   4.743   5.747   4.376
 3897TIP3    H111697   4.727   5.657   4.348
 3897TIP3    H211698   4.829   5.768   4.338
 3898TIP3   OH211699   3.184   2.898   0.726
 3898TIP3    H111700   3.162   2.958   0.655
 3898TIP3    H211701   3.110   2.838   0.730
 3899TIP3   OH211702   5.999   3.181   0.142
 3899TIP3    H111703   6.042   3.262   0.115
 3899TIP3    H211704   6.063   3.112   0.126
 3900TIP3   OH211705   5.385   0.871   1.092
 3900TIP3    H111706   5.418   0.807   1.155
 3900TIP3    H211707   5.305   0.904   1.132
 3901TIP3   OH211708   4.595   5.190   0.721
 3901TIP3    H111709   4.521   5.240   0.754
 3901TIP3    H211710   4.613   5.126   0.790
 3902TIP3   OH211711   1.311   0.383   3.688
 3902TIP3    H111712   1.248   0.315   3.665
 3902TIP3    H211713   1.338   0.361   3.777
 3903TIP3   OH211714   4.378   1.065   4.959
 3903TIP3    H111715   4.428   1.133   4.911
 3903TIP3    H211716   4.406   0.983   4.918
 3904TIP3   OH211717   1.955   3.677   4.499
 3904TIP3    H111718   1.880   3.646   4.550
 3904TIP3    H211719   2.009   3.599   4.485
 3905TIP3   OH211720   2.941   3.251   0.933
 3905TIP3    H111721   2.886   3.177   0.908
 3905TIP3    H211722   2.881   3.313   0.975
 3906TIP3   OH211723   3.411   2.098   1.821
 3906TIP3    H111724   3.462   2.092   1.740
 3906TIP3    H211725   3.439   2.021   1.871
 3907TIP3   OH211726   5.296   1.572   2.113
 3907TIP3    H111727   5.290   1.498   2.052
 3907TIP3    H211728   5.231   1.554   2.180
 3908TIP3   OH211729   0.758   3.759   3.699
 3908TIP3    H111730   0.823   3.690   3.690
 3908TIP3    H211731   0.747   3.768   3.794
 3909TIP3   OH211732   3.407   3.619   4.202
 3909TIP3    H111733   3.408   3.688   4.268
 3909TIP3    H211734   3.319   3.581   4.208
 3910TIP3   OH211735   5.693   1.101   2.897
 3910TIP3    H111736   5.604   1.103   2.932
 3910TIP3    H211737   5.725   1.191   2.905
 3911TIP3   OH211738   2.869   0.591   3.278
 3911TIP3    H111739   2.892   0.666   3.333
 3911TIP3    H211740   2.777   0.574   3.298
 3912TIP3   OH211741   0.884   5.443   4.804
 3912TIP3    H111742   0.961   5.388   4.818
 3912TIP3    H211743   0.833   5.434   4.885
 3913TIP3   OH211744   1.433   3.876   1.168
 3913TIP3    H111745   1.513   3.841   1.207
 3913TIP3    H211746   1.383   3.910   1.243
 3914TIP3   OH211747   2.562   5.217   1.935
 3914TIP3    H111748   2.604   5.188   1.854
 3914TIP3    H211749   2.500   5.284   1.906
 3915TIP3   OH211750   6.332   4.141   2.218
 3915TIP3    H111751   6.423   4.162   2.235
 3915TIP3    H211752   6.304   4.089   2.293
 3916TIP3   OH211753   3.373   3.506   0.048
 3916TIP3    H111754   3.367   3.601   0.061
 3916TIP3    H211755   3.281   3.477   0.042
 3917TIP3   OH211756   0.477   3.906   0.859
 3917TIP3    H111757   0.408   3.846   0.886
 3917TIP3    H211758   0.515   3.938   0.941
 3918TIP3   OH211759   5.353   2.368   4.090
 3918TIP3    H111760   5.336   2.277   4.115
 3918TIP3    H211761   5.266   2.405   4.074
 3919TIP3   OH211762   1.677   2.336   3.377
 3919TIP3    H111763   1.732   2.366   3.449
 3919TIP3    H211764   1.647   2.249   3.403
 3920TIP3   OH211765   3.861   5.990   4.224
 3920TIP3    H111766   3.851   5.908   4.176
 3920TIP3    H211767   3.781   6.038   4.207
 3921TIP3   OH211768   5.095   2.539   0.533
 3921TIP3    H111769   5.053   2.605   0.588
 3921TIP3    H211770   5.165   2.503   0.588
 3922TIP3   OH211771   0.667   5.418   1.501
 3922TIP3    H111772   0.676   5.435   1.595
 3922TIP3    H211773   0.696   5.327   1.491
 3923TIP3   OH211774   0.999   5.694   0.583
 3923TIP3    H111775   1.003   5.788   0.563
 3923TIP3    H211776   1.080   5.676   0.630
 3924TIP3   OH211777   6.313   5.595   2.100
 3924TIP3    H111778   6.308   5.637   2.186
 3924TIP3    H211779   6.241   5.634   2.050
 3925TIP3   OH211780   3.714   0.480   2.811
 3925TIP3    H111781   3.683   0.391   2.829
 3925TIP3    H211782   3.723   0.483   2.716
 3926TIP3   OH211783   3.410   5.188   5.123
 3926TIP3    H111784   3.473   5.260   5.128
 3926TIP3    H211785   3.428   5.135   5.200
 3927TIP3   OH211786   0.581   2.743   2.074
 3927TIP3    H111787   0.597   2.757   2.167
 3927TIP3    H211788   0.555   2.651   2.068
 3928TIP3   OH211789   2.242   4.358   4.540
 3928TIP3    H111790   2.252   4.272   4.498
 3928TIP3    H211791   2.165   4.348   4.595
 3929TIP3   OH211792   0.532   4.429   5.098
 3929TIP3    H111793   0.464   4.471   5.151
 3929TIP3    H211794   0.493   4.421   5.011
 3930TIP3   OH211795   0.839   1.459   4.875
 3930TIP3    H111796   0.879   1.472   4.962
 3930TIP3    H211797   0.875   1.530   4.822
 3931TIP3   OH211798   4.363   4.408   4.267
 3931TIP3    H111799   4.358   4.314   4.250
 3931TIP3    H211800   4.364   4.449   4.181
 3932TIP3   OH211801   4.716   0.873   2.797
 3932TIP3    H111802   4.761   0.954   2.825
 3932TIP3    H211803   4.747   0.857   2.709
 3933TIP3   OH211804   5.973   2.205   4.653
 3933TIP3    H111805   6.051   2.159   4.623
 3933TIP3    H211806   5.981   2.205   4.749
 3934TIP3   OH211807   1.167   2.990   2.215
 3934TIP3    H111808   1.173   3.029   2.127
 3934TIP3    H211809   1.113   2.912   2.204
 3935TIP3   OH211810   0.996   0.738   5.051
 3935TIP3    H111811   0.904   0.762   5.056
 3935TIP3    H211812   1.013   0.691   5.133
 3936TIP3   OH211813   0.232   0.932   0.692
 3936TIP3    H111814   0.264   0.872   0.625
 3936TIP3    H211815   0.292   1.007   0.689
 3937TIP3   OH211816   1.495   1.458   4.623
 3937TIP3    H111817   1.408   1.435   4.592
 3937TIP3    H211818   1.533   1.511   4.553
 3938TIP3   OH211819   4.723   5.124   2.664
 3938TIP3    H111820   4.681   5.167   2.589
 3938TIP3    H211821   4.726   5.032   2.640
 3939TIP3   OH211822   5.622   1.580   5.130
 3939TIP3    H111823   5.589   1.633   5.057
 3939TIP3    H211824   5.666   1.642   5.187
 3940TIP3   OH211825   0.142   3.498   0.715
 3940TIP3    H111826   0.157   3.515   0.622
 3940TIP3    H211827   0.050   3.469   0.719
 3941TIP3   OH211828   5.571   2.848   0.253
 3941TIP3    H111829   5.511   2.794   0.202
 3941TIP3    H211830   5.610   2.907   0.188
 3942TIP3   OH211831   2.781   4.060   0.983
 3942TIP3    H111832   2.874   4.083   0.985
 3942TIP3    H211833   2.756   4.054   1.076
 3943TIP3   OH211834   4.528   2.479   0.865
 3943TIP3    H111835   4.604   2.438   0.824
 3943TIP3    H211836   4.495   2.539   0.798
 3944TIP3   OH211837   3.321   0.020   4.168
 3944TIP3    H111838   3.361  -0.047   4.224
 3944TIP3    H211839   3.244   0.048   4.216
 3945TIP3   OH211840   5.625   4.777   3.829
 3945TIP3    H111841   5.590   4.696   3.792
 3945TIP3    H211842   5.630   4.760   3.923
 3946TIP3   OH211843   3.820   4.892   4.640
 3946TIP3    H111844   3.826   4.809   4.687
 3946TIP3    H211845   3.910   4.910   4.613
 3947TIP3   OH211846   1.809   2.272   4.036
 3947TIP3    H111847   1.749   2.286   3.963
 3947TIP3    H211848   1.766   2.207   4.091
 3948TIP3   OH211849   5.884   1.609   1.602
 3948TIP3    H111850   5.797   1.573   1.583
 3948TIP3    H211851   5.914   1.560   1.679
 3949TIP3   OH211852   4.423   1.815   1.401
 3949TIP3    H111853   4.386   1.753   1.339
 3949TIP3    H211854   4.513   1.784   1.415
 3950TIP3   OH211855   4.897   2.756   2.258
 3950TIP3    H111856   4.878   2.692   2.327
 3950TIP3    H211857   4.827   2.744   2.194
 3951TIP3   OH211858   1.511   4.505   3.360
 3951TIP3    H111859   1.471   4.425   3.324
 3951TIP3    H211860   1.457   4.527   3.436
 3952TIP3   OH211861   0.305   3.924   4.907
 3952TIP3    H111862   0.266   3.994   4.854
 3952TIP3    H211863   0.398   3.946   4.912
 3953TIP3   OH211864   1.022   0.556   0.565
 3953TIP3    H111865   1.095   0.500   0.589
 3953TIP3    H211866   1.037   0.637   0.614
 3954TIP3   OH211867   6.290   0.781   4.059
 3954TIP3    H111868   6.307   0.872   4.037
 3954TIP3    H211869   6.331   0.768   4.144
 3955TIP3   OH211870   1.022   3.879   0.540
 3955TIP3    H111871   1.092   3.849   0.597
 3955TIP3    H211872   1.064   3.889   0.454
 3956TIP3   OH211873   4.750   3.020   0.827
 3956TIP3    H111874   4.818   3.083   0.851
 3956TIP3    H211875   4.681   3.073   0.785
 3957TIP3   OH211876   0.933   3.134   4.663
 3957TIP3    H111877   0.964   3.082   4.589
 3957TIP3    H211878   0.954   3.080   4.740
 3958TIP3   OH211879   2.044   1.433   0.747
 3958TIP3    H111880   2.005   1.357   0.705
 3958TIP3    H211881   1.969   1.485   0.777
 3959TIP3   OH211882   2.022   1.218   2.443
 3959TIP3    H111883   2.002   1.252   2.531
 3959TIP3    H211884   2.068   1.290   2.400
 3960TIP3   OH211885   5.951   5.256   0.658
 3960TIP3    H111886   5.931   5.246   0.751
 3960TIP3    H211887   5.919   5.343   0.635
 3961TIP3   OH211888   3.437   4.078   0.516
 3961TIP3    H111889   3.391   4.129   0.450
 3961TIP3    H211890   3.520   4.053   0.474
 3962TIP3   OH211891   5.205   2.460   0.018
 3962TIP3    H111892   5.163   2.489   0.099
 3962TIP3    H211893   5.292   2.432   0.045
 3963TIP3   OH211894   4.758   2.169   3.729
 3963TIP3    H111895   4.724   2.117   3.657
 3963TIP3    H211896   4.696   2.156   3.800
 3964TIP3   OH211897   6.006   3.773   1.536
 3964TIP3    H111898   6.041   3.729   1.614
 3964TIP3    H211899   6.066   3.749   1.466
 3965TIP3   OH211900   4.835   2.194   3.157
 3965TIP3    H111901   4.827   2.287   3.136
 3965TIP3    H211902   4.908   2.189   3.217
 3966TIP3   OH211903   0.009   2.135   4.824
 3966TIP3    H111904  -0.005   2.150   4.918
 3966TIP3    H211905   0.101   2.154   4.810
 3967TIP3   OH211906   2.697   3.258   2.412
 3967TIP3    H111907   2.654   3.259   2.326
 3967TIP3    H211908   2.786   3.288   2.394
 3968TIP3   OH211909   3.944   3.000   1.927
 3968TIP3    H111910   3.980   2.998   2.015
 3968TIP3    H211911   3.940   2.908   1.901
 3969TIP3   OH211912   0.090   5.768   2.444
 3969TIP3    H111913   0.143   5.821   2.385
 3969TIP3    H211914   0.003   5.769   2.405
 3970TIP3   OH211915   3.218   4.557   2.958
 3970TIP3    H111916   3.124   4.547   2.972
 3970TIP3    H211917   3.225   4.616   2.882
 3971TIP3   OH211918   1.277   3.629   1.107
 3971TIP3    H111919   1.291   3.706   1.162
 3971TIP3    H211920   1.365   3.601   1.082
 3972TIP3   OH211921   6.127   1.438   1.444
 3972TIP3    H111922   6.086   1.461   1.528
 3972TIP3    H211923   6.117   1.343   1.438
 3973TIP3   OH211924   3.738   1.748   3.983
 3973TIP3    H111925   3.706   1.813   3.920
 3973TIP3    H211926   3.756   1.670   3.929
 3974TIP3   OH211927   3.084   5.218   3.663
 3974TIP3    H111928   3.009   5.159   3.656
 3974TIP3    H211929   3.114   5.208   3.753
 3975TIP3   OH211930   1.488   1.184   1.270
 3975TIP3    H111931   1.448   1.202   1.185
 3975TIP3    H211932   1.446   1.103   1.299
 3976TIP3   OH211933   0.695   2.319   1.589
 3976TIP3    H111934   0.763   2.369   1.544
 3976TIP3    H211935   0.677   2.370   1.668
 3977TIP3   OH211936   6.231   1.195   0.459
 3977TIP3    H111937   6.168   1.262   0.434
 3977TIP3    H211938   6.210   1.120   0.403
 3978TIP3   OH211939   5.441   1.396   4.658
 3978TIP3    H111940   5.512   1.392   4.722
 3978TIP3    H211941   5.411   1.487   4.662
 3979TIP3   OH211942   4.004   2.163   2.180
 3979TIP3    H111943   3.984   2.074   2.153
 3979TIP3    H211944   3.993   2.163   2.275
 3980TIP3   OH211945   2.238   3.499   4.550
 3980TIP3    H111946   2.189   3.419   4.531
 3980TIP3    H211947   2.329   3.469   4.560
 3981TIP3   OH211948   5.891   0.655   0.858
 3981TIP3    H111949   5.861   0.746   0.849
 3981TIP3    H211950   5.978   0.663   0.898
 3982TIP3   OH211951   5.951   5.617   1.344
 3982TIP3    H111952   5.863   5.626   1.381
 3982TIP3    H211953   5.942   5.550   1.277
 3983TIP3   OH211954   6.014   0.124   3.434
 3983TIP3    H111955   6.095   0.075   3.421
 3983TIP3    H211956   5.945   0.058   3.430
 3984TIP3   OH211957   4.038   2.550   0.274
 3984TIP3    H111958   4.030   2.487   0.202
 3984TIP3    H211959   3.950   2.558   0.309
 3985TIP3   OH211960   2.516   1.997   0.077
 3985TIP3    H111961   2.517   1.951  -0.007
 3985TIP3    H211962   2.432   1.975   0.116
 3986TIP3   OH211963   3.341   0.919   3.680
 3986TIP3    H111964   3.252   0.932   3.649
 3986TIP3    H211965   3.371   0.840   3.635
 3987TIP3   OH211966   2.414   4.408   4.167
 3987TIP3    H111967   2.422   4.353   4.089
 3987TIP3    H211968   2.499   4.452   4.175
 3988TIP3   OH211969   1.948   4.879   2.569
 3988TIP3    H111970   2.028   4.914   2.531
 3988TIP3    H211971   1.918   4.814   2.505
 3989TIP3   OH211972   3.720   0.249   2.362
 3989TIP3    H111973   3.670   0.220   2.285
 3989TIP3    H211974   3.697   0.187   2.431
 3990TIP3   OH211975   5.225   3.022   0.961
 3990TIP3    H111976   5.296   2.964   0.988
 3990TIP3    H211977   5.147   2.986   1.004
 3991TIP3   OH211978   4.242   2.380   1.777
 3991TIP3    H111979   4.270   2.381   1.869
 3991TIP3    H211980   4.153   2.344   1.780
 3992TIP3   OH211981   3.093   1.180   4.082
 3992TIP3    H111982   3.179   1.147   4.054
 3992TIP3    H211983   3.104   1.275   4.085
 3993TIP3   OH211984   0.572   5.087   1.606
 3993TIP3    H111985   0.620   5.080   1.524
 3993TIP3    H211986   0.621   5.152   1.657
 3994TIP3   OH211987   5.296   5.798   3.902
 3994TIP3    H111988   5.276   5.795   3.996
 3994TIP3    H211989   5.302   5.891   3.882
 3995TIP3   OH211990   6.148   0.817   3.106
 3995TIP3    H111991   6.078   0.880   3.124
 3995TIP3    H211992   6.220   0.845   3.161
 3996TIP3   OH211993   6.044   0.405   0.740
 3996TIP3    H111994   6.042   0.491   0.782
 3996TIP3    H211995   6.061   0.344   0.811
 3997TIP3   OH211996   1.017   5.364   3.667
 3997TIP3    H111997   1.052   5.322   3.745
 3997TIP3    H211998   0.923   5.354   3.674
 3998TIP3   OH211999   1.734   5.023   2.733
 3998TIP3    H112000   1.719   5.077   2.655
 3998TIP3    H212001   1.782   4.947   2.701
 3999TIP3   OH212002   1.835   5.133   4.053
 3999TIP3    H112003   1.821   5.069   3.983
 3999TIP3    H212004   1.775   5.205   4.031
 4000TIP3   OH212005   2.933   0.438   5.105
 4000TIP3    H112006   2.978   0.364   5.063
 4000TIP3    H212007   2.978   0.449   5.189
 4001TIP3   OH212008   4.668   2.010   0.290
 4001TIP3    H112009   4.718   1.940   0.247
 4001TIP3    H212010   4.730   2.050   0.350
 4002TIP3   OH212011   4.039   1.798   3.208
 4002TIP3    H112012   4.050   1.884   3.249
 4002TIP3    H212013   3.977   1.752   3.264
 4003TIP3   OH212014   4.385   0.242   4.840
 4003TIP3    H112015   4.379   0.147   4.847
 4003TIP3    H212016   4.479   0.260   4.832
 4004TIP3   OH212017   4.586   1.433   4.206
 4004TIP3    H112018   4.532   1.408   4.280
 4004TIP3    H212019   4.523   1.450   4.135
 4005TIP3   OH212020   2.560   5.144   0.967
 4005TIP3    H112021   2.562   5.108   1.056
 4005TIP3    H212022   2.486   5.099   0.925
 4006TIP3   OH212023   1.398   2.674   2.635
 4006TIP3    H112024   1.414   2.756   2.681
 4006TIP3    H212025   1.451   2.609   2.681
 4007TIP3   OH212026   0.940   2.820   0.074
 4007TIP3    H112027   0.880   2.862   0.136
 4007TIP3    H212028   1.027   2.852   0.099
 4008TIP3   OH212029   3.174   1.324   3.433
 4008TIP3    H112030   3.226   1.405   3.436
 4008TIP3    H212031   3.232   1.260   3.391
 4009TIP3   OH212032   1.333   3.881   4.113
 4009TIP3    H112033   1.365   3.934   4.185
 4009TIP3    H212034   1.392   3.805   4.111
 4010TIP3   OH212035   2.431   2.754   3.595
 4010TIP3    H112036   2.505   2.786   3.647
 4010TIP3    H212037   2.427   2.660   3.614
 4011TIP3   OH212038   0.456   4.819   4.445
 4011TIP3    H112039   0.491   4.769   4.372
 4011TIP3    H212040   0.476   4.910   4.424
 4012TIP3   OH212041   0.999   0.337   2.286
 4012TIP3    H112042   0.952   0.318   2.367
 4012TIP3    H212043   0.942   0.303   2.217
 4013TIP3   OH212044   5.028   2.030   2.254
 4013TIP3    H112045   5.029   2.074   2.169
 4013TIP3    H212046   4.935   2.014   2.272
 4014TIP3   OH212047   3.977   4.124   3.044
 4014TIP3    H112048   4.050   4.091   3.098
 4014TIP3    H212049   3.903   4.069   3.069
 4015TIP3   OH212050   1.293   0.635   2.674
 4015TIP3    H112051   1.344   0.707   2.637
 4015TIP3    H212052   1.223   0.678   2.723
 4016TIP3   OH212053   3.760   4.267   1.455
 4016TIP3    H112054   3.798   4.308   1.534
 4016TIP3    H212055   3.673   4.238   1.482
 4017TIP3   OH212056   5.345   3.262   4.602
 4017TIP3    H112057   5.424   3.219   4.570
 4017TIP3    H212058   5.333   3.229   4.691
 4018TIP3   OH212059   5.349   0.333   4.913
 4018TIP3    H112060   5.353   0.299   4.824
 4018TIP3    H212061   5.440   0.353   4.936
 4019TIP3   OH212062   4.810   4.369   0.927
 4019TIP3    H112063   4.801   4.367   0.832
 4019TIP3    H212064   4.904   4.360   0.942
 4020TIP3   OH212065   3.751   4.558   4.647
 4020TIP3    H112066   3.727   4.555   4.740
 4020TIP3    H212067   3.842   4.527   4.645
 4021TIP3   OH212068   3.198   1.399   1.856
 4021TIP3    H112069   3.238   1.387   1.770
 4021TIP3    H212070   3.106   1.380   1.843
 4022TIP3   OH212071   6.303   5.039   4.108
 4022TIP3    H112072   6.263   5.073   4.187
 4022TIP3    H212073   6.279   5.102   4.040
 4023TIP3   OH212074   2.141   1.718   0.012
 4023TIP3    H112075   2.199   1.649  -0.020
 4023TIP3    H212076   2.123   1.694   0.103
 4024TIP3   OH212077   4.747   4.922   2.427
 4024TIP3    H112078   4.781   4.916   2.517
 4024TIP3    H212079   4.687   4.848   2.420
 4025TIP3   OH212080   0.256   5.910   2.267
 4025TIP3    H112081   0.281   5.988   2.317
 4025TIP3    H212082   0.202   5.944   2.196
 4026TIP3   OH212083   5.859   5.025   3.062
 4026TIP3    H112084   5.871   4.983   2.977
 4026TIP3    H212085   5.933   5.086   3.070
 4027TIP3   OH212086   6.278   3.317   2.898
 4027TIP3    H112087   6.241   3.291   2.982
 4027TIP3    H212088   6.345   3.251   2.879
 4028TIP3   OH212089   1.764   0.159   0.653
 4028TIP3    H112090   1.767   0.184   0.745
 4028TIP3    H212091   1.762   0.242   0.606
 4029TIP3   OH212092   5.757   1.169   0.989
 4029TIP3    H112093   5.707   1.228   1.046
 4029TIP3    H212094   5.719   1.082   1.006
 4030TIP3   OH212095   5.688   4.535   0.672
 4030TIP3    H112096   5.653   4.560   0.587
 4030TIP3    H212097   5.763   4.479   0.652
 4031TIP3   OH212098   5.848   0.031   3.819
 4031TIP3    H112099   5.916   0.097   3.802
 4031TIP3    H212100   5.884  -0.023   3.889
 4032TIP3   OH212101   3.602   0.242   2.873
 4032TIP3    H112102   3.567   0.229   2.961
 4032TIP3    H212103   3.556   0.178   2.819
 4033TIP3   OH212104   5.566   3.972   1.539
 4033TIP3    H112105   5.508   3.940   1.608
 4033TIP3    H212106   5.604   3.892   1.501
 4034TIP3   OH212107   4.765   2.208   2.112
 4034TIP3    H112108   4.840   2.228   2.169
 4034TIP3    H212109   4.725   2.131   2.151
 4035TIP3   OH212110   4.107   0.392   0.533
 4035TIP3    H112111   4.157   0.312   0.515
 4035TIP3    H212112   4.087   0.387   0.626
 4036TIP3   OH212113   3.904   5.943   1.980
 4036TIP3    H112114   3.850   5.901   1.913
 4036TIP3    H212115   3.845   5.955   2.055
 4037TIP3   OH212116   5.030   2.292   0.412
 4037TIP3    H112117   5.044   2.372   0.464
 4037TIP3    H212118   5.119   2.261   0.393
 4038TIP3   OH212119   0.961   4.571   4.798
 4038TIP3    H112120   1.032   4.557   4.861
 4038TIP3    H212121   0.881   4.558   4.849
 4039TIP3   OH212122   0.344   1.773   0.339
 4039TIP3    H112123   0.402   1.703   0.307
 4039TIP3    H212124   0.285   1.790   0.266
 4040TIP3   OH212125   4.987   4.863   5.189
 4040TIP3    H112126   4.904   4.831   5.154
 4040TIP3    H212127   4.988   4.957   5.167
 4041TIP3   OH212128   5.618   0.281   3.044
 4041TIP3    H112129   5.605   0.363   3.091
 4041TIP3    H212130   5.706   0.252   3.070
 4042TIP3   OH212131   2.359   3.919   4.262
 4042TIP3    H112132   2.348   3.827   4.286
 4042TIP3    H212133   2.453   3.930   4.251
 4043TIP3   OH212134   0.341   0.170   0.525
 4043TIP3    H112135   0.308   0.237   0.586
 4043TIP3    H212136   0.262   0.122   0.498
 4044TIP3   OH212137   2.364   3.011   4.929
 4044TIP3    H112138   2.304   3.002   5.003
 4044TIP3    H212139   2.363   2.925   4.886
 4045TIP3   OH212140   4.536   0.876   5.111
 4045TIP3    H112141   4.443   0.887   5.132
 4045TIP3    H212142   4.546   0.782   5.097
 4046TIP3   OH212143   5.988   2.492   0.669
 4046TIP3    H112144   5.910   2.501   0.614
 4046TIP3    H212145   6.061   2.510   0.610
 4047TIP3   OH212146   4.527   4.340   4.741
 4047TIP3    H112147   4.566   4.411   4.791
 4047TIP3    H212148   4.579   4.263   4.763
 4048TIP3   OH212149   1.852   0.757   3.666
 4048TIP3    H112150   1.782   0.703   3.703
 4048TIP3    H212151   1.852   0.737   3.573
 4049TIP3   OH212152   5.387   0.146   1.605
 4049TIP3    H112153   5.340   0.173   1.526
 4049TIP3    H212154   5.399   0.052   1.595
 4050TIP3   OH212155   5.547   5.901   0.950
 4050TIP3    H112156   5.603   5.826   0.973
 4050TIP3    H212157   5.490   5.867   0.881
 4051TIP3   OH212158   3.156   4.389   1.658
 4051TIP3    H112159   3.193   4.301   1.651
 4051TIP3    H212160   3.226   4.447   1.627
 4052TIP3   OH212161   0.921   2.981   4.062
 4052TIP3    H112162   1.001   2.944   4.024
 4052TIP3    H212163   0.886   3.038   3.994
 4053TIP3   OH212164   1.196   2.359   2.744
 4053TIP3    H112165   1.134   2.407   2.690
 4053TIP3    H212166   1.266   2.333   2.684
 4054TIP3   OH212167   5.082   0.344   0.931
 4054TIP3    H112168   5.041   0.392   1.003
 4054TIP3    H212169   5.008   0.308   0.882
 4055TIP3   OH212170   5.729   0.917   1.090
 4055TIP3    H112171   5.743   0.825   1.110
 4055TIP3    H212172   5.649   0.940   1.137
 4056TIP3   OH212173   4.175   2.291   4.092
 4056TIP3    H112174   4.150   2.309   4.002
 4056TIP3    H212175   4.095   2.308   4.143
 4057TIP3   OH212176   6.133   3.139   3.469
 4057TIP3    H112177   6.205   3.146   3.531
 4057TIP3    H212178   6.066   3.088   3.515
 4058TIP3   OH212179   1.104   2.608   0.401
 4058TIP3    H112180   1.171   2.663   0.360
 4058TIP3    H212181   1.022   2.655   0.387
 4059TIP3   OH212182   5.814   5.401   2.425
 4059TIP3    H112183   5.900   5.441   2.435
 4059TIP3    H212184   5.772   5.413   2.511
 4060TIP3   OH212185   5.677   2.403   3.492
 4060TIP3    H112186   5.593   2.431   3.454
 4060TIP3    H212187   5.742   2.426   3.425
 4061TIP3   OH212188   1.045   4.293   3.928
 4061TIP3    H112189   0.983   4.220   3.929
 4061TIP3    H212190   1.130   4.253   3.915
 4062TIP3   OH212191   4.564   1.688   3.630
 4062TIP3    H112192   4.505   1.621   3.596
 4062TIP3    H212193   4.521   1.771   3.609
 4063TIP3   OH212194   0.301   0.736   2.521
 4063TIP3    H112195   0.378   0.728   2.465
 4063TIP3    H212196   0.227   0.745   2.460
 4064TIP3   OH212197   3.532   5.618   2.994
 4064TIP3    H112198   3.529   5.566   2.914
 4064TIP3    H212199   3.440   5.638   3.013
 4065TIP3   OH212200   4.626   5.514   2.597
 4065TIP3    H112201   4.571   5.512   2.676
 4065TIP3    H212202   4.593   5.443   2.543
 4066TIP3   OH212203   1.171   4.458   4.216
 4066TIP3    H112204   1.145   4.508   4.139
 4066TIP3    H212205   1.118   4.378   4.212
 4067TIP3   OH212206   2.785   5.674   3.911
 4067TIP3    H112207   2.783   5.580   3.930
 4067TIP3    H212208   2.820   5.679   3.822
 4068TIP3   OH212209   2.164   2.484   4.221
 4068TIP3    H112210   2.255   2.508   4.202
 4068TIP3    H212211   2.154   2.505   4.314
 4069TIP3   OH212212   2.561   1.201   2.023
 4069TIP3    H112213   2.526   1.166   2.105
 4069TIP3    H212214   2.641   1.247   2.049
 4070TIP3   OH212215   3.535   2.222   3.567
 4070TIP3    H112216   3.570   2.305   3.535
 4070TIP3    H212217   3.571   2.213   3.655
 4071TIP3   OH212218   5.714   4.908   4.096
 4071TIP3    H112219   5.667   4.985   4.065
 4071TIP3    H212220   5.686   4.898   4.186
 4072TIP3   OH212221   3.632   5.246   1.158
 4072TIP3    H112222   3.580   5.214   1.232
 4072TIP3    H212223   3.632   5.341   1.169
 4073TIP3   OH212224   2.696   3.028   4.852
 4073TIP3    H112225   2.744   3.078   4.918
 4073TIP3    H212226   2.661   2.953   4.898
 4074TIP3   OH212227  -0.009   3.107   0.966
 4074TIP3    H112228   0.072   3.090   1.013
 4074TIP3    H212229  -0.055   3.171   1.021
 4075TIP3   OH212230   3.068   1.048   0.068
 4075TIP3    H112231   2.992   1.106   0.073
 4075TIP3    H212232   3.072   1.005   0.153
 4076TIP3   OH212233   4.335   2.828   4.174
 4076TIP3    H112234   4.383   2.806   4.254
 4076TIP3    H212235   4.303   2.744   4.141
 4077TIP3   OH212236   6.306   4.833   2.988
 4077TIP3    H112237   6.289   4.865   2.900
 4077TIP3    H212238   6.249   4.886   3.044
 4078TIP3   OH212239   2.692   3.603   4.278
 4078TIP3    H112240   2.658   3.657   4.207
 4078TIP3    H212241   2.708   3.517   4.239
 4079TIP3   OH212242   3.287   0.941   4.332
 4079TIP3    H112243   3.302   0.865   4.276
 4079TIP3    H212244   3.271   0.905   4.419
 4080TIP3   OH212245   2.212   0.613   1.668
 4080TIP3    H112246   2.298   0.655   1.655
 4080TIP3    H212247   2.230   0.519   1.663
 4081TIP3   OH212248   0.690   3.744   2.959
 4081TIP3    H112249   0.716   3.801   3.031
 4081TIP3    H212250   0.616   3.694   2.993
 4082TIP3   OH212251   4.904   3.225   4.353
 4082TIP3    H112252   4.878   3.169   4.280
 4082TIP3    H212253   4.985   3.186   4.386
 4083TIP3   OH212254   3.923   3.478   0.599
 4083TIP3    H112255   3.993   3.415   0.612
 4083TIP3    H212256   3.967   3.563   0.590
 4084TIP3   OH212257   0.252   3.017   1.040
 4084TIP3    H112258   0.235   2.930   1.074
 4084TIP3    H212259   0.267   3.003   0.946
 4085TIP3   OH212260   5.603   0.685   5.045
 4085TIP3    H112261   5.521   0.687   4.996
 4085TIP3    H212262   5.628   0.777   5.053
 4086TIP3   OH212263   1.385   4.340   3.863
 4086TIP3    H112264   1.426   4.344   3.950
 4086TIP3    H212265   1.446   4.386   3.806
 4087TIP3   OH212266   5.616   2.174   4.109
 4087TIP3    H112267   5.595   2.177   4.016
 4087TIP3    H212268   5.531   2.165   4.153
 4088TIP3   OH212269   2.831   3.169   4.002
 4088TIP3    H112270   2.871   3.082   3.996
 4088TIP3    H212271   2.776   3.176   3.925
 4089TIP3   OH212272   0.156   0.771   1.869
 4089TIP3    H112273   0.248   0.754   1.848
 4089TIP3    H212274   0.159   0.813   1.956
 4090TIP3   OH212275   3.306   0.675   4.138
 4090TIP3    H112276   3.363   0.598   4.142
 4090TIP3    H212277   3.341   0.727   4.065
 4091TIP3   OH212278   6.126   4.048   1.051
 4091TIP3    H112279   6.122   4.144   1.043
 4091TIP3    H212280   6.065   4.016   0.985
 4092TIP3   OH212281   0.248   4.187   1.126
 4092TIP3    H112282   0.195   4.155   1.199
 4092TIP3    H212283   0.196   4.257   1.088
 4093TIP3   OH212284   3.465   3.749   0.415
 4093TIP3    H112285   3.539   3.747   0.354
 4093TIP3    H212286   3.504   3.761   0.501
 4094TIP3   OH212287   2.249   0.590   2.500
 4094TIP3    H112288   2.253   0.660   2.566
 4094TIP3    H212289   2.234   0.635   2.417
 4095TIP3   OH212290   4.353   0.460   2.885
 4095TIP3    H112291   4.329   0.550   2.905
 4095TIP3    H212292   4.432   0.444   2.937
 4096TIP3   OH212293   2.476   0.343   4.457
 4096TIP3    H112294   2.551   0.307   4.409
 4096TIP3    H212295   2.426   0.266   4.483
 4097TIP3   OH212296   6.292   1.734   0.942
 4097TIP3    H112297   6.301   1.828   0.924
 4097TIP3    H212298   6.285   1.693   0.856
 4098TIP3   OH212299   3.888   3.721   4.561
 4098TIP3    H112300   3.801   3.709   4.525
 4098TIP3    H212301   3.892   3.815   4.582
 4099TIP3   OH212302   0.741   0.695   3.897
 4099TIP3    H112303   0.748   0.751   3.975
 4099TIP3    H212304   0.822   0.710   3.850
 4100TIP3   OH212305   4.227   4.914   1.801
 4100TIP3    H112306   4.302   4.870   1.841
 4100TIP3    H212307   4.150   4.867   1.834
 4101TIP3   OH212308   4.694   4.674   1.089
 4101TIP3    H112309   4.746   4.742   1.046
 4101TIP3    H212310   4.714   4.684   1.182
 4102TIP3   OH212311   1.966   5.707   0.060
 4102TIP3    H112312   1.944   5.799   0.052
 4102TIP3    H212313   1.996   5.697   0.151
 4103TIP3   OH212314   1.405   2.166   0.214
 4103TIP3    H112315   1.482   2.114   0.235
 4103TIP3    H212316   1.416   2.247   0.262
 4104TIP3   OH212317   3.225   4.103   1.676
 4104TIP3    H112318   3.158   4.049   1.717
 4104TIP3    H212319   3.280   4.041   1.629
 4105TIP3   OH212320   2.911   2.538   0.393
 4105TIP3    H112321   2.839   2.561   0.333
 4105TIP3    H212322   2.877   2.557   0.480
 4106TIP3   OH212323   3.983   1.002   1.259
 4106TIP3    H112324   3.982   1.092   1.290
 4106TIP3    H212325   3.891   0.978   1.248
 4107TIP3   OH212326   1.316   4.637   0.859
 4107TIP3    H112327   1.350   4.681   0.937
 4107TIP3    H212328   1.361   4.680   0.786
 4108TIP3   OH212329   0.339   2.221   1.770
 4108TIP3    H112330   0.323   2.276   1.848
 4108TIP3    H212331   0.323   2.279   1.696
 4109TIP3   OH212332   3.291   3.072   2.619
 4109TIP3    H112333   3.351   3.020   2.566
 4109TIP3    H212334   3.301   3.161   2.586
 4110TIP3   OH212335   6.287   4.582   3.105
 4110TIP3    H112336   6.284   4.656   3.044
 4110TIP3    H212337   6.327   4.618   3.184
 4111TIP3   OH212338   2.528   2.642   1.364
 4111TIP3    H112339   2.454   2.582   1.365
 4111TIP3    H212340   2.492   2.724   1.330
 4112TIP3   OH212341   0.702   5.499   5.009
 4112TIP3    H112342   0.607   5.515   5.011
 4112TIP3    H212343   0.738   5.574   4.960
 4113TIP3   OH212344   3.255   2.712   4.503
 4113TIP3    H112345   3.163   2.709   4.528
 4113TIP3    H212346   3.279   2.621   4.486
 4114TIP3   OH212347   5.265   1.149   3.511
 4114TIP3    H112348   5.345   1.196   3.536
 4114TIP3    H212349   5.250   1.087   3.582
 4115TIP3   OH212350   2.844   5.241   1.177
 4115TIP3    H112351   2.845   5.213   1.085
 4115TIP3    H212352   2.848   5.337   1.173
 4116TIP3   OH212353   1.447   5.542   3.103
 4116TIP3    H112354   1.404   5.624   3.081
 4116TIP3    H212355   1.516   5.532   3.038
 4117TIP3   OH212356   3.987   1.171   1.886
 4117TIP3    H112357   3.929   1.221   1.943
 4117TIP3    H212358   3.931   1.142   1.814
 4118TIP3   OH212359   6.304   3.804   2.073
 4118TIP3    H112360   6.270   3.826   1.986
 4118TIP3    H212361   6.387   3.759   2.055
 4119TIP3   OH212362   6.120   5.251   2.278
 4119TIP3    H112363   6.111   5.251   2.183
 4119TIP3    H212364   6.133   5.343   2.302
 4120TIP3   OH212365   1.032   4.654   3.075
 4120TIP3    H112366   1.061   4.615   3.157
 4120TIP3    H212367   1.110   4.696   3.038
 4121TIP3   OH212368   2.868   4.224   3.313
 4121TIP3    H112369   2.921   4.163   3.262
 4121TIP3    H212370   2.925   4.250   3.386
 4122TIP3   OH212371   2.372   4.747   2.568
 4122TIP3    H112372   2.340   4.657   2.569
 4122TIP3    H212373   2.459   4.741   2.530
 4123TIP3   OH212374   5.345   1.706   4.079
 4123TIP3    H112375   5.402   1.780   4.056
 4123TIP3    H212376   5.319   1.670   3.994
 4124TIP3   OH212377   0.781   3.637   2.266
 4124TIP3    H112378   0.780   3.578   2.341
 4124TIP3    H212379   0.735   3.716   2.297
 4125TIP3   OH212380   4.493   0.182   0.207
 4125TIP3    H112381   4.452   0.126   0.142
 4125TIP3    H212382   4.432   0.256   0.218
 4126TIP3   OH212383   1.533   5.883   1.241
 4126TIP3    H112384   1.566   5.948   1.179
 4126TIP3    H212385   1.549   5.921   1.327
 4127TIP3   OH212386   3.661   0.871   4.948
 4127TIP3    H112387   3.570   0.870   4.976
 4127TIP3    H212388   3.710   0.842   5.025
 4128TIP3   OH212389   3.870   3.250   2.377
 4128TIP3    H112390   3.794   3.197   2.397
 4128TIP3    H212391   3.945   3.197   2.405
 4129TIP3   OH212392   3.735   4.989   0.978
 4129TIP3    H112393   3.668   5.049   0.947
 4129TIP3    H212394   3.690   4.931   1.040
 4130TIP3   OH212395   5.251   2.790   2.989
 4130TIP3    H112396   5.334   2.827   2.960
 4130TIP3    H212397   5.256   2.791   3.085
 4131TIP3   OH212398   0.196   5.977   1.264
 4131TIP3    H112399   0.275   6.023   1.234
 4131TIP3    H212400   0.214   5.885   1.245
 4132TIP3   OH212401   4.133   2.364   2.069
 4132TIP3    H112402   4.083   2.286   2.096
 4132TIP3    H212403   4.219   2.352   2.109
 4133TIP3   OH212404   4.270   4.648   1.563
 4133TIP3    H112405   4.268   4.735   1.603
 4133TIP3    H212406   4.274   4.588   1.637
 4134TIP3   OH212407   3.412   4.495   2.490
 4134TIP3    H112408   3.423   4.474   2.397
 4134TIP3    H212409   3.369   4.418   2.527
 4135TIP3   OH212410   4.490   5.880   5.093
 4135TIP3    H112411   4.452   5.963   5.067
 4135TIP3    H212412   4.509   5.835   5.011
 4136TIP3   OH212413   6.225   1.900   2.632
 4136TIP3    H112414   6.150   1.929   2.582
 4136TIP3    H212415   6.254   1.977   2.681
 4137TIP3   OH212416   2.155   1.248   4.956
 4137TIP3    H112417   2.211   1.325   4.950
 4137TIP3    H212418   2.177   1.209   5.040
 4138TIP3   OH212419   3.011   3.147   2.469
 4138TIP3    H112420   2.986   3.187   2.386
 4138TIP3    H212421   2.987   3.213   2.535
 4139TIP3   OH212422   4.066   1.553   3.070
 4139TIP3    H112423   4.085   1.598   3.152
 4139TIP3    H212424   4.023   1.619   3.016
 4140TIP3   OH212425   4.765   4.102   5.031
 4140TIP3    H112426   4.756   4.135   5.120
 4140TIP3    H212427   4.723   4.015   5.033
 4141TIP3   OH212428   3.983   5.718   3.700
 4141TIP3    H112429   4.020   5.651   3.643
 4141TIP3    H212430   3.921   5.765   3.645
 4142TIP3   OH212431   4.725   2.541   3.682
 4142TIP3    H112432   4.737   2.451   3.712
 4142TIP3    H212433   4.760   2.595   3.752
 4143TIP3   OH212434   5.445   2.466   3.757
 4143TIP3    H112435   5.413   2.553   3.732
 4143TIP3    H212436   5.484   2.478   3.843
 4144TIP3   OH212437   2.282   3.539   0.403
 4144TIP3    H112438   2.301   3.452   0.369
 4144TIP3    H212439   2.270   3.593   0.324
 4145TIP3   OH212440   1.575   4.895   3.359
 4145TIP3    H112441   1.500   4.869   3.413
 4145TIP3    H212442   1.539   4.959   3.298
 4146TIP3   OH212443   3.076   3.532   3.505
 4146TIP3    H112444   3.143   3.496   3.563
 4146TIP3    H212445   3.028   3.456   3.472
 4147TIP3   OH212446   1.005   3.512   5.188
 4147TIP3    H112447   0.924   3.471   5.158
 4147TIP3    H212448   1.068   3.497   5.118
 4148TIP3   OH212449   3.025   5.407   3.990
 4148TIP3    H112450   3.079   5.465   3.937
 4148TIP3    H212451   2.935   5.429   3.966
 4149TIP3   OH212452   5.673   1.400   4.845
 4149TIP3    H112453   5.740   1.409   4.913
 4149TIP3    H212454   5.598   1.448   4.880
 4150TIP3   OH212455   4.353   2.401   1.053
 4150TIP3    H112456   4.366   2.454   1.132
 4150TIP3    H212457   4.427   2.424   0.997
 4151TIP3   OH212458   3.466   0.043   0.557
 4151TIP3    H112459   3.516   0.108   0.606
 4151TIP3    H212460   3.532  -0.011   0.514
 4152TIP3   OH212461   4.907   2.558   3.488
 4152TIP3    H112462   4.912   2.651   3.513
 4152TIP3    H212463   4.818   2.532   3.513
 4153TIP3   OH212464   1.114   5.472   1.941
 4153TIP3    H112465   1.065   5.555   1.936
 4153TIP3    H212466   1.178   5.479   1.870
 4154TIP3   OH212467   2.807   1.291   3.176
 4154TIP3    H112468   2.723   1.247   3.164
 4154TIP3    H212469   2.842   1.254   3.257
 4155TIP3   OH212470   1.028   5.324   3.984
 4155TIP3    H112471   0.944   5.366   3.997
 4155TIP3    H212472   1.085   5.392   3.948
 4156TIP3   OH212473   0.874   1.917   3.497
 4156TIP3    H112474   0.966   1.896   3.512
 4156TIP3    H212475   0.865   2.009   3.522
 4157TIP3   OH212476   2.711   2.309   3.184
 4157TIP3    H112477   2.733   2.380   3.244
 4157TIP3    H212478   2.764   2.235   3.215
 4158TIP3   OH212479   3.208   1.848   1.091
 4158TIP3    H112480   3.128   1.796   1.082
 4158TIP3    H212481   3.211   1.902   1.012
 4159TIP3   OH212482   2.936   4.950   1.172
 4159TIP3    H112483   2.848   4.988   1.183
 4159TIP3    H212484   2.981   4.970   1.254
 4160TIP3   OH212485   2.129   2.789   2.509
 4160TIP3    H112486   2.077   2.748   2.577
 4160TIP3    H212487   2.203   2.828   2.556
 4161TIP3   OH212488   1.007   3.891   3.865
 4161TIP3    H112489   1.075   3.958   3.869
 4161TIP3    H212490   1.014   3.854   3.777
 4162TIP3   OH212491   3.686   4.865   4.405
 4162TIP3    H112492   3.733   4.894   4.483
 4162TIP3    H212493   3.755   4.851   4.339
 4163TIP3   OH212494   0.157   3.646   0.450
 4163TIP3    H112495   0.067   3.640   0.416
 4163TIP3    H212496   0.157   3.723   0.505
 4164TIP3   OH212497   3.801   5.304   5.010
 4164TIP3    H112498   3.815   5.280   4.919
 4164TIP3    H212499   3.885   5.341   5.038
 4165TIP3   OH212500   1.943   1.694   4.431
 4165TIP3    H112501   1.881   1.748   4.382
 4165TIP3    H212502   1.912   1.699   4.522
 4166TIP3   OH212503   5.777   3.658   4.785
 4166TIP3    H112504   5.788   3.626   4.696
 4166TIP3    H212505   5.790   3.580   4.840
 4167TIP3   OH212506   2.739   2.053   3.679
 4167TIP3    H112507   2.804   2.090   3.739
 4167TIP3    H212508   2.677   2.008   3.736
 4168TIP3   OH212509   0.575   4.177   3.106
 4168TIP3    H112510   0.656   4.226   3.115
 4168TIP3    H212511   0.578   4.111   3.176
 4169TIP3   OH212512   1.936   4.863   0.386
 4169TIP3    H112513   1.955   4.933   0.323
 4169TIP3    H212514   1.912   4.909   0.467
 4170TIP3   OH212515   3.418   5.317   0.397
 4170TIP3    H112516   3.330   5.328   0.432
 4170TIP3    H212517   3.446   5.405   0.373
 4171TIP3   OH212518   2.837   0.882   3.555
 4171TIP3    H112519   2.803   0.816   3.614
 4171TIP3    H212520   2.759   0.923   3.518
 4172TIP3   OH212521   5.220   0.776   3.689
 4172TIP3    H112522   5.248   0.710   3.626
 4172TIP3    H212523   5.283   0.847   3.679
 4173TIP3   OH212524   4.317   2.011   3.182
 4173TIP3    H112525   4.375   1.935   3.177
 4173TIP3    H212526   4.325   2.041   3.272
 4174TIP3   OH212527   2.087   2.225   2.518
 4174TIP3    H112528   2.103   2.178   2.600
 4174TIP3    H212529   2.048   2.159   2.460
 4175TIP3   OH212530   1.189   1.267   5.112
 4175TIP3    H112531   1.161   1.183   5.075
 4175TIP3    H212532   1.138   1.276   5.192
 4176TIP3   OH212533  -0.009   1.144   4.485
 4176TIP3    H112534   0.001   1.239   4.485
 4176TIP3    H212535  -0.056   1.124   4.404
 4177TIP3   OH212536   4.169   2.412   1.402
 4177TIP3    H112537   4.126   2.366   1.330
 4177TIP3    H212538   4.253   2.366   1.414
 4178TIP3   OH212539   1.594   1.578   0.516
 4178TIP3    H112540   1.582   1.562   0.423
 4178TIP3    H212541   1.507   1.564   0.554
 4179TIP3   OH212542   2.395   5.938   0.833
 4179TIP3    H112543   2.453   5.882   0.781
 4179TIP3    H212544   2.446   6.017   0.848
 4180TIP3   OH212545   4.264   3.815   0.104
 4180TIP3    H112546   4.215   3.794   0.184
 4180TIP3    H212547   4.354   3.827   0.134
 4181TIP3   OH212548   3.155   5.347   0.526
 4181TIP3    H112549   3.066   5.378   0.539
 4181TIP3    H212550   3.147   5.252   0.517
 4182TIP3   OH212551   0.295   4.198   4.107
 4182TIP3    H112552   0.378   4.151   4.117
 4182TIP3    H212553   0.321   4.289   4.099
 4183TIP3   OH212554   3.732   1.881   1.179
 4183TIP3    H112555   3.789   1.807   1.156
 4183TIP3    H212556   3.662   1.878   1.114
 4184TIP3   OH212557   2.595   3.215   1.747
 4184TIP3    H112558   2.622   3.159   1.820
 4184TIP3    H212559   2.600   3.304   1.782
 4185TIP3   OH212560   0.447   4.577   2.150
 4185TIP3    H112561   0.512   4.527   2.101
 4185TIP3    H212562   0.473   4.567   2.241
 4186TIP3   OH212563   2.597   4.458   0.514
 4186TIP3    H112564   2.626   4.482   0.426
 4186TIP3    H212565   2.533   4.525   0.537
 4187TIP3   OH212566   2.336   2.459   2.730
 4187TIP3    H112567   2.431   2.468   2.719
 4187TIP3    H212568   2.325   2.376   2.778
 4188TIP3   OH212569   1.060   5.670   1.414
 4188TIP3    H112570   1.118   5.743   1.395
 4188TIP3    H212571   1.071   5.654   1.508
 4189TIP3   OH212572   3.788   1.123   3.963
 4189TIP3    H112573   3.867   1.177   3.962
 4189TIP3    H212574   3.819   1.036   3.938
 4190TIP3   OH212575   0.383   1.180   0.776
 4190TIP3    H112576   0.326   1.225   0.839
 4190TIP3    H212577   0.470   1.216   0.792
 4191TIP3   OH212578   1.456   5.631   1.478
 4191TIP3    H112579   1.468   5.536   1.482
 4191TIP3    H212580   1.468   5.654   1.386
 4192TIP3   OH212581   2.912   3.520   4.547
 4192TIP3    H112582   2.894   3.535   4.455
 4192TIP3    H212583   2.904   3.606   4.588
 4193TIP3   OH212584   5.409   2.936   1.867
 4193TIP3    H112585   5.330   2.913   1.818
 4193TIP3    H212586   5.452   3.002   1.813
 4194TIP3   OH212587   0.985   3.972   1.556
 4194TIP3    H112588   0.921   3.911   1.520
 4194TIP3    H212589   0.988   4.044   1.493
 4195TIP3   OH212590   3.289   4.920   0.970
 4195TIP3    H112591   3.213   4.973   0.945
 4195TIP3    H212592   3.275   4.836   0.926
 4196TIP3   OH212593   2.776   1.329   4.725
 4196TIP3    H112594   2.854   1.273   4.730
 4196TIP3    H212595   2.705   1.269   4.703
 4197TIP3   OH212596   0.795   4.224   0.092
 4197TIP3    H112597   0.734   4.169   0.142
 4197TIP3    H212598   0.876   4.222   0.143
 4198TIP3   OH212599   3.458   0.136   3.412
 4198TIP3    H112600   3.422   0.130   3.500
 4198TIP3    H212601   3.512   0.057   3.403
 4199TIP3   OH212602   4.166   4.713   3.787
 4199TIP3    H112603   4.134   4.792   3.743
 4199TIP3    H212604   4.088   4.658   3.798
 4200TIP3   OH212605   0.999   3.640   4.837
 4200TIP3    H112606   1.009   3.733   4.860
 4200TIP3    H212607   1.086   3.613   4.810
 4201TIP3   OH212608   3.968   4.550   2.768
 4201TIP3    H112609   3.964   4.499   2.850
 4201TIP3    H212610   3.905   4.621   2.782
 4202TIP3   OH212611   5.133   0.290   3.873
 4202TIP3    H112612   5.152   0.347   3.799
 4202TIP3    H212613   5.083   0.344   3.934
 4203TIP3   OH212614   5.636   1.887   4.975
 4203TIP3    H112615   5.677   1.960   5.021
 4203TIP3    H212616   5.707   1.847   4.925
 4204TIP3   OH212617   4.036   0.913   0.980
 4204TIP3    H112618   4.048   0.998   0.937
 4204TIP3    H212619   4.068   0.928   1.069
 4205TIP3   OH212620   2.961   0.979   5.001
 4205TIP3    H112621   3.031   0.917   4.978
 4205TIP3    H212622   2.976   1.054   4.944
 4206TIP3   OH212623   0.954   2.958   0.670
 4206TIP3    H112624   0.864   2.972   0.639
 4206TIP3    H212625   1.009   3.001   0.605
 4207TIP3   OH212626   5.910   0.089   0.825
 4207TIP3    H112627   5.960   0.034   0.884
 4207TIP3    H212628   5.877   0.160   0.881
 4208TIP3   OH212629   2.966   0.929   0.309
 4208TIP3    H112630   2.950   0.996   0.375
 4208TIP3    H212631   2.885   0.878   0.306
 4209TIP3   OH212632   6.159   4.911   3.786
 4209TIP3    H112633   6.066   4.896   3.804
 4209TIP3    H212634   6.180   4.993   3.832
 4210TIP3   OH212635   2.821   5.281   2.862
 4210TIP3    H112636   2.913   5.296   2.882
 4210TIP3    H212637   2.819   5.195   2.819
 4211TIP3   OH212638   0.490   5.346   3.318
 4211TIP3    H112639   0.509   5.347   3.224
 4211TIP3    H212640   0.496   5.254   3.343
 4212TIP3   OH212641   3.255   1.499   4.721
 4212TIP3    H112642   3.189   1.564   4.745
 4212TIP3    H212643   3.326   1.513   4.785
 4213TIP3   OH212644   4.751   4.787   5.098
 4213TIP3    H112645   4.807   4.769   5.023
 4213TIP3    H212646   4.662   4.770   5.066
 4214TIP3   OH212647   5.732   1.098   4.492
 4214TIP3    H112648   5.660   1.042   4.523
 4214TIP3    H212649   5.811   1.060   4.531
 4215TIP3   OH212650   6.143   4.984   3.179
 4215TIP3    H112651   6.204   4.962   3.249
 4215TIP3    H212652   6.065   4.931   3.197
 4216TIP3   OH212653   4.662   3.586   1.564
 4216TIP3    H112654   4.576   3.586   1.522
 4216TIP3    H212655   4.698   3.500   1.545
 4217TIP3   OH212656   4.064   1.224   2.219
 4217TIP3    H112657   4.005   1.290   2.183
 4217TIP3    H212658   4.147   1.239   2.174
 4218TIP3   OH212659   0.857   0.439   1.488
 4218TIP3    H112660   0.877   0.392   1.407
 4218TIP3    H212661   0.764   0.461   1.481
 4219TIP3   OH212662   1.541   2.392   4.649
 4219TIP3    H112663   1.628   2.416   4.679
 4219TIP3    H212664   1.556   2.322   4.585
 4220TIP3   OH212665   5.308   5.014   2.641
 4220TIP3    H112666   5.254   5.054   2.573
 4220TIP3    H212667   5.376   4.967   2.592
 4221TIP3   OH212668   2.724   0.878   2.072
 4221TIP3    H112669   2.795   0.833   2.025
 4221TIP3    H212670   2.659   0.809   2.087
 4222TIP3   OH212671   0.983   1.604   2.208
 4222TIP3    H112672   1.024   1.615   2.122
 4222TIP3    H212673   1.056   1.605   2.270
 4223TIP3   OH212674   1.199   2.890   0.764
 4223TIP3    H112675   1.111   2.921   0.743
 4223TIP3    H212676   1.190   2.846   0.849
 4224TIP3   OH212677   2.611   2.807   4.995
 4224TIP3    H112678   2.543   2.743   5.016
 4224TIP3    H212679   2.655   2.822   5.079
 4225TIP3   OH212680   0.062   3.987   1.618
 4225TIP3    H112681  -0.032   4.004   1.629
 4225TIP3    H212682   0.066   3.914   1.556
 4226TIP3   OH212683   5.869   2.701   1.630
 4226TIP3    H112684   5.932   2.676   1.698
 4226TIP3    H212685   5.889   2.643   1.557
 4227TIP3   OH212686   2.605   2.292   3.780
 4227TIP3    H112687   2.608   2.211   3.730
 4227TIP3    H212688   2.536   2.279   3.844
 4228TIP3   OH212689   5.819   3.605   1.957
 4228TIP3    H112690   5.731   3.571   1.976
 4228TIP3    H212691   5.804   3.691   1.917
 4229TIP3   OH212692   0.824   1.665   3.219
 4229TIP3    H112693   0.799   1.671   3.311
 4229TIP3    H212694   0.742   1.648   3.173
 4230TIP3   OH212695   2.101   0.701   3.819
 4230TIP3    H112696   2.146   0.724   3.738
 4230TIP3    H212697   2.010   0.687   3.793
 4231TIP3   OH212698   3.314   1.312   0.315
 4231TIP3    H112699   3.357   1.396   0.330
 4231TIP3    H212700   3.346   1.283   0.230
 4232TIP3   OH212701   5.095   4.711   3.913
 4232TIP3    H112702   5.154   4.686   3.842
 4232TIP3    H212703   5.058   4.628   3.944
 4233TIP3   OH212704   5.802   2.720   0.075
 4233TIP3    H112705   5.888   2.678   0.081
 4233TIP3    H212706   5.815   2.806   0.113
 4234TIP3   OH212707   5.442   2.022   0.696
 4234TIP3    H112708   5.536   2.010   0.706
 4234TIP3    H212709   5.422   2.101   0.747
 4235TIP3   OH212710   6.207   1.256   4.021
 4235TIP3    H112711   6.211   1.343   3.981
 4235TIP3    H212712   6.116   1.247   4.049
 4236TIP3   OH212713   3.099   1.424   4.475
 4236TIP3    H112714   3.134   1.335   4.469
 4236TIP3    H212715   3.127   1.455   4.561
 4237TIP3   OH212716   4.587   2.363   3.078
 4237TIP3    H112717   4.666   2.413   3.100
 4237TIP3    H212718   4.554   2.332   3.162
 4238TIP3   OH212719   3.753   1.948   1.855
 4238TIP3    H112720   3.806   1.881   1.811
 4238TIP3    H212721   3.730   2.010   1.786
 4239TIP3   OH212722   4.013   0.518   3.568
 4239TIP3    H112723   3.929   0.488   3.534
 4239TIP3    H212724   3.991   0.582   3.636
 4240TIP3   OH212725   0.083   5.746   3.264
 4240TIP3    H112726   0.094   5.779   3.175
 4240TIP3    H212727   0.103   5.653   3.259
 4241TIP3   OH212728   1.750   1.687   2.713
 4241TIP3    H112729   1.688   1.651   2.776
 4241TIP3    H212730   1.808   1.614   2.692
 4242TIP3   OH212731   1.423   4.764   4.785
 4242TIP3    H112732   1.510   4.741   4.754
 4242TIP3    H212733   1.387   4.820   4.716
 4243TIP3   OH212734   5.552   0.651   1.924
 4243TIP3    H112735   5.500   0.571   1.930
 4243TIP3    H212736   5.518   0.706   1.995
 4244TIP3   OH212737   1.785   0.197   2.385
 4244TIP3    H112738   1.726   0.237   2.321
 4244TIP3    H212739   1.806   0.268   2.446
 4245TIP3   OH212740   2.599   1.733   2.807
 4245TIP3    H112741   2.644   1.649   2.802
 4245TIP3    H212742   2.596   1.753   2.901
 4246TIP3   OH212743   1.925   4.310   5.127
 4246TIP3    H112744   2.002   4.328   5.073
 4246TIP3    H212745   1.961   4.289   5.214
 4247TIP3   OH212746   4.349   1.001   4.628
 4247TIP3    H112747   4.261   0.965   4.614
 4247TIP3    H212748   4.391   0.939   4.689
 4248TIP3   OH212749   0.797   0.839   1.160
 4248TIP3    H112750   0.798   0.867   1.068
 4248TIP3    H212751   0.875   0.785   1.169
 4249TIP3   OH212752   0.279   0.174   1.958
 4249TIP3    H112753   0.358   0.218   1.924
 4249TIP3    H212754   0.210   0.240   1.949
 4250TIP3   OH212755   2.940   5.623   4.420
 4250TIP3    H112756   2.969   5.534   4.442
 4250TIP3    H212757   2.857   5.634   4.467
 4251TIP3   OH212758   1.979   1.141   0.727
 4251TIP3    H112759   1.979   1.131   0.632
 4251TIP3    H212760   1.891   1.117   0.754
 4252TIP3   OH212761   2.050   3.390   3.073
 4252TIP3    H112762   2.063   3.484   3.077
 4252TIP3    H212763   1.962   3.376   3.107
 4253TIP3   OH212764   2.949   2.801   2.411
 4253TIP3    H112765   2.942   2.841   2.324
 4253TIP3    H212766   2.891   2.854   2.466
 4254TIP3   OH212767   5.796   5.633   4.713
 4254TIP3    H112768   5.879   5.671   4.687
 4254TIP3    H212769   5.750   5.704   4.759
 4255TIP3   OH212770   2.218   4.159   0.100
 4255TIP3    H112771   2.243   4.133   0.189
 4255TIP3    H212772   2.258   4.093   0.044
 4256TIP3   OH212773   5.997   2.518   0.094
 4256TIP3    H112774   6.043   2.465   0.030
 4256TIP3    H212775   5.927   2.461   0.127
 4257TIP3   OH212776   3.994   1.808   2.495
 4257TIP3    H112777   3.930   1.773   2.558
 4257TIP3    H212778   4.056   1.857   2.549
 4258TIP3   OH212779   3.821   4.626   2.297
 4258TIP3    H112780   3.864   4.665   2.220
 4258TIP3    H212781   3.811   4.534   2.275
 4259TIP3   OH212782   3.395   1.501   2.363
 4259TIP3    H112783   3.431   1.551   2.290
 4259TIP3    H212784   3.463   1.438   2.385
 4260TIP3   OH212785   0.915   3.164   3.274
 4260TIP3    H112786   0.987   3.174   3.212
 4260TIP3    H212787   0.843   3.215   3.236
 4261TIP3   OH212788   5.774   4.407   4.179
 4261TIP3    H112789   5.770   4.326   4.230
 4261TIP3    H212790   5.721   4.390   4.101
 4262TIP3   OH212791   1.609   0.167   1.044
 4262TIP3    H112792   1.597   0.222   0.966
 4262TIP3    H212793   1.660   0.092   1.013
 4263TIP3   OH212794   5.916   3.402   2.719
 4263TIP3    H112795   5.906   3.348   2.797
 4263TIP3    H212796   5.848   3.371   2.660
 4264TIP3   OH212797   0.917   5.254   0.000
 4264TIP3    H112798   0.921   5.160  -0.016
 4264TIP3    H212799   0.993   5.272   0.055
 4265TIP3   OH212800   5.942   3.909   2.569
 4265TIP3    H112801   5.857   3.952   2.556
 4265TIP3    H212802   6.001   3.954   2.510
 4266TIP3   OH212803   1.394   4.752   3.638
 4266TIP3    H112804   1.321   4.730   3.581
 4266TIP3    H212805   1.357   4.811   3.704
 4267TIP3   OH212806   3.796   4.202   3.498
 4267TIP3    H112807   3.889   4.220   3.484
 4267TIP3    H212808   3.756   4.212   3.412
 4268TIP3   OH212809   3.982   5.077   3.428
 4268TIP3    H112810   3.926   5.141   3.385
 4268TIP3    H212811   3.988   5.005   3.366
 4269TIP3   OH212812   1.316   3.423   3.118
 4269TIP3    H112813   1.305   3.505   3.069
 4269TIP3    H212814   1.370   3.448   3.193
 4270TIP3   OH212815   4.504   2.119   1.849
 4270TIP3    H112816   4.416   2.086   1.832
 4270TIP3    H212817   4.550   2.109   1.766
 4271TIP3   OH212818   3.013   2.923   1.261
 4271TIP3    H112819   2.959   2.995   1.228
 4271TIP3    H212820   3.015   2.935   1.356
 4272TIP3   OH212821   4.216   4.845   0.712
 4272TIP3    H112822   4.270   4.811   0.640
 4272TIP3    H212823   4.158   4.909   0.670
 4273TIP3   OH212824   5.351   4.449   3.128
 4273TIP3    H112825   5.273   4.400   3.152
 4273TIP3    H212826   5.418   4.382   3.114
 4274TIP3   OH212827   0.992   4.785   2.312
 4274TIP3    H112828   0.914   4.835   2.287
 4274TIP3    H212829   1.060   4.851   2.325
 4275TIP3   OH212830   0.906   5.493   2.503
 4275TIP3    H112831   0.868   5.580   2.495
 4275TIP3    H212832   0.963   5.483   2.427
 4276TIP3   OH212833   3.666   5.636   3.840
 4276TIP3    H112834   3.668   5.631   3.744
 4276TIP3    H212835   3.576   5.612   3.863
 4277TIP3   OH212836   3.182   0.365   4.917
 4277TIP3    H112837   3.130   0.409   4.851
 4277TIP3    H212838   3.139   0.280   4.928
 4278TIP3   OH212839   1.682   4.985   2.396
 4278TIP3    H112840   1.656   4.928   2.468
 4278TIP3    H212841   1.713   4.925   2.328
 4279TIP3   OH212842   5.775   3.509   5.016
 4279TIP3    H112843   5.844   3.526   5.080
 4279TIP3    H212844   5.693   3.524   5.065
 4280TIP3   OH212845   5.066   1.426   2.296
 4280TIP3    H112846   5.105   1.339   2.298
 4280TIP3    H212847   5.038   1.438   2.205
 4281TIP3   OH212848   2.209   0.994   3.907
 4281TIP3    H112849   2.178   0.904   3.899
 4281TIP3    H212850   2.288   0.997   3.853
 4282TIP3   OH212851   2.634   2.831   2.206
 4282TIP3    H112852   2.544   2.847   2.235
 4282TIP3    H212853   2.640   2.735   2.199
 4283TIP3   OH212854   5.868   2.187   4.196
 4283TIP3    H112855   5.779   2.176   4.165
 4283TIP3    H212856   5.921   2.134   4.137
 4284TIP3   OH212857   5.626   5.706   1.937
 4284TIP3    H112858   5.584   5.659   1.865
 4284TIP3    H212859   5.680   5.772   1.894
 4285TIP3   OH212860   2.278   4.064   1.678
 4285TIP3    H112861   2.204   4.094   1.730
 4285TIP3    H212862   2.351   4.060   1.740
 4286TIP3   OH212863   0.829   5.007   2.013
 4286TIP3    H112864   0.861   5.095   1.994
 4286TIP3    H212865   0.907   4.953   2.012
 4287TIP3   OH212866   5.489   1.089   0.947
 4287TIP3    H112867   5.433   1.043   0.885
 4287TIP3    H212868   5.468   1.050   1.032
 4288TIP3   OH212869   3.199   3.052   4.666
 4288TIP3    H112870   3.238   3.134   4.697
 4288TIP3    H212871   3.218   3.050   4.572
 4289TIP3   OH212872   5.737   0.448   1.535
 4289TIP3    H112873   5.661   0.399   1.566
 4289TIP3    H212874   5.719   0.538   1.560
 4290TIP3   OH212875   3.820   3.516   1.375
 4290TIP3    H112876   3.882   3.550   1.440
 4290TIP3    H212877   3.871   3.509   1.295
 4291TIP3   OH212878   2.179   1.018   2.862
 4291TIP3    H112879   2.255   0.997   2.917
 4291TIP3    H212880   2.213   1.078   2.795
 4292TIP3   OH212881   4.562   2.217   2.832
 4292TIP3    H112882   4.647   2.185   2.801
 4292TIP3    H212883   4.583   2.279   2.902
 4293TIP3   OH212884   5.266   3.438   3.863
 4293TIP3    H112885   5.359   3.453   3.880
 4293TIP3    H212886   5.258   3.446   3.768
 4294TIP3   OH212887   1.245   2.346   4.650
 4294TIP3    H112888   1.340   2.355   4.645
 4294TIP3    H212889   1.215   2.370   4.562
 4295TIP3   OH212890   6.232   1.964   1.534
 4295TIP3    H112891   6.150   1.921   1.557
 4295TIP3    H212892   6.293   1.937   1.603
 4296TIP3   OH212893   2.286   5.532   3.275
 4296TIP3    H112894   2.358   5.477   3.306
 4296TIP3    H212895   2.263   5.496   3.189
 4297TIP3   OH212896   5.013   3.545   0.318
 4297TIP3    H112897   5.064   3.626   0.324
 4297TIP3    H212898   5.075   3.479   0.287
 4298TIP3   OH212899   2.762   0.730   2.718
 4298TIP3    H112900   2.771   0.651   2.664
 4298TIP3    H212901   2.802   0.706   2.801
 4299TIP3   OH212902   4.719   2.345   0.707
 4299TIP3    H112903   4.806   2.342   0.746
 4299TIP3    H212904   4.731   2.389   0.623
 4300TIP3   OH212905   3.551   4.470   1.125
 4300TIP3    H112906   3.457   4.456   1.109
 4300TIP3    H212907   3.595   4.426   1.053
 4301TIP3   OH212908   4.888   4.211   1.782
 4301TIP3    H112909   4.920   4.243   1.867
 4301TIP3    H212910   4.954   4.148   1.753
 4302TIP3   OH212911   3.008   3.536   0.633
 4302TIP3    H112912   2.974   3.548   0.544
 4302TIP3    H212913   2.954   3.467   0.670
 4303TIP3   OH212914   4.705   0.185   0.821
 4303TIP3    H112915   4.795   0.154   0.808
 4303TIP3    H212916   4.706   0.223   0.909
 4304TIP3   OH212917   5.176   1.127   1.912
 4304TIP3    H112918   5.088   1.110   1.878
 4304TIP3    H212919   5.222   1.044   1.902
 4305TIP3   OH212920   1.258   1.291   4.636
 4305TIP3    H112921   1.192   1.357   4.615
 4305TIP3    H212922   1.279   1.307   4.728
 4306TIP3   OH212923   1.964   0.425   2.328
 4306TIP3    H112924   2.040   0.449   2.381
 4306TIP3    H212925   1.889   0.442   2.385
 4307TIP3   OH212926   1.424   0.646   1.572
 4307TIP3    H112927   1.397   0.567   1.618
 4307TIP3    H212928   1.507   0.671   1.614
 4308TIP3   OH212929   3.787   5.808   1.427
 4308TIP3    H112930   3.747   5.799   1.341
 4308TIP3    H212931   3.759   5.894   1.457
 4309TIP3   OH212932   5.981   1.440   3.499
 4309TIP3    H112933   6.011   1.531   3.504
 4309TIP3    H212934   5.896   1.444   3.456
 4310TIP3   OH212935   2.540   0.145   1.210
 4310TIP3    H112936   2.547   0.235   1.243
 4310TIP3    H212937   2.626   0.126   1.173
 4311TIP3   OH212938   5.874   3.984   1.234
 4311TIP3    H112939   5.892   4.002   1.326
 4311TIP3    H212940   5.957   4.000   1.189
 4312TIP3   OH212941   2.799   3.466   3.263
 4312TIP3    H112942   2.832   3.385   3.301
 4312TIP3    H212943   2.729   3.494   3.322
 4313TIP3   OH212944   4.021   3.634   1.550
 4313TIP3    H112945   4.041   3.571   1.619
 4313TIP3    H212946   4.057   3.717   1.582
 4314TIP3   OH212947   2.254   2.877   1.640
 4314TIP3    H112948   2.295   2.934   1.706
 4314TIP3    H212949   2.265   2.924   1.558
 4315TIP3   OH212950   3.928   4.801   1.531
 4315TIP3    H112951   3.997   4.836   1.475
 4315TIP3    H212952   3.970   4.786   1.615
 4316TIP3   OH212953   3.765   0.212   3.669
 4316TIP3    H112954   3.710   0.289   3.656
 4316TIP3    H212955   3.853   0.241   3.645
 4317TIP3   OH212956   0.207   5.510   3.184
 4317TIP3    H112957   0.282   5.464   3.146
 4317TIP3    H212958   0.162   5.443   3.236
 4318TIP3   OH212959   6.205   0.131   0.128
 4318TIP3    H112960   6.256   0.190   0.073
 4318TIP3    H212961   6.188   0.181   0.208
 4319TIP3   OH212962   2.098   3.916   4.543
 4319TIP3    H112963   2.162   3.924   4.614
 4319TIP3    H212964   2.076   3.823   4.540
 4320TIP3   OH212965   2.045   2.625   4.814
 4320TIP3    H112966   2.079   2.702   4.768
 4320TIP3    H212967   2.122   2.589   4.860
 4321TIP3   OH212968   2.239   1.735   0.889
 4321TIP3    H112969   2.312   1.743   0.950
 4321TIP3    H212970   2.183   1.667   0.927
 4322TIP3   OH212971   1.511   5.332   1.619
 4322TIP3    H112972   1.600   5.361   1.603
 4322TIP3    H212973   1.494   5.357   1.710
 4323TIP3   OH212974   2.703   3.648   0.488
 4323TIP3    H112975   2.783   3.620   0.443
 4323TIP3    H212976   2.693   3.739   0.464
 4324TIP3   OH212977   5.144   1.443   3.695
 4324TIP3    H112978   5.185   1.482   3.617
 4324TIP3    H212979   5.106   1.361   3.664
 4325TIP3   OH212980   4.789   5.677   2.473
 4325TIP3    H112981   4.741   5.741   2.421
 4325TIP3    H212982   4.721   5.624   2.515
 4326TIP3   OH212983   5.945   5.065   1.227
 4326TIP3    H112984   6.003   5.007   1.277
 4326TIP3    H212985   5.922   5.135   1.287
 4327TIP3   OH212986   5.047   0.723   0.716
 4327TIP3    H112987   5.020   0.780   0.644
 4327TIP3    H212988   5.136   0.696   0.694
 4328TIP3   OH212989   0.351   0.439   1.866
 4328TIP3    H112990   0.428   0.492   1.885
 4328TIP3    H212991   0.353   0.428   1.771
 4329TIP3   OH212992   1.802   5.338   1.565
 4329TIP3    H112993   1.821   5.250   1.531
 4329TIP3    H212994   1.874   5.392   1.532
 4330TIP3   OH212995   4.097   0.516   2.470
 4330TIP3    H112996   4.040   0.454   2.425
 4330TIP3    H212997   4.068   0.602   2.441
 4331TIP3   OH212998   0.486   1.512   1.651
 4331TIP3    H112999   0.432   1.560   1.589
 4331TIP3    H213000   0.430   1.499   1.727
 4332TIP3   OH213001   5.951   0.422   1.700
 4332TIP3    H113002   5.911   0.431   1.786
 4332TIP3    H213003   5.885   0.454   1.638
 4333TIP3   OH213004   1.023   4.747   1.289
 4333TIP3    H113005   0.940   4.718   1.250
 4333TIP3    H213006   1.014   4.725   1.382
 4334TIP3   OH213007   3.304   2.901   2.861
 4334TIP3    H113008   3.246   2.826   2.863
 4334TIP3    H213009   3.302   2.932   2.770
 4335TIP3   OH213010   1.483   3.930   1.945
 4335TIP3    H113011   1.470   3.964   1.856
 4335TIP3    H213012   1.420   3.858   1.953
 4336TIP3   OH213013   0.588   2.103   1.156
 4336TIP3    H113014   0.655   2.101   1.088
 4336TIP3    H213015   0.595   2.018   1.199
 4337TIP3   OH213016   0.008   4.813   3.325
 4337TIP3    H113017  -0.011   4.803   3.418
 4337TIP3    H213018   0.101   4.835   3.321
 4338TIP3   OH213019   6.298   4.713   2.457
 4338TIP3    H113020   6.221   4.711   2.401
 4338TIP3    H213021   6.334   4.624   2.452
 4339TIP3   OH213022   2.402   4.361   3.496
 4339TIP3    H113023   2.467   4.416   3.453
 4339TIP3    H213024   2.321   4.411   3.492
 4340TIP3   OH213025   5.329   5.914   2.161
 4340TIP3    H113026   5.355   6.006   2.158
 4340TIP3    H213027   5.385   5.875   2.228
 4341TIP3   OH213028   2.062   0.991   2.584
 4341TIP3    H113029   2.065   1.079   2.548
 4341TIP3    H213030   2.003   0.997   2.659
 4342TIP3   OH213031   3.341   4.839   1.264
 4342TIP3    H113032   3.270   4.801   1.212
 4342TIP3    H213033   3.332   4.934   1.250
 4343TIP3   OH213034   0.710   5.018   4.605
 4343TIP3    H113035   0.695   5.032   4.698
 4343TIP3    H213036   0.637   5.062   4.561
 4344TIP3   OH213037   3.120   5.622   3.869
 4344TIP3    H113038   3.089   5.647   3.782
 4344TIP3    H213039   3.115   5.703   3.920
 4345TIP3   OH213040   0.745   1.954   2.950
 4345TIP3    H113041   0.717   1.881   2.895
 4345TIP3    H213042   0.781   2.018   2.888
 4346TIP3   OH213043   3.275   1.634   1.399
 4346TIP3    H113044   3.209   1.594   1.456
 4346TIP3    H213045   3.235   1.635   1.312
 4347TIP3   OH213046   6.047   2.278   1.326
 4347TIP3    H113047   6.138   2.252   1.319
 4347TIP3    H213048   6.047   2.373   1.312
 4348TIP3   OH213049   0.598   0.264   2.138
 4348TIP3    H113050   0.594   0.186   2.193
 4348TIP3    H213051   0.688   0.265   2.104
 4349TIP3   OH213052   6.208   3.535   0.751
 4349TIP3    H113053   6.148   3.610   0.745
 4349TIP3    H213054   6.196   3.488   0.669
 4350TIP3   OH213055   6.018   2.211   1.033
 4350TIP3    H113056   6.034   2.256   1.116
 4350TIP3    H213057   6.093   2.234   0.978
 4351TIP3   OH213058   4.731   0.361   3.774
 4351TIP3    H113059   4.715   0.443   3.728
 4351TIP3    H213060   4.727   0.294   3.705
 4352TIP3   OH213061   5.531   3.446   3.928
 4352TIP3    H113062   5.619   3.429   3.894
 4352TIP3    H213063   5.537   3.428   4.022
 4353TIP3   OH213064   5.015   3.542   4.227
 4353TIP3    H113065   4.963   3.496   4.292
 4353TIP3    H213066   4.952   3.576   4.164
 4354TIP3   OH213067   4.670   5.408   0.990
 4354TIP3    H113068   4.750   5.384   0.943
 4354TIP3    H213069   4.700   5.445   1.073
 4355TIP3   OH213070   1.210   5.951   0.068
 4355TIP3    H113071   1.276   5.978   0.132
 4355TIP3    H213072   1.152   5.893   0.117
 4356TIP3   OH213073   4.621   3.646   0.742
 4356TIP3    H113074   4.690   3.662   0.678
 4356TIP3    H213075   4.552   3.603   0.691
 4357TIP3   OH213076   2.219   5.222   0.795
 4357TIP3    H113077   2.292   5.165   0.773
 4357TIP3    H213078   2.169   5.173   0.860
 4358TIP3   OH213079   0.953   0.481   3.377
 4358TIP3    H113080   0.998   0.484   3.292
 4358TIP3    H213081   0.862   0.503   3.357
 4359TIP3   OH213082   0.024   3.734   4.741
 4359TIP3    H113083   0.012   3.642   4.765
 4359TIP3    H213084   0.118   3.742   4.725
 4360TIP3   OH213085   1.119   4.852   3.560
 4360TIP3    H113086   1.153   4.844   3.471
 4360TIP3    H213087   1.109   4.946   3.574
 4361TIP3   OH213088   2.008   5.535   1.964
 4361TIP3    H113089   1.925   5.514   2.007
 4361TIP3    H213090   2.063   5.570   2.035
 4362TIP3   OH213091   0.027   2.278   4.422
 4362TIP3    H113092   0.095   2.214   4.404
 4362TIP3    H213093  -0.029   2.236   4.488
 4363TIP3   OH213094   4.633   0.820   0.628
 4363TIP3    H113095   4.611   0.735   0.665
 4363TIP3    H213096   4.679   0.866   0.699
 4364TIP3   OH213097   0.520   4.843   2.100
 4364TIP3    H113098   0.523   4.868   2.007
 4364TIP3    H213099   0.534   4.749   2.099
 4365TIP3   OH213100   3.671   4.622   0.302
 4365TIP3    H113101   3.694   4.653   0.389
 4365TIP3    H213102   3.651   4.703   0.253
 4366TIP3   OH213103   1.012   0.902   1.462
 4366TIP3    H113104   0.955   0.826   1.473
 4366TIP3    H213105   0.981   0.965   1.528
 4367TIP3   OH213106   4.096   4.378   2.324
 4367TIP3    H113107   4.144   4.460   2.316
 4367TIP3    H213108   4.052   4.385   2.409
 4368TIP3   OH213109   4.766   0.806   0.139
 4368TIP3    H113110   4.803   0.737   0.195
 4368TIP3    H213111   4.699   0.847   0.194
 4369TIP3   OH213112   5.483   4.457   4.954
 4369TIP3    H113113   5.566   4.490   4.987
 4369TIP3    H213114   5.507   4.383   4.898
 4370TIP3   OH213115   3.305   5.691   1.233
 4370TIP3    H113116   3.360   5.682   1.311
 4370TIP3    H213117   3.364   5.728   1.167
 4371TIP3   OH213118   5.667   2.507   0.271
 4371TIP3    H113119   5.706   2.559   0.201
 4371TIP3    H213120   5.708   2.421   0.263
 4372TIP3   OH213121   2.937   2.245   0.290
 4372TIP3    H113122   2.882   2.322   0.274
 4372TIP3    H213123   2.877   2.171   0.278
 4373TIP3   OH213124   5.021   5.811   2.985
 4373TIP3    H113125   4.940   5.771   2.955
 4373TIP3    H213126   5.061   5.847   2.906
 4374TIP3   OH213127   3.504   1.986   4.410
 4374TIP3    H113128   3.468   1.922   4.471
 4374TIP3    H213129   3.477   2.070   4.445
 4375TIP3   OH213130  -0.028   4.696   4.648
 4375TIP3    H113131   0.031   4.622   4.634
 4375TIP3    H213132   0.030   4.771   4.661
 4376TIP3   OH213133   5.540   1.673   4.477
 4376TIP3    H113134   5.535   1.765   4.505
 4376TIP3    H213135   5.633   1.659   4.459
 4377TIP3   OH213136   2.736   3.325   2.054
 4377TIP3    H113137   2.798   3.259   2.083
 4377TIP3    H213138   2.658   3.309   2.107
 4378TIP3   OH213139   0.844   4.346   1.342
 4378TIP3    H113140   0.768   4.397   1.368
 4378TIP3    H213141   0.877   4.389   1.263
 4379TIP3   OH213142   1.754   2.660   4.967
 4379TIP3    H113143   1.751   2.591   4.901
 4379TIP3    H213144   1.823   2.633   5.027
 4380TIP3   OH213145   4.980   5.090   0.258
 4380TIP3    H113146   4.916   5.024   0.231
 4380TIP3    H213147   4.971   5.095   0.353
 4381TIP3   OH213148   2.057   3.829   0.815
 4381TIP3    H113149   2.118   3.768   0.773
 4381TIP3    H213150   2.113   3.883   0.871
 4382TIP3   OH213151   5.280   5.070   2.195
 4382TIP3    H113152   5.317   5.087   2.109
 4382TIP3    H213153   5.208   5.009   2.180
 4383TIP3   OH213154   2.660   2.396   4.454
 4383TIP3    H113155   2.752   2.385   4.477
 4383TIP3    H213156   2.613   2.368   4.533
 4384TIP3   OH213157   6.352   4.514   1.415
 4384TIP3    H113158   6.334   4.423   1.436
 4384TIP3    H213159   6.285   4.564   1.461
 4385TIP3   OH213160   4.488   4.139   2.616
 4385TIP3    H113161   4.486   4.150   2.520
 4385TIP3    H213162   4.465   4.225   2.650
 4386TIP3   OH213163   5.149   4.744   0.044
 4386TIP3    H113164   5.185   4.694   0.118
 4386TIP3    H213165   5.088   4.683   0.002
 4387TIP3   OH213166   2.578   5.318   3.019
 4387TIP3    H113167   2.655   5.289   2.971
 4387TIP3    H213168   2.513   5.249   3.003
 4388TIP3   OH213169   5.863   3.478   0.800
 4388TIP3    H113170   5.769   3.486   0.783
 4388TIP3    H213171   5.890   3.566   0.826
 4389TIP3   OH213172   0.970   4.062   0.759
 4389TIP3    H113173   0.930   4.127   0.701
 4389TIP3    H213174   0.995   3.991   0.701
 4390TIP3   OH213175   2.817   1.165   0.166
 4390TIP3    H113176   2.743   1.157   0.106
 4390TIP3    H213177   2.780   1.146   0.252
 4391TIP3   OH213178   2.085   2.343   1.009
 4391TIP3    H113179   2.166   2.362   0.962
 4391TIP3    H213180   2.024   2.315   0.941
 4392TIP3   OH213181   6.005   5.662   3.119
 4392TIP3    H113182   6.016   5.602   3.045
 4392TIP3    H213183   6.061   5.626   3.188
 4393TIP3   OH213184   1.513   4.831   2.061
 4393TIP3    H113185   1.585   4.884   2.026
 4393TIP3    H213186   1.486   4.777   1.987
 4394TIP3   OH213187   4.169   3.546   5.033
 4394TIP3    H113188   4.165   3.505   4.947
 4394TIP3    H213189   4.108   3.495   5.086
 4395TIP3   OH213190   4.512   0.964   1.074
 4395TIP3    H113191   4.446   0.995   1.135
 4395TIP3    H213192   4.594   0.965   1.124
 4396TIP3   OH213193   0.785   3.550   1.803
 4396TIP3    H113194   0.776   3.636   1.844
 4396TIP3    H213195   0.796   3.569   1.710
 4397TIP3   OH213196   4.712   0.774   1.446
 4397TIP3    H113197   4.780   0.718   1.483
 4397TIP3    H213198   4.643   0.713   1.419
 4398TIP3   OH213199   3.405   2.343   3.114
 4398TIP3    H113200   3.490   2.361   3.076
 4398TIP3    H213201   3.397   2.248   3.111
 4399TIP3   OH213202   4.170   4.476   4.948
 4399TIP3    H113203   4.181   4.433   4.863
 4399TIP3    H213204   4.230   4.430   5.006
 4400TIP3   OH213205   0.610   3.566   4.437
 4400TIP3    H113206   0.552   3.492   4.456
 4400TIP3    H213207   0.662   3.577   4.516
 4401TIP3   OH213208   3.421   3.249   4.034
 4401TIP3    H113209   3.503   3.210   4.007
 4401TIP3    H213210   3.376   3.180   4.082
 4402TIP3   OH213211   3.814   3.137   5.148
 4402TIP3    H113212   3.727   3.100   5.161
 4402TIP3    H213213   3.834   3.118   5.056
 4403TIP3   OH213214   2.522   3.353   0.077
 4403TIP3    H113215   2.489   3.264   0.071
 4403TIP3    H213216   2.472   3.402   0.012
 4404TIP3   OH213217   5.006   4.965   4.359
 4404TIP3    H113218   4.939   4.953   4.292
 4404TIP3    H213219   5.049   5.047   4.335
 4405TIP3   OH213220   1.557   3.753   2.881
 4405TIP3    H113221   1.469   3.738   2.916
 4405TIP3    H213222   1.562   3.697   2.804
 4406TIP3   OH213223   2.066   2.261   0.483
 4406TIP3    H113224   2.081   2.333   0.421
 4406TIP3    H213225   2.152   2.223   0.497
 4407TIP3   OH213226   5.688   0.314   1.920
 4407TIP3    H113227   5.753   0.383   1.931
 4407TIP3    H213228   5.640   0.338   1.841
 4408TIP3   OH213229   0.739   0.303   1.736
 4408TIP3    H113230   0.792   0.238   1.782
 4408TIP3    H213231   0.793   0.330   1.662
 4409TIP3   OH213232   3.448   0.317   4.907
 4409TIP3    H113233   3.462   0.392   4.964
 4409TIP3    H213234   3.357   0.326   4.878
 4410TIP3   OH213235   2.677   5.011   3.767
 4410TIP3    H113236   2.638   4.927   3.793
 4410TIP3    H213237   2.605   5.074   3.777
 4411TIP3   OH213238   1.779   0.810   1.015
 4411TIP3    H113239   1.834   0.888   1.019
 4411TIP3    H213240   1.838   0.738   1.038
 4412TIP3   OH213241   3.913   3.783   3.303
 4412TIP3    H113242   4.003   3.778   3.332
 4412TIP3    H213243   3.861   3.784   3.383
 4413TIP3   OH213244   0.363   3.413   3.508
 4413TIP3    H113245   0.376   3.373   3.594
 4413TIP3    H213246   0.306   3.489   3.524
 4414TIP3   OH213247   0.166   1.222   1.244
 4414TIP3    H113248   0.111   1.246   1.170
 4414TIP3    H213249   0.136   1.277   1.316
 4415TIP3   OH213250   6.097   1.429   0.340
 4415TIP3    H113251   6.080   1.496   0.406
 4415TIP3    H213252   6.033   1.446   0.270
 4416TIP3   OH213253   4.507   5.018   0.194
 4416TIP3    H113254   4.498   5.002   0.288
 4416TIP3    H213255   4.445   4.958   0.154
 4417TIP3   OH213256   4.784   1.980   3.970
 4417TIP3    H113257   4.822   1.914   3.911
 4417TIP3    H213258   4.698   1.999   3.931
 4418TIP3   OH213259   0.651   2.298   3.527
 4418TIP3    H113260   0.696   2.345   3.457
 4418TIP3    H213261   0.571   2.266   3.487
 4419TIP3   OH213262   5.335   5.549   0.537
 4419TIP3    H113263   5.392   5.472   0.538
 4419TIP3    H213264   5.367   5.602   0.464
 4420TIP3   OH213265   2.367   2.178   2.810
 4420TIP3    H113266   2.395   2.194   2.900
 4420TIP3    H213267   2.449   2.160   2.763
 4421TIP3   OH213268   5.030   4.285   4.585
 4421TIP3    H113269   5.090   4.317   4.518
 4421TIP3    H213270   5.053   4.193   4.597
 4422TIP3   OH213271   4.946   0.543   1.176
 4422TIP3    H113272   4.880   0.593   1.130
 4422TIP3    H213273   4.898   0.473   1.219
 4423TIP3   OH213274   2.603   0.297   0.013
 4423TIP3    H113275   2.641   0.229   0.069
 4423TIP3    H213276   2.586   0.252  -0.070
 4424TIP3   OH213277   0.224   2.208   2.748
 4424TIP3    H113278   0.265   2.154   2.680
 4424TIP3    H213279   0.147   2.158   2.775
 4425TIP3   OH213280   4.151   5.889   2.068
 4425TIP3    H113281   4.066   5.903   2.027
 4425TIP3    H213282   4.132   5.883   2.162
 4426TIP3   OH213283   5.840   4.669   4.329
 4426TIP3    H113284   5.871   4.697   4.416
 4426TIP3    H213285   5.883   4.585   4.314
 4427TIP3   OH213286   0.710   4.472   3.900
 4427TIP3    H113287   0.685   4.394   3.951
 4427TIP3    H213288   0.805   4.476   3.907
 4428TIP3   OH213289   2.739   2.993   1.413
 4428TIP3    H113290   2.768   3.082   1.394
 4428TIP3    H213291   2.810   2.956   1.465
 4429TIP3   OH213292   4.855   5.901   0.288
 4429TIP3    H113293   4.901   5.914   0.205
 4429TIP3    H213294   4.857   5.987   0.330
 4430TIP3   OH213295   4.074   1.345   0.136
 4430TIP3    H113296   4.055   1.438   0.137
 4430TIP3    H213297   4.159   1.338   0.093
 4431TIP3   OH213298   5.077   2.591   5.004
 4431TIP3    H113299   5.043   2.569   4.917
 4431TIP3    H213300   5.148   2.529   5.018
 4432TIP3   OH213301   0.838   5.526   4.008
 4432TIP3    H113302   0.755   5.570   4.027
 4432TIP3    H213303   0.903   5.573   4.060
 4433TIP3   OH213304   5.142   3.725   2.178
 4433TIP3    H113305   5.231   3.757   2.195
 4433TIP3    H213306   5.094   3.744   2.258
 4434TIP3   OH213307   0.195   1.925   4.358
 4434TIP3    H113308   0.287   1.944   4.371
 4434TIP3    H213309   0.173   1.970   4.276
 4435TIP3   OH213310   0.706   4.758   0.586
 4435TIP3    H113311   0.686   4.763   0.493
 4435TIP3    H213312   0.798   4.782   0.592
 4436TIP3   OH213313   5.354   3.678   3.272
 4436TIP3    H113314   5.305   3.719   3.344
 4436TIP3    H213315   5.375   3.590   3.304
 4437TIP3   OH213316   0.307   1.762   4.093
 4437TIP3    H113317   0.315   1.667   4.103
 4437TIP3    H213318   0.214   1.780   4.107
 4438TIP3   OH213319   1.645   2.078   1.191
 4438TIP3    H113320   1.650   2.089   1.286
 4438TIP3    H213321   1.726   2.035   1.166
 4439TIP3   OH213322   0.056   2.214   1.304
 4439TIP3    H113323   0.016   2.127   1.313
 4439TIP3    H213324   0.144   2.196   1.271
 4440TIP3   OH213325   4.824   4.485   4.618
 4440TIP3    H113326   4.823   4.410   4.677
 4440TIP3    H213327   4.818   4.447   4.530
 4441TIP3   OH213328   4.177   1.370   4.223
 4441TIP3    H113329   4.095   1.419   4.212
 4441TIP3    H213330   4.236   1.409   4.159
 4442TIP3   OH213331   2.890   0.712   2.369
 4442TIP3    H113332   2.954   0.642   2.356
 4442TIP3    H213333   2.806   0.672   2.346
 4443TIP3   OH213334   2.878   4.773   1.745
 4443TIP3    H113335   2.788   4.793   1.719
 4443TIP3    H213336   2.932   4.822   1.684
 4444TIP3   OH213337   4.844   1.777   2.843
 4444TIP3    H113338   4.842   1.798   2.750
 4444TIP3    H213339   4.799   1.851   2.885
 4445TIP3   OH213340   4.462   3.178   4.498
 4445TIP3    H113341   4.474   3.261   4.452
 4445TIP3    H213342   4.549   3.138   4.499
 4446TIP3   OH213343   2.475   3.956   0.210
 4446TIP3    H113344   2.555   3.932   0.258
 4446TIP3    H213345   2.417   3.990   0.278
 4447TIP3   OH213346   0.383   3.625   1.126
 4447TIP3    H113347   0.314   3.686   1.150
 4447TIP3    H213348   0.463   3.677   1.126
 4448TIP3   OH213349   2.828   1.877   4.456
 4448TIP3    H113350   2.817   1.786   4.483
 4448TIP3    H213351   2.751   1.897   4.403
 4449TIP3   OH213352   2.905   1.245   3.431
 4449TIP3    H113353   2.997   1.250   3.454
 4449TIP3    H213354   2.867   1.182   3.493
 4450TIP3   OH213355   1.689   0.473   4.804
 4450TIP3    H113356   1.654   0.539   4.864
 4450TIP3    H213357   1.784   0.490   4.803
 4451TIP3   OH213358   4.595   1.461   0.504
 4451TIP3    H113359   4.624   1.370   0.493
 4451TIP3    H213360   4.674   1.508   0.531
 4452TIP3   OH213361   3.074   3.825   2.049
 4452TIP3    H113362   3.049   3.792   2.136
 4452TIP3    H213363   3.077   3.747   1.994
 4453TIP3   OH213364   0.878   3.180   0.850
 4453TIP3    H113365   0.901   3.102   0.900
 4453TIP3    H213366   0.782   3.182   0.850
 4454TIP3   OH213367   6.225   2.933   2.486
 4454TIP3    H113368   6.315   2.929   2.454
 4454TIP3    H213369   6.172   2.900   2.413
 4455TIP3   OH213370   5.338   5.561   2.128
 4455TIP3    H113371   5.286   5.500   2.076
 4455TIP3    H213372   5.366   5.628   2.066
 4456TIP3   OH213373   3.827   4.080   1.848
 4456TIP3    H113374   3.781   3.998   1.863
 4456TIP3    H213375   3.768   4.131   1.793
 4457TIP3   OH213376   4.698   1.423   1.035
 4457TIP3    H113377   4.635   1.351   1.034
 4457TIP3    H213378   4.707   1.448   0.943
 4458TIP3   OH213379   4.277   1.044   1.211
 4458TIP3    H113380   4.303   1.134   1.231
 4458TIP3    H213381   4.187   1.037   1.242
 4459TIP3   OH213382   2.804   0.145   3.783
 4459TIP3    H113383   2.729   0.086   3.797
 4459TIP3    H213384   2.827   0.132   3.691
 4460TIP3   OH213385   5.762   5.041   4.608
 4460TIP3    H113386   5.681   5.091   4.617
 4460TIP3    H213387   5.807   5.053   4.692
 4461TIP3   OH213388   3.642   3.200   0.082
 4461TIP3    H113389   3.720   3.239   0.044
 4461TIP3    H213390   3.660   3.197   0.176
 4462TIP3   OH213391   1.805   4.590   3.394
 4462TIP3    H113392   1.810   4.586   3.298
 4462TIP3    H213393   1.723   4.547   3.416
 4463TIP3   OH213394   0.801   1.268   3.754
 4463TIP3    H113395   0.883   1.298   3.793
 4463TIP3    H213396   0.825   1.188   3.707
 4464TIP3   OH213397   1.095   4.540   2.604
 4464TIP3    H113398   1.141   4.553   2.521
 4464TIP3    H213399   1.164   4.532   2.669
 4465TIP3   OH213400   1.193   3.972   1.767
 4465TIP3    H113401   1.116   3.963   1.711
 4465TIP3    H213402   1.260   4.009   1.710
 4466TIP3   OH213403   3.163   2.291   1.653
 4466TIP3    H113404   3.130   2.373   1.691
 4466TIP3    H213405   3.144   2.224   1.719
 4467TIP3   OH213406   4.006   2.558   0.790
 4467TIP3    H113407   4.017   2.487   0.854
 4467TIP3    H213408   4.094   2.578   0.761
 4468TIP3   OH213409   3.821   4.110   1.022
 4468TIP3    H113410   3.861   4.195   1.041
 4468TIP3    H213411   3.728   4.121   1.043
 4469TIP3   OH213412   3.706  -0.019   2.029
 4469TIP3    H113413   3.708   0.077   2.031
 4469TIP3    H213414   3.665  -0.044   2.112
 4470TIP3   OH213415   5.192   1.352   0.477
 4470TIP3    H113416   5.177   1.420   0.411
 4470TIP3    H213417   5.286   1.337   0.474
 4471TIP3   OH213418   1.225   4.821   4.421
 4471TIP3    H113419   1.300   4.772   4.455
 4471TIP3    H213420   1.231   4.811   4.326
 4472TIP3   OH213421   1.985   4.293   3.491
 4472TIP3    H113422   1.897   4.267   3.463
 4472TIP3    H213423   2.009   4.364   3.433
 4473TIP3   OH213424   3.703   0.873   0.887
 4473TIP3    H113425   3.743   0.803   0.939
 4473TIP3    H213426   3.776   0.911   0.838
 4474TIP3   OH213427   0.252   5.914   4.927
 4474TIP3    H113428   0.248   5.923   5.023
 4474TIP3    H213429   0.318   5.978   4.900
 4475TIP3   OH213430   0.993   1.952   1.101
 4475TIP3    H113431   1.030   1.877   1.054
 4475TIP3    H213432   0.948   1.912   1.176
 4476TIP3   OH213433   1.075   1.859   4.029
 4476TIP3    H113434   1.019   1.936   4.041
 4476TIP3    H213435   1.048   1.799   4.098
 4477TIP3   OH213436   4.649   4.652   3.385
 4477TIP3    H113437   4.646   4.725   3.447
 4477TIP3    H213438   4.562   4.650   3.345
 4478TIP3   OH213439   2.258   1.150   3.161
 4478TIP3    H113440   2.248   1.055   3.159
 4478TIP3    H213441   2.340   1.165   3.209
 4479TIP3   OH213442   1.360   4.978   1.753
 4479TIP3    H113443   1.452   5.001   1.746
 4479TIP3    H213444   1.360   4.883   1.767
 4480TIP3   OH213445   3.691   1.647   2.930
 4480TIP3    H113446   3.608   1.680   2.897
 4480TIP3    H213447   3.705   1.692   3.013
 4481TIP3   OH213448   0.904   5.640   3.325
 4481TIP3    H113449   0.815   5.629   3.361
 4481TIP3    H213450   0.894   5.625   3.231
 4482TIP3   OH213451   2.195   2.046   3.990
 4482TIP3    H113452   2.217   1.973   4.047
 4482TIP3    H213453   2.191   2.122   4.049
 4483TIP3   OH213454   1.341   0.290   2.555
 4483TIP3    H113455   1.378   0.207   2.524
 4483TIP3    H213456   1.393   0.358   2.510
 4484TIP3   OH213457   5.672   5.331   4.230
 4484TIP3    H113458   5.749   5.303   4.280
 4484TIP3    H213459   5.615   5.254   4.229
 4485TIP3   OH213460   2.717   1.862   1.553
 4485TIP3    H113461   2.690   1.951   1.576
 4485TIP3    H213462   2.679   1.806   1.620
 4486TIP3   OH213463   4.361   3.032   1.644
 4486TIP3    H113464   4.335   3.124   1.633
 4486TIP3    H213465   4.289   2.982   1.606
 4487TIP3   OH213466   2.456   4.067   3.902
 4487TIP3    H113467   2.408   4.043   3.982
 4487TIP3    H213468   2.396   4.044   3.831
 4488TIP3   OH213469   3.547   4.815   3.848
 4488TIP3    H113470   3.616   4.817   3.781
 4488TIP3    H213471   3.481   4.875   3.815
 4489TIP3   OH213472   2.736   2.894   1.850
 4489TIP3    H113473   2.775   2.835   1.914
 4489TIP3    H213474   2.650   2.855   1.832
 4490TIP3   OH213475   3.182   5.180   3.223
 4490TIP3    H113476   3.216   5.270   3.216
 4490TIP3    H213477   3.199   5.156   3.314
 4491TIP3   OH213478   0.730   5.668   0.553
 4491TIP3    H113479   0.820   5.646   0.531
 4491TIP3    H213480   0.737   5.744   0.611
 4492TIP3   OH213481   6.178   2.900   1.120
 4492TIP3    H113482   6.218   2.931   1.201
 4492TIP3    H213483   6.171   2.978   1.065
 4493TIP3   OH213484   1.736   4.866   1.854
 4493TIP3    H113485   1.693   4.881   1.770
 4493TIP3    H213486   1.766   4.953   1.881
 4494TIP3   OH213487   3.545   4.912   1.640
 4494TIP3    H113488   3.593   4.933   1.560
 4494TIP3    H213489   3.557   4.989   1.695
 4495TIP3   OH213490   3.573   5.418   5.135
 4495TIP3    H113491   3.626   5.384   5.063
 4495TIP3    H213492   3.636   5.430   5.206
 4496TIP3   OH213493   0.204   3.955   2.214
 4496TIP3    H113494   0.234   3.945   2.304
 4496TIP3    H213495   0.163   3.871   2.192
 4497TIP3   OH213496   1.041   3.732   4.142
 4497TIP3    H113497   1.079   3.797   4.082
 4497TIP3    H213498   1.115   3.704   4.195
 4498TIP3   OH213499   1.073   4.521   1.976
 4498TIP3    H113500   1.140   4.452   1.971
 4498TIP3    H213501   1.002   4.480   2.026
 4499TIP3   OH213502   2.608   4.291   3.950
 4499TIP3    H113503   2.555   4.362   3.914
 4499TIP3    H213504   2.556   4.212   3.936
 4500TIP3   OH213505   5.713   4.495   0.342
 4500TIP3    H113506   5.617   4.500   0.346
 4500TIP3    H213507   5.730   4.412   0.298
 4501TIP3   OH213508   0.460   4.999   3.784
 4501TIP3    H113509   0.540   4.972   3.831
 4501TIP3    H213510   0.457   4.943   3.707
 4502TIP3   OH213511   2.441   5.570   2.593
 4502TIP3    H113512   2.478   5.483   2.608
 4502TIP3    H213513   2.500   5.610   2.528
 4503TIP3   OH213514   3.495   1.834   1.061
 4503TIP3    H113515   3.399   1.835   1.070
 4503TIP3    H213516   3.512   1.766   0.996
 4504TIP3   OH213517   0.588   5.128   4.842
 4504TIP3    H113518   0.601   5.211   4.795
 4504TIP3    H213519   0.590   5.152   4.934
 4505TIP3   OH213520   4.392   4.944   4.793
 4505TIP3    H113521   4.355   4.962   4.706
 4505TIP3    H213522   4.320   4.905   4.842
 4506TIP3   OH213523   3.949   0.710   3.278
 4506TIP3    H113524   3.990   0.700   3.364
 4506TIP3    H213525   3.994   0.646   3.222
 4507TIP3   OH213526   3.975   1.175   3.515
 4507TIP3    H113527   4.070   1.175   3.498
 4507TIP3    H213528   3.957   1.262   3.550
 4508TIP3   OH213529   5.359   3.147   3.526
 4508TIP3    H113530   5.447   3.147   3.490
 4508TIP3    H213531   5.302   3.145   3.449
 4509TIP3   OH213532   5.495   5.716   1.340
 4509TIP3    H113533   5.543   5.689   1.262
 4509TIP3    H213534   5.433   5.645   1.357
 4510TIP3   OH213535   2.396   2.841   1.181
 4510TIP3    H113536   2.444   2.924   1.181
 4510TIP3    H213537   2.323   2.856   1.241
 4511TIP3   OH213538   2.670   0.895   3.231
 4511TIP3    H113539   2.581   0.865   3.212
 4511TIP3    H213540   2.664   0.934   3.318
 4512TIP3   OH213541   4.672   0.717   3.364
 4512TIP3    H113542   4.597   0.766   3.398
 4512TIP3    H213543   4.715   0.778   3.303
 4513TIP3   OH213544   4.555   4.779   0.003
 4513TIP3    H113545   4.466   4.757  -0.023
 4513TIP3    H213546   4.557   4.766   0.098
 4514TIP3   OH213547   5.767   2.379   4.393
 4514TIP3    H113548   5.770   2.290   4.357
 4514TIP3    H213549   5.685   2.416   4.359
 4515TIP3   OH213550   2.697   5.978   3.009
 4515TIP3    H113551   2.682   5.887   3.036
 4515TIP3    H213552   2.713   5.972   2.915
 4516TIP3   OH213553   3.259   2.234   1.366
 4516TIP3    H113554   3.175   2.249   1.322
 4516TIP3    H213555   3.250   2.277   1.451
 4517TIP3   OH213556   1.813   0.701   1.335
 4517TIP3    H113557   1.877   0.651   1.286
 4517TIP3    H213558   1.769   0.637   1.391
 4518TIP3   OH213559   2.343   3.905   3.158
 4518TIP3    H113560   2.322   3.836   3.095
 4518TIP3    H213561   2.378   3.858   3.234
 4519TIP3   OH213562   0.855   0.411   0.401
 4519TIP3    H113563   0.900   0.472   0.458
 4519TIP3    H213564   0.914   0.336   0.393
 4520TIP3   OH213565   4.373   0.467   0.454
 4520TIP3    H113566   4.403   0.423   0.534
 4520TIP3    H213567   4.293   0.512   0.480
 4521TIP3   OH213568   0.766   2.899   4.583
 4521TIP3    H113569   0.825   2.832   4.547
 4521TIP3    H213570   0.681   2.878   4.543
 4522TIP3   OH213571   5.534   3.618   4.330
 4522TIP3    H113572   5.446   3.582   4.320
 4522TIP3    H213573   5.582   3.550   4.378
 4523TIP3   OH213574   0.089   3.904   3.782
 4523TIP3    H113575   0.141   3.873   3.856
 4523TIP3    H213576   0.032   3.831   3.760
 4524TIP3   OH213577   2.949   3.335   2.658
 4524TIP3    H113578   2.862   3.373   2.650
 4524TIP3    H213579   2.968   3.336   2.752
 4525TIP3   OH213580   1.149   3.887   1.241
 4525TIP3    H113581   1.142   3.906   1.147
 4525TIP3    H213582   1.193   3.964   1.278
 4526TIP3   OH213583   3.807   0.408   1.408
 4526TIP3    H113584   3.765   0.392   1.492
 4526TIP3    H213585   3.898   0.383   1.420
 4527TIP3   OH213586   3.879   2.054   4.444
 4527TIP3    H113587   3.818   2.061   4.370
 4527TIP3    H213588   3.966   2.059   4.405
 4528TIP3   OH213589   4.963   4.930   3.840
 4528TIP3    H113590   5.012   4.851   3.862
 4528TIP3    H213591   4.915   4.907   3.761
 4529TIP3   OH213592   6.318   1.076   0.962
 4529TIP3    H113593   6.278   1.071   0.875
 4529TIP3    H213594   6.411   1.091   0.944
 4530TIP3   OH213595   0.192   4.944   4.372
 4530TIP3    H113596   0.264   4.881   4.376
 4530TIP3    H213597   0.222   5.011   4.310
 4531TIP3   OH213598   5.238   0.589   3.477
 4531TIP3    H113599   5.175   0.528   3.517
 4531TIP3    H213600   5.194   0.619   3.397
 4532TIP3   OH213601   1.514   2.247   4.896
 4532TIP3    H113602   1.562   2.305   4.954
 4532TIP3    H213603   1.509   2.294   4.813
 4533TIP3   OH213604   2.049   5.688   4.987
 4533TIP3    H113605   1.956   5.682   4.966
 4533TIP3    H213606   2.072   5.779   4.968
 4534TIP3   OH213607   2.984   5.501   1.131
 4534TIP3    H113608   3.046   5.473   1.199
 4534TIP3    H213609   3.038   5.519   1.055
 4535TIP3   OH213610   1.726   1.060   4.081
 4535TIP3    H113611   1.705   1.152   4.096
 4535TIP3    H213612   1.798   1.063   4.017
 4536TIP3   OH213613   0.582   5.523   1.252
 4536TIP3    H113614   0.569   5.482   1.337
 4536TIP3    H213615   0.569   5.453   1.188
 4537TIP3   OH213616   3.919   0.443   5.182
 4537TIP3    H113617   3.868   0.524   5.189
 4537TIP3    H213618   3.919   0.422   5.089
 4538TIP3   OH213619   5.554   0.858   3.471
 4538TIP3    H113620   5.493   0.813   3.530
 4538TIP3    H213621   5.640   0.825   3.495
 4539TIP3   OH213622   2.506   1.893   3.285
 4539TIP3    H113623   2.507   1.970   3.342
 4539TIP3    H213624   2.427   1.904   3.232
 4540TIP3   OH213625   3.397   5.665   3.810
 4540TIP3    H113626   3.392   5.716   3.728
 4540TIP3    H213627   3.306   5.639   3.827
 4541TIP3   OH213628   5.109   5.577   0.299
 4541TIP3    H113629   5.134   5.485   0.290
 4541TIP3    H213630   5.193   5.624   0.301
 4542TIP3   OH213631   6.203   0.099   4.127
 4542TIP3    H113632   6.233   0.035   4.062
 4542TIP3    H213633   6.125   0.059   4.166
 4543TIP3   OH213634   2.493   0.923   4.820
 4543TIP3    H113635   2.526   0.839   4.851
 4543TIP3    H213636   2.410   0.901   4.776
 4544TIP3   OH213637   0.314   0.693   2.788
 4544TIP3    H113638   0.322   0.720   2.697
 4544TIP3    H213639   0.377   0.747   2.835
 4545TIP3   OH213640   5.589   2.713   0.697
 4545TIP3    H113641   5.634   2.644   0.745
 4545TIP3    H213642   5.631   2.713   0.611
 4546TIP3   OH213643   5.845   3.527   0.306
 4546TIP3    H113644   5.857   3.458   0.240
 4546TIP3    H213645   5.887   3.492   0.385
 4547TIP3   OH213646   2.820   0.634   3.691
 4547TIP3    H113647   2.757   0.577   3.648
 4547TIP3    H213648   2.811   0.614   3.784
 4548TIP3   OH213649   2.860   2.412   3.733
 4548TIP3    H113650   2.861   2.347   3.663
 4548TIP3    H213651   2.768   2.424   3.754
 4549TIP3   OH213652   4.400   4.377   2.720
 4549TIP3    H113653   4.479   4.413   2.758
 4549TIP3    H213654   4.344   4.453   2.705
 4550TIP3   OH213655   1.553   2.220   1.452
 4550TIP3    H113656   1.478   2.229   1.394
 4550TIP3    H213657   1.613   2.290   1.425
 4551TIP3   OH213658   2.865   6.006   1.637
 4551TIP3    H113659   2.852   5.929   1.692
 4551TIP3    H213660   2.796   6.067   1.664
 4552TIP3   OH213661   5.601   2.507   4.013
 4552TIP3    H113662   5.674   2.474   4.064
 4552TIP3    H213663   5.523   2.467   4.052
 4553TIP3   OH213664   0.214   5.845   0.736
 4553TIP3    H113665   0.209   5.760   0.692
 4553TIP3    H213666   0.254   5.827   0.820
 4554TIP3   OH213667   5.413   4.122   1.323
 4554TIP3    H113668   5.427   4.077   1.406
 4554TIP3    H213669   5.499   4.158   1.300
 4555TIP3   OH213670   4.863   3.280   3.922
 4555TIP3    H113671   4.864   3.335   4.001
 4555TIP3    H213672   4.954   3.278   3.893
 4556TIP3   OH213673   3.527   1.438   1.813
 4556TIP3    H113674   3.458   1.397   1.760
 4556TIP3    H213675   3.608   1.399   1.780
 4557TIP3   OH213676   0.732   0.529   4.204
 4557TIP3    H113677   0.716   0.486   4.119
 4557TIP3    H213678   0.822   0.561   4.198
 4558TIP3   OH213679   5.856   1.749   4.706
 4558TIP3    H113680   5.884   1.661   4.680
 4558TIP3    H213681   5.873   1.752   4.801
 4559TIP3   OH213682   5.178   2.512   2.040
 4559TIP3    H113683   5.199   2.438   1.984
 4559TIP3    H213684   5.091   2.540   2.013
 4560TIP3   OH213685   5.064   1.234   4.965
 4560TIP3    H113686   5.125   1.163   4.946
 4560TIP3    H213687   5.050   1.229   5.060
 4561TIP3   OH213688   0.679   2.522   1.330
 4561TIP3    H113689   0.652   2.571   1.407
 4561TIP3    H213690   0.775   2.520   1.334
 4562TIP3   OH213691   1.513   5.955   3.866
 4562TIP3    H113692   1.527   6.049   3.881
 4562TIP3    H213693   1.481   5.949   3.776
 4563TIP3   OH213694   2.712   2.156   1.398
 4563TIP3    H113695   2.778   2.224   1.390
 4563TIP3    H213696   2.657   2.184   1.472
 4564TIP3   OH213697   4.198   3.707   3.352
 4564TIP3    H113698   4.237   3.658   3.280
 4564TIP3    H213699   4.263   3.704   3.422
 4565TIP3   OH213700   4.519   2.830   4.414
 4565TIP3    H113701   4.577   2.792   4.480
 4565TIP3    H213702   4.459   2.886   4.463
 4566TIP3   OH213703   5.550   4.038   2.248
 4566TIP3    H113704   5.621   3.995   2.201
 4566TIP3    H213705   5.524   4.110   2.191
 4567TIP3   OH213706   6.148   4.873   1.339
 4567TIP3    H113707   6.220   4.877   1.275
 4567TIP3    H213708   6.190   4.845   1.420
 4568TIP3   OH213709   5.608   0.825   2.878
 4568TIP3    H113710   5.637   0.916   2.883
 4568TIP3    H213711   5.681   0.774   2.913
 4569TIP3   OH213712   1.156   0.990   5.089
 4569TIP3    H113713   1.180   0.933   5.162
 4569TIP3    H213714   1.139   0.930   5.016
 4570TIP3   OH213715   1.799   4.282   4.539
 4570TIP3    H113716   1.791   4.354   4.602
 4570TIP3    H213717   1.866   4.224   4.577
 4571TIP3   OH213718   3.656   1.584   3.512
 4571TIP3    H113719   3.654   1.539   3.597
 4571TIP3    H213720   3.582   1.645   3.517
 4572TIP3   OH213721   3.327   5.465   4.259
 4572TIP3    H113722   3.317   5.530   4.329
 4572TIP3    H213723   3.245   5.415   4.261
 4573TIP3   OH213724   3.779   2.306   1.815
 4573TIP3    H113725   3.755   2.332   1.727
 4573TIP3    H213726   3.696   2.304   1.863
 4574TIP3   OH213727   4.991   3.947   4.619
 4574TIP3    H113728   5.077   3.976   4.587
 4574TIP3    H213729   5.010   3.903   4.702
 4575TIP3   OH213730   4.652   4.682   4.722
 4575TIP3    H113731   4.620   4.628   4.794
 4575TIP3    H213732   4.732   4.638   4.692
 4576TIP3   OH213733   6.310   3.773   2.339
 4576TIP3    H113734   6.256   3.841   2.380
 4576TIP3    H213735   6.289   3.779   2.246
 4577TIP3   OH213736   6.268   4.153   4.588
 4577TIP3    H113737   6.207   4.226   4.599
 4577TIP3    H213738   6.303   4.163   4.500
 4578TIP3   OH213739   5.464   0.282   4.354
 4578TIP3    H113740   5.458   0.374   4.328
 4578TIP3    H213741   5.529   0.281   4.424
 4579TIP3   OH213742   3.786   1.941   2.116
 4579TIP3    H113743   3.701   1.942   2.159
 4579TIP3    H213744   3.769   1.973   2.027
 4580TIP3   OH213745   4.615   3.891   2.164
 4580TIP3    H113746   4.547   3.891   2.231
 4580TIP3    H213747   4.590   3.819   2.106
 4581TIP3   OH213748   6.271   1.031   0.063
 4581TIP3    H113749   6.338   1.095   0.090
 4581TIP3    H213750   6.197   1.048   0.121
 4582TIP3   OH213751   3.651   4.989   2.224
 4582TIP3    H113752   3.605   4.951   2.149
 4582TIP3    H213753   3.666   5.080   2.198
 4583TIP3   OH213754   5.287   0.891   4.731
 4583TIP3    H113755   5.312   0.977   4.766
 4583TIP3    H213756   5.194   0.882   4.752
 4584TIP3   OH213757   6.317   2.730   1.749
 4584TIP3    H113758   6.228   2.718   1.784
 4584TIP3    H213759   6.308   2.800   1.684
 4585TIP3   OH213760   6.032   2.490   3.687
 4585TIP3    H113761   5.970   2.542   3.738
 4585TIP3    H213762   6.064   2.423   3.747
 4586TIP3   OH213763   4.787   3.953   3.831
 4586TIP3    H113764   4.777   4.028   3.890
 4586TIP3    H213765   4.738   3.976   3.753
 4587TIP3   OH213766   6.105   5.800   2.673
 4587TIP3    H113767   6.047   5.808   2.598
 4587TIP3    H213768   6.142   5.712   2.667
 4588TIP3   OH213769   3.068   3.656   3.884
 4588TIP3    H113770   3.041   3.597   3.814
 4588TIP3    H213771   3.133   3.606   3.933
 4589TIP3   OH213772   0.743   4.134   2.363
 4589TIP3    H113773   0.812   4.084   2.320
 4589TIP3    H213774   0.779   4.223   2.368
 4590TIP3   OH213775   4.026   4.943   4.460
 4590TIP3    H113776   4.116   4.929   4.487
 4590TIP3    H213777   3.998   4.859   4.423
 4591TIP3   OH213778   4.943   1.400   1.407
 4591TIP3    H113779   4.949   1.479   1.461
 4591TIP3    H213780   4.931   1.329   1.470
 4592TIP3   OH213781   2.686   4.315   0.915
 4592TIP3    H113782   2.708   4.225   0.938
 4592TIP3    H213783   2.597   4.309   0.880
 4593TIP3   OH213784   3.941   3.395   4.435
 4593TIP3    H113785   3.871   3.332   4.416
 4593TIP3    H213786   3.987   3.357   4.510
 4594TIP3   OH213787   0.435   0.783   3.526
 4594TIP3    H113788   0.512   0.751   3.480
 4594TIP3    H213789   0.451   0.876   3.540
 4595TIP3   OH213790   6.223   2.540   0.325
 4595TIP3    H113791   6.170   2.620   0.324
 4595TIP3    H213792   6.239   2.523   0.418
 4596TIP3   OH213793   4.190   2.228   1.188
 4596TIP3    H113794   4.249   2.189   1.252
 4596TIP3    H213795   4.247   2.284   1.135
 4597TIP3   OH213796   3.568   5.436   2.263
 4597TIP3    H113797   3.515   5.365   2.226
 4597TIP3    H213798   3.536   5.515   2.221
 4598TIP3   OH213799   2.130   4.552   2.281
 4598TIP3    H113800   2.224   4.536   2.287
 4598TIP3    H213801   2.091   4.464   2.289
 4599TIP3   OH213802   3.650   0.875   3.524
 4599TIP3    H113803   3.564   0.843   3.550
 4599TIP3    H213804   3.651   0.867   3.429
 4600TIP3   OH213805   4.345   2.155   3.423
 4600TIP3    H113806   4.358   2.133   3.516
 4600TIP3    H213807   4.432   2.148   3.385
 4601TIP3   OH213808   1.555   2.081   1.705
 4601TIP3    H113809   1.552   1.986   1.696
 4601TIP3    H213810   1.552   2.114   1.615
 4602TIP3   OH213811   4.532   0.756   2.517
 4602TIP3    H113812   4.549   0.662   2.522
 4602TIP3    H213813   4.512   0.771   2.425
 4603TIP3   OH213814   1.370   5.869   0.784
 4603TIP3    H113815   1.340   5.941   0.839
 4603TIP3    H213816   1.373   5.905   0.695
 4604TIP3   OH213817   3.481   0.331   0.899
 4604TIP3    H113818   3.486   0.335   0.803
 4604TIP3    H213819   3.572   0.317   0.927
 4605TIP3   OH213820   5.196   0.514   2.204
 4605TIP3    H113821   5.106   0.482   2.205
 4605TIP3    H213822   5.249   0.436   2.188
 4606TIP3   OH213823   1.096   2.638   4.229
 4606TIP3    H113824   1.020   2.649   4.286
 4606TIP3    H213825   1.148   2.718   4.243
 4607TIP3   OH213826   1.737   3.004   3.674
 4607TIP3    H113827   1.829   2.978   3.663
 4607TIP3    H213828   1.738   3.068   3.745
 4608TIP3   OH213829   1.541   1.852   4.433
 4608TIP3    H113830   1.460   1.903   4.430
 4608TIP3    H213831   1.578   1.871   4.519
 4609TIP3   OH213832   1.587   4.431   4.969
 4609TIP3    H113833   1.590   4.341   5.001
 4609TIP3    H213834   1.496   4.442   4.940
 4610TIP3   OH213835   5.751   5.583   5.058
 4610TIP3    H113836   5.824   5.619   5.108
 4610TIP3    H213837   5.793   5.535   4.987
 4611TIP3   OH213838   3.053   0.631   3.575
 4611TIP3    H113839   2.982   0.613   3.636
 4611TIP3    H213840   3.080   0.721   3.596
 4612TIP3   OH213841   0.613   0.883   1.563
 4612TIP3    H113842   0.689   0.829   1.585
 4612TIP3    H213843   0.598   0.865   1.470
 4613TIP3   OH213844   4.793   1.591   4.666
 4613TIP3    H113845   4.768   1.628   4.581
 4613TIP3    H213846   4.839   1.510   4.644
 4614TIP3   OH213847   5.758   5.349   0.921
 4614TIP3    H113848   5.731   5.396   0.842
 4614TIP3    H213849   5.686   5.290   0.940
 4615TIP3   OH213850   0.689   3.807   3.439
 4615TIP3    H113851   0.706   3.802   3.534
 4615TIP3    H213852   0.611   3.752   3.426
 4616TIP3   OH213853   6.254   1.644   1.328
 4616TIP3    H113854   6.177   1.651   1.272
 4616TIP3    H213855   6.250   1.554   1.362
 4617TIP3   OH213856   3.646   1.445   5.049
 4617TIP3    H113857   3.713   1.491   4.999
 4617TIP3    H213858   3.659   1.352   5.026
 4618TIP3   OH213859   0.963   4.661   3.998
 4618TIP3    H113860   0.948   4.714   3.920
 4618TIP3    H213861   1.042   4.610   3.979
 4619TIP3   OH213862   3.423   2.998   4.955
 4619TIP3    H113863   3.516   2.988   4.932
 4619TIP3    H213864   3.381   2.920   4.920
 4620TIP3   OH213865   1.793   4.850   2.179
 4620TIP3    H113866   1.781   4.942   2.155
 4620TIP3    H213867   1.872   4.823   2.133
 4621TIP3   OH213868   3.149   4.126   4.602
 4621TIP3    H113869   3.166   4.170   4.519
 4621TIP3    H213870   3.217   4.160   4.661
 4622TIP3   OH213871   5.035   3.241   4.715
 4622TIP3    H113872   5.071   3.241   4.627
 4622TIP3    H213873   5.100   3.196   4.768
 4623TIP3   OH213874   1.556   2.957   4.790
 4623TIP3    H113875   1.534   3.050   4.778
 4623TIP3    H213876   1.471   2.914   4.798
 4624TIP3   OH213877   0.941   1.070   0.507
 4624TIP3    H113878   0.855   1.107   0.489
 4624TIP3    H213879   1.002   1.131   0.467
 4625TIP3   OH213880   0.139   3.758   0.922
 4625TIP3    H113881   0.111   3.775   1.012
 4625TIP3    H213882   0.108   3.670   0.903
 4626TIP3   OH213883   0.049   0.179   2.312
 4626TIP3    H113884   0.100   0.256   2.339
 4626TIP3    H213885   0.060   0.117   2.385
 4627TIP3   OH213886   5.715   5.805   4.372
 4627TIP3    H113887   5.693   5.743   4.442
 4627TIP3    H213888   5.695   5.891   4.409
 4628TIP3   OH213889   1.130   3.169   0.243
 4628TIP3    H113890   1.139   3.110   0.169
 4628TIP3    H213891   1.199   3.234   0.231
 4629TIP3   OH213892   5.850   3.743   1.077
 4629TIP3    H113893   5.815   3.771   0.993
 4629TIP3    H213894   5.855   3.824   1.129
 4630TIP3   OH213895   4.464   5.563   2.807
 4630TIP3    H113896   4.389   5.506   2.827
 4630TIP3    H213897   4.431   5.652   2.822
 4631TIP3   OH213898   2.604   4.658   1.232
 4631TIP3    H113899   2.680   4.606   1.207
 4631TIP3    H213900   2.533   4.622   1.178
 4632TIP3   OH213901   4.791   3.792   1.398
 4632TIP3    H113902   4.763   3.845   1.472
 4632TIP3    H213903   4.790   3.702   1.430
 4633TIP3   OH213904   1.298   3.856   0.928
 4633TIP3    H113905   1.269   3.769   0.959
 4633TIP3    H213906   1.365   3.882   0.991
 4634TIP3   OH213907   0.325   2.402   4.912
 4634TIP3    H113908   0.379   2.395   4.991
 4634TIP3    H213909   0.347   2.324   4.861
 4635TIP3   OH213910   3.579   3.412   4.284
 4635TIP3    H113911   3.511   3.471   4.250
 4635TIP3    H213912   3.558   3.327   4.245
 4636TIP3   OH213913   1.999   4.042   2.057
 4636TIP3    H113914   2.050   3.969   2.023
 4636TIP3    H213915   2.001   4.031   2.152
 4637TIP3   OH213916   4.788   0.918   3.217
 4637TIP3    H113917   4.860   0.981   3.211
 4637TIP3    H213918   4.726   0.947   3.151
 4638TIP3   OH213919   5.223   4.636   0.639
 4638TIP3    H113920   5.226   4.560   0.581
 4638TIP3    H213921   5.279   4.612   0.713
 4639TIP3   OH213922   3.597   3.720   1.038
 4639TIP3    H113923   3.537   3.649   1.062
 4639TIP3    H213924   3.683   3.688   1.065
 4640TIP3   OH213925   4.687   3.289   2.620
 4640TIP3    H113926   4.600   3.327   2.605
 4640TIP3    H213927   4.681   3.201   2.583
 4641TIP3   OH213928   2.619   5.795   3.664
 4641TIP3    H113929   2.582   5.709   3.646
 4641TIP3    H213930   2.706   5.777   3.699
 4642TIP3   OH213931   5.120   2.614   0.250
 4642TIP3    H113932   5.126   2.607   0.346
 4642TIP3    H213933   5.064   2.690   0.235
 4643TIP3   OH213934   0.752   0.921   4.068
 4643TIP3    H113935   0.712   1.003   4.041
 4643TIP3    H213936   0.692   0.886   4.135
 4644TIP3   OH213937   1.318   2.281   1.351
 4644TIP3    H113938   1.286   2.360   1.394
 4644TIP3    H213939   1.244   2.221   1.354
 4645TIP3   OH213940   5.006   5.350   1.257
 4645TIP3    H113941   5.022   5.397   1.175
 4645TIP3    H213942   5.086   5.299   1.271
 4646TIP3   OH213943   0.084   1.602   0.061
 4646TIP3    H113944   0.146   1.552   0.008
 4646TIP3    H213945   0.030   1.537   0.105
 4647TIP3   OH213946   0.528   5.592   0.379
 4647TIP3    H113947   0.559   5.501   0.379
 4647TIP3    H213948   0.595   5.640   0.427
 4648TIP3   OH213949   1.544   3.824   4.528
 4648TIP3    H113950   1.593   3.788   4.602
 4648TIP3    H213951   1.592   3.902   4.502
 4649TIP3   OH213952   2.776   4.667   4.854
 4649TIP3    H113953   2.819   4.651   4.938
 4649TIP3    H213954   2.842   4.645   4.788
 4650TIP3   OH213955   4.485   2.653   1.871
 4650TIP3    H113956   4.419   2.720   1.851
 4650TIP3    H213957   4.460   2.620   1.957
 4651TIP3   OH213958   3.720   0.405   4.527
 4651TIP3    H113959   3.747   0.381   4.616
 4651TIP3    H213960   3.639   0.355   4.513
 4652TIP3   OH213961   5.096   0.405   3.593
 4652TIP3    H113962   5.078   0.334   3.532
 4652TIP3    H213963   5.011   0.431   3.627
 4653TIP3   OH213964   2.491   0.343   5.026
 4653TIP3    H113965   2.553   0.321   5.095
 4653TIP3    H213966   2.502   0.274   4.961
 4654TIP3   OH213967   5.913   4.856   0.478
 4654TIP3    H113968   5.843   4.860   0.543
 4654TIP3    H213969   5.925   4.947   0.451
 4655TIP3   OH213970   4.385   5.078   2.750
 4655TIP3    H113971   4.296   5.090   2.718
 4655TIP3    H213972   4.399   4.983   2.747
 4656TIP3   OH213973   0.128   4.810   0.572
 4656TIP3    H113974   0.039   4.799   0.539
 4656TIP3    H213975   0.119   4.876   0.642
 4657TIP3   OH213976   4.309   3.172   1.013
 4657TIP3    H113977   4.286   3.258   1.049
 4657TIP3    H213978   4.225   3.127   1.002
 4658TIP3   OH213979   4.355   0.668   2.223
 4658TIP3    H113980   4.283   0.723   2.194
 4658TIP3    H213981   4.431   0.727   2.227
 4659TIP3   OH213982   2.927   3.452   1.321
 4659TIP3    H113983   2.850   3.499   1.352
 4659TIP3    H213984   3.001   3.504   1.353
 4660TIP3   OH213985   4.598   0.324   0.626
 4660TIP3    H113986   4.556   0.383   0.688
 4660TIP3    H213987   4.643   0.260   0.681
 4661TIP3   OH213988   2.913   3.568   1.070
 4661TIP3    H113989   2.944   3.543   1.157
 4661TIP3    H213990   2.819   3.551   1.072
 4662TIP3   OH213991   0.014   0.806   0.779
 4662TIP3    H113992   0.076   0.861   0.730
 4662TIP3    H213993   0.068   0.764   0.846
 4663TIP3   OH213994   2.249   5.887   0.105
 4663TIP3    H113995   2.300   5.807   0.117
 4663TIP3    H213996   2.224   5.886   0.012
 4664TIP3   OH213997   4.815   0.237   4.653
 4664TIP3    H113998   4.883   0.199   4.708
 4664TIP3    H213999   4.749   0.269   4.715
 4665TIP3   OH214000   0.088   0.471   2.002
 4665TIP3    H114001   0.024   0.542   2.000
 4665TIP3    H214002   0.147   0.490   1.930
 4666TIP3   OH214003   2.997   4.031   0.225
 4666TIP3    H114004   2.911   4.061   0.194
 4666TIP3    H214005   2.986   3.937   0.238
 4667TIP3   OH214006   0.527   0.567   1.175
 4667TIP3    H114007   0.598   0.517   1.135
 4667TIP3    H214008   0.481   0.606   1.100
 4668TIP3   OH214009   2.234   1.720   4.543
 4668TIP3    H114010   2.323   1.753   4.554
 4668TIP3    H214011   2.190   1.787   4.491
 4669TIP3   OH214012   2.766   1.601   4.755
 4669TIP3    H114013   2.793   1.511   4.775
 4669TIP3    H214014   2.798   1.617   4.667
 4670TIP3   OH214015   0.200   4.115   4.712
 4670TIP3    H114016   0.191   4.210   4.703
 4670TIP3    H214017   0.113   4.080   4.694
 4671TIP3   OH214018   4.581   1.628   3.927
 4671TIP3    H114019   4.598   1.534   3.916
 4671TIP3    H214020   4.595   1.664   3.839
 4672TIP3   OH214021   1.551   3.654   1.715
 4672TIP3    H114022   1.611   3.581   1.730
 4672TIP3    H214023   1.477   3.636   1.772
 4673TIP3   OH214024   1.540   1.733   3.956
 4673TIP3    H114025   1.557   1.645   3.922
 4673TIP3    H214026   1.473   1.720   4.024
 4674TIP3   OH214027   1.950   5.325   2.760
 4674TIP3    H114028   1.969   5.410   2.800
 4674TIP3    H214029   1.864   5.337   2.719
 4675TIP3   OH214030   4.508   2.713   3.630
 4675TIP3    H114031   4.571   2.645   3.652
 4675TIP3    H214032   4.441   2.707   3.698
 4676TIP3   OH214033   3.118   4.280   4.003
 4676TIP3    H114034   3.143   4.193   4.035
 4676TIP3    H214035   3.189   4.305   3.943
 4677TIP3   OH214036   1.721   1.959   4.007
 4677TIP3    H114037   1.787   2.004   3.954
 4677TIP3    H214038   1.658   2.028   4.031
 4678TIP3   OH214039   0.998   3.945   4.320
 4678TIP3    H114040   1.009   3.876   4.254
 4678TIP3    H214041   0.964   4.020   4.271
 4679TIP3   OH214042   3.146   5.000   2.933
 4679TIP3    H114043   3.167   4.921   2.982
 4679TIP3    H214044   3.217   5.007   2.868
 4680TIP3   OH214045   6.313   4.826   0.279
 4680TIP3    H114046   6.270   4.835   0.194
 4680TIP3    H214047   6.241   4.826   0.342
 4681TIP3   OH214048   3.122   2.603   0.909
 4681TIP3    H114049   3.087   2.643   0.829
 4681TIP3    H214050   3.046   2.565   0.952
 4682TIP3   OH214051   2.264   4.077   2.589
 4682TIP3    H114052   2.332   4.069   2.656
 4682TIP3    H214053   2.306   4.045   2.509
 4683TIP3   OH214054   3.290   0.530   0.406
 4683TIP3    H114055   3.290   0.501   0.314
 4683TIP3    H214056   3.231   0.605   0.407
 4684TIP3   OH214057   2.082   0.386   2.597
 4684TIP3    H114058   2.038   0.417   2.676
 4684TIP3    H214059   2.146   0.455   2.576
 4685TIP3   OH214060   5.034   3.527   2.873
 4685TIP3    H114061   5.114   3.477   2.855
 4685TIP3    H214062   5.033   3.536   2.968
 4686TIP3   OH214063   2.427   1.291   1.089
 4686TIP3    H114064   2.341   1.294   1.131
 4686TIP3    H214065   2.430   1.372   1.037
 4687TIP3   OH214066   4.608   2.269   0.286
 4687TIP3    H114067   4.643   2.180   0.289
 4687TIP3    H214068   4.596   2.288   0.193
 4688TIP3   OH214069   1.154   4.553   2.336
 4688TIP3    H114070   1.101   4.633   2.346
 4688TIP3    H214071   1.215   4.573   2.265
 4689TIP3   OH214072   0.102   0.202   3.271
 4689TIP3    H114073   0.063   0.274   3.321
 4689TIP3    H214074   0.064   0.123   3.309
 4690TIP3   OH214075   1.509   3.478   0.913
 4690TIP3    H114076   1.554   3.533   0.848
 4690TIP3    H214077   1.531   3.519   0.997
 4691TIP3   OH214078   5.546   3.268   4.966
 4691TIP3    H114079   5.584   3.235   5.047
 4691TIP3    H214080   5.505   3.192   4.925
 4692TIP3   OH214081   1.744   3.844   4.785
 4692TIP3    H114082   1.839   3.848   4.794
 4692TIP3    H214083   1.711   3.866   4.872
 4693TIP3   OH214084   2.613   1.522   3.986
 4693TIP3    H114085   2.698   1.529   3.942
 4693TIP3    H214086   2.626   1.453   4.051
 4694TIP3   OH214087   3.479   3.883   4.025
 4694TIP3    H114088   3.479   3.798   3.981
 4694TIP3    H214089   3.551   3.877   4.087
 4695TIP3   OH214090   5.954   2.889   0.922
 4695TIP3    H114091   5.933   2.807   0.877
 4695TIP3    H214092   6.050   2.886   0.932
 4696TIP3   OH214093   1.225   5.899   1.316
 4696TIP3    H114094   1.205   5.925   1.226
 4696TIP3    H214095   1.320   5.909   1.324
 4697TIP3   OH214096   1.822   3.558   1.996
 4697TIP3    H114097   1.810   3.653   1.994
 4697TIP3    H214098   1.913   3.545   1.969
 4698TIP3   OH214099   0.469   3.172   2.583
 4698TIP3    H114100   0.512   3.245   2.628
 4698TIP3    H214101   0.472   3.197   2.490
 4699TIP3   OH214102   0.866   4.095   4.978
 4699TIP3    H114103   0.815   4.043   5.039
 4699TIP3    H214104   0.938   4.038   4.951
 4700TIP3   OH214105   1.857   2.050   0.431
 4700TIP3    H114106   1.842   2.020   0.521
 4700TIP3    H214107   1.918   2.123   0.441
 4701TIP3   OH214108   5.314   1.342   2.696
 4701TIP3    H114109   5.286   1.253   2.675
 4701TIP3    H214110   5.279   1.357   2.784
 4702TIP3   OH214111   2.588   2.294   0.297
 4702TIP3    H114112   2.533   2.282   0.220
 4702TIP3    H214113   2.658   2.230   0.287
 4703TIP3   OH214114   3.690   0.254   1.687
 4703TIP3    H114115   3.686   0.343   1.720
 4703TIP3    H214116   3.606   0.215   1.711
 4704TIP3   OH214117   6.083   1.422   3.150
 4704TIP3    H114118   6.126   1.457   3.072
 4704TIP3    H214119   6.093   1.491   3.216
 4705TIP3   OH214120   3.304   3.431   2.976
 4705TIP3    H114121   3.273   3.400   3.062
 4705TIP3    H214122   3.318   3.350   2.926
 4706TIP3   OH214123   0.687   3.903   1.784
 4706TIP3    H114124   0.660   3.872   1.698
 4706TIP3    H214125   0.719   3.992   1.769
 4707TIP3   OH214126   5.831   5.320   0.059
 4707TIP3    H114127   5.873   5.342   0.142
 4707TIP3    H214128   5.875   5.375  -0.006
 4708TIP3   OH214129   5.197   2.643   2.570
 4708TIP3    H114130   5.212   2.655   2.477
 4708TIP3    H214131   5.159   2.555   2.576
 4709TIP3   OH214132   5.867   4.879   2.252
 4709TIP3    H114133   5.839   4.923   2.171
 4709TIP3    H214134   5.890   4.950   2.311
 4710TIP3   OH214135   0.592   4.085   0.194
 4710TIP3    H114136   0.581   4.007   0.250
 4710TIP3    H214137   0.537   4.068   0.118
 4711TIP3   OH214138   4.254   0.796   0.429
 4711TIP3    H114139   4.247   0.735   0.502
 4711TIP3    H214140   4.237   0.744   0.351
 4712TIP3   OH214141   5.714   0.604   4.504
 4712TIP3    H114142   5.652   0.573   4.570
 4712TIP3    H214143   5.785   0.643   4.554
 4713TIP3   OH214144   3.640   5.390   3.541
 4713TIP3    H114145   3.711   5.360   3.485
 4713TIP3    H214146   3.662   5.481   3.560
 4714TIP3   OH214147   6.153   1.082   2.217
 4714TIP3    H114148   6.061   1.060   2.201
 4714TIP3    H214149   6.183   1.015   2.279
 4715TIP3   OH214150   2.232   0.463   5.017
 4715TIP3    H114151   2.215   0.557   5.019
 4715TIP3    H214152   2.327   0.455   5.005
 4716TIP3   OH214153   6.170   4.354   2.460
 4716TIP3    H114154   6.255   4.397   2.449
 4716TIP3    H214155   6.108   4.426   2.471
 4717TIP3   OH214156   4.262   5.159   2.142
 4717TIP3    H114157   4.289   5.228   2.202
 4717TIP3    H214158   4.301   5.184   2.058
 4718TIP3   OH214159   5.764   5.535   4.052
 4718TIP3    H114160   5.731   5.488   4.128
 4718TIP3    H214161   5.686   5.571   4.010
 4719TIP3   OH214162   0.453   5.879   4.084
 4719TIP3    H114163   0.493   5.933   4.153
 4719TIP3    H214164   0.365   5.915   4.073
 4720TIP3   OH214165   4.574   3.672   4.270
 4720TIP3    H114166   4.561   3.671   4.176
 4720TIP3    H214167   4.627   3.594   4.288
 4721TIP3   OH214168   0.247   5.369   2.806
 4721TIP3    H114169   0.245   5.320   2.724
 4721TIP3    H214170   0.322   5.427   2.798
 4722TIP3   OH214171   6.148   1.399   4.322
 4722TIP3    H114172   6.079   1.338   4.296
 4722TIP3    H214173   6.221   1.379   4.262
 4723TIP3   OH214174   0.792   3.163   0.086
 4723TIP3    H114175   0.829   3.164  -0.002
 4723TIP3    H214176   0.760   3.252   0.100
 4724TIP3   OH214177   6.131   5.206   4.944
 4724TIP3    H114178   6.139   5.143   4.872
 4724TIP3    H214179   6.050   5.180   4.989
 4725TIP3   OH214180   5.715   0.865   0.776
 4725TIP3    H114181   5.673   0.780   0.791
 4725TIP3    H214182   5.685   0.920   0.848
 4726TIP3   OH214183   0.103   1.749   2.463
 4726TIP3    H114184   0.064   1.836   2.455
 4726TIP3    H214185   0.080   1.705   2.381
 4727TIP3   OH214186   6.248   0.386   3.073
 4727TIP3    H114187   6.168   0.433   3.051
 4727TIP3    H214188   6.220   0.318   3.134
 4728TIP3   OH214189   3.443   0.261   3.154
 4728TIP3    H114190   3.466   0.224   3.240
 4728TIP3    H214191   3.347   0.265   3.155
 4729TIP3   OH214192   6.230   4.794   4.376
 4729TIP3    H114193   6.224   4.743   4.457
 4729TIP3    H214194   6.293   4.863   4.397
 4730TIP3   OH214195   3.126   1.467   4.027
 4730TIP3    H114196   3.219   1.450   4.040
 4730TIP3    H214197   3.097   1.506   4.110
 4731TIP3   OH214198   4.125   2.686   1.327
 4731TIP3    H114199   4.037   2.711   1.299
 4731TIP3    H214200   4.115   2.600   1.366
 4732TIP3   OH214201   1.133   5.881   2.156
 4732TIP3    H114202   1.211   5.851   2.202
 4732TIP3    H214203   1.065   5.818   2.179
 4733TIP3   OH214204   4.562   3.246   2.874
 4733TIP3    H114205   4.485   3.195   2.847
 4733TIP3    H214206   4.608   3.265   2.793
 4734TIP3   OH214207   2.086   3.076   0.488
 4734TIP3    H114208   2.021   3.147   0.493
 4734TIP3    H214209   2.125   3.085   0.402
 4735TIP3   OH214210   1.510   0.988   5.204
 4735TIP3    H114211   1.544   1.077   5.212
 4735TIP3    H214212   1.472   0.985   5.116
 4736TIP3   OH214213   6.090   1.027   1.744
 4736TIP3    H114214   6.096   0.943   1.790
 4736TIP3    H214215   5.998   1.034   1.718
 4737TIP3   OH214216   1.718   2.868   3.212
 4737TIP3    H114217   1.719   2.779   3.247
 4737TIP3    H214218   1.726   2.857   3.117
 4738TIP3   OH214219   5.338   2.419   1.821
 4738TIP3    H114220   5.361   2.496   1.769
 4738TIP3    H214221   5.347   2.346   1.760
 4739TIP3   OH214222   5.114   3.141   1.533
 4739TIP3    H114223   5.192   3.104   1.491
 4739TIP3    H214224   5.128   3.236   1.530
 4740TIP3   OH214225   2.144   3.752   2.784
 4740TIP3    H114226   2.239   3.741   2.781
 4740TIP3    H214227   2.118   3.707   2.865
 4741TIP3   OH214228   0.214   5.460   4.369
 4741TIP3    H114229   0.148   5.468   4.438
 4741TIP3    H214230   0.174   5.403   4.304
 4742TIP3   OH214231   0.771   4.521   5.013
 4742TIP3    H114232   0.697   4.473   5.049
 4742TIP3    H214233   0.743   4.612   5.010
 4743TIP3   OH214234   5.097   1.814   4.160
 4743TIP3    H114235   5.172   1.763   4.129
 4743TIP3    H214236   5.026   1.791   4.099
 4744TIP3   OH214237   3.124   4.601   3.600
 4744TIP3    H114238   3.187   4.579   3.531
 4744TIP3    H214239   3.048   4.546   3.581
 4745TIP3   OH214240   0.953   1.101   2.798
 4745TIP3    H114241   0.898   1.178   2.783
 4745TIP3    H214242   0.989   1.081   2.712
 4746TIP3   OH214243   3.736   0.339   3.226
 4746TIP3    H114244   3.698   0.282   3.159
 4746TIP3    H214245   3.825   0.356   3.196
 4747TIP3   OH214246   0.360   2.925   3.668
 4747TIP3    H114247   0.275   2.959   3.697
 4747TIP3    H214248   0.406   2.902   3.749
 4748TIP3   OH214249   5.369   3.884   1.730
 4748TIP3    H114250   5.326   3.961   1.767
 4748TIP3    H214251   5.300   3.837   1.684
 4749TIP3   OH214252   2.303   1.871   2.285
 4749TIP3    H114253   2.322   1.799   2.225
 4749TIP3    H214254   2.376   1.871   2.346
 4750TIP3   OH214255   3.651   2.053   3.381
 4750TIP3    H114256   3.623   2.089   3.465
 4750TIP3    H214257   3.577   2.069   3.322
 4751TIP3   OH214258   0.633   1.330   2.521
 4751TIP3    H114259   0.681   1.394   2.469
 4751TIP3    H214260   0.667   1.245   2.492
 4752TIP3   OH214261   2.732   3.032   0.885
 4752TIP3    H114262   2.641   3.004   0.872
 4752TIP3    H214263   2.774   2.957   0.926
 4753TIP3   OH214264   3.308   0.485   1.411
 4753TIP3    H114265   3.244   0.446   1.470
 4753TIP3    H214266   3.351   0.410   1.370
 4754TIP3   OH214267   5.679   1.116   4.821
 4754TIP3    H114268   5.587   1.109   4.795
 4754TIP3    H214269   5.698   1.210   4.817
 4755TIP3   OH214270   0.072   3.636   3.804
 4755TIP3    H114271  -0.004   3.578   3.803
 4755TIP3    H214272   0.146   3.577   3.821
 4756TIP3   OH214273   4.224   3.971   2.098
 4756TIP3    H114274   4.132   3.992   2.111
 4756TIP3    H214275   4.223   3.900   2.035
 4757TIP3   OH214276   1.336   4.520   4.876
 4757TIP3    H114277   1.366   4.607   4.849
 4757TIP3    H214278   1.280   4.536   4.952
 4758TIP3   OH214279   1.225   2.483   0.076
 4758TIP3    H114280   1.238   2.444   0.162
 4758TIP3    H214281   1.313   2.493   0.040
 4759TIP3   OH214282   3.977   4.477   1.475
 4759TIP3    H114283   3.988   4.569   1.498
 4759TIP3    H214284   3.912   4.476   1.405
 4760TIP3   OH214285   0.947   1.333   4.454
 4760TIP3    H114286   0.934   1.302   4.544
 4760TIP3    H214287   0.934   1.255   4.400
 4761TIP3   OH214288   4.832   0.094   3.303
 4761TIP3    H114289   4.797   0.139   3.380
 4761TIP3    H214290   4.814   0.002   3.319
 4762TIP3   OH214291   3.364   0.307   1.189
 4762TIP3    H114292   3.339   0.215   1.192
 4762TIP3    H214293   3.289   0.351   1.146
 4763TIP3   OH214294   2.745   0.799   4.233
 4763TIP3    H114295   2.721   0.887   4.262
 4763TIP3    H214296   2.785   0.811   4.147
 4764TIP3   OH214297   1.141   3.958   2.034
 4764TIP3    H114298   1.190   3.885   2.072
 4764TIP3    H214299   1.160   3.953   1.940
 4765TIP3   OH214300   2.635   3.264   3.860
 4765TIP3    H114301   2.605   3.346   3.820
 4765TIP3    H214302   2.555   3.215   3.877
 4766TIP3   OH214303   1.214  -0.018   4.892
 4766TIP3    H114304   1.292  -0.072   4.879
 4766TIP3    H214305   1.248   0.071   4.904
 4767TIP3   OH214306   4.023   5.641   0.554
 4767TIP3    H114307   4.108   5.675   0.525
 4767TIP3    H214308   3.997   5.579   0.486
 4768TIP3   OH214309   2.270   1.776   0.552
 4768TIP3    H114310   2.177   1.768   0.528
 4768TIP3    H214311   2.290   1.696   0.599
 4769TIP3   OH214312   0.549   3.651   0.545
 4769TIP3    H114313   0.473   3.643   0.603
 4769TIP3    H214314   0.621   3.676   0.602
 4770TIP3   OH214315   2.958   4.957   4.162
 4770TIP3    H114316   2.976   4.878   4.111
 4770TIP3    H214317   2.897   5.008   4.107
 4771TIP3   OH214318   1.237   3.072   2.725
 4771TIP3    H114319   1.226   3.068   2.630
 4771TIP3    H214320   1.280   2.989   2.747
 4772TIP3   OH214321   1.951   3.406   0.614
 4772TIP3    H114322   2.034   3.430   0.655
 4772TIP3    H214323   1.924   3.326   0.660
 4773TIP3   OH214324   1.309   1.743   4.131
 4773TIP3    H114325   1.322   1.791   4.213
 4773TIP3    H214326   1.239   1.790   4.086
 4774TIP3   OH214327   1.263   0.960   3.273
 4774TIP3    H114328   1.190   1.008   3.313
 4774TIP3    H214329   1.239   0.955   3.180
 4775TIP3   OH214330   6.230   3.576   3.538
 4775TIP3    H114331   6.175   3.530   3.602
 4775TIP3    H214332   6.267   3.506   3.485
 4776TIP3   OH214333   6.344   5.922   4.864
 4776TIP3    H114334   6.435   5.893   4.859
 4776TIP3    H214335   6.346   5.996   4.925
 4777TIP3   OH214336   1.414   0.708   3.363
 4777TIP3    H114337   1.467   0.677   3.437
 4777TIP3    H214338   1.345   0.760   3.404
 4778TIP3   OH214339   4.655   3.987   3.237
 4778TIP3    H114340   4.727   4.009   3.177
 4778TIP3    H214341   4.658   3.892   3.243
 4779TIP3   OH214342   5.884   1.204   1.709
 4779TIP3    H114343   5.972   1.239   1.695
 4779TIP3    H214344   5.837   1.274   1.754
 4780TIP3   OH214345   4.320   2.395   2.299
 4780TIP3    H114346   4.304   2.437   2.384
 4780TIP3    H214347   4.357   2.310   2.322
 4781TIP3   OH214348   3.678   2.365   0.339
 4781TIP3    H114349   3.676   2.334   0.430
 4781TIP3    H214350   3.721   2.294   0.291
 4782TIP3   OH214351   2.109   0.901   0.354
 4782TIP3    H114352   2.195   0.866   0.377
 4782TIP3    H214353   2.123   0.945   0.271
 4783TIP3   OH214354   5.572   0.121   1.295
 4783TIP3    H114355   5.591   0.180   1.222
 4783TIP3    H214356   5.479   0.135   1.313
 4784TIP3   OH214357   0.936   5.748   2.366
 4784TIP3    H114358   0.869   5.785   2.309
 4784TIP3    H214359   0.922   5.790   2.450
 4785TIP3   OH214360   0.312   0.187   2.943
 4785TIP3    H114361   0.341   0.277   2.934
 4785TIP3    H214362   0.349   0.158   3.026
 4786TIP3   OH214363   0.966   2.916   1.872
 4786TIP3    H114364   1.039   2.976   1.886
 4786TIP3    H214365   0.992   2.835   1.917
 4787TIP3   OH214366   1.037   5.777   0.194
 4787TIP3    H114367   1.077   5.701   0.237
 4787TIP3    H214368   0.975   5.739   0.131
 4788TIP3   OH214369   4.054   2.445   2.342
 4788TIP3    H114370   4.122   2.389   2.305
 4788TIP3    H214371   3.996   2.384   2.389
 4789TIP3   OH214372   3.215   0.405   2.154
 4789TIP3    H114373   3.227   0.335   2.217
 4789TIP3    H214374   3.135   0.450   2.183
 4790TIP3   OH214375   6.360   0.760   5.001
 4790TIP3    H114376   6.281   0.798   4.962
 4790TIP3    H214377   6.328   0.703   5.070
 4791TIP3   OH214378   0.571   3.734   1.593
 4791TIP3    H114379   0.664   3.711   1.597
 4791TIP3    H214380   0.532   3.666   1.538
 4792TIP3   OH214381   4.001   3.317   3.386
 4792TIP3    H114382   4.057   3.263   3.441
 4792TIP3    H214383   3.968   3.256   3.319
 4793TIP3   OH214384   0.199   1.357   4.723
 4793TIP3    H114385   0.122   1.398   4.683
 4793TIP3    H214386   0.264   1.427   4.729
 4794TIP3   OH214387   1.029   4.285   5.084
 4794TIP3    H114388   0.965   4.214   5.072
 4794TIP3    H214389   0.977   4.365   5.079
 4795TIP3   OH214390   4.957   3.716   3.412
 4795TIP3    H114391   4.863   3.701   3.414
 4795TIP3    H214392   4.967   3.809   3.430
 4796TIP3   OH214393   2.673   3.461   3.013
 4796TIP3    H114394   2.747   3.423   2.965
 4796TIP3    H214395   2.706   3.473   3.102
 4797TIP3   OH214396   6.021   5.856   4.383
 4797TIP3    H114397   5.928   5.834   4.370
 4797TIP3    H214398   6.066   5.772   4.375
 4798TIP3   OH214399   3.788   4.647   4.120
 4798TIP3    H114400   3.838   4.593   4.059
 4798TIP3    H214401   3.796   4.736   4.085
 4799TIP3   OH214402   5.765   3.008   4.207
 4799TIP3    H114403   5.741   2.916   4.199
 4799TIP3    H214404   5.756   3.043   4.118
 4800TIP3   OH214405   0.379   5.196   3.972
 4800TIP3    H114406   0.424   5.272   3.934
 4800TIP3    H214407   0.409   5.122   3.920
 4801TIP3   OH214408   4.705   5.703   1.511
 4801TIP3    H114409   4.612   5.707   1.485
 4801TIP3    H214410   4.737   5.793   1.498
 4802TIP3   OH214411   0.976   2.455   2.589
 4802TIP3    H114412   0.899   2.487   2.636
 4802TIP3    H214413   0.964   2.360   2.585
 4803TIP3   OH214414   3.650   3.188   0.359
 4803TIP3    H114415   3.637   3.223   0.448
 4803TIP3    H214416   3.573   3.133   0.344
 4804TIP3   OH214417   1.454   5.107   1.433
 4804TIP3    H114418   1.377   5.135   1.384
 4804TIP3    H214419   1.465   5.174   1.501
 4805TIP3   OH214420   2.900   2.479   1.018
 4805TIP3    H114421   2.902   2.410   1.084
 4805TIP3    H214422   2.864   2.437   0.940
 4806TIP3   OH214423   4.723   4.590   3.733
 4806TIP3    H114424   4.763   4.505   3.754
 4806TIP3    H214425   4.675   4.613   3.812
 4807TIP3   OH214426   3.448   3.281   4.858
 4807TIP3    H114427   3.429   3.206   4.914
 4807TIP3    H214428   3.387   3.349   4.886
 4808TIP3   OH214429   2.717   5.174   1.714
 4808TIP3    H114430   2.777   5.216   1.776
 4808TIP3    H214431   2.752   5.197   1.628
 4809TIP3   OH214432   5.871   4.000   0.409
 4809TIP3    H114433   5.807   3.942   0.449
 4809TIP3    H214434   5.882   3.966   0.320
 4810TIP3   OH214435   4.722   4.931   1.731
 4810TIP3    H114436   4.770   4.918   1.813
 4810TIP3    H214437   4.739   4.852   1.680
 4811TIP3   OH214438   2.816   4.496   2.446
 4811TIP3    H114439   2.810   4.578   2.396
 4811TIP3    H214440   2.909   4.475   2.448
 4812TIP3   OH214441   3.330   1.346   1.628
 4812TIP3    H114442   3.373   1.395   1.558
 4812TIP3    H214443   3.275   1.282   1.583
 4813TIP3   OH214444   4.754   3.613   0.976
 4813TIP3    H114445   4.691   3.606   0.904
 4813TIP3    H214446   4.768   3.707   0.987
 4814TIP3   OH214447   5.405   2.632   1.668
 4814TIP3    H114448   5.429   2.669   1.584
 4814TIP3    H214449   5.313   2.656   1.679
 4815TIP3   OH214450   2.903   0.990   1.129
 4815TIP3    H114451   2.861   1.076   1.138
 4815TIP3    H214452   2.833   0.927   1.149
 4816TIP3   OH214453   1.985   3.062   4.784
 4816TIP3    H114454   1.932   3.033   4.858
 4816TIP3    H214455   1.927   3.052   4.708
 4817TIP3   OH214456   0.876   5.125   3.325
 4817TIP3    H114457   0.818   5.189   3.283
 4817TIP3    H214458   0.838   5.111   3.411
 4818TIP3   OH214459   0.914   1.324   1.752
 4818TIP3    H114460   0.967   1.354   1.678
 4818TIP3    H214461   0.978   1.302   1.820
 4819TIP3   OH214462   2.850   2.266   1.656
 4819TIP3    H114463   2.866   2.172   1.665
 4819TIP3    H214464   2.909   2.293   1.585
 4820TIP3   OH214465   0.923   3.980   2.230
 4820TIP3    H114466   0.918   3.885   2.225
 4820TIP3    H214467   1.012   4.000   2.200
 4821TIP3   OH214468   2.312   4.267   0.548
 4821TIP3    H114469   2.325   4.359   0.574
 4821TIP3    H214470   2.242   4.236   0.606
 4822TIP3   OH214471   6.114   3.161   1.514
 4822TIP3    H114472   6.050   3.230   1.497
 4822TIP3    H214473   6.197   3.208   1.523
 4823TIP3   OH214474   5.455   4.936   1.811
 4823TIP3    H114475   5.540   4.918   1.771
 4823TIP3    H214476   5.416   4.850   1.824
 4824TIP3   OH214477   2.924   3.408   3.802
 4824TIP3    H114478   2.954   3.359   3.725
 4824TIP3    H214479   2.953   3.357   3.877
 4825TIP3   OH214480   0.054   5.014   0.734
 4825TIP3    H114481  -0.008   5.047   0.669
 4825TIP3    H214482   0.132   5.069   0.722
 4826TIP3   OH214483   4.087   5.210   0.210
 4826TIP3    H114484   4.104   5.123   0.248
 4826TIP3    H214485   3.993   5.211   0.193
 4827TIP3   OH214486   0.765   5.260   3.710
 4827TIP3    H114487   0.673   5.288   3.707
 4827TIP3    H214488   0.767   5.178   3.662
 4828TIP3   OH214489   0.209   0.794   0.106
 4828TIP3    H114490   0.260   0.748   0.038
 4828TIP3    H214491   0.275   0.842   0.156
 4829TIP3   OH214492   1.866   1.715   1.287
 4829TIP3    H114493   1.810   1.751   1.355
 4829TIP3    H214494   1.911   1.791   1.250
 4830TIP3   OH214495   4.538   5.464   3.838
 4830TIP3    H114496   4.562   5.371   3.843
 4830TIP3    H214497   4.448   5.467   3.873
 4831TIP3   OH214498   1.853   3.650   3.420
 4831TIP3    H114499   1.858   3.710   3.346
 4831TIP3    H214500   1.865   3.706   3.497
 4832TIP3   OH214501   5.364   3.640   1.506
 4832TIP3    H114502   5.307   3.716   1.518
 4832TIP3    H214503   5.417   3.636   1.585
 4833TIP3   OH214504   0.679   1.537   2.349
 4833TIP3    H114505   0.741   1.511   2.281
 4833TIP3    H214506   0.635   1.614   2.313
 4834TIP3   OH214507   2.430   2.127   3.420
 4834TIP3    H114508   2.379   2.107   3.498
 4834TIP3    H214509   2.467   2.214   3.438
 4835TIP3   OH214510   3.816   2.103   2.369
 4835TIP3    H114511   3.816   2.115   2.464
 4835TIP3    H214512   3.781   2.015   2.356
 4836TIP3   OH214513   2.274   1.161   2.033
 4836TIP3    H114514   2.315   1.084   1.994
 4836TIP3    H214515   2.292   1.154   2.126
 4837TIP3   OH214516   4.374   4.117  -0.010
 4837TIP3    H114517   4.304   4.069   0.033
 4837TIP3    H214518   4.447   4.055  -0.015
 4838TIP3   OH214519   4.484   2.819   3.952
 4838TIP3    H114520   4.445   2.851   4.033
 4838TIP3    H214521   4.453   2.729   3.944
 4839TIP3   OH214522   5.421   3.686   1.209
 4839TIP3    H114523   5.399   3.686   1.302
 4839TIP3    H214524   5.359   3.626   1.169
 4840TIP3   OH214525   4.241   2.919   4.426
 4840TIP3    H114526   4.149   2.895   4.435
 4840TIP3    H214527   4.249   2.949   4.335
 4841TIP3   OH214528   4.434   3.927   0.310
 4841TIP3    H114529   4.523   3.956   0.291
 4841TIP3    H214530   4.399   3.994   0.368
 4842TIP3   OH214531   5.283   4.668   4.140
 4842TIP3    H114532   5.378   4.666   4.137
 4842TIP3    H214533   5.257   4.725   4.067
 4843TIP3   OH214534   0.083   0.572   0.968
 4843TIP3    H114535   0.122   0.590   1.053
 4843TIP3    H214536   0.109   0.482   0.949
 4844TIP3   OH214537   2.344   5.472   0.819
 4844TIP3    H114538   2.294   5.391   0.812
 4844TIP3    H214539   2.296   5.535   0.766
 4845TIP3   OH214540   3.833   0.637   0.475
 4845TIP3    H114541   3.845   0.558   0.421
 4845TIP3    H214542   3.845   0.606   0.564
 4846TIP3   OH214543   6.309   0.060   4.532
 4846TIP3    H114544   6.368   0.117   4.483
 4846TIP3    H214545   6.311  -0.023   4.485
 4847TIP3   OH214546   3.307   4.558   0.056
 4847TIP3    H114547   3.334   4.596   0.140
 4847TIP3    H214548   3.216   4.587   0.046
 4848TIP3   OH214549   2.539   5.023   4.307
 4848TIP3    H114550   2.627   5.049   4.334
 4848TIP3    H214551   2.517   4.950   4.364
 4849TIP3   OH214552   0.053   5.219   2.960
 4849TIP3    H114553   0.027   5.209   2.868
 4849TIP3    H214554   0.144   5.249   2.957
 4850TIP3   OH214555   3.861   0.955   3.660
 4850TIP3    H114556   3.784   0.943   3.605
 4850TIP3    H214557   3.912   1.023   3.615
 4851TIP3   OH214558   3.019   3.800   2.338
 4851TIP3    H114559   2.981   3.872   2.388
 4851TIP3    H214560   2.971   3.723   2.368
 4852TIP3   OH214561   4.106   2.943   1.611
 4852TIP3    H114562   4.029   2.941   1.668
 4852TIP3    H214563   4.070   2.958   1.523
 4853TIP3   OH214564   3.849   2.674   4.596
 4853TIP3    H114565   3.780   2.613   4.569
 4853TIP3    H214566   3.839   2.680   4.691
 4854TIP3   OH214567   2.928   4.797   2.655
 4854TIP3    H114568   2.939   4.798   2.560
 4854TIP3    H214569   2.898   4.709   2.675
 4855TIP3   OH214570   3.549   3.912   2.683
 4855TIP3    H114571   3.528   3.970   2.757
 4855TIP3    H214572   3.632   3.945   2.650
 4856TIP3   OH214573   3.838   5.489   4.289
 4856TIP3    H114574   3.899   5.477   4.217
 4856TIP3    H214575   3.818   5.400   4.320
 4857TIP3   OH214576   6.168   1.707   2.392
 4857TIP3    H114577   6.196   1.653   2.466
 4857TIP3    H214578   6.076   1.685   2.380
 4858TIP3   OH214579   3.449   2.764   3.314
 4858TIP3    H114580   3.510   2.809   3.373
 4858TIP3    H214581   3.399   2.706   3.371
 4859TIP3   OH214582   4.651   0.960   4.705
 4859TIP3    H114583   4.716   0.990   4.769
 4859TIP3    H214584   4.682   0.873   4.679
 4860TIP3   OH214585   5.384   3.821   2.323
 4860TIP3    H114586   5.426   3.766   2.389
 4860TIP3    H214587   5.456   3.865   2.278
 4861TIP3   OH214588   4.956   2.086   0.880
 4861TIP3    H114589   4.963   2.073   0.786
 4861TIP3    H214590   4.977   2.001   0.918
 4862TIP3   OH214591   4.490   2.742   1.105
 4862TIP3    H114592   4.510   2.835   1.102
 4862TIP3    H214593   4.418   2.731   1.043
 4863TIP3   OH214594   5.667   0.057   1.798
 4863TIP3    H114595   5.667   0.143   1.840
 4863TIP3    H214596   5.633  -0.003   1.865
 4864TIP3   OH214597   5.837   2.308   0.247
 4864TIP3    H114598   5.925   2.277   0.271
 4864TIP3    H214599   5.791   2.229   0.219
 4865TIP3   OH214600   0.805   1.535   0.513
 4865TIP3    H114601   0.868   1.606   0.501
 4865TIP3    H214602   0.732   1.575   0.560
 4866TIP3   OH214603   5.890   3.947   3.065
 4866TIP3    H114604   5.823   3.917   3.003
 4866TIP3    H214605   5.917   4.033   3.033
 4867TIP3   OH214606   0.729   3.905  -0.046
 4867TIP3    H114607   0.709   3.976   0.015
 4867TIP3    H214608   0.814   3.872  -0.019
 4868TIP3   OH214609   5.044   0.731   1.385
 4868TIP3    H114610   5.086   0.665   1.440
 4868TIP3    H214611   4.999   0.680   1.317
 4869TIP3   OH214612   4.737   5.316   4.115
 4869TIP3    H114613   4.799   5.351   4.050
 4869TIP3    H214614   4.702   5.237   4.074
 4870TIP3   OH214615   6.277   3.403   0.249
 4870TIP3    H114616   6.227   3.427   0.171
 4870TIP3    H214617   6.347   3.346   0.215
 4871TIP3   OH214618   0.286   3.912   1.415
 4871TIP3    H114619   0.303   3.821   1.439
 4871TIP3    H214620   0.340   3.963   1.475
 4872TIP3   OH214621   2.176   1.382   2.900
 4872TIP3    H114622   2.117   1.342   2.964
 4872TIP3    H214623   2.148   1.473   2.895
 4873TIP3   OH214624   1.396   2.681   3.266
 4873TIP3    H114625   1.375   2.647   3.179
 4873TIP3    H214626   1.336   2.636   3.325
 4874TIP3   OH214627   0.382   5.881   3.158
 4874TIP3    H114628   0.437   5.935   3.101
 4874TIP3    H214629   0.309   5.855   3.103
 4875TIP3   OH214630   1.458   0.161   3.292
 4875TIP3    H114631   1.480   0.240   3.342
 4875TIP3    H214632   1.540   0.112   3.289
 4876TIP3   OH214633   1.731   1.886   3.459
 4876TIP3    H114634   1.748   1.792   3.467
 4876TIP3    H214635   1.760   1.924   3.542
 4877TIP3   OH214636   1.307   3.829   4.667
 4877TIP3    H114637   1.274   3.918   4.685
 4877TIP3    H214638   1.376   3.842   4.603
 4878TIP3   OH214639   6.290   4.299   3.103
 4878TIP3    H114640   6.274   4.393   3.093
 4878TIP3    H214641   6.223   4.270   3.165
 4879TIP3   OH214642   4.723   0.303   1.076
 4879TIP3    H114643   4.650   0.342   1.123
 4879TIP3    H214644   4.727   0.213   1.108
 4880TIP3   OH214645   4.993   3.957   1.875
 4880TIP3    H114646   5.011   3.875   1.922
 4880TIP3    H214647   4.904   3.946   1.841
 4881TIP3   OH214648   5.102   5.798   2.253
 4881TIP3    H114649   5.120   5.779   2.161
 4881TIP3    H214650   5.166   5.865   2.276
 4882TIP3   OH214651   1.109   4.227   2.075
 4882TIP3    H114652   1.189   4.260   2.116
 4882TIP3    H214653   1.122   4.132   2.072
 4883TIP3   OH214654   0.408   0.543   0.234
 4883TIP3    H114655   0.499   0.572   0.226
 4883TIP3    H214656   0.363   0.586   0.162
 4884TIP3   OH214657   3.899   1.047   2.570
 4884TIP3    H114658   3.918   1.101   2.646
 4884TIP3    H214659   3.981   1.045   2.521
 4885TIP3   OH214660   5.835   1.017   2.193
 4885TIP3    H114661   5.814   1.085   2.257
 4885TIP3    H214662   5.866   0.943   2.246
 4886TIP3   OH214663   5.843   1.101   2.650
 4886TIP3    H114664   5.929   1.068   2.677
 4886TIP3    H214665   5.787   1.089   2.728
 4887TIP3   OH214666   3.423   1.243   2.027
 4887TIP3    H114667   3.408   1.331   1.993
 4887TIP3    H214668   3.481   1.255   2.102
 4888TIP3   OH214669   3.928   3.148   3.171
 4888TIP3    H114670   3.874   3.070   3.158
 4888TIP3    H214671   4.010   3.127   3.126
 4889TIP3   OH214672   2.655   3.436   4.794
 4889TIP3    H114673   2.567   3.407   4.769
 4889TIP3    H214674   2.712   3.399   4.726
 4890TIP3   OH214675   6.161   3.036   2.729
 4890TIP3    H114676   6.169   3.131   2.716
 4890TIP3    H214677   6.165   3.000   2.640
 4891TIP3   OH214678   1.072   2.555   5.022
 4891TIP3    H114679   1.144   2.619   5.025
 4891TIP3    H214680   1.014   2.589   4.954
 4892TIP3   OH214681   2.408   4.384   1.536
 4892TIP3    H114682   2.373   4.471   1.514
 4892TIP3    H214683   2.499   4.400   1.561
 4893TIP3   OH214684   6.341   0.328   0.692
 4893TIP3    H114685   6.317   0.410   0.648
 4893TIP3    H214686   6.308   0.338   0.781
 4894TIP3   OH214687   4.151   0.785   3.959
 4894TIP3    H114688   4.161   0.866   4.010
 4894TIP3    H214689   4.239   0.767   3.925
 4895TIP3   OH214690   3.692   3.423   1.064
 4895TIP3    H114691   3.626   3.353   1.059
 4895TIP3    H214692   3.756   3.400   0.996
 4896TIP3   OH214693   1.511   3.342   2.491
 4896TIP3    H114694   1.436   3.342   2.551
 4896TIP3    H214695   1.549   3.254   2.501
 4897TIP3   OH214696   4.920   2.875   4.972
 4897TIP3    H114697   4.989   2.871   4.906
 4897TIP3    H214698   4.853   2.932   4.934
 4898TIP3   OH214699   3.108   3.239   2.153
 4898TIP3    H114700   3.039   3.176   2.135
 4898TIP3    H214701   3.187   3.199   2.116
 4899TIP3   OH214702   4.362   3.063   2.766
 4899TIP3    H114703   4.272   3.098   2.768
 4899TIP3    H214704   4.351   2.969   2.783
 4900TIP3   OH214705   2.905   5.753   3.681
 4900TIP3    H114706   2.933   5.693   3.613
 4900TIP3    H214707   2.951   5.835   3.662
 4901TIP3   OH214708   3.701   1.897   3.759
 4901TIP3    H114709   3.747   1.874   3.678
 4901TIP3    H214710   3.704   1.993   3.761
 4902TIP3   OH214711   3.746   3.524   0.349
 4902TIP3    H114712   3.771   3.502   0.439
 4902TIP3    H214713   3.654   3.498   0.343
 4903TIP3   OH214714   1.396   0.656   3.969
 4903TIP3    H114715   1.336   0.729   3.957
 4903TIP3    H214716   1.481   0.691   3.943
 4904TIP3   OH214717   6.017   2.976   4.539
 4904TIP3    H114718   5.977   2.889   4.550
 4904TIP3    H214719   6.051   2.975   4.450
 4905TIP3   OH214720   6.242   2.182   3.731
 4905TIP3    H114721   6.300   2.182   3.807
 4905TIP3    H214722   6.160   2.219   3.764
 4906TIP3   OH214723   1.739   2.629   4.040
 4906TIP3    H114724   1.785   2.693   4.094
 4906TIP3    H214725   1.781   2.546   4.061
 4907TIP3   OH214726   3.387   1.439   2.777
 4907TIP3    H114727   3.315   1.446   2.840
 4907TIP3    H214728   3.362   1.499   2.706
 4908TIP3   OH214729   3.851   2.586   4.858
 4908TIP3    H114730   3.868   2.493   4.871
 4908TIP3    H214731   3.861   2.625   4.944
 4909TIP3   OH214732   5.088   5.002  -0.001
 4909TIP3    H114733   5.064   5.029   0.088
 4909TIP3    H214734   5.102   4.907   0.006
 4910TIP3   OH214735   2.383   0.478   0.387
 4910TIP3    H114736   2.378   0.465   0.292
 4910TIP3    H214737   2.304   0.527   0.408
 4911TIP3   OH214738   3.369   3.854   0.135
 4911TIP3    H114739   3.432   3.921   0.108
 4911TIP3    H214740   3.415   3.803   0.201
 4912TIP3   OH214741   1.579   5.768   4.037
 4912TIP3    H114742   1.540   5.841   3.989
 4912TIP3    H214743   1.579   5.798   4.129
 4913TIP3   OH214744   1.964   5.980   4.865
 4913TIP3    H114745   1.912   5.903   4.841
 4913TIP3    H214746   1.956   5.985   4.961
 4914TIP3   OH214747   2.634   1.039   3.486
 4914TIP3    H114748   2.600   1.091   3.414
 4914TIP3    H214749   2.579   1.063   3.561
 4915TIP3   OH214750   0.210   2.714   0.439
 4915TIP3    H114751   0.269   2.755   0.376
 4915TIP3    H214752   0.216   2.621   0.420
 4916TIP3   OH214753   0.081   0.136   2.803
 4916TIP3    H114754   0.164   0.156   2.847
 4916TIP3    H214755   0.084   0.189   2.723
 4917TIP3   OH214756   4.611   2.796   3.366
 4917TIP3    H114757   4.655   2.881   3.375
 4917TIP3    H214758   4.569   2.781   3.451
 4918TIP3   OH214759   2.757   0.028   2.044
 4918TIP3    H114760   2.779   0.092   1.976
 4918TIP3    H214761   2.664   0.012   2.032
 4919TIP3   OH214762   4.436   2.041   0.461
 4919TIP3    H114763   4.469   2.100   0.529
 4919TIP3    H214764   4.512   1.990   0.434
 4920TIP3   OH214765   5.364   2.460   2.960
 4920TIP3    H114766   5.378   2.553   2.979
 4920TIP3    H214767   5.277   2.456   2.922
 4921TIP3   OH214768   1.447   2.391   0.605
 4921TIP3    H114769   1.512   2.364   0.670
 4921TIP3    H214770   1.464   2.335   0.529
 4922TIP3   OH214771   5.291   4.324   1.054
 4922TIP3    H114772   5.381   4.293   1.066
 4922TIP3    H214773   5.267   4.359   1.140
 4923TIP3   OH214774   0.504   2.013   0.389
 4923TIP3    H114775   0.574   2.011   0.325
 4923TIP3    H214776   0.463   1.926   0.382
 4924TIP3   OH214777   3.191   1.130   2.117
 4924TIP3    H114778   3.244   1.051   2.127
 4924TIP3    H214779   3.251   1.197   2.085
 4925TIP3   OH214780   4.274   2.824   1.821
 4925TIP3    H114781   4.310   2.884   1.755
 4925TIP3    H214782   4.222   2.761   1.771
 4926TIP3   OH214783   0.692   5.692   1.939
 4926TIP3    H114784   0.702   5.777   1.897
 4926TIP3    H214785   0.597   5.676   1.939
 4927TIP3   OH214786   1.205   4.755   0.344
 4927TIP3    H114787   1.220   4.793   0.258
 4927TIP3    H214788   1.292   4.739   0.380
 4928TIP3   OH214789   5.216   3.464   5.103
 4928TIP3    H114790   5.233   3.385   5.155
 4928TIP3    H214791   5.210   3.534   5.168
 4929TIP3   OH214792   4.979   1.836   1.688
 4929TIP3    H114793   4.968   1.889   1.609
 4929TIP3    H214794   5.023   1.894   1.750
 4930TIP3   OH214795   0.992   1.763   0.802
 4930TIP3    H114796   1.051   1.700   0.759
 4930TIP3    H214797   1.017   1.759   0.895
 4931TIP3   OH214798   0.257   1.763   1.134
 4931TIP3    H114799   0.271   1.827   1.203
 4931TIP3    H214800   0.197   1.699   1.173
 4932TIP3   OH214801   4.033   3.100   2.786
 4932TIP3    H114802   4.000   3.170   2.843
 4932TIP3    H214803   4.043   3.142   2.700
 4933TIP3   OH214804   5.427   4.173   3.864
 4933TIP3    H114805   5.433   4.163   3.769
 4933TIP3    H214806   5.432   4.084   3.899
 4934TIP3   OH214807   5.415   2.282   3.150
 4934TIP3    H114808   5.412   2.200   3.099
 4934TIP3    H214809   5.407   2.351   3.084
 4935TIP3   OH214810   3.095   0.421   1.577
 4935TIP3    H114811   3.139   0.415   1.661
 4935TIP3    H214812   3.049   0.506   1.580
 4936TIP3   OH214813   5.321   0.115   3.915
 4936TIP3    H114814   5.393   0.168   3.880
 4936TIP3    H214815   5.245   0.173   3.912
 4937TIP3   OH214816   0.363   3.268   4.074
 4937TIP3    H114817   0.341   3.176   4.087
 4937TIP3    H214818   0.457   3.269   4.060
 4938TIP3   OH214819   1.534   1.669   1.403
 4938TIP3    H114820   1.498   1.753   1.430
 4938TIP3    H214821   1.558   1.626   1.485
 4939TIP3   OH214822   6.241   2.716   1.361
 4939TIP3    H114823   6.206   2.771   1.431
 4939TIP3    H214824   6.187   2.738   1.284
 4940TIP3   OH214825   4.544   0.440   1.657
 4940TIP3    H114826   4.527   0.490   1.576
 4940TIP3    H214827   4.520   0.501   1.727
 4941TIP3   OH214828   5.391   1.480   3.286
 4941TIP3    H114829   5.445   1.551   3.253
 4941TIP3    H214830   5.302   1.516   3.286
 4942TIP3   OH214831   5.623   4.027   4.771
 4942TIP3    H114832   5.590   4.065   4.852
 4942TIP3    H214833   5.716   4.010   4.789
 4943TIP3   OH214834   5.089   2.842   1.464
 4943TIP3    H114835   5.083   2.912   1.529
 4943TIP3    H214836   5.016   2.784   1.484
 4944TIP3   OH214837   0.623   2.678   1.555
 4944TIP3    H114838   0.710   2.701   1.587
 4944TIP3    H214839   0.563   2.719   1.618
 4945TIP3   OH214840   1.756   0.358   4.465
 4945TIP3    H114841   1.667   0.393   4.456
 4945TIP3    H214842   1.770   0.308   4.384
 4946TIP3   OH214843   0.640   0.006   4.593
 4946TIP3    H114844   0.549  -0.023   4.587
 4946TIP3    H214845   0.666   0.021   4.502
 4947TIP3   OH214846   1.713   2.421   4.246
 4947TIP3    H114847   1.740   2.360   4.177
 4947TIP3    H214848   1.629   2.456   4.216
 4948TIP3   OH214849   5.022   4.960   3.173
 4948TIP3    H114850   4.954   4.895   3.156
 4948TIP3    H214851   5.070   4.966   3.090
 4949TIP3   OH214852   1.449   0.050   2.439
 4949TIP3    H114853   1.518   0.077   2.378
 4949TIP3    H214854   1.375   0.028   2.383
 4950TIP3   OH214855   1.991   0.986   4.610
 4950TIP3    H114856   1.909   1.029   4.635
 4950TIP3    H214857   2.020   1.033   4.532
 4951TIP3   OH214858   2.034   5.607   0.330
 4951TIP3    H114859   2.125   5.591   0.353
 4951TIP3    H214860   2.003   5.523   0.296
 4952TIP3   OH214861   4.731   1.858   2.612
 4952TIP3    H114862   4.682   1.904   2.679
 4952TIP3    H214863   4.667   1.803   2.568
 4953TIP3   OH214864   2.980   2.114   4.367
 4953TIP3    H114865   3.052   2.089   4.309
 4953TIP3    H214866   2.936   2.031   4.386
 4954TIP3   OH214867   4.829   5.042   1.118
 4954TIP3    H114868   4.769   5.049   1.192
 4954TIP3    H214869   4.916   5.040   1.158
 4955TIP3   OH214870   1.108   4.596   5.035
 4955TIP3    H114871   1.097   4.680   4.991
 4955TIP3    H214872   1.076   4.612   5.124
 4956TIP3   OH214873   1.453   3.496   3.348
 4956TIP3    H114874   1.488   3.407   3.352
 4956TIP3    H214875   1.522   3.547   3.306
 4957TIP3   OH214876   5.890   1.609   4.096
 4957TIP3    H114877   5.824   1.577   4.035
 4957TIP3    H214878   5.918   1.693   4.061
 4958TIP3   OH214879   3.307   5.402   4.938
 4958TIP3    H114880   3.338   5.490   4.918
 4958TIP3    H214881   3.302   5.400   5.034
 4959TIP3   OH214882   4.189   4.887   2.192
 4959TIP3    H114883   4.227   4.965   2.151
 4959TIP3    H214884   4.110   4.919   2.236
 4960TIP3   OH214885   2.519   3.878   3.571
 4960TIP3    H114886   2.455   3.887   3.641
 4960TIP3    H214887   2.491   3.941   3.505
 4961TIP3   OH214888   1.457   3.228   1.981
 4961TIP3    H114889   1.487   3.220   2.071
 4961TIP3    H214890   1.531   3.200   1.928
 4962TIP3   OH214891   1.407   4.316   4.156
 4962TIP3    H114892   1.479   4.379   4.152
 4962TIP3    H214893   1.334   4.365   4.194
 4963TIP3   OH214894   2.762   2.881   3.025
 4963TIP3    H114895   2.724   2.904   3.110
 4963TIP3    H214896   2.841   2.935   3.019
 4964TIP3   OH214897   0.061   4.361  -0.003
 4964TIP3    H114898   0.152   4.336  -0.019
 4964TIP3    H214899   0.011   4.279  -0.010
 4965TIP3   OH214900   3.547   2.087   4.969
 4965TIP3    H114901   3.532   2.013   4.911
 4965TIP3    H214902   3.629   2.065   5.015
 4966TIP3   OH214903   5.276   0.002   2.901
 4966TIP3    H114904   5.214  -0.064   2.869
 4966TIP3    H214905   5.231   0.086   2.887
 4967TIP3   OH214906   4.227   5.874   0.897
 4967TIP3    H114907   4.284   5.913   0.963
 4967TIP3    H214908   4.144   5.860   0.941
 4968TIP3   OH214909   0.116   3.155   2.021
 4968TIP3    H114910   0.055   3.190   1.956
 4968TIP3    H214911   0.191   3.215   2.018
 4969TIP3   OH214912   2.477   2.353   2.380
 4969TIP3    H114913   2.556   2.311   2.413
 4969TIP3    H214914   2.410   2.285   2.383
 4970TIP3   OH214915   2.815   3.624   2.485
 4970TIP3    H114916   2.766   3.560   2.537
 4970TIP3    H214917   2.789   3.709   2.521
 4971TIP3   OH214918   2.116   5.868   0.819
 4971TIP3    H114919   2.093   5.875   0.726
 4971TIP3    H214920   2.209   5.889   0.822
 4972TIP3   OH214921   1.347   4.351   2.145
 4972TIP3    H114922   1.350   4.442   2.176
 4972TIP3    H214923   1.435   4.333   2.114
 4973TIP3   OH214924   0.380   1.499   4.081
 4973TIP3    H114925   0.360   1.455   3.998
 4973TIP3    H214926   0.420   1.431   4.135
 4974TIP3   OH214927   0.298   2.263   0.723
 4974TIP3    H114928   0.344   2.232   0.646
 4974TIP3    H214929   0.367   2.283   0.786
 4975TIP3   OH214930   1.365   2.884   1.806
 4975TIP3    H114931   1.281   2.914   1.839
 4975TIP3    H214932   1.372   2.923   1.719
 4976TIP3   OH214933   5.134   3.478   2.429
 4976TIP3    H114934   5.075   3.441   2.495
 4976TIP3    H214935   5.221   3.462   2.464
 4977TIP3   OH214936   0.216   2.432   4.036
 4977TIP3    H114937   0.158   2.361   4.009
 4977TIP3    H214938   0.162   2.511   4.033
 4978TIP3   OH214939   4.180   1.554   1.756
 4978TIP3    H114940   4.184   1.600   1.671
 4978TIP3    H214941   4.174   1.625   1.820
 4979TIP3   OH214942   4.305   5.451   2.157
 4979TIP3    H114943   4.300   5.525   2.097
 4979TIP3    H214944   4.293   5.490   2.244
 4980TIP3   OH214945   4.596   3.993   4.288
 4980TIP3    H114946   4.565   3.904   4.270
 4980TIP3    H214947   4.687   3.982   4.315
 4981TIP3   OH214948   3.178   1.903   4.766
 4981TIP3    H114949   3.193   1.955   4.844
 4981TIP3    H214950   3.155   1.816   4.798
 4982TIP3   OH214951   3.867   0.254   4.346
 4982TIP3    H114952   3.807   0.317   4.385
 4982TIP3    H214953   3.810   0.185   4.313
 4983TIP3   OH214954   2.098   3.073   2.975
 4983TIP3    H114955   2.154   3.012   2.927
 4983TIP3    H214956   2.152   3.151   2.987
 4984TIP3   OH214957  -0.005   1.676   3.193
 4984TIP3    H114958  -0.093   1.673   3.154
 4984TIP3    H214959   0.054   1.682   3.118
 4985TIP3   OH214960   1.616   1.300   0.864
 4985TIP3    H114961   1.520   1.301   0.855
 4985TIP3    H214962   1.633   1.355   0.941
 4986TIP3   OH214963   6.115   4.754   2.261
 4986TIP3    H114964   6.024   4.786   2.260
 4986TIP3    H214965   6.162   4.818   2.207
 4987TIP3   OH214966   2.379   1.978   0.785
 4987TIP3    H114967   2.337   1.892   0.780
 4987TIP3    H214968   2.342   2.027   0.712
 4988TIP3   OH214969   3.204   1.980   4.270
 4988TIP3    H114970   3.220   1.890   4.296
 4988TIP3    H214971   3.286   2.008   4.230
 4989TIP3   OH214972   4.020   4.462   4.062
 4989TIP3    H114973   4.045   4.370   4.056
 4989TIP3    H214974   4.097   4.505   4.098
 4990TIP3   OH214975   5.305   1.676   1.492
 4990TIP3    H114976   5.278   1.637   1.575
 4990TIP3    H214977   5.245   1.640   1.427
 4991TIP3   OH214978   5.736   2.332   2.629
 4991TIP3    H114979   5.696   2.386   2.561
 4991TIP3    H214980   5.678   2.340   2.704
 4992TIP3   OH214981   2.130   3.295  -0.004
 4992TIP3    H114982   2.053   3.276   0.051
 4992TIP3    H214983   2.135   3.391  -0.004
 4993TIP3   OH214984   5.791   0.667   0.079
 4993TIP3    H114985   5.758   0.722   0.150
 4993TIP3    H214986   5.859   0.614   0.120
 4994TIP3   OH214987   5.394   2.314   4.578
 4994TIP3    H114988   5.303   2.320   4.605
 4994TIP3    H214989   5.432   2.246   4.634
 4995TIP3   OH214990   2.388   4.221   1.008
 4995TIP3    H114991   2.408   4.228   1.101
 4995TIP3    H214992   2.323   4.290   0.992
 4996TIP3   OH214993   0.573   5.242   2.727
 4996TIP3    H114994   0.628   5.164   2.720
 4996TIP3    H214995   0.489   5.209   2.758
 4997TIP3   OH214996   5.307   1.171   1.224
 4997TIP3    H114997   5.226   1.123   1.211
 4997TIP3    H214998   5.279   1.259   1.250
 4998TIP3   OH214999   0.661   6.006   1.095
 4998TIP3    H115000   0.738   5.977   1.144
 4998TIP3    H215001   0.608   5.926   1.085
 4999TIP3   OH215002   3.622   0.625   2.060
 4999TIP3    H115003   3.598   0.693   1.997
 4999TIP3    H215004   3.684   0.569   2.013
 5000TIP3   OH215005   0.996   0.148   5.131
 5000TIP3    H115006   0.941   0.187   5.199
 5000TIP3    H215007   1.086   0.159   5.163
 5001TIP3   OH215008   1.068   1.974   5.006
 5001TIP3    H115009   1.139   1.929   4.959
 5001TIP3    H215010   1.076   1.942   5.096
 5002TIP3   OH215011   0.583   1.492   4.940
 5002TIP3    H115012   0.672   1.468   4.914
 5002TIP3    H215013   0.594   1.553   5.013
 5003TIP3   OH215014   4.156   0.784   4.544
 5003TIP3    H115015   4.136   0.862   4.491
 5003TIP3    H215016   4.242   0.756   4.514
 5004TIP3   OH215017   1.167   3.315   4.247
 5004TIP3    H115018   1.078   3.350   4.243
 5004TIP3    H215019   1.206   3.339   4.163
 5005TIP3   OH215020   1.303   4.547   0.563
 5005TIP3    H115021   1.231   4.607   0.579
 5005TIP3    H215022   1.284   4.472   0.620
 5006TIP3   OH215023   0.466   1.508   0.210
 5006TIP3    H115024   0.416   1.434   0.243
 5006TIP3    H215025   0.484   1.487   0.119
 5007TIP3   OH215026   5.819   3.019   0.290
 5007TIP3    H115027   5.898   3.069   0.267
 5007TIP3    H215028   5.770   3.013   0.208
 5008TIP3   OH215029   0.943   2.147   4.042
 5008TIP3    H115030   0.960   2.235   4.010
 5008TIP3    H215031   0.872   2.114   3.986
 5009TIP3   OH215032   4.346   5.081   0.452
 5009TIP3    H115033   4.365   5.175   0.448
 5009TIP3    H215034   4.253   5.077   0.475
 5010TIP3   OH215035   2.657   2.153   1.138
 5010TIP3    H115036   2.572   2.196   1.132
 5010TIP3    H215037   2.687   2.171   1.227
 5011TIP3   OH215038   1.514   5.468   4.260
 5011TIP3    H115039   1.582   5.409   4.293
 5011TIP3    H215040   1.549   5.556   4.277
 5012TIP3   OH215041   3.032   4.342   4.885
 5012TIP3    H115042   3.053   4.393   4.807
 5012TIP3    H215043   3.108   4.285   4.898
 5013TIP3   OH215044   0.304   1.148   4.526
 5013TIP3    H115045   0.230   1.128   4.468
 5013TIP3    H215046   0.271   1.214   4.586
 5014TIP3   OH215047   4.133   3.652   4.729
 5014TIP3    H115048   4.059   3.661   4.670
 5014TIP3    H215049   4.095   3.624   4.813
 5015TIP3   OH215050   4.637   0.319   4.860
 5015TIP3    H115051   4.667   0.254   4.923
 5015TIP3    H215052   4.675   0.401   4.891
 5016TIP3   OH215053   6.346   0.081   1.864
 5016TIP3    H115054   6.297   0.161   1.885
 5016TIP3    H215055   6.337   0.027   1.942
 5017TIP3   OH215056   4.287   1.690   2.833
 5017TIP3    H115057   4.352   1.662   2.897
 5017TIP3    H215058   4.213   1.632   2.847
 5018TIP3   OH215059   2.916   0.279   0.140
 5018TIP3    H115060   2.994   0.260   0.192
 5018TIP3    H215061   2.864   0.199   0.145
 5019TIP3   OH215062   3.535   4.280   0.916
 5019TIP3    H115063   3.504   4.195   0.886
 5019TIP3    H215064   3.514   4.340   0.845
 5020TIP3   OH215065   3.603   4.743   3.075
 5020TIP3    H115066   3.675   4.680   3.079
 5020TIP3    H215067   3.641   4.821   3.035
 5021TIP3   OH215068   1.053   2.131   2.370
 5021TIP3    H115069   1.001   2.162   2.444
 5021TIP3    H215070   1.074   2.040   2.392
 5022TIP3   OH215071   1.643   3.185   4.473
 5022TIP3    H115072   1.556   3.214   4.445
 5022TIP3    H215073   1.697   3.192   4.395
 5023TIP3   OH215074   3.836   4.387   2.148
 5023TIP3    H115075   3.917   4.345   2.177
 5023TIP3    H215076   3.775   4.314   2.135
 5024TIP3   OH215077   5.608   2.238   1.956
 5024TIP3    H115078   5.535   2.209   2.011
 5024TIP3    H215079   5.569   2.301   1.895
 5025TIP3   OH215080   4.711   4.202   1.265
 5025TIP3    H115081   4.775   4.143   1.225
 5025TIP3    H215082   4.628   4.154   1.260
 5026TIP3   OH215083   0.196   1.278   0.984
 5026TIP3    H115084   0.262   1.312   1.045
 5026TIP3    H215085   0.137   1.352   0.968
 5027TIP3   OH215086   5.021   0.474   4.066
 5027TIP3    H115087   5.064   0.559   4.070
 5027TIP3    H215088   4.933   0.493   4.034
 5028TIP3   OH215089   1.315   2.609   2.178
 5028TIP3    H115090   1.399   2.565   2.194
 5028TIP3    H215091   1.249   2.546   2.207
 5029TIP3   OH215092   6.080   1.721   3.208
 5029TIP3    H115093   6.146   1.778   3.249
 5029TIP3    H215094   5.998   1.767   3.221
 5030TIP3   OH215095   1.912   4.950   5.081
 5030TIP3    H115096   1.858   4.904   5.145
 5030TIP3    H215097   1.994   4.967   5.126
 5031TIP3   OH215098   4.893   4.552   4.176
 5031TIP3    H115099   4.861   4.483   4.234
 5031TIP3    H215100   4.917   4.507   4.095
 5032TIP3   OH215101   6.081   4.322   0.786
 5032TIP3    H115102   6.099   4.382   0.713
 5032TIP3    H215103   6.050   4.242   0.745
 5033TIP3   OH215104   0.754   1.479   2.078
 5033TIP3    H115105   0.747   1.494   1.983
 5033TIP3    H215106   0.826   1.535   2.105
 5034TIP3   OH215107   5.996   0.003   2.989
 5034TIP3    H115108   6.052   0.007   3.066
 5034TIP3    H215109   6.055   0.022   2.916
 5035TIP3   OH215110   2.535   3.749   2.707
 5035TIP3    H115111   2.631   3.759   2.706
 5035TIP3    H215112   2.509   3.760   2.616
 5036TIP3   OH215113   1.109   0.466   0.895
 5036TIP3    H115114   1.204   0.467   0.905
 5036TIP3    H215115   1.076   0.501   0.978
 5037TIP3   OH215116   5.761   3.784   4.300
 5037TIP3    H115117   5.753   3.866   4.251
 5037TIP3    H215118   5.673   3.747   4.298
 5038TIP3   OH215119   5.227   1.421   1.265
 5038TIP3    H115120   5.247   1.453   1.177
 5038TIP3    H215121   5.138   1.451   1.283
 5039TIP3   OH215122   3.807   1.737   2.665
 5039TIP3    H115123   3.836   1.734   2.757
 5039TIP3    H215124   3.760   1.820   2.658
 5040TIP3   OH215125   5.810   3.608   4.526
 5040TIP3    H115126   5.816   3.676   4.459
 5040TIP3    H215127   5.900   3.578   4.538
 5041TIP3   OH215128   2.759   3.360   0.715
 5041TIP3    H115129   2.734   3.281   0.764
 5041TIP3    H215130   2.715   3.431   0.763
 5042TIP3   OH215131   2.204   4.957   1.742
 5042TIP3    H115132   2.274   4.962   1.677
 5042TIP3    H215133   2.246   4.979   1.825
 5043TIP3   OH215134   4.949   3.464   2.214
 5043TIP3    H115135   5.039   3.476   2.245
 5043TIP3    H215136   4.938   3.369   2.206
 5044TIP3   OH215137   1.332   2.840   1.169
 5044TIP3    H115138   1.358   2.751   1.192
 5044TIP3    H215139   1.248   2.830   1.125
 5045TIP3   OH215140   2.127   1.397   2.013
 5045TIP3    H115141   2.130   1.402   1.918
 5045TIP3    H215142   2.177   1.318   2.034
 5046TIP3   OH215143   0.622   0.143   2.960
 5046TIP3    H115144   0.674   0.173   3.035
 5046TIP3    H215145   0.557   0.212   2.947
 5047TIP3   OH215146   6.175   3.246   3.172
 5047TIP3    H115147   6.173   3.324   3.227
 5047TIP3    H215148   6.132   3.179   3.224
 5048TIP3   OH215149   0.938   5.675   5.071
 5048TIP3    H115150   0.954   5.589   5.110
 5048TIP3    H215151   1.016   5.692   5.018
 5049TIP3   OH215152   3.070   5.060   0.415
 5049TIP3    H115153   3.127   4.985   0.400
 5049TIP3    H215154   2.998   5.025   0.468
 5050TIP3   OH215155   2.617   2.071   2.291
 5050TIP3    H115156   2.693   2.076   2.234
 5050TIP3    H215157   2.644   2.116   2.371
 5051TIP3   OH215158   5.298   5.432   1.893
 5051TIP3    H115159   5.376   5.454   1.842
 5051TIP3    H215160   5.296   5.336   1.895
 5052TIP3   OH215161   3.905   3.426   0.889
 5052TIP3    H115162   3.991   3.466   0.898
 5052TIP3    H215163   3.882   3.438   0.797
 5053TIP3   OH215164   1.821   1.183   4.749
 5053TIP3    H115165   1.778   1.236   4.816
 5053TIP3    H215166   1.866   1.247   4.693
 5054TIP3   OH215167   5.933   2.426   1.793
 5054TIP3    H115168   5.983   2.344   1.789
 5054TIP3    H215169   5.971   2.481   1.725
 5055TIP3   OH215170   1.718   0.715   2.303
 5055TIP3    H115171   1.786   0.768   2.262
 5055TIP3    H215172   1.721   0.632   2.255
 5056TIP3   OH215173   0.275   5.485   1.543
 5056TIP3    H115174   0.369   5.471   1.536
 5056TIP3    H215175   0.237   5.419   1.484
 5057TIP3   OH215176   3.171   2.355   4.098
 5057TIP3    H115177   3.247   2.298   4.095
 5057TIP3    H215178   3.196   2.431   4.045
 5058TIP3   OH215179   2.555   5.966   2.343
 5058TIP3    H115180   2.609   5.927   2.275
 5058TIP3    H215181   2.601   5.947   2.425
 5059TIP3   OH215182   5.762   2.150   1.196
 5059TIP3    H115183   5.844   2.176   1.154
 5059TIP3    H215184   5.704   2.225   1.184
 5060TIP3   OH215185   2.846   4.188   0.621
 5060TIP3    H115186   2.860   4.234   0.538
 5060TIP3    H215187   2.753   4.166   0.621
 5061TIP3   OH215188   2.870   5.694   4.782
 5061TIP3    H115189   2.791   5.698   4.836
 5061TIP3    H215190   2.913   5.612   4.808
 5062TIP3   OH215191   2.005   2.894   0.134
 5062TIP3    H115192   2.051   2.977   0.148
 5062TIP3    H215193   1.912   2.917   0.142
 5063TIP3   OH215194   3.721   3.232   4.436
 5063TIP3    H115195   3.725   3.155   4.493
 5063TIP3    H215196   3.630   3.262   4.443
 5064TIP3   OH215197   5.903   3.193   3.045
 5064TIP3    H115198   5.922   3.100   3.035
 5064TIP3    H215199   5.987   3.233   3.069
 5065TIP3   OH215200   4.588   3.441   3.067
 5065TIP3    H115201   4.580   3.385   2.990
 5065TIP3    H215202   4.626   3.522   3.033
 5066TIP3   OH215203   2.413   5.984   3.455
 5066TIP3    H115204   2.403   5.890   3.468
 5066TIP3    H215205   2.339   6.008   3.399
 5067TIP3   OH215206   5.175   0.004   3.615
 5067TIP3    H115207   5.259  -0.035   3.639
 5067TIP3    H215208   5.192   0.050   3.533
 5068TIP3   OH215209   0.340   1.884   2.556
 5068TIP3    H115210   0.387   1.922   2.481
 5068TIP3    H215211   0.253   1.864   2.522
 5069TIP3   OH215212   3.701   1.774   3.169
 5069TIP3    H115213   3.772   1.729   3.215
 5069TIP3    H215214   3.736   1.861   3.150
 5070TIP3   OH215215   3.082   4.524   3.244
 5070TIP3    H115216   3.083   4.437   3.203
 5070TIP3    H215217   3.167   4.530   3.289
 5071TIP3   OH215218   2.677   3.458   2.657
 5071TIP3    H115219   2.613   3.388   2.645
 5071TIP3    H215220   2.628   3.531   2.694
 5072TIP3   OH215221   4.612   3.542   1.832
 5072TIP3    H115222   4.644   3.528   1.743
 5072TIP3    H215223   4.617   3.455   1.872
 5073TIP3   OH215224   5.526   3.755   4.897
 5073TIP3    H115225   5.485   3.670   4.913
 5073TIP3    H215226   5.605   3.735   4.846
 5074TIP3   OH215227   3.489   2.954   3.561
 5074TIP3    H115228   3.527   2.879   3.605
 5074TIP3    H215229   3.551   2.975   3.491
 5075TIP3   OH215230   5.967   0.948   5.050
 5075TIP3    H115231   6.044   0.982   5.096
 5075TIP3    H215232   5.981   0.853   5.047
 5076TIP3   OH215233   2.489   1.137   2.513
 5076TIP3    H115234   2.511   1.048   2.540
 5076TIP3    H215235   2.407   1.156   2.559
 5077TIP3   OH215236   0.962   4.716   3.738
 5077TIP3    H115237   0.972   4.626   3.708
 5077TIP3    H215238   1.019   4.767   3.681
 5078TIP3   OH215239   0.064   1.483   3.786
 5078TIP3    H115240   0.060   1.545   3.713
 5078TIP3    H215241  -0.005   1.512   3.846
 5079TIP3   OH215242   4.963   3.159   0.833
 5079TIP3    H115243   4.935   3.207   0.755
 5079TIP3    H215244   5.036   3.210   0.868
 5080TIP3   OH215245   0.429   0.189   0.953
 5080TIP3    H115246   0.421   0.154   0.864
 5080TIP3    H215247   0.348   0.237   0.967
 5081TIP3   OH215248   3.879   3.829   2.842
 5081TIP3    H115249   3.824   3.873   2.906
 5081TIP3    H215250   3.963   3.816   2.887
 5082TIP3   OH215251   2.743   0.770   0.281
 5082TIP3    H115252   2.738   0.680   0.249
 5082TIP3    H215253   2.663   0.781   0.333
 5083TIP3   OH215254   0.527   3.842   0.341
 5083TIP3    H115255   0.554   3.785   0.413
 5083TIP3    H215256   0.446   3.884   0.372
 5084TIP3   OH215257   0.486   5.676   3.806
 5084TIP3    H115258   0.422   5.642   3.744
 5084TIP3    H215259   0.449   5.655   3.892
 5085TIP3   OH215260   3.844   1.604   4.183
 5085TIP3    H115261   3.834   1.684   4.131
 5085TIP3    H215262   3.916   1.624   4.243
 5086TIP3   OH215263   1.731   5.089   2.062
 5086TIP3    H115264   1.702   5.131   1.981
 5086TIP3    H215265   1.809   5.137   2.088
 5087TIP3   OH215266   4.693   2.271   2.504
 5087TIP3    H115267   4.680   2.207   2.573
 5087TIP3    H215268   4.788   2.279   2.496
 5088TIP3   OH215269   4.950   1.714   1.959
 5088TIP3    H115270   5.014   1.777   1.993
 5088TIP3    H215271   4.930   1.746   1.871
 5089TIP3   OH215272   5.895   5.139   4.074
 5089TIP3    H115273   5.840   5.208   4.109
 5089TIP3    H215274   5.865   5.059   4.118
 5090TIP3   OH215275   3.670   2.921   1.769
 5090TIP3    H115276   3.758   2.887   1.782
 5090TIP3    H215277   3.634   2.930   1.857
 5091TIP3   OH215278   5.010   1.247   3.536
 5091TIP3    H115279   5.094   1.221   3.500
 5091TIP3    H215280   4.967   1.295   3.465
 5092TIP3   OH215281   5.662   4.800   4.968
 5092TIP3    H115282   5.703   4.838   5.046
 5092TIP3    H215283   5.719   4.727   4.944
 5093TIP3   OH215284   5.536   0.066   2.875
 5093TIP3    H115285   5.448   0.031   2.887
 5093TIP3    H215286   5.549   0.125   2.949
 5094TIP3   OH215287   0.521   4.312   1.212
 5094TIP3    H115288   0.545   4.231   1.257
 5094TIP3    H215289   0.433   4.296   1.178
 5095TIP3   OH215290   1.884   2.141   2.911
 5095TIP3    H115291   1.823   2.155   2.838
 5095TIP3    H215292   1.861   2.208   2.975
 5096TIP3   OH215293   5.012   0.227   1.920
 5096TIP3    H115294   4.943   0.233   1.987
 5096TIP3    H215295   5.032   0.133   1.916
 5097TIP3   OH215296   2.661   2.340   2.122
 5097TIP3    H115297   2.731   2.292   2.077
 5097TIP3    H215298   2.584   2.285   2.113
 5098TIP3   OH215299   6.141   0.166   1.499
 5098TIP3    H115300   6.129   0.172   1.593
 5098TIP3    H215301   6.054   0.179   1.462
 5099TIP3   OH215302   4.719   5.533   1.230
 5099TIP3    H115303   4.758   5.619   1.239
 5099TIP3    H215304   4.770   5.477   1.290
 5100TIP3   OH215305   1.594   4.335   1.137
 5100TIP3    H115306   1.521   4.380   1.180
 5100TIP3    H215307   1.559   4.311   1.051
 5101TIP3   OH215308   5.355   4.855   1.497
 5101TIP3    H115309   5.419   4.793   1.532
 5101TIP3    H215310   5.407   4.930   1.469
 5102TIP3   OH215311   3.417   2.074   2.784
 5102TIP3    H115312   3.431   2.059   2.877
 5102TIP3    H215313   3.392   1.989   2.749
 5103TIP3   OH215314   0.821   0.052   4.096
 5103TIP3    H115315   0.848   0.096   4.016
 5103TIP3    H215316   0.902   0.018   4.134
 5104TIP3   OH215317   4.826   4.337   4.354
 5104TIP3    H115318   4.871   4.258   4.324
 5104TIP3    H215319   4.737   4.308   4.374
 5105TIP3   OH215320   0.390   4.775   0.088
 5105TIP3    H115321   0.422   4.685   0.080
 5105TIP3    H215322   0.309   4.776   0.037
 5106TIP3   OH215323   3.221   1.169   0.865
 5106TIP3    H115324   3.243   1.166   0.958
 5106TIP3    H215325   3.160   1.243   0.858
 5107TIP3   OH215326   3.932   4.508   5.128
 5107TIP3    H115327   3.872   4.576   5.099
 5107TIP3    H215328   4.007   4.514   5.068
 5108TIP3   OH215329   4.799   4.835   3.053
 5108TIP3    H115330   4.758   4.831   2.967
 5108TIP3    H215331   4.730   4.868   3.111
 5109TIP3   OH215332   1.954   3.976   0.300
 5109TIP3    H115333   1.973   4.052   0.245
 5109TIP3    H215334   2.039   3.939   0.321
 5110TIP3   OH215335   0.488   3.618   2.085
 5110TIP3    H115336   0.532   3.697   2.116
 5110TIP3    H215337   0.552   3.548   2.097
 5111TIP3   OH215338   2.366   5.308   0.045
 5111TIP3    H115339   2.299   5.376   0.050
 5111TIP3    H215340   2.353   5.255   0.124
 5112TIP3   OH215341   1.496   5.343   2.863
 5112TIP3    H115342   1.550   5.365   2.939
 5112TIP3    H215343   1.443   5.269   2.892
 5113TIP3   OH215344   6.302   4.281   1.521
 5113TIP3    H115345   6.214   4.274   1.557
 5113TIP3    H215346   6.357   4.302   1.597
 5114TIP3   OH215347   1.739   3.554   0.501
 5114TIP3    H115348   1.761   3.472   0.546
 5114TIP3    H215349   1.817   3.608   0.511
 5115TIP3   OH215350   1.994   1.935   3.594
 5115TIP3    H115351   2.041   1.951   3.513
 5115TIP3    H215352   1.984   1.840   3.598
 5116TIP3   OH215353   3.578   1.848   4.778
 5116TIP3    H115354   3.617   1.842   4.865
 5116TIP3    H215355   3.650   1.876   4.721
 5117TIP3   OH215356   5.381   5.168   1.964
 5117TIP3    H115357   5.387   5.088   1.913
 5117TIP3    H215358   5.472   5.195   1.976
 5118TIP3   OH215359   3.962   5.956   1.022
 5118TIP3    H115360   3.895   5.993   1.080
 5118TIP3    H215361   3.963   5.863   1.043
 5119TIP3   OH215362   5.354   2.832   2.696
 5119TIP3    H115363   5.333   2.917   2.657
 5119TIP3    H215364   5.301   2.769   2.647
 5120TIP3   OH215365   2.850   5.254   4.963
 5120TIP3    H115366   2.921   5.228   5.021
 5120TIP3    H215367   2.800   5.173   4.950
 5121TIP3   OH215368   4.669   3.703   2.923
 5121TIP3    H115369   4.727   3.667   2.856
 5121TIP3    H215370   4.617   3.769   2.878
 5122TIP3   OH215371   0.453   3.705   3.943
 5122TIP3    H115372   0.415   3.748   4.020
 5122TIP3    H215373   0.393   3.632   3.925
 5123TIP3   OH215374   3.434   5.021   3.071
 5123TIP3    H115375   3.356   5.053   3.116
 5123TIP3    H215376   3.401   4.958   3.007
 5124TIP3   OH215377   3.849   3.688   1.102
 5124TIP3    H115378   3.912   3.645   1.044
 5124TIP3    H215379   3.904   3.733   1.167
 5125TIP3   OH215380   1.060   5.397   0.843
 5125TIP3    H115381   0.994   5.409   0.775
 5125TIP3    H215382   1.014   5.417   0.925
 5126TIP3   OH215383   1.548   4.096   2.211
 5126TIP3    H115384   1.570   4.168   2.153
 5126TIP3    H215385   1.562   4.017   2.159
 5127TIP3   OH215386   1.412   5.359   5.009
 5127TIP3    H115387   1.495   5.395   4.979
 5127TIP3    H215388   1.424   5.264   5.004
 5128TIP3   OH215389   6.229   5.032   4.692
 5128TIP3    H115390   6.286   5.071   4.626
 5128TIP3    H215391   6.289   5.003   4.761
 5129TIP3   OH215392   2.096   1.959   0.946
 5129TIP3    H115393   2.173   2.007   0.977
 5129TIP3    H215394   2.125   1.867   0.943
 5130TIP3   OH215395   4.051   3.503   3.884
 5130TIP3    H115396   4.034   3.524   3.792
 5130TIP3    H215397   4.146   3.511   3.893
 5131TIP3   OH215398   1.992   1.762   0.459
 5131TIP3    H115399   1.958   1.723   0.540
 5131TIP3    H215400   1.937   1.839   0.445
 5132TIP3   OH215401   2.572   0.508   4.050
 5132TIP3    H115402   2.502   0.547   3.998
 5132TIP3    H215403   2.628   0.465   3.986
 5133TIP3   OH215404   2.713   1.917   1.223
 5133TIP3    H115405   2.697   1.979   1.152
 5133TIP3    H215406   2.735   1.972   1.298
 5134TIP3   OH215407   1.317   0.018   1.365
 5134TIP3    H115408   1.353   0.074   1.296
 5134TIP3    H215409   1.341  -0.071   1.337
 5135TIP3   OH215410   2.553   5.510   2.276
 5135TIP3    H115411   2.616   5.570   2.315
 5135TIP3    H215412   2.533   5.549   2.191
 5136TIP3   OH215413   5.007   4.442   3.931
 5136TIP3    H115414   4.952   4.378   3.885
 5136TIP3    H215415   5.093   4.401   3.936
 5137TIP3   OH215416   6.071   3.501   4.561
 5137TIP3    H115417   6.057   3.494   4.656
 5137TIP3    H215418   6.081   3.411   4.531
 5138TIP3   OH215419   0.867   1.469   1.175
 5138TIP3    H115420   0.938   1.406   1.187
 5138TIP3    H215421   0.817   1.464   1.256
 5139TIP3   OH215422   1.558   0.585   2.829
 5139TIP3    H115423   1.588   0.614   2.743
 5139TIP3    H215424   1.489   0.647   2.852
 5140TIP3   OH215425   3.444   1.822   0.317
 5140TIP3    H115426   3.412   1.821   0.227
 5140TIP3    H215427   3.480   1.910   0.329
 5141TIP3   OH215428   3.984   2.290   0.485
 5141TIP3    H115429   4.044   2.357   0.520
 5141TIP3    H215430   3.900   2.308   0.526
 5142TIP3   OH215431   1.945   2.241   1.625
 5142TIP3    H115432   1.955   2.182   1.550
 5142TIP3    H215433   1.922   2.184   1.698
 5143TIP3   OH215434   0.120   1.196   4.926
 5143TIP3    H115435   0.058   1.260   4.959
 5143TIP3    H215436   0.160   1.238   4.850
 5144TIP3   OH215437   3.891   1.012   0.719
 5144TIP3    H115438   3.979   0.993   0.686
 5144TIP3    H215439   3.903   1.091   0.771
 5145TIP3   OH215440   4.262   3.494   0.791
 5145TIP3    H115441   4.325   3.492   0.719
 5145TIP3    H215442   4.212   3.413   0.781
 5146TIP3   OH215443   4.861   0.194   3.973
 5146TIP3    H115444   4.837   0.240   3.893
 5146TIP3    H215445   4.795   0.126   3.983
 5147TIP3   OH215446   0.722   4.660   1.850
 5147TIP3    H115447   0.710   4.754   1.838
 5147TIP3    H215448   0.789   4.637   1.786
 5148TIP3   OH215449   0.419   3.668   4.249
 5148TIP3    H115450   0.500   3.646   4.295
 5148TIP3    H215451   0.357   3.601   4.276
 5149TIP3   OH215452   1.029   4.218   0.248
 5149TIP3    H115453   1.089   4.290   0.264
 5149TIP3    H215454   1.085   4.142   0.231
 5150TIP3   OH215455   0.304   2.174   1.177
 5150TIP3    H115456   0.359   2.198   1.252
 5150TIP3    H215457   0.366   2.140   1.112
 5151TIP3   OH215458   5.439   5.385   1.432
 5151TIP3    H115459   5.444   5.402   1.526
 5151TIP3    H215460   5.378   5.451   1.399
 5152TIP3   OH215461   6.187   5.876   0.038
 5152TIP3    H115462   6.133   5.841   0.108
 5152TIP3    H215463   6.142   5.850  -0.043
 5153TIP3   OH215464   3.432   2.835   4.044
 5153TIP3    H115465   3.453   2.923   4.011
 5153TIP3    H215466   3.429   2.846   4.139
 5154TIP3   OH215467   0.815   0.761   0.787
 5154TIP3    H115468   0.800   0.850   0.755
 5154TIP3    H215469   0.907   0.760   0.813
 5155TIP3   OH215470   3.547   3.876   3.213
 5155TIP3    H115471   3.538   3.897   3.306
 5155TIP3    H215472   3.485   3.934   3.169
 5156TIP3   OH215473   1.830   2.001   0.727
 5156TIP3    H115474   1.872   1.998   0.813
 5156TIP3    H215475   1.809   1.910   0.707
 5157TIP3   OH215476   1.905   6.021   3.688
 5157TIP3    H115477   1.956   5.943   3.665
 5157TIP3    H215478   1.873   6.003   3.776
 5158TIP3   OH215479   2.100   0.216   1.204
 5158TIP3    H115480   2.160   0.150   1.239
 5158TIP3    H215481   2.125   0.224   1.112
 5159TIP3   OH215482   0.335   5.918   2.581
 5159TIP3    H115483   0.240   5.922   2.592
 5159TIP3    H215484   0.366   5.873   2.659
 5160TIP3   OH215485   5.148   4.484   2.166
 5160TIP3    H115486   5.083   4.526   2.109
 5160TIP3    H215487   5.136   4.527   2.251
 5161TIP3   OH215488   6.229   0.632   1.234
 5161TIP3    H115489   6.320   0.630   1.203
 5161TIP3    H215490   6.229   0.576   1.312
 5162TIP3   OH215491   1.225   0.401   3.289
 5162TIP3    H115492   1.201   0.309   3.281
 5162TIP3    H215493   1.164   0.436   3.354
 5163TIP3   OH215494   5.801   4.986   3.524
 5163TIP3    H115495   5.881   4.960   3.478
 5163TIP3    H215496   5.750   5.033   3.458
 5164TIP3   OH215497   3.971   2.404   2.787
 5164TIP3    H115498   3.913   2.351   2.732
 5164TIP3    H215499   3.924   2.486   2.799
 5165TIP3   OH215500   0.566   4.375   4.261
 5165TIP3    H115501   0.640   4.330   4.221
 5165TIP3    H215502   0.548   4.327   4.341
 5166TIP3   OH215503   5.551   1.931   2.712
 5166TIP3    H115504   5.465   1.895   2.734
 5166TIP3    H215505   5.570   1.897   2.624
 5167TIP3   OH215506   3.737   5.968   2.504
 5167TIP3    H115507   3.706   5.990   2.591
 5167TIP3    H215508   3.789   5.888   2.516
 5168TIP3   OH215509   1.167   5.008   2.369
 5168TIP3    H115510   1.137   5.096   2.347
 5168TIP3    H215511   1.255   5.003   2.333
 5169TIP3   OH215512   4.152   5.290   3.130
 5169TIP3    H115513   4.126   5.376   3.097
 5169TIP3    H215514   4.069   5.242   3.139
 5170TIP3   OH215515   4.380   5.151   1.870
 5170TIP3    H115516   4.296   5.196   1.861
 5170TIP3    H215517   4.359   5.059   1.852
 5171TIP3   OH215518   4.678   1.280   2.593
 5171TIP3    H115519   4.671   1.296   2.499
 5171TIP3    H215520   4.741   1.345   2.623
 5172TIP3   OH215521   1.779   0.420   2.545
 5172TIP3    H115522   1.750   0.363   2.616
 5172TIP3    H215523   1.759   0.508   2.576
 5173TIP3   OH215524   6.297   4.265   0.926
 5173TIP3    H115525   6.233   4.278   0.856
 5173TIP3    H215526   6.294   4.346   0.976
 5174TIP3   OH215527   0.791   3.282   1.766
 5174TIP3    H115528   0.783   3.235   1.850
 5174TIP3    H215529   0.781   3.374   1.789
 5175TIP3   OH215530   1.851   5.852   1.613
 5175TIP3    H115531   1.800   5.805   1.548
 5175TIP3    H215532   1.832   5.807   1.696
 5176TIP3   OH215533   0.521   0.971   5.104
 5176TIP3    H115534   0.493   1.030   5.034
 5176TIP3    H215535   0.442   0.951   5.153
 5177TIP3   OH215536   0.870   0.997   0.181
 5177TIP3    H115537   0.919   0.948   0.247
 5177TIP3    H215538   0.846   0.932   0.115
 5178TIP3   OH215539   1.197   3.397   1.960
 5178TIP3    H115540   1.285   3.358   1.963
 5178TIP3    H215541   1.161   3.382   2.047
 5179TIP3   OH215542   4.726   0.272   1.772
 5179TIP3    H115543   4.655   0.320   1.729
 5179TIP3    H215544   4.786   0.340   1.801
 5180TIP3   OH215545   3.685   5.052   3.382
 5180TIP3    H115546   3.665   5.036   3.474
 5180TIP3    H215547   3.715   4.968   3.349
 5181TIP3   OH215548   5.475   1.775   0.259
 5181TIP3    H115549   5.566   1.789   0.288
 5181TIP3    H215550   5.423   1.789   0.338
 5182TIP3   OH215551   2.377   2.671   0.054
 5182TIP3    H115552   2.391   2.750   0.003
 5182TIP3    H215553   2.349   2.703   0.140
 5183TIP3   OH215554   1.481   5.148   1.120
 5183TIP3    H115555   1.488   5.182   1.209
 5183TIP3    H215556   1.489   5.226   1.064
 5184TIP3   OH215557   0.244   3.387   4.672
 5184TIP3    H115558   0.313   3.338   4.716
 5184TIP3    H215559   0.288   3.463   4.634
 5185TIP3   OH215560   1.048   3.634   1.362
 5185TIP3    H115561   1.090   3.704   1.311
 5185TIP3    H215562   1.104   3.624   1.439
 5186TIP3   OH215563   5.227   4.724   4.400
 5186TIP3    H115564   5.273   4.704   4.319
 5186TIP3    H215565   5.137   4.744   4.373
 5187TIP3   OH215566   2.697   1.143   4.981
 5187TIP3    H115567   2.719   1.069   4.925
 5187TIP3    H215568   2.647   1.104   5.053
 5188TIP3   OH215569   2.492   0.780   3.754
 5188TIP3    H115570   2.445   0.719   3.811
 5188TIP3    H215571   2.536   0.840   3.815
 5189TIP3   OH215572   5.882   5.760   2.455
 5189TIP3    H115573   5.883   5.812   2.374
 5189TIP3    H215574   5.813   5.696   2.442
 5190TIP3   OH215575   2.124   1.399   2.276
 5190TIP3    H115576   2.120   1.401   2.181
 5190TIP3    H215577   2.134   1.491   2.301
 5191TIP3   OH215578   0.034   2.274   0.667
 5191TIP3    H115579   0.032   2.252   0.574
 5191TIP3    H215580   0.121   2.248   0.696
 5192TIP3   OH215581   3.100   2.289   3.222
 5192TIP3    H115582   3.175   2.290   3.280
 5192TIP3    H215583   3.083   2.196   3.205
 5193TIP3   OH215584   0.053   2.210   3.947
 5193TIP3    H115585   0.148   2.204   3.937
 5193TIP3    H215586   0.031   2.139   4.007
 5194TIP3   OH215587   4.403   0.601   4.976
 5194TIP3    H115588   4.348   0.556   5.041
 5194TIP3    H215589   4.492   0.593   5.011
 5195TIP3   OH215590   4.266   0.646   3.508
 5195TIP3    H115591   4.199   0.714   3.496
 5195TIP3    H215592   4.245   0.580   3.442
 5196TIP3   OH215593   4.421   2.156   4.108
 5196TIP3    H115594   4.335   2.195   4.091
 5196TIP3    H215595   4.419   2.131   4.200
 5197TIP3   OH215596   5.797   5.912   1.216
 5197TIP3    H115597   5.785   6.001   1.182
 5197TIP3    H215598   5.875   5.918   1.272
 5198TIP3   OH215599   6.252   4.827   0.870
 5198TIP3    H115600   6.313   4.883   0.823
 5198TIP3    H215601   6.165   4.857   0.842
 5199TIP3   OH215602   1.495   4.107   3.682
 5199TIP3    H115603   1.427   4.058   3.636
 5199TIP3    H215604   1.486   4.079   3.773
 5200TIP3   OH215605   5.034   3.365   1.874
 5200TIP3    H115606   4.978   3.355   1.796
 5200TIP3    H215607   4.991   3.313   1.941
 5201TIP3   OH215608   2.040   4.009   2.322
 5201TIP3    H115609   2.033   4.024   2.416
 5201TIP3    H215610   2.046   3.914   2.313
 5202TIP3   OH215611   1.991   0.481   0.890
 5202TIP3    H115612   2.024   0.518   0.808
 5202TIP3    H215613   2.019   0.390   0.888
 5203TIP3   OH215614   3.656   5.674   4.357
 5203TIP3    H115615   3.611   5.650   4.438
 5203TIP3    H215616   3.703   5.594   4.331
 5204TIP3   OH215617   0.512   2.170   4.384
 5204TIP3    H115618   0.507   2.232   4.311
 5204TIP3    H215619   0.582   2.109   4.358
 5205TIP3   OH215620   3.976   3.214   1.746
 5205TIP3    H115621   3.910   3.238   1.682
 5205TIP3    H215622   3.943   3.134   1.786
 5206TIP3   OH215623   3.068   1.227   2.741
 5206TIP3    H115624   3.161   1.209   2.750
 5206TIP3    H215625   3.027   1.141   2.740
 5207TIP3   OH215626   0.848   1.034   1.628
 5207TIP3    H115627   0.758   1.000   1.637
 5207TIP3    H215628   0.842   1.125   1.654
 5208TIP3   OH215629   0.589   0.465   1.442
 5208TIP3    H115630   0.537   0.518   1.382
 5208TIP3    H215631   0.580   0.375   1.410
 5209TIP3   OH215632   2.871   5.815   0.787
 5209TIP3    H115633   2.941   5.813   0.721
 5209TIP3    H215634   2.844   5.907   0.789
 5210TIP3   OH215635   3.482   5.605   3.397
 5210TIP3    H115636   3.468   5.696   3.369
 5210TIP3    H215637   3.407   5.584   3.452
 5211TIP3   OH215638   3.206   3.224   1.010
 5211TIP3    H115639   3.253   3.307   1.013
 5211TIP3    H215640   3.119   3.247   0.979
 5212TIP3   OH215641   0.022   0.438   0.237
 5212TIP3    H115642   0.092   0.449   0.301
 5212TIP3    H215643  -0.033   0.369   0.274
 5213TIP3   OH215644   1.121   1.688   1.088
 5213TIP3    H115645   1.208   1.679   1.126
 5213TIP3    H215646   1.062   1.651   1.154
 5214TIP3   OH215647   6.070   1.958   3.644
 5214TIP3    H115648   6.106   2.039   3.682
 5214TIP3    H215649   5.976   1.975   3.639
 5215TIP3   OH215650   5.478   4.264   4.268
 5215TIP3    H115651   5.513   4.332   4.326
 5215TIP3    H215652   5.478   4.184   4.322
 5216TIP3   OH215653   5.670   5.686   2.211
 5216TIP3    H115654   5.744   5.747   2.204
 5216TIP3    H215655   5.625   5.693   2.126
 5217TIP3   OH215656   5.401   2.478   0.686
 5217TIP3    H115657   5.427   2.397   0.642
 5217TIP3    H215658   5.399   2.544   0.618
 5218TIP3   OH215659   3.130   3.532   2.182
 5218TIP3    H115660   3.223   3.509   2.178
 5218TIP3    H215661   3.102   3.531   2.090
 5219TIP3   OH215662   2.974   0.851   1.565
 5219TIP3    H115663   2.969   0.770   1.515
 5219TIP3    H215664   3.060   0.847   1.609
 5220TIP3   OH215665   0.599   4.057   1.295
 5220TIP3    H115666   0.685   4.080   1.260
 5220TIP3    H215667   0.569   3.983   1.242
 5221TIP3   OH215668   2.068   5.968   0.289
 5221TIP3    H115669   2.136   5.924   0.239
 5221TIP3    H215670   1.987   5.949   0.242
 5222TIP3   OH215671   0.221   4.874   2.110
 5222TIP3    H115672   0.296   4.930   2.087
 5222TIP3    H215673   0.214   4.881   2.205
 5223TIP3   OH215674   4.010   2.825   3.963
 5223TIP3    H115675   4.032   2.790   3.876
 5223TIP3    H215676   3.950   2.760   4.000
 5224TIP3   OH215677   6.062   5.172   3.496
 5224TIP3    H115678   6.142   5.137   3.534
 5224TIP3    H215679   6.009   5.198   3.572
 5225TIP3   OH215680   5.685   2.202   0.747
 5225TIP3    H115681   5.649   2.282   0.785
 5225TIP3    H215682   5.779   2.218   0.742
 5226TIP3   OH215683   2.648   1.731   3.065
 5226TIP3    H115684   2.743   1.739   3.061
 5226TIP3    H215685   2.623   1.783   3.141
 5227TIP3   OH215686   6.187   1.979   1.969
 5227TIP3    H115687   6.243   1.941   2.037
 5227TIP3    H215688   6.098   1.973   2.004
 5228TIP3   OH215689   2.407   2.847   3.339
 5228TIP3    H115690   2.422   2.809   3.425
 5228TIP3    H215691   2.325   2.896   3.348
 5229TIP3   OH215692   1.201   5.085   1.928
 5229TIP3    H115693   1.156   5.016   1.976
 5229TIP3    H215694   1.246   5.038   1.857
 5230TIP3   OH215695   4.700   1.129   0.724
 5230TIP3    H115696   4.658   1.161   0.643
 5230TIP3    H215697   4.775   1.077   0.693
 5231TIP3   OH215698   3.565   0.101   4.782
 5231TIP3    H115699   3.642   0.141   4.743
 5231TIP3    H215700   3.513   0.175   4.814
 5232TIP3   OH215701   3.117   2.686   2.941
 5232TIP3    H115702   3.183   2.665   3.007
 5232TIP3    H215703   3.046   2.727   2.991
 5233TIP3   OH215704   4.825   5.796   1.226
 5233TIP3    H115705   4.881   5.794   1.303
 5233TIP3    H215706   4.885   5.786   1.151
 5234TIP3   OH215707   3.909   3.742   3.940
 5234TIP3    H115708   3.881   3.651   3.943
 5234TIP3    H215709   4.004   3.738   3.951
 5235TIP3   OH215710   2.849   4.772   0.253
 5235TIP3    H115711   2.899   4.706   0.205
 5235TIP3    H215712   2.854   4.745   0.344
 5236TIP3   OH215713   4.291   2.873   3.495
 5236TIP3    H115714   4.253   2.890   3.581
 5236TIP3    H215715   4.336   2.789   3.503
 5237TIP3   OH215716   1.276   0.100   0.307
 5237TIP3    H115717   1.224   0.029   0.345
 5237TIP3    H215718   1.363   0.089   0.344
 5238TIP3   OH215719   0.196   0.149   5.008
 5238TIP3    H115720   0.148   0.150   4.925
 5238TIP3    H215721   0.140   0.199   5.068
 5239TIP3   OH215722   4.081   1.022   4.094
 5239TIP3    H115723   4.171   1.046   4.116
 5239TIP3    H215724   4.059   1.078   4.019
 5240TIP3   OH215725   3.967   2.139   1.425
 5240TIP3    H115726   4.058   2.158   1.445
 5240TIP3    H215727   3.951   2.052   1.462
 5241TIP3   OH215728   4.987   2.247   1.739
 5241TIP3    H115729   4.893   2.268   1.733
 5241TIP3    H215730   5.030   2.321   1.697
 5242TIP3   OH215731   3.760   0.697   4.532
 5242TIP3    H115732   3.693   0.635   4.558
 5242TIP3    H215733   3.836   0.643   4.510
 5243TIP3   OH215734   6.224   1.040   0.689
 5243TIP3    H115735   6.201   1.053   0.597
 5243TIP3    H215736   6.245   0.947   0.696
 5244TIP3   OH215737   0.800   3.090   3.851
 5244TIP3    H115738   0.847   3.139   3.783
 5244TIP3    H215739   0.749   3.025   3.802
 5245TIP3   OH215740   4.273   3.165   4.247
 5245TIP3    H115741   4.206   3.231   4.267
 5245TIP3    H215742   4.342   3.180   4.311
 5246TIP3   OH215743   1.214   3.350   3.703
 5246TIP3    H115744   1.185   3.354   3.794
 5246TIP3    H215745   1.303   3.385   3.705
 5247TIP3   OH215746   0.448   4.998   1.187
 5247TIP3    H115747   0.427   4.923   1.132
 5247TIP3    H215748   0.386   5.066   1.160
 5248TIP3   OH215749   2.490   4.357   0.127
 5248TIP3    H115750   2.425   4.427   0.133
 5248TIP3    H215751   2.439   4.276   0.136
 5249TIP3   OH215752   0.858   4.420   2.673
 5249TIP3    H115753   0.938   4.466   2.646
 5249TIP3    H215754   0.881   4.327   2.667
 5250TIP3   OH215755   3.236   4.091   2.230
 5250TIP3    H115756   3.159   4.046   2.193
 5250TIP3    H215757   3.263   4.036   2.303
 5251TIP3   OH215758   3.270   0.596   5.139
 5251TIP3    H115759   3.230   0.563   5.220
 5251TIP3    H215760   3.299   0.517   5.093
 5252TIP3   OH215761   4.591   4.487   2.883
 5252TIP3    H115762   4.677   4.513   2.852
 5252TIP3    H215763   4.599   4.485   2.979
 5253TIP3   OH215764   5.611   5.648   3.024
 5253TIP3    H115765   5.531   5.655   3.076
 5253TIP3    H215766   5.676   5.697   3.074
 5254TIP3   OH215767   2.091   3.442   4.220
 5254TIP3    H115768   2.179   3.405   4.217
 5254TIP3    H215769   2.069   3.459   4.129
 5255TIP3   OH215770   3.545   3.484   0.776
 5255TIP3    H115771   3.449   3.486   0.779
 5255TIP3    H215772   3.569   3.413   0.835
 5256TIP3   OH215773   0.327   2.557   2.755
 5256TIP3    H115774   0.312   2.546   2.849
 5256TIP3    H215775   0.293   2.644   2.735
 5257TIP3   OH215776   2.269   4.090   0.361
 5257TIP3    H115777   2.278   4.171   0.411
 5257TIP3    H215778   2.213   4.034   0.415
 5258TIP3   OH215779   2.202   5.790   3.165
 5258TIP3    H115780   2.107   5.803   3.161
 5258TIP3    H215781   2.212   5.702   3.202
 5259TIP3   OH215782   2.375   5.094   2.224
 5259TIP3    H115783   2.321   5.171   2.207
 5259TIP3    H215784   2.373   5.083   2.319
 5260TIP3   OH215785   6.316   5.180   1.307
 5260TIP3    H115786   6.293   5.143   1.221
 5260TIP3    H215787   6.231   5.195   1.349
 5261TIP3   OH215788   3.367   3.928   1.957
 5261TIP3    H115789   3.318   3.926   1.875
 5261TIP3    H215790   3.300   3.924   2.025
 5262TIP3   OH215791   0.894   2.769   0.389
 5262TIP3    H115792   0.888   2.863   0.371
 5262TIP3    H215793   0.833   2.755   0.461
 5263TIP3   OH215794   2.029   3.320   4.481
 5263TIP3    H115795   2.072   3.235   4.471
 5263TIP3    H215796   2.000   3.342   4.393
 5264TIP3   OH215797   1.092   0.995   2.257
 5264TIP3    H115798   1.093   0.942   2.178
 5264TIP3    H215799   1.178   1.037   2.259
 5265TIP3   OH215800   6.230   0.997   4.271
 5265TIP3    H115801   6.196   0.997   4.182
 5265TIP3    H215802   6.306   0.939   4.267
 5266TIP3   OH215803   0.201   2.539   0.770
 5266TIP3    H115804   0.251   2.493   0.703
 5266TIP3    H215805   0.194   2.476   0.842
 5267TIP3   OH215806   5.149   0.548   5.011
 5267TIP3    H115807   5.207   0.526   5.084
 5267TIP3    H215808   5.158   0.475   4.950
 5268TIP3   OH215809   3.140   4.254   0.157
 5268TIP3    H115810   3.093   4.317   0.212
 5268TIP3    H215811   3.085   4.176   0.159
 5269TIP3   OH215812   2.765   3.157   0.281
 5269TIP3    H115813   2.790   3.084   0.225
 5269TIP3    H215814   2.745   3.229   0.221
 5270TIP3   OH215815   1.352   1.149   0.702
 5270TIP3    H115816   1.359   1.192   0.617
 5270TIP3    H215817   1.299   1.208   0.755
 5271TIP3   OH215818   2.175   0.070   2.112
 5271TIP3    H115819   2.120   0.125   2.057
 5271TIP3    H215820   2.128   0.064   2.195
 5272TIP3   OH215821   1.479   5.055   4.973
 5272TIP3    H115822   1.462   4.988   5.038
 5272TIP3    H215823   1.574   5.051   4.959
 5273TIP3   OH215824   5.806   4.212   4.375
 5273TIP3    H115825   5.888   4.163   4.373
 5273TIP3    H215826   5.794   4.234   4.467
 5274TIP3   OH215827   0.901   1.329   4.062
 5274TIP3    H115828   0.907   1.424   4.063
 5274TIP3    H215829   0.811   1.310   4.088
 5275TIP3   OH215830   4.890   1.947   4.991
 5275TIP3    H115831   4.922   1.896   5.066
 5275TIP3    H215832   4.839   1.885   4.939
 5276TIP3   OH215833   0.472   1.963   2.325
 5276TIP3    H115834   0.564   1.990   2.322
 5276TIP3    H215835   0.472   1.872   2.295
 5277TIP3   OH215836   6.328   2.419   3.364
 5277TIP3    H115837   6.249   2.472   3.366
 5277TIP3    H215838   6.390   2.468   3.309
 5278TIP3   OH215839   1.678   5.367   4.955
 5278TIP3    H115840   1.671   5.273   4.937
 5278TIP3    H215841   1.726   5.371   5.038
 5279TIP3   OH215842   5.572   0.926   0.517
 5279TIP3    H115843   5.624   0.897   0.591
 5279TIP3    H215844   5.551   1.018   0.536
 5280TIP3   OH215845   2.919   1.949   4.704
 5280TIP3    H115846   2.913   1.933   4.610
 5280TIP3    H215847   3.012   1.938   4.724
 5281TIP3   OH215848   0.807   5.168   1.440
 5281TIP3    H115849   0.877   5.131   1.493
 5281TIP3    H215850   0.776   5.094   1.386
 5282TIP3   OH215851   2.165   5.552   0.626
 5282TIP3    H115852   2.095   5.600   0.670
 5282TIP3    H215853   2.124   5.472   0.595
 5283TIP3   OH215854   4.600   5.012   3.177
 5283TIP3    H115855   4.512   5.018   3.141
 5283TIP3    H215856   4.627   5.102   3.191
 5284TIP3   OH215857   3.320   0.281   0.449
 5284TIP3    H115858   3.268   0.226   0.391
 5284TIP3    H215859   3.279   0.368   0.443
 5285TIP3   OH215860   4.324   0.065   3.269
 5285TIP3    H115861   4.342  -0.022   3.232
 5285TIP3    H215862   4.229   0.070   3.273
 5286TIP3   OH215863   2.055   0.536   3.316
 5286TIP3    H115864   2.066   0.623   3.355
 5286TIP3    H215865   2.104   0.540   3.234
 5287TIP3   OH215866   2.427   1.757   1.489
 5287TIP3    H115867   2.432   1.687   1.555
 5287TIP3    H215868   2.512   1.802   1.496
 5288TIP3   OH215869   3.764   5.760   0.232
 5288TIP3    H115870   3.741   5.711   0.154
 5288TIP3    H215871   3.779   5.849   0.201
 5289TIP3   OH215872   5.908   1.910   3.932
 5289TIP3    H115873   5.908   1.999   3.897
 5289TIP3    H215874   5.815   1.892   3.950
 5290TIP3   OH215875   0.337   2.909   2.277
 5290TIP3    H115876   0.293   2.830   2.247
 5290TIP3    H215877   0.284   2.938   2.352
 5291TIP3   OH215878   1.468   5.855   3.303
 5291TIP3    H115879   1.539   5.883   3.361
 5291TIP3    H215880   1.416   5.794   3.356
 5292TIP3   OH215881   0.452   1.053   0.541
 5292TIP3    H115882   0.425   1.099   0.620
 5292TIP3    H215883   0.545   1.073   0.531
 5293TIP3   OH215884   5.885   5.525   3.559
 5293TIP3    H115885   5.823   5.473   3.507
 5293TIP3    H215886   5.843   5.536   3.644
 5294TIP3   OH215887   5.081   5.527   1.027
 5294TIP3    H115888   5.075   5.595   0.959
 5294TIP3    H215889   5.168   5.489   1.016
 5295TIP3   OH215890   0.488   2.267   0.513
 5295TIP3    H115891   0.553   2.311   0.458
 5295TIP3    H215892   0.498   2.174   0.490
 5296TIP3   OH215893   4.456   3.823   1.449
 5296TIP3    H115894   4.538   3.859   1.482
 5296TIP3    H215895   4.391   3.848   1.515
 5297TIP3   OH215896   4.167   1.775   4.573
 5297TIP3    H115897   4.169   1.706   4.640
 5297TIP3    H215898   4.254   1.774   4.535
 5298TIP3   OH215899   2.552   5.607   1.188
 5298TIP3    H115900   2.510   5.527   1.158
 5298TIP3    H215901   2.555   5.663   1.110
 5299TIP3   OH215902   1.165   0.491   4.180
 5299TIP3    H115903   1.073   0.476   4.201
 5299TIP3    H215904   1.190   0.565   4.235
 5300TIP3   OH215905   1.073   3.805   3.613
 5300TIP3    H115906   1.054   3.802   3.519
 5300TIP3    H215907   1.134   3.732   3.628
 5301TIP3   OH215908   1.958   3.705   0.528
 5301TIP3    H115909   1.956   3.795   0.561
 5301TIP3    H215910   2.037   3.667   0.567
 5302TIP3   OH215911   3.040   2.759   0.281
 5302TIP3    H115912   3.021   2.674   0.321
 5302TIP3    H215913   3.080   2.738   0.197
 5303TIP3   OH215914   2.599   0.513   3.342
 5303TIP3    H115915   2.532   0.567   3.384
 5303TIP3    H215916   2.554   0.472   3.268
 5304TIP3   OH215917   5.728   4.628   2.318
 5304TIP3    H115918   5.638   4.652   2.340
 5304TIP3    H215919   5.771   4.711   2.298
 5305TIP3   OH215920   4.034   4.130   2.751
 5305TIP3    H115921   4.057   4.127   2.844
 5305TIP3    H215922   4.114   4.102   2.705
 5306TIP3   OH215923   0.417   3.703   1.828
 5306TIP3    H115924   0.453   3.668   1.909
 5306TIP3    H215925   0.493   3.716   1.771
 5307TIP3   OH215926   2.674   5.558   3.201
 5307TIP3    H115927   2.619   5.636   3.198
 5307TIP3    H215928   2.630   5.500   3.263
 5308TIP3   OH215929   3.214   2.618   3.998
 5308TIP3    H115930   3.245   2.584   3.913
 5308TIP3    H215931   3.285   2.673   4.030
 5309TIP3   OH215932   0.923   4.091   1.287
 5309TIP3    H115933   0.939   4.121   1.198
 5309TIP3    H215934   0.908   4.171   1.337
 5310TIP3   OH215935   3.301   5.294   1.132
 5310TIP3    H115936   3.232   5.257   1.078
 5310TIP3    H215937   3.255   5.359   1.186
 5311TIP3   OH215938   2.204   4.936   1.181
 5311TIP3    H115939   2.180   4.859   1.233
 5311TIP3    H215940   2.175   4.914   1.092
 5312TIP3   OH215941   5.050   5.244   1.668
 5312TIP3    H115942   5.119   5.302   1.636
 5312TIP3    H215943   5.078   5.157   1.641
 5313TIP3   OH215944   1.502   5.755   4.958
 5313TIP3    H115945   1.480   5.736   5.049
 5313TIP3    H215946   1.543   5.841   4.962
 5314TIP3   OH215947   5.160   2.975   1.753
 5314TIP3    H115948   5.135   3.044   1.692
 5314TIP3    H215949   5.161   3.017   1.838
 5315TIP3   OH215950   3.566   2.072   0.031
 5315TIP3    H115951   3.633   2.003   0.030
 5315TIP3    H215952   3.538   2.077   0.122
 5316TIP3   OH215953   2.740   3.590   5.011
 5316TIP3    H115954   2.766   3.516   5.066
 5316TIP3    H215955   2.705   3.550   4.931
 5317TIP3   OH215956   0.095   0.702   4.754
 5317TIP3    H115957   0.083   0.691   4.848
 5317TIP3    H215958   0.076   0.795   4.738
 5318TIP3   OH215959   3.947   0.301   1.146
 5318TIP3    H115960   3.951   0.219   1.195
 5318TIP3    H215961   3.879   0.352   1.190
 5319TIP3   OH215962   0.080   2.900   4.546
 5319TIP3    H115963   0.028   2.865   4.618
 5319TIP3    H215964   0.099   2.825   4.490
 5320TIP3   OH215965   2.254   3.982   4.808
 5320TIP3    H115966   2.296   4.018   4.886
 5320TIP3    H215967   2.314   3.914   4.777
 5321TIP3   OH215968   2.447   1.599   2.553
 5321TIP3    H115969   2.446   1.694   2.556
 5321TIP3    H215970   2.509   1.574   2.622
 5322TIP3   OH215971   3.820   2.636   3.966
 5322TIP3    H115972   3.765   2.682   3.903
 5322TIP3    H215973   3.854   2.561   3.918
 5323TIP3   OH215974   2.409   2.789   4.194
 5323TIP3    H115975   2.432   2.814   4.283
 5323TIP3    H215976   2.318   2.759   4.201
 5324TIP3   OH215977   3.802   0.127   0.403
 5324TIP3    H115978   3.754   0.114   0.321
 5324TIP3    H215979   3.795   0.044   0.449
 5325TIP3   OH215980   2.494   1.547   3.200
 5325TIP3    H115981   2.546   1.621   3.167
 5325TIP3    H215982   2.419   1.589   3.244
 5326TIP3   OH215983   2.695   3.834   1.881
 5326TIP3    H115984   2.704   3.753   1.831
 5326TIP3    H215985   2.784   3.869   1.886
 5327TIP3   OH215986   0.157   2.889   2.494
 5327TIP3    H115987   0.184   2.869   2.584
 5327TIP3    H215988   0.151   2.804   2.451
 5328TIP3   OH215989   2.906   2.094   2.866
 5328TIP3    H115990   2.946   2.177   2.891
 5328TIP3    H215991   2.972   2.051   2.812
 5329TIP3   OH215992   4.330   0.254   4.241
 5329TIP3    H115993   4.283   0.331   4.210
 5329TIP3    H215994   4.262   0.195   4.273
 5330TIP3   OH215995   0.610   5.252   1.001
 5330TIP3    H115996   0.557   5.259   1.081
 5330TIP3    H215997   0.700   5.262   1.031
 5331TIP3   OH215998   3.542   4.369   4.643
 5331TIP3    H115999   3.538   4.354   4.548
 5331TIP3    H216000   3.593   4.449   4.652
 5332TIP3   OH216001   2.049   0.823   1.123
 5332TIP3    H116002   2.131   0.821   1.073
 5332TIP3    H216003   2.065   0.763   1.196
 5333TIP3   OH216004   3.535   5.568   4.094
 5333TIP3    H116005   3.604   5.525   4.144
 5333TIP3    H216006   3.454   5.550   4.143
 5334TIP3   OH216007   2.939   2.356   4.492
 5334TIP3    H116008   2.932   2.274   4.444
 5334TIP3    H216009   2.963   2.330   4.581
 5335TIP3   OH216010   2.958   3.684   3.277
 5335TIP3    H116011   2.989   3.672   3.367
 5335TIP3    H216012   2.905   3.606   3.260
 5336TIP3   OH216013   0.510   1.670   2.660
 5336TIP3    H116014   0.584   1.697   2.606
 5336TIP3    H216015   0.433   1.685   2.606
 5337TIP3   OH216016   5.027   4.247   0.145
 5337TIP3    H116017   4.954   4.268   0.087
 5337TIP3    H216018   5.094   4.211   0.087
 5338TIP3   OH216019   5.913   5.475   1.120
 5338TIP3    H116020   5.972   5.513   1.054
 5338TIP3    H216021   5.839   5.440   1.069
 5339TIP3   OH216022   1.076   1.736   3.161
 5339TIP3    H116023   0.985   1.709   3.162
 5339TIP3    H216024   1.074   1.828   3.134
 5340TIP3   OH216025   2.558   0.857   2.414
 5340TIP3    H116026   2.528   0.839   2.503
 5340TIP3    H216027   2.606   0.778   2.389
 5341TIP3   OH216028   3.408   3.232   2.321
 5341TIP3    H116029   3.500   3.246   2.343
 5341TIP3    H216030   3.359   3.283   2.385
 5342TIP3   OH216031   4.936   0.883   0.926
 5342TIP3    H116032   4.874   0.827   0.973
 5342TIP3    H216033   4.980   0.823   0.865
 5343TIP3   OH216034   4.284   4.603   1.073
 5343TIP3    H116035   4.190   4.613   1.059
 5343TIP3    H216036   4.321   4.686   1.041
 5344TIP3   OH216037   4.163   2.328   4.563
 5344TIP3    H116038   4.122   2.340   4.477
 5344TIP3    H216039   4.169   2.233   4.574
 5345TIP3   OH216040   2.885   2.547   2.490
 5345TIP3    H116041   2.876   2.636   2.455
 5345TIP3    H216042   2.875   2.557   2.584
 5346TIP3   OH216043   3.332   1.179   2.716
 5346TIP3    H116044   3.380   1.105   2.753
 5346TIP3    H216045   3.388   1.254   2.731
 5347TIP3   OH216046   1.203   1.033   4.577
 5347TIP3    H116047   1.234   1.110   4.624
 5347TIP3    H216048   1.266   1.022   4.505
 5348TIP3   OH216049   2.031   2.511   3.105
 5348TIP3    H116050   2.126   2.522   3.114
 5348TIP3    H216051   1.997   2.540   3.190
 5349TIP3   OH216052   0.002   1.645   3.565
 5349TIP3    H116053   0.023   1.724   3.515
 5349TIP3    H216054   0.014   1.574   3.502
 5350TIP3   OH216055   5.404   2.254   1.570
 5350TIP3    H116056   5.494   2.272   1.596
 5350TIP3    H216057   5.386   2.316   1.500
 5351TIP3   OH216058   3.415   0.687   3.553
 5351TIP3    H116059   3.359   0.699   3.477
 5351TIP3    H216060   3.397   0.597   3.582
 5352TIP3   OH216061   1.098   4.666   0.685
 5352TIP3    H116062   1.015   4.708   0.660
 5352TIP3    H216063   1.117   4.699   0.773
 5353TIP3   OH216064   0.263   3.309   4.998
 5353TIP3    H116065   0.336   3.279   5.053
 5353TIP3    H216066   0.297   3.385   4.951
 5354TIP3   OH216067   2.475   5.651   2.056
 5354TIP3    H116068   2.486   5.690   1.969
 5354TIP3    H216069   2.388   5.680   2.085
 5355TIP3   OH216070   2.553   5.934   4.839
 5355TIP3    H116071   2.615   6.005   4.826
 5355TIP3    H216072   2.600   5.870   4.892
 5356TIP3   OH216073   2.609   0.477   0.586
 5356TIP3    H116074   2.554   0.488   0.509
 5356TIP3    H216075   2.697   0.498   0.556
 5357TIP3   OH216076   4.124   1.576   3.985
 5357TIP3    H116077   4.099   1.486   4.007
 5357TIP3    H216078   4.075   1.597   3.906
 5358TIP3   OH216079   3.215   2.028   5.022
 5358TIP3    H116080   3.136   2.023   5.076
 5358TIP3    H216081   3.229   2.122   5.010
 5359TIP3   OH216082   5.040   1.072   3.232
 5359TIP3    H116083   5.003   1.135   3.294
 5359TIP3    H216084   5.106   1.121   3.183
 5360TIP3   OH216085   4.507   0.610   1.430
 5360TIP3    H116086   4.507   0.582   1.339
 5360TIP3    H216087   4.457   0.691   1.431
 5361TIP3   OH216088   2.813   3.827   2.672
 5361TIP3    H116089   2.871   3.884   2.723
 5361TIP3    H216090   2.769   3.886   2.611
 5362TIP3   OH216091   3.543   0.503   5.075
 5362TIP3    H116092   3.570   0.463   5.157
 5362TIP3    H216093   3.603   0.577   5.063
 5363TIP3   OH216094   4.343   5.948  -0.009
 5363TIP3    H116095   4.258   5.975   0.025
 5363TIP3    H216096   4.402   5.953   0.065
 5364TIP3   OH216097   1.874   3.713   1.401
 5364TIP3    H116098   1.798   3.764   1.369
 5364TIP3    H216099   1.949   3.771   1.386
 5365TIP3   OH216100   5.724   2.100   1.716
 5365TIP3    H116101   5.732   2.167   1.784
 5365TIP3    H216102   5.737   2.148   1.634
 5366TIP3   OH216103   0.538   2.381   1.142
 5366TIP3    H116104   0.549   2.298   1.186
 5366TIP3    H216105   0.578   2.446   1.200
 5367TIP3   OH216106   5.028   2.785   2.739
 5367TIP3    H116107   5.095   2.734   2.693
 5367TIP3    H216108   4.959   2.798   2.674
 5368TIP3   OH216109   4.617   3.229   4.052
 5368TIP3    H116110   4.664   3.219   3.970
 5368TIP3    H216111   4.615   3.142   4.090
 5369TIP3   OH216112   0.463   2.471   3.627
 5369TIP3    H116113   0.438   2.483   3.535
 5369TIP3    H216114   0.522   2.396   3.626
 5370TIP3   OH216115   1.270   4.035   2.341
 5370TIP3    H116116   1.278   3.940   2.345
 5370TIP3    H216117   1.341   4.063   2.282
 5371TIP3   OH216118   3.642   3.849   1.845
 5371TIP3    H116119   3.549   3.859   1.865
 5371TIP3    H216120   3.645   3.834   1.750
 5372TIP3   OH216121   0.814   2.418   4.227
 5372TIP3    H116122   0.789   2.437   4.318
 5372TIP3    H216123   0.810   2.503   4.183
 5373TIP3   OH216124   2.111   0.673   1.375
 5373TIP3    H116125   2.138   0.582   1.374
 5373TIP3    H216126   2.060   0.683   1.455
 5374TIP3   OH216127   6.000   4.469   4.404
 5374TIP3    H116128   5.920   4.418   4.415
 5374TIP3    H216129   6.052   4.450   4.482
 5375TIP3   OH216130   5.871   0.946   4.784
 5375TIP3    H116131   5.897   0.949   4.876
 5375TIP3    H216132   5.792   1.001   4.780
 5376TIP3   OH216133   1.279   4.942   0.145
 5376TIP3    H116134   1.251   5.018   0.195
 5376TIP3    H216135   1.230   4.948   0.063
 5377TIP3   OH216136   4.476   3.099   3.620
 5377TIP3    H116137   4.395   3.054   3.641
 5377TIP3    H216138   4.458   3.191   3.637
 5378TIP3   OH216139   3.894   3.092   4.892
 5378TIP3    H116140   3.987   3.076   4.901
 5378TIP3    H216141   3.883   3.126   4.803
 5379TIP3   OH216142   0.888   0.571   1.928
 5379TIP3    H116143   0.981   0.561   1.950
 5379TIP3    H216144   0.886   0.648   1.871
 5380TIP3   OH216145   3.166   4.844   0.630
 5380TIP3    H116146   3.152   4.751   0.645
 5380TIP3    H216147   3.134   4.886   0.710
 5381TIP3   OH216148   2.808   4.549   2.728
 5381TIP3    H116149   2.795   4.502   2.646
 5381TIP3    H216150   2.729   4.602   2.738
 5382TIP3   OH216151   0.805   1.635   4.631
 5382TIP3    H116152   0.716   1.660   4.604
 5382TIP3    H216153   0.849   1.718   4.648
 5383TIP3   OH216154   3.551   0.303   0.622
 5383TIP3    H116155   3.619   0.297   0.555
 5383TIP3    H216156   3.469   0.290   0.575
 5384TIP3   OH216157   4.598   2.202   3.346
 5384TIP3    H116158   4.671   2.198   3.285
 5384TIP3    H216159   4.595   2.294   3.375
 5385TIP3   OH216160   2.616   4.773   2.445
 5385TIP3    H116161   2.594   4.802   2.357
 5385TIP3    H216162   2.710   4.755   2.442
 5386TIP3   OH216163   3.349   5.706   0.793
 5386TIP3    H116164   3.319   5.697   0.702
 5386TIP3    H216165   3.445   5.707   0.786
 5387TIP3   OH216166   2.334   0.400   3.675
 5387TIP3    H116167   2.305   0.482   3.636
 5387TIP3    H216168   2.286   0.332   3.628
 5388TIP3   OH216169   0.511   5.352   3.757
 5388TIP3    H116170   0.508   5.447   3.751
 5388TIP3    H216171   0.438   5.321   3.703
 5389TIP3   OH216172   0.058   3.186   4.710
 5389TIP3    H116173   0.092   3.098   4.696
 5389TIP3    H216174   0.120   3.243   4.664
 5390TIP3   OH216175   4.378   4.252   1.920
 5390TIP3    H116176   4.400   4.226   2.010
 5390TIP3    H216177   4.291   4.213   1.905
 5391TIP3   OH216178   5.637   4.928   1.143
 5391TIP3    H116179   5.720   4.974   1.140
 5391TIP3    H216180   5.658   4.837   1.119
 5392TIP3   OH216181   2.918   3.286   3.485
 5392TIP3    H116182   2.965   3.221   3.431
 5392TIP3    H216183   2.832   3.247   3.500
 5393TIP3   OH216184   1.535   2.451   2.722
 5393TIP3    H116185   1.620   2.451   2.677
 5393TIP3    H216186   1.488   2.377   2.683
 5394TIP3   OH216187   3.077   2.005   3.277
 5394TIP3    H116188   2.994   2.029   3.236
 5394TIP3    H216189   3.063   1.916   3.310
 5395TIP3   OH216190   0.487   3.415   0.402
 5395TIP3    H116191   0.489   3.342   0.464
 5395TIP3    H216192   0.499   3.493   0.456
 5396TIP3   OH216193   3.146   0.394   0.810
 5396TIP3    H116194   3.171   0.310   0.849
 5396TIP3    H216195   3.226   0.447   0.813
 5397TIP3   OH216196   2.853   0.958   2.481
 5397TIP3    H116197   2.767   0.993   2.458
 5397TIP3    H216198   2.858   0.875   2.436
 5398TIP3   OH216199   4.826   0.172   2.706
 5398TIP3    H116200   4.882   0.250   2.705
 5398TIP3    H216201   4.737   0.206   2.706
 5399TIP3   OH216202   6.205   5.444   0.871
 5399TIP3    H116203   6.218   5.439   0.776
 5399TIP3    H216204   6.292   5.426   0.908
 5400TIP3   OH216205   4.447   2.617   2.150
 5400TIP3    H116206   4.490   2.605   2.234
 5400TIP3    H216207   4.405   2.532   2.133
 5401TIP3   OH216208   0.722   5.776   4.468
 5401TIP3    H116209   0.678   5.859   4.486
 5401TIP3    H216210   0.788   5.798   4.402
 5402TIP3   OH216211   1.655   2.455   1.349
 5402TIP3    H116212   1.658   2.532   1.292
 5402TIP3    H216213   1.745   2.443   1.378
 5403TIP3   OH216214   2.800   2.027   0.534
 5403TIP3    H116215   2.715   2.065   0.558
 5403TIP3    H216216   2.788   2.000   0.443
 5404TIP3   OH216217   5.804   5.775   0.967
 5404TIP3    H116218   5.898   5.772   0.949
 5404TIP3    H216219   5.797   5.818   1.053
 5405TIP3   OH216220   0.934   5.469   0.398
 5405TIP3    H116221   0.972   5.554   0.375
 5405TIP3    H216222   1.006   5.407   0.390
 5406TIP3   OH216223   5.040   1.133   0.841
 5406TIP3    H116224   5.082   1.109   0.758
 5406TIP3    H216225   5.003   1.052   0.874
 5407TIP3   OH216226   5.626   5.305   1.251
 5407TIP3    H116227   5.603   5.240   1.185
 5407TIP3    H216228   5.546   5.317   1.302
 5408TIP3   OH216229   3.014   2.862   2.140
 5408TIP3    H116230   3.032   2.773   2.107
 5408TIP3    H216231   3.089   2.882   2.196
 5409TIP3   OH216232   3.162   1.150   4.443
 5409TIP3    H116233   3.085   1.182   4.396
 5409TIP3    H216234   3.193   1.076   4.391
 5410TIP3   OH216235   4.863   4.838   0.930
 5410TIP3    H116236   4.849   4.908   0.993
 5410TIP3    H216237   4.956   4.818   0.937
 5411TIP3   OH216238   1.923   5.991   1.008
 5411TIP3    H116239   1.993   5.929   0.988
 5411TIP3    H216240   1.932   6.008   1.102
 5412TIP3   OH216241   3.842   2.553   3.632
 5412TIP3    H116242   3.849   2.536   3.538
 5412TIP3    H216243   3.916   2.506   3.671
 5413TIP3   OH216244   3.174   5.171   2.598
 5413TIP3    H116245   3.094   5.221   2.610
 5413TIP3    H216246   3.167   5.136   2.509
 5414TIP3   OH216247   0.800   3.472   0.888
 5414TIP3    H116248   0.886   3.430   0.898
 5414TIP3    H216249   0.759   3.462   0.974
 5415TIP3   OH216250   2.783   0.135   0.505
 5415TIP3    H116251   2.843   0.062   0.489
 5415TIP3    H216252   2.834   0.196   0.559
 5416TIP3   OH216253   1.453   5.067   0.454
 5416TIP3    H116254   1.475   4.974   0.449
 5416TIP3    H216255   1.362   5.069   0.482
 5417TIP3   OH216256   3.614   2.516   4.570
 5417TIP3    H116257   3.531   2.541   4.609
 5417TIP3    H216258   3.637   2.433   4.613
 5418TIP3   OH216259   2.947   3.758   4.276
 5418TIP3    H116260   2.863   3.721   4.302
 5418TIP3    H216261   2.925   3.841   4.235
 5419TIP3   OH216262   5.630   5.171   2.333
 5419TIP3    H116263   5.566   5.235   2.302
 5419TIP3    H216264   5.692   5.223   2.385
 5420TIP3   OH216265   3.533   1.737   4.155
 5420TIP3    H116266   3.621   1.704   4.134
 5420TIP3    H216267   3.533   1.827   4.121
 5421TIP3   OH216268   1.687   1.722   0.220
 5421TIP3    H116269   1.666   1.744   0.130
 5421TIP3    H216270   1.754   1.787   0.245
 5422TIP3   OH216271   5.034   0.522   3.282
 5422TIP3    H116272   4.975   0.514   3.357
 5422TIP3    H216273   5.023   0.612   3.252
 5423TIP3   OH216274   2.530   4.433   4.721
 5423TIP3    H116275   2.508   4.523   4.696
 5423TIP3    H216276   2.460   4.406   4.780
 5424TIP3   OH216277   1.428   0.325   2.871
 5424TIP3    H116278   1.377   0.253   2.834
 5424TIP3    H216279   1.434   0.389   2.800
 5425TIP3   OH216280   3.467   1.000   0.956
 5425TIP3    H116281   3.405   0.927   0.953
 5425TIP3    H216282   3.552   0.960   0.937
 5426TIP3   OH216283   5.065   5.655   2.477
 5426TIP3    H116284   5.083   5.712   2.403
 5426TIP3    H216285   4.974   5.626   2.464
 5427TIP3   OH216286   0.570   3.135   3.582
 5427TIP3    H116287   0.511   3.115   3.510
 5427TIP3    H216288   0.611   3.051   3.604
 5428TIP3   OH216289   2.260   1.936   1.724
 5428TIP3    H116290   2.325   1.877   1.761
 5428TIP3    H216291   2.178   1.887   1.729
 5429TIP3   OH216292   1.516   2.920   3.874
 5429TIP3    H116293   1.504   3.004   3.918
 5429TIP3    H216294   1.471   2.856   3.930
 5430TIP3   OH216295   6.089   4.337   2.784
 5430TIP3    H116296   6.121   4.426   2.794
 5430TIP3    H216297   6.081   4.325   2.689
 5431TIP3   OH216298   3.547   4.803   1.044
 5431TIP3    H116299   3.519   4.733   0.984
 5431TIP3    H216300   3.468   4.822   1.096
 5432TIP3   OH216301   4.508   1.198   3.320
 5432TIP3    H116302   4.499   1.103   3.312
 5432TIP3    H216303   4.533   1.212   3.411
 5433TIP3   OH216304   5.996   3.451   0.527
 5433TIP3    H116305   5.966   3.442   0.618
 5433TIP3    H216306   6.067   3.387   0.519
 5434TIP3   OH216307   5.672  -0.021   3.584
 5434TIP3    H116308   5.706   0.001   3.671
 5434TIP3    H216309   5.641   0.062   3.548
 5435TIP3   OH216310   4.383   1.311   4.375
 5435TIP3    H116311   4.313   1.336   4.315
 5435TIP3    H216312   4.403   1.220   4.351
 5436TIP3   OH216313   0.260   0.505   5.077
 5436TIP3    H116314   0.208   0.473   5.002
 5436TIP3    H216315   0.197   0.552   5.132
 5437TIP3   OH216316   0.552   3.345   2.255
 5437TIP3    H116317   0.610   3.295   2.197
 5437TIP3    H216318   0.611   3.380   2.322
 5438TIP3   OH216319   5.921   4.271   4.830
 5438TIP3    H116320   5.927   4.337   4.761
 5438TIP3    H216321   6.010   4.236   4.837
 5439TIP3   OH216322   4.935   3.592   1.681
 5439TIP3    H116323   4.933   3.595   1.776
 5439TIP3    H216324   4.847   3.616   1.653
 5440TIP3   OH216325   2.090   1.205   4.097
 5440TIP3    H116326   2.065   1.292   4.066
 5440TIP3    H216327   2.129   1.163   4.020
 5441TIP3   OH216328   0.864   2.882   1.638
 5441TIP3    H116329   0.915   2.878   1.719
 5441TIP3    H216330   0.880   2.969   1.603
 5442TIP3   OH216331   5.312   3.135   0.312
 5442TIP3    H116332   5.382   3.151   0.248
 5442TIP3    H216333   5.253   3.210   0.302
 5443TIP3   OH216334   1.285   1.803   4.995
 5443TIP3    H116335   1.353   1.738   5.009
 5443TIP3    H216336   1.332   1.887   4.991
 5444TIP3   OH216337   0.461   2.662   1.101
 5444TIP3    H116338   0.512   2.582   1.089
 5444TIP3    H216339   0.441   2.664   1.195
 5445TIP3   OH216340   3.061   4.105   3.497
 5445TIP3    H116341   3.018   4.078   3.578
 5445TIP3    H216342   3.154   4.110   3.520
 5446TIP3   OH216343   4.705   2.774   4.612
 5446TIP3    H116344   4.678   2.749   4.700
 5446TIP3    H216345   4.793   2.739   4.603
 5447TIP3   OH216346   1.311   3.104   3.527
 5447TIP3    H116347   1.372   3.154   3.581
 5447TIP3    H216348   1.274   3.168   3.466
 5448TIP3   OH216349   3.917   3.021   1.354
 5448TIP3    H116350   3.932   2.934   1.318
 5448TIP3    H216351   3.822   3.032   1.351
 5449TIP3   OH216352   5.923   3.896   4.851
 5449TIP3    H116353   5.869   3.816   4.846
 5449TIP3    H216354   5.993   3.881   4.789
 5450TIP3   OH216355   3.514   2.038   1.577
 5450TIP3    H116356   3.533   2.118   1.528
 5450TIP3    H216357   3.482   1.977   1.511
 5451TIP3   OH216358   1.841   0.046   2.045
 5451TIP3    H116359   1.756   0.083   2.019
 5451TIP3    H216360   1.905   0.110   2.014
 5452TIP3   OH216361   3.444   4.143   4.318
 5452TIP3    H116362   3.463   4.171   4.229
 5452TIP3    H216363   3.461   4.220   4.372
 5453TIP3   OH216364   2.390   4.551   4.454
 5453TIP3    H116365   2.432   4.504   4.382
 5453TIP3    H216366   2.341   4.483   4.501
 5454TIP3   OH216367   2.407   3.371   2.686
 5454TIP3    H116368   2.356   3.291   2.673
 5454TIP3    H216369   2.422   3.376   2.781
 5455TIP3   OH216370   2.263   4.497   0.147
 5455TIP3    H116371   2.274   4.588   0.119
 5455TIP3    H216372   2.182   4.498   0.199
 5456TIP3   OH216373   5.001   1.449   2.026
 5456TIP3    H116374   4.999   1.543   2.007
 5456TIP3    H216375   5.073   1.415   1.974
 5457TIP3   OH216376   1.589   3.103   2.774
 5457TIP3    H116377   1.507   3.077   2.732
 5457TIP3    H216378   1.657   3.057   2.726
 5458TIP3   OH216379   5.838   0.727   3.606
 5458TIP3    H116380   5.841   0.802   3.546
 5458TIP3    H216381   5.922   0.682   3.593
 5459TIP3   OH216382   0.176   0.298   0.995
 5459TIP3    H116383   0.151   0.213   1.031
 5459TIP3    H216384   0.185   0.355   1.071
 5460TIP3   OH216385   1.767   2.946   1.545
 5460TIP3    H116386   1.698   3.009   1.566
 5460TIP3    H216387   1.821   2.943   1.624
 5461TIP3   OH216388   5.019   3.049   2.191
 5461TIP3    H116389   5.038   2.957   2.206
 5461TIP3    H216390   4.993   3.083   2.277
 5462TIP3   OH216391   3.187   4.312   0.632
 5462TIP3    H116392   3.145   4.227   0.644
 5462TIP3    H216393   3.229   4.306   0.546
 5463TIP3   OH216394   5.178   1.100   0.604
 5463TIP3    H116395   5.170   1.193   0.584
 5463TIP3    H216396   5.210   1.061   0.522
 5464TIP3   OH216397   4.002   5.489   3.049
 5464TIP3    H116398   3.913   5.455   3.052
 5464TIP3    H216399   3.993   5.578   3.014
 5465TIP3   OH216400   5.863   5.197   4.394
 5465TIP3    H116401   5.946   5.150   4.380
 5465TIP3    H216402   5.820   5.149   4.464
 5466TIP3   OH216403   1.797   0.734   5.130
 5466TIP3    H116404   1.750   0.740   5.047
 5466TIP3    H216405   1.853   0.812   5.131
 5467TIP3   OH216406   5.234   2.025   0.028
 5467TIP3    H116407   5.167   1.994   0.089
 5467TIP3    H216408   5.190   2.092  -0.025
 5468TIP3   OH216409   3.221   0.670   1.963
 5468TIP3    H116410   3.128   0.651   1.948
 5468TIP3    H216411   3.233   0.663   2.058
 5469TIP3   OH216412   2.122   2.833   1.347
 5469TIP3    H116413   2.107   2.892   1.273
 5469TIP3    H216414   2.035   2.796   1.366
 5470TIP3   OH216415   6.346   4.846   3.628
 5470TIP3    H116416   6.400   4.804   3.695
 5470TIP3    H216417   6.258   4.846   3.665
 5471TIP3   OH216418   0.474   2.858   3.029
 5471TIP3    H116419   0.448   2.941   2.990
 5471TIP3    H216420   0.557   2.836   2.986
 5472TIP3   OH216421   6.201   3.802   2.673
 5472TIP3    H116422   6.183   3.891   2.704
 5472TIP3    H216423   6.138   3.788   2.602
 5473TIP3   OH216424   3.118   5.033   1.355
 5473TIP3    H116425   3.131   4.979   1.433
 5473TIP3    H216426   3.107   5.122   1.389
 5474TIP3   OH216427   1.716   5.592   0.036
 5474TIP3    H116428   1.658   5.596  -0.040
 5474TIP3    H216429   1.799   5.627   0.005
 5475TIP3   OH216430   5.052   5.328   4.671
 5475TIP3    H116431   5.082   5.419   4.679
 5475TIP3    H216432   5.076   5.302   4.582
 5476TIP3   OH216433   6.008   1.036   3.848
 5476TIP3    H116434   5.949   1.066   3.917
 5476TIP3    H216435   5.964   1.060   3.766
 5477TIP3   OH216436   1.333   0.048   3.761
 5477TIP3    H116437   1.406  -0.011   3.777
 5477TIP3    H216438   1.351   0.085   3.674
 5478TIP3   OH216439   0.454   1.953   2.790
 5478TIP3    H116440   0.460   1.935   2.696
 5478TIP3    H216441   0.521   2.019   2.806
 5479TIP3   OH216442   2.675   1.472   3.413
 5479TIP3    H116443   2.631   1.508   3.336
 5479TIP3    H216444   2.768   1.472   3.389
 5480TIP3   OH216445   3.740   5.047   2.512
 5480TIP3    H116446   3.661   5.089   2.479
 5480TIP3    H216447   3.725   4.953   2.500
 5481TIP3   OH216448   1.705   0.031   3.239
 5481TIP3    H116449   1.754  -0.036   3.286
 5481TIP3    H216450   1.754   0.112   3.253
 5482TIP3   OH216451   2.676   1.428   3.670
 5482TIP3    H116452   2.705   1.432   3.579
 5482TIP3    H216453   2.649   1.518   3.690
 5483TIP3   OH216454   3.066   1.231   3.723
 5483TIP3    H116455   3.140   1.283   3.754
 5483TIP3    H216456   3.106   1.161   3.672
 5484TIP3   OH216457   4.495   3.634   0.107
 5484TIP3    H116458   4.443   3.554   0.106
 5484TIP3    H216459   4.493   3.662   0.199
 5485TIP3   OH216460   1.264   3.834   0.646
 5485TIP3    H116461   1.293   3.757   0.596
 5485TIP3    H216462   1.264   3.805   0.737
 5486TIP3   OH216463   4.305   3.418   2.841
 5486TIP3    H116464   4.384   3.406   2.788
 5486TIP3    H216465   4.233   3.414   2.778
 5487TIP3   OH216466   0.935   2.400   1.384
 5487TIP3    H116467   1.010   2.439   1.428
 5487TIP3    H216468   0.940   2.435   1.294
 5488TIP3   OH216469   0.029   3.429   1.332
 5488TIP3    H116470   0.095   3.378   1.284
 5488TIP3    H216471   0.042   3.404   1.423
 5489TIP3   OH216472   3.699   1.274   1.659
 5489TIP3    H116473   3.759   1.223   1.605
 5489TIP3    H216474   3.748   1.353   1.682
 5490TIP3   OH216475   3.841   0.069   3.036
 5490TIP3    H116476   3.884   0.137   3.089
 5490TIP3    H216477   3.875   0.082   2.948
 5491TIP3   OH216478   0.842   2.419   2.945
 5491TIP3    H116479   0.902   2.467   3.002
 5491TIP3    H216480   0.897   2.357   2.898
 5492TIP3   OH216481   0.668   1.294   4.299
 5492TIP3    H116482   0.597   1.274   4.237
 5492TIP3    H216483   0.652   1.237   4.373
 5493TIP3   OH216484   2.431   5.414   1.560
 5493TIP3    H116485   2.407   5.365   1.482
 5493TIP3    H216486   2.516   5.453   1.539
 5494TIP3   OH216487   2.586   3.386   1.407
 5494TIP3    H116488   2.496   3.402   1.437
 5494TIP3    H216489   2.625   3.472   1.399
 5495TIP3   OH216490   4.481   0.076   2.997
 5495TIP3    H116491   4.419   0.098   3.066
 5495TIP3    H216492   4.555   0.135   3.011
 5496TIP3   OH216493   4.777   3.181   0.364
 5496TIP3    H116494   4.688   3.161   0.335
 5496TIP3    H216495   4.785   3.275   0.353
 5497TIP3   OH216496   0.953   1.055   4.369
 5497TIP3    H116497   1.027   1.034   4.425
 5497TIP3    H216498   0.882   0.999   4.401
 5498TIP3   OH216499   6.291   2.317   1.523
 5498TIP3    H116500   6.263   2.243   1.577
 5498TIP3    H216501   6.338   2.278   1.450
 5499TIP3   OH216502   5.187   1.737   4.426
 5499TIP3    H116503   5.145   1.763   4.343
 5499TIP3    H216504   5.238   1.660   4.403
 5500TIP3   OH216505   5.753   0.283   0.595
 5500TIP3    H116506   5.847   0.285   0.577
 5500TIP3    H216507   5.712   0.266   0.510
 5501TIP3   OH216508   2.369   4.538   2.967
 5501TIP3    H116509   2.279   4.568   2.956
 5501TIP3    H216510   2.361   4.452   3.009
 5502TIP3   OH216511   1.378   4.950   2.787
 5502TIP3    H116512   1.336   4.873   2.749
 5502TIP3    H216513   1.463   4.956   2.743
 5503TIP3   OH216514   0.563   4.684   4.663
 5503TIP3    H116515   0.526   4.734   4.591
 5503TIP3    H216516   0.622   4.621   4.622
 5504TIP3   OH216517   3.938   1.313   4.741
 5504TIP3    H116518   3.898   1.271   4.664
 5504TIP3    H216519   4.009   1.254   4.766
 5505TIP3   OH216520   1.328   4.038   3.162
 5505TIP3    H116521   1.255   4.049   3.223
 5505TIP3    H216522   1.286   4.015   3.079
 5506TIP3   OH216523   5.895   2.725   4.471
 5506TIP3    H116524   5.801   2.731   4.453
 5506TIP3    H216525   5.935   2.716   4.384
 5507TIP3   OH216526   3.123   2.848   1.871
 5507TIP3    H116527   3.126   2.816   1.961
 5507TIP3    H216528   3.092   2.773   1.820
 5508TIP3   OH216529   6.279   2.510   0.598
 5508TIP3    H116530   6.277   2.419   0.629
 5508TIP3    H216531   6.346   2.552   0.651
 5509TIP3   OH216532   3.456   3.033   0.274
 5509TIP3    H116533   3.366   3.026   0.243
 5509TIP3    H216534   3.505   2.968   0.224
 5510TIP3   OH216535   1.001   4.190   2.625
 5510TIP3    H116536   1.005   4.221   2.535
 5510TIP3    H216537   1.042   4.103   2.622
 5511TIP3   OH216538   0.588   0.412   0.575
 5511TIP3    H116539   0.640   0.444   0.502
 5511TIP3    H216540   0.547   0.332   0.542
 5512TIP3   OH216541   1.517   4.321   4.463
 5512TIP3    H116542   1.535   4.359   4.377
 5512TIP3    H216543   1.604   4.305   4.501
 5513TIP3   OH216544   3.554   2.722   2.870
 5513TIP3    H116545   3.483   2.782   2.892
 5513TIP3    H216546   3.510   2.644   2.836
 5514TIP3   OH216547   2.274   2.175   5.121
 5514TIP3    H116548   2.369   2.176   5.111
 5514TIP3    H216549   2.256   2.245   5.184
 5515TIP3   OH216550   5.492   0.668   1.233
 5515TIP3    H116551   5.490   0.576   1.261
 5515TIP3    H216552   5.565   0.673   1.172
 5516TIP3   OH216553   1.015   0.562   0.114
 5516TIP3    H116554   1.028   0.648   0.152
 5516TIP3    H216555   1.100   0.520   0.120
 5517TIP3   OH216556   3.708   0.970   1.211
 5517TIP3    H116557   3.669   1.023   1.280
 5517TIP3    H216558   3.637   0.912   1.183
 5518TIP3   OH216559   4.091   0.585   4.751
 5518TIP3    H116560   4.173   0.535   4.751
 5518TIP3    H216561   4.108   0.660   4.694
 5519TIP3   OH216562   5.291   2.425   4.947
 5519TIP3    H116563   5.333   2.432   4.861
 5519TIP3    H216564   5.350   2.368   4.997
 5520TIP3   OH216565   6.066   2.744   4.268
 5520TIP3    H116566   6.105   2.663   4.237
 5520TIP3    H216567   6.079   2.806   4.197
 5521TIP3   OH216568   2.469   0.463   2.423
 5521TIP3    H116569   2.431   0.392   2.371
 5521TIP3    H216570   2.394   0.510   2.459
 5522TIP3   OH216571   0.345   4.664   2.807
 5522TIP3    H116572   0.333   4.579   2.765
 5522TIP3    H216573   0.436   4.663   2.836
 5523TIP3   OH216574   2.742   0.151   2.523
 5523TIP3    H116575   2.794   0.194   2.455
 5523TIP3    H216576   2.804   0.137   2.595
 5524TIP3   OH216577   2.808   4.087   2.259
 5524TIP3    H116578   2.801   4.173   2.217
 5524TIP3    H216579   2.867   4.100   2.332
 5525TIP3   OH216580   5.247   5.686   4.141
 5525TIP3    H116581   5.209   5.733   4.216
 5525TIP3    H216582   5.216   5.596   4.151
 5526TIP3   OH216583   0.135   2.340   1.021
 5526TIP3    H116584   0.086   2.388   1.088
 5526TIP3    H216585   0.208   2.302   1.069
 5527TIP3   OH216586   4.796   2.654   0.240
 5527TIP3    H116587   4.867   2.716   0.220
 5527TIP3    H216588   4.725   2.708   0.273
 5528TIP3   OH216589   0.407   1.047   3.891
 5528TIP3    H116590   0.396   0.958   3.924
 5528TIP3    H216591   0.402   1.038   3.796
 5529TIP3   OH216592   4.688   1.292   2.313
 5529TIP3    H116593   4.681   1.316   2.220
 5529TIP3    H216594   4.741   1.212   2.312
 5530TIP3   OH216595   1.397   5.538   2.666
 5530TIP3    H116596   1.303   5.525   2.650
 5530TIP3    H216597   1.420   5.471   2.731
 5531TIP3   OH216598   3.421   3.106   4.512
 5531TIP3    H116599   3.500   3.070   4.552
 5531TIP3    H216600   3.430   3.201   4.523
 5532TIP3   OH216601   2.437   5.974   4.563
 5532TIP3    H116602   2.469   5.940   4.480
 5532TIP3    H216603   2.508   5.960   4.626
 5533TIP3   OH216604   1.212   2.408   4.379
 5533TIP3    H116605   1.135   2.354   4.397
 5533TIP3    H216606   1.187   2.461   4.304
 5534TIP3   OH216607   4.580   3.319   3.332
 5534TIP3    H116608   4.632   3.298   3.255
 5534TIP3    H216609   4.516   3.248   3.337
 5535TIP3   OH216610   4.007   0.080   1.282
 5535TIP3    H116611   3.988   0.081   1.376
 5535TIP3    H216612   4.103   0.082   1.278
 5536TIP3   OH216613   4.293   3.298   2.363
 5536TIP3    H116614   4.308   3.387   2.333
 5536TIP3    H216615   4.329   3.243   2.293
 5537TIP3   OH216616   4.071   0.904   0.050
 5537TIP3    H116617   4.147   0.909  -0.008
 5537TIP3    H216618   3.996   0.923  -0.006
 5538TIP3   OH216619   3.995   2.645   2.505
 5538TIP3    H116620   3.901   2.631   2.517
 5538TIP3    H216621   4.021   2.579   2.441
 5539TIP3   OH216622   1.702   0.590   3.810
 5539TIP3    H116623   1.724   0.627   3.896
 5539TIP3    H216624   1.686   0.497   3.828
 5540TIP3   OH216625   0.713   0.340   4.416
 5540TIP3    H116626   0.637   0.365   4.469
 5540TIP3    H216627   0.706   0.393   4.337
 5541TIP3   OH216628   0.176   1.600   1.666
 5541TIP3    H116629   0.223   1.663   1.720
 5541TIP3    H216630   0.145   1.651   1.591
 5542TIP3   OH216631   4.458   3.499   1.398
 5542TIP3    H116632   4.472   3.507   1.303
 5542TIP3    H216633   4.381   3.554   1.415
 5543TIP3   OH216634   5.054   3.376   1.281
 5543TIP3    H116635   4.967   3.385   1.242
 5543TIP3    H216636   5.043   3.404   1.372
 5544TIP3   OH216637   2.075   5.907   2.615
 5544TIP3    H116638   2.163   5.871   2.610
 5544TIP3    H216639   2.072   5.974   2.546
 5545TIP3   OH216640   0.621   4.662   4.282
 5545TIP3    H116641   0.601   4.568   4.274
 5545TIP3    H216642   0.716   4.666   4.280
 5546TIP3   OH216643   1.506   3.950   0.132
 5546TIP3    H116644   1.456   3.957   0.050
 5546TIP3    H216645   1.504   4.038   0.169
 5547TIP3   OH216646   5.733   3.397   4.387
 5547TIP3    H116647   5.796   3.327   4.406
 5547TIP3    H216648   5.730   3.449   4.466
 5548TIP3   OH216649   1.842   3.169   1.342
 5548TIP3    H116650   1.868   3.077   1.332
 5548TIP3    H216651   1.915   3.218   1.305
 5549TIP3   OH216652   2.952   3.745   0.190
 5549TIP3    H116653   3.031   3.708   0.150
 5549TIP3    H216654   2.888   3.748   0.119
 5550TIP3   OH216655   2.224   2.449   2.158
 5550TIP3    H116656   2.223   2.434   2.252
 5550TIP3    H216657   2.313   2.425   2.131
 5551TIP3   OH216658   1.147   3.202   3.150
 5551TIP3    H116659   1.163   3.204   3.244
 5551TIP3    H216660   1.206   3.268   3.113
 5552TIP3   OH216661   0.973   4.788   0.475
 5552TIP3    H116662   0.958   4.864   0.419
 5552TIP3    H216663   1.060   4.757   0.450
 5553TIP3   OH216664   0.673   5.398   0.069
 5553TIP3    H116665   0.752   5.347   0.053
 5553TIP3    H216666   0.702   5.489   0.065
 5554TIP3   OH216667   5.112   5.578   4.767
 5554TIP3    H116668   5.185   5.607   4.821
 5554TIP3    H216669   5.055   5.654   4.761
 5555TIP3   OH216670   2.892   5.446   0.554
 5555TIP3    H116671   2.802   5.447   0.588
 5555TIP3    H216672   2.882   5.454   0.459
 5556TIP3   OH216673   5.711   4.211   2.733
 5556TIP3    H116674   5.653   4.189   2.660
 5556TIP3    H216675   5.685   4.151   2.803
 5557TIP3   OH216676   2.591   1.146   3.006
 5557TIP3    H116677   2.533   1.222   3.017
 5557TIP3    H216678   2.651   1.172   2.936
 5558TIP3   OH216679   4.709   5.102   1.344
 5558TIP3    H116680   4.744   5.120   1.432
 5558TIP3    H216681   4.635   5.043   1.359
 5559TIP3   OH216682   4.629   4.221   0.737
 5559TIP3    H116683   4.601   4.308   0.708
 5559TIP3    H216684   4.691   4.238   0.808
 5560TIP3   OH216685   3.450   5.826   0.183
 5560TIP3    H116686   3.419   5.908   0.222
 5560TIP3    H216687   3.545   5.830   0.190
 5561TIP3   OH216688   1.791   5.391   0.392
 5561TIP3    H116689   1.792   5.367   0.299
 5561TIP3    H216690   1.698   5.406   0.412
 5562TIP3   OH216691   4.075   5.655   3.987
 5562TIP3    H116692   4.042   5.666   3.898
 5562TIP3    H216693   4.026   5.718   4.040
 5563TIP3   OH216694   6.053   5.821   0.271
 5563TIP3    H116695   6.079   5.871   0.348
 5563TIP3    H216696   5.962   5.795   0.289
 5564TIP3   OH216697   3.425   4.467   1.583
 5564TIP3    H116698   3.497   4.406   1.569
 5564TIP3    H216699   3.432   4.530   1.512
 5565TIP3   OH216700   0.613   0.457   2.603
 5565TIP3    H116701   0.604   0.543   2.562
 5565TIP3    H216702   0.582   0.396   2.536
 5566TIP3   OH216703   5.837   0.422   4.336
 5566TIP3    H116704   5.776   0.423   4.262
 5566TIP3    H216705   5.812   0.499   4.388
 5567TIP3   OH216706   2.269   1.386   2.533
 5567TIP3    H116707   2.316   1.469   2.530
 5567TIP3    H216708   2.231   1.377   2.446
 5568TIP3   OH216709   5.883   5.394   4.874
 5568TIP3    H116710   5.979   5.393   4.876
 5568TIP3    H216711   5.861   5.446   4.796
 5569TIP3   OH216712   0.258   2.385   1.964
 5569TIP3    H116713   0.176   2.337   1.969
 5569TIP3    H216714   0.234   2.472   1.931
 5570TIP3   OH216715   5.530   3.343   2.391
 5570TIP3    H116716   5.551   3.415   2.332
 5570TIP3    H216717   5.510   3.269   2.333
 5571TIP3   OH216718   2.131   1.544   4.299
 5571TIP3    H116719   2.073   1.594   4.357
 5571TIP3    H216720   2.097   1.455   4.303
 5572TIP3   OH216721   0.206   0.760   1.503
 5572TIP3    H116722   0.219   0.849   1.470
 5572TIP3    H216723   0.244   0.760   1.591
 5573TIP3   OH216724   5.540   2.144   2.292
 5573TIP3    H116725   5.633   2.163   2.299
 5573TIP3    H216726   5.500   2.228   2.272
 5574TIP3   OH216727   1.782   3.357   3.136
 5574TIP3    H116728   1.753   3.448   3.142
 5574TIP3    H216729   1.707   3.306   3.164
 5575TIP3   OH216730   3.590   3.255   0.612
 5575TIP3    H116731   3.507   3.209   0.624
 5575TIP3    H216732   3.574   3.343   0.647
 5576TIP3   OH216733   0.775   2.699   3.167
 5576TIP3    H116734   0.735   2.780   3.136
 5576TIP3    H216735   0.863   2.700   3.129
 5577TIP3   OH216736   6.131   0.301   3.593
 5577TIP3    H116737   6.074   0.252   3.534
 5577TIP3    H216738   6.104   0.392   3.583
 5578TIP3   OH216739   3.310   4.285   0.388
 5578TIP3    H116740   3.278   4.278   0.298
 5578TIP3    H216741   3.308   4.379   0.407
 5579TIP3   OH216742   4.829   2.001   4.692
 5579TIP3    H116743   4.792   1.928   4.741
 5579TIP3    H216744   4.761   2.068   4.694
 5580TIP3   OH216745   1.300   3.643   3.523
 5580TIP3    H116746   1.354   3.566   3.505
 5580TIP3    H216747   1.361   3.706   3.562
 5581TIP3   OH216748   5.841   1.834   3.311
 5581TIP3    H116749   5.777   1.892   3.269
 5581TIP3    H216750   5.809   1.825   3.401
 5582TIP3   OH216751   2.652   0.615   2.308
 5582TIP3    H116752   2.666   0.600   2.215
 5582TIP3    H216753   2.589   0.548   2.334
 5583TIP3   OH216754   6.145   3.235   4.560
 5583TIP3    H116755   6.233   3.217   4.593
 5583TIP3    H216756   6.093   3.159   4.586
 5584TIP3   OH216757   2.382   0.923   1.871
 5584TIP3    H116758   2.379   0.847   1.929
 5584TIP3    H216759   2.473   0.927   1.842
 5585TIP3   OH216760   3.372   2.054   3.295
 5585TIP3    H116761   3.305   2.086   3.356
 5585TIP3    H216762   3.331   1.980   3.250
 5586TIP3   OH216763   1.812   3.286   4.674
 5586TIP3    H116764   1.890   3.285   4.618
 5586TIP3    H216765   1.743   3.249   4.618
 5587TIP3   OH216766   5.662   2.487   0.819
 5587TIP3    H116767   5.662   2.537   0.901
 5587TIP3    H216768   5.570   2.483   0.794
 5588TIP3   OH216769   0.938   1.488   2.478
 5588TIP3    H116770   0.894   1.528   2.403
 5588TIP3    H216771   1.027   1.472   2.448
 5589TIP3   OH216772   3.685   3.291   3.383
 5589TIP3    H116773   3.696   3.309   3.289
 5589TIP3    H216774   3.660   3.375   3.421
 5590TIP3   OH216775   6.277   4.413   4.872
 5590TIP3    H116776   6.258   4.334   4.922
 5590TIP3    H216777   6.270   4.484   4.935
 5591TIP3   OH216778   3.878   2.171   0.258
 5591TIP3    H116779   3.940   2.184   0.187
 5591TIP3    H216780   3.921   2.210   0.335
 5592TIP3   OH216781   1.909   3.822   3.668
 5592TIP3    H116782   1.947   3.844   3.753
 5592TIP3    H216783   1.971   3.860   3.604
 5593TIP3   OH216784   4.309   1.108   2.529
 5593TIP3    H116785   4.404   1.116   2.530
 5593TIP3    H216786   4.282   1.151   2.448
 5594TIP3   OH216787   1.945   3.966   4.322
 5594TIP3    H116788   1.949   3.894   4.259
 5594TIP3    H216789   2.007   3.941   4.390
 5595TIP3   OH216790   5.746   5.357   3.329
 5595TIP3    H116791   5.798   5.345   3.250
 5595TIP3    H216792   5.694   5.277   3.337
 5596TIP3   OH216793   5.376   1.148   4.795
 5596TIP3    H116794   5.337   1.161   4.881
 5596TIP3    H216795   5.340   1.218   4.741
 5597TIP3   OH216796   6.265   4.917   5.165
 5597TIP3    H116797   6.350   4.886   5.135
 5597TIP3    H216798   6.271   4.914   5.261
 5598TIP3   OH216799   3.278   4.809   4.078
 5598TIP3    H116800   3.328   4.729   4.095
 5598TIP3    H216801   3.242   4.796   3.990
 5599TIP3   OH216802   3.444   5.236   3.640
 5599TIP3    H116803   3.507   5.294   3.598
 5599TIP3    H216804   3.435   5.270   3.729
 5600TIP3   OH216805   4.077   5.698   5.103
 5600TIP3    H116806   4.113   5.735   5.184
 5600TIP3    H216807   4.058   5.774   5.049
 5601TIP3   OH216808   4.196   4.437   0.424
 5601TIP3    H116809   4.134   4.507   0.445
 5601TIP3    H216810   4.195   4.432   0.328
 5602TIP3   OH216811   3.904   4.370   4.419
 5602TIP3    H116812   3.982   4.414   4.385
 5602TIP3    H216813   3.926   4.348   4.510
 5603TIP3   OH216814   2.217   3.952   4.031
 5603TIP3    H116815   2.128   3.986   4.025
 5603TIP3    H216816   2.245   3.972   4.120
 5604TIP3   OH216817   1.949   5.235   2.365
 5604TIP3    H116818   1.948   5.292   2.289
 5604TIP3    H216819   1.857   5.210   2.377
 5605TIP3   OH216820   3.034   3.604   1.878
 5605TIP3    H116821   3.059   3.534   1.818
 5605TIP3    H216822   2.973   3.562   1.939
 5606TIP3   OH216823   4.002   5.821   2.601
 5606TIP3    H116824   4.018   5.901   2.651
 5606TIP3    H216825   4.046   5.836   2.517
 5607TIP3   OH216826   0.477   3.189   5.116
 5607TIP3    H116827   0.522   3.253   5.171
 5607TIP3    H216828   0.456   3.117   5.176
 5608TIP3   OH216829   5.180   3.291   2.799
 5608TIP3    H116830   5.095   3.272   2.759
 5608TIP3    H216831   5.238   3.305   2.725
 5609TIP3   OH216832   1.247   5.725   3.717
 5609TIP3    H116833   1.173   5.738   3.658
 5609TIP3    H216834   1.221   5.768   3.798
 5610TIP3   OH216835   4.582   5.268   2.866
 5610TIP3    H116836   4.510   5.229   2.817
 5610TIP3    H216837   4.657   5.210   2.851
 5611TIP3   OH216838   3.310   3.210   0.724
 5611TIP3    H116839   3.273   3.150   0.789
 5611TIP3    H216840   3.322   3.292   0.771
 5612TIP3   OH216841   0.850   5.184   1.126
 5612TIP3    H116842   0.933   5.137   1.116
 5612TIP3    H216843   0.865   5.242   1.201
 5613TIP3   OH216844   0.058   3.447   1.897
 5613TIP3    H116845  -0.008   3.422   1.962
 5613TIP3    H216846   0.089   3.533   1.926
 5614TIP3   OH216847   3.495   3.478   3.571
 5614TIP3    H116848   3.495   3.383   3.584
 5614TIP3    H216849   3.573   3.508   3.617
 5615TIP3   OH216850   4.365   5.965   0.459
 5615TIP3    H116851   4.320   5.985   0.541
 5615TIP3    H216852   4.353   5.871   0.447
 5616TIP3   OH216853   4.962   0.115   4.856
 5616TIP3    H116854   5.033   0.104   4.792
 5616TIP3    H216855   5.008   0.131   4.939
 5617TIP3   OH216856   5.216   1.641   1.761
 5617TIP3    H116857   5.216   1.546   1.777
 5617TIP3    H216858   5.123   1.663   1.749
 5618TIP3   OH216859   4.884   0.364   1.359
 5618TIP3    H116860   4.941   0.287   1.368
 5618TIP3    H216861   4.795   0.329   1.365
 5619TIP3   OH216862   0.669   2.686   0.546
 5619TIP3    H116863   0.608   2.681   0.473
 5619TIP3    H216864   0.656   2.604   0.594
 5620TIP3   OH216865   4.874   5.659   1.769
 5620TIP3    H116866   4.915   5.642   1.854
 5620TIP3    H216867   4.822   5.738   1.783
 5621TIP3   OH216868   5.978   2.982   1.847
 5621TIP3    H116869   5.999   3.065   1.891
 5621TIP3    H216870   5.884   2.987   1.831
 5622TIP3   OH216871   2.615   5.869   0.419
 5622TIP3    H116872   2.625   5.821   0.336
 5622TIP3    H216873   2.542   5.928   0.404
 5623TIP3   OH216874   5.221   5.507   3.904
 5623TIP3    H116875   5.284   5.558   3.955
 5623TIP3    H216876   5.234   5.417   3.934
 5624TIP3   OH216877   4.700   0.145   5.066
 5624TIP3    H116878   4.725   0.208   5.133
 5624TIP3    H216879   4.633   0.091   5.107
 5625TIP3   OH216880   4.186   2.882   0.240
 5625TIP3    H116881   4.092   2.865   0.234
 5625TIP3    H216882   4.216   2.827   0.312
 5626TIP3   OH216883   0.652   1.859   4.815
 5626TIP3    H116884   0.617   1.845   4.727
 5626TIP3    H216885   0.747   1.866   4.802
 5627TIP3   OH216886   4.391   5.237   1.230
 5627TIP3    H116887   4.303   5.273   1.222
 5627TIP3    H216888   4.421   5.267   1.316
 5628TIP3   OH216889   4.599   1.506   1.298
 5628TIP3    H116890   4.530   1.566   1.271
 5628TIP3    H216891   4.630   1.466   1.216
 5629TIP3   OH216892   4.768   3.556   0.423
 5629TIP3    H116893   4.826   3.534   0.349
 5629TIP3    H216894   4.741   3.646   0.407
 5630TIP3   OH216895   4.719   2.281   1.680
 5630TIP3    H116896   4.701   2.344   1.750
 5630TIP3    H216897   4.678   2.318   1.602
 5631TIP3   OH216898   3.247   3.455   3.991
 5631TIP3    H116899   3.288   3.375   4.024
 5631TIP3    H216900   3.194   3.487   4.064
 5632TIP3   OH216901   5.346   2.060   3.308
 5632TIP3    H116902   5.375   2.130   3.250
 5632TIP3    H216903   5.263   2.092   3.345
 5633TIP3   OH216904   6.192   0.905   1.389
 5633TIP3    H116905   6.163   0.988   1.427
 5633TIP3    H216906   6.147   0.838   1.440
 5634TIP3   OH216907   1.526   5.423   1.884
 5634TIP3    H116908   1.493   5.385   1.966
 5634TIP3    H216909   1.535   5.516   1.903
 5635TIP3   OH216910   4.445   5.819   1.832
 5635TIP3    H116911   4.537   5.837   1.850
 5635TIP3    H216912   4.418   5.756   1.898
 5636TIP3   OH216913   1.501   3.890   0.412
 5636TIP3    H116914   1.437   3.955   0.439
 5636TIP3    H216915   1.498   3.891   0.316
 5637TIP3   OH216916   4.264   0.698   0.174
 5637TIP3    H116917   4.315   0.774   0.147
 5637TIP3    H216918   4.262   0.641   0.097
 5638TIP3   OH216919   2.226   0.954   0.748
 5638TIP3    H116920   2.261   0.921   0.831
 5638TIP3    H216921   2.139   0.987   0.769
 5639TIP3   OH216922   0.134   0.036   1.581
 5639TIP3    H116923   0.198  -0.006   1.523
 5639TIP3    H216924   0.144   0.130   1.564
 5640TIP3   OH216925   5.501   3.083   1.210
 5640TIP3    H116926   5.528   3.042   1.128
 5640TIP3    H216927   5.420   3.129   1.188
 5641TIP3   OH216928   4.457   0.277   4.521
 5641TIP3    H116929   4.502   0.197   4.547
 5641TIP3    H216930   4.403   0.251   4.446
 5642TIP3   OH216931   5.755   2.114   4.490
 5642TIP3    H116932   5.809   2.049   4.446
 5642TIP3    H216933   5.816   2.159   4.549
 5643TIP3   OH216934   3.246   1.056   3.047
 5643TIP3    H116935   3.328   1.106   3.049
 5643TIP3    H216936   3.178   1.122   3.044
 5644TIP3   OH216937   5.525   3.839   3.038
 5644TIP3    H116938   5.483   3.780   2.976
 5644TIP3    H216939   5.529   3.788   3.120
 5645TIP3   OH216940   0.914   1.960   1.607
 5645TIP3    H116941   0.912   2.034   1.546
 5645TIP3    H216942   0.822   1.938   1.621
 5646TIP3   OH216943   2.048   4.896   3.139
 5646TIP3    H116944   1.999   4.961   3.189
 5646TIP3    H216945   2.077   4.833   3.204
 5647TIP3   OH216946   1.528   3.214   4.988
 5647TIP3    H116947   1.498   3.297   4.951
 5647TIP3    H216948   1.620   3.228   5.007
 5648TIP3   OH216949   5.773   1.310   2.122
 5648TIP3    H116950   5.749   1.225   2.084
 5648TIP3    H216951   5.744   1.304   2.213
 5649TIP3   OH216952   6.267   5.036   1.069
 5649TIP3    H116953   6.302   4.976   1.135
 5649TIP3    H216954   6.242   4.979   0.996
 5650TIP3   OH216955   1.032   1.137   3.900
 5650TIP3    H116956   1.017   1.221   3.942
 5650TIP3    H216957   1.029   1.073   3.971
 5651TIP3   OH216958   3.394   3.881   4.381
 5651TIP3    H116959   3.359   3.968   4.361
 5651TIP3    H216960   3.488   3.895   4.394
 5652TIP3   OH216961   2.769   1.740   4.983
 5652TIP3    H116962   2.784   1.716   4.892
 5652TIP3    H216963   2.820   1.677   5.033
 5653TIP3   OH216964   5.084   5.320   2.664
 5653TIP3    H116965   4.991   5.342   2.667
 5653TIP3    H216966   5.103   5.286   2.752
 5654TIP3   OH216967   2.548   1.182   0.855
 5654TIP3    H116968   2.472   1.195   0.798
 5654TIP3    H216969   2.530   1.238   0.931
 5655TIP3   OH216970   2.470   5.184   3.812
 5655TIP3    H116971   2.495   5.214   3.900
 5655TIP3    H216972   2.380   5.213   3.801
 5656TIP3   OH216973   4.795   0.394   0.120
 5656TIP3    H116974   4.767   0.398   0.211
 5656TIP3    H216975   4.739   0.458   0.075
 5657TIP3   OH216976   4.827   2.343   4.141
 5657TIP3    H116977   4.887   2.269   4.131
 5657TIP3    H216978   4.873   2.404   4.199
 5658TIP3   OH216979   2.711   5.677   4.541
 5658TIP3    H116980   2.643   5.615   4.564
 5658TIP3    H216981   2.745   5.708   4.625
 5659TIP3   OH216982   2.696   3.066   4.373
 5659TIP3    H116983   2.787   3.039   4.359
 5659TIP3    H216984   2.652   2.987   4.404
 5660TIP3   OH216985   5.682   2.407   1.675
 5660TIP3    H116986   5.763   2.418   1.725
 5660TIP3    H216987   5.709   2.362   1.595
 5661TIP3   OH216988   1.966   1.103   1.158
 5661TIP3    H116989   1.896   1.125   1.219
 5661TIP3    H216990   1.970   1.008   1.159
 5662TIP3   OH216991   1.523   4.654   3.115
 5662TIP3    H116992   1.587   4.725   3.122
 5662TIP3    H216993   1.531   4.607   3.198
 5663TIP3   OH216994   5.387   1.386   0.161
 5663TIP3    H116995   5.342   1.337   0.093
 5663TIP3    H216996   5.350   1.474   0.156
 5664TIP3   OH216997   3.711   4.992   1.413
 5664TIP3    H116998   3.769   4.915   1.415
 5664TIP3    H216999   3.678   4.994   1.323
 5665TIP3   OH217000   5.770   3.086   4.466
 5665TIP3    H117001   5.771   3.048   4.378
 5665TIP3    H217002   5.850   3.053   4.507
 5666TIP3   OH217003   3.636   2.409   3.417
 5666TIP3    H117004   3.721   2.439   3.385
 5666TIP3    H217005   3.574   2.477   3.389
 5667TIP3   OH217006   4.904   5.116   2.864
 5667TIP3    H117007   4.919   5.022   2.875
 5667TIP3    H217008   4.854   5.122   2.782
 5668TIP3   OH217009   0.796   2.887   1.304
 5668TIP3    H117010   0.816   2.871   1.396
 5668TIP3    H217011   0.845   2.821   1.256
 5669TIP3   OH217012   4.841   3.967   3.449
 5669TIP3    H117013   4.770   3.995   3.391
 5669TIP3    H217014   4.883   4.048   3.477
 5670TIP3   OH217015   3.761   0.726   2.299
 5670TIP3    H117016   3.699   0.698   2.232
 5670TIP3    H217017   3.714   0.794   2.347
 5671TIP3   OH217018   5.997   0.424   0.487
 5671TIP3    H117019   6.036   0.431   0.574
 5671TIP3    H217020   5.933   0.495   0.484
 5672TIP3   OH217021   0.166   1.071   2.260
 5672TIP3    H117022   0.089   1.123   2.237
 5672TIP3    H217023   0.203   1.116   2.336
 5673TIP3   OH217024   2.445   1.149   3.722
 5673TIP3    H117025   2.539   1.152   3.739
 5673TIP3    H217026   2.409   1.224   3.768
 5674TIP3   OH217027   2.009   3.599   1.615
 5674TIP3    H117028   1.968   3.624   1.532
 5674TIP3    H217029   1.978   3.510   1.631
 5675TIP3   OH217030   3.978   2.909   0.813
 5675TIP3    H117031   3.949   2.996   0.786
 5675TIP3    H217032   4.007   2.868   0.731
 5676TIP3   OH217033   2.671   1.558   1.128
 5676TIP3    H117034   2.582   1.551   1.163
 5676TIP3    H217035   2.725   1.582   1.204
 5677TIP3   OH217036   3.149   5.897  -0.019
 5677TIP3    H117037   3.158   5.872   0.073
 5677TIP3    H217038   3.237   5.924  -0.046
 5678TIP3   OH217039   2.756   0.980   4.455
 5678TIP3    H117040   2.684   0.920   4.473
 5678TIP3    H217041   2.808   0.982   4.535
 5679TIP3   OH217042   5.406   3.247   2.970
 5679TIP3    H117043   5.470   3.314   2.949
 5679TIP3    H217044   5.340   3.253   2.901
 5680TIP3   OH217045   4.636   3.266   0.707
 5680TIP3    H117046   4.719   3.312   0.691
 5680TIP3    H217047   4.572   3.316   0.656
 5681TIP3   OH217048   2.121   4.037   3.490
 5681TIP3    H117049   2.105   4.132   3.494
 5681TIP3    H217050   2.109   4.015   3.398
 5682TIP3   OH217051   2.644   3.972   2.497
 5682TIP3    H117052   2.668   4.049   2.444
 5682TIP3    H217053   2.564   3.939   2.456
 5683TIP3   OH217054   5.330   0.954   0.776
 5683TIP3    H117055   5.330   0.871   0.728
 5683TIP3    H217056   5.264   1.007   0.732
 5684TIP3   OH217057   5.319   1.962   4.529
 5684TIP3    H117058   5.261   1.892   4.498
 5684TIP3    H217059   5.392   1.960   4.467
 5685TIP3   OH217060   6.137   2.137   4.316
 5685TIP3    H117061   6.049   2.173   4.319
 5685TIP3    H217062   6.165   2.132   4.407
 5686TIP3   OH217063   0.152   0.299   1.453
 5686TIP3    H117064   0.165   0.307   1.358
 5686TIP3    H217065   0.091   0.370   1.475
 5687TIP3   OH217066   4.248  -0.006   2.000
 5687TIP3    H117067   4.162   0.013   2.038
 5687TIP3    H217068   4.259   0.060   1.932
 5688TIP3   OH217069   5.118   3.861   4.235
 5688TIP3    H117070   5.131   3.796   4.165
 5688TIP3    H217071   5.178   3.833   4.305
 5689TIP3   OH217072   4.992   1.975   0.612
 5689TIP3    H117073   5.052   1.948   0.682
 5689TIP3    H217074   5.031   1.941   0.532
 5690TIP3   OH217075   2.631   0.222   0.292
 5690TIP3    H117076   2.612   0.130   0.270
 5690TIP3    H217077   2.667   0.218   0.380
 5691TIP3   OH217078   2.537   5.411   4.051
 5691TIP3    H117079   2.563   5.320   4.057
 5691TIP3    H217080   2.619   5.460   4.052
 5692TIP3   OH217081   4.455   4.620   4.461
 5692TIP3    H117082   4.544   4.625   4.495
 5692TIP3    H217083   4.453   4.540   4.409
 5693TIP3   OH217084   3.072   2.632   3.696
 5693TIP3    H117085   3.008   2.564   3.718
 5693TIP3    H217086   3.048   2.706   3.752
 5694TIP3   OH217087   2.300   1.912   2.619
 5694TIP3    H117088   2.366   1.949   2.560
 5694TIP3    H217089   2.267   1.986   2.669
 5695TIP3   OH217090   3.606   5.543   0.610
 5695TIP3    H117091   3.664   5.552   0.686
 5695TIP3    H217092   3.619   5.624   0.560
 5696TIP3   OH217093   1.799   1.263   3.458
 5696TIP3    H117094   1.748   1.249   3.378
 5696TIP3    H217095   1.856   1.186   3.463
 5697TIP3   OH217096   5.036   1.210   4.494
 5697TIP3    H117097   5.079   1.124   4.503
 5697TIP3    H217098   5.089   1.256   4.429
 5698TIP3   OH217099   5.243   4.719   2.482
 5698TIP3    H117100   5.209   4.790   2.537
 5698TIP3    H217101   5.166   4.685   2.436
 5699TIP3   OH217102   2.107   0.281   4.052
 5699TIP3    H117103   2.197   0.252   4.033
 5699TIP3    H217104   2.110   0.375   4.038
 5700TIP3   OH217105   6.021   0.343   4.125
 5700TIP3    H117106   5.950   0.350   4.188
 5700TIP3    H217107   6.075   0.270   4.156
 5701TIP3   OH217108   3.183   3.904   3.829
 5701TIP3    H117109   3.137   3.828   3.865
 5701TIP3    H217110   3.116   3.949   3.776
 5702TIP3   OH217111   1.101   5.268   4.872
 5702TIP3    H117112   1.129   5.187   4.830
 5702TIP3    H217113   1.179   5.300   4.918
 5703TIP3   OH217114   4.523   4.519   0.229
 5703TIP3    H117115   4.471   4.598   0.213
 5703TIP3    H217116   4.499   4.459   0.158
 5704TIP3   OH217117   1.270   4.818   1.265
 5704TIP3    H117118   1.247   4.911   1.268
 5704TIP3    H217119   1.186   4.773   1.268
 5705TIP3   OH217120   5.162   1.858   0.776
 5705TIP3    H117121   5.132   1.858   0.866
 5705TIP3    H217122   5.254   1.887   0.781
 5706TIP3   OH217123   5.155   4.145   0.366
 5706TIP3    H117124   5.118   4.215   0.312
 5706TIP3    H217125   5.240   4.127   0.327
 5707TIP3   OH217126   5.610   2.637   1.850
 5707TIP3    H117127   5.652   2.596   1.774
 5707TIP3    H217128   5.523   2.660   1.819
 5708TIP3   OH217129   2.704   1.360   5.168
 5708TIP3    H117130   2.715   1.298   5.096
 5708TIP3    H217131   2.610   1.362   5.184
 5709TIP3   OH217132   0.527   4.210   3.415
 5709TIP3    H117133   0.486   4.207   3.501
 5709TIP3    H217134   0.465   4.260   3.360
 5710TIP3   OH217135   2.637   5.527   3.466
 5710TIP3    H117136   2.722   5.489   3.486
 5710TIP3    H217137   2.579   5.493   3.534
 5711TIP3   OH217138   2.706   0.643   4.704
 5711TIP3    H117139   2.748   0.706   4.762
 5711TIP3    H217140   2.678   0.695   4.628
 5712TIP3   OH217141   2.360   4.460   2.026
 5712TIP3    H117142   2.278   4.471   2.075
 5712TIP3    H217143   2.349   4.514   1.948
 5713TIP3   OH217144   3.892   4.477   0.282
 5713TIP3    H117145   3.814   4.520   0.246
 5713TIP3    H217146   3.867   4.452   0.371
 5714TIP3   OH217147   2.715   4.119   1.268
 5714TIP3    H117148   2.726   4.035   1.311
 5714TIP3    H217149   2.625   4.145   1.289
 5715TIP3   OH217150   0.450   3.289   3.769
 5715TIP3    H117151   0.509   3.299   3.844
 5715TIP3    H217152   0.501   3.240   3.704
 5716TIP3   OH217153   2.694   3.152   3.551
 5716TIP3    H117154   2.652   3.070   3.577
 5716TIP3    H217155   2.623   3.204   3.514
 5717TIP3   OH217156   6.104   0.671   4.477
 5717TIP3    H117157   6.070   0.657   4.566
 5717TIP3    H217158   6.195   0.642   4.481
 5718TIP3   OH217159   0.808   2.130   0.991
 5718TIP3    H117160   0.838   2.218   1.012
 5718TIP3    H217161   0.871   2.072   1.034
 5719TIP3   OH217162   3.426   1.455   3.186
 5719TIP3    H117163   3.518   1.438   3.202
 5719TIP3    H217164   3.385   1.448   3.272
 5720TIP3   OH217165   1.068   0.820   0.868
 5720TIP3    H117166   1.135   0.774   0.917
 5720TIP3    H217167   1.109   0.839   0.783
 5721TIP3   OH217168   0.128   4.896   2.380
 5721TIP3    H117169   0.177   4.892   2.462
 5721TIP3    H217170   0.050   4.842   2.396
 5722TIP3   OH217171   5.350   5.494   0.944
 5722TIP3    H117172   5.354   5.427   0.876
 5722TIP3    H217173   5.334   5.575   0.897
 5723TIP3   OH217174   1.717   0.395   0.512
 5723TIP3    H117175   1.730   0.489   0.529
 5723TIP3    H217176   1.755   0.381   0.426
 5724TIP3   OH217177   5.850   5.691   2.785
 5724TIP3    H117178   5.765   5.691   2.828
 5724TIP3    H217179   5.853   5.776   2.740
 5725TIP3   OH217180   3.501   4.206   1.560
 5725TIP3    H117181   3.438   4.166   1.619
 5725TIP3    H217182   3.476   4.174   1.473
 5726TIP3   OH217183   5.097   0.974   1.171
 5726TIP3    H117184   5.064   0.918   1.241
 5726TIP3    H217185   5.034   0.962   1.100
 5727TIP3   OH217186   2.428   2.208   2.101
 5727TIP3    H117187   2.457   2.123   2.069
 5727TIP3    H217188   2.386   2.189   2.185
 5728TIP3   OH217189   2.193   3.598   0.679
 5728TIP3    H117190   2.254   3.564   0.614
 5728TIP3    H217191   2.234   3.579   0.763
 5729TIP3   OH217192   6.297   2.609   2.879
 5729TIP3    H117193   6.355   2.548   2.923
 5729TIP3    H217194   6.209   2.574   2.896
 5730TIP3   OH217195   2.370   5.388   1.810
 5730TIP3    H117196   2.391   5.381   1.717
 5730TIP3    H217197   2.285   5.346   1.819
 5731TIP3   OH217198   1.699   4.810   4.700
 5731TIP3    H117199   1.764   4.784   4.765
 5731TIP3    H217200   1.742   4.797   4.615
 5732TIP3   OH217201   0.383   2.904   0.292
 5732TIP3    H117202   0.431   2.986   0.283
 5732TIP3    H217203   0.442   2.837   0.259
 5733TIP3   OH217204   4.388   2.092   4.376
 5733TIP3    H117205   4.365   2.077   4.468
 5733TIP3    H217206   4.483   2.084   4.374
 5734TIP3   OH217207   3.249   3.070   4.189
 5734TIP3    H117208   3.270   2.997   4.248
 5734TIP3    H217209   3.212   3.137   4.247
 5735TIP3   OH217210   0.692   0.533   2.848
 5735TIP3    H117211   0.673   0.481   2.771
 5735TIP3    H217212   0.788   0.530   2.855
 5736TIP3   OH217213   0.922   4.487   1.118
 5736TIP3    H117214   1.002   4.464   1.072
 5736TIP3    H217215   0.853   4.441   1.071
 5737TIP3   OH217216   0.736   3.615   4.751
 5737TIP3    H117217   0.731   3.535   4.698
 5737TIP3    H217218   0.830   3.624   4.771
 5738TIP3   OH217219   3.718   3.476   3.999
 5738TIP3    H117220   3.793   3.424   4.027
 5738TIP3    H217221   3.645   3.443   4.051
 5739TIP3   OH217222   5.240   4.545   3.407
 5739TIP3    H117223   5.152   4.575   3.387
 5739TIP3    H217224   5.251   4.466   3.355
 5740TIP3   OH217225   1.674   0.248   2.723
 5740TIP3    H117226   1.662   0.254   2.818
 5740TIP3    H217227   1.700   0.158   2.707
 5741TIP3   OH217228   4.594   4.075   3.666
 5741TIP3    H117229   4.525   4.045   3.725
 5741TIP3    H217230   4.574   4.168   3.651
 5742TIP3   OH217231   0.050   3.730   1.508
 5742TIP3    H117232   0.012   3.653   1.551
 5742TIP3    H217233   0.129   3.696   1.465
 5743TIP3   OH217234   3.860   2.643   4.251
 5743TIP3    H117235   3.768   2.664   4.264
 5743TIP3    H217236   3.864   2.609   4.162
 5744TIP3   OH217237   5.811   4.697   0.190
 5744TIP3    H117238   5.844   4.742   0.268
 5744TIP3    H217239   5.777   4.613   0.222
 5745TIP3   OH217240   1.355   0.077   2.761
 5745TIP3    H117241   1.324  -0.014   2.757
 5745TIP3    H217242   1.450   0.069   2.756
 5746TIP3   OH217243   5.412   5.139   3.426
 5746TIP3    H117244   5.413   5.142   3.330
 5746TIP3    H217245   5.467   5.064   3.448
 5747TIP3   OH217246   5.451   0.392   1.171
 5747TIP3    H117247   5.388   0.460   1.146
 5747TIP3    H217248   5.464   0.342   1.090
 5748TIP3   OH217249   5.073   0.058   4.439
 5748TIP3    H117250   5.088   0.040   4.532
 5748TIP3    H217251   4.994   0.112   4.437
 5749TIP3   OH217252   0.667   2.112   2.467
 5749TIP3    H117253   0.662   2.187   2.408
 5749TIP3    H217254   0.750   2.123   2.513
 5750TIP3   OH217255   4.762   4.058   2.602
 5750TIP3    H117256   4.770   3.991   2.669
 5750TIP3    H217257   4.668   4.077   2.598
 5751TIP3   OH217258   1.122   3.410   1.031
 5751TIP3    H117259   1.172   3.476   1.079
 5751TIP3    H217260   1.185   3.372   0.970
 5752TIP3   OH217261   6.060   5.427   3.777
 5752TIP3    H117262   6.016   5.441   3.693
 5752TIP3    H217263   6.148   5.462   3.765
 5753TIP3   OH217264   5.635   0.194   1.027
 5753TIP3    H117265   5.653   0.150   0.944
 5753TIP3    H217266   5.595   0.277   1.001
 5754TIP3   OH217267   4.222   5.343   2.540
 5754TIP3    H117268   4.146   5.401   2.534
 5754TIP3    H217269   4.293   5.399   2.568
 5755TIP3   OH217270   5.718   3.801   0.567
 5755TIP3    H117271   5.740   3.714   0.535
 5755TIP3    H217272   5.630   3.792   0.604
 5756TIP3   OH217273   1.652   2.028   3.677
 5756TIP3    H117274   1.668   2.103   3.734
 5756TIP3    H217275   1.618   2.066   3.596
 5757TIP3   OH217276   3.390   5.643   4.881
 5757TIP3    H117277   3.430   5.726   4.910
 5757TIP3    H217278   3.405   5.641   4.787
 5758TIP3   OH217279   3.349   5.197   2.826
 5758TIP3    H117280   3.305   5.200   2.741
 5758TIP3    H217281   3.413   5.127   2.817
 5759TIP3   OH217282   2.851   4.211   2.619
 5759TIP3    H117283   2.768   4.258   2.629
 5759TIP3    H217284   2.910   4.275   2.580
 5760TIP3   OH217285   3.410   1.075   1.812
 5760TIP3    H117286   3.406   1.123   1.729
 5760TIP3    H217287   3.421   1.143   1.878
 5761TIP3   OH217288   5.984   4.306   1.475
 5761TIP3    H117289   5.973   4.213   1.494
 5761TIP3    H217290   6.018   4.308   1.385
 5762TIP3   OH217291   1.282   4.514   2.843
 5762TIP3    H117292   1.358   4.550   2.798
 5762TIP3    H217293   1.273   4.567   2.922
 5763TIP3   OH217294   1.966   4.539   1.132
 5763TIP3    H117295   2.008   4.469   1.182
 5763TIP3    H217296   2.022   4.550   1.055
 5764TIP3   OH217297   5.961   0.414   1.039
 5764TIP3    H117298   6.055   0.399   1.034
 5764TIP3    H217299   5.937   0.443   0.951
 5765TIP3   OH217300   4.598   2.226   4.855
 5765TIP3    H117301   4.655   2.297   4.885
 5765TIP3    H217302   4.596   2.237   4.760
 5766TIP3   OH217303   5.657   4.254   4.617
 5766TIP3    H117304   5.656   4.172   4.665
 5766TIP3    H217305   5.566   4.271   4.595
 5767TIP3   OH217306   5.563   4.099   2.516
 5767TIP3    H117307   5.551   4.061   2.429
 5767TIP3    H217308   5.475   4.120   2.546
 5768TIP3   OH217309   0.555   5.908   2.399
 5768TIP3    H117310   0.464   5.905   2.427
 5768TIP3    H217311   0.596   5.973   2.456
 5769TIP3   OH217312   4.931   0.482   2.214
 5769TIP3    H117313   4.894   0.468   2.300
 5769TIP3    H217314   4.894   0.413   2.159
 5770TIP3   OH217315   6.149   1.885   2.975
 5770TIP3    H117316   6.196   1.914   2.897
 5770TIP3    H217317   6.183   1.940   3.046
 5771TIP3   OH217318   4.398   5.772   3.844
 5771TIP3    H117319   4.443   5.699   3.803
 5771TIP3    H217320   4.446   5.788   3.925
 5772TIP3   OH217321   4.921   5.340   3.039
 5772TIP3    H117322   4.929   5.259   2.989
 5772TIP3    H217323   4.880   5.402   2.978
 5773TIP3   OH217324   1.295   5.401   3.918
 5773TIP3    H117325   1.277   5.366   4.006
 5773TIP3    H217326   1.359   5.470   3.933
 5774TIP3   OH217327   1.637   2.767   0.197
 5774TIP3    H117328   1.644   2.718   0.115
 5774TIP3    H217329   1.691   2.719   0.259
 5775TIP3   OH217330   5.054   3.582   3.827
 5775TIP3    H117331   5.119   3.539   3.883
 5775TIP3    H217332   5.093   3.579   3.739
 5776TIP3   OH217333   1.732   4.174   4.118
 5776TIP3    H117334   1.751   4.228   4.194
 5776TIP3    H217335   1.723   4.236   4.045
 5777TIP3   OH217336   2.102   5.353   1.746
 5777TIP3    H117337   2.046   5.383   1.817
 5777TIP3    H217338   2.092   5.420   1.678
 5778TIP3   OH217339   3.103   5.285   2.971
 5778TIP3    H117340   3.161   5.241   2.909
 5778TIP3    H217341   3.111   5.234   3.052
 5779TIP3   OH217342   3.589   5.789   1.245
 5779TIP3    H117343   3.528   5.832   1.305
 5779TIP3    H217344   3.578   5.835   1.162
 5780TIP3   OH217345   6.037   5.712   4.915
 5780TIP3    H117346   6.021   5.766   4.837
 5780TIP3    H217347   6.076   5.632   4.881
 5781TIP3   OH217348   2.814   2.740   4.819
 5781TIP3    H117349   2.891   2.790   4.845
 5781TIP3    H217350   2.750   2.757   4.889
 5782TIP3   OH217351   0.194   3.125   4.398
 5782TIP3    H117352   0.178   3.056   4.462
 5782TIP3    H217353   0.289   3.136   4.398
 5783TIP3   OH217354   0.925   5.385   1.322
 5783TIP3    H117355   0.978   5.426   1.391
 5783TIP3    H217356   0.865   5.327   1.369
 5784TIP3   OH217357   3.711   5.230   2.115
 5784TIP3    H117358   3.680   5.309   2.158
 5784TIP3    H217359   3.803   5.222   2.141
 5785TIP3   OH217360   3.310   2.813   4.778
 5785TIP3    H117361   3.280   2.892   4.734
 5785TIP3    H217362   3.321   2.749   4.707
 5786TIP3   OH217363   2.027   4.533   4.747
 5786TIP3    H117364   1.943   4.553   4.788
 5786TIP3    H217365   2.055   4.451   4.787
 5787TIP3   OH217366   1.004   3.053   4.342
 5787TIP3    H117367   0.949   3.039   4.265
 5787TIP3    H217368   1.040   3.141   4.329
 5788TIP3   OH217369  -0.013   3.038   1.346
 5788TIP3    H117370   0.063   3.095   1.341
 5788TIP3    H217371  -0.006   2.995   1.431
 5789TIP3   OH217372   6.297   1.278   3.547
 5789TIP3    H117373   6.320   1.347   3.485
 5789TIP3    H217374   6.235   1.319   3.607
 5790TIP3   OH217375   0.419   4.427   0.602
 5790TIP3    H117376   0.482   4.404   0.534
 5790TIP3    H217377   0.398   4.519   0.585
 5791TIP3   OH217378   1.022   4.261   4.712
 5791TIP3    H117379   0.938   4.298   4.738
 5791TIP3    H217380   1.061   4.328   4.655
 5792TIP3   OH217381   4.309   2.213   2.798
 5792TIP3    H117382   4.405   2.219   2.803
 5792TIP3    H217383   4.285   2.158   2.873
 5793TIP3   OH217384   4.131   4.890   1.315
 5793TIP3    H117385   4.082   4.887   1.233
 5793TIP3    H217386   4.222   4.901   1.289
 5794TIP3   OH217387   0.149   5.199   0.967
 5794TIP3    H117388   0.213   5.135   0.937
 5794TIP3    H217389   0.068   5.148   0.978
 5795TIP3   OH217390   2.914   2.338   1.382
 5795TIP3    H117391   2.862   2.418   1.376
 5795TIP3    H217392   2.958   2.332   1.297
 5796TIP3   OH217393   3.796   4.758   2.762
 5796TIP3    H117394   3.747   4.822   2.813
 5796TIP3    H217395   3.769   4.774   2.671
 5797TIP3   OH217396   4.206   0.863   3.166
 5797TIP3    H117397   4.264   0.810   3.112
 5797TIP3    H217398   4.124   0.814   3.169
 5798TIP3   OH217399   5.041   3.860   3.839
 5798TIP3    H117400   4.951   3.893   3.840
 5798TIP3    H217401   5.033   3.768   3.862
 5799TIP3   OH217402   5.458   5.432   4.082
 5799TIP3    H117403   5.407   5.351   4.088
 5799TIP3    H217404   5.542   5.410   4.122
 5800TIP3   OH217405   2.032   0.559   4.043
 5800TIP3    H117406   2.041   0.607   3.961
 5800TIP3    H217407   1.940   0.568   4.067
 5801TIP3   OH217408   4.739   3.615   2.665
 5801TIP3    H117409   4.785   3.602   2.582
 5801TIP3    H217410   4.657   3.658   2.640
 5802TIP3   OH217411   3.139   2.228   3.754
 5802TIP3    H117412   3.157   2.175   3.676
 5802TIP3    H217413   3.045   2.246   3.750
 5803TIP3   OH217414   2.817   2.624   3.046
 5803TIP3    H117415   2.812   2.713   3.012
 5803TIP3    H217416   2.744   2.578   3.003
 5804TIP3   OH217417   1.440   1.616   5.126
 5804TIP3    H117418   1.352   1.583   5.142
 5804TIP3    H217419   1.471   1.644   5.213
 5805TIP3   OH217420   0.831   5.676   2.797
 5805TIP3    H117421   0.886   5.682   2.875
 5805TIP3    H217422   0.826   5.582   2.779
 5806TIP3   OH217423   4.157   4.166   1.750
 5806TIP3    H117424   4.088   4.109   1.784
 5806TIP3    H217425   4.124   4.195   1.665
 5807TIP3   OH217426   2.633   2.574   0.294
 5807TIP3    H117427   2.610   2.482   0.280
 5807TIP3    H217428   2.648   2.580   0.389
 5808TIP3   OH217429   4.322   0.386   2.603
 5808TIP3    H117430   4.242   0.420   2.562
 5808TIP3    H217431   4.311   0.406   2.696
 5809TIP3   OH217432   1.258   1.231   0.080
 5809TIP3    H117433   1.320   1.285   0.129
 5809TIP3    H217434   1.307   1.151   0.060
 5810TIP3   OH217435   3.980   4.974   0.611
 5810TIP3    H117436   3.992   5.069   0.609
 5810TIP3    H217437   3.886   4.962   0.625
 5811TIP3   OH217438   1.161   2.388   2.223
 5811TIP3    H117439   1.208   2.338   2.290
 5811TIP3    H217440   1.144   2.324   2.153
 5812TIP3   OH217441   4.789   1.554   0.793
 5812TIP3    H117442   4.874   1.533   0.754
 5812TIP3    H217443   4.768   1.640   0.757
 5813TIP3   OH217444   1.656   2.047   0.225
 5813TIP3    H117445   1.720   2.039   0.297
 5813TIP3    H217446   1.685   2.124   0.176
 5814TIP3   OH217447   1.147   1.246   3.564
 5814TIP3    H117448   1.116   1.180   3.626
 5814TIP3    H217449   1.135   1.207   3.478
 5815TIP3   OH217450   0.448   4.670   3.248
 5815TIP3    H117451   0.478   4.656   3.158
 5815TIP3    H217452   0.529   4.675   3.300
 5816TIP3   OH217453   1.157   3.274   4.761
 5816TIP3    H117454   1.175   3.368   4.753
 5816TIP3    H217455   1.084   3.259   4.701
 5817TIP3   OH217456   4.306   3.624   4.155
 5817TIP3    H117457   4.367   3.655   4.222
 5817TIP3    H217458   4.246   3.566   4.201
 5818TIP3   OH217459   4.291   5.667   0.462
 5818TIP3    H117460   4.369   5.675   0.406
 5818TIP3    H217461   4.325   5.675   0.551
 5819TIP3   OH217462   3.423   5.173   1.340
 5819TIP3    H117463   3.372   5.218   1.273
 5819TIP3    H217464   3.364   5.167   1.415
 5820TIP3   OH217465   2.262   1.607   3.925
 5820TIP3    H117466   2.276   1.537   3.989
 5820TIP3    H217467   2.183   1.580   3.877
 5821TIP3   OH217468   0.459   4.374   2.985
 5821TIP3    H117469   0.498   4.290   3.008
 5821TIP3    H217470   0.385   4.384   3.045
 5822TIP3   OH217471   1.413   4.458   1.636
 5822TIP3    H117472   1.400   4.405   1.557
 5822TIP3    H217473   1.507   4.469   1.643
 5823TIP3   OH217474   5.368   2.141   4.230
 5823TIP3    H117475   5.298   2.187   4.278
 5823TIP3    H217476   5.419   2.098   4.298
 5824TIP3   OH217477   0.507   3.153   1.854
 5824TIP3    H117478   0.571   3.083   1.842
 5824TIP3    H217479   0.495   3.160   1.948
 5825TIP3   OH217480   4.157   0.435   1.070
 5825TIP3    H117481   4.170   0.470   1.158
 5825TIP3    H217482   4.084   0.374   1.079
 5826TIP3   OH217483   5.277   0.116   3.387
 5826TIP3    H117484   5.351   0.071   3.346
 5826TIP3    H217485   5.276   0.203   3.347
 5827TIP3   OH217486   5.000   2.317   2.219
 5827TIP3    H117487   4.939   2.387   2.244
 5827TIP3    H217488   5.086   2.351   2.244
 5828TIP3   OH217489   5.880   3.132   4.836
 5828TIP3    H117490   5.857   3.213   4.791
 5828TIP3    H217491   5.839   3.063   4.784
 5829TIP3   OH217492   1.796   2.509   4.720
 5829TIP3    H117493   1.882   2.539   4.750
 5829TIP3    H217494   1.800   2.517   4.625
 5830TIP3   OH217495   0.034   5.022   1.959
 5830TIP3    H117496   0.034   5.110   1.995
 5830TIP3    H217497   0.104   4.976   2.007
 5831TIP3   OH217498   1.017   0.700   3.769
 5831TIP3    H117499   1.054   0.641   3.703
 5831TIP3    H217500   1.082   0.769   3.778
 5832TIP3   OH217501   3.457   1.604   3.807
 5832TIP3    H117502   3.411   1.659   3.871
 5832TIP3    H217503   3.405   1.524   3.803
 5833TIP3   OH217504   2.247   2.756   0.278
 5833TIP3    H117505   2.203   2.813   0.215
 5833TIP3    H217506   2.275   2.815   0.348
 5834TIP3   OH217507   0.821   1.631   3.520
 5834TIP3    H117508   0.765   1.599   3.591
 5834TIP3    H217509   0.848   1.718   3.549
 5835TIP3   OH217510   5.579   1.881  -0.029
 5835TIP3    H117511   5.566   1.880   0.066
 5835TIP3    H217512   5.638   1.809  -0.046
 5836TIP3   OH217513   1.904   5.554   3.248
 5836TIP3    H117514   1.832   5.578   3.306
 5836TIP3    H217515   1.927   5.635   3.203
 5837TIP3   OH217516   2.224   2.556   1.328
 5837TIP3    H117517   2.189   2.638   1.363
 5837TIP3    H217518   2.205   2.491   1.396
 5838TIP3   OH217519   6.337   1.274   3.095
 5838TIP3    H117520   6.383   1.324   3.027
 5838TIP3    H217521   6.252   1.254   3.056
 5839TIP3   OH217522   4.624   4.523   4.949
 5839TIP3    H117523   4.718   4.527   4.969
 5839TIP3    H217524   4.583   4.498   5.032
 5840TIP3   OH217525   4.942   3.211   2.390
 5840TIP3    H117526   4.847   3.207   2.379
 5840TIP3    H217527   4.955   3.266   2.467
 5841TIP3   OH217528   2.110   1.007   0.101
 5841TIP3    H117529   2.145   0.928   0.060
 5841TIP3    H217530   2.019   0.985   0.121
 5842TIP3   OH217531   5.007   5.458   5.021
 5842TIP3    H117532   5.037   5.485   4.934
 5842TIP3    H217533   5.086   5.432   5.067
 5843TIP3   OH217534   3.180   2.144   0.248
 5843TIP3    H117535   3.158   2.066   0.297
 5843TIP3    H217536   3.105   2.202   0.260
 5844TIP3   OH217537   0.703   3.110   4.367
 5844TIP3    H117538   0.643   3.035   4.364
 5844TIP3    H217539   0.786   3.072   4.398
 5845TIP3   OH217540   1.174   5.649   2.446
 5845TIP3    H117541   1.097   5.686   2.404
 5845TIP3    H217542   1.187   5.702   2.525
 5846TIP3   OH217543   2.024   1.234   1.659
 5846TIP3    H117544   2.003   1.182   1.581
 5846TIP3    H217545   2.007   1.174   1.732
 5847TIP3   OH217546   5.129   5.871   1.674
 5847TIP3    H117547   5.179   5.860   1.593
 5847TIP3    H217548   5.054   5.813   1.664
 5848TIP3   OH217549   4.418   2.543   1.280
 5848TIP3    H117550   4.339   2.561   1.332
 5848TIP3    H217551   4.435   2.626   1.234
 5849TIP3   OH217552   2.421   4.352   3.192
 5849TIP3    H117553   2.437   4.279   3.131
 5849TIP3    H217554   2.503   4.360   3.241
 5850TIP3   OH217555   0.785   2.155   4.263
 5850TIP3    H117556   0.817   2.112   4.183
 5850TIP3    H217557   0.811   2.246   4.253
 5851TIP3   OH217558   6.324   3.242   5.115
 5851TIP3    H117559   6.292   3.204   5.034
 5851TIP3    H217560   6.402   3.292   5.090
 5852TIP3   OH217561   1.463   0.798   2.369
 5852TIP3    H117562   1.556   0.777   2.356
 5852TIP3    H217563   1.435   0.834   2.285
 5853TIP3   OH217564   5.782   5.894   4.085
 5853TIP3    H117565   5.750   5.867   4.171
 5853TIP3    H217566   5.862   5.944   4.104
 5854TIP3   OH217567   4.165   1.389   1.977
 5854TIP3    H117568   4.095   1.332   1.945
 5854TIP3    H217569   4.182   1.449   1.904
 5855TIP3   OH217570   4.022   2.776   3.709
 5855TIP3    H117571   3.969   2.698   3.689
 5855TIP3    H217572   3.979   2.847   3.661
 5856TIP3   OH217573   2.951   2.011   1.596
 5856TIP3    H117574   2.872   1.962   1.572
 5856TIP3    H217575   2.993   2.032   1.512
 5857TIP3   OH217576   2.876   4.274   4.463
 5857TIP3    H117577   2.850   4.297   4.374
 5857TIP3    H217578   2.969   4.297   4.468
 5858TIP3   OH217579   1.364   5.639   0.935
 5858TIP3    H117580   1.366   5.573   0.865
 5858TIP3    H217581   1.351   5.722   0.889
 5859TIP3   OH217582   3.936   3.050   4.603
 5859TIP3    H117583   4.023   3.090   4.603
 5859TIP3    H217584   3.943   2.978   4.541
 5860TIP3   OH217585   4.174   3.056   3.034
 5860TIP3    H117586   4.136   3.087   2.952
 5860TIP3    H217587   4.229   3.128   3.064
 5861TIP3   OH217588   5.932   3.880   0.174
 5861TIP3    H117589   6.019   3.852   0.202
 5861TIP3    H217590   5.948   3.936   0.098
 5862TIP3   OH217591   5.165   0.337   0.613
 5862TIP3    H117592   5.223   0.393   0.666
 5862TIP3    H217593   5.208   0.333   0.528
 5863TIP3   OH217594   5.668   2.415   1.181
 5863TIP3    H117595   5.705   2.488   1.231
 5863TIP3    H217596   5.573   2.425   1.191
 5864TIP3   OH217597   1.408   3.619   0.467
 5864TIP3    H117598   1.466   3.574   0.406
 5864TIP3    H217599   1.438   3.710   0.468
 5865TIP3   OH217600   5.401   4.049   0.288
 5865TIP3    H117601   5.381   3.972   0.235
 5865TIP3    H217602   5.472   4.092   0.241
 5866TIP3   OH217603   4.140   2.607   4.615
 5866TIP3    H117604   4.045   2.610   4.608
 5866TIP3    H217605   4.163   2.517   4.589
 5867TIP3   OH217606   4.943   4.904   1.441
 5867TIP3    H117607   4.989   4.940   1.366
 5867TIP3    H217608   4.987   4.942   1.517
 5868TIP3   OH217609   5.036   5.644   2.014
 5868TIP3    H117610   5.025   5.555   2.048
 5868TIP3    H217611   5.115   5.639   1.960
 5869TIP3   OH217612   2.132   0.967   2.273
 5869TIP3    H117613   2.065   1.001   2.213
 5869TIP3    H217614   2.134   1.031   2.344
 5870TIP3   OH217615   2.365   2.146   3.678
 5870TIP3    H117616   2.286   2.199   3.680
 5870TIP3    H217617   2.340   2.063   3.718
 5871TIP3   OH217618   1.082   0.368   2.618
 5871TIP3    H117619   1.143   0.435   2.648
 5871TIP3    H217620   1.138   0.300   2.579
 5872TIP3   OH217621   4.146   3.649   0.337
 5872TIP3    H117622   4.076   3.705   0.370
 5872TIP3    H217623   4.101   3.585   0.282
 5873TIP3   OH217624   2.674   5.094   4.692
 5873TIP3    H117625   2.748   5.034   4.687
 5873TIP3    H217626   2.695   5.165   4.631
 5874TIP3   OH217627   4.659   3.093   3.095
 5874TIP3    H117628   4.621   3.146   3.025
 5874TIP3    H217629   4.660   3.004   3.060
 5875TIP3   OH217630   3.137   0.469   1.174
 5875TIP3    H117631   3.186   0.546   1.201
 5875TIP3    H217632   3.096   0.494   1.091
 5876TIP3   OH217633   4.246   0.195   0.905
 5876TIP3    H117634   4.184   0.133   0.944
 5876TIP3    H217635   4.288   0.145   0.835
 5877TIP3   OH217636   4.321   4.164   2.887
 5877TIP3    H117637   4.383   4.164   2.961
 5877TIP3    H217638   4.346   4.241   2.836
 5878TIP3   OH217639   0.477   2.946   1.401
 5878TIP3    H117640   0.443   2.876   1.345
 5878TIP3    H217641   0.516   2.900   1.476
 5879TIP3   OH217642   6.312   4.172   0.307
 5879TIP3    H117643   6.279   4.112   0.373
 5879TIP3    H217644   6.394   4.132   0.277
 5880TIP3   OH217645   0.936   0.004   4.904
 5880TIP3    H117646   1.026  -0.001   4.874
 5880TIP3    H217647   0.940   0.050   4.988
 5881TIP3   OH217648   5.510   3.946   1.112
 5881TIP3    H117649   5.486   3.864   1.153
 5881TIP3    H217650   5.481   4.014   1.173
 5882TIP3   OH217651   0.672   5.367   0.339
 5882TIP3    H117652   0.666   5.356   0.244
 5882TIP3    H217653   0.760   5.403   0.353
 5883TIP3   OH217654   1.471   2.545   4.002
 5883TIP3    H117655   1.453   2.533   4.095
 5883TIP3    H217656   1.548   2.602   4.000
 5884TIP3   OH217657   5.501   5.183   0.183
 5884TIP3    H117658   5.588   5.146   0.196
 5884TIP3    H217659   5.455   5.118   0.131
 5885TIP3   OH217660   1.847   1.004   0.212
 5885TIP3    H117661   1.770   0.948   0.219
 5885TIP3    H217662   1.817   1.080   0.163
 5886TIP3   OH217663   4.061   3.451   3.136
 5886TIP3    H117664   4.130   3.389   3.112
 5886TIP3    H217665   4.037   3.428   3.226
 5887TIP3   OH217666   4.270   1.219   0.739
 5887TIP3    H117667   4.336   1.254   0.798
 5887TIP3    H217668   4.316   1.153   0.688
 5888TIP3   OH217669   4.326   0.017   3.997
 5888TIP3    H117670   4.414  -0.016   3.977
 5888TIP3    H217671   4.320   0.098   3.945
 5889TIP3   OH217672   2.642   4.630   3.062
 5889TIP3    H117673   2.554   4.598   3.043
 5889TIP3    H217674   2.699   4.558   3.036
 5890TIP3   OH217675   5.802   0.047   2.754
 5890TIP3    H117676   5.720   0.014   2.791
 5890TIP3    H217677   5.859   0.058   2.830
 5891TIP3   OH217678   4.575   5.305   2.199
 5891TIP3    H117679   4.495   5.344   2.165
 5891TIP3    H217680   4.645   5.355   2.157
 5892TIP3   OH217681   5.622   1.972   3.221
 5892TIP3    H117682   5.624   2.053   3.271
 5892TIP3    H217683   5.535   1.935   3.237
 5893TIP3   OH217684   1.987   3.403   0.348
 5893TIP3    H117685   1.981   3.490   0.308
 5893TIP3    H217686   1.983   3.420   0.443
 5894TIP3   OH217687   5.064   2.890   1.146
 5894TIP3    H117688   4.978   2.852   1.162
 5894TIP3    H217689   5.105   2.894   1.233
 5895TIP3   OH217690   3.644   5.125   1.861
 5895TIP3    H117691   3.655   5.148   1.953
 5895TIP3    H217692   3.731   5.136   1.823
 5896TIP3   OH217693   2.350   5.683   4.289
 5896TIP3    H117694   2.279   5.746   4.303
 5896TIP3    H217695   2.430   5.734   4.301
 5897TIP3   OH217696   2.278   1.226   0.718
 5897TIP3    H117697   2.266   1.140   0.678
 5897TIP3    H217698   2.205   1.234   0.779
 5898TIP3   OH217699   4.212   4.505   1.795
 5898TIP3    H117700   4.130   4.512   1.842
 5898TIP3    H217701   4.235   4.412   1.800
 5899TIP3   OH217702   6.171   3.525   2.733
 5899TIP3    H117703   6.202   3.438   2.758
 5899TIP3    H217704   6.079   3.512   2.708
 5900TIP3   OH217705   5.763   2.611   1.316
 5900TIP3    H117706   5.705   2.629   1.390
 5900TIP3    H217707   5.779   2.697   1.278
 5901TIP3   OH217708   0.937   2.344   0.190
 5901TIP3    H117709   0.998   2.400   0.238
 5901TIP3    H217710   0.856   2.394   0.187
 5902TIP3   OH217711   0.011   1.032   3.973
 5902TIP3    H117712  -0.043   1.108   3.998
 5902TIP3    H217713   0.039   1.052   3.884
 5903TIP3   OH217714   0.815   0.565   4.665
 5903TIP3    H117715   0.738   0.546   4.719
 5903TIP3    H217716   0.794   0.648   4.622
 5904TIP3   OH217717   3.125   5.198   5.103
 5904TIP3    H117718   3.113   5.222   5.195
 5904TIP3    H217719   3.219   5.186   5.093
 5905TIP3   OH217720   5.319   0.414   3.038
 5905TIP3    H117721   5.351   0.455   3.119
 5905TIP3    H217722   5.372   0.335   3.029
 5906TIP3   OH217723   5.016   5.218   4.210
 5906TIP3    H117724   5.032   5.291   4.150
 5906TIP3    H217725   4.951   5.252   4.271
 5907TIP3   OH217726   1.218   5.205   2.953
 5907TIP3    H117727   1.161   5.164   3.018
 5907TIP3    H217728   1.186   5.171   2.869
 5908TIP3   OH217729   4.384   0.790   4.248
 5908TIP3    H117730   4.430   0.752   4.323
 5908TIP3    H217731   4.411   0.736   4.174
 5909TIP3   OH217732   3.971   5.482   0.340
 5909TIP3    H117733   4.030   5.507   0.268
 5909TIP3    H217734   3.889   5.526   0.319
 5910TIP3   OH217735   2.557   5.452   4.771
 5910TIP3    H117736   2.503   5.374   4.788
 5910TIP3    H217737   2.586   5.480   4.858
 5911TIP3   OH217738   6.036   0.646   5.024
 5911TIP3    H117739   6.018   0.565   5.073
 5911TIP3    H217740   5.952   0.668   4.983
 5912TIP3   OH217741   6.093   1.183   1.350
 5912TIP3    H117742   5.999   1.163   1.352
 5912TIP3    H217743   6.111   1.209   1.260
 5913TIP3   OH217744   0.054   0.152   4.774
 5913TIP3    H117745   0.061   0.239   4.735
 5913TIP3    H217746   0.008   0.100   4.707
 5914TIP3   OH217747   2.047   2.219   0.769
 5914TIP3    H117748   2.060   2.136   0.814
 5914TIP3    H217749   2.062   2.198   0.676
 5915TIP3   OH217750   3.775   4.699   0.562
 5915TIP3    H117751   3.737   4.783   0.590
 5915TIP3    H217752   3.724   4.633   0.609
 5916TIP3   OH217753   5.101   0.728   1.799
 5916TIP3    H117754   5.022   0.750   1.749
 5916TIP3    H217755   5.069   0.690   1.880
 5917TIP3   OH217756   1.604   3.956   3.424
 5917TIP3    H117757   1.686   3.985   3.384
 5917TIP3    H217758   1.570   4.034   3.468
 5918TIP3   OH217759   1.444   1.492   3.479
 5918TIP3    H117760   1.370   1.548   3.457
 5918TIP3    H217761   1.427   1.464   3.569
 5919TIP3   OH217762   5.135   1.165   2.297
 5919TIP3    H117763   5.172   1.128   2.216
 5919TIP3    H217764   5.196   1.138   2.366
 5920TIP3   OH217765   4.176   2.077   0.396
 5920TIP3    H117766   4.265   2.067   0.429
 5920TIP3    H217767   4.144   2.158   0.437
 5921TIP3   OH217768   1.669   3.215   0.614
 5921TIP3    H117769   1.704   3.274   0.680
 5921TIP3    H217770   1.712   3.131   0.631
 5922TIP3   OH217771   5.985   1.954   0.981
 5922TIP3    H117772   6.020   2.043   0.991
 5922TIP3    H217773   5.891   1.967   0.966
 5923TIP3   OH217774   1.718   5.316   0.111
 5923TIP3    H117775   1.682   5.387   0.058
 5923TIP3    H217776   1.644   5.257   0.126
 5924TIP3   OH217777   2.020   0.493   0.187
 5924TIP3    H117778   1.941   0.493   0.240
 5924TIP3    H217779   2.015   0.413   0.135
 5925TIP3   OH217780   2.102   3.834   1.348
 5925TIP3    H117781   2.150   3.869   1.273
 5925TIP3    H217782   2.166   3.833   1.419
 5926TIP3   OH217783   5.934   1.408   2.668
 5926TIP3    H117784   5.893   1.433   2.585
 5926TIP3    H217785   5.952   1.314   2.658
 5927TIP3   OH217786   2.218   2.880   0.900
 5927TIP3    H117787   2.170   2.871   0.817
 5927TIP3    H217788   2.297   2.828   0.888
 5928TIP3   OH217789   3.899   0.839   4.172
 5928TIP3    H117790   3.962   0.789   4.224
 5928TIP3    H217791   3.947   0.916   4.143
 5929TIP3   OH217792   6.028   4.161   1.990
 5929TIP3    H117793   6.113   4.204   2.000
 5929TIP3    H217794   5.981   4.216   1.928
 5930TIP3   OH217795   5.694   4.575   1.377
 5930TIP3    H117796   5.703   4.484   1.404
 5930TIP3    H217797   5.759   4.622   1.430
 5931TIP3   OH217798   3.955   4.807   1.805
 5931TIP3    H117799   3.947   4.899   1.781
 5931TIP3    H217800   3.915   4.802   1.892
 5932TIP3   OH217801   5.421   3.713   4.051
 5932TIP3    H117802   5.383   3.660   4.120
 5932TIP3    H217803   5.475   3.652   4.000
 5933TIP3   OH217804   1.570   5.680   1.977
 5933TIP3    H117805   1.499   5.664   2.039
 5933TIP3    H217806   1.568   5.775   1.963
 5934TIP3   OH217807   4.849   1.202   1.235
 5934TIP3    H117808   4.811   1.248   1.160
 5934TIP3    H217809   4.884   1.273   1.290
 5935TIP3   OH217810   0.892   0.301   4.730
 5935TIP3    H117811   0.886   0.385   4.684
 5935TIP3    H217812   0.800   0.275   4.742
 5936TIP3   OH217813   0.830   1.239   4.679
 5936TIP3    H117814   0.735   1.228   4.671
 5936TIP3    H217815   0.841   1.323   4.723
 5937TIP3   OH217816   4.249   0.200   1.833
 5937TIP3    H117817   4.289   0.227   1.751
 5937TIP3    H217818   4.276   0.267   1.896
 5938TIP3   OH217819   6.236   2.303   3.108
 5938TIP3    H117820   6.283   2.219   3.103
 5938TIP3    H217821   6.305   2.368   3.118
 5939TIP3   OH217822   6.265   0.253   2.050
 5939TIP3    H117823   6.271   0.209   2.135
 5939TIP3    H217824   6.323   0.329   2.059
 5940TIP3   OH217825   6.050   4.125   4.302
 5940TIP3    H117826   6.055   4.042   4.350
 5940TIP3    H217827   6.073   4.102   4.212
 5941TIP3   OH217828   5.790   3.610   2.567
 5941TIP3    H117829   5.848   3.543   2.531
 5941TIP3    H217830   5.825   3.628   2.654
 5942TIP3   OH217831   1.729   3.594   4.664
 5942TIP3    H117832   1.756   3.509   4.699
 5942TIP3    H217833   1.752   3.657   4.733
 5943TIP3   OH217834   4.685   2.873   0.386
 5943TIP3    H117835   4.755   2.874   0.452
 5943TIP3    H217836   4.605   2.892   0.435
 5944TIP3   OH217837   1.795   4.212   1.984
 5944TIP3    H117838   1.838   4.133   2.015
 5944TIP3    H217839   1.866   4.275   1.971
 5945TIP3   OH217840   0.649   2.349   2.315
 5945TIP3    H117841   0.670   2.310   2.230
 5945TIP3    H217842   0.715   2.417   2.327
 5946TIP3   OH217843   1.931   0.489   1.155
 5946TIP3    H117844   1.980   0.514   1.077
 5946TIP3    H217845   1.961   0.401   1.175
 5947TIP3   OH217846   4.432   5.267   0.963
 5947TIP3    H117847   4.413   5.239   1.053
 5947TIP3    H217848   4.515   5.313   0.969
 5948TIP3   OH217849   3.517   1.986   2.235
 5948TIP3    H117850   3.502   2.079   2.250
 5948TIP3    H217851   3.467   1.942   2.304
 5949TIP3   OH217852   3.132   1.926   0.817
 5949TIP3    H117853   3.082   1.857   0.772
 5949TIP3    H217854   3.198   1.953   0.753
 5950TIP3   OH217855   5.133   4.307   2.405
 5950TIP3    H117856   5.136   4.319   2.310
 5950TIP3    H217857   5.061   4.245   2.419
 5951TIP3   OH217858   2.526   5.985   3.867
 5951TIP3    H117859   2.545   5.940   3.784
 5951TIP3    H217860   2.499   5.915   3.927
 5952TIP3   OH217861   3.494   0.274   3.886
 5952TIP3    H117862   3.509   0.247   3.976
 5952TIP3    H217863   3.403   0.304   3.885
 5953TIP3   OH217864   5.626   2.357   2.897
 5953TIP3    H117865   5.538   2.396   2.895
 5953TIP3    H217866   5.612   2.271   2.938
 5954TIP3   OH217867   2.923   1.816   0.271
 5954TIP3    H117868   2.980   1.744   0.298
 5954TIP3    H217869   2.942   1.827   0.177
 5955TIP3   OH217870   1.688   1.396   2.792
 5955TIP3    H117871   1.745   1.371   2.864
 5955TIP3    H217872   1.629   1.461   2.830
 5956TIP3   OH217873   4.585   4.539   0.826
 5956TIP3    H117874   4.604   4.621   0.780
 5956TIP3    H217875   4.517   4.497   0.773
 5957TIP3   OH217876   2.622   4.571   3.699
 5957TIP3    H117877   2.561   4.576   3.773
 5957TIP3    H217878   2.572   4.529   3.630
 5958TIP3   OH217879   1.146   1.434   4.286
 5958TIP3    H117880   1.079   1.406   4.348
 5958TIP3    H217881   1.229   1.411   4.330
 5959TIP3   OH217882   1.415   5.622   2.197
 5959TIP3    H117883   1.430   5.533   2.227
 5959TIP3    H217884   1.449   5.677   2.268
 5960TIP3   OH217885   6.276   0.901   3.348
 5960TIP3    H117886   6.346   0.965   3.333
 5960TIP3    H217887   6.312   0.840   3.412
 5961TIP3   OH217888   3.001   2.969   2.725
 5961TIP3    H117889   2.974   3.034   2.661
 5961TIP3    H217890   3.067   2.917   2.681
 5962TIP3   OH217891   5.129   2.904   3.696
 5962TIP3    H117892   5.177   2.986   3.707
 5962TIP3    H217893   5.172   2.861   3.622
 5963TIP3   OH217894   0.325   3.902   1.139
 5963TIP3    H117895   0.325   3.944   1.225
 5963TIP3    H217896   0.292   3.969   1.080
 5964TIP3   OH217897   6.022   3.274   0.964
 5964TIP3    H117898   6.072   3.260   1.044
 5964TIP3    H217899   6.025   3.368   0.949
 5965TIP3   OH217900   5.390   2.516   3.321
 5965TIP3    H117901   5.295   2.509   3.309
 5965TIP3    H217902   5.424   2.433   3.287
 5966TIP3   OH217903   4.347   2.071   1.337
 5966TIP3    H117904   4.432   2.110   1.355
 5966TIP3    H217905   4.354   1.981   1.368
 5967TIP3   OH217906   0.697   5.505   4.435
 5967TIP3    H117907   0.699   5.599   4.455
 5967TIP3    H217908   0.606   5.480   4.451
 5968TIP3   OH217909   0.379   2.558   3.368
 5968TIP3    H117910   0.342   2.472   3.385
 5968TIP3    H217911   0.380   2.565   3.272
 5969TIP3   OH217912   5.895   3.589   4.134
 5969TIP3    H117913   5.930   3.660   4.080
 5969TIP3    H217914   5.847   3.633   4.204
 5970TIP3   OH217915   5.765   5.431   2.138
 5970TIP3    H117916   5.776   5.424   2.232
 5970TIP3    H217917   5.730   5.519   2.124
 5971TIP3   OH217918   0.952   4.018   4.582
 5971TIP3    H117919   0.989   4.026   4.494
 5971TIP3    H217920   0.916   4.104   4.601
 5972TIP3   OH217921   0.179   5.094   3.405
 5972TIP3    H117922   0.242   5.030   3.371
 5972TIP3    H217923   0.151   5.143   3.327
 5973TIP3   OH217924   5.538   5.211   5.026
 5973TIP3    H117925   5.471   5.149   4.997
 5973TIP3    H217926   5.591   5.161   5.088
 5974TIP3   OH217927   5.943   4.386   0.129
 5974TIP3    H117928   6.014   4.449   0.141
 5974TIP3    H217929   5.898   4.417   0.050
 5975TIP3   OH217930   2.418   2.515   3.707
 5975TIP3    H117931   2.491   2.471   3.751
 5975TIP3    H217932   2.343   2.500   3.763
 5976TIP3   OH217933   0.471   5.820   0.977
 5976TIP3    H117934   0.419   5.767   1.037
 5976TIP3    H217935   0.490   5.762   0.904
 5977TIP3   OH217936   0.473   0.748   3.208
 5977TIP3    H117937   0.452   0.834   3.173
 5977TIP3    H217938   0.399   0.692   3.183
 5978TIP3   OH217939   4.730   0.683   1.126
 5978TIP3    H117940   4.728   0.754   1.190
 5978TIP3    H217941   4.640   0.674   1.096
 5979TIP3   OH217942   2.893   4.018   4.095
 5979TIP3    H117943   2.885   3.945   4.034
 5979TIP3    H217944   2.987   4.026   4.110
 5980TIP3   OH217945   0.243   4.556   1.797
 5980TIP3    H117946   0.228   4.651   1.790
 5980TIP3    H217947   0.303   4.547   1.870
 5981TIP3   OH217948   1.376   5.660   3.483
 5981TIP3    H117949   1.342   5.688   3.568
 5981TIP3    H217950   1.330   5.578   3.464
 5982TIP3   OH217951   5.829   0.452   2.844
 5982TIP3    H117952   5.821   0.422   2.754
 5982TIP3    H217953   5.835   0.547   2.838
 5983TIP3   OH217954   6.235   2.493   4.308
 5983TIP3    H117955   6.197   2.545   4.378
 5983TIP3    H217956   6.248   2.406   4.346
 5984TIP3   OH217957   5.147   3.116   4.039
 5984TIP3    H117958   5.224   3.085   4.086
 5984TIP3    H217959   5.170   3.108   3.946
 5985TIP3   OH217960   6.064   3.793   4.039
 5985TIP3    H117961   6.122   3.859   4.000
 5985TIP3    H217962   6.039   3.831   4.124
 5986TIP3   OH217963   3.260   3.840   5.019
 5986TIP3    H117964   3.351   3.816   5.005
 5986TIP3    H217965   3.221   3.837   4.932
 5987TIP3   OH217966   1.048   4.844   2.032
 5987TIP3    H117967   1.011   4.779   2.092
 5987TIP3    H217968   1.092   4.793   1.964
 5988TIP3   OH217969   4.520   1.723   0.362
 5988TIP3    H117970   4.428   1.702   0.379
 5988TIP3    H217971   4.568   1.684   0.435
 5989TIP3   OH217972   1.103   0.100   1.513
 5989TIP3    H117973   1.160   0.054   1.451
 5989TIP3    H217974   1.106   0.047   1.592
 5990TIP3   OH217975   2.853   3.739   4.715
 5990TIP3    H117976   2.913   3.808   4.743
 5990TIP3    H217977   2.779   3.785   4.676
 5991TIP3   OH217978   5.086   4.409   4.861
 5991TIP3    H117979   5.004   4.359   4.864
 5991TIP3    H217980   5.117   4.397   4.771
 5992TIP3   OH217981   5.124   3.042   0.062
 5992TIP3    H117982   5.127   3.132   0.094
 5992TIP3    H217983   5.104   2.989   0.139
 5993TIP3   OH217984   2.711   0.464   1.072
 5993TIP3    H117985   2.700   0.389   1.014
 5993TIP3    H217986   2.801   0.493   1.058
 5994TIP3   OH217987   0.645   4.940   1.368
 5994TIP3    H117988   0.671   4.860   1.323
 5994TIP3    H217989   0.577   4.978   1.313
 5995TIP3   OH217990   1.707   1.403   1.124
 5995TIP3    H117991   1.634   1.450   1.164
 5995TIP3    H217992   1.748   1.357   1.197
 5996TIP3   OH217993   1.218   3.714   2.680
 5996TIP3    H117994   1.313   3.704   2.689
 5996TIP3    H217995   1.193   3.652   2.611
 5997TIP3   OH217996   2.446   1.372   3.001
 5997TIP3    H117997   2.358   1.391   2.969
 5997TIP3    H217998   2.477   1.454   3.038
 5998TIP3   OH217999   4.574   0.587   0.147
 5998TIP3    H118000   4.512   0.559   0.080
 5998TIP3    H218001   4.518   0.612   0.221
 5999TIP3   OH218002   1.217   4.092   4.765
 5999TIP3    H118003   1.281   4.154   4.800
 5999TIP3    H218004   1.147   4.147   4.731
 6000TIP3   OH218005   0.407   5.108   1.866
 6000TIP3    H118006   0.396   5.192   1.911
 6000TIP3    H218007   0.342   5.110   1.795
 6001TIP3   OH218008   2.929   1.869   1.867
 6001TIP3    H118009   2.933   1.936   1.799
 6001TIP3    H218010   3.019   1.837   1.876
 6002TIP3   OH218011   3.063   5.559   3.008
 6002TIP3    H118012   3.013   5.543   3.088
 6002TIP3    H218013   3.065   5.474   2.964
 6003TIP3   OH218014   0.508   2.774   3.478
 6003TIP3    H118015   0.466   2.695   3.444
 6003TIP3    H218016   0.444   2.810   3.539
 6004TIP3   OH218017   0.403   0.966   4.673
 6004TIP3    H118018   0.363   1.019   4.605
 6004TIP3    H218019   0.464   1.025   4.717
 6005TIP3   OH218020   0.562   1.253   4.638
 6005TIP3    H118021   0.496   1.237   4.571
 6005TIP3    H218022   0.566   1.348   4.645
 6006TIP3   OH218023   0.722   5.064   0.522
 6006TIP3    H118024   0.642   5.015   0.506
 6006TIP3    H218025   0.783   5.034   0.455
 6007TIP3   OH218026   4.404   1.495   3.498
 6007TIP3    H118027   4.338   1.548   3.453
 6007TIP3    H218028   4.483   1.506   3.445
 6008TIP3   OH218029   6.144   2.903   1.571
 6008TIP3    H118030   6.078   2.873   1.634
 6008TIP3    H218031   6.129   2.998   1.564
 6009TIP3   OH218032   0.857   3.734   4.509
 6009TIP3    H118033   0.914   3.808   4.489
 6009TIP3    H218034   0.832   3.747   4.601
 6010TIP3   OH218035   2.333   2.866   1.986
 6010TIP3    H118036   2.391   2.827   1.921
 6010TIP3    H218037   2.259   2.807   1.992
 6011TIP3   OH218038   1.368   3.581   0.126
 6011TIP3    H118039   1.451   3.577   0.174
 6011TIP3    H218040   1.393   3.593   0.035
 6012TIP3   OH218041   3.067   3.820   3.070
 6012TIP3    H118042   3.152   3.781   3.088
 6012TIP3    H218043   3.015   3.800   3.147
 6013TIP3   OH218044   1.907   0.032   1.280
 6013TIP3    H118045   1.980   0.077   1.239
 6013TIP3    H218046   1.921   0.045   1.374
 6014TIP3   OH218047   4.220   2.279   3.103
 6014TIP3    H118048   4.299   2.226   3.118
 6014TIP3    H218049   4.226   2.350   3.168
 6015TIP3   OH218050   4.317   4.158   4.542
 6015TIP3    H118051   4.347   4.068   4.554
 6015TIP3    H218052   4.327   4.174   4.448
 6016TIP3   OH218053   5.284   0.178   1.344
 6016TIP3    H118054   5.193   0.150   1.331
 6016TIP3    H218055   5.303   0.235   1.269
 6017TIP3   OH218056   0.410   2.236   3.009
 6017TIP3    H118057   0.428   2.202   2.921
 6017TIP3    H218058   0.475   2.305   3.022
 6018TIP3   OH218059   5.257   3.102   5.119
 6018TIP3    H118060   5.182   3.055   5.157
 6018TIP3    H218061   5.333   3.052   5.150
 6019TIP3   OH218062   6.209   5.246   4.266
 6019TIP3    H118063   6.197   5.302   4.189
 6019TIP3    H218064   6.166   5.292   4.337
 6020TIP3   OH218065   3.976   2.792   4.988
 6020TIP3    H118066   4.043   2.724   4.990
 6020TIP3    H218067   4.014   2.862   4.935
 6021TIP3   OH218068   4.533   3.958   0.630
 6021TIP3    H118069   4.612   4.008   0.650
 6021TIP3    H218070   4.555   3.908   0.552
 6022TIP3   OH218071   0.098   2.441   4.647
 6022TIP3    H118072   0.155   2.384   4.595
 6022TIP3    H218073   0.019   2.450   4.594
 6023TIP3   OH218074   4.677   0.683   4.689
 6023TIP3    H118075   4.689   0.601   4.640
 6023TIP3    H218076   4.727   0.669   4.769
 6024TIP3   OH218077   3.271   0.150   2.272
 6024TIP3    H118078   3.187   0.135   2.315
 6024TIP3    H218079   3.276   0.084   2.204
 6025TIP3   OH218080   5.129   5.802   2.709
 6025TIP3    H118081   5.125   5.744   2.633
 6025TIP3    H218082   5.199   5.863   2.689
 6026TIP3   OH218083   4.928   3.796   5.152
 6026TIP3    H118084   4.940   3.701   5.161
 6026TIP3    H218085   4.949   3.831   5.238
 6027TIP3   OH218086   5.731   0.192   4.158
 6027TIP3    H118087   5.662   0.243   4.201
 6027TIP3    H218088   5.758   0.246   4.084
 6028TIP3   OH218089   2.400   3.097   4.645
 6028TIP3    H118090   2.473   3.157   4.663
 6028TIP3    H218091   2.366   3.074   4.732
 6029TIP3   OH218092   5.382   0.527   2.609
 6029TIP3    H118093   5.407   0.436   2.624
 6029TIP3    H218094   5.461   0.578   2.626
 6030TIP3   OH218095   5.091   3.824   0.381
 6030TIP3    H118096   5.108   3.875   0.302
 6030TIP3    H218097   5.091   3.888   0.452
 6031TIP3   OH218098   0.035   5.653   4.916
 6031TIP3    H118099   0.012   5.740   4.884
 6031TIP3    H218100   0.029   5.659   5.011
 6032TIP3   OH218101   3.046   2.438   2.295
 6032TIP3    H118102   2.993   2.483   2.360
 6032TIP3    H218103   2.990   2.367   2.264
 6033TIP3   OH218104   0.052   1.912   1.766
 6033TIP3    H118105   0.120   1.854   1.801
 6033TIP3    H218106  -0.020   1.906   1.829
 6034TIP3   OH218107   4.486   5.263   5.041
 6034TIP3    H118108   4.503   5.224   4.956
 6034TIP3    H218109   4.565   5.246   5.092
 6035TIP3   OH218110   5.830   1.122   1.307
 6035TIP3    H118111   5.758   1.177   1.276
 6035TIP3    H218112   5.788   1.056   1.362
 6036TIP3   OH218113   3.822   3.026   1.016
 6036TIP3    H118114   3.851   2.939   0.988
 6036TIP3    H218115   3.772   3.009   1.096
 6037TIP3   OH218116   2.658   1.961   2.685
 6037TIP3    H118117   2.751   1.979   2.700
 6037TIP3    H218118   2.645   1.872   2.718
 6038TIP3   OH218119   4.502   3.001   1.150
 6038TIP3    H118120   4.533   3.070   1.209
 6038TIP3    H218121   4.420   2.971   1.190
 6039TIP3   OH218122   2.908   5.390   2.281
 6039TIP3    H118123   2.874   5.475   2.252
 6039TIP3    H218124   2.874   5.328   2.217
 6040TIP3   OH218125   5.874   4.623   4.923
 6040TIP3    H118126   5.938   4.630   4.853
 6040TIP3    H218127   5.901   4.546   4.974
 6041TIP3   OH218128   3.524   5.062   4.342
 6041TIP3    H118129   3.435   5.031   4.332
 6041TIP3    H218130   3.573   4.987   4.375
 6042TIP3   OH218131   3.100   0.486   4.328
 6042TIP3    H118132   3.167   0.537   4.282
 6042TIP3    H218133   3.019   0.505   4.282
 6043TIP3   OH218134   3.051   4.932   4.996
 6043TIP3    H118135   3.074   4.874   5.068
 6043TIP3    H218136   3.060   5.020   5.033
 6044TIP3   OH218137   5.946   4.533   3.920
 6044TIP3    H118138   5.935   4.540   4.015
 6044TIP3    H218139   5.893   4.456   3.896
 6045TIP3   OH218140   1.704   4.979   1.081
 6045TIP3    H118141   1.623   5.029   1.065
 6045TIP3    H218142   1.704   4.964   1.175
 6046TIP3   OH218143   6.069   3.581   1.140
 6046TIP3    H118144   6.105   3.623   1.219
 6046TIP3    H218145   5.994   3.636   1.117
 6047TIP3   OH218146   2.735   1.667   1.911
 6047TIP3    H118147   2.720   1.691   2.003
 6047TIP3    H218148   2.807   1.724   1.884
 6048TIP3   OH218149   3.967   2.840   2.740
 6048TIP3    H118150   4.026   2.802   2.675
 6048TIP3    H218151   3.993   2.932   2.745
 6049TIP3   OH218152   5.922   1.662   2.297
 6049TIP3    H118153   5.865   1.732   2.329
 6049TIP3    H218154   5.929   1.679   2.202
 6050TIP3   OH218155   2.330   3.336   3.659
 6050TIP3    H118156   2.382   3.280   3.715
 6050TIP3    H218157   2.285   3.276   3.599
 6051TIP3   OH218158   0.203   5.196   4.699
 6051TIP3    H118159   0.169   5.166   4.783
 6051TIP3    H218160   0.153   5.146   4.634
 6052TIP3   OH218161   4.033   4.692   0.164
 6052TIP3    H118162   4.062   4.735   0.244
 6052TIP3    H218163   3.990   4.612   0.195
 6053TIP3   OH218164   3.659   3.899   4.454
 6053TIP3    H118165   3.688   3.851   4.377
 6053TIP3    H218166   3.726   3.967   4.467
 6054TIP3   OH218167   2.089   3.741   2.371
 6054TIP3    H118168   2.175   3.760   2.409
 6054TIP3    H218169   2.103   3.663   2.318
 6055TIP3   OH218170   5.053   0.843   0.449
 6055TIP3    H118171   5.140   0.846   0.409
 6055TIP3    H218172   5.015   0.761   0.416
 6056TIP3   OH218173   4.898   0.659   5.055
 6056TIP3    H118174   4.890   0.754   5.062
 6056TIP3    H218175   4.991   0.642   5.072
 6057TIP3   OH218176   2.367   5.614   0.190
 6057TIP3    H118177   2.331   5.566   0.115
 6057TIP3    H218178   2.332   5.568   0.266
 6058TIP3   OH218179   2.729   0.450   1.345
 6058TIP3    H118180   2.718   0.437   1.251
 6058TIP3    H218181   2.785   0.378   1.373
 6059TIP3   OH218182   4.329   4.150   0.682
 6059TIP3    H118183   4.360   4.061   0.700
 6059TIP3    H218184   4.276   4.141   0.603
 6060TIP3   OH218185   4.380   4.029   3.377
 6060TIP3    H118186   4.449   3.966   3.353
 6060TIP3    H218187   4.419   4.080   3.448
 6061TIP3   OH218188   6.268   1.358   5.025
 6061TIP3    H118189   6.236   1.414   4.955
 6061TIP3    H218190   6.270   1.415   5.102
 6062TIP3   OH218191   1.319   0.912   2.578
 6062TIP3    H118192   1.342   0.854   2.505
 6062TIP3    H218193   1.392   0.902   2.640
 6063TIP3   OH218194   3.149   2.632   2.088
 6063TIP3    H118195   3.107   2.578   2.155
 6063TIP3    H218196   3.243   2.626   2.109
 6064TIP3   OH218197   5.814   4.474   4.663
 6064TIP3    H118198   5.756   4.408   4.625
 6064TIP3    H218199   5.763   4.512   4.735
 6065TIP3   OH218200   0.370   0.308   4.700
 6065TIP3    H118201   0.322   0.318   4.782
 6065TIP3    H218202   0.366   0.214   4.682
 6066TIP3   OH218203   6.096   2.405   4.997
 6066TIP3    H118204   6.093   2.346   5.072
 6066TIP3    H218205   6.189   2.416   4.979
 6067TIP3   OH218206   6.128   4.588   0.088
 6067TIP3    H118207   6.141   4.683   0.088
 6067TIP3    H218208   6.098   4.568   0.000
 6068TIP3   OH218209   0.994   2.625   3.862
 6068TIP3    H118210   0.985   2.531   3.846
 6068TIP3    H218211   1.019   2.661   3.778
 6069TIP3   OH218212   5.472   2.890   2.128
 6069TIP3    H118213   5.564   2.878   2.106
 6069TIP3    H218214   5.426   2.885   2.044
 6070TIP3   OH218215   3.052   4.865   3.656
 6070TIP3    H118216   3.077   4.777   3.626
 6070TIP3    H218217   2.965   4.853   3.695
 6071TIP3   OH218218   2.117   2.809   4.139
 6071TIP3    H118219   2.154   2.802   4.051
 6071TIP3    H218220   2.043   2.870   4.128
 6072TIP3   OH218221   2.693   2.864   4.613
 6072TIP3    H118222   2.674   2.912   4.694
 6072TIP3    H218223   2.737   2.784   4.643
 6073TIP3   OH218224   4.301   1.633   0.940
 6073TIP3    H118225   4.340   1.614   0.855
 6073TIP3    H218226   4.229   1.693   0.920
 6074TIP3   OH218227   4.273   3.915   1.622
 6074TIP3    H118228   4.184   3.904   1.586
 6074TIP3    H218229   4.288   4.009   1.621
 6075TIP3   OH218230   3.076   3.172   4.432
 6075TIP3    H118231   3.040   3.088   4.463
 6075TIP3    H218232   3.088   3.224   4.512
 6076TIP3   OH218233   5.321   0.783   2.478
 6076TIP3    H118234   5.360   0.722   2.541
 6076TIP3    H218235   5.396   0.826   2.437
 6077TIP3   OH218236   3.373   3.588   1.559
 6077TIP3    H118237   3.428   3.654   1.600
 6077TIP3    H218238   3.421   3.562   1.480
 6078TIP3   OH218239   3.054   0.648   4.790
 6078TIP3    H118240   2.962   0.674   4.799
 6078TIP3    H218241   3.098   0.691   4.863
 6079TIP3   OH218242   3.710   1.240   1.990
 6079TIP3    H118243   3.682   1.154   2.023
 6079TIP3    H218244   3.639   1.268   1.932
 6080TIP3   OH218245   0.361   5.405   4.776
 6080TIP3    H118246   0.299   5.334   4.759
 6080TIP3    H218247   0.320   5.456   4.846
 6081TIP3   OH218248   0.776   4.362   3.142
 6081TIP3    H118249   0.769   4.436   3.202
 6081TIP3    H218250   0.786   4.403   3.056
 6082TIP3   OH218251   4.454   1.484   2.602
 6082TIP3    H118252   4.546   1.494   2.629
 6082TIP3    H218253   4.453   1.402   2.552
 6083TIP3   OH218254   5.901   0.104   5.103
 6083TIP3    H118255   5.856   0.037   5.052
 6083TIP3    H218256   5.972   0.135   5.046
 6084TIP3   OH218257   0.177   5.457   1.116
 6084TIP3    H118258   0.106   5.505   1.159
 6084TIP3    H218259   0.140   5.371   1.096
 6085TIP3   OH218260   0.729   0.791   5.102
 6085TIP3    H118261   0.663   0.858   5.121
 6085TIP3    H218262   0.680   0.719   5.063
 6086TIP3   OH218263   5.675   5.970   3.509
 6086TIP3    H118264   5.668   5.978   3.414
 6086TIP3    H218265   5.737   5.898   3.522
 6087TIP3   OH218266   2.483   4.148   3.023
 6087TIP3    H118267   2.467   4.076   3.084
 6087TIP3    H218268   2.483   4.107   2.937
 6088TIP3   OH218269   4.007   3.943   0.911
 6088TIP3    H118270   3.956   4.014   0.950
 6088TIP3    H218271   4.028   3.886   0.985
 6089TIP3   OH218272   2.176   1.286   0.151
 6089TIP3    H118273   2.175   1.312   0.059
 6089TIP3    H218274   2.147   1.195   0.150
 6090TIP3   OH218275   2.854   2.912   0.156
 6090TIP3    H118276   2.886   2.846   0.216
 6090TIP3    H218277   2.873   2.877   0.069
 6091TIP3   OH218278   4.761   4.338   3.805
 6091TIP3    H118279   4.748   4.332   3.900
 6091TIP3    H218280   4.749   4.248   3.774
 6092TIP3   OH218281   3.263   0.599   2.467
 6092TIP3    H118282   3.289   0.548   2.544
 6092TIP3    H218283   3.221   0.677   2.504
 6093TIP3   OH218284   5.074   0.779   2.591
 6093TIP3    H118285   5.090   0.823   2.674
 6093TIP3    H218286   5.152   0.796   2.538
 6094TIP3   OH218287   0.394   3.747   3.394
 6094TIP3    H118288   0.380   3.841   3.402
 6094TIP3    H218289   0.334   3.709   3.458
 6095TIP3   OH218290   3.798   5.785   4.015
 6095TIP3    H118291   3.757   5.730   3.948
 6095TIP3    H218292   3.747   5.770   4.094
 6096TIP3   OH218293   6.156   0.639   0.909
 6096TIP3    H118294   6.219   0.585   0.955
 6096TIP3    H218295   6.206   0.717   0.883
 6097TIP3   OH218296   1.604   3.824   4.229
 6097TIP3    H118297   1.623   3.792   4.317
 6097TIP3    H218298   1.594   3.919   4.240
 6098TIP3   OH218299   3.096   0.462   3.352
 6098TIP3    H118300   3.025   0.511   3.310
 6098TIP3    H218301   3.089   0.484   3.445
 6099TIP3   OH218302   6.374   2.233   2.042
 6099TIP3    H118303   6.307   2.279   2.093
 6099TIP3    H218304   6.337   2.146   2.027
 6100TIP3   OH218305   1.765   1.568   1.988
 6100TIP3    H118306   1.818   1.518   1.927
 6100TIP3    H218307   1.789   1.535   2.074
 6101TIP3   OH218308   0.852   4.507   2.345
 6101TIP3    H118309   0.877   4.599   2.344
 6101TIP3    H218310   0.917   4.465   2.401
 6102TIP3   OH218311   6.202   1.580   2.942
 6102TIP3    H118312   6.250   1.653   2.903
 6102TIP3    H218313   6.121   1.620   2.974
 6103TIP3   OH218314   2.041   0.718   4.542
 6103TIP3    H118315   2.048   0.725   4.446
 6103TIP3    H218316   1.984   0.790   4.567
 6104TIP3   OH218317   2.870   0.856   1.824
 6104TIP3    H118318   2.891   0.852   1.731
 6104TIP3    H218319   2.901   0.772   1.859
 6105TIP3   OH218320   3.681   0.959   2.407
 6105TIP3    H118321   3.620   1.020   2.447
 6105TIP3    H218322   3.764   0.975   2.452
 6106TIP3   OH218323   1.550   4.348   1.959
 6106TIP3    H118324   1.635   4.304   1.955
 6106TIP3    H218325   1.572   4.441   1.970
 6107TIP3   OH218326   0.179   4.004   2.703
 6107TIP3    H118327   0.112   4.071   2.716
 6107TIP3    H218328   0.250   4.029   2.761
 6108TIP3   OH218329   0.876   0.572   2.487
 6108TIP3    H118330   0.795   0.605   2.524
 6108TIP3    H218331   0.858   0.561   2.394
 6109TIP3   OH218332   0.388   4.408   1.599
 6109TIP3    H118333   0.336   4.472   1.648
 6109TIP3    H218334   0.353   4.323   1.624
 6110TIP3   OH218335   3.704   5.658   3.543
 6110TIP3    H118336   3.624   5.635   3.495
 6110TIP3    H218337   3.752   5.715   3.483
 6111TIP3   OH218338   4.170   0.552   3.202
 6111TIP3    H118339   4.251   0.510   3.231
 6111TIP3    H218340   4.181   0.564   3.107
 6112TIP3   OH218341   5.063   2.813   4.726
 6112TIP3    H118342   5.041   2.725   4.757
 6112TIP3    H218343   5.151   2.829   4.759
 6113TIP3   OH218344   2.683   4.186   4.625
 6113TIP3    H118345   2.745   4.205   4.555
 6113TIP3    H218346   2.618   4.256   4.618
 6114TIP3   OH218347   1.586   1.763   1.719
 6114TIP3    H118348   1.577   1.669   1.705
 6114TIP3    H218349   1.641   1.771   1.797
 6115TIP3   OH218350   0.363   4.146   0.783
 6115TIP3    H118351   0.277   4.106   0.792
 6115TIP3    H218352   0.425   4.075   0.796
 6116TIP3   OH218353   3.578   5.579   1.482
 6116TIP3    H118354   3.604   5.581   1.390
 6116TIP3    H218355   3.539   5.665   1.498
 6117TIP3   OH218356   5.790   0.562   4.888
 6117TIP3    H118357   5.735   0.599   4.957
 6117TIP3    H218358   5.756   0.473   4.875
 6118TIP3   OH218359   3.225   4.874   1.547
 6118TIP3    H118360   3.171   4.799   1.524
 6118TIP3    H218361   3.314   4.838   1.556
 6119TIP3   OH218362   5.093   1.185   0.262
 6119TIP3    H118363   5.159   1.208   0.328
 6119TIP3    H218364   5.133   1.115   0.211
 6120TIP3   OH218365   5.523   3.543   1.948
 6120TIP3    H118366   5.549   3.513   1.861
 6120TIP3    H218367   5.428   3.542   1.947
 6121TIP3   OH218368   1.354   4.287   2.531
 6121TIP3    H118369   1.392   4.218   2.585
 6121TIP3    H218370   1.318   4.242   2.455
 6122TIP3   OH218371  -0.016   0.733   3.548
 6122TIP3    H118372  -0.040   0.785   3.625
 6122TIP3    H218373   0.064   0.688   3.574
 6123TIP3   OH218374   3.920   5.071   1.772
 6123TIP3    H118375   3.974   5.131   1.822
 6123TIP3    H218376   3.941   5.090   1.680
 6124TIP3   OH218377   0.847   4.116   3.942
 6124TIP3    H118378   0.862   4.021   3.938
 6124TIP3    H218379   0.799   4.136   3.862
 6125TIP3   OH218380   2.947   2.894   3.758
 6125TIP3    H118381   2.949   2.908   3.853
 6125TIP3    H218382   3.010   2.957   3.723
 6126TIP3   OH218383   5.278   4.362   1.926
 6126TIP3    H118384   5.229   4.422   1.869
 6126TIP3    H218385   5.237   4.372   2.012
 6127TIP3   OH218386   1.418   3.183   4.721
 6127TIP3    H118387   1.339   3.232   4.745
 6127TIP3    H218388   1.406   3.164   4.628
 6128TIP3   OH218389   5.758   2.433   0.514
 6128TIP3    H118390   5.678   2.455   0.467
 6128TIP3    H218391   5.785   2.349   0.478
 6129TIP3   OH218392   3.961   4.688   4.370
 6129TIP3    H118393   4.017   4.613   4.389
 6129TIP3    H218394   3.901   4.657   4.302
 6130TIP3   OH218395   3.842   4.807   2.053
 6130TIP3    H118396   3.749   4.817   2.035
 6130TIP3    H218397   3.860   4.868   2.125
 6131TIP3   OH218398   0.475   4.213   3.713
 6131TIP3    H118399   0.497   4.120   3.709
 6131TIP3    H218400   0.548   4.253   3.760
 6132TIP3   OH218401   0.866   5.412   0.664
 6132TIP3    H118402   0.910   5.409   0.579
 6132TIP3    H218403   0.785   5.460   0.648
 6133TIP3   OH218404   2.944   0.830   0.885
 6133TIP3    H118405   2.867   0.876   0.920
 6133TIP3    H218406   2.984   0.894   0.826
 6134TIP3   OH218407   5.208   2.142   2.711
 6134TIP3    H118408   5.210   2.238   2.713
 6134TIP3    H218409   5.152   2.121   2.636
 6135TIP3   OH218410   0.314   2.135   0.245
 6135TIP3    H118411   0.387   2.095   0.290
 6135TIP3    H218412   0.352   2.172   0.165
 6136TIP3   OH218413   5.498   5.492   4.967
 6136TIP3    H118414   5.569   5.543   5.006
 6136TIP3    H218415   5.525   5.401   4.980
 6137TIP3   OH218416   3.138   1.862   2.120
 6137TIP3    H118417   3.148   1.944   2.071
 6137TIP3    H218418   3.142   1.794   2.052
 6138TIP3   OH218419   3.023   0.372   0.548
 6138TIP3    H118420   2.965   0.445   0.568
 6138TIP3    H218421   3.096   0.380   0.610
 6139TIP3   OH218422   4.152   1.935   3.567
 6139TIP3    H118423   4.137   2.006   3.505
 6139TIP3    H218424   4.109   1.963   3.648
 6140TIP3   OH218425   2.326   0.217   2.374
 6140TIP3    H118426   2.265   0.193   2.443
 6140TIP3    H218427   2.275   0.273   2.315
 6141TIP3   OH218428   2.399   2.683   3.123
 6141TIP3    H118429   2.355   2.609   3.164
 6141TIP3    H218430   2.424   2.740   3.196
 6142TIP3   OH218431   5.465   2.288   5.101
 6142TIP3    H118432   5.431   2.285   5.190
 6142TIP3    H218433   5.501   2.201   5.086
 6143TIP3   OH218434   3.492   3.648   2.613
 6143TIP3    H118435   3.485   3.744   2.616
 6143TIP3    H218436   3.560   3.627   2.677
 6144TIP3   OH218437   4.746   1.376   2.070
 6144TIP3    H118438   4.839   1.395   2.060
 6144TIP3    H218439   4.703   1.459   2.049
 6145TIP3   OH218440   4.130   0.577   1.349
 6145TIP3    H118441   4.156   0.631   1.423
 6145TIP3    H218442   4.037   0.559   1.363
 6146TIP3   OH218443   5.366   5.752   0.811
 6146TIP3    H118444   5.331   5.762   0.722
 6146TIP3    H218445   5.300   5.792   0.867
 6147TIP3   OH218446   3.079   4.590   4.432
 6147TIP3    H118447   3.090   4.537   4.354
 6147TIP3    H218448   3.168   4.607   4.463
 6148TIP3   OH218449   0.344   4.972   4.838
 6148TIP3    H118450   0.415   5.025   4.803
 6148TIP3    H218451   0.354   4.976   4.933
 6149TIP3   OH218452   2.368   5.529   2.909
 6149TIP3    H118453   2.408   5.594   2.967
 6149TIP3    H218454   2.424   5.452   2.918
 6150TIP3   OH218455   5.294   2.065   4.852
 6150TIP3    H118456   5.239   1.998   4.810
 6150TIP3    H218457   5.233   2.135   4.875
 6151TIP3   OH218458   6.062   1.684   1.136
 6151TIP3    H118459   6.147   1.670   1.094
 6151TIP3    H218460   6.039   1.774   1.115
 6152TIP3   OH218461   1.205   0.396   4.589
 6152TIP3    H118462   1.271   0.464   4.601
 6152TIP3    H218463   1.153   0.399   4.670
 6153TIP3   OH218464   1.858   1.917   2.609
 6153TIP3    H118465   1.845   1.832   2.652
 6153TIP3    H218466   1.947   1.943   2.633
 6154TIP3   OH218467   0.425   1.373   1.122
 6154TIP3    H118468   0.480   1.294   1.114
 6154TIP3    H218469   0.397   1.373   1.214
 6155TIP3   OH218470   4.360   1.811   1.690
 6155TIP3    H118471   4.303   1.868   1.742
 6155TIP3    H218472   4.410   1.871   1.635
 6156TIP3   OH218473   4.796   3.402   1.154
 6156TIP3    H118474   4.778   3.475   1.095
 6156TIP3    H218475   4.737   3.333   1.125
 6157TIP3   OH218476   3.456   1.859   1.380
 6157TIP3    H118477   3.381   1.801   1.372
 6157TIP3    H218478   3.500   1.853   1.295
 6158TIP3   OH218479   3.507   1.482   1.378
 6158TIP3    H118480   3.444   1.536   1.427
 6158TIP3    H218481   3.453   1.429   1.320
 6159TIP3   OH218482  -0.010   4.399   1.773
 6159TIP3    H118483  -0.038   4.362   1.857
 6159TIP3    H218484   0.067   4.452   1.794
 6160TIP3   OH218485   3.020   2.650   1.318
 6160TIP3    H118486   2.998   2.742   1.303
 6160TIP3    H218487   2.938   2.610   1.347
 6161TIP3   OH218488   4.037   4.987   4.087
 6161TIP3    H118489   3.965   4.930   4.060
 6161TIP3    H218490   4.107   4.926   4.111
 6162TIP3   OH218491   4.006   5.549   0.818
 6162TIP3    H118492   4.094   5.513   0.832
 6162TIP3    H218493   4.014   5.600   0.737
 6163TIP3   OH218494   0.184   3.323   0.105
 6163TIP3    H118495   0.235   3.396   0.140
 6163TIP3    H218496   0.249   3.254   0.088
 6164TIP3   OH218497   2.612   0.455   3.623
 6164TIP3    H118498   2.628   0.445   3.529
 6164TIP3    H218499   2.520   0.429   3.634
 6165TIP3   OH218500   0.505   2.377   2.627
 6165TIP3    H118501   0.441   2.317   2.589
 6165TIP3    H218502   0.455   2.426   2.693
 6166TIP3   OH218503   2.130   5.747   1.828
 6166TIP3    H118504   2.095   5.679   1.886
 6166TIP3    H218505   2.114   5.829   1.875
 6167TIP3   OH218506   4.158   3.895   2.905
 6167TIP3    H118507   4.223   3.964   2.918
 6167TIP3    H218508   4.194   3.819   2.951
 6168TIP3   OH218509   1.767   4.166   0.176
 6168TIP3    H118510   1.832   4.232   0.202
 6168TIP3    H218511   1.800   4.130   0.094
 6169TIP3   OH218512   3.938   3.818   0.406
 6169TIP3    H118513   3.898   3.869   0.477
 6169TIP3    H218514   3.937   3.877   0.331
 6170TIP3   OH218515   3.856   4.633   3.098
 6170TIP3    H118516   3.873   4.569   3.029
 6170TIP3    H218517   3.889   4.591   3.178
 6171TIP3   OH218518   4.568   5.217   3.682
 6171TIP3    H118519   4.503   5.166   3.633
 6171TIP3    H218520   4.643   5.221   3.623
 6172TIP3   OH218521   2.305   5.252   2.785
 6172TIP3    H118522   2.397   5.269   2.765
 6172TIP3    H218523   2.257   5.293   2.713
 6173TIP3   OH218524   4.996   1.581   3.420
 6173TIP3    H118525   4.937   1.644   3.380
 6173TIP3    H218526   5.068   1.634   3.455
 6174TIP3   OH218527   0.675   4.409   4.595
 6174TIP3    H118528   0.618   4.341   4.560
 6174TIP3    H218529   0.695   4.381   4.684
 6175TIP3   OH218530   1.167   4.500   3.273
 6175TIP3    H118531   1.203   4.414   3.249
 6175TIP3    H218532   1.202   4.517   3.361
 6176TIP3   OH218533   2.713   0.469   2.567
 6176TIP3    H118534   2.636   0.427   2.607
 6176TIP3    H218535   2.679   0.514   2.490
 6177TIP3   OH218536   2.653   1.349   4.188
 6177TIP3    H118537   2.691   1.267   4.157
 6177TIP3    H218538   2.671   1.350   4.282
 6178TIP3   OH218539   5.620   1.428   3.125
 6178TIP3    H118540   5.545   1.480   3.097
 6178TIP3    H218541   5.664   1.403   3.044
 6179TIP3   OH218542   0.593   1.569   3.142
 6179TIP3    H118543   0.544   1.575   3.060
 6179TIP3    H218544   0.529   1.589   3.210
 6180TIP3   OH218545   4.825   4.975   4.159
 6180TIP3    H118546   4.836   5.070   4.153
 6180TIP3    H218547   4.817   4.946   4.068
 6181TIP3   OH218548   2.587   2.499   2.989
 6181TIP3    H118549   2.618   2.441   3.059
 6181TIP3    H218550   2.510   2.541   3.025
 6182TIP3   OH218551   1.388   3.378   1.481
 6182TIP3    H118552   1.386   3.315   1.409
 6182TIP3    H218553   1.481   3.396   1.494
 6183TIP3   OH218554   2.286   3.966   3.690
 6183TIP3    H118555   2.220   3.912   3.733
 6183TIP3    H218556   2.245   3.996   3.610
 6184TIP3   OH218557   1.538   0.543   4.186
 6184TIP3    H118558   1.490   0.569   4.106
 6184TIP3    H218559   1.507   0.454   4.204
 6185TIP3   OH218560   4.352   2.249   1.564
 6185TIP3    H118561   4.333   2.309   1.636
 6185TIP3    H218562   4.448   2.239   1.565
 6186TIP3   OH218563   2.808   0.890   3.001
 6186TIP3    H118564   2.759   0.906   3.082
 6186TIP3    H218565   2.741   0.888   2.932
 6187TIP3   OH218566   5.496   0.727   0.863
 6187TIP3    H118567   5.438   0.710   0.789
 6187TIP3    H218568   5.443   0.778   0.925
 6188TIP3   OH218569   4.280   0.236   3.830
 6188TIP3    H118570   4.187   0.232   3.854
 6188TIP3    H218571   4.280   0.225   3.735
 6189TIP3   OH218572   3.122   0.818   1.202
 6189TIP3    H118573   3.066   0.890   1.173
 6189TIP3    H218574   3.061   0.748   1.227
 6190TIP3   OH218575   2.854   0.208   4.099
 6190TIP3    H118576   2.824   0.195   4.009
 6190TIP3    H218577   2.779   0.184   4.154
 6191TIP3   OH218578   0.451   0.245   2.493
 6191TIP3    H118579   0.438   0.153   2.515
 6191TIP3    H218580   0.375   0.290   2.532
 6192TIP3   OH218581   1.850   4.924   3.852
 6192TIP3    H118582   1.904   4.962   3.783
 6192TIP3    H218583   1.795   4.860   3.807
 6193TIP3   OH218584   1.615   4.912   1.321
 6193TIP3    H118585   1.539   4.855   1.312
 6193TIP3    H218586   1.580   4.992   1.362
 6194TIP3   OH218587  -0.004   0.266   4.319
 6194TIP3    H118588  -0.031   0.183   4.279
 6194TIP3    H218589   0.033   0.316   4.247
 6195TIP3   OH218590   2.948   4.343   0.329
 6195TIP3    H118591   2.853   4.352   0.322
 6195TIP3    H218592   2.971   4.397   0.405
 6196TIP3   OH218593   2.274   1.063   3.521
 6196TIP3    H118594   2.271   1.129   3.451
 6196TIP3    H218595   2.353   1.085   3.570
 6197TIP3   OH218596   2.683   2.530   0.553
 6197TIP3    H118597   2.719   2.458   0.604
 6197TIP3    H218598   2.666   2.599   0.617
 6198TIP3   OH218599   5.451   1.831   2.148
 6198TIP3    H118600   5.437   1.851   2.056
 6198TIP3    H218601   5.398   1.752   2.164
 6199TIP3   OH218602   3.573   3.746   3.688
 6199TIP3    H118603   3.514   3.684   3.644
 6199TIP3    H218604   3.566   3.724   3.781
 6200TIP3   OH218605   0.026   3.048   0.691
 6200TIP3    H118606   0.075   2.966   0.701
 6200TIP3    H218607   0.011   3.078   0.780
 6201TIP3   OH218608   2.128   4.864   4.175
 6201TIP3    H118609   2.077   4.935   4.213
 6201TIP3    H218610   2.116   4.791   4.237
 6202TIP3   OH218611   5.383   3.314   1.562
 6202TIP3    H118612   5.305   3.368   1.573
 6202TIP3    H218613   5.455   3.369   1.594
 6203TIP3   OH218614   2.069   1.565   1.029
 6203TIP3    H118615   2.029   1.533   1.110
 6203TIP3    H218616   2.097   1.486   0.983
 6204TIP3   OH218617   2.597   3.758   4.057
 6204TIP3    H118618   2.538   3.750   3.982
 6204TIP3    H218619   2.684   3.737   4.022
 6205TIP3   OH218620   4.316   0.850   3.708
 6205TIP3    H118621   4.314   0.790   3.634
 6205TIP3    H218622   4.407   0.847   3.739
 6206TIP3   OH218623   1.890   1.978   1.129
 6206TIP3    H118624   1.973   1.944   1.095
 6206TIP3    H218625   1.911   2.064   1.164
 6207TIP3   OH218626   5.470   3.630   2.543
 6207TIP3    H118627   5.446   3.626   2.635
 6207TIP3    H218628   5.559   3.595   2.539
 6208TIP3   OH218629   4.763   2.468   0.455
 6208TIP3    H118630   4.738   2.384   0.418
 6208TIP3    H218631   4.806   2.514   0.383
 6209TIP3   OH218632   2.301   0.821   0.991
 6209TIP3    H118633   2.368   0.753   0.994
 6209TIP3    H218634   2.320   0.878   1.065
 6210TIP3   OH218635   3.267   5.360   1.949
 6210TIP3    H118636   3.235   5.376   2.038
 6210TIP3    H218637   3.189   5.340   1.899
 6211TIP3   OH218638   1.726   1.054   0.808
 6211TIP3    H118639   1.661   0.997   0.848
 6211TIP3    H218640   1.699   1.142   0.832
 6212TIP3   OH218641   3.406   2.741   0.813
 6212TIP3    H118642   3.329   2.793   0.790
 6212TIP3    H218643   3.477   2.804   0.818
 6213TIP3   OH218644   1.415   0.987   4.939
 6213TIP3    H118645   1.459   1.029   4.865
 6213TIP3    H218646   1.328   1.027   4.942
 6214TIP3   OH218647   2.821   4.283   4.164
 6214TIP3    H118648   2.726   4.288   4.150
 6214TIP3    H218649   2.847   4.200   4.124
 6215TIP3   OH218650   4.027   1.663   3.750
 6215TIP3    H118651   3.942   1.703   3.731
 6215TIP3    H218652   4.089   1.735   3.748
 6216TIP3   OH218653   1.378   1.282   4.374
 6216TIP3    H118654   1.340   1.231   4.303
 6216TIP3    H218655   1.321   1.265   4.449
 6217TIP3   OH218656   2.092   2.235   1.993
 6217TIP3    H118657   2.165   2.287   2.027
 6217TIP3    H218658   2.015   2.270   2.037
 6218TIP3   OH218659   0.927   4.960   0.018
 6218TIP3    H118660   1.016   4.944  -0.014
 6218TIP3    H218661   0.881   4.878   0.003
 6219TIP3   OH218662   5.798   3.432   3.926
 6219TIP3    H118663   5.871   3.372   3.942
 6219TIP3    H218664   5.802   3.495   3.997
 6220TIP3   OH218665   0.103   5.445   1.784
 6220TIP3    H118666   0.168   5.473   1.719
 6220TIP3    H218667   0.026   5.422   1.733
 6221TIP3   OH218668   0.623   1.797   1.571
 6221TIP3    H118669   0.623   1.721   1.513
 6221TIP3    H218670   0.655   1.869   1.518
 6222TIP3   OH218671   1.141   5.498   3.410
 6222TIP3    H118672   1.066   5.549   3.379
 6222TIP3    H218673   1.113   5.467   3.497
 6223TIP3   OH218674   3.308   3.888   1.527
 6223TIP3    H118675   3.280   3.853   1.611
 6223TIP3    H218676   3.227   3.902   1.479
 6224TIP3   OH218677   1.710   4.147   5.009
 6224TIP3    H118678   1.775   4.204   5.051
 6224TIP3    H218679   1.751   4.118   4.928
 6225TIP3   OH218680   0.462   0.875   0.156
 6225TIP3    H118681   0.489   0.960   0.121
 6225TIP3    H218682   0.536   0.817   0.139
 6226TIP3   OH218683   5.449   0.906   4.212
 6226TIP3    H118684   5.416   0.895   4.301
 6226TIP3    H218685   5.519   0.971   4.221
 6227TIP3   OH218686   4.121   5.662   4.421
 6227TIP3    H118687   4.183   5.669   4.494
 6227TIP3    H218688   4.102   5.568   4.416
 6228TIP3   OH218689   4.596   5.199   1.715
 6228TIP3    H118690   4.637   5.113   1.708
 6228TIP3    H218691   4.522   5.186   1.774
 6229TIP3   OH218692   5.223   2.502   0.902
 6229TIP3    H118693   5.252   2.573   0.959
 6229TIP3    H218694   5.289   2.499   0.832
 6230TIP3   OH218695  -0.016   2.911   3.368
 6230TIP3    H118696  -0.057   2.970   3.430
 6230TIP3    H218697   0.069   2.950   3.349
 6231TIP3   OH218698   2.804   5.515   4.180
 6231TIP3    H118699   2.888   5.555   4.203
 6231TIP3    H218700   2.785   5.457   4.253
 6232TIP3   OH218701   4.363   3.837   2.307
 6232TIP3    H118702   4.335   3.757   2.263
 6232TIP3    H218703   4.292   3.900   2.291
 6233TIP3   OH218704   6.212   0.625   0.596
 6233TIP3    H118705   6.263   0.645   0.674
 6233TIP3    H218706   6.262   0.662   0.524
 6234TIP3   OH218707   0.948   2.963   3.484
 6234TIP3    H118708   1.032   2.945   3.443
 6234TIP3    H218709   0.911   3.035   3.432
 6235TIP3   OH218710   1.145   5.098   3.448
 6235TIP3    H118711   1.077   5.076   3.385
 6235TIP3    H218712   1.128   5.189   3.472
 6236TIP3   OH218713   1.475   1.995   5.003
 6236TIP3    H118714   1.496   2.071   4.949
 6236TIP3    H218715   1.546   1.992   5.068
 6237TIP3   OH218716   5.155   3.470   1.528
 6237TIP3    H118717   5.209   3.549   1.525
 6237TIP3    H218718   5.089   3.489   1.595
 6238TIP3   OH218719   2.015   1.152   0.457
 6238TIP3    H118720   2.024   1.057   0.449
 6238TIP3    H218721   2.105   1.184   0.461
 6239TIP3   OH218722   3.059   4.293   1.960
 6239TIP3    H118723   2.970   4.329   1.967
 6239TIP3    H218724   3.072   4.279   1.866
 6240TIP3   OH218725   4.586   2.971   0.145
 6240TIP3    H118726   4.625   2.937   0.225
 6240TIP3    H218727   4.537   3.048   0.174
 6241TIP3   OH218728   2.751   5.807   4.151
 6241TIP3    H118729   2.776   5.898   4.138
 6241TIP3    H218730   2.764   5.766   4.065
 6242TIP3   OH218731   5.990   1.552   5.119
 6242TIP3    H118732   5.994   1.554   5.215
 6242TIP3    H218733   5.924   1.485   5.099
 6243TIP3   OH218734   1.809   1.836   1.549
 6243TIP3    H118735   1.870   1.771   1.585
 6243TIP3    H218736   1.739   1.842   1.615
 6244TIP3   OH218737   4.918   5.433   1.534
 6244TIP3    H118738   4.974   5.368   1.575
 6244TIP3    H218739   4.914   5.408   1.442
 6245TIP3   OH218740   3.778   0.321   0.898
 6245TIP3    H118741   3.808   0.293   0.984
 6245TIP3    H218742   3.835   0.276   0.836
 6246TIP3   OH218743   1.290   3.999   3.548
 6246TIP3    H118744   1.222   3.979   3.613
 6246TIP3    H218745   1.243   3.998   3.464
 6247TIP3   OH218746   4.547   4.204   0.457
 6247TIP3    H118747   4.523   4.296   0.445
 6247TIP3    H218748   4.542   4.190   0.551
 6248TIP3   OH218749   2.577   3.085   1.219
 6248TIP3    H118750   2.622   3.018   1.271
 6248TIP3    H218751   2.646   3.146   1.193
 6249TIP3   OH218752   2.660   2.430   2.732
 6249TIP3    H118753   2.633   2.456   2.820
 6249TIP3    H218754   2.728   2.494   2.708
 6250TIP3   OH218755   0.472   3.253   4.693
 6250TIP3    H118756   0.545   3.313   4.709
 6250TIP3    H218757   0.483   3.184   4.759
 6251TIP3   OH218758   4.145   5.840   1.697
 6251TIP3    H118759   4.128   5.748   1.680
 6251TIP3    H218760   4.059   5.882   1.688
 6252TIP3   OH218761   6.259   1.332   2.799
 6252TIP3    H118762   6.230   1.401   2.859
 6252TIP3    H218763   6.200   1.259   2.817
 6253TIP3   OH218764   4.346   1.606   1.217
 6253TIP3    H118765   4.343   1.589   1.123
 6253TIP3    H218766   4.273   1.665   1.233
 6254TIP3   OH218767   5.130   5.140   3.819
 6254TIP3    H118768   5.085   5.058   3.840
 6254TIP3    H218769   5.068   5.187   3.762
 6255TIP3   OH218770   0.181   4.566   4.554
 6255TIP3    H118771   0.216   4.535   4.471
 6255TIP3    H218772   0.239   4.637   4.581
 6256TIP3   OH218773   1.820   5.826   2.582
 6256TIP3    H118774   1.914   5.821   2.601
 6256TIP3    H218775   1.794   5.735   2.568
 6257TIP3   OH218776   5.363   0.353   3.313
 6257TIP3    H118777   5.360   0.377   3.406
 6257TIP3    H218778   5.444   0.392   3.280
 6258TIP3   OH218779   2.632   5.133   0.661
 6258TIP3    H118780   2.611   5.221   0.690
 6258TIP3    H218781   2.573   5.076   0.710
 6259TIP3   OH218782   3.229   4.234   5.033
 6259TIP3    H118783   3.293   4.224   5.103
 6259TIP3    H218784   3.158   4.175   5.057
 6260TIP3   OH218785   2.165   0.416   1.424
 6260TIP3    H118786   2.123   0.377   1.500
 6260TIP3    H218787   2.167   0.346   1.359
 6261TIP3   OH218788   5.135   4.474   2.654
 6261TIP3    H118789   5.187   4.445   2.729
 6261TIP3    H218790   5.148   4.406   2.588
 6262TIP3   OH218791   1.312   1.661   1.758
 6262TIP3    H118792   1.357   1.603   1.697
 6262TIP3    H218793   1.378   1.726   1.782
 6263TIP3   OH218794   4.722   0.043   0.164
 6263TIP3    H118795   4.638   0.083   0.186
 6263TIP3    H218796   4.705  -0.051   0.169
 6264TIP3   OH218797   1.796   0.705   0.109
 6264TIP3    H118798   1.804   0.635   0.044
 6264TIP3    H218799   1.702   0.727   0.109
 6265TIP3   OH218800   2.576   3.085   2.003
 6265TIP3    H118801   2.612   2.996   2.000
 6265TIP3    H218802   2.592   3.115   2.093
 6266TIP3   OH218803   1.839   4.413   0.895
 6266TIP3    H118804   1.846   4.465   0.975
 6266TIP3    H218805   1.928   4.380   0.880
 6267TIP3   OH218806   0.997   3.326   2.295
 6267TIP3    H118807   0.969   3.301   2.383
 6267TIP3    H218808   1.081   3.282   2.283
 6268TIP3   OH218809   5.398   5.877   3.162
 6268TIP3    H118810   5.361   5.793   3.134
 6268TIP3    H218811   5.387   5.934   3.086
 6269TIP3   OH218812   1.860   2.421   0.708
 6269TIP3    H118813   1.927   2.354   0.722
 6269TIP3    H218814   1.778   2.373   0.701
 6270TIP3   OH218815   0.673   3.599   0.263
 6270TIP3    H118816   0.641   3.602   0.353
 6270TIP3    H218817   0.657   3.687   0.229
 6271TIP3   OH218818   2.504   4.738   4.802
 6271TIP3    H118819   2.466   4.771   4.884
 6271TIP3    H218820   2.599   4.743   4.816
 6272TIP3   OH218821   5.055   2.386   1.376
 6272TIP3    H118822   5.065   2.411   1.468
 6272TIP3    H218823   5.035   2.293   1.379
 6273TIP3   OH218824   1.346   3.332   0.268
 6273TIP3    H118825   1.372   3.282   0.190
 6273TIP3    H218826   1.329   3.420   0.235
 6274TIP3   OH218827   0.600   3.381   2.693
 6274TIP3    H118828   0.673   3.340   2.738
 6274TIP3    H218829   0.572   3.452   2.751
 6275TIP3   OH218830   6.070   5.707   0.891
 6275TIP3    H118831   6.122   5.643   0.843
 6275TIP3    H218832   6.098   5.698   0.982
 6276TIP3   OH218833   5.697   4.226   4.953
 6276TIP3    H118834   5.729   4.208   5.042
 6276TIP3    H218835   5.776   4.237   4.901
 6277TIP3   OH218836   3.522   0.194   4.139
 6277TIP3    H118837   3.441   0.153   4.169
 6277TIP3    H218838   3.589   0.127   4.155
 6278TIP3   OH218839   4.218   5.289   1.570
 6278TIP3    H118840   4.140   5.303   1.516
 6278TIP3    H218841   4.247   5.201   1.547
 6279TIP3   OH218842   5.767   3.458   1.475
 6279TIP3    H118843   5.734   3.412   1.398
 6279TIP3    H218844   5.862   3.453   1.467
 6280TIP3   OH218845   4.426   5.922   2.173
 6280TIP3    H118846   4.362   5.988   2.198
 6280TIP3    H218847   4.453   5.947   2.084
 6281TIP3   OH218848   1.235   5.563   0.677
 6281TIP3    H118849   1.203   5.508   0.606
 6281TIP3    H218850   1.207   5.519   0.757
 6282TIP3   OH218851   2.916   1.362   1.814
 6282TIP3    H118852   2.915   1.281   1.865
 6282TIP3    H218853   2.824   1.377   1.791
 6283TIP3   OH218854   2.565   4.785   0.818
 6283TIP3    H118855   2.519   4.740   0.888
 6283TIP3    H218856   2.658   4.780   0.843
 6284TIP3   OH218857   4.229   4.520   0.041
 6284TIP3    H118858   4.158   4.578   0.068
 6284TIP3    H218859   4.293   4.577  -0.001
 6285TIP3   OH218860   5.242   3.685   0.577
 6285TIP3    H118861   5.196   3.718   0.500
 6285TIP3    H218862   5.247   3.590   0.564
 6286TIP3   OH218863   5.189   4.367   0.590
 6286TIP3    H118864   5.136   4.374   0.669
 6286TIP3    H218865   5.219   4.276   0.589
 6287TIP3   OH218866   0.218   4.774   1.043
 6287TIP3    H118867   0.172   4.759   0.960
 6287TIP3    H218868   0.274   4.697   1.052
 6288TIP3   OH218869   5.338   0.901   1.820
 6288TIP3    H118870   5.385   0.859   1.748
 6288TIP3    H218871   5.256   0.851   1.828
 6289TIP3   OH218872   4.722   1.194   3.085
 6289TIP3    H118873   4.712   1.170   2.993
 6289TIP3    H218874   4.637   1.174   3.124
 6290TIP3   OH218875   1.403   4.738   1.515
 6290TIP3    H118876   1.385   4.644   1.522
 6290TIP3    H218877   1.351   4.767   1.440
 6291TIP3   OH218878   6.051   3.261   1.840
 6291TIP3    H118879   6.115   3.242   1.772
 6291TIP3    H218880   6.103   3.288   1.916
 6292TIP3   OH218881   6.187   3.644   0.421
 6292TIP3    H118882   6.196   3.570   0.361
 6292TIP3    H218883   6.119   3.616   0.483
 6293TIP3   OH218884   3.507   3.634   3.050
 6293TIP3    H118885   3.472   3.713   3.091
 6293TIP3    H218886   3.430   3.589   3.015
 6294TIP3   OH218887   4.280   0.316   2.298
 6294TIP3    H118888   4.231   0.262   2.360
 6294TIP3    H218889   4.238   0.402   2.302
 6295TIP3   OH218890   0.585   1.973   0.123
 6295TIP3    H118891   0.564   1.882   0.105
 6295TIP3    H218892   0.680   1.975   0.134
 6296TIP3   OH218893   5.110   2.181   4.632
 6296TIP3    H118894   5.067   2.196   4.716
 6296TIP3    H218895   5.148   2.093   4.640
 6297TIP3   OH218896   2.645   5.431   5.038
 6297TIP3    H118897   2.593   5.364   5.083
 6297TIP3    H218898   2.731   5.391   5.025
 6298TIP3   OH218899   2.290   3.063   2.182
 6298TIP3    H118900   2.315   3.026   2.097
 6298TIP3    H218901   2.324   3.000   2.246
 6299TIP3   OH218902   2.125   1.625   0.263
 6299TIP3    H118903   2.073   1.546   0.248
 6299TIP3    H218904   2.090   1.662   0.344
 6300TIP3   OH218905   1.512   5.575   3.860
 6300TIP3    H118906   1.553   5.640   3.916
 6300TIP3    H218907   1.430   5.616   3.832
 6301TIP3   OH218908   2.115   3.309   2.443
 6301TIP3    H118909   2.076   3.252   2.376
 6301TIP3    H218910   2.137   3.389   2.396
 6302TIP3   OH218911   4.427   4.418   0.635
 6302TIP3    H118912   4.386   4.462   0.560
 6302TIP3    H218913   4.383   4.333   0.640
 6303TIP3   OH218914   2.843   0.805   3.974
 6303TIP3    H118915   2.839   0.889   3.928
 6303TIP3    H218916   2.934   0.778   3.968
 6304TIP3   OH218917   4.871   2.692   1.530
 6304TIP3    H118918   4.818   2.689   1.451
 6304TIP3    H218919   4.811   2.722   1.599
 6305TIP3   OH218920   1.718   0.519   2.071
 6305TIP3    H118921   1.799   0.469   2.063
 6305TIP3    H218922   1.708   0.562   1.986
 6306TIP3   OH218923   3.234   5.129   0.108
 6306TIP3    H118924   3.207   5.219   0.129
 6306TIP3    H218925   3.310   5.140   0.051
 6307TIP3   OH218926   1.712   4.617   1.242
 6307TIP3    H118927   1.670   4.652   1.164
 6307TIP3    H218928   1.797   4.584   1.211
 6308TIP3   OH218929   1.292   2.185   4.123
 6308TIP3    H118930   1.278   2.268   4.170
 6308TIP3    H218931   1.326   2.212   4.038
 6309TIP3   OH218932   0.077   0.975   2.809
 6309TIP3    H118933   0.087   1.011   2.897
 6309TIP3    H218934   0.045   0.886   2.822
 6310TIP3   OH218935   3.975   2.514   1.899
 6310TIP3    H118936   3.915   2.447   1.868
 6310TIP3    H218937   4.031   2.469   1.962
 6311TIP3   OH218938   3.384   0.786   0.101
 6311TIP3    H118939   3.463   0.840   0.099
 6311TIP3    H218940   3.340   0.810   0.183
 6312TIP3   OH218941   5.536   0.360   1.704
 6312TIP3    H118942   5.484   0.291   1.661
 6312TIP3    H218943   5.472   0.408   1.757
 6313TIP3   OH218944   3.131   5.755   4.262
 6313TIP3    H118945   3.090   5.758   4.176
 6313TIP3    H218946   3.061   5.725   4.321
 6314TIP3   OH218947   4.978   1.369   0.935
 6314TIP3    H118948   4.986   1.291   0.880
 6314TIP3    H218949   4.934   1.433   0.880
 6315TIP3   OH218950   3.684   4.773   2.524
 6315TIP3    H118951   3.658   4.748   2.435
 6315TIP3    H218952   3.622   4.727   2.581
 6316TIP3   OH218953   6.353   2.031   0.098
 6316TIP3    H118954   6.436   2.079   0.103
 6316TIP3    H218955   6.286   2.096   0.115
 6317TIP3   OH218956   4.867   4.597   3.139
 6317TIP3    H118957   4.796   4.540   3.111
 6317TIP3    H218958   4.839   4.685   3.115
 6318TIP3   OH218959   0.166   5.376   3.524
 6318TIP3    H118960   0.203   5.292   3.549
 6318TIP3    H218961   0.149   5.368   3.430
 6319TIP3   OH218962   4.851   0.690   3.062
 6319TIP3    H118963   4.871   0.751   2.991
 6319TIP3    H218964   4.829   0.746   3.136
 6320TIP3   OH218965   1.422   2.641   1.523
 6320TIP3    H118966   1.381   2.728   1.515
 6320TIP3    H218967   1.515   2.660   1.534
 6321TIP3   OH218968   1.188   2.941   0.077
 6321TIP3    H118969   1.249   2.932   0.004
 6321TIP3    H218970   1.237   2.913   0.154
 6322TIP3   OH218971   4.522   4.838   2.861
 6322TIP3    H118972   4.528   4.744   2.845
 6322TIP3    H218973   4.608   4.872   2.836
 6323TIP3   OH218974   0.840   4.763   2.698
 6323TIP3    H118975   0.780   4.714   2.641
 6323TIP3    H218976   0.841   4.712   2.779
 6324TIP3   OH218977   0.061   2.522   5.195
 6324TIP3    H118978   0.003   2.598   5.199
 6324TIP3    H218979   0.061   2.497   5.103
 6325TIP3   OH218980   5.104   1.323   4.233
 6325TIP3    H118981   5.148   1.359   4.156
 6325TIP3    H218982   5.026   1.377   4.244
 6326TIP3   OH218983   1.072   1.276   1.976
 6326TIP3    H118984   1.003   1.276   2.042
 6326TIP3    H218985   1.145   1.322   2.017
 6327TIP3   OH218986   1.185   0.861   3.916
 6327TIP3    H118987   1.142   0.902   3.991
 6327TIP3    H218988   1.229   0.934   3.871
 6328TIP3   OH218989   5.242   3.553   1.923
 6328TIP3    H118990   5.185   3.600   1.983
 6328TIP3    H218991   5.185   3.487   1.883
 6329TIP3   OH218992   0.640   0.809   2.200
 6329TIP3    H118993   0.716   0.751   2.209
 6329TIP3    H218994   0.640   0.833   2.107
 6330TIP3   OH218995   2.630   1.005   1.831
 6330TIP3    H118996   2.714   0.960   1.844
 6330TIP3    H218997   2.627   1.071   1.900
 6331TIP3   OH218998   3.472   4.052   0.796
 6331TIP3    H118999   3.556   4.007   0.804
 6331TIP3    H219000   3.460   4.064   0.702
 6332TIP3   OH219001   3.955   2.487   5.144
 6332TIP3    H119002   4.021   2.518   5.206
 6332TIP3    H219003   3.992   2.406   5.108
 6333TIP3   OH219004   1.259   3.632   1.538
 6333TIP3    H119005   1.227   3.609   1.625
 6333TIP3    H219006   1.305   3.554   1.507
 6334TIP3   OH219007   1.794   2.409   2.667
 6334TIP3    H119008   1.838   2.441   2.588
 6334TIP3    H219009   1.782   2.315   2.651
 6335TIP3   OH219010   1.843   2.333   2.201
 6335TIP3    H119011   1.783   2.379   2.142
 6335TIP3    H219012   1.819   2.241   2.193
 6336TIP3   OH219013   0.655   2.706   3.811
 6336TIP3    H119014   0.613   2.641   3.754
 6336TIP3    H219015   0.585   2.768   3.832
 6337TIP3   OH219016   1.148   2.214   1.992
 6337TIP3    H119017   1.192   2.202   1.908
 6337TIP3    H219018   1.088   2.139   1.997
 6338TIP3   OH219019   4.713   0.027   1.152
 6338TIP3    H119020   4.708  -0.009   1.240
 6338TIP3    H219021   4.802   0.007   1.122
 6339TIP3   OH219022   6.307   2.000   4.138
 6339TIP3    H119023   6.256   2.060   4.192
 6339TIP3    H219024   6.242   1.956   4.083
 6340TIP3   OH219025   1.205   0.333   1.839
 6340TIP3    H119026   1.135   0.275   1.868
 6340TIP3    H219027   1.179   0.360   1.752
 6341TIP3   OH219028   0.384   2.558   4.300
 6341TIP3    H119029   0.370   2.606   4.219
 6341TIP3    H219030   0.431   2.479   4.273
 6342TIP3   OH219031   2.091   2.849   3.426
 6342TIP3    H119032   2.056   2.760   3.423
 6342TIP3    H219033   2.045   2.895   3.356
 6343TIP3   OH219034   5.403   1.171   5.128
 6343TIP3    H119035   5.452   1.245   5.163
 6343TIP3    H219036   5.470   1.107   5.104
 6344TIP3   OH219037   1.964   4.537   4.461
 6344TIP3    H119038   1.980   4.538   4.556
 6344TIP3    H219039   1.918   4.619   4.443
 6345TIP3   OH219040   5.750   0.086   0.142
 6345TIP3    H119041   5.695   0.113   0.068
 6345TIP3    H219042   5.839   0.103   0.113
 6346TIP3   OH219043   1.225   0.457   3.020
 6346TIP3    H119044   1.290   0.408   2.970
 6346TIP3    H219045   1.221   0.412   3.104
 6347TIP3   OH219046   2.354   3.494   1.957
 6347TIP3    H119047   2.399   3.564   2.004
 6347TIP3    H219048   2.416   3.422   1.957
 6348TIP3   OH219049   5.922   4.135   0.632
 6348TIP3    H119050   5.888   4.220   0.606
 6348TIP3    H219051   5.917   4.081   0.553
 6349TIP3   OH219052   6.137   3.767   3.013
 6349TIP3    H119053   6.180   3.844   2.976
 6349TIP3    H219054   6.044   3.789   3.012
 6350TIP3   OH219055   0.368   0.079   3.181
 6350TIP3    H119056   0.281   0.107   3.211
 6350TIP3    H219057   0.428   0.115   3.247
 6351TIP3   OH219058   2.355   3.131   1.826
 6351TIP3    H119059   2.378   3.099   1.913
 6351TIP3    H219060   2.438   3.161   1.789
 6352TIP3   OH219061   0.526   0.041   0.731
 6352TIP3    H119062   0.606   0.086   0.704
 6352TIP3    H219063   0.458   0.078   0.676
 6353TIP3   OH219064   1.370   2.855   2.854
 6353TIP3    H119065   1.303   2.885   2.916
 6353TIP3    H219066   1.404   2.774   2.893
 6354TIP3   OH219067   3.906   0.101   2.726
 6354TIP3    H119068   3.839   0.159   2.691
 6354TIP3    H219069   3.885   0.015   2.688
 6355TIP3   OH219070   6.191   2.763   0.774
 6355TIP3    H119071   6.155   2.824   0.709
 6355TIP3    H219072   6.284   2.758   0.753
 6356TIP3   OH219073   4.817   5.781   0.828
 6356TIP3    H119074   4.885   5.798   0.893
 6356TIP3    H219075   4.799   5.866   0.789
 6357TIP3   OH219076   3.390   2.191   0.859
 6357TIP3    H119077   3.305   2.225   0.888
 6357TIP3    H219078   3.394   2.213   0.766
 6358TIP3   OH219079   0.249   3.363   2.812
 6358TIP3    H119080   0.227   3.312   2.734
 6358TIP3    H219081   0.284   3.445   2.778
 6359TIP3   OH219082   3.992   5.994   4.710
 6359TIP3    H119083   4.053   6.019   4.640
 6359TIP3    H219084   3.924   5.944   4.666
 6360TIP3   OH219085   5.088   5.262   0.670
 6360TIP3    H119086   5.117   5.347   0.637
 6360TIP3    H219087   5.001   5.278   0.705
 6361TIP3   OH219088   3.268   5.733   2.184
 6361TIP3    H119089   3.304   5.801   2.242
 6361TIP3    H219090   3.174   5.750   2.184
 6362TIP3   OH219091   4.639   0.472   0.848
 6362TIP3    H119092   4.645   0.454   0.941
 6362TIP3    H219093   4.730   0.474   0.817
 6363TIP3   OH219094   5.437   4.698   3.042
 6363TIP3    H119095   5.423   4.615   3.086
 6363TIP3    H219096   5.378   4.759   3.086
 6364TIP3   OH219097   0.212   0.660   1.213
 6364TIP3    H119098   0.196   0.712   1.292
 6364TIP3    H219099   0.267   0.716   1.158
 6365TIP3   OH219100   3.975   4.870   1.077
 6365TIP3    H119101   3.969   4.775   1.066
 6365TIP3    H219102   3.918   4.905   1.008
 6366TIP3   OH219103   0.944   5.134   0.683
 6366TIP3    H119104   0.925   5.224   0.710
 6366TIP3    H219105   0.867   5.107   0.633
 6367TIP3   OH219106   4.770   1.959   2.330
 6367TIP3    H119107   4.788   1.890   2.266
 6367TIP3    H219108   4.764   1.914   2.414
 6368TIP3   OH219109   3.953   3.936   3.773
 6368TIP3    H119110   3.931   3.867   3.835
 6368TIP3    H219111   3.912   3.908   3.691
 6369TIP3   OH219112   2.951   4.592   2.106
 6369TIP3    H119113   3.036   4.549   2.104
 6369TIP3    H219114   2.966   4.677   2.064
 6370TIP3   OH219115   2.135   4.798   2.160
 6370TIP3    H119116   2.163   4.853   2.233
 6370TIP3    H219117   2.108   4.716   2.200
 6371TIP3   OH219118   4.252   2.945   1.268
 6371TIP3    H119119   4.207   2.862   1.283
 6371TIP3    H219120   4.184   3.004   1.236
 6372TIP3   OH219121   5.765   1.708   1.011
 6372TIP3    H119122   5.757   1.804   1.011
 6372TIP3    H219123   5.845   1.691   1.060
 6373TIP3   OH219124   0.114   4.290   4.381
 6373TIP3    H119125   0.190   4.346   4.362
 6373TIP3    H219126   0.049   4.316   4.316
 6374TIP3   OH219127   4.161   1.680   1.521
 6374TIP3    H119128   4.137   1.720   1.437
 6374TIP3    H219129   4.226   1.740   1.558
 6375TIP3   OH219130   1.298   4.883   0.695
 6375TIP3    H119131   1.228   4.914   0.638
 6375TIP3    H219132   1.265   4.897   0.784
 6376TIP3   OH219133   1.760   3.011   0.166
 6376TIP3    H119134   1.699   2.939   0.185
 6376TIP3    H219135   1.730   3.047   0.083
 6377TIP3   OH219136   3.561   1.108   1.419
 6377TIP3    H119137   3.466   1.115   1.408
 6377TIP3    H219138   3.591   1.199   1.426
 6378TIP3   OH219139   3.005   5.437   4.854
 6378TIP3    H119140   3.094   5.435   4.889
 6378TIP3    H219141   2.949   5.409   4.927
 6379TIP3   OH219142   2.483   3.247   5.031
 6379TIP3    H119143   2.464   3.160   4.998
 6379TIP3    H219144   2.578   3.254   5.029
 6380TIP3   OH219145   1.692   1.337   4.130
 6380TIP3    H119146   1.716   1.429   4.122
 6380TIP3    H219147   1.672   1.326   4.223
 6381TIP3   OH219148   0.074   2.722   3.750
 6381TIP3    H119149   0.055   2.631   3.729
 6381TIP3    H219150   0.014   2.772   3.695
 6382TIP3   OH219151   4.674   3.425   0.186
 6382TIP3    H119152   4.685   3.477   0.266
 6382TIP3    H219153   4.626   3.483   0.126
 6383TIP3   OH219154   4.804   0.166   4.363
 6383TIP3    H119155   4.881   0.213   4.332
 6383TIP3    H219156   4.791   0.197   4.453
 6384TIP3   OH219157   5.978   0.421   3.073
 6384TIP3    H119158   5.903   0.434   3.015
 6384TIP3    H219159   5.954   0.347   3.128
 6385TIP3   OH219160   3.411   3.180   3.160
 6385TIP3    H119161   3.379   3.165   3.071
 6385TIP3    H219162   3.376   3.107   3.210
 6386TIP3   OH219163   4.189   3.647   2.977
 6386TIP3    H119164   4.205   3.585   2.905
 6386TIP3    H219165   4.158   3.593   3.049
 6387TIP3   OH219166   3.907   2.607   3.067
 6387TIP3    H119167   3.865   2.635   2.986
 6387TIP3    H219168   3.997   2.587   3.041
 6388TIP3   OH219169   4.954   2.959   3.274
 6388TIP3    H119170   4.893   2.975   3.346
 6388TIP3    H219171   5.007   3.039   3.270
 6389TIP3   OH219172   2.494   1.491   4.753
 6389TIP3    H119173   2.547   1.422   4.793
 6389TIP3    H219174   2.556   1.562   4.735
 6390TIP3   OH219175   2.157   3.158   2.682
 6390TIP3    H119176   2.154   3.216   2.606
 6390TIP3    H219177   2.070   3.119   2.687
 6391TIP3   OH219178   1.739   0.327   5.144
 6391TIP3    H119179   1.679   0.390   5.103
 6391TIP3    H219180   1.795   0.381   5.200
 6392TIP3   OH219181   3.117   1.998   1.366
 6392TIP3    H119182   3.132   1.940   1.291
 6392TIP3    H219183   3.181   2.069   1.354
 6393TIP3   OH219184   3.796   1.670   2.015
 6393TIP3    H119185   3.838   1.752   2.041
 6393TIP3    H219186   3.811   1.664   1.921
 6394TIP3   OH219187   4.491   4.179   3.134
 6394TIP3    H119188   4.419   4.148   3.188
 6394TIP3    H219189   4.560   4.113   3.146
 6395TIP3   OH219190   3.655   1.007   2.129
 6395TIP3    H119191   3.565   0.985   2.153
 6395TIP3    H219192   3.701   1.011   2.213
 6396TIP3   OH219193   5.667   1.204   3.939
 6396TIP3    H119194   5.732   1.223   3.871
 6396TIP3    H219195   5.698   1.123   3.979
 6397TIP3   OH219196   5.955   5.723   0.634
 6397TIP3    H119197   5.988   5.807   0.602
 6397TIP3    H219198   5.982   5.719   0.726
 6398TIP3   OH219199   4.764   5.353   4.950
 6398TIP3    H119200   4.844   5.400   4.975
 6398TIP3    H219201   4.737   5.309   5.031
 6399TIP3   OH219202   3.920   0.784   1.691
 6399TIP3    H119203   3.890   0.800   1.781
 6399TIP3    H219204   3.853   0.824   1.636
 6400TIP3   OH219205   0.903   4.927   4.383
 6400TIP3    H119206   0.922   4.840   4.348
 6400TIP3    H219207   0.837   4.963   4.323
 6401TIP3   OH219208   1.815   4.492   2.153
 6401TIP3    H119209   1.890   4.448   2.113
 6401TIP3    H219210   1.769   4.532   2.079
 6402TIP3   OH219211   1.292   3.675   2.977
 6402TIP3    H119212   1.221   3.709   2.922
 6402TIP3    H219213   1.265   3.695   3.067
 6403TIP3   OH219214   0.725   2.542   2.606
 6403TIP3    H119215   0.665   2.611   2.579
 6403TIP3    H219216   0.676   2.461   2.595
 6404TIP3   OH219217   3.137   4.303   2.599
 6404TIP3    H119218   3.190   4.335   2.673
 6404TIP3    H219219   3.125   4.380   2.544
 6405TIP3   OH219220   4.710   3.969   1.598
 6405TIP3    H119221   4.701   3.944   1.690
 6405TIP3    H219222   4.662   4.052   1.591
 6406TIP3   OH219223   0.647   2.469   0.748
 6406TIP3    H119224   0.684   2.421   0.674
 6406TIP3    H219225   0.577   2.414   0.781
 6407TIP3   OH219226   3.584   4.459   3.822
 6407TIP3    H119227   3.590   4.518   3.897
 6407TIP3    H219228   3.670   4.415   3.819
 6408TIP3   OH219229   3.144   3.081   0.532
 6408TIP3    H119230   3.070   3.141   0.525
 6408TIP3    H219231   3.202   3.122   0.596
 6409TIP3   OH219232   2.869   2.913   0.501
 6409TIP3    H119233   2.860   3.006   0.524
 6409TIP3    H219234   2.949   2.910   0.449
 6410TIP3   OH219235   1.762   0.351   0.862
 6410TIP3    H119236   1.705   0.401   0.919
 6410TIP3    H219237   1.845   0.400   0.861
 6411TIP3   OH219238   1.774   1.097   2.992
 6411TIP3    H119239   1.711   1.025   2.985
 6411TIP3    H219240   1.823   1.094   2.910
 6412TIP3   OH219241   2.020   2.713   4.368
 6412TIP3    H119242   2.080   2.677   4.433
 6412TIP3    H219243   2.074   2.726   4.290
 6413TIP3   OH219244   0.299   5.151   4.234
 6413TIP3    H119245   0.365   5.201   4.283
 6413TIP3    H219246   0.320   5.166   4.142
 6414TIP3   OH219247   0.884   1.355   0.906
 6414TIP3    H119248   0.882   1.407   0.987
 6414TIP3    H219249   0.854   1.415   0.838
 6415TIP3   OH219250   5.445   0.986   0.136
 6415TIP3    H119251   5.485   0.900   0.125
 6415TIP3    H219252   5.366   0.983   0.082
 6416TIP3   OH219253   3.533   1.668   0.836
 6416TIP3    H119254   3.607   1.634   0.786
 6416TIP3    H219255   3.463   1.603   0.824
 6417TIP3   OH219256   0.323   5.841   2.829
 6417TIP3    H119257   0.232   5.858   2.852
 6417TIP3    H219258   0.342   5.756   2.867
 6418TIP3   OH219259   0.391   5.387   1.919
 6418TIP3    H119260   0.482   5.380   1.947
 6418TIP3    H219261   0.357   5.461   1.969
 6419TIP3   OH219262   0.629   4.522   1.359
 6419TIP3    H119263   0.664   4.582   1.293
 6419TIP3    H219264   0.559   4.474   1.315
 6420TIP3   OH219265   2.436   1.076   2.245
 6420TIP3    H119266   2.407   1.105   2.332
 6420TIP3    H219267   2.509   1.017   2.263
 6421TIP3   OH219268   0.983   3.558   2.868
 6421TIP3    H119269   1.067   3.570   2.823
 6421TIP3    H219270   0.964   3.643   2.907
 6422TIP3   OH219271   3.322   4.524   3.424
 6422TIP3    H119272   3.400   4.479   3.455
 6422TIP3    H219273   3.353   4.611   3.398
 6423TIP3   OH219274   5.508   0.212   3.567
 6423TIP3    H119275   5.415   0.194   3.575
 6423TIP3    H219276   5.535   0.236   3.656
 6424TIP3   OH219277   5.756   1.815   4.302
 6424TIP3    H119278   5.839   1.832   4.347
 6424TIP3    H219279   5.760   1.722   4.279
 6425TIP3   OH219280   6.302   4.561   0.965
 6425TIP3    H119281   6.254   4.643   0.959
 6425TIP3    H219282   6.366   4.564   0.894
 6426TIP3   OH219283   0.243   4.909   2.632
 6426TIP3    H119284   0.159   4.909   2.678
 6426TIP3    H219285   0.288   4.831   2.664
 6427TIP3   OH219286   3.554   3.566   1.339
 6427TIP3    H119287   3.646   3.556   1.363
 6427TIP3    H219288   3.550   3.543   1.246
 6428TIP3   OH219289   5.083   3.586   3.202
 6428TIP3    H119290   5.050   3.630   3.280
 6428TIP3    H219291   5.173   3.617   3.193
 6429TIP3   OH219292   4.388   1.525   0.677
 6429TIP3    H119293   4.316   1.486   0.628
 6429TIP3    H219294   4.467   1.496   0.630
 6430TIP3   OH219295   0.265   2.175   4.719
 6430TIP3    H119296   0.270   2.240   4.649
 6430TIP3    H219297   0.310   2.098   4.685
 6431TIP3   OH219298   5.485   2.681   3.134
 6431TIP3    H119299   5.523   2.748   3.190
 6431TIP3    H219300   5.456   2.613   3.194
 6432TIP3   OH219301   4.682   4.798   0.469
 6432TIP3    H119302   4.728   4.735   0.414
 6432TIP3    H219303   4.695   4.882   0.426
 6433TIP3   OH219304   3.065   2.724   4.190
 6433TIP3    H119305   3.057   2.666   4.266
 6433TIP3    H219306   3.110   2.671   4.124
 6434TIP3   OH219307   4.353   4.145   4.259
 6434TIP3    H119308   4.414   4.071   4.254
 6434TIP3    H219309   4.268   4.107   4.235
 6435TIP3   OH219310   1.740   5.483   0.898
 6435TIP3    H119311   1.673   5.416   0.884
 6435TIP3    H219312   1.821   5.443   0.867
 6436TIP3   OH219313   5.393   5.123   3.746
 6436TIP3    H119314   5.398   5.148   3.654
 6436TIP3    H219315   5.299   5.111   3.762
 6437TIP3   OH219316   5.777   5.120   2.704
 6437TIP3    H119317   5.722   5.182   2.751
 6437TIP3    H219318   5.724   5.041   2.696
 6438TIP3   OH219319   5.841   5.577   1.724
 6438TIP3    H119320   5.855   5.547   1.634
 6438TIP3    H219321   5.753   5.546   1.747
 6439TIP3   OH219322   4.982   4.549   1.118
 6439TIP3    H119323   5.028   4.626   1.085
 6439TIP3    H219324   4.912   4.534   1.055
 6440TIP3   OH219325   3.973   0.237   1.815
 6440TIP3    H119326   3.945   0.173   1.880
 6440TIP3    H219327   4.068   0.230   1.813
 6441TIP3   OH219328   4.759   2.661   4.891
 6441TIP3    H119329   4.816   2.732   4.922
 6441TIP3    H219330   4.678   2.673   4.941
 6442TIP3   OH219331   0.919   5.004   0.300
 6442TIP3    H119332   0.962   5.090   0.300
 6442TIP3    H219333   0.875   4.999   0.216
 6443TIP3   OH219334   2.934   4.009   1.896
 6443TIP3    H119335   2.976   3.950   1.959
 6443TIP3    H219336   2.946   4.096   1.934
 6444TIP3   OH219337   3.253   5.118   3.462
 6444TIP3    H119338   3.187   5.136   3.528
 6444TIP3    H219339   3.333   5.159   3.497
 6445TIP3   OH219340   4.646   5.828   3.379
 6445TIP3    H119341   4.716   5.785   3.331
 6445TIP3    H219342   4.685   5.909   3.411
 6446TIP3   OH219343   2.954   5.044   3.147
 6446TIP3    H119344   2.975   5.060   3.055
 6446TIP3    H219345   3.035   5.012   3.185
 6447TIP3   OH219346   0.602   0.715   2.493
 6447TIP3    H119347   0.641   0.757   2.416
 6447TIP3    H219348   0.587   0.786   2.555
 6448TIP3   OH219349   5.654   2.552   5.131
 6448TIP3    H119350   5.624   2.461   5.123
 6448TIP3    H219351   5.594   2.591   5.195
 6449TIP3   OH219352   5.625   2.720   1.041
 6449TIP3    H119353   5.710   2.720   1.086
 6449TIP3    H219354   5.622   2.805   0.997
 6450TIP3   OH219355   2.485   1.957   1.980
 6450TIP3    H119356   2.422   1.889   1.956
 6450TIP3    H219357   2.566   1.909   1.998
 6451TIP3   OH219358   2.247   4.534   3.337
 6451TIP3    H119359   2.325   4.533   3.282
 6451TIP3    H219360   2.204   4.617   3.318
 6452TIP3   OH219361   3.452   4.766   3.320
 6452TIP3    H119362   3.371   4.815   3.313
 6452TIP3    H219363   3.501   4.789   3.241
 6453TIP3   OH219364   5.586   4.630   4.137
 6453TIP3    H119365   5.578   4.536   4.155
 6453TIP3    H219366   5.669   4.655   4.177
 6454TIP3   OH219367   3.667   0.980   2.785
 6454TIP3    H119368   3.694   0.984   2.693
 6454TIP3    H219369   3.735   1.029   2.832
 6455TIP3   OH219370   0.609   3.766   1.138
 6455TIP3    H119371   0.679   3.793   1.197
 6455TIP3    H219372   0.645   3.779   1.050
 6456TIP3   OH219373   2.203   0.732   0.078
 6456TIP3    H119374   2.137   0.683   0.127
 6456TIP3    H219375   2.191   0.705  -0.013
 6457TIP3   OH219376   0.160   1.624   2.995
 6457TIP3    H119377   0.128   1.628   2.905
 6457TIP3    H219378   0.255   1.618   2.986
 6458TIP3   OH219379   3.001   0.109   1.498
 6458TIP3    H119380   3.020   0.177   1.562
 6458TIP3    H219381   2.982   0.158   1.417
 6459TIP3   OH219382   3.027   1.901   3.966
 6459TIP3    H119383   2.982   1.837   4.020
 6459TIP3    H219384   2.960   1.965   3.943
 6460TIP3   OH219385   3.251   5.949   1.948
 6460TIP3    H119386   3.266   5.896   1.870
 6460TIP3    H219387   3.311   5.913   2.014
 6461TIP3   OH219388   3.599   3.475   5.116
 6461TIP3    H119389   3.570   3.434   5.198
 6461TIP3    H219390   3.548   3.430   5.048
 6462TIP3   OH219391   0.270   0.402   2.667
 6462TIP3    H119392   0.272   0.495   2.688
 6462TIP3    H219393   0.301   0.358   2.746
 6463TIP3   OH219394   4.410   4.976   2.407
 6463TIP3    H119395   4.328   5.013   2.373
 6463TIP3    H219396   4.387   4.885   2.428
 6464TIP3   OH219397   3.671   3.778   0.237
 6464TIP3    H119398   3.726   3.706   0.265
 6464TIP3    H219399   3.702   3.800   0.149
 6465TIP3   OH219400   1.851   0.756   3.401
 6465TIP3    H119401   1.805   0.672   3.401
 6465TIP3    H219402   1.861   0.778   3.309
 6466TIP3   OH219403   0.264   3.891   5.196
 6466TIP3    H119404   0.287   3.900   5.104
 6466TIP3    H219405   0.316   3.817   5.227
 6467TIP3   OH219406   0.611   5.347   2.493
 6467TIP3    H119407   0.588   5.439   2.480
 6467TIP3    H219408   0.578   5.326   2.581
 6468TIP3   OH219409   3.867   2.306   1.213
 6468TIP3    H119410   3.900   2.264   1.292
 6468TIP3    H219411   3.818   2.237   1.168
 6469TIP3   OH219412   3.071   1.528   3.604
 6469TIP3    H119413   3.007   1.521   3.675
 6469TIP3    H219414   3.097   1.438   3.586
 6470TIP3   OH219415   2.495   4.095   2.743
 6470TIP3    H119416   2.547   4.036   2.689
 6470TIP3    H219417   2.505   4.181   2.703
 6471TIP3   OH219418   2.765   0.991   4.752
 6471TIP3    H119419   2.688   1.010   4.698
 6471TIP3    H219420   2.750   0.901   4.783
 6472TIP3   OH219421   4.599   1.591   1.982
 6472TIP3    H119422   4.560   1.592   1.895
 6472TIP3    H219423   4.527   1.565   2.040
 6473TIP3   OH219424   4.877   3.987   4.371
 6473TIP3    H119425   4.905   4.015   4.458
 6473TIP3    H219426   4.934   3.913   4.350
 6474TIP3   OH219427   4.541   5.408   3.102
 6474TIP3    H119428   4.545   5.383   3.010
 6474TIP3    H219429   4.544   5.504   3.101
 6475TIP3   OH219430   0.344   0.215   4.336
 6475TIP3    H119431   0.425   0.170   4.314
 6475TIP3    H219432   0.275   0.162   4.297
 6476TIP3   OH219433   3.985   0.771   2.474
 6476TIP3    H119434   4.030   0.852   2.454
 6476TIP3    H219435   3.920   0.761   2.405
 6477TIP3   OH219436   1.409   0.510   2.395
 6477TIP3    H119437   1.327   0.502   2.346
 6477TIP3    H219438   1.430   0.603   2.391
 6478TIP3   OH219439   2.642   4.311   1.813
 6478TIP3    H119440   2.604   4.350   1.734
 6478TIP3    H219441   2.734   4.336   1.810
 6479TIP3   OH219442   2.338   5.897   2.529
 6479TIP3    H119443   2.330   5.965   2.596
 6479TIP3    H219444   2.409   5.927   2.473
 6480TIP3   OH219445   4.651   3.128   4.973
 6480TIP3    H119446   4.714   3.107   4.904
 6480TIP3    H219447   4.576   3.165   4.927
 6481TIP3   OH219448   1.692   4.847   4.190
 6481TIP3    H119449   1.641   4.918   4.229
 6481TIP3    H219450   1.652   4.833   4.104
 6482TIP3   OH219451   1.831   4.770   4.420
 6482TIP3    H119452   1.893   4.842   4.430
 6482TIP3    H219453   1.772   4.799   4.351
 6483TIP3   OH219454   3.098   5.227   0.951
 6483TIP3    H119455   3.011   5.218   0.910
 6483TIP3    H219456   3.150   5.272   0.884
 6484TIP3   OH219457   1.988   5.359   0.194
 6484TIP3    H119458   1.917   5.333   0.136
 6484TIP3    H219459   2.056   5.393   0.135
 6485TIP3   OH219460   5.496   3.231   0.038
 6485TIP3    H119461   5.417   3.285   0.046
 6485TIP3    H219462   5.521   3.239  -0.054
 6486TIP3   OH219463   1.725   5.901   0.606
 6486TIP3    H119464   1.786   5.962   0.649
 6486TIP3    H219465   1.779   5.825   0.586
 6487TIP3   OH219466   5.146   3.156   3.352
 6487TIP3    H119467   5.135   3.215   3.278
 6487TIP3    H219468   5.084   3.187   3.417
 6488TIP3   OH219469   5.773   5.867   1.775
 6488TIP3    H119470   5.746   5.918   1.699
 6488TIP3    H219471   5.816   5.790   1.739
 6489TIP3   OH219472   3.227   2.369   2.737
 6489TIP3    H119473   3.195   2.330   2.656
 6489TIP3    H219474   3.147   2.392   2.786
 6490TIP3   OH219475   2.561   5.309   2.697
 6490TIP3    H119476   2.586   5.292   2.606
 6490TIP3    H219477   2.644   5.318   2.744
 6491TIP3   OH219478   5.003   1.748   5.135
 6491TIP3    H119479   5.091   1.711   5.149
 6491TIP3    H219480   4.946   1.671   5.131
 6492TIP3   OH219481   1.568   3.242   3.309
 6492TIP3    H119482   1.517   3.162   3.303
 6492TIP3    H219483   1.655   3.213   3.338
 6493TIP3   OH219484   1.980   4.064   1.571
 6493TIP3    H119485   1.951   4.142   1.618
 6493TIP3    H219486   1.934   3.992   1.615
 6494TIP3   OH219487   4.855   5.879   2.692
 6494TIP3    H119488   4.828   5.852   2.604
 6494TIP3    H219489   4.949   5.859   2.695
 6495TIP3   OH219490   0.744   2.373   0.509
 6495TIP3    H119491   0.794   2.362   0.428
 6495TIP3    H219492   0.769   2.298   0.562
 6496TIP3   OH219493   3.077   1.378   4.900
 6496TIP3    H119494   3.124   1.433   4.838
 6496TIP3    H219495   3.102   1.288   4.878
 6497TIP3   OH219496   6.332   1.239   2.089
 6497TIP3    H119497   6.259   1.191   2.126
 6497TIP3    H219498   6.291   1.304   2.031
 6498TIP3   OH219499   6.357   0.117   3.646
 6498TIP3    H119500   6.291   0.176   3.609
 6498TIP3    H219501   6.307   0.053   3.697
 6499TIP3   OH219502   0.323   2.937   0.788
 6499TIP3    H119503   0.287   2.853   0.759
 6499TIP3    H219504   0.342   2.984   0.707
 6500TIP3   OH219505   6.188   5.099   1.672
 6500TIP3    H119506   6.139   5.151   1.736
 6500TIP3    H219507   6.154   5.126   1.587
 6501TIP3   OH219508   4.307   5.979   2.521
 6501TIP3    H119509   4.395   5.952   2.493
 6501TIP3    H219510   4.282   5.913   2.586
 6502TIP3   OH219511   3.063   0.294   3.644
 6502TIP3    H119512   3.066   0.204   3.676
 6502TIP3    H219513   2.972   0.307   3.617
 6503TIP3   OH219514   2.338   2.914   0.511
 6503TIP3    H119515   2.273   2.963   0.561
 6503TIP3    H219516   2.402   2.980   0.484
 6504TIP3   OH219517   0.936   4.384   0.696
 6504TIP3    H119518   0.942   4.461   0.639
 6504TIP3    H219519   0.920   4.311   0.636
 6505TIP3   OH219520   4.808   1.782   0.227
 6505TIP3    H119521   4.815   1.750   0.317
 6505TIP3    H219522   4.730   1.738   0.192
 6506TIP3   OH219523   4.411   4.801   0.504
 6506TIP3    H119524   4.506   4.798   0.516
 6506TIP3    H219525   4.392   4.893   0.489
 6507TIP3   OH219526   5.976   4.602   3.111
 6507TIP3    H119527   5.978   4.580   3.204
 6507TIP3    H219528   6.068   4.595   3.083
 6508TIP3   OH219529   2.872   1.588   4.459
 6508TIP3    H119530   2.793   1.541   4.433
 6508TIP3    H219531   2.941   1.522   4.459
 6509TIP3   OH219532   0.956   0.504   3.961
 6509TIP3    H119533   1.039   0.495   4.009
 6509TIP3    H219534   0.969   0.583   3.907
 6510TIP3   OH219535   4.450   0.666   1.154
 6510TIP3    H119536   4.414   0.755   1.158
 6510TIP3    H219537   4.394   0.621   1.091
 6511TIP3   OH219538   1.738   2.212   1.875
 6511TIP3    H119539   1.705   2.302   1.866
 6511TIP3    H219540   1.690   2.163   1.808
 6512TIP3   OH219541   0.872   3.761   0.893
 6512TIP3    H119542   0.964   3.751   0.868
 6512TIP3    H219543   0.848   3.675   0.927
 6513TIP3   OH219544   2.420   5.057   3.065
 6513TIP3    H119545   2.490   5.005   3.025
 6513TIP3    H219546   2.433   5.045   3.159
 6514TIP3   OH219547   0.579   4.555   2.391
 6514TIP3    H119548   0.591   4.633   2.444
 6514TIP3    H219549   0.668   4.527   2.368
 6515TIP3   OH219550   3.501   5.848   1.995
 6515TIP3    H119551   3.583   5.852   2.044
 6515TIP3    H219552   3.484   5.755   1.984
 6516TIP3   OH219553   2.231   5.805   4.613
 6516TIP3    H119554   2.305   5.858   4.582
 6516TIP3    H219555   2.271   5.732   4.659
 6517TIP3   OH219556   2.862   4.746   2.330
 6517TIP3    H119557   2.906   4.831   2.335
 6517TIP3    H219558   2.887   4.710   2.246
 6518TIP3   OH219559   4.304   4.243   0.934
 6518TIP3    H119560   4.348   4.215   0.854
 6518TIP3    H219561   4.226   4.289   0.904
 6519TIP3   OH219562   5.331   2.794   0.750
 6519TIP3    H119563   5.350   2.831   0.836
 6519TIP3    H219564   5.412   2.750   0.725
 6520TIP3   OH219565   4.015   2.422   4.316
 6520TIP3    H119566   3.985   2.509   4.290
 6520TIP3    H219567   3.959   2.362   4.268
 6521TIP3   OH219568   0.027   5.129   4.482
 6521TIP3    H119569  -0.018   5.169   4.408
 6521TIP3    H219570   0.099   5.080   4.443
 6522TIP3   OH219571   6.156   5.458   4.850
 6522TIP3    H119572   6.244   5.492   4.863
 6522TIP3    H219573   6.161   5.365   4.874
 6523TIP3   OH219574   5.477   0.523   3.625
 6523TIP3    H119575   5.447   0.493   3.711
 6523TIP3    H219576   5.406   0.576   3.592
 6524TIP3   OH219577   2.533   1.255   1.734
 6524TIP3    H119578   2.546   1.241   1.828
 6524TIP3    H219579   2.571   1.176   1.693
 6525TIP3   OH219580   0.971   5.297   2.292
 6525TIP3    H119581   0.905   5.356   2.256
 6525TIP3    H219582   1.053   5.325   2.251
 6526TIP3   OH219583   3.908   1.272   1.326
 6526TIP3    H119584   3.968   1.344   1.343
 6526TIP3    H219585   3.849   1.306   1.258
 6527TIP3   OH219586   1.414   3.177   3.975
 6527TIP3    H119587   1.432   3.223   3.893
 6527TIP3    H219588   1.437   3.239   4.043
 6528TIP3   OH219589   0.193   2.742   1.102
 6528TIP3    H119590   0.120   2.680   1.109
 6528TIP3    H219591   0.265   2.689   1.069
 6529TIP3   OH219592   4.651   2.667   0.622
 6529TIP3    H119593   4.698   2.598   0.575
 6529TIP3    H219594   4.702   2.681   0.702
 6530TIP3   OH219595   0.374   1.558   4.776
 6530TIP3    H119596   0.420   1.540   4.858
 6530TIP3    H219597   0.441   1.594   4.718
 6531TIP3   OH219598   2.558   0.905   2.704
 6531TIP3    H119599   2.499   0.872   2.772
 6531TIP3    H219600   2.628   0.841   2.701
 6532TIP3   OH219601   0.053   2.748   0.152
 6532TIP3    H119602   0.086   2.808   0.219
 6532TIP3    H219603  -0.041   2.763   0.150
 6533TIP3   OH219604   1.536   5.280   0.897
 6533TIP3    H119605   1.441   5.292   0.890
 6533TIP3    H219606   1.561   5.241   0.813
 6534TIP3   OH219607   1.116   1.825   2.398
 6534TIP3    H119608   1.195   1.837   2.345
 6534TIP3    H219609   1.146   1.779   2.476
 6535TIP3   OH219610   0.027   4.272   3.550
 6535TIP3    H119611   0.039   4.367   3.551
 6535TIP3    H219612   0.112   4.238   3.521
 6536TIP3   OH219613   0.093   4.807   4.043
 6536TIP3    H119614   0.046   4.890   4.054
 6536TIP3    H219615   0.057   4.750   4.112
 6537TIP3   OH219616   0.885   3.532   3.663
 6537TIP3    H119617   0.808   3.504   3.613
 6537TIP3    H219618   0.935   3.452   3.676
 6538TIP3   OH219619   4.494   1.397   1.533
 6538TIP3    H119620   4.557   1.433   1.471
 6538TIP3    H219621   4.496   1.456   1.607
 6539TIP3   OH219622   2.922   3.405   2.325
 6539TIP3    H119623   2.926   3.460   2.403
 6539TIP3    H219624   2.981   3.448   2.263
 6540TIP3   OH219625   0.257   1.553   2.568
 6540TIP3    H119626   0.202   1.475   2.559
 6540TIP3    H219627   0.209   1.621   2.520
 6541TIP3   OH219628   3.827   3.634   2.581
 6541TIP3    H119629   3.900   3.690   2.608
 6541TIP3    H219630   3.778   3.618   2.662
 6542TIP3   OH219631   2.450   0.223   4.791
 6542TIP3    H119632   2.442   0.312   4.758
 6542TIP3    H219633   2.401   0.170   4.728
 6543TIP3   OH219634   5.805   1.181   2.399
 6543TIP3    H119635   5.818   1.275   2.403
 6543TIP3    H219636   5.796   1.154   2.491
 6544TIP3   OH219637   1.372   0.713   3.096
 6544TIP3    H119638   1.350   0.623   3.072
 6544TIP3    H219639   1.385   0.709   3.191
 6545TIP3   OH219640   5.520   4.104   3.318
 6545TIP3    H119641   5.539   4.172   3.253
 6545TIP3    H219642   5.603   4.057   3.330
 6546TIP3   OH219643   4.544   4.214   2.358
 6546TIP3    H119644   4.533   4.306   2.379
 6546TIP3    H219645   4.533   4.209   2.263
 6547TIP3   OH219646   6.186   1.307   1.061
 6547TIP3    H119647   6.118   1.272   1.004
 6547TIP3    H219648   6.258   1.244   1.055
 6548TIP3   OH219649   0.620   3.056   0.863
 6548TIP3    H119650   0.635   3.010   0.945
 6548TIP3    H219651   0.531   3.033   0.837
 6549TIP3   OH219652   5.850   0.744   2.653
 6549TIP3    H119653   5.935   0.726   2.691
 6549TIP3    H219654   5.868   0.770   2.563
 6550TIP3   OH219655   0.228   4.521   3.117
 6550TIP3    H119656   0.251   4.609   3.147
 6550TIP3    H219657   0.134   4.526   3.098
 6551TIP3   OH219658   0.459   2.006   0.863
 6551TIP3    H119659   0.380   1.957   0.843
 6551TIP3    H219660   0.528   1.939   0.870
 6552TIP3   OH219661   2.929   4.991   2.231
 6552TIP3    H119662   2.896   5.081   2.221
 6552TIP3    H219663   2.920   4.953   2.143
 6553TIP3   OH219664   5.221   1.394   1.868
 6553TIP3    H119665   5.309   1.395   1.830
 6553TIP3    H219666   5.191   1.304   1.858
 6554TIP3   OH219667   0.726   0.114   0.527
 6554TIP3    H119668   0.729   0.164   0.446
 6554TIP3    H219669   0.811   0.070   0.531
 6555TIP3   OH219670   5.950   4.214   2.999
 6555TIP3    H119671   5.992   4.249   2.920
 6555TIP3    H219672   5.943   4.290   3.057
 6556TIP3   OH219673   5.595   3.110   1.729
 6556TIP3    H119674   5.645   3.191   1.728
 6556TIP3    H219675   5.649   3.047   1.681
 6557TIP3   OH219676   0.204   2.669   2.210
 6557TIP3    H119677   0.260   2.592   2.217
 6557TIP3    H219678   0.124   2.644   2.257
 6558TIP3   OH219679   3.234   2.665   0.104
 6558TIP3    H119680   3.295   2.601   0.139
 6558TIP3    H219681   3.288   2.742   0.085
 6559TIP3   OH219682   6.200   0.281   0.372
 6559TIP3    H119683   6.252   0.256   0.449
 6559TIP3    H219684   6.126   0.330   0.409
 6560TIP3   OH219685   5.582   2.475   2.392
 6560TIP3    H119686   5.532   2.546   2.431
 6560TIP3    H219687   5.571   2.486   2.298
 6561TIP3   OH219688   0.892   2.144   1.404
 6561TIP3    H119689   0.978   2.117   1.373
 6561TIP3    H219690   0.901   2.238   1.421
 6562TIP3   OH219691   2.436   2.269   4.012
 6562TIP3    H119692   2.355   2.291   3.966
 6562TIP3    H219693   2.446   2.338   4.078
 6563TIP3   OH219694   6.085   5.331   4.503
 6563TIP3    H119695   6.109   5.247   4.541
 6563TIP3    H219696   5.993   5.320   4.477
 6564TIP3   OH219697   0.912   4.900   4.788
 6564TIP3    H119698   0.837   4.862   4.835
 6564TIP3    H219699   0.986   4.889   4.848
 6565TIP3   OH219700   4.824   5.610   2.926
 6565TIP3    H119701   4.873   5.551   2.868
 6565TIP3    H219702   4.736   5.612   2.890
 6566TIP3   OH219703   6.342   5.132   3.608
 6566TIP3    H119704   6.405   5.126   3.536
 6566TIP3    H219705   6.341   5.045   3.648
 6567TIP3   OH219706   3.449   1.153   3.611
 6567TIP3    H119707   3.420   1.066   3.639
 6567TIP3    H219708   3.446   1.150   3.516
 6568TIP3   OH219709   5.154   5.951   0.790
 6568TIP3    H119710   5.083   5.904   0.745
 6568TIP3    H219711   5.130   6.043   0.781
 6569TIP3   OH219712   0.795   2.574   0.202
 6569TIP3    H119713   0.827   2.646   0.256
 6569TIP3    H219714   0.835   2.587   0.117
 6570TIP3   OH219715   1.836   1.371   3.036
 6570TIP3    H119716   1.811   1.282   3.011
 6570TIP3    H219717   1.895   1.359   3.111
 6571TIP3   OH219718   4.168   4.117   2.365
 6571TIP3    H119719   4.211   4.093   2.282
 6571TIP3    H219720   4.146   4.209   2.355
 6572TIP3   OH219721   5.362   1.112   3.255
 6572TIP3    H119722   5.317   1.185   3.213
 6572TIP3    H219723   5.349   1.126   3.349
 6573TIP3   OH219724   2.736   5.881   2.166
 6573TIP3    H119725   2.712   5.791   2.144
 6573TIP3    H219726   2.711   5.931   2.088
 6574TIP3   OH219727   2.568   2.042   1.710
 6574TIP3    H119728   2.570   2.021   1.803
 6574TIP3    H219729   2.488   2.093   1.698
 6575TIP3   OH219730   1.751   1.708   3.757
 6575TIP3    H119731   1.808   1.652   3.809
 6575TIP3    H219732   1.725   1.654   3.683
 6576TIP3   OH219733   3.236   0.810   0.930
 6576TIP3    H119734   3.236   0.788   1.023
 6576TIP3    H219735   3.155   0.860   0.918
 6577TIP3   OH219736   0.853   3.844   1.287
 6577TIP3    H119737   0.931   3.830   1.232
 6577TIP3    H219738   0.855   3.938   1.307
 6578TIP3   OH219739   2.015   4.371   1.978
 6578TIP3    H119740   2.070   4.333   2.046
 6578TIP3    H219741   2.076   4.408   1.915
 6579TIP3   OH219742   4.068   1.182   0.912
 6579TIP3    H119743   4.089   1.247   0.979
 6579TIP3    H219744   4.140   1.187   0.850
 6580TIP3   OH219745   1.057   0.820   2.067
 6580TIP3    H119746   1.110   0.746   2.038
 6580TIP3    H219747   0.992   0.832   1.998
 6581TIP3   OH219748   3.356   1.791   5.029
 6581TIP3    H119749   3.318   1.879   5.027
 6581TIP3    H219750   3.432   1.799   5.086
 6582TIP3   OH219751   3.158   5.438   0.104
 6582TIP3    H119752   3.165   5.452   0.009
 6582TIP3    H219753   3.072   5.396   0.115
 6583TIP3   OH219754   1.205   0.286   4.347
 6583TIP3    H119755   1.187   0.363   4.293
 6583TIP3    H219756   1.194   0.315   4.437
 6584TIP3   OH219757   5.964   0.389   5.150
 6584TIP3    H119758   5.918   0.331   5.088
 6584TIP3    H219759   6.001   0.329   5.215
 6585TIP3   OH219760   4.416   4.878   3.752
 6585TIP3    H119761   4.421   4.940   3.825
 6585TIP3    H219762   4.368   4.803   3.788
 6586TIP3   OH219763   3.985   4.324   4.691
 6586TIP3    H119764   3.986   4.261   4.763
 6586TIP3    H219765   4.074   4.359   4.688
 6587TIP3   OH219766   2.824   3.805   3.920
 6587TIP3    H119767   2.785   3.863   3.855
 6587TIP3    H219768   2.905   3.774   3.878
 6588TIP3   OH219769   3.200   4.866   0.223
 6588TIP3    H119770   3.115   4.827   0.203
 6588TIP3    H219771   3.206   4.942   0.166
 6589TIP3   OH219772   0.566   4.628   3.001
 6589TIP3    H119773   0.518   4.545   2.999
 6589TIP3    H219774   0.654   4.605   2.971
 6590TIP3   OH219775  -0.007   1.448   3.334
 6590TIP3    H119776  -0.006   1.385   3.261
 6590TIP3    H219777   0.019   1.531   3.294
 6591TIP3   OH219778   0.454   3.302   4.402
 6591TIP3    H119779   0.525   3.251   4.362
 6591TIP3    H219780   0.455   3.276   4.494
 6592TIP3   OH219781   4.489   0.492   2.412
 6592TIP3    H119782   4.421   0.458   2.471
 6592TIP3    H219783   4.439   0.532   2.340
 6593TIP3   OH219784   4.141   5.381   4.435
 6593TIP3    H119785   4.213   5.328   4.471
 6593TIP3    H219786   4.103   5.327   4.366
 6594TIP3   OH219787   4.658   1.822   1.040
 6594TIP3    H119788   4.586   1.882   1.061
 6594TIP3    H219789   4.659   1.818   0.944
 6595TIP3   OH219790   3.192   1.016   2.417
 6595TIP3    H119791   3.162   1.082   2.354
 6595TIP3    H219792   3.112   0.977   2.451
 6596TIP3   OH219793   5.365   0.661   4.850
 6596TIP3    H119794   5.287   0.636   4.900
 6596TIP3    H219795   5.340   0.744   4.808
 6597TIP3   OH219796   0.049   2.455   4.918
 6597TIP3    H119797   0.031   2.461   4.824
 6597TIP3    H219798   0.145   2.454   4.924
 6598TIP3   OH219799   6.083   2.588   2.472
 6598TIP3    H119800   6.059   2.638   2.549
 6598TIP3    H219801   6.007   2.533   2.453
 6599TIP3   OH219802   2.857   5.087   3.574
 6599TIP3    H119803   2.791   5.056   3.637
 6599TIP3    H219804   2.872   5.013   3.516
 6600TIP3   OH219805   0.479   4.479   4.832
 6600TIP3    H119806   0.386   4.468   4.812
 6600TIP3    H219807   0.507   4.552   4.778
 6601TIP3   OH219808   0.018   1.376   0.200
 6601TIP3    H119809  -0.030   1.398   0.280
 6601TIP3    H219810   0.101   1.341   0.230
 6602TIP3   OH219811   4.751   1.722   4.425
 6602TIP3    H119812   4.717   1.695   4.340
 6602TIP3    H219813   4.817   1.789   4.405
 6603TIP3   OH219814   6.068   4.580   1.232
 6603TIP3    H119815   6.103   4.647   1.291
 6603TIP3    H219816   6.028   4.629   1.160
 6604TIP3   OH219817   4.495   4.156   1.617
 6604TIP3    H119818   4.440   4.154   1.695
 6604TIP3    H219819   4.445   4.208   1.554
 6605TIP3   OH219820   3.073   0.615   2.825
 6605TIP3    H119821   3.046   0.661   2.904
 6605TIP3    H219822   3.114   0.682   2.770
 6606TIP3   OH219823   1.238   0.356   1.278
 6606TIP3    H119824   1.262   0.274   1.234
 6606TIP3    H219825   1.313   0.376   1.334
 6607TIP3   OH219826   1.527   5.468   0.498
 6607TIP3    H119827   1.512   5.558   0.528
 6607TIP3    H219828   1.440   5.427   0.503
 6608TIP3   OH219829   0.262   3.877   3.135
 6608TIP3    H119830   0.177   3.837   3.118
 6608TIP3    H219831   0.248   3.932   3.213
 6609TIP3   OH219832   5.191   4.915   3.566
 6609TIP3    H119833   5.193   4.826   3.602
 6609TIP3    H219834   5.282   4.942   3.563
 6610TIP3   OH219835   2.244   0.224   0.063
 6610TIP3    H119836   2.213   0.212   0.153
 6610TIP3    H219837   2.288   0.309   0.065
 6611TIP3   OH219838   0.608   0.790   4.283
 6611TIP3    H119839   0.634   0.709   4.240
 6611TIP3    H219840   0.596   0.766   4.375
 6612TIP3   OH219841   4.477   0.588   1.890
 6612TIP3    H119842   4.394   0.582   1.938
 6612TIP3    H219843   4.501   0.681   1.895
 6613TIP3   OH219844   5.455   3.571   0.298
 6613TIP3    H119845   5.400   3.600   0.371
 6613TIP3    H219846   5.406   3.499   0.257
 6614TIP3   OH219847   4.776   5.465   2.083
 6614TIP3    H119848   4.828   5.418   2.017
 6614TIP3    H219849   4.837   5.478   2.156
 6615TIP3   OH219850   5.305   4.787   3.281
 6615TIP3    H119851   5.215   4.821   3.282
 6615TIP3    H219852   5.299   4.702   3.323
 6616TIP3   OH219853   4.145   0.259   3.604
 6616TIP3    H119854   4.088   0.189   3.637
 6616TIP3    H219855   4.087   0.335   3.595
 6617TIP3   OH219856   4.714   3.838   4.728
 6617TIP3    H119857   4.751   3.825   4.816
 6617TIP3    H219858   4.784   3.879   4.678
 6618TIP3   OH219859   4.406   6.011   4.231
 6618TIP3    H119860   4.344   5.963   4.176
 6618TIP3    H219861   4.444   5.945   4.289
 6619TIP3   OH219862   1.190   5.721   4.964
 6619TIP3    H119863   1.207   5.694   4.874
 6619TIP3    H219864   1.260   5.784   4.983
 6620TIP3   OH219865   6.018   4.336   1.760
 6620TIP3    H119866   6.088   4.401   1.768
 6620TIP3    H219867   5.980   4.352   1.674
 6621TIP3   OH219868   5.898   0.698   4.691
 6621TIP3    H119869   5.884   0.792   4.706
 6621TIP3    H219870   5.867   0.656   4.771
 6622TIP3   OH219871   1.055   5.978   4.827
 6622TIP3    H119872   1.045   6.034   4.750
 6622TIP3    H219873   1.050   5.889   4.793
 6623TIP3   OH219874   4.141   2.050   4.628
 6623TIP3    H119875   4.215   2.021   4.680
 6623TIP3    H219876   4.100   1.970   4.596
 6624TIP3   OH219877   1.903   5.772   4.330
 6624TIP3    H119878   1.924   5.764   4.423
 6624TIP3    H219879   1.987   5.793   4.289
 6625TIP3   OH219880   6.279   2.281   0.225
 6625TIP3    H119881   6.188   2.253   0.233
 6625TIP3    H219882   6.284   2.361   0.279
 6626TIP3   OH219883   1.239   4.017   2.915
 6626TIP3    H119884   1.193   4.100   2.903
 6626TIP3    H219885   1.244   3.978   2.828
 6627TIP3   OH219886   1.830   5.134   1.800
 6627TIP3    H119887   1.886   5.095   1.733
 6627TIP3    H219888   1.787   5.207   1.755
 6628TIP3   OH219889   1.529   5.190   4.164
 6628TIP3    H119890   1.516   5.281   4.140
 6628TIP3    H219891   1.441   5.152   4.167
 6629TIP3   OH219892   3.292   5.541   4.539
 6629TIP3    H119893   3.327   5.470   4.593
 6629TIP3    H219894   3.199   5.521   4.531
 6630TIP3   OH219895   4.277   5.030   1.557
 6630TIP3    H119896   4.224   4.967   1.509
 6630TIP3    H219897   4.255   5.014   1.649
 6631TIP3   OH219898   6.009   3.427   4.820
 6631TIP3    H119899   5.992   3.461   4.908
 6631TIP3    H219900   5.922   3.407   4.785
 6632TIP3   OH219901   5.505   1.382   2.209
 6632TIP3    H119902   5.469   1.437   2.139
 6632TIP3    H219903   5.510   1.440   2.285
 6633TIP3   OH219904   4.101   3.258   0.708
 6633TIP3    H119905   4.101   3.184   0.647
 6633TIP3    H219906   4.058   3.224   0.787
 6634TIP3   OH219907   5.866   4.942   3.827
 6634TIP3    H119908   5.786   4.895   3.804
 6634TIP3    H219909   5.864   4.950   3.922
 6635TIP3   OH219910   5.574   2.755   2.566
 6635TIP3    H119911   5.507   2.775   2.632
 6635TIP3    H219912   5.525   2.745   2.485
 6636TIP3   OH219913   4.820   2.129   0.475
 6636TIP3    H119914   4.882   2.193   0.439
 6636TIP3    H219915   4.871   2.080   0.539
 6637TIP3   OH219916   6.181   1.125   5.151
 6637TIP3    H119917   6.263   1.113   5.198
 6637TIP3    H219918   6.201   1.189   5.083
 6638TIP3   OH219919   1.212   5.729   4.587
 6638TIP3    H119920   1.119   5.719   4.608
 6638TIP3    H219921   1.256   5.665   4.644
 6639TIP3   OH219922   5.415   1.123   2.198
 6639TIP3    H119923   5.497   1.098   2.240
 6639TIP3    H219924   5.436   1.204   2.152
 6640TIP3   OH219925   5.793   3.294   1.851
 6640TIP3    H119926   5.770   3.304   1.944
 6640TIP3    H219927   5.887   3.278   1.851
 6641TIP3   OH219928   2.146   0.157   4.402
 6641TIP3    H119929   2.100   0.135   4.321
 6641TIP3    H219930   2.080   0.152   4.471
 6642TIP3   OH219931   0.960   5.693   1.980
 6642TIP3    H119932   0.988   5.775   1.940
 6642TIP3    H219933   0.872   5.678   1.945
 6643TIP3   OH219934   5.195   0.251   2.764
 6643TIP3    H119935   5.132   0.218   2.701
 6643TIP3    H219936   5.188   0.346   2.758
 6644TIP3   OH219937   4.636   5.795   0.143
 6644TIP3    H119938   4.575   5.864   0.169
 6644TIP3    H219939   4.719   5.841   0.128
 6645TIP3   OH219940   0.078   5.668   1.273
 6645TIP3    H119941   0.001   5.707   1.230
 6645TIP3    H219942   0.100   5.728   1.344
   6.33965   5.97708   5.17631   0.00000   0.00000  -2.11322   0.00000  -2.11322  -2.98854
