* SET NIONTYPES = 1
* SET NPOSTOT = 44
* SET NNEGTOT = 42
* SET NIONTOT = 86
*  DATE:     6/13/26      7:46:45      CREATED BY USER: charmm-gui
*
        86  EXT
         1         1  LIT       LIT           -31.4047969367        7.8461406976      -38.1290318500  IONS      1               1.0000000000
         2         2  LIT       LIT            25.0909070812      -12.7742644184      -28.2671438442  IONS      2               1.0000000000
         3         3  LIT       LIT             9.9716783473       27.9363463753       13.0738477748  IONS      3               1.0000000000
         4         4  LIT       LIT           -29.8484630733       15.4734994551       27.9093176979  IONS      4               1.0000000000
         5         5  LIT       LIT            17.7200498860      -20.0627184768      -35.1404818637  IONS      5               1.0000000000
         6         6  LIT       LIT            17.9166317681        5.6533947369        0.4510661921  IONS      6               1.0000000000
         7         7  LIT       LIT            40.0999557567       10.5172843667       -0.7478112291  IONS      7               1.0000000000
         8         8  LIT       LIT             8.1417052020       -1.8396269630       16.0575854605  IONS      8               1.0000000000
         9         9  LIT       LIT            22.3953305417        8.0958337490       -5.3842389257  IONS      9               1.0000000000
        10        10  LIT       LIT             2.5841770541       30.8910609667      -21.4762419041  IONS      10              1.0000000000
        11        11  LIT       LIT            29.8988417935      -11.2387302968       11.3067692458  IONS      11              1.0000000000
        12        12  LIT       LIT            20.0999962474       23.9001323898       19.3596557766  IONS      12              1.0000000000
        13        13  LIT       LIT           -16.4732873125      -26.4909435732      -11.2794852538  IONS      13              1.0000000000
        14        14  LIT       LIT           -24.9315904885      -38.2772083736        4.5580912846  IONS      14              1.0000000000
        15        15  LIT       LIT             8.8453541707       16.2722380339      -35.0109134256  IONS      15              1.0000000000
        16        16  LIT       LIT            13.0347642081      -16.3474742702      -27.8201494546  IONS      16              1.0000000000
        17        17  LIT       LIT           -31.2681847082       35.2369199958       17.9155811963  IONS      17              1.0000000000
        18        18  LIT       LIT           -23.8324551686      -13.4607611491      -15.1567734387  IONS      18              1.0000000000
        19        19  LIT       LIT            -8.2288728832      -16.8265392968      -18.5625123674  IONS      19              1.0000000000
        20        20  LIT       LIT           -33.7377430495      -12.6265690597      -16.5769856662  IONS      20              1.0000000000
        21        21  LIT       LIT           -26.4961990767       13.5171563977       36.9993722287  IONS      21              1.0000000000
        22        22  LIT       LIT            39.8485550242       16.2109132769       -1.3686006447  IONS      22              1.0000000000
        23        23  LIT       LIT           -38.1309266928       11.1425660083       17.5002929376  IONS      23              1.0000000000
        24        24  LIT       LIT            35.7485323301      -13.1389470194       -5.4635233024  IONS      24              1.0000000000
        25        25  LIT       LIT           -42.5028165508      -10.5433413904       -7.6838758964  IONS      25              1.0000000000
        26        26  LIT       LIT           -20.2399081793      -12.9820055937      -20.6078468533  IONS      26              1.0000000000
        27        27  LIT       LIT           -19.0385864834      -21.1988899230       -0.3658783068  IONS      27              1.0000000000
        28        28  LIT       LIT             3.1222064223       41.2929282721       20.8218535712  IONS      28              1.0000000000
        29        29  LIT       LIT             6.0787966772       42.3738855194       -3.0443799890  IONS      29              1.0000000000
        30        30  LIT       LIT             8.0058655004      -15.8572930639      -43.0093631436  IONS      30              1.0000000000
        31        31  LIT       LIT           -11.5602498616      -29.2948487461      -25.4964549219  IONS      31              1.0000000000
        32        32  LIT       LIT            35.3464614293       -0.0708277022      -18.7203765039  IONS      32              1.0000000000
        33        33  LIT       LIT           -19.9162182004      -11.2507152888      -36.4066821020  IONS      33              1.0000000000
        34        34  LIT       LIT            29.6725170378       -2.7835203214       35.3565478318  IONS      34              1.0000000000
        35        35  LIT       LIT            -8.2941876056      -16.9881391868      -41.5843461463  IONS      35              1.0000000000
        36        36  LIT       LIT            -4.5749816496       -6.1829465687      -12.7922094796  IONS      36              1.0000000000
        37        37  LIT       LIT           -26.5233110767       31.4716184486        7.3804878396  IONS      37              1.0000000000
        38        38  LIT       LIT            20.6551203974      -10.1504500273        7.2633449526  IONS      38              1.0000000000
        39        39  LIT       LIT             6.6341508935        0.0148471305      -13.0141714037  IONS      39              1.0000000000
        40        40  LIT       LIT           -34.7191730744       29.5812856099      -13.4077035732  IONS      40              1.0000000000
        41        41  LIT       LIT            -3.6220331653      -39.3437221193       23.8400276019  IONS      41              1.0000000000
        42        42  LIT       LIT           -18.3136811078        2.4038698744       -3.6258794626  IONS      42              1.0000000000
        43        43  LIT       LIT           -32.3546540313       27.0076385146       11.0372072381  IONS      43              1.0000000000
        44        44  LIT       LIT           -31.9593296448      -27.7719986955       -9.3563581208  IONS      44              1.0000000000
        45        45  CLA       CLA           -33.2157414672       10.5797206530       11.6284589789  IONS      45             -1.0000000000
        46        46  CLA       CLA           -13.0664197501      -18.7305281985       24.4384343117  IONS      46             -1.0000000000
        47        47  CLA       CLA            14.1180137207       30.0398821462       20.9349622673  IONS      47             -1.0000000000
        48        48  CLA       CLA           -10.5674086102      -28.5974921712       -8.5933217358  IONS      48             -1.0000000000
        49        49  CLA       CLA           -35.3982434279      -12.1821591730       -1.6079464297  IONS      49             -1.0000000000
        50        50  CLA       CLA           -21.4822522898      -24.2702664344       -6.0928269966  IONS      50             -1.0000000000
        51        51  CLA       CLA            42.2168285868       12.8373000779       15.2968640361  IONS      51             -1.0000000000
        52        52  CLA       CLA            26.7721366224       35.4505198381        0.0755872537  IONS      52             -1.0000000000
        53        53  CLA       CLA           -34.0818967861       28.0509536638      -23.0974891533  IONS      53             -1.0000000000
        54        54  CLA       CLA            19.7552467270       18.8069435000        9.9031135912  IONS      54             -1.0000000000
        55        55  CLA       CLA            14.7808248293      -17.6953768059       26.4606106674  IONS      55             -1.0000000000
        56        56  CLA       CLA            15.6242320322       34.4652301909       12.0461839979  IONS      56             -1.0000000000
        57        57  CLA       CLA             0.5791125817        8.3759680909       19.0377938259  IONS      57             -1.0000000000
        58        58  CLA       CLA             5.4660788357       21.4601730701       -6.7881669495  IONS      58             -1.0000000000
        59        59  CLA       CLA            36.3565410912        6.9704073823        7.7883307948  IONS      59             -1.0000000000
        60        60  CLA       CLA           -12.1463761698       -8.2228187352       15.6374909754  IONS      60             -1.0000000000
        61        61  CLA       CLA           -10.1273029957      -20.4291934212      -42.6426085225  IONS      61             -1.0000000000
        62        62  CLA       CLA            -5.8568047670      -22.4041682979      -19.7948710842  IONS      62             -1.0000000000
        63        63  CLA       CLA           -14.3606201025      -11.6790827282      -13.0562299731  IONS      63             -1.0000000000
        64        64  CLA       CLA            38.4263107015      -11.3368316879        6.4517192033  IONS      64             -1.0000000000
        65        65  CLA       CLA            14.5588492843      -19.6777433845      -30.8289201825  IONS      65             -1.0000000000
        66        66  CLA       CLA           -29.1026146633       -8.6453180930      -11.3913543904  IONS      66             -1.0000000000
        67        67  CLA       CLA            -9.2596712898       34.0886728833       -1.3725840664  IONS      67             -1.0000000000
        68        68  CLA       CLA            18.3369091810      -20.1632381541      -18.6334991401  IONS      68             -1.0000000000
        69        69  CLA       CLA           -42.3489624076      -13.7712401993      -10.7961277889  IONS      69             -1.0000000000
        70        70  CLA       CLA           -13.0568236873       -9.0641327805      -24.4655580723  IONS      70             -1.0000000000
        71        71  CLA       CLA            -1.7775264621       -3.8157580610       -8.1279744099  IONS      71             -1.0000000000
        72        72  CLA       CLA            23.7047030586        2.2884649244       34.3609373292  IONS      72             -1.0000000000
        73        73  CLA       CLA           -42.9316136834      -10.8373568596      -15.7043912851  IONS      73             -1.0000000000
        74        74  CLA       CLA            21.9381160097       21.1063176508       18.1314805697  IONS      74             -1.0000000000
        75        75  CLA       CLA            30.6333544809       16.9006534619      -23.8889408121  IONS      75             -1.0000000000
        76        76  CLA       CLA            24.9335063900      -11.6623407463        8.2786195903  IONS      76             -1.0000000000
        77        77  CLA       CLA            12.7643289050      -30.6635004441       39.4622253379  IONS      77             -1.0000000000
        78        78  CLA       CLA            39.7092690119       19.0545714678        4.2867024976  IONS      78             -1.0000000000
        79        79  CLA       CLA           -24.2813872761       17.4831769386       39.7911860213  IONS      79             -1.0000000000
        80        80  CLA       CLA           -30.8037882826       19.9999681791       23.8466931615  IONS      80             -1.0000000000
        81        81  CLA       CLA           -14.8605921806       -9.2854119282        0.2466748057  IONS      81             -1.0000000000
        82        82  CLA       CLA           -18.9481339589      -16.9826708825      -13.6716381167  IONS      82             -1.0000000000
        83        83  CLA       CLA           -18.7815602050      -12.3075158501      -29.6403313891  IONS      83             -1.0000000000
        84        84  CLA       CLA            15.4449552272       16.4190861369       31.5760274656  IONS      84             -1.0000000000
        85        85  CLA       CLA           -31.3144491232       -0.3760193043        5.3490777863  IONS      85             -1.0000000000
        86        86  CLA       CLA           -19.8937461385       15.2204170104      -10.6879227078  IONS      86             -1.0000000000
