* GENERATED BY CHARMM-GUI (HTTP://WWW.CHARMM-GUI.ORG) V3.7 ON JUN, 13. 2026. JOB
* READ PDB, MANIPULATE STRUCTURE IF NEEDED, AND GENERATE TOPOLOGY FILE
*  DATE:     6/13/26      7:44:39      CREATED BY USER: charmm-gui
*
       161  EXT
         1         1  GLY       N              -4.9960000000      -13.0750000000      -20.6970000000  PROA      1              96.8800000000
         2         1  GLY       HT1            -4.6514984847      -13.8765696963      -21.2630430442  PROA      1               0.0000000000
         3         1  GLY       HT2            -4.2300500668      -12.3821460038      -20.5750423194  PROA      1               0.0000000000
         4         1  GLY       HT3            -5.7960182330      -12.6242555906      -21.1852621636  PROA      1               0.0000000000
         5         1  GLY       CA             -5.4300000000      -13.5520000000      -19.3940000000  PROA      1              97.3600000000
         6         1  GLY       HA1            -4.6369896448      -14.1643970591      -18.9910027724  PROA      1               0.0000000000
         7         1  GLY       HA2            -6.3220972149      -14.1418777739      -19.5440303905  PROA      1               0.0000000000
         8         1  GLY       C              -5.7350000000      -12.4310000000      -18.4190000000  PROA      1              97.6900000000
         9         1  GLY       O              -5.4210000000      -11.2680000000      -18.6840000000  PROA      1              97.1600000000
        10         2  PRO       N              -6.3040000000      -12.6500000000      -17.1650000000  PROA      2              97.9700000000
        11         2  PRO       CD             -7.0300000000      -13.8010000000      -16.9980000000  PROA      2              91.3500000000
        12         2  PRO       HD1            -6.3448439529      -14.6487404138      -16.7857782699  PROA      2               0.0000000000
        13         2  PRO       HD2            -7.6177453802      -14.0099396091      -17.9167166530  PROA      2               0.0000000000
        14         2  PRO       CA             -6.5510000000      -11.5940000000      -16.1800000000  PROA      2              98.0400000000
        15         2  PRO       HA             -6.9808434181      -10.7279670922      -16.6572194482  PROA      2               0.0000000000
        16         2  PRO       CB             -7.4590000000      -12.2750000000      -15.1530000000  PROA      2              97.7300000000
        17         2  PRO       HB1            -8.3174626443      -11.6206761273      -14.8903732619  PROA      2               0.0000000000
        18         2  PRO       HB2            -6.8951361233      -12.5163769530      -14.2267897966  PROA      2               0.0000000000
        19         2  PRO       CG             -7.9300000000      -13.5230000000      -15.8280000000  PROA      2              95.2100000000
        20         2  PRO       HG1            -7.8958680905      -14.3740717335      -15.1146931290  PROA      2               0.0000000000
        21         2  PRO       HG2            -8.9757687455      -13.3908649203      -16.1790026021  PROA      2               0.0000000000
        22         2  PRO       C              -5.2700000000      -11.0870000000      -15.5230000000  PROA      2              98.2500000000
        23         2  PRO       O              -4.2570000000      -11.7920000000      -15.5110000000  PROA      2              98.1100000000
        24         3  GLY       N              -5.3790000000       -9.7660000000      -15.1500000000  PROA      3              97.8600000000
        25         3  GLY       HN             -6.1718344734       -9.1929316727      -15.3411933224  PROA      3               0.0000000000
        26         3  GLY       CA             -4.2610000000       -9.1760000000      -14.4310000000  PROA      3              97.8200000000
        27         3  GLY       HA1            -4.5210609153       -8.1542035738      -14.1973512206  PROA      3               0.0000000000
        28         3  GLY       HA2            -3.3995286023       -9.2016201762      -15.0817703173  PROA      3               0.0000000000
        29         3  GLY       C              -3.9280000000       -9.9070000000      -13.1430000000  PROA      3              98.1500000000
        30         3  GLY       O              -4.7100000000      -10.7350000000      -12.6730000000  PROA      3              98.0000000000
        31         4  ASP       N              -2.7310000000       -9.6500000000      -12.6570000000  PROA      4              97.6900000000
        32         4  ASP       HN             -2.0429625127       -9.1176604413      -13.1439998186  PROA      4               0.0000000000
        33         4  ASP       CA             -2.3750000000      -10.1630000000      -11.3380000000  PROA      4              97.6700000000
        34         4  ASP       HA             -2.5452505395      -11.2293843980      -11.3363138382  PROA      4               0.0000000000
        35         4  ASP       CB             -0.9100000000       -9.8580000000      -11.0200000000  PROA      4              97.2600000000
        36         4  ASP       HB1            -0.7192206231      -10.0870767502       -9.9500484126  PROA      4               0.0000000000
        37         4  ASP       HB2            -0.7198928278       -8.7788699770      -11.2016782428  PROA      4               0.0000000000
        38         4  ASP       CG              0.0610000000      -10.6650000000      -11.8640000000  PROA      4              94.0000000000
        39         4  ASP       OD1            -0.3330000000      -11.7210000000      -12.4040000000  PROA      4              92.4400000000
        40         4  ASP       OD2             1.2310000000      -10.2430000000      -11.9880000000  PROA      4              92.9000000000
        41         4  ASP       C              -3.2800000000       -9.5760000000      -10.2570000000  PROA      4              97.9700000000
        42         4  ASP       O              -3.7170000000       -8.4280000000      -10.3620000000  PROA      4              97.7700000000
        43         5  PRO       N              -3.5140000000      -10.2190000000       -9.2840000000  PROA      5              97.7900000000
        44         5  PRO       CD             -3.0610000000      -11.4850000000       -9.0920000000  PROA      5              95.7000000000
        45         5  PRO       HD1            -1.9559685682      -11.4776919584       -8.9834332317  PROA      5               0.0000000000
        46         5  PRO       HD2            -3.3530833295      -12.1244247978       -9.9515102515  PROA      5               0.0000000000
        47         5  PRO       CA             -4.2260000000       -9.6100000000       -8.1580000000  PROA      5              97.7700000000
        48         5  PRO       HA             -5.1992846329       -9.2668033674       -8.4701615026  PROA      5               0.0000000000
        49         5  PRO       CB             -4.2470000000      -10.7250000000       -7.1090000000  PROA      5              97.5800000000
        50         5  PRO       HB1            -5.2795835383      -10.8975281563       -6.7374176386  PROA      5               0.0000000000
        51         5  PRO       HB2            -3.5937607509      -10.4686593102       -6.2478170266  PROA      5               0.0000000000
        52         5  PRO       CG             -3.7320000000      -11.9320000000       -7.8250000000  PROA      5              96.3300000000
        53         5  PRO       HG1            -3.0036463033      -12.4704773557       -7.1816984485  PROA      5               0.0000000000
        54         5  PRO       HG2            -4.5735737530      -12.6165503448       -8.0646628880  PROA      5               0.0000000000
        55         5  PRO       C              -3.5230000000       -8.3670000000       -7.6170000000  PROA      5              98.0600000000
        56         5  PRO       O              -2.3090000000       -8.2200000000       -7.7800000000  PROA      5              97.9500000000
        57         6  GLY       N              -4.4740000000       -7.5060000000       -7.1360000000  PROA      6              97.7900000000
        58         6  GLY       HN             -5.4599856401       -7.6339230985       -7.1876131449  PROA      6               0.0000000000
        59         6  GLY       CA             -3.9260000000       -6.3160000000       -6.5040000000  PROA      6              97.7000000000
        60         6  GLY       HA1            -4.7540327868       -5.7144508984       -6.1593436790  PROA      6               0.0000000000
        61         6  GLY       HA2            -3.3594229583       -5.7777672942       -7.2493748102  PROA      6               0.0000000000
        62         6  GLY       C              -3.0210000000       -6.6280000000       -5.3280000000  PROA      6              98.0600000000
        63         6  GLY       O              -2.9870000000       -7.7630000000       -4.8480000000  PROA      6              97.9000000000
        64         7  SER       N              -2.5050000000       -5.5460000000       -4.9010000000  PROA      7              97.9700000000
        65         7  SER       HN             -2.6118427800       -4.6485135966       -5.3194646237  PROA      7               0.0000000000
        66         7  SER       CA             -1.6980000000       -5.6860000000       -3.6940000000  PROA      7              97.9000000000
        67         7  SER       HA             -1.1230537147       -6.5961478899       -3.7790538082  PROA      7               0.0000000000
        68         7  SER       CB             -0.7680000000       -4.4830000000       -3.5280000000  PROA      7              97.4300000000
        69         7  SER       HB1            -0.1426239036       -4.6176824290       -2.6197076749  PROA      7               0.0000000000
        70         7  SER       HB2            -1.3718800337       -3.5559731038       -3.4271059717  PROA      7               0.0000000000
        71         7  SER       OG              0.0860000000       -4.3490000000       -4.6520000000  PROA      7              93.2400000000
        72         7  SER       HG1             0.5922918687       -5.1633289211       -4.6982271780  PROA      7               0.0000000000
        73         7  SER       C              -2.5750000000       -5.8350000000       -2.4560000000  PROA      7              98.2400000000
        74         7  SER       O              -3.7390000000       -5.4280000000       -2.4610000000  PROA      7              98.1400000000
        75         8  GLY       N              -1.9680000000       -6.4530000000       -1.4210000000  PROA      8              97.5800000000
        76         8  GLY       HN             -1.0438827305       -6.8252196770       -1.4457779933  PROA      8               0.0000000000
        77         8  GLY       CA             -2.7360000000       -6.5730000000       -0.1920000000  PROA      8              97.4800000000
        78         8  GLY       HA1            -2.2085717222       -7.2519736319        0.4615285414  PROA      8               0.0000000000
        79         8  GLY       HA2            -3.7043960383       -6.9776744701       -0.4464268495  PROA      8               0.0000000000
        80         8  GLY       C              -2.9280000000       -5.2500000000        0.5240000000  PROA      8              97.9600000000
        81         8  GLY       O              -2.2920000000       -4.2520000000        0.1760000000  PROA      8              97.8000000000
        82         9  ASN       N              -3.8050000000       -5.2810000000        1.4570000000  PROA      9              97.9900000000
        83         9  ASN       HN             -4.3762764107       -6.0796929271        1.6292557439  PROA      9               0.0000000000
        84         9  ASN       CA             -4.0150000000       -4.1290000000        2.3290000000  PROA      9              97.9500000000
        85         9  ASN       HA             -4.1660866415       -3.2601233814        1.7057879856  PROA      9               0.0000000000
        86         9  ASN       CB             -5.2300000000       -4.3540000000        3.2320000000  PROA      9              97.5400000000
        87         9  ASN       HB1            -4.8807469234       -4.5094255760        4.2748903168  PROA      9               0.0000000000
        88         9  ASN       HB2            -5.7711739869       -5.2614818417        2.8894179559  PROA      9               0.0000000000
        89         9  ASN       CG             -6.1940000000       -3.1850000000        3.2170000000  PROA      9              92.9400000000
        90         9  ASN       OD1            -6.3300000000       -2.4900000000        2.2070000000  PROA      9              89.6700000000
        91         9  ASN       ND2            -6.8700000000       -2.9590000000        4.3370000000  PROA      9              91.3300000000
        92         9  ASN       HD21           -7.5201715517       -2.2006815688        4.3842240437  PROA      9               0.0000000000
        93         9  ASN       HD22           -6.7290280403       -3.5470830646        5.1334202507  PROA      9               0.0000000000
        94         9  ASN       C              -2.7780000000       -3.8300000000        3.1700000000  PROA      9              98.2700000000
        95         9  ASN       O              -2.0480000000       -4.7440000000        3.5560000000  PROA      9              98.1500000000
        96        10  PRO       N              -2.6460000000       -2.5770000000        3.4460000000  PROA      10             98.2900000000
        97        10  PRO       CD             -3.3510000000       -1.4970000000        2.9930000000  PROA      10             95.8300000000
        98        10  PRO       HD1            -4.3526655261       -1.4714739867        3.4713737901  PROA      10              0.0000000000
        99        10  PRO       HD2            -3.4593294370       -1.5519016112        1.8893345468  PROA      10              0.0000000000
       100        10  PRO       CA             -1.5530000000       -2.2860000000        4.3760000000  PROA      10             98.2600000000
       101        10  PRO       HA             -0.6290400435       -2.7070520819        4.0133581686  PROA      10              0.0000000000
       102        10  PRO       CB             -1.5660000000       -0.7580000000        4.4700000000  PROA      10             98.0900000000
       103        10  PRO       HB1            -0.5514818733       -0.3431526306        4.2890971272  PROA      10              0.0000000000
       104        10  PRO       HB2            -1.9156477530       -0.4274851541        5.4712879726  PROA      10              0.0000000000
       105        10  PRO       CG             -2.5170000000       -0.3180000000        3.4040000000  PROA      10             96.6200000000
       106        10  PRO       HG1            -3.1720298944        0.4908068247        3.7926669893  PROA      10              0.0000000000
       107        10  PRO       HG2            -1.9513507609        0.0678110324        2.5290797429  PROA      10              0.0000000000
       108        10  PRO       C              -1.7630000000       -2.9190000000        5.7500000000  PROA      10             98.4600000000
       109        10  PRO       O              -2.8940000000       -3.2520000000        6.1130000000  PROA      10             98.4100000000
       110        11  GLY       N              -0.6410000000       -3.2720000000        6.4230000000  PROA      11             97.8100000000
       111        11  GLY       HN              0.2734134691       -3.1566029030        6.0428572161  PROA      11              0.0000000000
       112        11  GLY       CA             -0.7260000000       -3.8460000000        7.7560000000  PROA      11             97.7800000000
       113        11  GLY       HA1             0.2799309225       -4.0491170082        8.0923499800  PROA      11              0.0000000000
       114        11  GLY       HA2            -1.2874755918       -4.7656865256        7.6838425106  PROA      11              0.0000000000
       115        11  GLY       C              -1.4050000000       -2.9320000000        8.7580000000  PROA      11             98.1500000000
       116        11  GLY       O              -1.6680000000       -1.7640000000        8.4610000000  PROA      11             98.0600000000
       117        12  SER       N              -1.6190000000       -3.3940000000        9.8830000000  PROA      12             97.8800000000
       118        12  SER       HN             -1.4298445975       -4.3489354923       10.0963761739  PROA      12              0.0000000000
       119        12  SER       CA             -2.1580000000       -2.6020000000       10.9840000000  PROA      12             97.9100000000
       120        12  SER       HA             -2.9231872249       -1.9521601566       10.5860516244  PROA      12              0.0000000000
       121        12  SER       CB             -2.7430000000       -3.5130000000       12.0640000000  PROA      12             97.3800000000
       122        12  SER       HB1            -3.2506372813       -2.8968719190       12.8366050603  PROA      12              0.0000000000
       123        12  SER       HB2            -1.9279750982       -4.1014364344       12.5369746007  PROA      12              0.0000000000
       124        12  SER       OG             -3.6870000000       -4.4110000000       11.5070000000  PROA      12             90.0800000000
       125        12  SER       HG1            -4.3738928527       -3.8649462018       11.1176371122  PROA      12              0.0000000000
       126        12  SER       C              -1.0880000000       -1.7010000000       11.5920000000  PROA      12             98.3400000000
       127        12  SER       O               0.0990000000       -2.0330000000       11.5660000000  PROA      12             98.3100000000
       128        13  GLY       N              -1.4410000000       -0.5570000000       12.0550000000  PROA      13             97.9000000000
       129        13  GLY       HN             -2.3707953222       -0.2156845151       11.9442640603  PROA      13              0.0000000000
       130        13  GLY       CA             -0.5320000000        0.3260000000       12.7690000000  PROA      13             97.9400000000
       131        13  GLY       HA1            -1.0606450367        1.2440116766       12.9789463981  PROA      13              0.0000000000
       132        13  GLY       HA2             0.3123438890        0.5213899233       12.1246439818  PROA      13              0.0000000000
       133        13  GLY       C              -0.0300000000       -0.2630000000       14.0740000000  PROA      13             98.3200000000
       134        13  GLY       O              -0.5930000000       -1.2350000000       14.5800000000  PROA      13             98.2900000000
       135        14  ASP       N               0.8730000000        0.0610000000       14.6060000000  PROA      14             98.1300000000
       136        14  ASP       HN              1.4228539026        0.7530311716       14.1592078588  PROA      14              0.0000000000
       137        14  ASP       CA              1.4710000000       -0.3180000000       15.8830000000  PROA      14             98.1400000000
       138        14  ASP       HA              1.5568149289       -1.3942209959       15.9064518800  PROA      14              0.0000000000
       139        14  ASP       CB              2.8480000000        0.3290000000       16.0440000000  PROA      14             97.7600000000
       140        14  ASP       HB1             3.1894295575        0.1915985358       17.0919593239  PROA      14              0.0000000000
       141        14  ASP       HB2             2.7624227937        1.4150380790       15.8275054684  PROA      14              0.0000000000
       142        14  ASP       CG              3.8940000000       -0.2640000000       15.1170000000  PROA      14             94.4800000000
       143        14  ASP       OD1             3.7040000000       -1.4000000000       14.6300000000  PROA      14             92.9600000000
       144        14  ASP       OD2             4.9190000000        0.4080000000       14.8730000000  PROA      14             93.3400000000
       145        14  ASP       C               0.5670000000        0.0730000000       17.0500000000  PROA      14             98.4500000000
       146        14  ASP       O              -0.1320000000        1.0870000000       16.9880000000  PROA      14             98.3800000000
       147        15  PRO       N               0.1630000000       -0.9690000000       18.0080000000  PROA      15             97.7300000000
       148        15  PRO       CD              0.6850000000       -2.2830000000       17.9270000000  PROA      15             95.3900000000
       149        15  PRO       HD1             1.7654289465       -2.2832573612       18.1817524849  PROA      15              0.0000000000
       150        15  PRO       HD2             0.5354554388       -2.6932616796       16.9064377130  PROA      15              0.0000000000
       151        15  PRO       CA             -0.7010000000       -0.7090000000       19.1620000000  PROA      15             97.4800000000
       152        15  PRO       HA             -1.6768367808       -0.3867776606       18.8357765670  PROA      15              0.0000000000
       153        15  PRO       CB             -0.6870000000       -2.0380000000       19.9200000000  PROA      15             97.1200000000
       154        15  PRO       HB1            -1.7144560340       -2.3269569786       20.2280806130  PROA      15              0.0000000000
       155        15  PRO       HB2            -0.0469303920       -1.9687570760       20.8253132141  PROA      15              0.0000000000
       156        15  PRO       CG             -0.1270000000       -3.0260000000       18.9490000000  PROA      15             95.4500000000
       157        15  PRO       HG1             0.5163179771       -3.7574417789       19.4832552625  PROA      15              0.0000000000
       158        15  PRO       HG2            -0.9538661800       -3.5738951863       18.4486031909  PROA      15              0.0000000000
       159        15  PRO       C              -0.1840000000        0.4270000000       20.0420000000  PROA      15             97.7000000000
       160        15  PRO       OT1             0.8854046869        0.9995446251       19.7011682705  PROA      15              0.0000000000
       161        15  PRO       OT2            -0.8528896038        0.7345039908       21.0645595306  PROA      15              0.0000000000
