PSF EXT CMAP XPLOR

         3 !NTITLE
* GENERATED BY CHARMM-GUI (HTTP://WWW.CHARMM-GUI.ORG) V3.7 ON JUN, 13. 2026. JOB
* READ PDB, MANIPULATE STRUCTURE IF NEEDED, AND GENERATE TOPOLOGY FILE          
*  DATE:     6/13/26      6:40:44      CREATED BY USER: charmm-gui              

       158 !NATOM
         1 PROA     1        ASP      N        NH3     -0.300000       14.0070           0
         2 PROA     1        ASP      HT1      HC       0.330000       1.00800           0
         3 PROA     1        ASP      HT2      HC       0.330000       1.00800           0
         4 PROA     1        ASP      HT3      HC       0.330000       1.00800           0
         5 PROA     1        ASP      CA       CT1      0.210000       12.0110           0
         6 PROA     1        ASP      HA       HB1      0.100000       1.00800           0
         7 PROA     1        ASP      CB       CT2A    -0.280000       12.0110           0
         8 PROA     1        ASP      HB1      HA2      0.900000E-01   1.00800           0
         9 PROA     1        ASP      HB2      HA2      0.900000E-01   1.00800           0
        10 PROA     1        ASP      CG       CC       0.620000       12.0110           0
        11 PROA     1        ASP      OD1      OC      -0.760000       15.9994           0
        12 PROA     1        ASP      OD2      OC      -0.760000       15.9994           0
        13 PROA     1        ASP      C        C        0.510000       12.0110           0
        14 PROA     1        ASP      O        O       -0.510000       15.9994           0
        15 PROA     2        SER      N        NH1     -0.470000       14.0070           0
        16 PROA     2        SER      HN       H        0.310000       1.00800           0
        17 PROA     2        SER      CA       CT1      0.700000E-01   12.0110           0
        18 PROA     2        SER      HA       HB1      0.900000E-01   1.00800           0
        19 PROA     2        SER      CB       CT2      0.500000E-01   12.0110           0
        20 PROA     2        SER      HB1      HA2      0.900000E-01   1.00800           0
        21 PROA     2        SER      HB2      HA2      0.900000E-01   1.00800           0
        22 PROA     2        SER      OG       OH1     -0.660000       15.9994           0
        23 PROA     2        SER      HG1      H        0.430000       1.00800           0
        24 PROA     2        SER      C        C        0.510000       12.0110           0
        25 PROA     2        SER      O        O       -0.510000       15.9994           0
        26 PROA     3        GLY      N        NH1     -0.470000       14.0070           0
        27 PROA     3        GLY      HN       H        0.310000       1.00800           0
        28 PROA     3        GLY      CA       CT2     -0.200000E-01   12.0110           0
        29 PROA     3        GLY      HA1      HB2      0.900000E-01   1.00800           0
        30 PROA     3        GLY      HA2      HB2      0.900000E-01   1.00800           0
        31 PROA     3        GLY      C        C        0.510000       12.0110           0
        32 PROA     3        GLY      O        O       -0.510000       15.9994           0
        33 PROA     4        ASP      N        NH1     -0.470000       14.0070           0
        34 PROA     4        ASP      HN       H        0.310000       1.00800           0
        35 PROA     4        ASP      CA       CT1      0.700000E-01   12.0110           0
        36 PROA     4        ASP      HA       HB1      0.900000E-01   1.00800           0
        37 PROA     4        ASP      CB       CT2A    -0.280000       12.0110           0
        38 PROA     4        ASP      HB1      HA2      0.900000E-01   1.00800           0
        39 PROA     4        ASP      HB2      HA2      0.900000E-01   1.00800           0
        40 PROA     4        ASP      CG       CC       0.620000       12.0110           0
        41 PROA     4        ASP      OD1      OC      -0.760000       15.9994           0
        42 PROA     4        ASP      OD2      OC      -0.760000       15.9994           0
        43 PROA     4        ASP      C        C        0.510000       12.0110           0
        44 PROA     4        ASP      O        O       -0.510000       15.9994           0
        45 PROA     5        SER      N        NH1     -0.470000       14.0070           0
        46 PROA     5        SER      HN       H        0.310000       1.00800           0
        47 PROA     5        SER      CA       CT1      0.700000E-01   12.0110           0
        48 PROA     5        SER      HA       HB1      0.900000E-01   1.00800           0
        49 PROA     5        SER      CB       CT2      0.500000E-01   12.0110           0
        50 PROA     5        SER      HB1      HA2      0.900000E-01   1.00800           0
        51 PROA     5        SER      HB2      HA2      0.900000E-01   1.00800           0
        52 PROA     5        SER      OG       OH1     -0.660000       15.9994           0
        53 PROA     5        SER      HG1      H        0.430000       1.00800           0
        54 PROA     5        SER      C        C        0.510000       12.0110           0
        55 PROA     5        SER      O        O       -0.510000       15.9994           0
        56 PROA     6        GLY      N        NH1     -0.470000       14.0070           0
        57 PROA     6        GLY      HN       H        0.310000       1.00800           0
        58 PROA     6        GLY      CA       CT2     -0.200000E-01   12.0110           0
        59 PROA     6        GLY      HA1      HB2      0.900000E-01   1.00800           0
        60 PROA     6        GLY      HA2      HB2      0.900000E-01   1.00800           0
        61 PROA     6        GLY      C        C        0.510000       12.0110           0
        62 PROA     6        GLY      O        O       -0.510000       15.9994           0
        63 PROA     7        PRO      N        N       -0.290000       14.0070           0
        64 PROA     7        PRO      CD       CP3       0.00000       12.0110           0
        65 PROA     7        PRO      HD1      HA2      0.900000E-01   1.00800           0
        66 PROA     7        PRO      HD2      HA2      0.900000E-01   1.00800           0
        67 PROA     7        PRO      CA       CP1      0.200000E-01   12.0110           0
        68 PROA     7        PRO      HA       HB1      0.900000E-01   1.00800           0
        69 PROA     7        PRO      CB       CP2     -0.180000       12.0110           0
        70 PROA     7        PRO      HB1      HA2      0.900000E-01   1.00800           0
        71 PROA     7        PRO      HB2      HA2      0.900000E-01   1.00800           0
        72 PROA     7        PRO      CG       CP2     -0.180000       12.0110           0
        73 PROA     7        PRO      HG1      HA2      0.900000E-01   1.00800           0
        74 PROA     7        PRO      HG2      HA2      0.900000E-01   1.00800           0
        75 PROA     7        PRO      C        C        0.510000       12.0110           0
        76 PROA     7        PRO      O        O       -0.510000       15.9994           0
        77 PROA     8        GLY      N        NH1     -0.470000       14.0070           0
        78 PROA     8        GLY      HN       H        0.310000       1.00800           0
        79 PROA     8        GLY      CA       CT2     -0.200000E-01   12.0110           0
        80 PROA     8        GLY      HA1      HB2      0.900000E-01   1.00800           0
        81 PROA     8        GLY      HA2      HB2      0.900000E-01   1.00800           0
        82 PROA     8        GLY      C        C        0.510000       12.0110           0
        83 PROA     8        GLY      O        O       -0.510000       15.9994           0
        84 PROA     9        ASP      N        NH1     -0.470000       14.0070           0
        85 PROA     9        ASP      HN       H        0.310000       1.00800           0
        86 PROA     9        ASP      CA       CT1      0.700000E-01   12.0110           0
        87 PROA     9        ASP      HA       HB1      0.900000E-01   1.00800           0
        88 PROA     9        ASP      CB       CT2A    -0.280000       12.0110           0
        89 PROA     9        ASP      HB1      HA2      0.900000E-01   1.00800           0
        90 PROA     9        ASP      HB2      HA2      0.900000E-01   1.00800           0
        91 PROA     9        ASP      CG       CC       0.620000       12.0110           0
        92 PROA     9        ASP      OD1      OC      -0.760000       15.9994           0
        93 PROA     9        ASP      OD2      OC      -0.760000       15.9994           0
        94 PROA     9        ASP      C        C        0.510000       12.0110           0
        95 PROA     9        ASP      O        O       -0.510000       15.9994           0
        96 PROA     10       PRO      N        N       -0.290000       14.0070           0
        97 PROA     10       PRO      CD       CP3       0.00000       12.0110           0
        98 PROA     10       PRO      HD1      HA2      0.900000E-01   1.00800           0
        99 PROA     10       PRO      HD2      HA2      0.900000E-01   1.00800           0
       100 PROA     10       PRO      CA       CP1      0.200000E-01   12.0110           0
       101 PROA     10       PRO      HA       HB1      0.900000E-01   1.00800           0
       102 PROA     10       PRO      CB       CP2     -0.180000       12.0110           0
       103 PROA     10       PRO      HB1      HA2      0.900000E-01   1.00800           0
       104 PROA     10       PRO      HB2      HA2      0.900000E-01   1.00800           0
       105 PROA     10       PRO      CG       CP2     -0.180000       12.0110           0
       106 PROA     10       PRO      HG1      HA2      0.900000E-01   1.00800           0
       107 PROA     10       PRO      HG2      HA2      0.900000E-01   1.00800           0
       108 PROA     10       PRO      C        C        0.510000       12.0110           0
       109 PROA     10       PRO      O        O       -0.510000       15.9994           0
       110 PROA     11       GLY      N        NH1     -0.470000       14.0070           0
       111 PROA     11       GLY      HN       H        0.310000       1.00800           0
       112 PROA     11       GLY      CA       CT2     -0.200000E-01   12.0110           0
       113 PROA     11       GLY      HA1      HB2      0.900000E-01   1.00800           0
       114 PROA     11       GLY      HA2      HB2      0.900000E-01   1.00800           0
       115 PROA     11       GLY      C        C        0.510000       12.0110           0
       116 PROA     11       GLY      O        O       -0.510000       15.9994           0
       117 PROA     12       ASP      N        NH1     -0.470000       14.0070           0
       118 PROA     12       ASP      HN       H        0.310000       1.00800           0
       119 PROA     12       ASP      CA       CT1      0.700000E-01   12.0110           0
       120 PROA     12       ASP      HA       HB1      0.900000E-01   1.00800           0
       121 PROA     12       ASP      CB       CT2A    -0.280000       12.0110           0
       122 PROA     12       ASP      HB1      HA2      0.900000E-01   1.00800           0
       123 PROA     12       ASP      HB2      HA2      0.900000E-01   1.00800           0
       124 PROA     12       ASP      CG       CC       0.620000       12.0110           0
       125 PROA     12       ASP      OD1      OC      -0.760000       15.9994           0
       126 PROA     12       ASP      OD2      OC      -0.760000       15.9994           0
       127 PROA     12       ASP      C        C        0.510000       12.0110           0
       128 PROA     12       ASP      O        O       -0.510000       15.9994           0
       129 PROA     13       SER      N        NH1     -0.470000       14.0070           0
       130 PROA     13       SER      HN       H        0.310000       1.00800           0
       131 PROA     13       SER      CA       CT1      0.700000E-01   12.0110           0
       132 PROA     13       SER      HA       HB1      0.900000E-01   1.00800           0
       133 PROA     13       SER      CB       CT2      0.500000E-01   12.0110           0
       134 PROA     13       SER      HB1      HA2      0.900000E-01   1.00800           0
       135 PROA     13       SER      HB2      HA2      0.900000E-01   1.00800           0
       136 PROA     13       SER      OG       OH1     -0.660000       15.9994           0
       137 PROA     13       SER      HG1      H        0.430000       1.00800           0
       138 PROA     13       SER      C        C        0.510000       12.0110           0
       139 PROA     13       SER      O        O       -0.510000       15.9994           0
       140 PROA     14       GLY      N        NH1     -0.470000       14.0070           0
       141 PROA     14       GLY      HN       H        0.310000       1.00800           0
       142 PROA     14       GLY      CA       CT2     -0.200000E-01   12.0110           0
       143 PROA     14       GLY      HA1      HB2      0.900000E-01   1.00800           0
       144 PROA     14       GLY      HA2      HB2      0.900000E-01   1.00800           0
       145 PROA     14       GLY      C        C        0.510000       12.0110           0
       146 PROA     14       GLY      O        O       -0.510000       15.9994           0
       147 PROA     15       SER      N        NH1     -0.470000       14.0070           0
       148 PROA     15       SER      HN       H        0.310000       1.00800           0
       149 PROA     15       SER      CA       CT1      0.700000E-01   12.0110           0
       150 PROA     15       SER      HA       HB1      0.900000E-01   1.00800           0
       151 PROA     15       SER      CB       CT2      0.500000E-01   12.0110           0
       152 PROA     15       SER      HB1      HA2      0.900000E-01   1.00800           0
       153 PROA     15       SER      HB2      HA2      0.900000E-01   1.00800           0
       154 PROA     15       SER      OG       OH1     -0.660000       15.9994           0
       155 PROA     15       SER      HG1      H        0.430000       1.00800           0
       156 PROA     15       SER      C        CC       0.340000       12.0110           0
       157 PROA     15       SER      OT1      OC      -0.670000       15.9994           0
       158 PROA     15       SER      OT2      OC      -0.670000       15.9994           0

       159 !NBOND: bonds
         2         1         3         1         4         1         7         5
        10         7        12        10         1         5        13         5
        13        15         5         6         7         8         7         9
        14        13        10        11        19        17        22        19
        15        16        15        17        24        17        24        26
        17        18        19        20        19        21        22        23
        25        24        26        27        26        28        31        28
        31        33        28        29        28        30        32        31
        37        35        40        37        42        40        33        34
        33        35        43        35        43        45        35        36
        37        38        37        39        44        43        40        41
        49        47        52        49        45        46        45        47
        54        47        54        56        47        48        49        50
        49        51        52        53        55        54        56        57
        56        58        61        58        61        63        58        59
        58        60        62        61        75        67        75        77
        63        67        67        69        69        72        72        64
        63        64        68        67        73        72        74        72
        65        64        66        64        70        69        71        69
        76        75        77        78        77        79        82        79
        82        84        79        80        79        81        83        82
        88        86        91        88        93        91        84        85
        84        86        94        86        94        96        86        87
        88        89        88        90        95        94        91        92
       108       100       108       110        96       100       100       102
       102       105       105        97        96        97       101       100
       106       105       107       105        98        97        99        97
       103       102       104       102       109       108       110       111
       110       112       115       112       115       117       112       113
       112       114       116       115       121       119       124       121
       126       124       117       118       117       119       127       119
       127       129       119       120       121       122       121       123
       128       127       124       125       133       131       136       133
       129       130       129       131       138       131       138       140
       131       132       133       134       133       135       136       137
       139       138       140       141       140       142       145       142
       145       147       142       143       142       144       146       145
       151       149       154       151       147       148       147       149
       156       149       149       150       151       152       151       153
       154       155       156       158       156       157

       283 !NTHETA: angles
         2         1         3         2         1         4         2         1         5
         3         1         4         3         1         5         4         1         5
         1         5         6         1         5         7         1         5        13
         6         5         7         6         5        13         7         5        13
         5         7         8         5         7         9         5         7        10
         8         7         9         8         7        10         9         7        10
         7        10        11         7        10        12        11        10        12
         5        13        14         5        13        15        14        13        15
        13        15        16        13        15        17        16        15        17
        15        17        18        15        17        19        15        17        24
        18        17        19        18        17        24        19        17        24
        17        19        20        17        19        21        17        19        22
        20        19        21        20        19        22        21        19        22
        19        22        23        17        24        25        17        24        26
        25        24        26        24        26        27        24        26        28
        27        26        28        26        28        29        26        28        30
        26        28        31        29        28        30        29        28        31
        30        28        31        28        31        32        28        31        33
        32        31        33        31        33        34        31        33        35
        34        33        35        33        35        36        33        35        37
        33        35        43        36        35        37        36        35        43
        37        35        43        35        37        38        35        37        39
        35        37        40        38        37        39        38        37        40
        39        37        40        37        40        41        37        40        42
        41        40        42        35        43        44        35        43        45
        44        43        45        43        45        46        43        45        47
        46        45        47        45        47        48        45        47        49
        45        47        54        48        47        49        48        47        54
        49        47        54        47        49        50        47        49        51
        47        49        52        50        49        51        50        49        52
        51        49        52        49        52        53        47        54        55
        47        54        56        55        54        56        54        56        57
        54        56        58        57        56        58        56        58        59
        56        58        60        56        58        61        59        58        60
        59        58        61        60        58        61        58        61        62
        58        61        63        62        61        63        61        63        64
        61        63        67        64        63        67        63        64        65
        63        64        66        63        64        72        65        64        66
        65        64        72        66        64        72        63        67        68
        63        67        69        63        67        75        68        67        69
        68        67        75        69        67        75        67        69        70
        67        69        71        67        69        72        70        69        71
        70        69        72        71        69        72        64        72        69
        64        72        73        64        72        74        69        72        73
        69        72        74        73        72        74        67        75        76
        67        75        77        76        75        77        75        77        78
        75        77        79        78        77        79        77        79        80
        77        79        81        77        79        82        80        79        81
        80        79        82        81        79        82        79        82        83
        79        82        84        83        82        84        82        84        85
        82        84        86        85        84        86        84        86        87
        84        86        88        84        86        94        87        86        88
        87        86        94        88        86        94        86        88        89
        86        88        90        86        88        91        89        88        90
        89        88        91        90        88        91        88        91        92
        88        91        93        92        91        93        86        94        95
        86        94        96        95        94        96        94        96        97
        94        96       100        97        96       100        96        97        98
        96        97        99        96        97       105        98        97        99
        98        97       105        99        97       105        96       100       101
        96       100       102        96       100       108       101       100       102
       101       100       108       102       100       108       100       102       103
       100       102       104       100       102       105       103       102       104
       103       102       105       104       102       105        97       105       102
        97       105       106        97       105       107       102       105       106
       102       105       107       106       105       107       100       108       109
       100       108       110       109       108       110       108       110       111
       108       110       112       111       110       112       110       112       113
       110       112       114       110       112       115       113       112       114
       113       112       115       114       112       115       112       115       116
       112       115       117       116       115       117       115       117       118
       115       117       119       118       117       119       117       119       120
       117       119       121       117       119       127       120       119       121
       120       119       127       121       119       127       119       121       122
       119       121       123       119       121       124       122       121       123
       122       121       124       123       121       124       121       124       125
       121       124       126       125       124       126       119       127       128
       119       127       129       128       127       129       127       129       130
       127       129       131       130       129       131       129       131       132
       129       131       133       129       131       138       132       131       133
       132       131       138       133       131       138       131       133       134
       131       133       135       131       133       136       134       133       135
       134       133       136       135       133       136       133       136       137
       131       138       139       131       138       140       139       138       140
       138       140       141       138       140       142       141       140       142
       140       142       143       140       142       144       140       142       145
       143       142       144       143       142       145       144       142       145
       142       145       146       142       145       147       146       145       147
       145       147       148       145       147       149       148       147       149
       147       149       150       147       149       151       147       149       156
       150       149       151       150       149       156       151       149       156
       149       151       152       149       151       153       149       151       154
       152       151       153       152       151       154       153       151       154
       151       154       155       149       156       157       149       156       158
       157       156       158

       413 !NPHI: dihedrals
         1         5         7         8         1         5         7         9
         1         5         7        10         1         5        13        14
         1         5        13        15         2         1         5         6
         2         1         5         7         2         1         5        13
         3         1         5         6         3         1         5         7
         3         1         5        13         4         1         5         6
         4         1         5         7         4         1         5        13
         5         7        10        11         5         7        10        12
         5        13        15        16         5        13        15        17
         6         5         7         8         6         5         7         9
         6         5         7        10         6         5        13        14
         6         5        13        15         7         5        13        14
         7         5        13        15         8         7         5        13
         8         7        10        11         8         7        10        12
         9         7         5        13         9         7        10        11
         9         7        10        12        10         7         5        13
        13        15        17        18        13        15        17        19
        13        15        17        24        14        13        15        16
        14        13        15        17        15        17        19        20
        15        17        19        21        15        17        19        22
        15        17        24        25        15        17        24        26
        16        15        17        18        16        15        17        19
        16        15        17        24        17        19        22        23
        17        24        26        27        17        24        26        28
        18        17        19        20        18        17        19        21
        18        17        19        22        18        17        24        25
        18        17        24        26        19        17        24        25
        19        17        24        26        20        19        17        24
        20        19        22        23        21        19        17        24
        21        19        22        23        22        19        17        24
        24        26        28        29        24        26        28        30
        24        26        28        31        25        24        26        27
        25        24        26        28        26        28        31        32
        26        28        31        33        27        26        28        29
        27        26        28        30        27        26        28        31
        28        31        33        34        28        31        33        35
        29        28        31        32        29        28        31        33
        30        28        31        32        30        28        31        33
        31        33        35        36        31        33        35        37
        31        33        35        43        32        31        33        34
        32        31        33        35        33        35        37        38
        33        35        37        39        33        35        37        40
        33        35        43        44        33        35        43        45
        34        33        35        36        34        33        35        37
        34        33        35        43        35        37        40        41
        35        37        40        42        35        43        45        46
        35        43        45        47        36        35        37        38
        36        35        37        39        36        35        37        40
        36        35        43        44        36        35        43        45
        37        35        43        44        37        35        43        45
        38        37        35        43        38        37        40        41
        38        37        40        42        39        37        35        43
        39        37        40        41        39        37        40        42
        40        37        35        43        43        45        47        48
        43        45        47        49        43        45        47        54
        44        43        45        46        44        43        45        47
        45        47        49        50        45        47        49        51
        45        47        49        52        45        47        54        55
        45        47        54        56        46        45        47        48
        46        45        47        49        46        45        47        54
        47        49        52        53        47        54        56        57
        47        54        56        58        48        47        49        50
        48        47        49        51        48        47        49        52
        48        47        54        55        48        47        54        56
        49        47        54        55        49        47        54        56
        50        49        47        54        50        49        52        53
        51        49        47        54        51        49        52        53
        52        49        47        54        54        56        58        59
        54        56        58        60        54        56        58        61
        55        54        56        57        55        54        56        58
        56        58        61        62        56        58        61        63
        57        56        58        59        57        56        58        60
        57        56        58        61        58        61        63        64
        58        61        63        67        59        58        61        62
        59        58        61        63        60        58        61        62
        60        58        61        63        61        63        64        65
        61        63        64        66        61        63        64        72
        61        63        67        68        61        63        67        69
        61        63        67        75        62        61        63        64
        62        61        63        67        63        64        72        69
        63        64        72        73        63        64        72        74
        63        67        69        70        63        67        69        71
        63        67        69        72        63        67        75        76
        63        67        75        77        64        63        67        68
        64        63        67        69        64        63        67        75
        64        72        69        67        64        72        69        70
        64        72        69        71        65        64        63        67
        65        64        72        69        65        64        72        73
        65        64        72        74        66        64        63        67
        66        64        72        69        66        64        72        73
        66        64        72        74        67        63        64        72
        67        69        72        73        67        69        72        74
        67        75        77        78        67        75        77        79
        68        67        69        70        68        67        69        71
        68        67        69        72        68        67        75        76
        68        67        75        77        69        67        75        76
        69        67        75        77        70        69        67        75
        70        69        72        73        70        69        72        74
        71        69        67        75        71        69        72        73
        71        69        72        74        72        69        67        75
        75        77        79        80        75        77        79        81
        75        77        79        82        76        75        77        78
        76        75        77        79        77        79        82        83
        77        79        82        84        78        77        79        80
        78        77        79        81        78        77        79        82
        79        82        84        85        79        82        84        86
        80        79        82        83        80        79        82        84
        81        79        82        83        81        79        82        84
        82        84        86        87        82        84        86        88
        82        84        86        94        83        82        84        85
        83        82        84        86        84        86        88        89
        84        86        88        90        84        86        88        91
        84        86        94        95        84        86        94        96
        85        84        86        87        85        84        86        88
        85        84        86        94        86        88        91        92
        86        88        91        93        86        94        96        97
        86        94        96       100        87        86        88        89
        87        86        88        90        87        86        88        91
        87        86        94        95        87        86        94        96
        88        86        94        95        88        86        94        96
        89        88        86        94        89        88        91        92
        89        88        91        93        90        88        86        94
        90        88        91        92        90        88        91        93
        91        88        86        94        94        96        97        98
        94        96        97        99        94        96        97       105
        94        96       100       101        94        96       100       102
        94        96       100       108        95        94        96        97
        95        94        96       100        96        97       105       102
        96        97       105       106        96        97       105       107
        96       100       102       103        96       100       102       104
        96       100       102       105        96       100       108       109
        96       100       108       110        97        96       100       101
        97        96       100       102        97        96       100       108
        97       105       102       100        97       105       102       103
        97       105       102       104        98        97        96       100
        98        97       105       102        98        97       105       106
        98        97       105       107        99        97        96       100
        99        97       105       102        99        97       105       106
        99        97       105       107       100        96        97       105
       100       102       105       106       100       102       105       107
       100       108       110       111       100       108       110       112
       101       100       102       103       101       100       102       104
       101       100       102       105       101       100       108       109
       101       100       108       110       102       100       108       109
       102       100       108       110       103       102       100       108
       103       102       105       106       103       102       105       107
       104       102       100       108       104       102       105       106
       104       102       105       107       105       102       100       108
       108       110       112       113       108       110       112       114
       108       110       112       115       109       108       110       111
       109       108       110       112       110       112       115       116
       110       112       115       117       111       110       112       113
       111       110       112       114       111       110       112       115
       112       115       117       118       112       115       117       119
       113       112       115       116       113       112       115       117
       114       112       115       116       114       112       115       117
       115       117       119       120       115       117       119       121
       115       117       119       127       116       115       117       118
       116       115       117       119       117       119       121       122
       117       119       121       123       117       119       121       124
       117       119       127       128       117       119       127       129
       118       117       119       120       118       117       119       121
       118       117       119       127       119       121       124       125
       119       121       124       126       119       127       129       130
       119       127       129       131       120       119       121       122
       120       119       121       123       120       119       121       124
       120       119       127       128       120       119       127       129
       121       119       127       128       121       119       127       129
       122       121       119       127       122       121       124       125
       122       121       124       126       123       121       119       127
       123       121       124       125       123       121       124       126
       124       121       119       127       127       129       131       132
       127       129       131       133       127       129       131       138
       128       127       129       130       128       127       129       131
       129       131       133       134       129       131       133       135
       129       131       133       136       129       131       138       139
       129       131       138       140       130       129       131       132
       130       129       131       133       130       129       131       138
       131       133       136       137       131       138       140       141
       131       138       140       142       132       131       133       134
       132       131       133       135       132       131       133       136
       132       131       138       139       132       131       138       140
       133       131       138       139       133       131       138       140
       134       133       131       138       134       133       136       137
       135       133       131       138       135       133       136       137
       136       133       131       138       138       140       142       143
       138       140       142       144       138       140       142       145
       139       138       140       141       139       138       140       142
       140       142       145       146       140       142       145       147
       141       140       142       143       141       140       142       144
       141       140       142       145       142       145       147       148
       142       145       147       149       143       142       145       146
       143       142       145       147       144       142       145       146
       144       142       145       147       145       147       149       150
       145       147       149       151       145       147       149       156
       146       145       147       148       146       145       147       149
       147       149       151       152       147       149       151       153
       147       149       151       154       147       149       156       157
       147       149       156       158       148       147       149       150
       148       147       149       151       148       147       149       156
       149       151       154       155       150       149       151       152
       150       149       151       153       150       149       151       154
       150       149       156       157       150       149       156       158
       151       149       156       157       151       149       156       158
       152       151       149       156       152       151       154       155
       153       151       149       156       153       151       154       155
       154       151       149       156

        33 !NIMPHI: impropers
        13         5        15        14        10         7        12        11
        15        13        17        16        24        17        26        25
        26        24        28        27        31        28        33        32
        33        31        35        34        43        35        45        44
        40        37        42        41        45        43        47        46
        54        47        56        55        56        54        58        57
        61        58        63        62        63        61        67        64
        75        67        77        76        77        75        79        78
        82        79        84        83        84        82        86        85
        94        86        96        95        91        88        93        92
        96        94       100        97       108       100       110       109
       110       108       112       111       115       112       117       116
       117       115       119       118       127       119       129       128
       124       121       126       125       129       127       131       130
       138       131       140       139       140       138       142       141
       145       142       147       146       147       145       149       148
       156       149       158       157

        19 !NDON: donors
         1         2         1         3         1         4        15        16
        22        23        26        27        33        34        45        46
        52        53        56        57        77        78        84        85
       110       111       117       118       129       130       136       137
       140       141       147       148       154       155

        28 !NACC: acceptors
        11        10        12        10        14        13        22         0
        25        24        32        31        41        40        42        40
        44        43        52         0        55        54        62        61
        76        75        83        82        92        91        93        91
        95        94       109       108       116       115       125       124
       126       124       128       127       136         0       139       138
       146       145       154         0       157       156       158       156

         0 !NNB

         0         0         0         0         0         0         0         0
         0         0         0         0         0         0         0         0
         0         0         0         0         0         0         0         0
         0         0         0         0         0         0         0         0
         0         0         0         0         0         0         0         0
         0         0         0         0         0         0         0         0
         0         0         0         0         0         0         0         0
         0         0         0         0         0         0         0         0
         0         0         0         0         0         0         0         0
         0         0         0         0         0         0         0         0
         0         0         0         0         0         0         0         0
         0         0         0         0         0         0         0         0
         0         0         0         0         0         0         0         0
         0         0         0         0         0         0         0         0
         0         0         0         0         0         0         0         0
         0         0         0         0         0         0         0         0
         0         0         0         0         0         0         0         0
         0         0         0         0         0         0         0         0
         0         0         0         0         0         0         0         0
         0         0         0         0         0         0

        42         0 !NGRP NST2
         0         2         0         6         2         0        12         1         0
        14         1         0        18         1         0        23         1         0
        25         1         0        30         1         0        32         1         0
        36         2         0        42         1         0        44         1         0
        48         1         0        53         1         0        55         1         0
        60         1         0        62         1         0        68         1         0
        71         1         0        74         1         0        76         1         0
        81         1         0        83         1         0        87         2         0
        93         1         0        95         1         0       101         1         0
       104         1         0       107         1         0       109         1         0
       114         1         0       116         1         0       120         2         0
       126         1         0       128         1         0       132         1         0
       137         1         0       139         1         0       144         1         0
       146         1         0       150         1         0       155         2         0

         0         0 !NUMLP NUMLPH

        13 !NCRTERM: cross-terms
        13        15        17        24        15        17        24        26
        24        26        28        31        26        28        31        33
        31        33        35        43        33        35        43        45
        43        45        47        54        45        47        54        56
        54        56        58        61        56        58        61        63
        61        63        67        75        63        67        75        77
        75        77        79        82        77        79        82        84
        82        84        86        94        84        86        94        96
        94        96       100       108        96       100       108       110
       108       110       112       115       110       112       115       117
       115       117       119       127       117       119       127       129
       127       129       131       138       129       131       138       140
       138       140       142       145       140       142       145       147
