* GENERATED BY CHARMM-GUI (HTTP://WWW.CHARMM-GUI.ORG) V3.7 ON JUN, 13. 2026. JOB
* GENERATES IONS
*  DATE:     6/13/26      6:42:53      CREATED BY USER: charmm-gui
*
       158  EXT
         1         1  ASP       N              20.9980009118        2.3991610866        1.1337125044  PROA      1              87.4200000000
         2         1  ASP       HT1            20.8800495512        3.0760832164        1.9143941979  PROA      1               0.0000000000
         3         1  ASP       HT2            21.8778316072        2.6109187652        0.6212124857  PROA      1               0.0000000000
         4         1  ASP       HT3            21.0442094600        1.4332407867        1.5164165421  PROA      1               0.0000000000
         5         1  ASP       CA             19.8645127847        2.5068414645        0.2198560594  PROA      1              89.6600000000
         6         1  ASP       HA             19.7332304554        3.5509349058       -0.0225583433  PROA      1               0.0000000000
         7         1  ASP       CB             20.1194439323        1.6906965025       -1.0488970729  PROA      1              83.1900000000
         8         1  ASP       HB1            19.2351623218        1.7769417945       -1.7154362945  PROA      1               0.0000000000
         9         1  ASP       HB2            20.2624772695        0.6255604381       -0.7683736696  PROA      1               0.0000000000
        10         1  ASP       CG             21.3449439777        2.1532918759       -1.8158482833  PROA      1              71.5200000000
        11         1  ASP       OD1            21.6492193774        3.3660455437       -1.8061517709  PROA      1              62.6200000000
        12         1  ASP       OD2            22.0112941087        1.2995097436       -2.4394271264  PROA      1              71.7300000000
        13         1  ASP       C              18.5726264981        2.0451684062        0.8905003837  PROA      1              91.2000000000
        14         1  ASP       O              18.5705578326        1.0656752145        1.6381305116  PROA      1              86.4400000000
        15         2  SER       N              17.5148407140        2.5895211149        1.0287406221  PROA      2              88.5500000000
        16         2  SER       HN             17.4655607356        3.4860563248        0.6229880647  PROA      2               0.0000000000
        17         2  SER       CA             16.2264768731        2.2979402522        1.6487762773  PROA      2              88.8600000000
        18         2  SER       HA             16.4122624565        1.8829313777        2.6282752807  PROA      2               0.0000000000
        19         2  SER       CB             15.3854280409        3.5700382749        1.7610771338  PROA      2              84.9300000000
        20         2  SER       HB1            15.9812127419        4.3684092942        2.2528785386  PROA      2               0.0000000000
        21         2  SER       HB2            14.4754881678        3.3630960928        2.3639110052  PROA      2               0.0000000000
        22         2  SER       OG             14.9870213412        4.0252325688        0.4796688240  PROA      2              71.4400000000
        23         2  SER       HG1            14.4713981981        3.3130024574        0.0943623969  PROA      2               0.0000000000
        24         2  SER       C              15.4609350983        1.2407358271        0.8608717179  PROA      2              89.1600000000
        25         2  SER       O              15.6259657345        1.1244875037       -0.3557700603  PROA      2              84.6800000000
        26         3  GLY       N              15.0709442223        0.1383289094        1.3566852962  PROA      3              90.1000000000
        27         3  GLY       HN             15.3737648653       -0.0757718298        2.2764645699  PROA      3               0.0000000000
        28         3  GLY       CA             14.2311828508       -0.9212978210        0.8219498184  PROA      3              89.6300000000
        29         3  GLY       HA1            13.8316650196       -1.4786521021        1.6562356145  PROA      3               0.0000000000
        30         3  GLY       HA2            14.8531549988       -1.5591223582        0.2115224364  PROA      3               0.0000000000
        31         3  GLY       C              13.0810122976       -0.4024774272       -0.0201808707  PROA      3              89.9800000000
        32         3  GLY       O              12.7806307275        0.7927048796       -0.0013085128  PROA      3              87.1600000000
        33         4  ASP       N              12.6020604275       -1.2633092054       -0.9790649907  PROA      4              89.4000000000
        34         4  ASP       HN             13.0409227972       -2.1398494224       -1.1592239533  PROA      4               0.0000000000
        35         4  ASP       CA             11.4308799392       -0.9660134069       -1.7964886704  PROA      4              89.4800000000
        36         4  ASP       HA             11.6449610487       -0.0826315865       -2.3795578619  PROA      4               0.0000000000
        37         4  ASP       CB             11.1041743623       -2.1444163126       -2.7167250845  PROA      4              86.9500000000
        38         4  ASP       HB1            10.1493794257       -1.9348928474       -3.2441212957  PROA      4               0.0000000000
        39         4  ASP       HB2            10.9869043121       -3.0606345680       -2.0999009111  PROA      4               0.0000000000
        40         4  ASP       CG             12.1809044990       -2.4004050832       -3.7567043929  PROA      4              81.2200000000
        41         4  ASP       OD1            12.9113497229       -1.4555063357       -4.1233242668  PROA      4              78.9000000000
        42         4  ASP       OD2            12.2962567969       -3.5573281213       -4.2158600651  PROA      4              82.5300000000
        43         4  ASP       C              10.2227161737       -0.6314281055       -0.9236015118  PROA      4              89.4700000000
        44         4  ASP       O              10.0858769289       -1.1548492823        0.1841955331  PROA      4              87.2200000000
        45         5  SER       N               9.5362436777        0.2502446269       -1.2653890266  PROA      5              90.9200000000
        46         5  SER       HN              9.7831925940        0.8466537902       -2.0249748218  PROA      5               0.0000000000
        47         5  SER       CA              8.2665040596        0.5462308212       -0.6081231176  PROA      5              91.1800000000
        48         5  SER       HA              8.4793333850        0.8823870073        0.3958032866  PROA      5               0.0000000000
        49         5  SER       CB              7.5016746535        1.6233171733       -1.3784671769  PROA      5              89.4000000000
        50         5  SER       HB1             6.5952886496        1.9173865444       -0.8073153591  PROA      5               0.0000000000
        51         5  SER       HB2             7.2005956182        1.2280464556       -2.3721166404  PROA      5               0.0000000000
        52         5  SER       OG              8.3087855961        2.7721572399       -1.5723522658  PROA      5              83.9300000000
        53         5  SER       HG1             8.5394050365        3.0847510546       -0.6944571805  PROA      5               0.0000000000
        54         5  SER       C               7.4070418720       -0.7061510461       -0.4779831672  PROA      5              92.3700000000
        55         5  SER       O               7.5297517310       -1.6365958078       -1.2778886839  PROA      5              91.4300000000
        56         6  GLY       N               6.8567735872       -0.9191224705        0.7449285169  PROA      6              90.8700000000
        57         6  GLY       HN              7.0728807084       -0.3645816818        1.5447908770  PROA      6               0.0000000000
        58         6  GLY       CA              5.9030241102       -2.0017404107        0.9249294354  PROA      6              90.8800000000
        59         6  GLY       HA1             5.5053393428       -1.9279262545        1.9262709204  PROA      6               0.0000000000
        60         6  GLY       HA2             6.4349973410       -2.9336552562        0.8031687039  PROA      6               0.0000000000
        61         6  GLY       C               4.7549812794       -1.9570197622       -0.0654203625  PROA      6              92.5000000000
        62         6  GLY       O               4.6640200092       -1.0343884870       -0.8772778483  PROA      6              91.5900000000
        63         7  PRO       N               3.8562172559       -2.9939088655       -0.0225342623  PROA      7              94.7500000000
        64         7  PRO       CD              4.0490791293       -4.1299502555        0.7682901544  PROA      7              88.9400000000
        65         7  PRO       HD1             3.8164203201       -3.9021934773        1.8295600432  PROA      7               0.0000000000
        66         7  PRO       HD2             5.0962604999       -4.4869521899        0.6774174737  PROA      7               0.0000000000
        67         7  PRO       CA              2.6362670947       -2.9882124120       -0.8336064876  PROA      7              95.0400000000
        68         7  PRO       HA              2.8751241992       -2.8156927056       -1.8707739838  PROA      7               0.0000000000
        69         7  PRO       CB              2.0119513836       -4.3538468479       -0.5397808924  PROA      7              93.8100000000
        70         7  PRO       HB1             1.7325837536       -4.8706028823       -1.4826462973  PROA      7               0.0000000000
        71         7  PRO       HB2             1.1048269713       -4.2447927559        0.0921295041  PROA      7               0.0000000000
        72         7  PRO       CG              3.0756980379       -5.1128727816        0.1858971956  PROA      7              90.1100000000
        73         7  PRO       HG1             2.6199630188       -5.7192319394        0.9976417209  PROA      7               0.0000000000
        74         7  PRO       HG2             3.6012912295       -5.7929950752       -0.5180065428  PROA      7               0.0000000000
        75         7  PRO       C               1.6812237518       -1.8583856721       -0.4539161518  PROA      7              95.8200000000
        76         7  PRO       O               1.7475988074       -1.3381122636        0.6622809331  PROA      7              95.2600000000
        77         8  GLY       N               0.8107076637       -1.4152724850       -1.4142111292  PROA      8              94.3500000000
        78         8  GLY       HN              0.8223409226       -1.7686492374       -2.3463170718  PROA      8               0.0000000000
        79         8  GLY       CA             -0.1866278941       -0.3967586653       -1.1251066773  PROA      8              94.4000000000
        80         8  GLY       HA1            -0.6467614432       -0.1107039739       -2.0593128410  PROA      8               0.0000000000
        81         8  GLY       HA2             0.3224268330        0.4486264153       -0.6863827597  PROA      8               0.0000000000
        82         8  GLY       C              -1.2647685732       -0.8726989689       -0.1701205499  PROA      8              95.5200000000
        83         8  GLY       O              -1.4057281898       -2.0743861376        0.0671879731  PROA      8              94.9900000000
        84         9  ASP       N              -1.9844853585        0.1256143509        0.5251781375  PROA      9              93.9600000000
        85         9  ASP       HN             -1.7328611192        1.0872904964        0.4550490429  PROA      9               0.0000000000
        86         9  ASP       CA             -3.1297660165       -0.1565418881        1.3847391133  PROA      9              94.4100000000
        87         9  ASP       HA             -2.8026625074       -0.8199063278        2.1715784902  PROA      9               0.0000000000
        88         9  ASP       CB             -3.6875335427        1.1384068330        1.9784706993  PROA      9              92.7100000000
        89         9  ASP       HB1            -4.6432365985        0.9135260481        2.4978381202  PROA      9               0.0000000000
        90         9  ASP       HB2            -3.8804624746        1.8579372380        1.1546159549  PROA      9               0.0000000000
        91         9  ASP       CG             -2.7418917453        1.7897205197        2.9734059095  PROA      9              87.7600000000
        92         9  ASP       OD1            -1.8141278450        1.1132530019        3.4656170864  PROA      9              87.3300000000
        93         9  ASP       OD2            -2.9305860346        2.9892132487        3.2699892171  PROA      9              89.1500000000
        94         9  ASP       C              -4.2238739131       -0.8958008465        0.6181883303  PROA      9              95.5400000000
        95         9  ASP       O              -4.3644517775       -0.7211923780       -0.5944821719  PROA      9              95.0900000000
        96        10  PRO       N              -5.0604738362       -1.6440560327        1.2036563013  PROA      10             91.8200000000
        97        10  PRO       CD             -4.8479219715       -2.1077282402        2.5236016747  PROA      10             86.1900000000
        98        10  PRO       HD1            -5.1136209764       -1.3177342495        3.2566806644  PROA      10              0.0000000000
        99        10  PRO       HD2            -3.7888393400       -2.4110895590        2.6592746709  PROA      10              0.0000000000
       100        10  PRO       CA             -6.2520798412       -2.1744432434        0.5370690711  PROA      10             91.1400000000
       101        10  PRO       HA             -5.9824340238       -2.6517672822       -0.3913625587  PROA      10              0.0000000000
       102        10  PRO       CB             -6.8550459108       -3.1116697512        1.5868925763  PROA      10             89.4100000000
       103        10  PRO       HB1            -7.1270975005       -4.0886245463        1.1334375082  PROA      10              0.0000000000
       104        10  PRO       HB2            -7.7631719206       -2.6618199839        2.0418833180  PROA      10              0.0000000000
       105        10  PRO       CG             -5.7792520773       -3.2828407843        2.6089816650  PROA      10             85.6000000000
       106        10  PRO       HG1            -6.2278900290       -3.3359618113        3.6239667374  PROA      10              0.0000000000
       107        10  PRO       HG2            -5.2198280214       -4.2227786246        2.4144202748  PROA      10              0.0000000000
       108        10  PRO       C              -7.2455440527       -1.0827810482        0.1461438708  PROA      10             91.3700000000
       109        10  PRO       O              -7.3427849840       -0.0598847955        0.8290534237  PROA      10             89.3100000000
       110        11  GLY       N              -7.7742060765       -0.9098960220       -1.0575983077  PROA      11             91.6700000000
       111        11  GLY       HN             -7.4728314588       -1.5135327296       -1.7859482702  PROA      11              0.0000000000
       112        11  GLY       CA             -8.7622192921        0.0490792494       -1.5263917745  PROA      11             91.4100000000
       113        11  GLY       HA1            -9.0818746014       -0.2609256146       -2.5102635617  PROA      11              0.0000000000
       114        11  GLY       HA2            -8.2847134581        1.0163783330       -1.5774494623  PROA      11              0.0000000000
       115        11  GLY       C              -9.9760446865        0.1462774655       -0.6221786257  PROA      11             92.6900000000
       116        11  GLY       O             -10.2137685377       -0.7369909909        0.2040545161  PROA      11             91.9600000000
       117        12  ASP       N             -10.7613950540        1.2717565589       -0.5697991392  PROA      12             90.8800000000
       118        12  ASP       HN            -10.4816491152        2.0645342807       -1.0992328330  PROA      12              0.0000000000
       119        12  ASP       CA            -11.9978465341        1.5100603755        0.1689139501  PROA      12             91.0000000000
       120        12  ASP       HA            -11.7877147911        1.3900367044        1.2213417621  PROA      12              0.0000000000
       121        12  ASP       CB            -12.5273702400        2.9175824822       -0.1104194784  PROA      12             87.9600000000
       122        12  ASP       HB1           -13.5430932419        3.0133241610        0.3286894584  PROA      12              0.0000000000
       123        12  ASP       HB2           -12.5893115969        3.0669206250       -1.2092996956  PROA      12              0.0000000000
       124        12  ASP       CG            -11.6470232186        4.0091656022        0.4735663210  PROA      12             81.0200000000
       125        12  ASP       OD1           -10.8780360679        3.7322494436        1.4195986688  PROA      12             79.8500000000
       126        12  ASP       OD2           -11.7237267275        5.1568721652       -0.0158212730  PROA      12             83.2300000000
       127        12  ASP       C             -13.0585324430        0.4698717714       -0.1848035507  PROA      12             91.2300000000
       128        12  ASP       O             -13.1607986629        0.0484617847       -1.3384552500  PROA      12             89.1000000000
       129        13  SER       N             -13.8500887223       -0.0351962854        0.7005912284  PROA      13             89.0600000000
       130        13  SER       HN            -13.6966920976        0.1812222492        1.6588432360  PROA      13              0.0000000000
       131        13  SER       CA            -14.9926093116       -0.9196317811        0.4971469932  PROA      13             87.3700000000
       132        13  SER       HA            -14.6962551970       -1.6972308727       -0.1910992890  PROA      13              0.0000000000
       133        13  SER       CB            -15.4418691874       -1.5286330269        1.8268232871  PROA      13             84.5900000000
       134        13  SER       HB1           -14.5931125221       -2.0733613685        2.2927701841  PROA      13              0.0000000000
       135        13  SER       HB2           -16.2811255946       -2.2344194123        1.6486727473  PROA      13              0.0000000000
       136        13  SER       OG            -15.8792037162       -0.5201068027        2.7207798660  PROA      13             77.3500000000
       137        13  SER       HG1           -16.5020417709        0.0187684964        2.2275393873  PROA      13              0.0000000000
       138        13  SER       C             -16.1567380923       -0.1779909563       -0.1499805590  PROA      13             86.5800000000
       139        13  SER       O             -16.4473107635        0.9650931855        0.2070168744  PROA      13             82.9500000000
       140        14  GLY       N             -16.4975518698       -0.2388232959       -1.3460919232  PROA      14             90.6500000000
       141        14  GLY       HN            -15.9065022586       -0.7810458321       -1.9219237723  PROA      14              0.0000000000
       142        14  GLY       CA            -17.5809593784        0.3000513371       -2.1523544736  PROA      14             89.7700000000
       143        14  GLY       HA1           -17.8266372175       -0.4325971987       -2.9067780244  PROA      14              0.0000000000
       144        14  GLY       HA2           -17.2263585038        1.2083221006       -2.6166698963  PROA      14              0.0000000000
       145        14  GLY       C             -18.8271821274        0.6133190985       -1.3456419042  PROA      14             90.8300000000
       146        14  GLY       O             -19.0652365992        0.0047783514       -0.3001997836  PROA      14             89.0700000000
       147        15  SER       N             -19.1354041885        1.7554432775       -1.0920348839  PROA      15             88.8000000000
       148        15  SER       HN            -18.5404854296        2.5227250974       -1.3177178507  PROA      15              0.0000000000
       149        15  SER       CA            -20.3949190102        2.0984006833       -0.4395813364  PROA      15             88.1500000000
       150        15  SER       HA            -20.3514516679        1.7453407715        0.5800410795  PROA      15              0.0000000000
       151        15  SER       CB            -20.6182829627        3.6112842434       -0.4698943449  PROA      15             82.9700000000
       152        15  SER       HB1           -20.1636687217        4.0731784925        0.4324379322  PROA      15              0.0000000000
       153        15  SER       HB2           -21.7080167390        3.8267566327       -0.4865042875  PROA      15              0.0000000000
       154        15  SER       OG            -20.0246255503        4.1852335181       -1.6214872012  PROA      15             70.4800000000
       155        15  SER       HG1           -20.4485712875        3.7666581990       -2.3742585570  PROA      15              0.0000000000
       156        15  SER       C             -21.5715681044        1.3890144545       -1.1001152776  PROA      15             88.5800000000
       157        15  SER       OT1           -21.3322383395        0.6314336178       -2.0780685176  PROA      15              0.0000000000
       158        15  SER       OT2           -22.7240334751        1.5960778709       -0.6347677615  PROA      15              0.0000000000
