Title
44463
    1GLY      N    1   1.413   1.913   4.403  0.5367  0.1156 -0.3530
    1GLY    HT1    2   1.413   1.892   4.505 -2.1901  2.7943  0.3553
    1GLY    HT2    3   1.315   1.945   4.387 -0.0763 -1.3902  0.2458
    1GLY    HT3    4   1.481   1.991   4.389 -1.1248  1.5170 -0.9816
    1GLY     CA    5   1.429   1.798   4.321  0.6828  1.2482  0.2439
    1GLY    HA1    6   1.528   1.754   4.327  1.3457  2.6386  0.0115
    1GLY    HA2    7   1.409   1.826   4.218  2.6576  0.2162 -0.4804
    1GLY      C    8   1.332   1.689   4.362  0.5011  0.6034  0.2908
    1GLY      O    9   1.257   1.706   4.459 -0.3290  0.1589  0.3339
    2PRO      N   10   1.331   1.574   4.291  0.2931  0.1087  0.5114
    2PRO     CD   11   1.405   1.552   4.170 -0.6265  0.3572 -0.2008
    2PRO    HD1   12   1.511   1.527   4.194  0.3229  1.8215 -2.5010
    2PRO    HD2   13   1.396   1.644   4.108 -0.8512  1.1942  1.0182
    2PRO     CA   14   1.220   1.479   4.299 -0.0297  0.2654 -0.4499
    2PRO     HA   15   1.132   1.532   4.265 -0.7258 -1.8737 -2.2709
    2PRO     CB   16   1.248   1.371   4.193 -0.6097 -0.0228 -0.0849
    2PRO    HB1   17   1.147   1.332   4.166 -2.3569  2.0257  2.8803
    2PRO    HB2   18   1.314   1.293   4.235 -1.5343 -0.3440  0.7897
    2PRO     CG   19   1.316   1.453   4.088  0.3347  0.2298 -0.1875
    2PRO    HG1   20   1.388   1.399   4.022  0.7895 -0.9062  1.1921
    2PRO    HG2   21   1.244   1.501   4.018  0.2284  0.2869 -0.0383
    2PRO      C   22   1.189   1.419   4.433  0.6116 -0.2009  0.1287
    2PRO      O   23   1.270   1.394   4.516  0.0023  0.1283 -0.2626
    3GLY      N   24   1.060   1.402   4.463 -0.1671 -0.6068  0.1154
    3GLY     HN   25   0.994   1.443   4.400 -1.2477 -0.3292  1.3673
    3GLY     CA   26   1.012   1.366   4.599 -0.3383 -0.4282 -0.4058
    3GLY    HA1   27   1.071   1.285   4.639  0.0415 -1.0038 -2.0426
    3GLY    HA2   28   0.910   1.335   4.585 -1.0750  1.8933 -0.6815
    3GLY      C   29   1.013   1.483   4.699 -0.1725  0.1904  0.1459
    3GLY      O   30   1.036   1.595   4.662 -1.1838 -0.4127  0.0519
    4ASP      N   31   0.990   1.456   4.833 -0.2793 -0.0596  0.5386
    4ASP     HN   32   0.973   1.362   4.862  0.0984 -0.3671 -0.2002
    4ASP     CA   33   0.975   1.549   4.946 -0.4379  0.1340 -0.4384
    4ASP     HA   34   0.922   1.634   4.907  0.8593  0.8960 -0.6010
    4ASP     CB   35   0.905   1.474   5.063  0.0610  0.1841  0.1222
    4ASP    HB1   36   0.893   1.537   5.154  2.1609 -0.8883  1.2104
    4ASP    HB2   37   0.958   1.381   5.091  2.5825  1.5992  0.3478
    4ASP     CG   38   0.755   1.450   5.022 -0.6746  0.4196 -0.9543
    4ASP    OD1   39   0.699   1.516   4.936 -0.1719 -0.0596 -0.0450
    4ASP    OD2   40   0.695   1.362   5.091  0.4215  0.2500 -0.1560
    4ASP      C   41   1.111   1.610   4.980 -0.1530 -0.1300  0.6027
    4ASP      O   42   1.212   1.548   4.947  0.0217 -0.0159 -0.5863
    5PRO      N   43   1.115   1.736   5.030 -0.4066  0.2444 -0.0736
    5PRO     CD   44   1.000   1.811   5.070 -0.0066 -0.9535  0.6508
    5PRO    HD1   45   0.946   1.776   5.161 -0.0262 -1.2527  0.5248
    5PRO    HD2   46   0.931   1.820   4.983  2.0154 -1.2596 -1.0619
    5PRO     CA   47   1.233   1.812   5.057  0.3819  0.1262 -1.2903
    5PRO     HA   48   1.272   1.837   4.960  0.6041  1.2424 -0.9277
    5PRO     CB   49   1.186   1.932   5.139 -0.2246  0.0135 -0.6247
    5PRO    HB1   50   1.242   2.021   5.105  1.3267 -1.3386 -1.7945
    5PRO    HB2   51   1.203   1.921   5.249  0.9383  4.4022 -0.2009
    5PRO     CG   52   1.044   1.954   5.097  0.0710 -0.3714 -0.5228
    5PRO    HG1   53   0.985   2.004   5.177  0.2350  0.2513 -0.7862
    5PRO    HG2   54   1.051   2.019   5.007 -1.8516  1.3751  0.5046
    5PRO      C   55   1.347   1.735   5.126  0.4248  0.3227 -1.6607
    5PRO      O   56   1.314   1.653   5.208 -0.0381  0.0318  0.4526
    6GLY      N   57   1.473   1.742   5.093  0.1476  0.8411  0.9248
    6GLY     HN   58   1.500   1.812   5.027 -1.3538  1.8566  1.3343
    6GLY     CA   59   1.579   1.648   5.123  0.0006  0.0432 -0.4909
    6GLY    HA1   60   1.658   1.661   5.050 -0.0130 -1.2703 -0.7573
    6GLY    HA2   61   1.540   1.548   5.137  2.7370 -1.0836 -0.1330
    6GLY      C   62   1.649   1.679   5.250  0.2190  0.0625  0.0389
    6GLY      O   63   1.619   1.782   5.314 -0.1382 -0.8384  0.5566
    7PRO      N   64   1.747   1.603   5.288  0.8233  0.0364 -0.2025
    7PRO     CD   65   1.784   1.478   5.223 -0.1594  0.0130  0.7092
    7PRO    HD1   66   1.784   1.500   5.115 -1.3878  1.1840  0.9168
    7PRO    HD2   67   1.717   1.392   5.245  0.2388 -1.3973 -2.9357
    7PRO     CA   68   1.843   1.640   5.389 -0.0465  0.2046 -0.4449
    7PRO     HA   69   1.790   1.662   5.480  1.3219  0.7107  0.2437
    7PRO     CB   70   1.946   1.517   5.398  0.0915 -0.2587 -0.7192
    7PRO    HB1   71   1.908   1.450   5.478  1.9631 -0.1117  0.3371
    7PRO    HB2   72   2.052   1.537   5.425 -0.2341 -0.8697  1.1205
    7PRO     CG   73   1.932   1.448   5.261  0.4688 -0.0141 -0.0173
    7PRO    HG1   74   2.007   1.488   5.189 -0.1748  2.3803  0.5480
    7PRO    HG2   75   1.940   1.338   5.277 -3.3557 -0.9658 -3.0290
    7PRO      C   76   1.924   1.766   5.355  0.6184 -1.2103 -0.6416
    7PRO      O   77   1.942   1.798   5.236 -0.0430  0.4468 -0.3472
    8GLY      N   78   1.951   1.854   5.466  0.0128  0.4210 -0.4018
    8GLY     HN   79   1.915   1.837   5.557 -0.2474  0.1305 -0.5595
    8GLY     CA   80   2.025   1.978   5.458  1.0119  0.5567 -0.1413
    8GLY    HA1   81   2.108   1.970   5.389  2.2227  3.3117  0.8665
    8GLY    HA2   82   2.052   1.983   5.562 -1.7468  1.0411  0.6318
    8GLY      C   83   1.945   2.104   5.424  0.6020  0.8180 -0.6924
    8GLY      O   84   1.827   2.107   5.391  0.6535 -0.3640 -0.0385
    9ASP      N   85   2.018   2.211   5.440 -0.4438 -0.0066  0.1765
    9ASP     HN   86   2.101   2.210   5.495 -0.8217 -1.8854  0.7916
    9ASP     CA   87   1.972   2.342   5.403 -0.0807  0.2882 -0.8176
    9ASP     HA   88   1.882   2.362   5.459  0.9309  1.6565  0.4079
    9ASP     CB   89   2.081   2.447   5.448  0.1534 -0.0865 -0.1080
    9ASP    HB1   90   2.059   2.533   5.381 -2.0715 -1.3880 -1.1399
    9ASP    HB2   91   2.180   2.401   5.426  0.6231  1.1425 -0.6849
    9ASP     CG   92   2.070   2.489   5.590 -0.6916  0.1912 -0.5561
    9ASP    OD1   93   1.988   2.436   5.665 -0.2565 -0.2381  0.2763
    9ASP    OD2   94   2.151   2.570   5.642  0.1329  0.1263 -0.2125
    9ASP      C   95   1.929   2.363   5.259 -0.6430  0.3011 -0.2103
    9ASP      O   96   2.010   2.318   5.177  0.1780 -0.5511 -0.0355
   10PRO      N   97   1.820   2.430   5.230 -0.0477 -0.5256  0.4764
   10PRO     CD   98   1.721   2.478   5.330  0.6053  0.0721 -0.4499
   10PRO    HD1   99   1.772   2.539   5.407 -0.1089  0.0110  0.0839
   10PRO    HD2  100   1.675   2.386   5.372 -0.1859 -0.3102 -2.0862
   10PRO     CA  101   1.782   2.470   5.090  0.2514  0.2017 -0.9014
   10PRO     HA  102   1.737   2.384   5.041  0.9669  0.7832 -2.6392
   10PRO     CB  103   1.676   2.582   5.111 -0.3020 -0.8542  0.0775
   10PRO    HB1  104   1.609   2.597   5.024 -1.2754 -2.4393  0.5205
   10PRO    HB2  105   1.731   2.679   5.122 -1.1189 -0.1560 -1.6975
   10PRO     CG  106   1.612   2.549   5.247 -0.1100  0.5292 -0.0066
   10PRO    HG1  107   1.569   2.637   5.300 -2.3459 -1.2266  1.2711
   10PRO    HG2  108   1.526   2.482   5.226 -0.0526  0.0473  1.1884
   10PRO      C  109   1.897   2.515   5.000  0.2110  0.1229 -0.5753
   10PRO      O  110   1.983   2.590   5.047  0.0288 -0.1805  0.2835
   11GLY      N  111   1.900   2.470   4.873 -0.8259  0.1342  0.4052
   11GLY     HN  112   1.830   2.418   4.825  0.7817  0.7529 -2.8813
   11GLY     CA  113   2.012   2.498   4.776 -0.1846  0.3002 -0.2019
   11GLY    HA1  114   1.997   2.599   4.743 -0.9780  0.1810 -0.2155
   11GLY    HA2  115   1.988   2.436   4.690  1.7215  0.4904 -0.9147
   11GLY      C  116   2.152   2.459   4.823  0.4256  0.1542 -0.2763
   11GLY      O  117   2.177   2.386   4.917  0.6439  0.1064 -0.2212
   12PRO      N  118   2.258   2.503   4.759  0.4485 -0.6918  0.1871
   12PRO     CD  119   2.251   2.555   4.625 -0.0931  1.1431 -0.3972
   12PRO    HD1  120   2.192   2.649   4.629  0.2087  1.3223 -0.1269
   12PRO    HD2  121   2.208   2.473   4.563  1.8147  0.3844 -0.7871
   12PRO     CA  122   2.393   2.536   4.822 -0.1946 -0.9282  0.2032
   12PRO     HA  123   2.444   2.440   4.822 -2.4893 -2.2363  0.3816
   12PRO     CB  124   2.446   2.639   4.715 -0.1072  0.3187  0.3554
   12PRO    HB1  125   2.557   2.634   4.711 -0.0054  0.1460  2.2800
   12PRO    HB2  126   2.413   2.742   4.740  0.6186  0.8707 -0.8976
   12PRO     CG  127   2.390   2.589   4.582  0.1449  0.1263 -0.0917
   12PRO    HG1  128   2.384   2.676   4.514  3.2902 -0.6443 -1.5598
   12PRO    HG2  129   2.452   2.505   4.544  0.3426  0.4508 -0.4950
   12PRO      C  130   2.397   2.592   4.963  0.6523  0.1533  0.4721
   12PRO      O  131   2.324   2.684   4.995  0.8392  0.5771  0.1085
   13GLY      N  132   2.482   2.531   5.045 -0.9573  0.3269 -0.1063
   13GLY     HN  133   2.549   2.468   5.009 -0.2530  0.2568  1.2594
   13GLY     CA  134   2.494   2.561   5.186  0.2557 -0.1656 -0.0841
   13GLY    HA1  135   2.538   2.471   5.227 -0.2148 -0.8639 -1.0633
   13GLY    HA2  136   2.400   2.579   5.236  2.4743  1.7815  3.8780
   13GLY      C  137   2.577   2.688   5.213  0.1746  0.2778 -0.1840
   13GLY      O  138   2.604   2.769   5.123 -0.3654  0.1507 -0.4337
   14ASP      N  139   2.618   2.696   5.343 -0.3638 -0.5636  0.6949
   14ASP     HN  140   2.589   2.628   5.410 -1.2964 -0.5027  0.3745
   14ASP     CA  141   2.713   2.790   5.401  0.7691  0.4579 -0.3601
   14ASP     HA  142   2.677   2.887   5.370 -0.1347  0.1458 -0.3202
   14ASP     CB  143   2.719   2.773   5.549  0.1698  0.1610 -0.0546
   14ASP    HB1  144   2.794   2.842   5.593  3.2139 -3.4361  0.8661
   14ASP    HB2  145   2.757   2.676   5.587  2.8749  1.3183  0.3984
   14ASP     CG  146   2.577   2.812   5.613 -0.3393  1.3118  0.2027
   14ASP    OD1  147   2.534   2.731   5.695  0.2329  0.1521  0.7248
   14ASP    OD2  148   2.526   2.919   5.582 -0.4847  0.1836  0.1700
   14ASP      C  149   2.854   2.773   5.351  0.1569 -0.5979 -0.3864
   14ASP      O  150   2.911   2.666   5.357  0.1617  0.2093  0.4089
   15PRO      N  151   2.918   2.879   5.301  0.4384  0.3955  0.1710
   15PRO     CD  152   2.857   2.998   5.239  0.9975  0.2788 -0.6048
   15PRO    HD1  153   2.852   3.077   5.316  1.1084 -0.9374  0.6962
   15PRO    HD2  154   2.759   2.978   5.191  1.4416  0.8706 -1.8029
   15PRO     CA  155   3.063   2.875   5.266 -0.2734 -0.1602 -0.1571
   15PRO     HA  156   3.086   2.807   5.185  0.8737  2.6933 -2.4015
   15PRO     CB  157   3.088   3.016   5.200 -0.3731 -0.1015  0.4194
   15PRO    HB1  158   3.173   3.016   5.129  0.0867 -3.0471  0.8462
   15PRO    HB2  159   3.107   3.088   5.282  0.7823  2.1000 -1.6755
   15PRO     CG  160   2.956   3.050   5.135  0.4381  1.0519 -0.0432
   15PRO    HG1  161   2.941   3.156   5.109  1.9982  1.6815  1.3920
   15PRO    HG2  162   2.936   2.988   5.045  1.4186 -1.1219  1.1324
   15PRO      C  163   3.147   2.836   5.388  0.2474 -0.5356 -0.3118
   15PRO    OT1  164   3.160   2.918   5.484  0.6442  0.8648  0.1583
   15PRO    OT2  165   3.216   2.728   5.395 -0.6222  0.1392  0.1297
   16LIT    LIT  166   3.272   2.788   5.573  0.4577  1.3521 -0.5939
   17LIT    LIT  167   0.542   4.365   2.475 -0.6677  0.1354  0.2885
   18LIT    LIT  168   6.204   1.526   0.478  0.7018 -0.3863  0.3910
   19LIT    LIT  169   5.373   2.098   0.601 -0.2489  0.0450  0.7975
   20LIT    LIT  170   6.439   7.545   2.317  0.6969 -0.4915  0.0836
   21LIT    LIT  171   2.714   4.509   3.513  0.5755 -1.3706 -1.0361
   22LIT    LIT  172   6.501   3.481   1.992  0.4622 -0.2245  0.5766
   23LIT    LIT  173   4.124   2.797   4.055 -0.8838 -0.4079 -0.6629
   24LIT    LIT  174   2.948   4.076   1.264  0.1721 -0.8821  1.1236
   25LIT    LIT  175   7.990   3.449   1.355  0.1502 -0.5447 -0.0058
   26LIT    LIT  176   3.593   7.665   0.319  0.1767 -0.0912  0.1003
   27LIT    LIT  177   0.999   7.800   6.587 -0.1905  0.2503 -0.3209
   28LIT    LIT  178   3.333   1.563   0.620  0.7647 -0.3393 -0.0634
   29LIT    LIT  179   4.753   3.766   6.104  0.3532  0.3758  0.8232
   30LIT    LIT  180   6.754   4.558   4.093  0.1592 -0.2396  1.0607
   31LIT    LIT  181   1.646   1.688   2.900  0.1645  0.9100 -0.2785
   32LIT    LIT  182   0.305   2.060   1.872  0.9599 -0.0843  0.3866
   33LIT    LIT  183   4.690   1.722   4.314  0.2558  0.2929 -0.3902
   34LIT    LIT  184   2.445   6.194   4.364  0.3612  0.1520 -0.2504
   35LIT    LIT  185   3.882   5.925   5.866  0.0024 -0.1473 -0.3106
   36LIT    LIT  186   2.109   2.531   5.814  0.7983  0.0301 -0.1574
   37LIT    LIT  187   4.495   4.612   5.804  0.5397 -0.0687 -0.4055
   38LIT    LIT  188   4.444   0.202   5.777 -0.2099  0.2913  0.0349
   39LIT    LIT  189   4.893   1.075   5.943 -0.6563  1.6581  0.8574
   40LIT    LIT  190   7.938   1.291   6.129 -0.5500 -0.4497  0.1489
   41LIT    LIT  191   4.656   6.393   4.910  0.4495  0.6475 -0.4423
   42LIT    LIT  192   1.311   6.389   1.771  0.4459  0.6390  0.1501
   43LIT    LIT  193   1.026   7.039   1.217  0.5796 -0.2061  1.0104
   44LIT    LIT  194   1.735   0.201   6.701 -0.1994 -0.1553 -0.6348
   45LIT    LIT  195   2.549   1.016   2.106 -0.5184 -0.4436  0.0366
   46LIT    LIT  196   7.241   3.402   5.829 -0.7554 -1.2275  0.0610
   47LIT    LIT  197   5.654   0.380   3.769  0.4725 -0.6789  0.7769
   48LIT    LIT  198   8.152   2.596   3.093 -0.5097 -0.0584 -0.1672
   49LIT    LIT  199   8.115   4.200   0.442 -0.9071  0.9966 -0.3681
   50LIT    LIT  200   2.711   6.684   3.573  1.2724 -0.5935  0.7410
   51LIT    LIT  201   6.528   2.715   1.181 -0.8869  0.0971 -0.9791
   52LIT    LIT  202   7.322   2.992   3.382 -0.8161  0.4867 -0.1326
   53LIT    LIT  203   4.608   3.852   1.876  1.4339  0.2078  0.3185
   54LIT    LIT  204   4.350   2.939   5.156  0.4838 -0.2279  0.5095
   55LIT    LIT  205   5.840   1.432   6.345 -0.0504 -0.0023  0.5676
   56LIT    LIT  206   1.825   6.035   2.347  0.8073 -0.1404 -0.2651
   57LIT    LIT  207   2.823   3.196   5.621 -0.5391  0.1048  0.1635
   58LIT    LIT  208   2.362   2.896   5.663 -0.7676  0.5969  0.7621
   59LIT    LIT  209   1.852   2.327   5.754 -0.5280 -0.7337 -0.5890
   60LIT    LIT  210   1.368   5.452   5.975 -0.2783 -0.8975  0.0353
   61CLA    CLA  211   6.899   2.234   2.245  0.1650  0.1857  0.2552
   62CLA    CLA  212   5.568   1.433   6.636  0.2991  0.0417  0.2440
   63CLA    CLA  213   5.776   7.187   5.334 -0.1494 -0.1893 -0.3840
   64CLA    CLA  214   5.243   1.080   0.391  0.1874  0.0787 -0.1144
   65CLA    CLA  215   3.636   6.185   3.409  0.5198 -0.4803 -0.2125
   66CLA    CLA  216   1.950   0.327   4.003 -0.1752 -0.1658 -0.0719
   67CLA    CLA  217   1.456   0.941   2.712 -0.1827  0.0261 -0.0846
   68CLA    CLA  218   7.730   0.390   1.536 -0.0799 -0.1212  0.1940
   69CLA    CLA  219   6.550   2.261   1.166 -0.2261  0.0493  0.1408
   70CLA    CLA  220   0.727   6.948   2.245  0.0968 -0.1384 -0.0818
   71CLA    CLA  221   3.480   4.086   2.157  0.3382 -0.0734  0.1557
   72CLA    CLA  222   1.807   5.745   6.628 -0.0716 -0.1621 -0.0099
   73CLA    CLA  223   5.336   4.992   5.491  0.2530  0.1983 -0.0548
   74CLA    CLA  224   1.946   1.033   1.321 -0.2078  0.2961  0.0508
   75CLA    CLA  225   4.861   1.834   3.050  0.2506 -0.5540 -0.2352
   76CLA    CLA  226   3.331   2.000   5.806  0.0195 -0.6333 -0.1698
   77CLA    CLA  227   6.532   5.163   3.957  0.4234  0.0794 -0.7648
   78CLA    CLA  228   4.210   6.578   4.473  0.1254  0.0654 -0.0770
   79CLA    CLA  229   5.021   2.446   5.643  0.4088 -0.1580  0.3985
   80CLA    CLA  230   5.953   1.005   4.790  0.0231  0.0128 -0.0237
   81CLA    CLA  231   5.914   0.876   6.697  0.6851 -0.0570  0.1204
   82CLA    CLA  232   2.734   6.564   4.538  0.1183 -0.4071  0.0197
   83CLA    CLA  233   4.459   2.011   4.584 -0.0464 -0.0824  0.3220
   84CLA    CLA  234   0.885   6.150   5.526 -0.0843 -0.5417  0.0682
   85CLA    CLA  235   1.268   3.647   4.866 -0.1334 -0.0593 -0.2922
   86CLA    CLA  236   0.811   3.437   2.230 -0.1945  0.0891  0.7860
   87CLA    CLA  237   4.086   4.287   6.550 -0.3765  0.3622  0.1322
   88CLA    CLA  238   7.840   4.635   2.591  0.0331  0.4144 -0.1825
   89CLA    CLA  239   7.657   6.802   6.602  0.1872 -0.4535 -0.3795
   90CLA    CLA  240   3.194   1.613   4.368  0.0171  0.4623  0.4371
   91CLA    CLA  241   6.883   1.124   6.175  0.0441 -0.0145  0.1010
   92CLA    CLA  242   4.873   5.558   4.162  0.7043  0.3375  0.0739
   93CLA    CLA  243   4.053   4.348   5.245 -0.0298 -0.0097  0.4724
   94CLA    CLA  244   2.501   0.374   0.227 -0.0298 -0.0105  0.0622
   95CLA    CLA  245   3.927   0.943   3.023  0.0840  0.2763  0.0533
   96CLA    CLA  246   7.330   4.692   0.082 -0.1508 -0.0949 -0.1238
   97CLA    CLA  247   1.197   4.544   1.881 -0.0965  0.0016  0.0660
   98CLA    CLA  248   2.333   4.540   6.689  0.3852 -0.0604  0.2566
   99CLA    CLA  249   3.790   2.146   1.908 -0.0052  0.0419 -0.1252
  100CLA    CLA  250   0.842   7.635   1.337 -0.0600  0.1980  0.1496
  101CLA    CLA  251   6.873   3.002   1.148 -0.1586 -0.1325  0.2495
  102CLA    CLA  252   6.356   1.181   2.581  0.3346 -0.0515  0.1416
  103TIP3   OH2  253   4.645   3.927   5.461  0.0775 -0.3712  0.3211
  103TIP3    H1  254   4.576   3.993   5.461  0.4557  0.0294  0.6353
  103TIP3    H2  255   4.726   3.978   5.456  0.3497 -0.8700 -3.5907
  104TIP3   OH2  256   3.022   1.365   1.124 -0.0505  0.1484  0.1328
  104TIP3    H1  257   3.099   1.332   1.170 -0.4593 -0.4715  0.3891
  104TIP3    H2  258   3.038   1.459   1.113  1.5950 -0.2744 -1.5104
  105TIP3   OH2  259   2.030   0.467   2.932 -0.3563 -0.3362  0.0755
  105TIP3    H1  260   1.999   0.377   2.935 -0.5145 -0.3097 -0.5394
  105TIP3    H2  261   1.967   0.511   2.874 -0.8721  0.4005  1.1594
  106TIP3   OH2  262   2.661   4.498   1.455 -0.0488  0.5714 -0.3102
  106TIP3    H1  263   2.628   4.421   1.501  0.4129  1.7580  2.1884
  106TIP3    H2  264   2.650   4.477   1.362 -0.2755 -2.3202  0.2673
  107TIP3   OH2  265   3.108   0.028   5.429 -0.5446 -0.2558 -0.3038
  107TIP3    H1  266   3.050   0.036   5.353 -1.3279 -1.1942  0.1731
  107TIP3    H2  267   3.059   0.069   5.501 -0.0351  0.1493 -0.1824
  108TIP3   OH2  268   3.408   7.509   3.839  1.1046  0.2077 -0.1124
  108TIP3    H1  269   3.358   7.439   3.882  0.1196  0.5941 -0.5939
  108TIP3    H2  270   3.419   7.576   3.907  3.3158 -0.9745  0.7996
  109TIP3   OH2  271   6.717   5.843   0.471  0.7470 -0.6589  0.1762
  109TIP3    H1  272   6.689   5.800   0.390  1.5950 -1.2781  0.1934
  109TIP3    H2  273   6.790   5.899   0.444  0.5490 -0.2928  0.3921
  110TIP3   OH2  274   5.386   2.546   2.244  0.0266 -0.2481 -0.5446
  110TIP3    H1  275   5.459   2.575   2.189 -0.4912 -0.4378 -1.3460
  110TIP3    H2  276   5.361   2.460   2.208 -1.4285  0.3805 -1.1327
  111TIP3   OH2  277   2.025   6.659   3.714 -0.1465  0.1333  0.3633
  111TIP3    H1  278   2.120   6.659   3.700 -0.1707 -0.8213  0.1180
  111TIP3    H2  279   2.014   6.617   3.799 -0.3368  0.4465  0.4914
  112TIP3   OH2  280   6.766   0.738   4.852 -0.5387 -0.0795  0.3577
  112TIP3    H1  281   6.671   0.725   4.857 -0.2249 -3.4606  0.0344
  112TIP3    H2  282   6.791   0.701   4.768  1.1697 -0.0940  0.8240
  113TIP3   OH2  283   4.372   4.380   6.227  0.1634  0.0748 -0.7342
  113TIP3    H1  284   4.442   4.315   6.217  1.2373  1.3947 -2.5166
  113TIP3    H2  285   4.412   4.451   6.275 -1.1690 -0.7049  1.6983
  114TIP3   OH2  286   3.948   6.413   3.161  0.2915  0.5655 -0.0517
  114TIP3    H1  287   3.998   6.406   3.080  1.6640 -1.5620  0.8655
  114TIP3    H2  288   4.012   6.396   3.230 -1.2166  0.2628  1.3495
  115TIP3   OH2  289   4.352   3.254   4.094 -0.0014 -0.1326 -0.0223
  115TIP3    H1  290   4.295   3.231   4.020 -0.6875  2.5039 -0.4021
  115TIP3    H2  291   4.433   3.285   4.053 -0.3803  1.3278  0.2655
  116TIP3   OH2  292   3.117   4.860   0.693  0.1583 -0.1189 -0.1489
  116TIP3    H1  293   3.149   4.876   0.605 -0.3880  0.4961 -0.2431
  116TIP3    H2  294   3.196   4.851   0.746  0.5152  1.4502 -0.3588
  117TIP3   OH2  295   3.278   7.166   6.550  0.3885 -0.0309 -0.2476
  117TIP3    H1  296   3.209   7.122   6.600 -0.4498  1.7600  0.2680
  117TIP3    H2  297   3.291   7.110   6.473  0.2783 -1.8010  0.9541
  118TIP3   OH2  298   7.575   4.843   0.210 -0.0512 -0.1257  0.5936
  118TIP3    H1  299   7.495   4.802   0.178 -1.1383  1.8351  0.6766
  118TIP3    H2  300   7.628   4.857   0.131 -0.5032  0.0812  0.3272
  119TIP3   OH2  301   2.525   5.312   4.321 -0.0685 -0.0171  0.4920
  119TIP3    H1  302   2.468   5.335   4.394 -1.1679  0.2886 -0.4313
  119TIP3    H2  303   2.491   5.362   4.247  1.1262 -0.1802 -0.2040
  120TIP3   OH2  304   6.095   0.251   6.023 -0.2183  0.2241  0.0936
  120TIP3    H1  305   6.065   0.333   5.984 -0.5872 -0.1020 -0.3181
  120TIP3    H2  306   6.171   0.226   5.970 -1.2047 -0.6456 -0.9953
  121TIP3   OH2  307   7.805   1.632   4.978  0.2180  0.1194 -0.3719
  121TIP3    H1  308   7.836   1.560   5.032 -1.8123  0.7902  1.8557
  121TIP3    H2  309   7.751   1.591   4.911  0.5243 -0.5428 -0.2211
  122TIP3   OH2  310   7.793   1.147   1.502  0.0656  0.1111 -0.1314
  122TIP3    H1  311   7.762   1.222   1.451  0.5398 -0.1349 -0.8081
  122TIP3    H2  312   7.750   1.156   1.587 -0.0319  1.0398 -0.2663
  123TIP3   OH2  313   4.816   7.793   3.439  0.0484  0.2269 -0.2835
  123TIP3    H1  314   4.759   7.718   3.453 -0.4463  0.8881  1.3645
  123TIP3    H2  315   4.762   7.857   3.392 -0.2303  0.4078  0.2761
  124TIP3   OH2  316   3.855   2.381   4.448 -0.4050 -0.1103 -0.3700
  124TIP3    H1  317   3.908   2.333   4.513  1.1875  1.6180 -0.3202
  124TIP3    H2  318   3.881   2.344   4.364  1.8832  1.4900 -0.4579
  125TIP3   OH2  319   1.610   2.520   4.543 -0.3237  0.7516 -0.1047
  125TIP3    H1  320   1.605   2.596   4.601 -2.5845  0.8801 -0.3643
  125TIP3    H2  321   1.554   2.544   4.468  2.1422  0.4399 -2.2054
  126TIP3   OH2  322   1.195   7.786   6.634 -0.2240 -0.7424 -0.0326
  126TIP3    H1  323   1.257   7.782   6.562  0.9112 -0.7607  0.9204
  126TIP3    H2  324   1.246   7.816   6.709 -1.6694  0.7047  0.4495
  127TIP3   OH2  325   3.518   6.055   5.971  0.3778 -0.0557 -0.4820
  127TIP3    H1  326   3.438   6.089   6.012 -0.4440 -1.5763 -0.7411
  127TIP3    H2  327   3.550   6.127   5.917 -0.7267  0.6502 -0.2239
  128TIP3   OH2  328   7.902   0.159   5.529 -0.7622  0.4470 -0.9739
  128TIP3    H1  329   7.940   0.086   5.480 -0.9128 -1.2129  1.2148
  128TIP3    H2  330   7.808   0.152   5.514 -1.0309 -1.2909  0.9087
  129TIP3   OH2  331   6.399   1.706   6.667  0.5162 -1.0578  0.0748
  129TIP3    H1  332   6.456   1.679   6.595 -1.9650  1.3306 -3.1161
  129TIP3    H2  333   6.317   1.660   6.650 -0.1856 -0.2911  1.3202
  130TIP3   OH2  334   0.369   5.366   4.128  0.2096 -0.3286 -0.7047
  130TIP3    H1  335   0.368   5.278   4.166 -0.0610 -0.9477 -2.0636
  130TIP3    H2  336   0.294   5.367   4.068  0.9430  0.3882 -1.6444
  131TIP3   OH2  337   7.275   4.210   3.019 -0.1147 -0.9249  0.0225
  131TIP3    H1  338   7.317   4.148   2.959  1.0241 -0.0204 -0.1555
  131TIP3    H2  339   7.194   4.235   2.974 -1.0576 -2.9090  0.4930
  132TIP3   OH2  340   7.642   6.749   4.391  0.0660 -0.0186  0.3477
  132TIP3    H1  341   7.700   6.819   4.419 -2.4148  1.1256  3.1292
  132TIP3    H2  342   7.606   6.780   4.307  1.1718  0.6087  0.0810
  133TIP3   OH2  343   1.153   5.175   2.998  0.1292  0.1116 -0.1563
  133TIP3    H1  344   1.115   5.134   3.075 -0.4639  0.4263 -0.2748
  133TIP3    H2  345   1.148   5.107   2.930 -0.6990  0.3115 -0.3080
  134TIP3   OH2  346   6.775   5.775   6.178 -0.2489 -0.3844  0.4331
  134TIP3    H1  347   6.760   5.805   6.088 -1.0162 -1.0368  0.3417
  134TIP3    H2  348   6.838   5.838   6.213  1.0110 -0.8154 -0.9485
  135TIP3   OH2  349   5.984   5.827   5.263 -0.2626 -0.0331 -0.4939
  135TIP3    H1  350   5.966   5.736   5.239  0.1969 -0.2644  0.0078
  135TIP3    H2  351   5.984   5.875   5.180  3.3833 -1.1588 -1.3330
  136TIP3   OH2  352   0.609   1.346   0.861 -0.4167 -0.2499  0.0841
  136TIP3    H1  353   0.614   1.322   0.768 -0.2449  0.0023  0.0261
  136TIP3    H2  354   0.530   1.399   0.868  0.0437  0.4815 -0.0969
  137TIP3   OH2  355   2.898   7.398   2.643  0.0771 -0.1556 -0.1274
  137TIP3    H1  356   2.949   7.408   2.563  1.8936  0.3487  1.0346
  137TIP3    H2  357   2.908   7.482   2.689  0.9172 -1.1410  1.6190
  138TIP3   OH2  358   6.268   6.315   4.985  0.2353  0.0172 -0.5039
  138TIP3    H1  359   6.253   6.325   4.891  1.1936 -0.5320 -0.7271
  138TIP3    H2  360   6.320   6.234   4.993 -2.0398 -1.4492  0.6982
  139TIP3   OH2  361   4.986   1.469   4.313  0.1056 -0.2022  0.1285
  139TIP3    H1  362   5.031   1.545   4.350  0.1802  0.5752 -1.4417
  139TIP3    H2  363   5.057   1.414   4.279 -0.0195  0.6471 -1.6465
  140TIP3   OH2  364   0.424   0.032   1.547  0.1400  0.1199  0.0798
  140TIP3    H1  365   0.474  -0.049   1.557 -0.4325 -0.1589  0.7783
  140TIP3    H2  366   0.399   0.056   1.637  0.0930  0.9342 -0.1453
  141TIP3   OH2  367   6.733   0.619   2.648  0.2143 -0.1856  0.1076
  141TIP3    H1  368   6.800   0.648   2.588  0.5906 -0.0430  0.5887
  141TIP3    H2  369   6.661   0.681   2.636  1.1647  1.2264  1.4123
  142TIP3   OH2  370   0.876   0.685   3.132  0.1148 -0.1779  0.1147
  142TIP3    H1  371   0.945   0.651   3.075  1.8772  1.3300  1.2062
  142TIP3    H2  372   0.895   0.779   3.138 -1.1485  0.0168  1.6287
  143TIP3   OH2  373   2.486   0.799   4.130  0.0315  0.0730 -0.4919
  143TIP3    H1  374   2.547   0.829   4.196 -0.8046 -0.8164  0.7354
  143TIP3    H2  375   2.460   0.712   4.159 -2.8899  0.9385 -0.1437
  144TIP3   OH2  376   7.171   2.069   6.054  0.5760 -0.4790  0.2701
  144TIP3    H1  377   7.103   2.131   6.027  0.4714  0.7706  3.0710
  144TIP3    H2  378   7.226   2.059   5.976 -1.8525 -0.3050 -1.6023
  145TIP3   OH2  379   2.490   3.669   1.057 -0.4639  0.4925 -0.2106
  145TIP3    H1  380   2.439   3.654   1.136  1.1170 -0.9047  0.6273
  145TIP3    H2  381   2.426   3.670   0.986 -1.6034 -2.2441  0.6528
  146TIP3   OH2  382   4.533   5.403   0.133  0.1210 -0.7059 -0.0503
  146TIP3    H1  383   4.618   5.441   0.156 -0.0993 -0.5190  0.4806
  146TIP3    H2  384   4.469   5.469   0.159 -0.1526 -0.4560 -1.2854
  147TIP3   OH2  385   8.259   6.190   0.575  0.0934  0.0490 -0.2077
  147TIP3    H1  386   8.258   6.210   0.668 -1.4674 -0.1937 -0.1464
  147TIP3    H2  387   8.219   6.266   0.532  1.9760  0.7372 -0.8440
  148TIP3   OH2  388   1.238   7.658   2.313  0.1258 -0.7394 -0.5785
  148TIP3    H1  389   1.174   7.671   2.383 -0.2119 -0.2509 -0.9797
  148TIP3    H2  390   1.197   7.593   2.256  0.5665 -1.4313 -0.1321
  149TIP3   OH2  391   1.463   0.392   6.199 -0.2056 -0.0777  0.4485
  149TIP3    H1  392   1.449   0.483   6.225  2.0625  0.6526 -0.5703
  149TIP3    H2  393   1.415   0.383   6.117  0.7773  0.7141 -0.2412
  150TIP3   OH2  394   7.450   0.204   4.922  0.2217 -0.0037  0.3169
  150TIP3    H1  395   7.396   0.264   4.870 -0.1013 -1.4202 -1.0575
  150TIP3    H2  396   7.454   0.245   5.008 -3.2080  0.1559  0.5738
  151TIP3   OH2  397   3.063   3.140   4.745  0.1389 -0.1484  0.0161
  151TIP3    H1  398   3.097   3.127   4.656  0.1895 -1.0131  0.1626
  151TIP3    H2  399   3.139   3.170   4.795  0.1588  0.1333 -0.1763
  152TIP3   OH2  400   3.718   2.266   5.937 -0.6461  0.1628  0.2244
  152TIP3    H1  401   3.745   2.241   5.849 -2.5935 -2.8623  0.3408
  152TIP3    H2  402   3.630   2.301   5.926 -0.2855  1.3098  0.8260
  153TIP3   OH2  403   3.143   0.347   3.273  0.0469  0.1946 -0.0080
  153TIP3    H1  404   3.191   0.416   3.226 -0.9346  1.5120  0.8632
  153TIP3    H2  405   3.174   0.355   3.364 -1.0666  0.3965  0.3620
  154TIP3   OH2  406   4.619   2.300   0.305  0.0806 -0.1582  0.1862
  154TIP3    H1  407   4.684   2.232   0.288  0.2082 -0.1882  0.7834
  154TIP3    H2  408   4.541   2.270   0.258  0.2301 -0.5696  0.1989
  155TIP3   OH2  409   3.225   1.875   4.512 -0.1806  0.8099 -0.2439
  155TIP3    H1  410   3.205   1.799   4.458 -0.5470  1.2820 -0.7745
  155TIP3    H2  411   3.308   1.852   4.555 -0.0194  0.3271 -0.7986
  156TIP3   OH2  412   3.771   3.236   2.572  0.0236  0.1993 -0.2703
  156TIP3    H1  413   3.804   3.299   2.636 -0.3121  1.6297 -1.4280
  156TIP3    H2  414   3.834   3.164   2.575 -0.4202 -0.1690  2.1890
  157TIP3   OH2  415   5.684   6.015   5.777  0.3103 -0.2580  0.0124
  157TIP3    H1  416   5.633   6.096   5.776  1.6764  0.6203  0.1099
  157TIP3    H2  417   5.729   6.014   5.692 -0.7791 -1.6479 -0.5967
  158TIP3   OH2  418   4.223   6.184   3.864  0.3111 -0.1373  0.3363
  158TIP3    H1  419   4.200   6.154   3.952  1.2585 -1.4761  0.1544
  158TIP3    H2  420   4.284   6.257   3.878  1.7176 -1.3589  0.8302
  159TIP3   OH2  421   7.914   4.537   5.640  0.2286 -0.6794 -0.6637
  159TIP3    H1  422   7.873   4.609   5.687  2.2182 -0.1952  0.4439
  159TIP3    H2  423   7.842   4.476   5.623 -1.3053  1.0297 -0.6747
  160TIP3   OH2  424   1.782   0.290   2.168 -0.8043 -0.0921 -0.7191
  160TIP3    H1  425   1.804   0.199   2.150 -0.4234 -0.5853  1.8652
  160TIP3    H2  426   1.830   0.340   2.101  1.7122 -1.6190 -0.2051
  161TIP3   OH2  427   0.627   2.535   0.893 -0.4101 -0.3532  0.2901
  161TIP3    H1  428   0.699   2.570   0.945  0.8070 -3.3885  0.8300
  161TIP3    H2  429   0.549   2.555   0.944  0.4482 -0.4644  1.7048
  162TIP3   OH2  430   2.271   2.990   3.716  0.5987 -0.1720  0.1314
  162TIP3    H1  431   2.363   2.974   3.739  0.7885  0.2984 -0.2724
  162TIP3    H2  432   2.257   3.082   3.741  0.8999  0.4611 -1.8662
  163TIP3   OH2  433   3.006   6.610   1.071  0.6140  0.2904 -0.5559
  163TIP3    H1  434   2.912   6.612   1.052  0.8281  0.0648 -1.7482
  163TIP3    H2  435   3.026   6.517   1.085  0.8350  0.2150 -1.3276
  164TIP3   OH2  436   1.196   3.445   3.884 -0.6312  0.1703 -0.2886
  164TIP3    H1  437   1.177   3.539   3.888 -0.5790  0.1707 -0.0184
  164TIP3    H2  438   1.164   3.418   3.798  0.4526  0.6752 -0.8693
  165TIP3   OH2  439   8.239   1.144   0.178 -0.0933 -0.5385 -0.0218
  165TIP3    H1  440   8.320   1.185   0.150 -0.6040 -0.4622 -1.4532
  165TIP3    H2  441   8.212   1.193   0.256 -0.1274  1.1530 -1.0653
  166TIP3   OH2  442   2.040   0.665   2.111 -0.0844  0.3385  0.4264
  166TIP3    H1  443   2.006   0.598   2.051 -1.5761  2.8730 -1.7836
  166TIP3    H2  444   1.961   0.705   2.149  0.7688  0.8085  1.7799
  167TIP3   OH2  445   6.280   3.393   3.514 -0.6395  0.3824  0.2703
  167TIP3    H1  446   6.259   3.318   3.459 -0.3451 -0.8594  1.7603
  167TIP3    H2  447   6.369   3.418   3.490 -0.4440 -0.2672  0.3195
  168TIP3   OH2  448   0.327   2.966   4.687 -0.6739  0.0957  0.3031
  168TIP3    H1  449   0.280   3.009   4.759 -0.8538  0.3449  0.0373
  168TIP3    H2  450   0.274   2.888   4.668 -1.1879  0.5677 -0.2406
  169TIP3   OH2  451   0.691   4.073   1.685 -0.5281 -0.5342 -0.0629
  169TIP3    H1  452   0.773   4.026   1.698 -0.6710 -0.9029 -0.4813
  169TIP3    H2  453   0.636   4.046   1.759 -1.0814 -2.0670 -0.9915
  170TIP3   OH2  454   0.532   6.060   4.812 -0.2894 -0.2518 -0.0928
  170TIP3    H1  455   0.504   6.137   4.763 -1.3689 -1.6874 -1.8276
  170TIP3    H2  456   0.454   6.032   4.860  0.3475  0.2341  1.2920
  171TIP3   OH2  457   6.503   5.471   1.936 -0.0008  0.5220 -0.0080
  171TIP3    H1  458   6.535   5.478   2.026 -0.2095  0.9836  0.0318
  171TIP3    H2  459   6.411   5.444   1.945 -0.2862  1.4395 -0.0472
  172TIP3   OH2  460   0.171   0.303   4.637 -0.0366  0.5924 -0.2355
  172TIP3    H1  461   0.197   0.375   4.695  2.0095 -1.9934  2.3892
  172TIP3    H2  462   0.100   0.259   4.684  0.1146 -0.2334 -0.7549
  173TIP3   OH2  463   5.696   7.088   4.322 -0.2465  0.6927  0.1033
  173TIP3    H1  464   5.785   7.062   4.297 -0.7799  0.1623 -1.3917
  173TIP3    H2  465   5.668   7.147   4.251 -1.0189  0.9932  0.6498
  174TIP3   OH2  466   5.408   6.213   3.685  0.4190  0.0102  0.2288
  174TIP3    H1  467   5.411   6.290   3.627 -0.5951 -0.5611 -0.6251
  174TIP3    H2  468   5.325   6.221   3.731 -0.8696 -1.7640 -1.6350
  175TIP3   OH2  469   6.328   4.665   2.571 -0.6416 -0.1207  0.5300
  175TIP3    H1  470   6.359   4.742   2.619 -0.0204  0.8243 -1.2645
  175TIP3    H2  471   6.394   4.651   2.504 -2.3878 -0.1372 -1.2962
  176TIP3   OH2  472   0.046   7.588   3.651 -0.0811  0.3495 -0.7862
  176TIP3    H1  473   0.055   7.609   3.558  0.2068 -1.3609 -1.1709
  176TIP3    H2  474   0.112   7.521   3.667  1.0410  1.7819  1.0763
  177TIP3   OH2  475   0.009   1.574   5.644 -0.1338  0.1915 -0.1932
  177TIP3    H1  476   0.064   1.496   5.647 -0.8951 -0.3722 -0.3703
  177TIP3    H2  477   0.068   1.644   5.617  0.9230  0.0241  1.5495
  178TIP3   OH2  478   8.318   2.458   3.486  0.0879  0.0168  0.5950
  178TIP3    H1  479   8.235   2.433   3.528 -0.7934  0.1515 -0.9908
  178TIP3    H2  480   8.294   2.477   3.395  1.8991 -0.0984  0.0600
  179TIP3   OH2  481   4.510   4.394   3.579 -1.1732 -0.4290  0.2143
  179TIP3    H1  482   4.537   4.422   3.667 -1.9815  1.3362 -0.0562
  179TIP3    H2  483   4.450   4.462   3.550 -1.0725 -1.0892 -1.6458
  180TIP3   OH2  484   6.263   0.169   5.476 -0.1738 -0.1899  0.5875
  180TIP3    H1  485   6.231   0.102   5.537  1.2485 -0.8146  0.7041
  180TIP3    H2  486   6.348   0.135   5.447  0.1980  1.1867  0.0123
  181TIP3   OH2  487   1.161   3.401   5.601 -0.2401 -0.3268  0.1219
  181TIP3    H1  488   1.202   3.487   5.592  2.0858 -1.3006  0.5324
  181TIP3    H2  489   1.166   3.382   5.695 -1.8319 -0.4356  0.2086
  182TIP3   OH2  490   0.916   2.654   2.455 -0.5798 -0.3207  0.7259
  182TIP3    H1  491   0.931   2.713   2.529 -1.2072  0.5248  0.1887
  182TIP3    H2  492   1.004   2.624   2.430 -0.2175  0.7113  0.7443
  183TIP3   OH2  493   6.288   7.072   4.421 -0.3812 -0.2684 -0.0666
  183TIP3    H1  494   6.341   7.036   4.491  1.2324  1.0545 -0.5325
  183TIP3    H2  495   6.246   7.149   4.459 -1.7951 -1.1379  0.2133
  184TIP3   OH2  496   2.973   0.197   2.028  0.6161 -0.0850  0.0579
  184TIP3    H1  497   3.021   0.198   2.111  1.0006 -0.4852 -0.1535
  184TIP3    H2  498   2.918   0.275   2.031  0.9937  0.1705  0.4765
  185TIP3   OH2  499   6.464   5.136   5.121 -0.7370  0.6581  0.0414
  185TIP3    H1  500   6.481   5.097   5.035 -0.9550  1.9372 -0.6213
  185TIP3    H2  501   6.471   5.064   5.183 -0.8254 -0.3433 -1.0822
  186TIP3   OH2  502   8.025   1.544   4.767 -0.0420 -0.1742  0.1784
  186TIP3    H1  503   8.008   1.535   4.673 -0.5081 -0.2437  0.2691
  186TIP3    H2  504   8.052   1.456   4.794  2.2004  0.3031 -0.3013
  187TIP3   OH2  505   1.908   4.646   5.406  0.3524 -0.0702 -0.3468
  187TIP3    H1  506   1.963   4.659   5.483 -0.8907  1.9137  0.2907
  187TIP3    H2  507   1.844   4.581   5.433 -1.0416  1.7311  0.9308
  188TIP3   OH2  508   8.066   2.700   2.269 -0.2876 -0.5175  0.0549
  188TIP3    H1  509   8.096   2.784   2.233 -1.0439  0.3816  1.4663
  188TIP3    H2  510   8.009   2.664   2.201  0.0761  0.0854 -0.5811
  189TIP3   OH2  511   7.515   2.532   2.820 -0.1004 -0.0819  0.5161
  189TIP3    H1  512   7.519   2.534   2.916  1.5162  0.5792  0.4617
  189TIP3    H2  513   7.458   2.457   2.801  0.8887 -1.2835  1.9797
  190TIP3   OH2  514   3.402   2.873   4.419 -0.1499  0.8563 -0.2128
  190TIP3    H1  515   3.468   2.806   4.437 -1.3917 -0.0785  1.0059
  190TIP3    H2  516   3.362   2.845   4.336 -1.4584 -0.6183  0.8603
  191TIP3   OH2  517   0.547   6.509   0.641  0.1337 -0.1789  0.1632
  191TIP3    H1  518   0.522   6.595   0.608  0.9845 -0.0031 -0.0336
  191TIP3    H2  519   0.557   6.521   0.736  2.2315  0.4587 -0.0885
  192TIP3   OH2  520   7.279   5.305   3.081  0.0296  0.6246 -0.2761
  192TIP3    H1  521   7.371   5.299   3.104 -0.2253  0.9193  0.8854
  192TIP3    H2  522   7.262   5.399   3.072 -0.4090  0.6565  0.6922
  193TIP3   OH2  523   6.400   4.901   6.577  0.1554  0.3028  0.1855
  193TIP3    H1  524   6.419   4.824   6.522  0.6114 -0.2174  1.0496
  193TIP3    H2  525   6.357   4.866   6.654 -1.6205  1.1706 -0.3698
  194TIP3   OH2  526   5.633   5.471   5.975  0.3275  0.0076  0.0928
  194TIP3    H1  527   5.549   5.427   5.984  0.0159  0.6032  0.1684
  194TIP3    H2  528   5.611   5.564   5.966  1.0314  0.3786  1.7560
  195TIP3   OH2  529   6.431   3.563   5.725  0.2686  0.2956  0.4133
  195TIP3    H1  530   6.404   3.505   5.653  2.2312  1.4295 -1.3583
  195TIP3    H2  531   6.511   3.523   5.759  0.7659  1.0900  0.2129
  196TIP3   OH2  532   3.370   2.104   3.465 -0.5863 -0.4511 -0.1868
  196TIP3    H1  533   3.386   2.194   3.436 -3.0006  0.3313  0.6732
  196TIP3    H2  534   3.388   2.051   3.387 -1.8353  1.0743 -1.6098
  197TIP3   OH2  535   4.317   3.546   3.813 -0.0876 -0.1513 -0.3082
  197TIP3    H1  536   4.394   3.548   3.756  0.4299  2.6891  0.3371
  197TIP3    H2  537   4.349   3.577   3.898 -1.2458 -2.4292  1.0772
  198TIP3   OH2  538   2.687   3.488   1.966  0.3338 -0.0307  0.6126
  198TIP3    H1  539   2.774   3.477   1.927 -0.8127 -1.6144 -1.7065
  198TIP3    H2  540   2.662   3.578   1.945  0.5565 -0.2473 -0.6601
  199TIP3   OH2  541   6.963   1.920   1.763  0.1468  0.6683 -0.1470
  199TIP3    H1  542   6.997   1.972   1.836  0.6904  1.4593 -0.9488
  199TIP3    H2  543   6.869   1.914   1.780  0.1460  1.5258  0.1980
  200TIP3   OH2  544   0.688   2.095   3.179  0.0133 -0.0770 -0.2009
  200TIP3    H1  545   0.739   2.017   3.160 -2.3375 -1.7287 -0.0671
  200TIP3    H2  546   0.693   2.105   3.274  0.7224  0.2736 -0.2642
  201TIP3   OH2  547   6.544   3.668   5.107 -0.0846 -0.6004 -0.2016
  201TIP3    H1  548   6.596   3.726   5.052  1.4439 -0.6866  1.0895
  201TIP3    H2  549   6.453   3.683   5.080  0.2307  2.5443  0.2168
  202TIP3   OH2  550   7.404   4.457   3.246 -0.2940  0.6908 -0.1728
  202TIP3    H1  551   7.339   4.507   3.296  1.9013  2.9446  0.6639
  202TIP3    H2  552   7.363   4.442   3.161 -2.5498  0.4245  0.8914
  203TIP3   OH2  553   4.100   1.776   3.865  0.8064  0.3618  0.0108
  203TIP3    H1  554   4.138   1.723   3.795  0.8652 -1.1284  1.1122
  203TIP3    H2  555   4.115   1.725   3.944 -0.8104  1.1497  0.8837
  204TIP3   OH2  556   2.161   6.202   5.142 -0.0104 -0.5843  0.1575
  204TIP3    H1  557   2.120   6.244   5.218  1.0494  0.7164  0.0373
  204TIP3    H2  558   2.173   6.111   5.169 -0.2341 -0.2874  1.3003
  205TIP3   OH2  559   2.607   1.675   2.855 -0.1167 -0.2664 -0.3306
  205TIP3    H1  560   2.572   1.588   2.873 -1.3545  0.2883  0.0172
  205TIP3    H2  561   2.555   1.734   2.909  1.6700  0.5675  0.5682
  206TIP3   OH2  562   6.925   2.105   6.269 -0.1911 -0.5056 -0.0216
  206TIP3    H1  563   6.928   2.041   6.340  0.3164  0.3876  0.7857
  206TIP3    H2  564   6.978   2.178   6.300  0.9955 -0.5532 -1.7961
  207TIP3   OH2  565   3.780   3.492   4.969  0.1235  0.1152 -0.1333
  207TIP3    H1  566   3.734   3.477   5.051 -0.3535  0.7013 -0.2865
  207TIP3    H2  567   3.851   3.552   4.992  1.1076 -1.1083  0.1849
  208TIP3   OH2  568   2.751   6.800   0.099 -0.7959 -0.3407  0.5587
  208TIP3    H1  569   2.732   6.785   0.006  1.1953 -2.4074  0.4029
  208TIP3    H2  570   2.830   6.853   0.099 -2.3029  2.0632  1.1619
  209TIP3   OH2  571   5.477   2.375   0.168  0.6246  0.1915 -0.0106
  209TIP3    H1  572   5.547   2.312   0.189 -1.6691 -3.1405 -1.5000
  209TIP3    H2  573   5.524   2.454   0.141  3.8011 -1.4779  0.0739
  210TIP3   OH2  574   5.527   7.814   5.715  0.2398 -0.2775  0.8505
  210TIP3    H1  575   5.565   7.747   5.657 -0.6889 -0.6958  0.7010
  210TIP3    H2  576   5.577   7.893   5.697 -1.4316  0.2129 -2.1954
  211TIP3   OH2  577   6.138   2.768   4.328  0.1898 -0.2049 -0.2734
  211TIP3    H1  578   6.153   2.860   4.307  0.2124 -0.7576 -3.0836
  211TIP3    H2  579   6.044   2.755   4.316  0.2644 -0.6450 -0.4072
  212TIP3   OH2  580   3.720   1.809   5.577 -0.1690  0.0159  0.4637
  212TIP3    H1  581   3.654   1.870   5.545 -0.3092 -0.3877 -0.0348
  212TIP3    H2  582   3.759   1.772   5.498  1.5003  1.1352  0.7235
  213TIP3   OH2  583   5.351   4.095   4.324 -0.0976  0.2124  0.7192
  213TIP3    H1  584   5.346   4.152   4.401 -1.6739  0.4845  0.4562
  213TIP3    H2  585   5.314   4.011   4.354 -0.4118  0.2189  0.3627
  214TIP3   OH2  586   6.655   7.720   0.804  0.3340 -0.2823 -0.1639
  214TIP3    H1  587   6.593   7.683   0.741  1.1998 -0.8886 -0.6801
  214TIP3    H2  588   6.602   7.742   0.880 -0.5731 -0.4381 -0.7412
  215TIP3   OH2  589   7.054   2.122   0.088 -0.5998 -0.3371  0.1443
  215TIP3    H1  590   7.021   2.032   0.087  2.5386 -1.6264 -1.1334
  215TIP3    H2  591   7.015   2.163   0.011 -0.7657 -1.1226 -0.1954
  216TIP3   OH2  592   4.003   2.693   6.736 -0.5588 -0.6682  0.4727
  216TIP3    H1  593   3.996   2.745   6.816 -0.7640  0.3120 -0.1682
  216TIP3    H2  594   3.965   2.608   6.759  0.0837 -0.6635  1.6312
  217TIP3   OH2  595   4.798   6.261   2.349  0.0573 -0.3667 -0.1885
  217TIP3    H1  596   4.845   6.338   2.318 -0.2266 -0.3315 -0.5435
  217TIP3    H2  597   4.866   6.198   2.371  0.2921 -0.0231  0.0892
  218TIP3   OH2  598   5.207   2.917   2.843 -0.2848 -0.1199  0.1291
  218TIP3    H1  599   5.191   2.894   2.934  0.9391 -1.0183  0.1251
  218TIP3    H2  600   5.270   2.989   2.847  0.1926 -0.5309 -0.0281
  219TIP3   OH2  601   3.526   0.650   4.786  0.0460  0.3858  0.0016
  219TIP3    H1  602   3.613   0.615   4.768 -1.4734 -2.9854 -1.7933
  219TIP3    H2  603   3.513   0.637   4.880  1.3820  0.7965  0.2557
  220TIP3   OH2  604   7.810   4.021   2.641  0.2037 -0.5399  0.0616
  220TIP3    H1  605   7.807   3.939   2.592  1.5149 -0.1485 -0.7219
  220TIP3    H2  606   7.902   4.047   2.639 -0.4649  2.0180 -1.5268
  221TIP3   OH2  607   3.054   7.605   0.945 -0.4434  0.1294  0.7188
  221TIP3    H1  608   2.990   7.542   0.978 -0.1865  0.0159  1.0102
  221TIP3    H2  609   3.042   7.605   0.850 -0.4848 -0.3110  0.7220
  222TIP3   OH2  610   2.772   3.836   0.942 -0.3111  0.4323 -0.1421
  222TIP3    H1  611   2.778   3.798   0.855 -1.9170  0.2389 -0.1922
  222TIP3    H2  612   2.719   3.774   0.992  0.2494  0.7406  0.8700
  223TIP3   OH2  613   5.493   0.783   5.999 -0.4160 -0.0949 -0.1293
  223TIP3    H1  614   5.542   0.807   6.078  1.2977 -1.0990 -0.8356
  223TIP3    H2  615   5.443   0.706   6.024 -1.9604  1.0986  0.6775
  224TIP3   OH2  616   5.151   2.087   5.294  0.6754 -0.4727 -0.4262
  224TIP3    H1  617   5.178   2.148   5.362  2.6753 -0.8654 -0.8260
  224TIP3    H2  618   5.100   2.020   5.341  0.5279  0.1886  0.3795
  225TIP3   OH2  619   3.748   1.952   4.331  0.3156  0.1098  0.2814
  225TIP3    H1  620   3.754   1.888   4.402 -1.8943 -0.2426  0.2189
  225TIP3    H2  621   3.697   2.024   4.367 -0.1473  0.2874 -0.6741
  226TIP3   OH2  622   5.264   2.072   5.657  0.3390  0.1763 -0.4162
  226TIP3    H1  623   5.288   2.090   5.749 -1.2270  0.2341 -0.0023
  226TIP3    H2  624   5.207   1.995   5.662  0.4953 -0.0105 -1.3847
  227TIP3   OH2  625   2.212   1.778   4.335  0.5106  0.2518 -0.1924
  227TIP3    H1  626   2.141   1.785   4.399 -1.6283  0.1245 -2.3875
  227TIP3    H2  627   2.205   1.689   4.301  1.6698  0.2759 -0.5362
  228TIP3   OH2  628   7.555   5.674   2.279  0.0453  0.0853  0.5711
  228TIP3    H1  629   7.509   5.663   2.196 -0.2011  0.0870  0.7075
  228TIP3    H2  630   7.636   5.720   2.256 -1.1473  2.3562  0.6526
  229TIP3   OH2  631   2.987   2.026   4.443 -0.2259 -0.0585 -0.3792
  229TIP3    H1  632   2.988   2.113   4.483  0.1443 -0.2976  0.1425
  229TIP3    H2  633   3.064   1.982   4.480  1.0394  0.2254 -2.4854
  230TIP3   OH2  634   7.581   5.964   4.577  0.0669  0.3718  0.2146
  230TIP3    H1  635   7.523   6.039   4.566 -1.9206 -1.0457  0.5756
  230TIP3    H2  636   7.580   5.920   4.493  0.5569  0.2624  0.2611
  231TIP3   OH2  637   4.547   2.882   1.797  0.1507 -0.4492 -0.1280
  231TIP3    H1  638   4.553   2.808   1.857  3.1320  0.7099  1.1832
  231TIP3    H2  639   4.515   2.844   1.715 -1.9819 -2.4512  1.4994
  232TIP3   OH2  640   6.516   5.341   0.046 -0.3176  0.1560  0.7807
  232TIP3    H1  641   6.529   5.358   0.139  0.5870  1.1761  0.4862
  232TIP3    H2  642   6.594   5.378   0.004 -0.3725 -0.9313 -0.3162
  233TIP3   OH2  643   6.774   5.910   5.936  0.1048  0.1326 -0.0863
  233TIP3    H1  644   6.841   5.915   5.868  0.6978 -1.3345  0.3609
  233TIP3    H2  645   6.691   5.903   5.887  0.1824  2.4639 -0.6413
  234TIP3   OH2  646   6.419   6.834   1.820  0.1113  0.3593  0.5307
  234TIP3    H1  647   6.465   6.752   1.804 -0.5850  0.3068 -1.4004
  234TIP3    H2  648   6.488   6.895   1.846  0.8662 -0.3929  0.3564
  235TIP3   OH2  649   4.883   4.337   0.064  0.6228 -0.4741 -0.4238
  235TIP3    H1  650   4.957   4.287   0.098  0.8661 -2.2686 -3.2808
  235TIP3    H2  651   4.898   4.342  -0.030  0.2432  4.5872 -0.4916
  236TIP3   OH2  652   0.474   2.942   3.763  0.3570  0.1575  0.1351
  236TIP3    H1  653   0.519   2.923   3.681  1.0538  0.6142  0.4031
  236TIP3    H2  654   0.542   2.975   3.821 -0.2773  0.6394  0.6298
  237TIP3   OH2  655   4.566   5.208   5.811  0.1243 -0.4339 -0.6661
  237TIP3    H1  656   4.485   5.237   5.769 -0.0088  0.0481 -0.0722
  237TIP3    H2  657   4.633   5.265   5.774 -0.0555  0.2688  0.0854
  238TIP3   OH2  658   0.104   4.416   5.387 -0.1442  0.8404 -0.1574
  238TIP3    H1  659   0.198   4.406   5.400  0.4646  1.6285 -3.2187
  238TIP3    H2  660   0.092   4.511   5.375 -0.9009  0.5305 -2.1791
  239TIP3   OH2  661   0.078   2.456   0.854  0.0571 -0.1510 -0.3420
  239TIP3    H1  662   0.145   2.389   0.844 -0.5981 -0.7053 -1.1097
  239TIP3    H2  663   0.123   2.539   0.837  0.8431 -0.3837  0.4955
  240TIP3   OH2  664   5.395   0.051   2.608  0.1694 -0.1239 -0.2498
  240TIP3    H1  665   5.332  -0.020   2.609  1.2029 -1.0610  0.2120
  240TIP3    H2  666   5.348   0.125   2.569 -1.1042 -0.8741 -0.1686
  241TIP3   OH2  667   7.596   5.912   2.818 -0.0709  0.0392  0.1889
  241TIP3    H1  668   7.543   5.901   2.739  1.0350  1.6323 -0.8157
  241TIP3    H2  669   7.621   5.822   2.842 -0.3841 -0.4680 -1.2775
  242TIP3   OH2  670   1.165   3.376   4.322 -0.1755  0.4862 -0.4018
  242TIP3    H1  671   1.139   3.294   4.364  1.1760  0.3922  0.2790
  242TIP3    H2  672   1.195   3.350   4.235  0.7782  0.1734  0.0119
  243TIP3   OH2  673   1.193   3.621   5.158 -0.2303 -0.3875  0.2211
  243TIP3    H1  674   1.209   3.655   5.070 -1.1112 -1.7013 -0.4777
  243TIP3    H2  675   1.146   3.692   5.203 -0.3155  0.0529 -0.5461
  244TIP3   OH2  676   5.941   3.401   3.284  0.4570 -0.3101 -0.4606
  244TIP3    H1  677   5.955   3.483   3.332  0.8505 -0.9302  0.5078
  244TIP3    H2  678   5.979   3.334   3.340 -2.3247 -1.5461  0.1254
  245TIP3   OH2  679   0.704   4.352   1.629 -0.1003  0.2169 -0.0429
  245TIP3    H1  680   0.689   4.264   1.661 -0.9428  0.7767  1.1558
  245TIP3    H2  681   0.762   4.392   1.693 -0.7758  0.9450  0.1299
  246TIP3   OH2  682   3.821   4.557   6.534  0.4499  0.4774  0.8406
  246TIP3    H1  683   3.892   4.594   6.482 -0.3378  0.0506 -0.6088
  246TIP3    H2  684   3.850   4.468   6.555 -0.8898 -0.9907 -2.6377
  247TIP3   OH2  685   0.299   2.100   5.954  0.0381  0.0518 -0.1903
  247TIP3    H1  686   0.339   2.071   6.036  0.4504  0.3421 -0.2845
  247TIP3    H2  687   0.339   2.045   5.887  0.2644  0.3178 -0.2797
  248TIP3   OH2  688   3.910   4.063   6.690 -0.7900 -0.5596 -0.0166
  248TIP3    H1  689   3.837   4.082   6.632  0.6989  0.4892 -1.6408
  248TIP3    H2  690   3.980   4.122   6.662 -0.0984  0.2926  3.1327
  249TIP3   OH2  691   5.107   7.101   6.611 -0.5563 -0.5324  0.0908
  249TIP3    H1  692   5.153   7.127   6.691 -0.4749 -1.7009  0.4409
  249TIP3    H2  693   5.105   7.005   6.614  0.8907 -0.7170 -2.0915
  250TIP3   OH2  694   5.161   5.636   2.225 -0.3735  0.5026  0.1902
  250TIP3    H1  695   5.103   5.561   2.212 -0.5452  0.9840 -2.2509
  250TIP3    H2  696   5.123   5.684   2.298 -1.2528 -0.8331  0.6456
  251TIP3   OH2  697   1.649  -0.011   3.773 -0.0811 -0.0932 -0.3755
  251TIP3    H1  698   1.671  -0.039   3.684 -0.5013  0.4196 -0.6420
  251TIP3    H2  699   1.662   0.084   3.773 -0.2369 -0.0701  0.0688
  252TIP3   OH2  700   6.220   4.009   6.742  0.2229  0.5181  0.1456
  252TIP3    H1  701   6.257   4.049   6.663  2.0318 -0.0699  0.6263
  252TIP3    H2  702   6.184   4.082   6.791 -0.5360  0.9493 -1.0028
  253TIP3   OH2  703   0.633   5.187   6.569 -0.1689  0.0684 -0.4133
  253TIP3    H1  704   0.609   5.124   6.637 -1.0164  0.4567 -0.3484
  253TIP3    H2  705   0.728   5.176   6.559 -0.4686 -2.1480 -1.3629
  254TIP3   OH2  706   5.601   1.837   4.469  0.0146 -0.1291 -0.1391
  254TIP3    H1  707   5.635   1.910   4.519 -1.1328  0.7131 -0.5470
  254TIP3    H2  708   5.627   1.855   4.379 -0.2202 -0.2431 -0.2335
  255TIP3   OH2  709   6.166   6.133   5.701 -0.4368 -0.0001 -0.1113
  255TIP3    H1  710   6.256   6.113   5.678 -1.1372 -1.9150 -1.4659
  255TIP3    H2  711   6.145   6.213   5.652  0.5602  0.5888  0.3997
  256TIP3   OH2  712   6.979   2.271   3.625 -0.4615  0.1121  0.5109
  256TIP3    H1  713   6.933   2.281   3.542  0.6293  2.4761  0.1082
  256TIP3    H2  714   6.931   2.328   3.686  0.1382  0.2159  0.8909
  257TIP3   OH2  715   3.032   4.676   1.718  0.7564  0.1846  0.1503
  257TIP3    H1  716   3.072   4.742   1.662  1.7089 -1.7139 -1.5472
  257TIP3    H2  717   3.097   4.659   1.786  1.0763  0.0680 -0.1811
  258TIP3   OH2  718   1.677   6.387   1.587  0.0314  0.5460 -0.5409
  258TIP3    H1  719   1.761   6.408   1.628 -0.1319  0.9615 -0.4084
  258TIP3    H2  720   1.646   6.310   1.634  0.3178  0.4148 -0.5628
  259TIP3   OH2  721   1.246   3.374   5.322 -0.1103 -0.1001 -0.1471
  259TIP3    H1  722   1.231   3.465   5.299 -2.0656 -0.1206  0.8394
  259TIP3    H2  723   1.234   3.370   5.417 -0.0459 -1.3878 -0.1707
  260TIP3   OH2  724   0.143   6.915   4.932 -0.2569  0.1603  0.3545
  260TIP3    H1  725   0.141   6.882   5.022  0.5782  0.6543  0.5604
  260TIP3    H2  726   0.235   6.937   4.916 -0.0912 -1.4372 -1.1851
  261TIP3   OH2  727   6.656   3.880   3.884  0.3073 -0.2357 -0.3201
  261TIP3    H1  728   6.644   3.786   3.873 -0.7059 -0.0920 -0.5386
  261TIP3    H2  729   6.667   3.892   3.978  0.0730 -0.5382 -0.2522
  262TIP3   OH2  730   4.955   5.673   0.410 -0.0962 -0.8365 -0.1590
  262TIP3    H1  731   4.909   5.703   0.332  0.5930 -1.1094 -0.6831
  262TIP3    H2  732   4.962   5.752   0.465  2.2908  0.2413 -1.8126
  263TIP3   OH2  733   0.507   2.313   6.027  0.1604 -0.5807 -0.3034
  263TIP3    H1  734   0.565   2.237   6.030  0.9491  0.0214  0.4237
  263TIP3    H2  735   0.446   2.295   5.955  0.2519 -1.9414 -0.0617
  264TIP3   OH2  736   1.448   2.609   4.357 -0.2253  0.0265  0.3740
  264TIP3    H1  737   1.488   2.597   4.271 -2.2942 -2.1783 -0.3949
  264TIP3    H2  738   1.364   2.651   4.338  0.4702  2.0920  1.6556
  265TIP3   OH2  739   2.129   1.121   3.522  0.2544  0.3764 -0.5055
  265TIP3    H1  740   2.143   1.026   3.517  0.8793  0.4732 -0.7748
  265TIP3    H2  741   2.177   1.148   3.601  2.8567  0.8996 -2.1404
  266TIP3   OH2  742   2.839   4.996   5.782 -0.0172  0.7148  0.1089
  266TIP3    H1  743   2.888   4.942   5.843  0.7925 -1.4189 -2.2785
  266TIP3    H2  744   2.753   5.007   5.823  0.3225 -1.0495  1.3973
  267TIP3   OH2  745   7.406   3.515   5.812  0.2218  0.4160 -0.0877
  267TIP3    H1  746   7.426   3.598   5.856 -1.3547  1.2814 -0.9094
  267TIP3    H2  747   7.483   3.498   5.758  0.0860  2.0135 -0.8535
  268TIP3   OH2  748   7.645   7.330   1.259 -0.3542 -0.2640 -0.3736
  268TIP3    H1  749   7.671   7.353   1.348 -0.5876 -0.1634 -0.3296
  268TIP3    H2  750   7.578   7.395   1.236  0.1374  0.0803 -0.8491
  269TIP3   OH2  751   8.092   5.929   1.412 -0.1430  0.5077  0.8239
  269TIP3    H1  752   8.071   5.838   1.433 -1.9425  1.1880  2.2420
  269TIP3    H2  753   8.068   5.939   1.319 -1.7349 -0.0180  1.1455
  270TIP3   OH2  754   7.926   3.073   0.844  0.2166 -0.3325 -0.0108
  270TIP3    H1  755   7.859   3.103   0.905  0.9754 -0.6337  0.9982
  270TIP3    H2  756   7.947   2.984   0.873 -0.5672 -1.1194 -1.7208
  271TIP3   OH2  757   5.591   2.254   5.376 -0.3585  0.5809 -0.8269
  271TIP3    H1  758   5.599   2.241   5.282  1.3803 -2.4191 -0.3918
  271TIP3    H2  759   5.619   2.344   5.390  0.5897  0.6982 -3.0670
  272TIP3   OH2  760   3.875   6.205   6.001 -0.0890 -0.1633  0.1397
  272TIP3    H1  761   3.896   6.282   6.055  0.7512  2.4838 -3.5986
  272TIP3    H2  762   3.940   6.140   6.027  1.3879  1.5904  1.1188
  273TIP3   OH2  763   5.923   2.413   3.068  0.4963  0.4217  0.3981
  273TIP3    H1  764   6.008   2.447   3.038  0.3928 -0.8228 -1.4576
  273TIP3    H2  765   5.863   2.486   3.055  1.1847  1.2103  1.4168
  274TIP3   OH2  766   3.458   7.581   4.434 -0.2261  0.1240 -0.0055
  274TIP3    H1  767   3.373   7.606   4.469  0.2248  1.6169  0.1045
  274TIP3    H2  768   3.450   7.487   4.417 -3.7375  0.9096 -4.9463
  275TIP3   OH2  769   1.100   3.446   4.715 -0.5928  0.2134  0.5473
  275TIP3    H1  770   1.169   3.497   4.758  0.3302  0.5399 -1.1807
  275TIP3    H2  771   1.119   3.355   4.737  0.0825  0.3481  0.5486
  276TIP3   OH2  772   2.658   1.420   6.381 -0.1062 -0.2925 -0.4262
  276TIP3    H1  773   2.723   1.409   6.450  0.5649  1.2985 -0.7699
  276TIP3    H2  774   2.574   1.421   6.427 -0.0544 -3.1015 -0.0456
  277TIP3   OH2  775   4.619   1.443   1.877  0.6317 -0.0944  0.1561
  277TIP3    H1  776   4.641   1.360   1.921 -0.5045  0.0980  1.1578
  277TIP3    H2  777   4.675   1.508   1.920  0.5608 -0.1361  0.3149
  278TIP3   OH2  778   7.455   6.068   3.304  0.2721 -0.0518 -0.1254
  278TIP3    H1  779   7.413   6.041   3.223 -0.9491  0.6555  0.2514
  278TIP3    H2  780   7.385   6.068   3.369  0.7535  1.4795  0.4490
  279TIP3   OH2  781   1.897   6.414   0.806 -0.0199  0.6469 -0.5821
  279TIP3    H1  782   1.956   6.352   0.763  2.5264  2.9238 -0.6237
  279TIP3    H2  783   1.821   6.361   0.830  2.0347 -2.5130 -0.4165
  280TIP3   OH2  784   5.895   4.054   5.890  0.0701  0.2512  0.3043
  280TIP3    H1  785   5.943   4.073   5.971  0.5831  0.3350 -0.0132
  280TIP3    H2  786   5.804   4.046   5.918  0.3093 -0.2739  0.9758
  281TIP3   OH2  787   7.269   7.205   1.172 -0.0217 -0.5366  0.2502
  281TIP3    H1  788   7.259   7.282   1.229  2.1558  0.0387 -0.0709
  281TIP3    H2  789   7.180   7.171   1.163 -0.5157 -0.5309  3.7767
  282TIP3   OH2  790   6.773   4.478   3.630 -0.3577  0.7247  0.5244
  282TIP3    H1  791   6.724   4.469   3.549 -1.2819  1.4034  0.9913
  282TIP3    H2  792   6.795   4.389   3.655 -1.9890  0.3359  0.6702
  283TIP3   OH2  793   3.697   1.452   2.358 -0.3383 -0.6060 -0.0053
  283TIP3    H1  794   3.625   1.394   2.334  0.1677 -1.4744  0.5237
  283TIP3    H2  795   3.776   1.406   2.328 -0.0310  0.7560 -1.4292
  284TIP3   OH2  796   3.581   2.660   1.942 -0.1916 -0.2571 -0.0510
  284TIP3    H1  797   3.637   2.710   1.883 -1.2690 -0.5513 -1.3988
  284TIP3    H2  798   3.534   2.600   1.884 -0.8205 -1.0216  1.2103
  285TIP3   OH2  799   0.707   7.857   1.131  0.0791  0.1869 -0.4202
  285TIP3    H1  800   0.734   7.769   1.159 -2.8525 -0.6273  0.2106
  285TIP3    H2  801   0.726   7.859   1.037  0.5562 -0.9793 -0.3650
  286TIP3   OH2  802   7.613   6.656   3.172 -0.7239 -0.5986 -0.2731
  286TIP3    H1  803   7.668   6.723   3.213 -1.2366 -0.1107 -0.3673
  286TIP3    H2  804   7.530   6.661   3.220 -1.1444 -0.3972 -1.0109
  287TIP3   OH2  805   3.587   0.180   1.945 -0.6331  0.6656  0.0556
  287TIP3    H1  806   3.668   0.186   1.894 -1.5762 -1.1574 -1.8148
  287TIP3    H2  807   3.564   0.087   1.942 -1.2562  0.6234  3.1199
  288TIP3   OH2  808   3.522   7.248   3.222  0.4895  0.1633  0.4087
  288TIP3    H1  809   3.586   7.181   3.196  0.6477  0.1912  0.7240
  288TIP3    H2  810   3.526   7.249   3.318  0.5434  0.6750  0.4044
  289TIP3   OH2  811   5.627   3.882   3.941 -0.2399  0.0073  0.6024
  289TIP3    H1  812   5.544   3.839   3.917 -1.5332  2.2157  0.8605
  289TIP3    H2  813   5.654   3.927   3.862  0.7086 -0.6260  0.5497
  290TIP3   OH2  814   8.152   7.674   6.426 -0.4510 -0.0851  0.0182
  290TIP3    H1  815   8.058   7.667   6.443 -0.1404 -0.3476  1.7789
  290TIP3    H2  816   8.185   7.728   6.497  0.5201  1.4101 -1.4813
  291TIP3   OH2  817   2.880   7.438   3.805 -0.1345  0.4312  0.1740
  291TIP3    H1  818   2.927   7.508   3.760  2.4466 -1.0331  0.4121
  291TIP3    H2  819   2.788   7.455   3.787  0.3695  3.9349  0.3630
  292TIP3   OH2  820   3.992   5.135   0.436 -0.2393 -0.0856 -0.1479
  292TIP3    H1  821   3.993   5.227   0.411 -0.4989  0.0641  0.3663
  292TIP3    H2  822   3.960   5.135   0.526  1.1340 -0.5695  0.3615
  293TIP3   OH2  823   6.406   5.266   6.120 -0.2404  0.3715  0.4126
  293TIP3    H1  824   6.363   5.344   6.084  1.5715  2.1019  1.7987
  293TIP3    H2  825   6.358   5.248   6.201 -0.1797  0.5259  0.4836
  294TIP3   OH2  826   3.174   1.710   4.761  0.3156 -0.3980 -0.0728
  294TIP3    H1  827   3.157   1.742   4.673 -0.5906 -2.2278 -0.5985
  294TIP3    H2  828   3.104   1.747   4.815  0.6063  0.3417 -0.1943
  295TIP3   OH2  829   4.101   1.126   2.228 -0.4173 -0.1888  0.0001
  295TIP3    H1  830   4.176   1.171   2.189 -1.2123  1.3926  0.2173
  295TIP3    H2  831   4.130   1.105   2.317 -0.4231  0.9792  0.2959
  296TIP3   OH2  832   2.093   1.978   2.906  0.7996 -0.3772  0.1483
  296TIP3    H1  833   2.140   2.034   2.844 -0.7269 -1.1671 -1.7967
  296TIP3    H2  834   2.014   2.028   2.928 -0.6019 -1.6912 -1.6416
  297TIP3   OH2  835   7.204   0.960   0.537  0.2114 -0.2450  1.0251
  297TIP3    H1  836   7.264   0.917   0.598  0.7156 -1.5045 -0.3178
  297TIP3    H2  837   7.240   1.047   0.525 -0.5049  0.4622  3.3394
  298TIP3   OH2  838   6.074   4.193   1.383 -0.0268 -0.0379 -0.0797
  298TIP3    H1  839   6.157   4.229   1.353 -0.0865  0.3141  0.1774
  298TIP3    H2  840   6.077   4.201   1.478 -0.4498  0.1839 -0.0821
  299TIP3   OH2  841   5.865   4.642   4.596  0.1032 -0.1503 -0.6719
  299TIP3    H1  842   5.822   4.683   4.671  1.1233 -2.1230  1.0850
  299TIP3    H2  843   5.886   4.715   4.538  0.9637  1.7341  1.8245
  300TIP3   OH2  844   1.107   4.772   0.165 -0.7446  0.0262  0.0786
  300TIP3    H1  845   1.065   4.691   0.194 -3.5973  1.5058  0.3703
  300TIP3    H2  846   1.112   4.826   0.244 -0.1689  0.6974 -0.4059
  301TIP3   OH2  847   0.064   3.109   3.585  0.0720  0.0665  0.4999
  301TIP3    H1  848   0.047   3.018   3.560  2.7819 -0.0440 -1.4517
  301TIP3    H2  849   0.116   3.102   3.665 -1.3481  0.0442  1.4583
  302TIP3   OH2  850   2.046   0.162   0.016  0.2826 -0.1818 -0.2823
  302TIP3    H1  851   2.062   0.126   0.103  0.9014 -1.9389 -1.0753
  302TIP3    H2  852   2.062   0.256   0.025 -2.7794  0.2933  2.2481
  303TIP3   OH2  853   2.148   4.665   3.900 -0.3684  0.7598  0.2345
  303TIP3    H1  854   2.173   4.577   3.926  0.6232  1.0767  0.4123
  303TIP3    H2  855   2.097   4.699   3.974 -0.1638  0.5769  0.4602
  304TIP3   OH2  856   4.398   1.841   5.649  0.0763  0.0473 -0.0430
  304TIP3    H1  857   4.377   1.749   5.633 -0.9134  0.3483 -0.5880
  304TIP3    H2  858   4.313   1.886   5.645  0.6968  1.1976 -1.3840
  305TIP3   OH2  859   1.766   1.870   6.000  0.0530  0.0592 -0.5138
  305TIP3    H1  860   1.722   1.932   5.942 -0.1819  0.3183 -0.0590
  305TIP3    H2  861   1.723   1.786   5.983  1.0120 -0.2014 -1.8361
  306TIP3   OH2  862   7.354   2.783   3.952 -0.5174 -0.0469  0.1320
  306TIP3    H1  863   7.407   2.705   3.943 -0.0019  0.3180 -0.0385
  306TIP3    H2  864   7.400   2.850   3.902 -0.4399  0.6191  1.0602
  307TIP3   OH2  865   8.295   2.821   3.496  0.0626  0.0178  0.4895
  307TIP3    H1  866   8.317   2.862   3.412  0.9029 -0.1822  0.6137
  307TIP3    H2  867   8.199   2.827   3.500  0.0306  0.2382 -0.3743
  308TIP3   OH2  868   2.284   3.830   0.082  0.0610 -0.2512 -0.0467
  308TIP3    H1  869   2.316   3.747   0.118 -0.4005  0.6333  2.6655
  308TIP3    H2  870   2.346   3.895   0.115 -0.1946  0.6318 -1.2464
  309TIP3   OH2  871   2.456   5.045   4.474 -0.2750  0.0965 -0.3435
  309TIP3    H1  872   2.530   4.987   4.493  0.2506  0.0570 -2.3295
  309TIP3    H2  873   2.385   4.987   4.448 -0.6399  0.2120  0.3590
  310TIP3   OH2  874   5.777   6.565   6.038 -0.2372  0.3536 -0.0710
  310TIP3    H1  875   5.786   6.473   6.063  0.1914  0.7882  1.5014
  310TIP3    H2  876   5.766   6.612   6.121  2.0013  1.9932 -0.5818
  311TIP3   OH2  877   2.813   0.426   2.002  0.1109 -0.4166  0.1253
  311TIP3    H1  878   2.827   0.520   2.000 -1.0052 -0.1848  1.4980
  311TIP3    H2  879   2.723   0.415   1.970 -0.8778 -0.6776  2.7231
  312TIP3   OH2  880   1.040   3.931   6.095  0.1857 -0.2452 -0.0324
  312TIP3    H1  881   0.959   3.976   6.072  0.0094 -0.2523  0.5397
  312TIP3    H2  882   1.034   3.919   6.190  1.2243  0.4934  0.1530
  313TIP3   OH2  883   0.578   3.476   5.937  1.0743 -0.4358  0.1322
  313TIP3    H1  884   0.498   3.519   5.970  1.2710  0.2865 -0.3078
  313TIP3    H2  885   0.614   3.431   6.014  0.9993  0.4121  0.6832
  314TIP3   OH2  886   7.818   2.974   2.745 -0.0154  0.2672  0.0481
  314TIP3    H1  887   7.908   2.940   2.747 -0.5249 -1.0775  0.6442
  314TIP3    H2  888   7.775   2.924   2.675 -1.0733 -1.1808  1.6562
  315TIP3   OH2  889   5.459   1.975   4.010 -0.2924 -0.0424 -0.0150
  315TIP3    H1  890   5.435   2.059   4.049 -0.9444  0.0890 -0.6831
  315TIP3    H2  891   5.402   1.912   4.054  0.6793 -0.2567  0.9914
  316TIP3   OH2  892   0.582   4.405   3.610 -0.1828  0.3896  0.3594
  316TIP3    H1  893   0.578   4.374   3.519 -1.5957  0.8012  0.2525
  316TIP3    H2  894   0.608   4.328   3.660 -0.3044 -0.0898 -0.2912
  317TIP3   OH2  895   1.822   2.540   0.555  0.9614  0.0768 -0.0622
  317TIP3    H1  896   1.808   2.573   0.644 -0.5675 -1.9059  0.5024
  317TIP3    H2  897   1.897   2.589   0.522  1.4280  1.0032  2.2434
  318TIP3   OH2  898   6.268   4.682   1.749  0.1838 -0.3353  0.6903
  318TIP3    H1  899   6.257   4.638   1.833 -0.0988 -1.4206  0.1067
  318TIP3    H2  900   6.180   4.714   1.727 -0.2503 -2.0450 -0.2341
  319TIP3   OH2  901   2.816   6.514   3.622 -0.0304 -0.5630 -0.3903
  319TIP3    H1  902   2.841   6.482   3.709  0.7236 -0.5457 -0.5896
  319TIP3    H2  903   2.814   6.435   3.568 -0.5020 -0.5735 -0.3625
  320TIP3   OH2  904   2.789   3.329   4.391 -0.3998  0.5077 -0.4669
  320TIP3    H1  905   2.761   3.361   4.477 -0.8997  0.0104 -0.4347
  320TIP3    H2  906   2.794   3.234   4.401  1.9553  0.5996 -0.3029
  321TIP3   OH2  907   0.301   2.818   5.133  0.3226  0.0906 -0.4670
  321TIP3    H1  908   0.232   2.883   5.148 -0.9358 -1.2744 -0.1175
  321TIP3    H2  909   0.368   2.837   5.199 -1.1978 -0.5101  1.3172
  322TIP3   OH2  910   1.977   5.080   3.906 -0.3968  0.7782 -0.7846
  322TIP3    H1  911   2.040   5.039   3.846  0.4802  0.1207  0.5579
  322TIP3    H2  912   2.000   5.047   3.992 -2.3100  0.8914 -0.1859
  323TIP3   OH2  913   3.868   0.440   6.744 -0.4696  0.3521 -0.5488
  323TIP3    H1  914   3.855   0.521   6.695 -3.2019 -0.0720 -0.6996
  323TIP3    H2  915   3.942   0.397   6.701  0.3554  2.2409 -1.1277
  324TIP3   OH2  916   7.291   2.234   6.389  0.6567 -0.3258  0.4934
  324TIP3    H1  917   7.370   2.287   6.401  1.1394 -1.0728  0.7118
  324TIP3    H2  918   7.318   2.167   6.326 -0.3427  0.4888 -0.8363
  325TIP3   OH2  919   1.244   7.085   3.918  0.0141 -0.2173 -0.1429
  325TIP3    H1  920   1.218   6.994   3.925 -0.7402 -0.0286 -0.4537
  325TIP3    H2  921   1.164   7.135   3.930  0.6814  0.4846  1.8151
  326TIP3   OH2  922   1.473   0.978   2.086  0.3418  0.6078 -0.0977
  326TIP3    H1  923   1.456   0.895   2.131 -3.0857  0.8928 -0.5555
  326TIP3    H2  924   1.481   0.954   1.994  2.5048  0.5447  0.0524
  327TIP3   OH2  925   3.454   3.771   4.540 -0.3539  0.5130  0.3018
  327TIP3    H1  926   3.404   3.757   4.621  1.2412 -0.3344  1.1984
  327TIP3    H2  927   3.537   3.809   4.569 -0.2665  1.4642 -1.0986
  328TIP3   OH2  928   1.310   5.320   3.422 -0.4278  0.0450 -0.5833
  328TIP3    H1  929   1.260   5.249   3.463  0.2027  1.3408  2.7094
  328TIP3    H2  930   1.397   5.313   3.461 -0.6146  3.1469  0.6236
  329TIP3   OH2  931   2.281   6.515   2.999  0.7553 -0.0282  0.5131
  329TIP3    H1  932   2.312   6.595   2.955 -2.3434  0.5393 -0.9599
  329TIP3    H2  933   2.241   6.546   3.080  0.2118 -0.1681  0.3017
  330TIP3   OH2  934   2.422   4.068   4.235 -0.0375 -0.0086  0.6112
  330TIP3    H1  935   2.338   4.068   4.281 -0.0731  0.9726  0.5518
  330TIP3    H2  936   2.480   4.119   4.290  0.4606 -0.4686  0.5228
  331TIP3   OH2  937   2.271   0.393   0.506 -0.3877  0.0583  0.2084
  331TIP3    H1  938   2.349   0.441   0.537 -0.3711 -0.6269  1.2929
  331TIP3    H2  939   2.277   0.396   0.411 -0.1731  1.8490  0.2461
  332TIP3   OH2  940   5.062   4.169   5.732  0.6827 -0.2544  0.4532
  332TIP3    H1  941   5.150   4.170   5.695  0.4650  0.5827 -0.1000
  332TIP3    H2  942   5.004   4.174   5.655  0.1705 -0.3017  0.8279
  333TIP3   OH2  943   4.794   7.662   2.149 -0.0122  0.3233  0.1106
  333TIP3    H1  944   4.751   7.695   2.228 -0.7487 -0.3376 -0.0063
  333TIP3    H2  945   4.803   7.739   2.093  1.1453  0.9374  1.1038
  334TIP3   OH2  946   3.952   0.496   1.754 -0.4334  0.0316  0.3454
  334TIP3    H1  947   3.904   0.453   1.683 -0.1860 -1.6617  1.1637
  334TIP3    H2  948   3.887   0.510   1.822 -1.0221  2.9588 -0.6238
  335TIP3   OH2  949   7.142   7.591   3.911  0.7349 -0.2080 -0.1182
  335TIP3    H1  950   7.155   7.676   3.869 -1.1511  0.1150 -0.1269
  335TIP3    H2  951   7.117   7.532   3.840  0.2243 -0.3210  0.1497
  336TIP3   OH2  952   2.325   2.871   5.857  0.4193 -0.0297 -0.1884
  336TIP3    H1  953   2.338   2.787   5.900 -0.8740  0.4348  1.1819
  336TIP3    H2  954   2.363   2.936   5.917  0.3088  0.4787 -0.6562
  337TIP3   OH2  955   7.619   0.920   2.676 -0.2204  0.5541 -0.6290
  337TIP3    H1  956   7.531   0.916   2.714  0.7875  0.3322  1.8387
  337TIP3    H2  957   7.672   0.864   2.732  2.1317  3.0448 -0.1971
  338TIP3   OH2  958   0.644   0.092   6.249 -0.4593 -0.3000 -0.1653
  338TIP3    H1  959   0.722   0.040   6.231 -0.1219 -0.2160  0.9427
  338TIP3    H2  960   0.573   0.046   6.205  0.1734 -0.5234 -0.9677
  339TIP3   OH2  961   3.639   7.709   4.723 -0.1907 -0.8457 -0.4093
  339TIP3    H1  962   3.690   7.778   4.765 -0.8243 -0.4348 -0.3015
  339TIP3    H2  963   3.566   7.755   4.681  0.4725 -1.2293 -2.0543
  340TIP3   OH2  964   1.934   4.021   4.846 -0.0465 -0.2706  0.5664
  340TIP3    H1  965   1.958   3.947   4.790 -1.3922 -0.7975  0.6532
  340TIP3    H2  966   1.852   3.994   4.887 -0.4448  1.1813  0.7698
  341TIP3   OH2  967   0.991   4.778   1.033 -0.1731  0.1606 -0.2707
  341TIP3    H1  968   0.988   4.687   1.002 -2.2404 -0.6193  1.8687
  341TIP3    H2  969   0.912   4.787   1.086  0.5309  2.9124  0.4448
  342TIP3   OH2  970   5.456   4.521   1.446  0.2224 -0.1170 -0.1445
  342TIP3    H1  971   5.402   4.595   1.473  0.8885  0.2338  0.2455
  342TIP3    H2  972   5.423   4.447   1.496  1.8684  0.6441  2.2328
  343TIP3   OH2  973   3.674   6.013   0.364  0.2252  0.0510  0.4735
  343TIP3    H1  974   3.721   5.993   0.284 -1.2433 -1.2919 -0.1105
  343TIP3    H2  975   3.686   6.108   0.376 -0.5100  0.5418 -2.0232
  344TIP3   OH2  976   0.530   0.175   0.864 -0.0438  0.3745  0.2487
  344TIP3    H1  977   0.583   0.222   0.799  0.1308  0.3423  0.3679
  344TIP3    H2  978   0.486   0.107   0.814 -0.7631  1.0341 -0.0360
  345TIP3   OH2  979   0.408   2.604   1.045  0.7118  0.2518 -0.1327
  345TIP3    H1  980   0.338   2.618   0.982  0.3026  1.3447  0.5380
  345TIP3    H2  981   0.388   2.519   1.084  0.8662 -0.3483 -1.3079
  346TIP3   OH2  982   0.559   4.502   1.859 -0.0766 -0.2947 -0.0844
  346TIP3    H1  983   0.565   4.425   1.915 -0.8910 -0.0800  0.3309
  346TIP3    H2  984   0.468   4.503   1.829  0.3754 -0.4710 -1.5319
  347TIP3   OH2  985   2.195   7.026   2.265 -0.3778  0.2564 -0.0410
  347TIP3    H1  986   2.262   7.080   2.224 -1.3350  1.1285 -0.5269
  347TIP3    H2  987   2.145   7.088   2.318 -0.8143 -0.3633  0.2748
  348TIP3   OH2  988   1.879   1.451   2.590  0.0938  0.1556  0.2447
  348TIP3    H1  989   1.933   1.524   2.619  0.2345  0.3007 -0.3628
  348TIP3    H2  990   1.910   1.376   2.640 -0.4752  0.6366  1.3364
  349TIP3   OH2  991   0.581   0.252   1.428  0.0769 -0.8527 -0.5639
  349TIP3    H1  992   0.614   0.243   1.338 -0.0433 -2.2553 -0.4900
  349TIP3    H2  993   0.525   0.176   1.441 -0.4982 -0.2756  0.4645
  350TIP3   OH2  994   4.136   7.426   5.352  0.0515  0.1691  0.1436
  350TIP3    H1  995   4.100   7.356   5.297 -0.8881  0.4875  0.3359
  350TIP3    H2  996   4.059   7.462   5.397  0.4107  1.8172 -0.5038
  351TIP3   OH2  997   3.705   0.019   5.591  0.1846  0.5667  0.4911
  351TIP3    H1  998   3.714   0.107   5.627  0.1194 -0.6687  3.8713
  351TIP3    H2  999   3.620  -0.012   5.624  1.2791 -1.5777  1.4676
  352TIP3   OH2 1000   3.843   1.130   3.271  0.1194  0.6429 -0.3127
  352TIP3    H1 1001   3.859   1.075   3.194  1.7781 -0.7899  0.9839
  352TIP3    H2 1002   3.915   1.110   3.330 -2.2592 -0.0665  2.6061
  353TIP3   OH2 1003   2.557   5.208   1.165  0.1654 -0.7057  0.1589
  353TIP3    H1 1004   2.611   5.135   1.135 -1.3309 -1.3809 -0.9706
  353TIP3    H2 1005   2.536   5.185   1.256 -0.1025 -1.6000 -0.1106
  354TIP3   OH2 1006   1.647   0.498   0.083  0.4481  0.2365  0.7603
  354TIP3    H1 1007   1.571   0.442   0.099  1.0921 -0.7958  0.3047
  354TIP3    H2 1008   1.665   0.487  -0.011  0.7517  0.9995  0.7228
  355TIP3   OH2 1009   5.089   1.939   0.925  0.0021  0.5279  0.1824
  355TIP3    H1 1010   5.138   1.930   0.843  1.1567  3.6432  0.3708
  355TIP3    H2 1011   5.026   2.009   0.907 -1.5636 -0.5646  1.2283
  356TIP3   OH2 1012   2.271   3.928   6.200  0.1317 -0.4705  0.5104
  356TIP3    H1 1013   2.328   3.963   6.269 -0.2045  0.6404  0.2422
  356TIP3    H2 1014   2.183   3.952   6.228 -0.0102 -0.0623 -0.2631
  357TIP3   OH2 1015   1.818   6.149   6.612  0.6683  0.0127 -0.0630
  357TIP3    H1 1016   1.825   6.105   6.697 -0.0336  1.7477  0.9633
  357TIP3    H2 1017   1.755   6.097   6.563  0.0789 -0.2924  0.9880
  358TIP3   OH2 1018   0.219   6.472   1.914 -0.0353 -0.1040  0.7002
  358TIP3    H1 1019   0.177   6.508   1.835 -3.0716  0.2757  2.3012
  358TIP3    H2 1020   0.295   6.528   1.929 -0.1740  0.6591 -1.1968
  359TIP3   OH2 1021   6.543   6.979   2.790 -0.1135 -0.7774 -0.4322
  359TIP3    H1 1022   6.484   7.054   2.787  1.8345  0.8670 -0.0847
  359TIP3    H2 1023   6.502   6.913   2.734 -1.7500  0.6566 -0.9950
  360TIP3   OH2 1024   8.236   0.932   4.513  0.5613 -0.2036 -0.3559
  360TIP3    H1 1025   8.238   0.882   4.431  0.3742  0.7892 -0.9853
  360TIP3    H2 1026   8.143   0.942   4.533  0.5279  1.1692 -1.0642
  361TIP3   OH2 1027   6.476   1.376   6.176  0.6269  0.1859 -0.0487
  361TIP3    H1 1028   6.439   1.413   6.256  0.5227 -0.7201  0.3394
  361TIP3    H2 1029   6.448   1.435   6.106 -0.6143  0.1272  0.3811
  362TIP3   OH2 1030   1.234   6.502   2.897  0.1979 -0.1374  0.2660
  362TIP3    H1 1031   1.201   6.456   2.820  1.6978  1.8609 -1.6958
  362TIP3    H2 1032   1.199   6.591   2.889  2.7060  0.9309  0.2317
  363TIP3   OH2 1033   6.344   3.896   3.017 -0.7922 -0.0175  0.0104
  363TIP3    H1 1034   6.437   3.872   3.019 -0.6322  0.4443 -1.0318
  363TIP3    H2 1035   6.331   3.934   2.930 -1.8613  0.3294  0.3035
  364TIP3   OH2 1036   0.462   7.525   2.724  0.8366  0.2141  0.0448
  364TIP3    H1 1037   0.427   7.568   2.802  1.5722  2.0828 -0.6023
  364TIP3    H2 1038   0.476   7.596   2.661  0.6746 -1.1760 -1.6597
  365TIP3   OH2 1039   3.274   6.646   3.617  0.3475 -0.6693  0.0240
  365TIP3    H1 1040   3.279   6.720   3.677 -1.0824 -1.4428  1.1800
  365TIP3    H2 1041   3.285   6.684   3.530 -1.9488  1.1913  0.4415
  366TIP3   OH2 1042   5.482   0.359   0.746  0.0219 -0.1441  0.7735
  366TIP3    H1 1043   5.475   0.327   0.656  2.3956  1.8368 -0.2225
  366TIP3    H2 1044   5.574   0.344   0.770 -0.4407 -0.1645  2.7185
  367TIP3   OH2 1045   1.127   6.853   3.550 -0.2008  0.2932 -0.4392
  367TIP3    H1 1046   1.160   6.885   3.634  0.6834 -0.1549 -0.6072
  367TIP3    H2 1047   1.052   6.799   3.573 -0.9445  1.4452 -0.0608
  368TIP3   OH2 1048   6.940   6.142   0.987 -0.0440 -0.1356  0.4986
  368TIP3    H1 1049   7.022   6.094   1.003 -0.5080 -0.3180  2.6327
  368TIP3    H2 1050   6.883   6.115   1.059 -0.7760  2.6542  1.0572
  369TIP3   OH2 1051   8.036   0.050   6.059  0.0175 -0.0483  0.0307
  369TIP3    H1 1052   8.031   0.054   5.963 -1.0772 -2.4380 -0.0839
  369TIP3    H2 1053   7.994   0.131   6.088 -0.3982  0.3236 -1.4981
  370TIP3   OH2 1054   5.704   5.907   0.581  0.4173 -0.5475 -0.3204
  370TIP3    H1 1055   5.625   5.921   0.529 -0.3590  0.6545  1.1053
  370TIP3    H2 1056   5.738   5.995   0.596  0.5442 -0.8459  1.2891
  371TIP3   OH2 1057   7.704   7.181   5.892 -0.1074 -0.1060 -0.0486
  371TIP3    H1 1058   7.674   7.137   5.812 -3.3824 -1.2076  1.6080
  371TIP3    H2 1059   7.706   7.274   5.868  0.5007 -0.5249 -1.7936
  372TIP3   OH2 1060   1.068   5.947   4.724 -0.2731  0.0016 -0.1193
  372TIP3    H1 1061   0.996   5.951   4.787 -0.8263 -0.3127 -0.7182
  372TIP3    H2 1062   1.059   5.861   4.682  0.1753  0.1406 -0.5108
  373TIP3   OH2 1063   4.424   4.741   3.205  0.5456 -0.2519 -0.1631
  373TIP3    H1 1064   4.341   4.757   3.251  0.6218 -2.5386  0.8948
  373TIP3    H2 1065   4.456   4.829   3.183 -0.9210  0.8080  1.6105
  374TIP3   OH2 1066   0.128   4.517   1.530  0.2080 -0.0884 -0.4864
  374TIP3    H1 1067   0.073   4.594   1.545 -0.5405 -1.0673  2.4280
  374TIP3    H2 1068   0.217   4.547   1.544 -0.0390  0.3626  0.1584
  375TIP3   OH2 1069   7.788   4.040   5.327  0.2562  0.1256 -0.1372
  375TIP3    H1 1070   7.844   4.047   5.250 -1.0532  1.8413 -1.0095
  375TIP3    H2 1071   7.754   3.951   5.325  1.7938 -0.4779 -0.3928
  376TIP3   OH2 1072   7.526   3.834   0.420  0.0618 -0.7743  0.7448
  376TIP3    H1 1073   7.497   3.810   0.508 -0.4768  1.6265  1.3022
  376TIP3    H2 1074   7.620   3.852   0.429 -0.0783 -0.1150  0.9507
  377TIP3   OH2 1075   4.338   1.045   0.707 -0.4029  0.0776  0.1389
  377TIP3    H1 1076   4.295   1.026   0.623 -0.2704 -1.2858  0.3557
  377TIP3    H2 1077   4.412   0.985   0.710 -0.5509 -0.0674  1.3398
  378TIP3   OH2 1078   7.419   5.653   3.101  0.3224 -0.3591  0.5404
  378TIP3    H1 1079   7.393   5.657   3.193  0.6408 -1.1107  0.6761
  378TIP3    H2 1080   7.467   5.734   3.086 -1.6492  0.8530  0.4039
  379TIP3   OH2 1081   2.574   3.775   1.894  0.1818 -0.0475  0.5160
  379TIP3    H1 1082   2.646   3.838   1.888 -1.0464  1.8084  3.1039
  379TIP3    H2 1083   2.511   3.804   1.828  0.8614 -0.3606 -0.2805
  380TIP3   OH2 1084   5.350   1.580   4.661 -0.5490  0.8412 -0.3036
  380TIP3    H1 1085   5.432   1.549   4.699 -0.8342  0.6926  0.1934
  380TIP3    H2 1086   5.372   1.666   4.624 -0.1952  0.8400 -0.1006
  381TIP3   OH2 1087   3.834   6.784   2.631  0.0527 -0.1751  0.2239
  381TIP3    H1 1088   3.876   6.860   2.672 -0.0797 -0.6141  1.1899
  381TIP3    H2 1089   3.905   6.722   2.617 -0.0486 -0.3883  0.6380
  382TIP3   OH2 1090   0.898   4.479   4.451  0.4701 -0.1606  0.5479
  382TIP3    H1 1091   0.947   4.398   4.466  0.9963  0.4092  2.0893
  382TIP3    H2 1092   0.957   4.534   4.400  0.8684 -0.0436  1.1234
  383TIP3   OH2 1093   2.715   0.580   1.423  0.2047 -0.0415  0.0447
  383TIP3    H1 1094   2.697   0.488   1.443 -2.2062  0.6627  1.5071
  383TIP3    H2 1095   2.628   0.621   1.417  1.1873  2.0376 -1.2555
  384TIP3   OH2 1096   0.512   7.570   5.943  0.4934  0.0777  0.1887
  384TIP3    H1 1097   0.444   7.548   6.007 -0.8656  1.3504 -0.7459
  384TIP3    H2 1098   0.482   7.652   5.903  2.2408  0.3065 -0.7668
  385TIP3   OH2 1099   7.010   7.226   1.050 -0.1465 -0.2925  0.7566
  385TIP3    H1 1100   6.937   7.177   1.012 -1.3769  2.3085 -0.5004
  385TIP3    H2 1101   6.992   7.227   1.144 -1.5402 -0.0398  0.5107
  386TIP3   OH2 1102   5.139   3.032   2.040  0.1171  0.0789 -0.5986
  386TIP3    H1 1103   5.116   2.948   1.999  0.5122 -0.6972  0.6940
  386TIP3    H2 1104   5.071   3.045   2.106  1.8772 -1.0080  1.5797
  387TIP3   OH2 1105   1.153   1.461   6.801 -0.3288 -0.1444  0.5507
  387TIP3    H1 1106   1.162   1.382   6.747 -1.4486 -1.3229  2.0100
  387TIP3    H2 1107   1.119   1.528   6.742  0.1330 -0.8885 -0.5839
  388TIP3   OH2 1108   3.285   3.262   5.799  0.2498  0.3072  0.2316
  388TIP3    H1 1109   3.310   3.236   5.710  0.7785 -0.3509  0.5673
  388TIP3    H2 1110   3.192   3.283   5.792  0.0878 -0.5395 -0.3122
  389TIP3   OH2 1111   1.384   4.659   4.798  0.2334 -0.9406  0.3381
  389TIP3    H1 1112   1.451   4.660   4.730 -0.2669 -0.8943 -0.1643
  389TIP3    H2 1113   1.310   4.707   4.760  0.5407  0.5815  1.5384
  390TIP3   OH2 1114   1.103   1.505   0.988 -0.3701  0.2513 -0.3511
  390TIP3    H1 1115   1.125   1.540   0.902 -0.0815 -1.6077 -1.0779
  390TIP3    H2 1116   1.009   1.516   0.995 -0.4049  0.3678 -0.9197
  391TIP3   OH2 1117   5.549   5.128   5.225 -1.2511 -0.3550  0.9526
  391TIP3    H1 1118   5.606   5.199   5.197 -1.6215 -0.3302  0.2371
  391TIP3    H2 1119   5.475   5.172   5.267 -1.0798 -0.3556  1.2556
  392TIP3   OH2 1120   5.833   1.946   4.766 -0.0447 -0.1769  0.5596
  392TIP3    H1 1121   5.808   1.857   4.743  1.6424 -0.6179  0.3054
  392TIP3    H2 1122   5.809   1.998   4.689  1.2924 -0.8722 -0.3868
  393TIP3   OH2 1123   7.242   6.467   6.400 -0.3932 -0.3645  0.3584
  393TIP3    H1 1124   7.154   6.500   6.380 -0.2122  1.0225  1.6887
  393TIP3    H2 1125   7.238   6.444   6.493  0.2982 -1.5084  0.1154
  394TIP3   OH2 1126   3.194   5.816   6.549  0.0443  0.2167  0.5585
  394TIP3    H1 1127   3.182   5.727   6.584 -3.2658  0.4581  0.3802
  394TIP3    H2 1128   3.264   5.853   6.603 -0.2076 -1.6805  2.3500
  395TIP3   OH2 1129   3.602   7.675   1.331  0.0117  0.5036  0.3210
  395TIP3    H1 1130   3.588   7.580   1.334 -0.1655  0.5426  0.7005
  395TIP3    H2 1131   3.588   7.705   1.420  0.2836  0.8609  0.2477
  396TIP3   OH2 1132   1.845   2.736   3.566 -0.2463  0.3579 -0.2703
  396TIP3    H1 1133   1.772   2.723   3.506 -0.3903  1.4230 -0.3455
  396TIP3    H2 1134   1.912   2.674   3.537 -0.9787 -0.3837 -0.4184
  397TIP3   OH2 1135   1.169   2.536   2.429 -0.1178  0.0454 -0.3758
  397TIP3    H1 1136   1.191   2.544   2.336 -0.4114 -0.9344 -0.5363
  397TIP3    H2 1137   1.253   2.537   2.474  0.0094  0.9167 -0.6113
  398TIP3   OH2 1138   3.101   2.136   5.978  0.0100 -0.0554 -0.1979
  398TIP3    H1 1139   3.157   2.081   5.924  0.1947  0.5253 -0.6174
  398TIP3    H2 1140   3.093   2.218   5.928 -0.8284  0.0417  0.0737
  399TIP3   OH2 1141   3.058   1.270   0.849 -0.9589 -0.0207 -0.2340
  399TIP3    H1 1142   3.117   1.196   0.865 -0.9109  0.2076  0.6800
  399TIP3    H2 1143   3.017   1.287   0.934 -1.7841  0.3048 -0.6865
  400TIP3   OH2 1144   6.499   0.040   0.647  0.2958 -0.5376 -0.8131
  400TIP3    H1 1145   6.556   0.106   0.686  1.4820 -1.7662 -0.3992
  400TIP3    H2 1146   6.497  -0.031   0.710 -3.1334  0.0816  0.0286
  401TIP3   OH2 1147   1.483   4.359   5.850 -0.2575 -0.4095  0.3321
  401TIP3    H1 1148   1.410   4.355   5.913  0.8442 -0.5753  1.6577
  401TIP3    H2 1149   1.481   4.450   5.818 -1.1450 -0.4612  0.2136
  402TIP3   OH2 1150   7.530   7.666   0.199  0.2272  0.3212  0.1683
  402TIP3    H1 1151   7.511   7.738   0.260 -0.4110 -0.0430  0.4170
  402TIP3    H2 1152   7.465   7.676   0.129  1.1037  0.8729 -0.5913
  403TIP3   OH2 1153   1.174   5.537   5.295  0.3295 -0.1086 -0.6120
  403TIP3    H1 1154   1.136   5.601   5.356  0.2800 -0.3825 -0.3518
  403TIP3    H2 1155   1.178   5.456   5.346 -3.6760 -1.5439 -2.2445
  404TIP3   OH2 1156   3.386   2.230   3.743  0.2981 -0.0545  0.0695
  404TIP3    H1 1157   3.474   2.191   3.743  0.1957 -0.2892  0.7398
  404TIP3    H2 1158   3.373   2.258   3.652  1.8293  1.7464  0.3365
  405TIP3   OH2 1159   3.973   2.938   1.277  0.2255 -0.0862  0.5264
  405TIP3    H1 1160   3.899   2.893   1.238  0.0765  1.7798 -1.5171
  405TIP3    H2 1161   3.960   3.031   1.256  2.6553  0.4351  0.8970
  406TIP3   OH2 1162   7.193   3.084   6.090  0.2882  0.1881 -0.4412
  406TIP3    H1 1163   7.137   3.130   6.152 -0.4952  1.2309 -1.8528
  406TIP3    H2 1164   7.136   3.021   6.047  0.8004 -0.4660 -0.1773
  407TIP3   OH2 1165   6.017   6.048   4.624 -0.1362  0.1716 -0.3295
  407TIP3    H1 1166   5.927   6.025   4.646 -0.2771 -0.5986 -1.6544
  407TIP3    H2 1167   6.068   5.973   4.654  0.1276  0.7498  0.7229
  408TIP3   OH2 1168   1.613   5.979   4.156  0.0440  0.5107 -0.5059
  408TIP3    H1 1169   1.588   5.918   4.087 -0.5795 -1.8776  1.7137
  408TIP3    H2 1170   1.648   5.924   4.226  1.5889  2.9121  0.7438
  409TIP3   OH2 1171   2.093   2.590   6.508  0.0755  0.3631 -0.3233
  409TIP3    H1 1172   2.131   2.502   6.508  0.6246  0.5816  0.5900
  409TIP3    H2 1173   2.050   2.597   6.423  1.1080 -0.3293 -0.9414
  410TIP3   OH2 1174   7.106   3.225   0.759 -0.1713 -0.5443  0.1019
  410TIP3    H1 1175   7.125   3.142   0.803 -1.1463 -0.7655  0.1425
  410TIP3    H2 1176   7.039   3.266   0.813 -0.4447 -0.2118 -0.4760
  411TIP3   OH2 1177   1.209   2.802   5.066 -0.0379  0.4705 -0.2488
  411TIP3    H1 1178   1.193   2.786   5.159  1.3887 -0.2596 -0.0982
  411TIP3    H2 1179   1.304   2.800   5.057 -0.1373 -2.7617 -2.2162
  412TIP3   OH2 1180   5.730   5.839   3.135 -0.2140 -0.4341 -0.0254
  412TIP3    H1 1181   5.716   5.883   3.051  0.6552  0.5412  0.3223
  412TIP3    H2 1182   5.771   5.905   3.191 -0.4145 -1.1847  1.0545
  413TIP3   OH2 1183   7.332   3.869   5.921  0.2587  0.0208  0.1761
  413TIP3    H1 1184   7.358   3.886   5.830  1.8868  0.3843  0.6847
  413TIP3    H2 1185   7.375   3.938   5.971  1.5181 -1.6665  1.5287
  414TIP3   OH2 1186   5.918   4.467   0.781 -0.2865 -0.1717 -0.3051
  414TIP3    H1 1187   5.981   4.519   0.730  0.1262 -1.7798 -1.5006
  414TIP3    H2 1188   5.927   4.378   0.748 -2.2224 -0.7185  0.4772
  415TIP3   OH2 1189   3.920   4.758   1.870 -0.2956 -0.0788  0.0724
  415TIP3    H1 1190   3.862   4.727   1.801  0.9200  0.4395 -1.2104
  415TIP3    H2 1191   3.861   4.798   1.934 -1.4012 -0.0528 -0.9303
  416TIP3   OH2 1192   0.467   3.147   2.109  0.2291 -0.5076  0.6180
  416TIP3    H1 1193   0.550   3.159   2.062 -0.9530 -0.3033 -1.5718
  416TIP3    H2 1194   0.460   3.052   2.120  0.3543 -0.5965 -0.0103
  417TIP3   OH2 1195   1.162   5.356   4.575  0.0414 -0.1847 -0.5777
  417TIP3    H1 1196   1.080   5.328   4.534  0.5099 -1.3112 -0.7699
  417TIP3    H2 1197   1.229   5.340   4.508  0.3623  1.2165 -0.6132
  418TIP3   OH2 1198   3.006   3.866   4.834 -0.0311  0.0926 -0.4405
  418TIP3    H1 1199   2.940   3.797   4.833 -0.3102  0.3602 -0.7417
  418TIP3    H2 1200   2.956   3.948   4.834  0.2781  0.3354 -2.3956
  419TIP3   OH2 1201   6.790   0.146   6.710 -0.5996 -0.3679 -0.5692
  419TIP3    H1 1202   6.702   0.182   6.725 -0.5139 -1.1547  2.5127
  419TIP3    H2 1203   6.840   0.220   6.677 -2.1567  0.3742 -1.3921
  420TIP3   OH2 1204   7.864   0.132   4.600 -0.2732  0.8776 -0.1699
  420TIP3    H1 1205   7.895   0.223   4.594  1.1242  0.3827 -1.1350
  420TIP3    H2 1206   7.923   0.084   4.542 -0.1644 -0.8609  1.3136
  421TIP3   OH2 1207   7.093   3.470   5.021  0.5176 -0.1673  0.2447
  421TIP3    H1 1208   7.103   3.551   4.971 -1.5222 -0.3172 -0.4567
  421TIP3    H2 1209   7.010   3.480   5.067  0.9534 -1.2636  1.3161
  422TIP3   OH2 1210   2.283   6.693   3.774 -0.1488  0.3156  0.2132
  422TIP3    H1 1211   2.309   6.747   3.848  2.1279  0.7280 -0.8121
  422TIP3    H2 1212   2.361   6.640   3.754 -0.3896  0.8099 -2.3792
  423TIP3   OH2 1213   8.072   0.787   2.448 -0.0566  0.2016  0.2270
  423TIP3    H1 1214   8.005   0.730   2.410  0.4024 -0.5346  0.4889
  423TIP3    H2 1215   8.086   0.855   2.382  1.2131 -1.4183 -1.2668
  424TIP3   OH2 1216   2.037   6.571   1.856 -0.2089 -0.2511 -0.2985
  424TIP3    H1 1217   1.990   6.487   1.865  0.1730 -0.3469  1.1330
  424TIP3    H2 1218   2.129   6.547   1.861 -0.0703  0.1737 -0.7983
  425TIP3   OH2 1219   5.686   3.583   3.006  0.7021 -0.2056 -0.4547
  425TIP3    H1 1220   5.741   3.507   2.990  0.6839 -0.1049 -1.0288
  425TIP3    H2 1221   5.612   3.550   3.057  1.3251 -0.3256  0.3692
  426TIP3   OH2 1222   2.343   1.035   4.116  0.0115 -0.2841 -0.4308
  426TIP3    H1 1223   2.386   0.950   4.121 -1.7985 -1.3369 -1.8807
  426TIP3    H2 1224   2.296   1.035   4.033 -4.1364  0.0606  1.6392
  427TIP3   OH2 1225   4.233   3.421   6.278 -0.2230  0.5020  0.0085
  427TIP3    H1 1226   4.328   3.434   6.274 -0.0926 -0.1216  0.8089
  427TIP3    H2 1227   4.200   3.499   6.323 -0.2676  1.3801 -1.4659
  428TIP3   OH2 1228   7.679   2.917   5.214  0.4017 -0.0166 -0.0377
  428TIP3    H1 1229   7.693   2.839   5.161 -0.7446  0.4813 -1.1266
  428TIP3    H2 1230   7.735   2.984   5.176  1.1402 -0.2033  0.6942
  429TIP3   OH2 1231   7.357   0.306   6.529 -0.6120 -0.0600 -0.5486
  429TIP3    H1 1232   7.414   0.250   6.477 -1.3443  0.0566 -1.5116
  429TIP3    H2 1233   7.280   0.321   6.473 -1.0796  0.7051  0.2639
  430TIP3   OH2 1234   6.912   0.678   4.597 -0.4194  0.3144  0.6148
  430TIP3    H1 1235   6.990   0.622   4.597 -0.5743  0.0692 -0.7747
  430TIP3    H2 1236   6.862   0.649   4.521 -0.6410  2.1632  0.0255
  431TIP3   OH2 1237   3.990   2.662   4.692  0.0567 -0.2571 -0.5055
  431TIP3    H1 1238   3.979   2.697   4.780 -0.1850  0.4838 -0.8155
  431TIP3    H2 1239   4.027   2.575   4.704  0.5902  0.0776  0.3051
  432TIP3   OH2 1240   4.197   6.585   1.946 -0.0747 -0.0269 -0.2831
  432TIP3    H1 1241   4.141   6.540   1.882 -0.2232 -1.8085  1.0378
  432TIP3    H2 1242   4.197   6.528   2.023  1.1408  1.4261  0.8607
  433TIP3   OH2 1243   0.871   5.229   5.621 -0.2342 -0.1443 -0.4055
  433TIP3    H1 1244   0.880   5.272   5.536 -2.3006 -0.0134 -0.6123
  433TIP3    H2 1245   0.920   5.285   5.682 -0.4296  0.8966 -1.1787
  434TIP3   OH2 1246   1.100   5.105   1.100  0.4415  0.5547 -0.4245
  434TIP3    H1 1247   1.029   5.091   1.037  1.9450  1.9621 -2.5903
  434TIP3    H2 1248   1.074   5.055   1.177 -1.3521 -1.5902 -2.2696
  435TIP3   OH2 1249   2.001   2.536   1.426  0.1554  0.3240  0.3032
  435TIP3    H1 1250   2.092   2.528   1.453  0.2566  0.8618  0.1249
  435TIP3    H2 1251   1.972   2.445   1.415  1.1965  0.1380 -1.3555
  436TIP3   OH2 1252   0.345   2.791   2.839 -0.2667  0.2330  0.0396
  436TIP3    H1 1253   0.403   2.867   2.832  1.6051 -1.1002  0.0103
  436TIP3    H2 1254   0.395   2.729   2.893 -0.6172 -1.9078 -1.9398
  437TIP3   OH2 1255   3.565   0.440   6.072 -0.5473 -0.0049  0.1667
  437TIP3    H1 1256   3.473   0.430   6.094 -0.3877  1.0002  1.3814
  437TIP3    H2 1257   3.592   0.521   6.115  0.5952  0.3999 -1.2114
  438TIP3   OH2 1258   1.726   7.782   2.265 -0.6032  0.4157 -0.2713
  438TIP3    H1 1259   1.648   7.764   2.213 -0.3118  0.6772 -0.8044
  438TIP3    H2 1260   1.780   7.839   2.209 -1.6419  3.2844  1.4110
  439TIP3   OH2 1261   4.815   2.001   5.663  0.0100 -0.1980  0.3556
  439TIP3    H1 1262   4.762   1.925   5.688 -0.8741  0.3988  0.2879
  439TIP3    H2 1263   4.880   2.008   5.734 -0.0449 -0.8636  0.4876
  440TIP3   OH2 1264   7.439   6.877   2.892  0.0939  0.1933  0.6440
  440TIP3    H1 1265   7.387   6.850   2.816 -0.6679 -1.0889  1.5804
  440TIP3    H2 1266   7.373   6.900   2.959  0.6452 -2.0870  2.0775
  441TIP3   OH2 1267   5.550   2.105   2.778  0.1216  0.2572  0.3656
  441TIP3    H1 1268   5.504   2.047   2.839  0.3810 -0.7077 -0.3300
  441TIP3    H2 1269   5.623   2.140   2.829 -1.4832  2.0535  1.5788
  442TIP3   OH2 1270   3.985   4.210   6.003 -0.2777  0.4647 -0.7717
  442TIP3    H1 1271   3.953   4.223   6.093 -1.5258 -0.2326 -1.1003
  442TIP3    H2 1272   4.020   4.121   6.003 -0.4672  0.3910 -1.0363
  443TIP3   OH2 1273   2.453   2.696   6.109  0.3805  0.3902  0.6311
  443TIP3    H1 1274   2.489   2.633   6.172  2.3748  2.2066  1.4277
  443TIP3    H2 1275   2.528   2.723   6.057 -1.1056 -0.5182 -2.1629
  444TIP3   OH2 1276   6.948   5.014   5.172  0.7701  0.6230  0.6592
  444TIP3    H1 1277   6.884   4.943   5.162 -1.5569  2.5544  0.7432
  444TIP3    H2 1278   7.031   4.977   5.143 -0.2632 -2.2000  1.0162
  445TIP3   OH2 1279   3.203  -0.003   0.837 -0.0967 -0.3095 -0.1259
  445TIP3    H1 1280   3.176   0.016   0.927  0.1533  2.0009 -0.4734
  445TIP3    H2 1281   3.299  -0.007   0.841 -0.0568  0.3292 -0.3649
  446TIP3   OH2 1282   5.205   5.794   5.340  0.2430  0.0278  0.1820
  446TIP3    H1 1283   5.263   5.782   5.415  0.3502  1.7693  0.4334
  446TIP3    H2 1284   5.225   5.721   5.282 -0.7201 -2.0723  2.3432
  447TIP3   OH2 1285   4.705   6.851   0.881  0.5443 -0.1748 -0.1177
  447TIP3    H1 1286   4.646   6.917   0.844  0.9641  0.2495 -0.0371
  447TIP3    H2 1287   4.649   6.775   0.895 -0.4595  0.8688  1.8846
  448TIP3   OH2 1288   4.696   5.831   5.103 -0.5860 -0.3601 -0.6651
  448TIP3    H1 1289   4.789   5.820   5.083 -0.5507 -1.6177  0.0962
  448TIP3    H2 1290   4.655   5.845   5.018  0.1393 -1.1072 -1.1598
  449TIP3   OH2 1291   6.294   7.512   2.445 -1.0806  0.3493  0.5227
  449TIP3    H1 1292   6.330   7.508   2.534 -1.0597 -0.7515  0.4769
  449TIP3    H2 1293   6.201   7.527   2.458 -1.3211 -1.2612  0.7909
  450TIP3   OH2 1294   0.037   3.648   5.052 -0.1028 -0.9348  0.1414
  450TIP3    H1 1295  -0.048   3.622   5.017 -0.1983  0.4116 -0.6909
  450TIP3    H2 1296   0.057   3.731   5.008  0.8723 -0.3895  1.5362
  451TIP3   OH2 1297   3.508   7.498   5.164  0.6941 -0.3263 -0.7127
  451TIP3    H1 1298   3.521   7.529   5.253  0.7689  1.0867 -1.1996
  451TIP3    H2 1299   3.589   7.520   5.119  1.0182 -1.8513 -0.9272
  452TIP3   OH2 1300   5.071   1.259   0.624 -0.5342 -0.4221 -0.3321
  452TIP3    H1 1301   5.113   1.213   0.551 -0.3488 -0.5614 -0.1403
  452TIP3    H2 1302   5.021   1.329   0.583  0.0537 -0.1246 -0.5468
  453TIP3   OH2 1303   1.529   5.507   2.186  0.3057  0.0454  0.3902
  453TIP3    H1 1304   1.558   5.494   2.095  0.2585  1.7239  0.1107
  453TIP3    H2 1305   1.471   5.433   2.203 -1.9415  1.1166 -1.9292
  454TIP3   OH2 1306   7.586   7.778   6.112  0.1426 -0.6770  0.0753
  454TIP3    H1 1307   7.509   7.778   6.056  0.8968  2.8355 -1.2479
  454TIP3    H2 1308   7.658   7.756   6.054  0.8236  2.2029 -0.3234
  455TIP3   OH2 1309   5.175   3.956   2.652  0.1297  0.3119 -0.1337
  455TIP3    H1 1310   5.129   3.873   2.669  2.5225 -1.2285 -0.5943
  455TIP3    H2 1311   5.241   3.961   2.721  1.1411  0.9382 -1.1083
  456TIP3   OH2 1312   0.849   6.989   4.688 -0.1716  0.0733  0.1036
  456TIP3    H1 1313   0.768   7.012   4.644  0.1306  1.4532  0.2333
  456TIP3    H2 1314   0.821   6.951   4.771 -0.7021 -0.9052 -0.5051
  457TIP3   OH2 1315   0.519   0.571   6.267 -0.3306 -0.2190 -0.1473
  457TIP3    H1 1316   0.562   0.634   6.209 -0.5693 -0.0903 -0.1862
  457TIP3    H2 1317   0.439   0.615   6.295  0.4509  0.2644  1.3908
  458TIP3   OH2 1318   4.129   6.314   1.075 -0.2782 -0.1792 -1.3221
  458TIP3    H1 1319   4.040   6.333   1.046 -0.3860  2.4323  0.3858
  458TIP3    H2 1320   4.123   6.307   1.170  1.4038  0.7214 -1.1038
  459TIP3   OH2 1321   2.255   0.225   4.229 -0.8197  0.9790 -0.6194
  459TIP3    H1 1322   2.181   0.274   4.263 -1.4991  0.2062 -0.9362
  459TIP3    H2 1323   2.217   0.141   4.201  0.4546 -0.1645  0.8948
  460TIP3   OH2 1324   7.162   6.945   3.926 -0.3151 -0.1444  0.2647
  460TIP3    H1 1325   7.153   6.850   3.940  1.1898 -0.1876  1.1564
  460TIP3    H2 1326   7.073   6.974   3.903 -1.2115 -1.4732  1.8080
  461TIP3   OH2 1327   4.583   2.943   5.513  0.0292  0.0483  0.1779
  461TIP3    H1 1328   4.604   3.033   5.539 -0.3544 -0.0922  0.9948
  461TIP3    H2 1329   4.607   2.890   5.589 -0.4080 -0.4597 -0.0365
  462TIP3   OH2 1330   4.809   7.494   6.221 -0.4905  0.2734  0.1436
  462TIP3    H1 1331   4.747   7.423   6.201  0.4553 -0.7624  0.7869
  462TIP3    H2 1332   4.874   7.488   6.151  0.3478 -0.4067  0.9707
  463TIP3   OH2 1333   7.562   2.661   2.340 -0.1466 -0.1619 -0.9433
  463TIP3    H1 1334   7.555   2.587   2.400 -1.3260  0.2131 -0.6022
  463TIP3    H2 1335   7.521   2.630   2.259 -3.7453  1.1280  0.2030
  464TIP3   OH2 1336   4.231   6.284   0.070 -0.0321 -1.0987  0.1024
  464TIP3    H1 1337   4.243   6.253   0.160  0.8957  1.4611  0.9501
  464TIP3    H2 1338   4.320   6.284   0.033 -0.1812 -0.6360 -0.2680
  465TIP3   OH2 1339   6.271   4.177   1.597  0.1211  0.0679  0.1266
  465TIP3    H1 1340   6.247   4.228   1.674 -0.1758  1.0678 -0.5997
  465TIP3    H2 1341   6.322   4.237   1.543 -0.8234 -0.1509 -1.0739
  466TIP3   OH2 1342   5.139   7.504   5.776 -0.3512  0.6518  0.7124
  466TIP3    H1 1343   5.196   7.577   5.802  0.7138  0.2836 -0.5152
  466TIP3    H2 1344   5.119   7.520   5.684  0.0323 -0.6895  0.3768
  467TIP3   OH2 1345   2.594   0.634   2.440 -0.2383  0.3666  0.1162
  467TIP3    H1 1346   2.553   0.552   2.412  0.1890  0.0221  0.4851
  467TIP3    H2 1347   2.535   0.703   2.408  0.6557  0.0526 -2.4432
  468TIP3   OH2 1348   6.473   4.984   1.948 -0.0781  0.1232  0.0099
  468TIP3    H1 1349   6.559   4.968   1.911  0.1338 -3.6264  1.7086
  468TIP3    H2 1350   6.490   5.023   2.034 -0.2124  1.2149 -0.4428
  469TIP3   OH2 1351   1.469   2.842   6.741 -0.1591  0.4490 -0.1615
  469TIP3    H1 1352   1.516   2.840   6.825 -0.8407  0.3980  0.2293
  469TIP3    H2 1353   1.403   2.910   6.753 -1.6264 -0.9587  0.1049
  470TIP3   OH2 1354   2.438   7.540   0.626 -0.0614 -0.0123 -0.2340
  470TIP3    H1 1355   2.399   7.541   0.539 -2.8687 -0.9816  0.8840
  470TIP3    H2 1356   2.405   7.620   0.668 -0.2010 -0.4176  0.4609
  471TIP3   OH2 1357   3.342   1.836   1.024 -0.7258  0.4373 -0.1177
  471TIP3    H1 1358   3.271   1.817   0.963  0.2947 -2.1767 -0.6120
  471TIP3    H2 1359   3.321   1.786   1.103  0.7496 -0.7462 -0.4372
  472TIP3   OH2 1360   5.020   4.477   4.625 -0.3882 -0.1099 -0.3323
  472TIP3    H1 1361   5.025   4.475   4.720 -2.5743 -1.9690 -0.1615
  472TIP3    H2 1362   5.063   4.397   4.596 -1.3923 -0.5054 -0.7661
  473TIP3   OH2 1363   3.120   7.556   0.331 -0.6079  0.0451 -0.2134
  473TIP3    H1 1364   3.028   7.570   0.355 -0.5691  1.0827 -0.6005
  473TIP3    H2 1365   3.118   7.538   0.237 -0.4177 -0.0214 -0.2051
  474TIP3   OH2 1366   4.888   3.340   3.910 -0.9069 -0.2280 -0.4746
  474TIP3    H1 1367   4.972   3.358   3.952 -1.7883  1.6252  0.6168
  474TIP3    H2 1368   4.893   3.248   3.884  0.4987 -0.8632  1.8042
  475TIP3   OH2 1369   6.254   1.479   2.653 -0.2725 -0.4909  0.0681
  475TIP3    H1 1370   6.325   1.533   2.688 -1.1855  0.0872  1.1225
  475TIP3    H2 1371   6.293   1.392   2.642  1.1911  0.3178 -1.5403
  476TIP3   OH2 1372   3.763   2.738   0.925 -0.0196  0.6571 -0.1186
  476TIP3    H1 1373   3.832   2.721   0.862  0.2755 -0.4710  0.4877
  476TIP3    H2 1374   3.731   2.825   0.902  1.3456  1.0507 -0.6353
  477TIP3   OH2 1375   0.951   6.133   6.673 -0.0270  0.2874 -0.4244
  477TIP3    H1 1376   1.033   6.176   6.696  0.1359  0.6089 -1.5196
  477TIP3    H2 1377   0.968   6.097   6.585  0.1263 -2.7007  0.6985
  478TIP3   OH2 1378   2.988   1.409   3.310 -0.6106 -0.4337 -0.4465
  478TIP3    H1 1379   2.999   1.417   3.405  0.6762 -1.4004 -0.4883
  478TIP3    H2 1380   2.938   1.487   3.285  0.4766  0.7138  0.8033
  479TIP3   OH2 1381   3.906   3.674   5.356  0.5694  0.4837  0.4238
  479TIP3    H1 1382   3.888   3.623   5.277  0.5178  1.3114 -0.1119
  479TIP3    H2 1383   3.997   3.702   5.345  1.2572 -1.1411  1.6648
  480TIP3   OH2 1384   0.651   5.550   3.389  0.7518  0.1337  0.7206
  480TIP3    H1 1385   0.725   5.489   3.389 -0.6897 -1.7467 -1.0382
  480TIP3    H2 1386   0.618   5.548   3.479  1.5842 -0.6058  1.0197
  481TIP3   OH2 1387   0.196   3.413   5.116  0.5167 -0.0782  0.1567
  481TIP3    H1 1388   0.134   3.486   5.117 -0.6502 -1.0208 -0.1983
  481TIP3    H2 1389   0.147   3.341   5.075  0.2903 -2.1648  3.6782
  482TIP3   OH2 1390   0.296   3.856   1.323 -0.0303 -0.3134 -0.1089
  482TIP3    H1 1391   0.256   3.921   1.381 -1.2315 -0.8153 -0.3379
  482TIP3    H2 1392   0.355   3.807   1.380 -2.4044 -1.8757  1.1831
  483TIP3   OH2 1393   2.024   5.842   4.799  0.5318 -0.2565  0.2104
  483TIP3    H1 1394   2.031   5.845   4.704  0.7197  0.4670  0.2400
  483TIP3    H2 1395   2.052   5.929   4.828 -0.9027  0.0183  0.8387
  484TIP3   OH2 1396   6.191   2.046   3.965 -0.1031  0.7645 -0.2303
  484TIP3    H1 1397   6.097   2.027   3.968 -0.2064  1.1417 -0.8417
  484TIP3    H2 1398   6.196   2.138   3.939  0.4029  1.3424  1.7615
  485TIP3   OH2 1399   1.931   7.236   1.674  1.2461 -0.4686  0.0899
  485TIP3    H1 1400   2.015   7.282   1.675  1.4036 -0.7521  0.2920
  485TIP3    H2 1401   1.868   7.301   1.643  1.0827  0.5316  2.3546
  486TIP3   OH2 1402  -0.003   3.814   0.530  0.1124 -0.5862  0.4694
  486TIP3    H1 1403   0.062   3.823   0.461  0.3257  0.5391  0.7956
  486TIP3    H2 1404   0.032   3.866   0.603 -0.9298 -0.3299  0.8056
  487TIP3   OH2 1405   2.595   4.543   6.258  0.4850 -0.4351  0.7465
  487TIP3    H1 1406   2.513   4.497   6.274 -0.7108  0.8043 -1.3583
  487TIP3    H2 1407   2.651   4.478   6.215  0.6666 -1.2933  2.2139
  488TIP3   OH2 1408   4.301   1.284   5.742 -0.5573  0.6339  0.1035
  488TIP3    H1 1409   4.232   1.228   5.778 -0.1123  0.4525  0.6926
  488TIP3    H2 1410   4.275   1.372   5.768  0.3702  0.4119  1.9887
  489TIP3   OH2 1411   0.763   6.047   3.422 -0.3716 -0.2010  0.3015
  489TIP3    H1 1412   0.711   6.109   3.371  0.3791 -1.7275 -2.4602
  489TIP3    H2 1413   0.806   5.992   3.358  1.8956 -1.2880  2.5710
  490TIP3   OH2 1414   5.000   6.628   5.361 -0.5771 -0.6211  0.0526
  490TIP3    H1 1415   5.088   6.663   5.353 -0.8985  0.0207 -0.9888
  490TIP3    H2 1416   4.966   6.665   5.443 -0.4343  0.4569 -0.3515
  491TIP3   OH2 1417   0.697   0.056   6.778  0.2763  0.1344  0.0526
  491TIP3    H1 1418   0.680   0.074   6.685 -0.2948  0.0968  0.1457
  491TIP3    H2 1419   0.734  -0.033   6.778  0.5629  0.2498 -0.1621
  492TIP3   OH2 1420   7.324   7.787   5.904  0.3874 -0.6939 -0.1961
  492TIP3    H1 1421   7.292   7.874   5.882  1.6649 -0.6677 -2.2093
  492TIP3    H2 1422   7.252   7.746   5.951 -0.3823  1.2979  0.4464
  493TIP3   OH2 1423   6.620   2.544   6.673 -0.8763  1.2676 -0.2635
  493TIP3    H1 1424   6.632   2.636   6.696  0.1746  1.0018  0.2968
  493TIP3    H2 1425   6.623   2.541   6.578  0.2907  1.6617 -0.2470
  494TIP3   OH2 1426   3.381   2.007   2.143 -0.3318 -1.1885  0.2813
  494TIP3    H1 1427   3.407   1.920   2.114 -0.9031 -0.9621 -0.9661
  494TIP3    H2 1428   3.460   2.061   2.131 -0.4174 -1.2088 -0.3928
  495TIP3   OH2 1429   3.050   3.705   4.244  0.5251  0.0097 -0.0755
  495TIP3    H1 1430   3.021   3.752   4.323 -0.9023 -0.6770 -0.1566
  495TIP3    H2 1431   3.042   3.612   4.267 -1.0857 -0.2224 -1.3885
  496TIP3   OH2 1432   5.906   4.948   3.914  0.5121  0.4407  0.0069
  496TIP3    H1 1433   5.870   4.910   3.994 -0.2451  2.2245  0.5584
  496TIP3    H2 1434   5.851   4.913   3.844 -0.3094  0.6859  0.5174
  497TIP3   OH2 1435   7.893   0.743   4.782  0.4760 -0.2772  0.1534
  497TIP3    H1 1436   7.863   0.671   4.837  0.1968  0.3186  0.8060
  497TIP3    H2 1437   7.902   0.705   4.695  0.3223 -1.0922  0.4815
  498TIP3   OH2 1438   6.415   6.274   4.576 -0.1803  0.2985  0.0814
  498TIP3    H1 1439   6.335   6.279   4.523 -1.2815 -0.0892  1.6252
  498TIP3    H2 1440   6.392   6.318   4.658  1.0786 -0.1450  0.7004
  499TIP3   OH2 1441   0.782   7.777   5.988 -0.2091 -0.1166  0.2358
  499TIP3    H1 1442   0.858   7.725   5.965 -1.0095 -0.5889 -1.5306
  499TIP3    H2 1443   0.817   7.863   6.011  0.8584 -0.3918 -0.3300
  500TIP3   OH2 1444   2.625   4.839   4.037 -0.4472  0.4252 -0.4182
  500TIP3    H1 1445   2.628   4.859   3.944 -1.0039 -2.3799 -1.1430
  500TIP3    H2 1446   2.684   4.765   4.048  0.5012  1.4013  1.7286
  501TIP3   OH2 1447   0.435   7.393   3.047 -0.5603 -0.5678  0.3348
  501TIP3    H1 1448   0.528   7.374   3.036 -0.3855  0.7214 -0.6568
  501TIP3    H2 1449   0.400   7.316   3.092  0.6203 -1.9584 -0.9973
  502TIP3   OH2 1450   3.789   7.611   3.345  0.2159  0.3108 -0.5597
  502TIP3    H1 1451   3.764   7.525   3.381 -0.4115  0.8186  0.2596
  502TIP3    H2 1452   3.799   7.595   3.252  2.1843 -1.1229 -0.1673
  503TIP3   OH2 1453   2.405   1.275   0.311 -0.4086 -0.4565 -0.0980
  503TIP3    H1 1454   2.496   1.250   0.292 -0.3904  0.6963 -1.6844
  503TIP3    H2 1455   2.366   1.291   0.226 -1.2972  1.7688  0.6483
  504TIP3   OH2 1456   3.006   7.144   2.765  0.3976  0.3499 -0.0151
  504TIP3    H1 1457   3.079   7.115   2.711 -0.1140  0.3376 -0.7123
  504TIP3    H2 1458   2.964   7.213   2.715  1.6119  2.4115  1.6377
  505TIP3   OH2 1459   2.665   5.121   6.389 -0.2605 -0.1549 -0.2618
  505TIP3    H1 1460   2.754   5.103   6.417 -0.5261 -1.3846 -0.1407
  505TIP3    H2 1461   2.673   5.153   6.299  0.3766  1.0180  0.1858
  506TIP3   OH2 1462   4.568   0.147   5.432  0.1228  0.0668 -0.5555
  506TIP3    H1 1463   4.498   0.093   5.395 -0.0397 -0.5228  0.5471
  506TIP3    H2 1464   4.649   0.104   5.404 -0.0037 -0.7777  0.2922
  507TIP3   OH2 1465   6.370   3.910   3.284 -0.4398  0.4236  0.2839
  507TIP3    H1 1466   6.319   3.846   3.335  0.0648 -0.0746  0.1745
  507TIP3    H2 1467   6.348   3.891   3.193 -1.6780  1.5978  0.3002
  508TIP3   OH2 1468   2.148   1.740   3.920  0.5421 -0.7473 -0.2547
  508TIP3    H1 1469   2.224   1.731   3.977  1.8080  2.4170 -1.2314
  508TIP3    H2 1470   2.182   1.726   3.831  0.2679  1.4551 -0.7732
  509TIP3   OH2 1471   4.796   7.817   1.288  0.2773  0.4269 -0.0944
  509TIP3    H1 1472   4.883   7.803   1.250  0.1075  0.4668 -0.5024
  509TIP3    H2 1473   4.735   7.802   1.216 -0.3634 -3.7134  1.0186
  510TIP3   OH2 1474   7.083   5.293   3.438 -0.1038  0.2490  0.0493
  510TIP3    H1 1475   7.111   5.384   3.439 -0.3869  0.3304  0.9874
  510TIP3    H2 1476   7.020   5.286   3.509  0.0358 -0.7186  0.0914
  511TIP3   OH2 1477   6.029   0.452   2.824  0.4787  0.0214  0.4589
  511TIP3    H1 1478   6.045   0.543   2.850  2.1217 -0.3641  0.8845
  511TIP3    H2 1479   5.942   0.454   2.784  0.7798  1.9298 -0.2362
  512TIP3   OH2 1480   1.411   3.948   2.799 -0.0367  0.0410  0.0021
  512TIP3    H1 1481   1.448   3.957   2.887 -0.9822  0.7413  0.3502
  512TIP3    H2 1482   1.324   3.910   2.814 -0.2677  0.3143 -0.6199
  513TIP3   OH2 1483   3.902   3.270   6.542 -0.5622  0.2503  0.1547
  513TIP3    H1 1484   3.993   3.264   6.515 -0.6719  2.0072 -0.7349
  513TIP3    H2 1485   3.905   3.266   6.638  0.3983 -0.1949  0.1135
  514TIP3   OH2 1486   6.405   7.188   2.391  0.3399  0.3035 -0.9303
  514TIP3    H1 1487   6.355   7.206   2.311 -0.4418  1.7487 -0.1540
  514TIP3    H2 1488   6.347   7.214   2.462 -0.2012 -3.7512  0.3402
  515TIP3   OH2 1489   3.094   3.789   2.819 -0.2409 -0.1467 -0.2904
  515TIP3    H1 1490   3.098   3.695   2.834  1.1451  0.3108  2.8734
  515TIP3    H2 1491   3.182   3.812   2.787 -0.6247  0.0958 -1.2174
  516TIP3   OH2 1492   1.993   2.112   4.958  0.7467 -0.8213 -0.4535
  516TIP3    H1 1493   1.927   2.054   4.995  0.3547 -1.0912 -1.5426
  516TIP3    H2 1494   2.018   2.169   5.030 -0.5412 -0.8360  0.0303
  517TIP3   OH2 1495   4.086   7.253   1.632 -0.0345 -0.2005  1.0152
  517TIP3    H1 1496   4.081   7.348   1.643 -2.1624 -0.2361  0.6448
  517TIP3    H2 1497   4.138   7.224   1.708  1.3255  1.2814  0.7235
  518TIP3   OH2 1498   8.264   0.246   5.503 -0.1770  0.1724 -0.3299
  518TIP3    H1 1499   8.209   0.271   5.429  0.6848 -0.2997 -1.1428
  518TIP3    H2 1500   8.267   0.151   5.500  1.6055  0.2228 -1.0013
  519TIP3   OH2 1501   3.437   5.788   0.862  0.2601 -0.4659 -0.0408
  519TIP3    H1 1502   3.508   5.803   0.800  0.3253  0.0580  0.1558
  519TIP3    H2 1503   3.370   5.853   0.839 -0.4510 -1.3793 -0.6483
  520TIP3   OH2 1504   0.570   6.068   6.354  0.2260 -0.0160  0.8738
  520TIP3    H1 1505   0.633   6.008   6.314 -0.5839  0.2534 -0.9161
  520TIP3    H2 1506   0.510   6.012   6.403 -1.0460 -0.8445 -1.4947
  521TIP3   OH2 1507   5.801   1.204   3.753 -0.5819 -0.2428 -0.1260
  521TIP3    H1 1508   5.878   1.149   3.740 -0.0768  0.1806  0.8704
  521TIP3    H2 1509   5.778   1.191   3.845 -0.3170  1.3293  0.2007
  522TIP3   OH2 1510   2.479   4.120   6.090 -0.0372 -0.1262 -0.1277
  522TIP3    H1 1511   2.410   4.058   6.115  0.0443  0.0444  0.5421
  522TIP3    H2 1512   2.434   4.203   6.078 -0.0751 -0.2066 -0.5483
  523TIP3   OH2 1513   8.233   2.309   4.617 -0.3334 -0.8296 -0.0242
  523TIP3    H1 1514   8.190   2.285   4.699  1.1336 -2.2847  0.3714
  523TIP3    H2 1515   8.197   2.248   4.553 -1.0545 -0.0644 -0.3709
  524TIP3   OH2 1516   0.263   3.680   1.037 -0.3218  0.5053  0.6195
  524TIP3    H1 1517   0.296   3.608   0.983 -3.1930  0.3461 -1.1326
  524TIP3    H2 1518   0.324   3.684   1.111  2.2294 -1.0603 -1.2333
  525TIP3   OH2 1519   7.046   1.671   3.907  0.1977 -0.3349  0.4072
  525TIP3    H1 1520   7.051   1.578   3.926  2.1581 -0.1662  0.9004
  525TIP3    H2 1521   7.019   1.711   3.990 -3.4648 -0.6326 -0.4943
  526TIP3   OH2 1522   4.888   1.321   2.220 -0.1451 -0.3479  0.1010
  526TIP3    H1 1523   4.944   1.390   2.257 -0.5538 -0.8843  1.7790
  526TIP3    H2 1524   4.842   1.284   2.295 -2.5132 -0.1691 -1.1596
  527TIP3   OH2 1525   7.220   1.454   6.423 -0.1793 -0.2871 -0.6289
  527TIP3    H1 1526   7.315   1.456   6.410 -0.3270  2.5677 -1.7325
  527TIP3    H2 1527   7.207   1.494   6.509 -0.3998 -0.9119 -0.3638
  528TIP3   OH2 1528   0.872   7.026   0.694  0.0420 -0.1987  0.3549
  528TIP3    H1 1529   0.784   7.025   0.731  0.3730 -0.9366  1.1466
  528TIP3    H2 1530   0.859   7.058   0.604 -0.8691  0.8459  0.8235
  529TIP3   OH2 1531   4.309   3.694   1.729 -0.5509  0.0751 -0.3543
  529TIP3    H1 1532   4.376   3.672   1.664  0.8760  0.4219  0.9357
  529TIP3    H2 1533   4.284   3.784   1.709  1.4067  0.9426  0.7510
  530TIP3   OH2 1534   6.767   3.911   6.659  0.7308  0.2034 -0.4621
  530TIP3    H1 1535   6.722   3.994   6.674  0.9086  0.3915 -0.9607
  530TIP3    H2 1536   6.697   3.847   6.651  0.6128  0.1303  0.8925
  531TIP3   OH2 1537   6.482   5.039   4.868 -0.2342  0.1811  0.2613
  531TIP3    H1 1538   6.460   4.946   4.858  0.3051 -0.2025  2.2794
  531TIP3    H2 1539   6.564   5.049   4.821 -0.0492 -0.4781  0.4321
  532TIP3   OH2 1540   6.583   0.255   5.723  0.4183  0.3000  0.2304
  532TIP3    H1 1541   6.625   0.234   5.640  0.0758  1.0897 -0.1501
  532TIP3    H2 1542   6.642   0.220   5.789  0.5377 -0.6310 -0.3437
  533TIP3   OH2 1543   0.392   4.077   2.828 -0.0549 -0.2048 -0.7157
  533TIP3    H1 1544   0.484   4.100   2.814 -0.1764  0.6795 -0.1137
  533TIP3    H2 1545   0.395   4.002   2.887  0.2544  1.0146  0.8874
  534TIP3   OH2 1546   1.337   1.198   2.046 -0.0540 -0.5301 -0.2066
  534TIP3    H1 1547   1.369   1.127   2.102  0.6002 -0.6769 -0.7584
  534TIP3    H2 1548   1.416   1.236   2.007 -0.5382 -0.9037 -1.5938
  535TIP3   OH2 1549   1.504   7.162   3.391  0.1142 -0.3787  0.3751
  535TIP3    H1 1550   1.559   7.105   3.444  0.2954 -1.2437 -0.7138
  535TIP3    H2 1551   1.551   7.245   3.387 -0.0819 -0.1798  1.8487
  536TIP3   OH2 1552   4.063   5.753   3.981  0.5253 -0.3018 -0.0533
  536TIP3    H1 1553   4.041   5.710   4.064  0.2002 -1.1248 -0.5535
  536TIP3    H2 1554   3.979   5.776   3.942  0.7040  1.6063  0.5942
  537TIP3   OH2 1555   6.394   0.347   2.422 -0.0783 -0.1701  0.1218
  537TIP3    H1 1556   6.472   0.382   2.381  1.0642 -1.9252  0.6866
  537TIP3    H2 1557   6.423   0.316   2.508 -1.3545 -0.9140  0.3190
  538TIP3   OH2 1558   2.069   5.354   0.221  0.3330 -0.6251 -0.0797
  538TIP3    H1 1559   2.111   5.438   0.240  1.3861 -0.9366 -0.9404
  538TIP3    H2 1560   2.037   5.324   0.306  0.9100  0.1388  0.4269
  539TIP3   OH2 1561   5.864   6.740   0.161  0.4333 -0.1354  0.4838
  539TIP3    H1 1562   5.907   6.753   0.246  0.2423  1.0469  0.4154
  539TIP3    H2 1563   5.870   6.646   0.145  2.0254 -0.1520  0.9938
  540TIP3   OH2 1564   1.883   6.714   4.075  0.1014 -0.7345 -1.1296
  540TIP3    H1 1565   1.954   6.653   4.055  2.0549  0.8043  0.7030
  540TIP3    H2 1566   1.840   6.676   4.151  1.2830  0.0628 -0.0220
  541TIP3   OH2 1567   5.574   3.566   3.740  0.5139 -0.7202  0.5120
  541TIP3    H1 1568   5.592   3.640   3.683  0.9124 -1.5030 -0.4163
  541TIP3    H2 1569   5.644   3.503   3.721  0.5105 -1.1113  1.6831
  542TIP3   OH2 1570   0.101   3.602   5.858  0.4994  0.3040 -0.1931
  542TIP3    H1 1571   0.029   3.642   5.811 -0.1324 -0.9598 -0.3306
  542TIP3    H2 1572   0.071   3.599   5.949  1.6365  2.5603  0.3341
  543TIP3   OH2 1573   1.143   2.416   1.841  0.7191 -0.6117 -0.0587
  543TIP3    H1 1574   1.111   2.506   1.853  0.7864 -0.8520  2.4454
  543TIP3    H2 1575   1.194   2.419   1.760  0.9402  1.6683  0.1017
  544TIP3   OH2 1576   7.966   4.609   1.514 -0.2456  0.4598 -0.4237
  544TIP3    H1 1577   8.024   4.568   1.577 -0.6436 -1.5184 -1.2837
  544TIP3    H2 1578   7.904   4.658   1.568  0.0832 -0.2845  0.6735
  545TIP3   OH2 1579   7.688   4.463   5.300 -0.2473  0.0039 -0.4399
  545TIP3    H1 1580   7.738   4.392   5.339  0.1118  0.1151 -0.6960
  545TIP3    H2 1581   7.752   4.512   5.248 -0.1597  1.3794  0.8891
  546TIP3   OH2 1582   7.455   0.934   5.257  0.3223  0.1297  0.2338
  546TIP3    H1 1583   7.379   0.993   5.255  0.4441  0.2823 -0.7124
  546TIP3    H2 1584   7.455   0.894   5.170 -0.0052 -1.6173  0.9942
  547TIP3   OH2 1585   3.156   3.171   1.707  0.1507 -0.6134  0.0106
  547TIP3    H1 1586   3.224   3.130   1.760  0.6577  0.3766  0.1516
  547TIP3    H2 1587   3.198   3.187   1.622  0.7600  1.7294  0.6747
  548TIP3   OH2 1588   0.424   2.138   1.721 -0.2553  0.0065 -0.4361
  548TIP3    H1 1589   0.518   2.119   1.727 -0.2784  0.1706  0.6709
  548TIP3    H2 1590   0.415   2.186   1.639  0.4064 -1.2322 -1.2781
  549TIP3   OH2 1591   5.569   7.221   0.295 -0.0466 -0.1565 -0.8588
  549TIP3    H1 1592   5.619   7.295   0.328  1.1754 -1.5540  0.6098
  549TIP3    H2 1593   5.478   7.249   0.300  0.3909  1.3222 -0.5993
  550TIP3   OH2 1594   7.302   4.634   5.150 -0.0450 -0.3785 -0.5147
  550TIP3    H1 1595   7.283   4.612   5.241 -0.3901 -0.0786 -0.5080
  550TIP3    H2 1596   7.390   4.671   5.152  1.1386 -2.9934 -0.7329
  551TIP3   OH2 1597   1.296   2.105   4.640 -0.0142 -0.7882 -0.0154
  551TIP3    H1 1598   1.207   2.069   4.636  0.5224 -2.2965  0.8566
  551TIP3    H2 1599   1.319   2.101   4.733  0.5672  0.6475 -0.0768
  552TIP3   OH2 1600   2.838   6.132   4.546  0.1192 -0.2956  0.3906
  552TIP3    H1 1601   2.802   6.158   4.630  0.4269  0.6736  0.2308
  552TIP3    H2 1602   2.925   6.172   4.543  0.3806 -0.8702 -0.1085
  553TIP3   OH2 1603   7.025   2.360   6.352 -0.0426 -0.5876  0.3968
  553TIP3    H1 1604   7.100   2.336   6.406  0.5647  0.5257  0.0600
  553TIP3    H2 1605   7.054   2.436   6.302 -0.9628 -0.9328 -0.6986
  554TIP3   OH2 1606   5.056   2.744   3.616  0.0639 -0.3417  0.3410
  554TIP3    H1 1607   5.145   2.715   3.636 -0.6636 -2.3624  0.9117
  554TIP3    H2 1608   5.052   2.834   3.649  1.3124 -0.8820  2.1276
  555TIP3   OH2 1609   0.005   7.181   5.217 -0.7386  0.3644  0.0271
  555TIP3    H1 1610   0.029   7.268   5.183 -0.6994  0.5816  0.6089
  555TIP3    H2 1611   0.080   7.155   5.270 -0.4806 -0.3025 -0.6483
  556TIP3   OH2 1612   1.775   7.367   4.140  0.1683 -0.0536  0.3823
  556TIP3    H1 1613   1.750   7.286   4.096  2.9097 -0.3031 -0.9162
  556TIP3    H2 1614   1.767   7.434   4.072 -0.5724  0.5043  1.0071
  557TIP3   OH2 1615   7.808   2.248   4.239 -0.5613 -0.7609 -0.3219
  557TIP3    H1 1616   7.728   2.277   4.195  0.9714  1.1806 -2.0144
  557TIP3    H2 1617   7.821   2.158   4.210 -1.1510 -0.4769 -1.4937
  558TIP3   OH2 1618   6.917   4.693   1.497 -0.3538 -0.4088  0.2447
  558TIP3    H1 1619   6.951   4.777   1.528 -0.1869  0.3077 -1.7594
  558TIP3    H2 1620   6.847   4.716   1.436 -0.4172 -1.7269 -0.2218
  559TIP3   OH2 1621   7.620   2.380   3.039  0.0093  0.0067 -0.3962
  559TIP3    H1 1622   7.681   2.315   3.074  0.4216  0.8073  0.3905
  559TIP3    H2 1623   7.667   2.463   3.046 -1.5611  0.8084  1.2564
  560TIP3   OH2 1624   1.933   0.927   5.680 -0.3590  0.7300 -0.1095
  560TIP3    H1 1625   1.944   0.832   5.667 -2.4643  0.4043 -0.0032
  560TIP3    H2 1626   1.993   0.967   5.618  0.9931 -0.6715  0.2369
  561TIP3   OH2 1627   2.622   6.767   1.366  0.1938 -0.3016 -0.2530
  561TIP3    H1 1628   2.692   6.775   1.431  0.9345  0.7204 -1.1401
  561TIP3    H2 1629   2.541   6.781   1.416  0.6349 -0.9727  0.6893
  562TIP3   OH2 1630   5.763   3.662   4.450 -0.1859  0.6424 -0.4867
  562TIP3    H1 1631   5.796   3.705   4.529 -1.6232  1.2810 -0.2046
  562TIP3    H2 1632   5.809   3.705   4.378  1.8695 -0.6090 -0.0064
  563TIP3   OH2 1633   4.447   7.450   6.527  0.2811  0.2202  0.0667
  563TIP3    H1 1634   4.476   7.379   6.583  1.2946  0.9264  0.4626
  563TIP3    H2 1635   4.417   7.518   6.588  2.1201  1.3104 -0.1609
  564TIP3   OH2 1636   2.518   1.215   1.783  0.0341  0.1311 -0.2586
  564TIP3    H1 1637   2.612   1.232   1.785  0.3340 -1.4319  0.8283
  564TIP3    H2 1638   2.510   1.124   1.756 -1.1533  0.1974 -0.1786
  565TIP3   OH2 1639   3.316   5.377   4.163  0.5403 -0.3031 -0.2533
  565TIP3    H1 1640   3.406   5.346   4.172  1.0901  0.6615 -2.0298
  565TIP3    H2 1641   3.283   5.334   4.085  0.5974  1.7619 -1.5014
  566TIP3   OH2 1642   6.385   5.267   4.734 -0.2438 -0.0008 -0.1227
  566TIP3    H1 1643   6.393   5.178   4.768  0.8148  0.0515 -0.1910
  566TIP3    H2 1644   6.317   5.308   4.787  1.1906  0.0122  1.7829
  567TIP3   OH2 1645   2.897   3.180   0.824  0.3159 -0.3332  0.5943
  567TIP3    H1 1646   2.993   3.180   0.815  0.2343  1.8442 -1.1343
  567TIP3    H2 1647   2.875   3.268   0.854 -1.2994  0.5340 -2.6727
  568TIP3   OH2 1648   0.532   0.938   2.991 -0.2402  0.3073  0.0270
  568TIP3    H1 1649   0.472   1.009   2.968  1.3117  1.3861 -0.9001
  568TIP3    H2 1650   0.476   0.871   3.031 -1.9170  1.5780 -0.0837
  569TIP3   OH2 1651   8.088   6.714   5.020  0.0151 -0.0068 -0.3837
  569TIP3    H1 1652   8.148   6.762   4.963 -1.1437  2.7942  0.5498
  569TIP3    H2 1653   8.141   6.684   5.093  0.7207  0.2214 -0.7973
  570TIP3   OH2 1654   4.391   3.581   4.991  0.2691  0.1284 -0.2698
  570TIP3    H1 1655   4.405   3.508   5.052 -2.1258  0.5306  0.8445
  570TIP3    H2 1656   4.480   3.607   4.965  1.2911 -1.2768  1.5571
  571TIP3   OH2 1657   1.513   5.902   5.347 -0.2318 -0.0475 -0.2609
  571TIP3    H1 1658   1.552   5.815   5.358 -0.1129 -0.2195 -1.8166
  571TIP3    H2 1659   1.427   5.885   5.309 -0.1113  0.5133 -0.7982
  572TIP3   OH2 1660   6.376   5.466   3.986  0.2174  0.3877  0.2157
  572TIP3    H1 1661   6.362   5.441   4.077 -0.5716 -2.1913 -0.5239
  572TIP3    H2 1662   6.456   5.422   3.960 -0.7004 -0.7318 -0.8841
  573TIP3   OH2 1663   0.125   0.644   2.993 -0.1986  0.2027 -0.4502
  573TIP3    H1 1664   0.147   0.559   3.031 -0.4641  0.5818  0.5865
  573TIP3    H2 1665   0.032   0.638   2.971 -0.6252  0.7309  1.0873
  574TIP3   OH2 1666   4.280   0.537   6.425 -0.0528 -0.3594 -0.1002
  574TIP3    H1 1667   4.194   0.517   6.387  0.5173 -0.2481 -1.4777
  574TIP3    H2 1668   4.268   0.520   6.519 -1.5095 -0.5788 -0.2940
  575TIP3   OH2 1669   8.103   1.408   3.324  0.4823  0.1049  0.0978
  575TIP3    H1 1670   8.165   1.455   3.268  1.3418 -0.0540  0.9043
  575TIP3    H2 1671   8.128   1.316   3.317 -0.3844 -0.1050 -0.4553
  576TIP3   OH2 1672   7.024   2.440   2.441  0.0415 -0.7257 -0.1646
  576TIP3    H1 1673   6.981   2.399   2.366 -1.5487 -1.8203  1.2914
  576TIP3    H2 1674   7.025   2.373   2.509  1.9195  0.0657  0.6777
  577TIP3   OH2 1675   6.948   2.748   3.178  0.0012  0.4492 -0.3478
  577TIP3    H1 1676   7.021   2.702   3.135 -0.8149 -0.0071 -1.2860
  577TIP3    H2 1677   6.921   2.813   3.114 -0.8329  0.1814 -0.2731
  578TIP3   OH2 1678   0.283   4.912   1.525 -0.0680  0.0365 -0.2830
  578TIP3    H1 1679   0.236   4.944   1.448 -1.0013  1.6043  0.8641
  578TIP3    H2 1680   0.244   4.961   1.598 -0.1374 -2.3256  1.3636
  579TIP3   OH2 1681   3.011   5.321   6.548  0.0961  0.0537 -0.9630
  579TIP3    H1 1682   3.049   5.249   6.599 -1.7358 -0.3266 -0.0361
  579TIP3    H2 1683   2.920   5.327   6.579  0.3000  3.1042 -0.6449
  580TIP3   OH2 1684   6.780   6.622   4.418 -0.8813  0.3470 -0.0799
  580TIP3    H1 1685   6.863   6.649   4.458 -1.2068  0.8444  0.2744
  580TIP3    H2 1686   6.751   6.699   4.369 -1.9990  0.8060  1.2302
  581TIP3   OH2 1687   4.171   4.214   0.117  0.2127  0.2265  0.3201
  581TIP3    H1 1688   4.223   4.263   0.180 -1.3509  0.6186  1.3458
  581TIP3    H2 1689   4.107   4.277   0.084 -0.3645 -0.5393 -0.0536
  582TIP3   OH2 1690   1.994   3.522   0.391 -0.4141 -0.1934 -0.3560
  582TIP3    H1 1691   1.916   3.498   0.442 -1.3611  0.2851 -1.5211
  582TIP3    H2 1692   2.022   3.605   0.427  0.3074 -0.9366  0.8672
  583TIP3   OH2 1693   5.200   5.939   2.959  0.3360  0.1969  0.2127
  583TIP3    H1 1694   5.123   5.985   2.992 -1.2466 -2.3266  0.3420
  583TIP3    H2 1695   5.230   5.886   3.033  1.3825  0.1439 -0.2342
  584TIP3   OH2 1696   0.278   3.429   2.827  0.4399 -0.1248 -0.1733
  584TIP3    H1 1697   0.317   3.505   2.783  1.0514 -0.0521  0.4773
  584TIP3    H2 1698   0.245   3.464   2.910 -0.5700 -0.2872 -0.5018
  585TIP3   OH2 1699   5.677   5.277   2.958 -0.5250  0.3532  0.1026
  585TIP3    H1 1700   5.744   5.234   3.011  1.4936 -1.5775 -3.5681
  585TIP3    H2 1701   5.596   5.230   2.978  0.3620 -0.9800  0.7222
  586TIP3   OH2 1702   4.628   1.450   4.690 -0.1036 -0.0208  0.6792
  586TIP3    H1 1703   4.601   1.360   4.710 -0.7980  0.2109  0.8111
  586TIP3    H2 1704   4.670   1.481   4.770 -0.0570 -0.1524  0.7057
  587TIP3   OH2 1705   3.479   4.603   2.375 -0.7032  0.6895  0.0852
  587TIP3    H1 1706   3.471   4.570   2.464 -1.5480 -0.0268 -0.2357
  587TIP3    H2 1707   3.534   4.539   2.330 -1.9364 -0.0609 -0.4122
  588TIP3   OH2 1708   2.490   6.882   5.757  0.0069 -0.2678  0.5004
  588TIP3    H1 1709   2.441   6.861   5.678 -0.2316  2.6302 -0.2276
  588TIP3    H2 1710   2.466   6.813   5.820 -0.5659 -2.0699 -1.5758
  589TIP3   OH2 1711   3.941   2.959   5.249 -0.4476  0.6881  0.5084
  589TIP3    H1 1712   4.007   2.890   5.248  0.4923  1.5568  0.7747
  589TIP3    H2 1713   3.976   3.025   5.308 -1.0372  1.6654 -0.2028
  590TIP3   OH2 1714   2.576   1.683   5.126  0.3443  0.7115 -0.4016
  590TIP3    H1 1715   2.643   1.667   5.060  0.5023 -0.7722  0.0728
  590TIP3    H2 1716   2.513   1.612   5.113  0.3050  0.4729  0.9186
  591TIP3   OH2 1717   2.583   2.164   0.260  0.6241  0.5827 -0.2419
  591TIP3    H1 1718   2.556   2.227   0.326  1.7686 -0.4687  1.3204
  591TIP3    H2 1719   2.503   2.140   0.213 -0.0285  2.1426  0.0444
  592TIP3   OH2 1720   5.769   3.672   2.240  0.7317 -0.0244  0.4790
  592TIP3    H1 1721   5.723   3.751   2.211  0.4904  0.0875  1.1578
  592TIP3    H2 1722   5.741   3.660   2.331 -0.9999 -2.1702 -0.2696
  593TIP3   OH2 1723   5.599   3.065   3.865 -0.1330  0.1479  0.2736
  593TIP3    H1 1724   5.638   3.089   3.781 -1.7019  0.8426 -0.2988
  593TIP3    H2 1725   5.559   3.147   3.897 -0.5585 -0.3786  1.1252
  594TIP3   OH2 1726   3.874   5.170   3.706 -0.4792 -0.4572 -0.4762
  594TIP3    H1 1727   3.807   5.210   3.650 -0.7048  1.2698  0.9144
  594TIP3    H2 1728   3.946   5.233   3.705 -0.3210 -0.5790  0.7839
  595TIP3   OH2 1729   7.187   4.784   3.626  0.4248  0.5708  0.3300
  595TIP3    H1 1730   7.211   4.695   3.602 -0.1044  0.9148 -1.6328
  595TIP3    H2 1731   7.092   4.784   3.627  0.4071  1.2711 -0.3732
  596TIP3   OH2 1732   5.954   3.009   3.760 -0.5737  0.2617 -0.0767
  596TIP3    H1 1733   6.048   3.015   3.773 -0.1809 -0.7704 -2.0945
  596TIP3    H2 1734   5.920   2.978   3.844  0.7469  1.5062  0.9536
  597TIP3   OH2 1735   1.686   3.347   5.491 -0.0656  0.2412 -0.4667
  597TIP3    H1 1736   1.594   3.318   5.494  0.4482 -1.4135  0.3835
  597TIP3    H2 1737   1.715   3.325   5.402 -0.1647 -0.3249 -0.3625
  598TIP3   OH2 1738   8.042   1.674   1.399  0.2002 -0.1084 -0.2331
  598TIP3    H1 1739   7.963   1.711   1.438 -0.0729 -0.4563 -0.4545
  598TIP3    H2 1740   8.073   1.611   1.463 -0.2380 -0.6662 -0.5558
  599TIP3   OH2 1741   4.099   4.994   2.849  0.0676  0.4659 -0.4447
  599TIP3    H1 1742   4.112   4.992   2.944 -0.5278 -1.8093 -0.3407
  599TIP3    H2 1743   4.181   5.028   2.814  1.5231 -1.5579  0.7804
  600TIP3   OH2 1744   0.837   5.563   4.182  0.1267 -0.3631  0.5515
  600TIP3    H1 1745   0.764   5.502   4.170 -0.3242  0.1831  0.4672
  600TIP3    H2 1746   0.795   5.648   4.193  0.7150 -0.1987  1.5959
  601TIP3   OH2 1747   6.795   6.384   4.282  0.0709  0.1774 -0.0534
  601TIP3    H1 1748   6.714   6.335   4.300 -0.3639  0.8733 -0.0768
  601TIP3    H2 1749   6.781   6.469   4.324 -1.1366  2.0304 -3.7238
  602TIP3   OH2 1750   7.796   2.048   5.153  0.1517  0.4642  0.6004
  602TIP3    H1 1751   7.752   1.966   5.177  1.3734 -0.2144  0.6233
  602TIP3    H2 1752   7.772   2.109   5.222 -1.1899  0.2800  0.3141
  603TIP3   OH2 1753   0.230   1.212   6.606  0.2960 -0.1740 -0.1502
  603TIP3    H1 1754   0.162   1.147   6.621 -0.9201  0.8948 -0.8253
  603TIP3    H2 1755   0.269   1.227   6.693  0.3294 -1.4725  0.0785
  604TIP3   OH2 1756   3.983   2.804   3.925 -0.3346  0.0054  0.3128
  604TIP3    H1 1757   3.967   2.868   3.855 -0.3038  0.6594  0.8926
  604TIP3    H2 1758   3.938   2.725   3.896  0.4151 -0.0209 -0.8750
  605TIP3   OH2 1759   1.880   1.002   0.256  0.1434 -0.2227 -0.4850
  605TIP3    H1 1760   1.937   1.078   0.267  0.6922 -0.6951  0.0220
  605TIP3    H2 1761   1.940   0.927   0.257 -0.5436 -0.7809  0.7938
  606TIP3   OH2 1762   6.918   1.695   6.129  0.3918 -0.6476 -0.1650
  606TIP3    H1 1763   6.890   1.604   6.119  2.8839 -1.3385 -1.9594
  606TIP3    H2 1764   6.998   1.701   6.076 -1.1383  3.3106 -2.4976
  607TIP3   OH2 1765   7.839   6.581   5.627 -0.1955  0.4852  0.2134
  607TIP3    H1 1766   7.797   6.505   5.666  1.2076 -0.5147 -0.1714
  607TIP3    H2 1767   7.780   6.654   5.648 -0.9034 -0.4713  1.7447
  608TIP3   OH2 1768   5.854   3.212   0.354 -0.4624 -0.3878 -0.2403
  608TIP3    H1 1769   5.822   3.244   0.270 -0.0066  0.7940  0.0238
  608TIP3    H2 1770   5.945   3.187   0.337 -0.6691 -1.1099 -0.3268
  609TIP3   OH2 1771   1.498   5.692   4.637 -0.5578 -0.4514  0.6131
  609TIP3    H1 1772   1.521   5.682   4.729 -1.7327 -0.0559  0.9568
  609TIP3    H2 1773   1.552   5.626   4.592 -0.7035 -1.3326  1.6819
  610TIP3   OH2 1774   7.874   6.172   1.892 -0.4789  0.1271 -0.4457
  610TIP3    H1 1775   7.933   6.247   1.896 -0.3138 -0.0126 -0.2343
  610TIP3    H2 1776   7.932   6.096   1.886 -0.6284 -0.0308  0.0292
  611TIP3   OH2 1777   6.325   0.971   2.813 -0.0149 -0.1269 -0.3633
  611TIP3    H1 1778   6.331   1.036   2.742  1.4738  0.9614  0.7043
  611TIP3    H2 1779   6.259   1.006   2.872  0.4025  0.1432 -0.0566
  612TIP3   OH2 1780   3.971   5.103   0.730 -0.0964 -0.5127  0.0973
  612TIP3    H1 1781   3.915   5.049   0.787  0.9103 -0.1010  1.5375
  612TIP3    H2 1782   4.042   5.045   0.706  0.3985 -0.1812  0.7271
  613TIP3   OH2 1783   6.184   4.587   1.381  0.4600 -0.3187  0.1021
  613TIP3    H1 1784   6.115   4.639   1.423 -0.7943 -2.2834  0.6118
  613TIP3    H2 1785   6.163   4.591   1.288 -0.5698 -1.1552  0.2785
  614TIP3   OH2 1786   4.482   5.579   0.920  0.7510  0.3093  0.3174
  614TIP3    H1 1787   4.530   5.566   0.838  1.2435  0.1826  0.6218
  614TIP3    H2 1788   4.396   5.611   0.893  0.7017 -0.3131 -0.2778
  615TIP3   OH2 1789   4.446   1.752   2.471  0.1328  0.4181 -0.2806
  615TIP3    H1 1790   4.488   1.807   2.405 -0.8824  0.6977 -0.7058
  615TIP3    H2 1791   4.384   1.809   2.515  0.1689  0.0028  0.3308
  616TIP3   OH2 1792   4.709   4.527   0.825 -0.1695  0.0667 -0.3738
  616TIP3    H1 1793   4.747   4.579   0.753 -0.7350 -0.5679 -1.1539
  616TIP3    H2 1794   4.620   4.560   0.834 -0.3781 -0.4468 -0.5536
  617TIP3   OH2 1795   0.695   4.692   0.268 -0.3631 -0.3668  0.6261
  617TIP3    H1 1796   0.725   4.680   0.358 -1.0481 -1.7470  0.6924
  617TIP3    H2 1797   0.611   4.737   0.276  0.8658  2.1411  0.5029
  618TIP3   OH2 1798   1.598   6.392   2.188 -0.1495  0.8461  0.3716
  618TIP3    H1 1799   1.544   6.350   2.254 -0.1314  0.6934  0.2897
  618TIP3    H2 1800   1.541   6.459   2.150  0.1010  1.4716  1.0901
  619TIP3   OH2 1801   0.162   4.280   6.719  0.0851 -0.4520  0.0608
  619TIP3    H1 1802   0.150   4.375   6.719 -1.0690 -0.5247  2.3441
  619TIP3    H2 1803   0.253   4.267   6.743 -0.5167  0.1457  3.0439
  620TIP3   OH2 1804   2.892   6.502   5.480  0.6729  0.1657  0.3073
  620TIP3    H1 1805   2.914   6.471   5.568  0.5934 -1.5821 -0.2513
  620TIP3    H2 1806   2.965   6.473   5.425 -0.8453 -1.8276 -0.7948
  621TIP3   OH2 1807   1.204   3.160   4.756  0.7334 -0.1656 -0.7872
  621TIP3    H1 1808   1.238   3.128   4.840  0.1597  1.7750  0.2561
  621TIP3    H2 1809   1.132   3.100   4.735  0.4871 -0.3198  0.4333
  622TIP3   OH2 1810   4.869   1.393   5.553  0.4271  0.4747 -0.2579
  622TIP3    H1 1811   4.927   1.323   5.583  1.3293  0.8153 -1.1415
  622TIP3    H2 1812   4.889   1.401   5.460 -0.5697  1.0689 -0.4288
  623TIP3   OH2 1813   0.015   5.568   3.506 -0.1053 -0.5784  0.7447
  623TIP3    H1 1814   0.041   5.603   3.421  0.6442 -0.9486  0.8171
  623TIP3    H2 1815   0.015   5.473   3.494  0.6383 -0.6661  1.3234
  624TIP3   OH2 1816   0.991   7.187   2.206 -0.2782 -0.0312 -0.3687
  624TIP3    H1 1817   1.063   7.137   2.170  0.4402  1.6961 -1.4673
  624TIP3    H2 1818   0.913   7.134   2.189  0.6567 -1.7598  0.5287
  625TIP3   OH2 1819   3.947   2.729   5.567  0.0605  0.1110  0.7767
  625TIP3    H1 1820   3.951   2.654   5.508  0.0387  1.3574 -0.8568
  625TIP3    H2 1821   3.974   2.693   5.652  1.7438 -1.3790 -0.3084
  626TIP3   OH2 1822   5.755   1.711   3.638 -0.2945  0.2488 -0.1463
  626TIP3    H1 1823   5.688   1.780   3.636 -1.3706 -0.7594  0.0369
  626TIP3    H2 1824   5.729   1.651   3.568  1.8962  1.1329 -1.8312
  627TIP3   OH2 1825   0.157   4.548   5.658 -0.2911  0.3961 -0.2620
  627TIP3    H1 1826   0.067   4.550   5.691  0.2286  1.3447  1.2181
  627TIP3    H2 1827   0.157   4.611   5.585 -0.5372  1.4735  0.6333
  628TIP3   OH2 1828   4.388   3.864   3.005 -0.5040 -0.2334 -0.0833
  628TIP3    H1 1829   4.341   3.899   2.930  0.1365  0.9164  0.0375
  628TIP3    H2 1830   4.391   3.936   3.068 -0.0815 -0.8376  0.6072
  629TIP3   OH2 1831   0.128   5.981   6.554 -0.1181 -0.3957  0.6517
  629TIP3    H1 1832   0.087   6.058   6.515 -0.6410 -1.8278 -1.8559
  629TIP3    H2 1833   0.197   5.957   6.493  0.2147 -1.7537  1.5208
  630TIP3   OH2 1834   8.046   4.663   0.688 -0.3954 -0.0848 -0.3902
  630TIP3    H1 1835   8.025   4.756   0.682  1.5357  0.3335 -1.6204
  630TIP3    H2 1836   8.138   4.657   0.661  0.4426 -1.9989  2.3810
  631TIP3   OH2 1837   4.167   3.491   6.651  0.1036 -0.2267 -0.4177
  631TIP3    H1 1838   4.111   3.495   6.573 -0.2647  1.2211 -0.1088
  631TIP3    H2 1839   4.109   3.457   6.720 -0.1573  0.4304 -0.3065
  632TIP3   OH2 1840   2.586   2.140   3.274  0.0828  0.4956  0.0084
  632TIP3    H1 1841   2.663   2.097   3.312 -0.7243 -0.7516  0.3123
  632TIP3    H2 1842   2.606   2.233   3.278  0.8482  0.2974  1.7293
  633TIP3   OH2 1843   2.436   6.458   3.826 -0.1320  0.3538 -0.0084
  633TIP3    H1 1844   2.486   6.385   3.863 -1.0260 -0.0348  0.4951
  633TIP3    H2 1845   2.457   6.532   3.882 -1.3820 -0.2018  1.2747
  634TIP3   OH2 1846   3.148   2.471   5.469  0.4028  0.0738 -0.1789
  634TIP3    H1 1847   3.144   2.561   5.438 -0.3176 -0.0370 -0.4170
  634TIP3    H2 1848   3.151   2.419   5.389  1.3004 -0.1074 -0.0480
  635TIP3   OH2 1849   1.388   6.077   3.889  0.1175 -0.5199 -0.3089
  635TIP3    H1 1850   1.377   5.983   3.896 -2.0483 -0.2359  0.8867
  635TIP3    H2 1851   1.381   6.110   3.978  0.7141  0.8053 -0.7081
  636TIP3   OH2 1852   0.588   3.995   1.959 -0.2277  0.8671 -0.5337
  636TIP3    H1 1853   0.671   3.951   1.975 -0.1448  1.2252  0.0265
  636TIP3    H2 1854   0.521   3.931   1.984 -0.1071  1.0272  0.2188
  637TIP3   OH2 1855   1.340   2.593   0.738 -0.4384  0.1807  0.4855
  637TIP3    H1 1856   1.348   2.679   0.696 -0.0016 -0.4600 -0.7697
  637TIP3    H2 1857   1.292   2.540   0.675 -2.2735 -0.0388  1.9769
  638TIP3   OH2 1858   2.394   7.518   6.353  0.0509  0.1322 -0.0001
  638TIP3    H1 1859   2.426   7.430   6.371  0.1206  0.1787  0.1081
  638TIP3    H2 1860   2.304   7.519   6.387  0.3715  0.3893  0.8588
  639TIP3   OH2 1861   4.258   3.960   5.150 -0.5934 -0.2263  0.2083
  639TIP3    H1 1862   4.351   3.960   5.132 -0.6816 -1.7127 -0.3609
  639TIP3    H2 1863   4.244   4.038   5.203  0.8896  0.2525 -0.0653
  640TIP3   OH2 1864   4.447   6.479   0.041  0.0136  0.1310  0.2282
  640TIP3    H1 1865   4.508   6.426  -0.011 -1.2594  0.1256 -1.3237
  640TIP3    H2 1866   4.463   6.569   0.012 -0.8788  0.1020 -0.3829
  641TIP3   OH2 1867   5.283   0.875   3.971  0.6730  0.5291  0.0998
  641TIP3    H1 1868   5.193   0.904   3.988  0.2432 -1.8812  2.7696
  641TIP3    H2 1869   5.332   0.955   3.957 -1.4655  2.0873  0.9597
  642TIP3   OH2 1870   6.676   6.597   0.301  0.1528  0.5717  0.1726
  642TIP3    H1 1871   6.655   6.641   0.219  0.2065 -1.1082 -0.8020
  642TIP3    H2 1872   6.637   6.651   0.369 -2.3223  0.5787 -1.1525
  643TIP3   OH2 1873   6.510   3.849   0.236 -0.2718 -0.1477 -0.0593
  643TIP3    H1 1874   6.534   3.891   0.318  1.5268  1.1351 -1.1656
  643TIP3    H2 1875   6.592   3.842   0.188 -1.5805  1.3813 -2.7424
  644TIP3   OH2 1876   0.053   6.328   2.714  0.7535 -0.3231 -0.4346
  644TIP3    H1 1877  -0.042   6.315   2.706  0.6586  0.5847 -0.9362
  644TIP3    H2 1878   0.087   6.242   2.738 -0.0968 -0.8898 -1.1728
  645TIP3   OH2 1879   2.385   3.546   0.093  0.2774  0.4608  0.6184
  645TIP3    H1 1880   2.401   3.453   0.109 -0.0878  0.5693  1.7322
  645TIP3    H2 1881   2.467   3.589   0.118  0.6900  0.3892 -0.5646
  646TIP3   OH2 1882   2.341   6.492   1.417 -0.7146  0.3171  0.7511
  646TIP3    H1 1883   2.351   6.437   1.495 -0.4926  1.8228  1.8140
  646TIP3    H2 1884   2.298   6.571   1.448 -0.1251  1.1883 -0.5590
  647TIP3   OH2 1885   6.869   2.315   3.378 -0.8267  0.0522 -0.7251
  647TIP3    H1 1886   6.894   2.274   3.295 -1.1769  1.0172 -1.3226
  647TIP3    H2 1887   6.787   2.272   3.402 -1.8935  1.2389 -2.0235
  648TIP3   OH2 1888   3.325   5.755   0.377 -0.4073  0.2454  0.6390
  648TIP3    H1 1889   3.280   5.689   0.429  0.2119 -2.1313 -1.6742
  648TIP3    H2 1890   3.418   5.731   0.383 -0.3544 -0.4759 -1.9156
  649TIP3   OH2 1891   0.869   5.919   4.497  0.0231  0.7099 -0.5707
  649TIP3    H1 1892   0.860   5.994   4.439  0.4614  0.9705 -0.3011
  649TIP3    H2 1893   0.922   5.950   4.570  0.2167  0.1387 -0.4585
  650TIP3   OH2 1894   4.674   3.783   6.272 -0.2900 -0.4073 -0.1294
  650TIP3    H1 1895   4.629   3.862   6.302  0.2459  0.6023 -1.8374
  650TIP3    H2 1896   4.678   3.727   6.350 -1.9481  0.6308  0.7755
  651TIP3   OH2 1897   3.623   4.560   2.787  0.0284 -0.7250  0.4560
  651TIP3    H1 1898   3.542   4.606   2.762 -0.8159 -0.9580  2.5386
  651TIP3    H2 1899   3.660   4.530   2.704 -2.6755 -1.6606 -0.5216
  652TIP3   OH2 1900   3.263   1.528   4.951 -0.8114  0.0229  0.6695
  652TIP3    H1 1901   3.180   1.492   4.981 -1.4583  2.0620  1.4845
  652TIP3    H2 1902   3.238   1.601   4.893  0.4338 -0.9950 -1.2674
  653TIP3   OH2 1903   4.322   7.818   0.586  0.4236  0.3837  0.5039
  653TIP3    H1 1904   4.326   7.849   0.495  0.1808  0.7384  0.6110
  653TIP3    H2 1905   4.389   7.749   0.591 -0.8967 -1.0167 -0.4547
  654TIP3   OH2 1906   5.964   4.044   0.920 -0.3403  0.1133  0.1521
  654TIP3    H1 1907   6.019   4.044   0.999 -1.3584 -3.0310  1.0247
  654TIP3    H2 1908   5.880   4.077   0.950 -0.3157  0.3050  0.0120
  655TIP3   OH2 1909   5.498   3.685   3.423  0.4252  0.5118  0.2125
  655TIP3    H1 1910   5.544   3.610   3.384  0.4407  1.3195 -1.4260
  655TIP3    H2 1911   5.560   3.721   3.486 -0.1894 -1.7653  2.2490
  656TIP3   OH2 1912   3.344   1.033   5.946  0.6708 -0.5923 -0.6551
  656TIP3    H1 1913   3.390   1.117   5.941  0.9419 -0.7647 -1.0910
  656TIP3    H2 1914   3.296   1.037   6.029  2.1414 -0.7330  0.2571
  657TIP3   OH2 1915   6.877   2.257   3.919  0.4273 -0.1860  0.1199
  657TIP3    H1 1916   6.865   2.197   3.845 -1.0873 -1.1889  1.1264
  657TIP3    H2 1917   6.793   2.254   3.965  0.5507  2.1768  0.6083
  658TIP3   OH2 1918   0.524   3.563   2.533 -0.8426  0.5064  0.1329
  658TIP3    H1 1919   0.441   3.604   2.558 -0.7492  0.7099  0.1122
  658TIP3    H2 1920   0.568   3.629   2.480 -1.3977 -0.2257 -1.2793
  659TIP3   OH2 1921   6.689   5.240   6.489 -0.6436  0.5094  0.3138
  659TIP3    H1 1922   6.783   5.229   6.504 -0.8409 -1.4089  0.3833
  659TIP3    H2 1923   6.681   5.254   6.395 -0.3185 -0.0779  0.1912
  660TIP3   OH2 1924   4.163   0.386   5.079 -0.2121 -0.1501  0.1135
  660TIP3    H1 1925   4.255   0.405   5.097  0.2529 -2.0941 -0.0438
  660TIP3    H2 1926   4.152   0.406   4.986  0.1193 -0.1826  0.0662
  661TIP3   OH2 1927   8.295   1.233   1.661  0.4079  0.1478 -0.6988
  661TIP3    H1 1928   8.208   1.212   1.626  0.2383  0.9973 -0.8325
  661TIP3    H2 1929   8.309   1.170   1.731 -0.4772  0.2164 -0.4400
  662TIP3   OH2 1930   5.060   4.375   3.370 -0.1737  0.2884  0.4662
  662TIP3    H1 1931   5.064   4.319   3.447  2.4686 -0.8229 -0.3535
  662TIP3    H2 1932   5.009   4.325   3.307  0.5899 -0.3984  0.3735
  663TIP3   OH2 1933   1.857   7.825   3.508  0.7749  0.2139 -0.1003
  663TIP3    H1 1934   1.839   7.734   3.533 -1.8711  0.7426  0.2760
  663TIP3    H2 1935   1.795   7.842   3.437  0.9534  1.8318  0.1073
  664TIP3   OH2 1936   4.761   4.351   1.373 -0.2582  0.1998 -0.0395
  664TIP3    H1 1937   4.845   4.306   1.363 -0.2253  0.2980 -0.2061
  664TIP3    H2 1938   4.784   4.444   1.370 -0.4350  0.2285 -0.5845
  665TIP3   OH2 1939   1.696   4.972   3.925 -0.4202  0.0211 -0.0048
  665TIP3    H1 1940   1.695   4.883   3.890  0.6694 -0.2605  0.6145
  665TIP3    H2 1941   1.782   5.007   3.901 -0.2304  0.3468  1.0635
  666TIP3   OH2 1942   4.928   7.654   4.623  0.5874  0.6006  0.1912
  666TIP3    H1 1943   4.871   7.577   4.628  1.3953  0.0467  1.2006
  666TIP3    H2 1944   4.869   7.727   4.607 -0.0204 -0.5218 -3.8554
  667TIP3   OH2 1945   4.634   3.420   0.428  0.2743  0.1302 -0.1482
  667TIP3    H1 1946   4.723   3.456   0.433  1.3824 -2.1014 -1.9253
  667TIP3    H2 1947   4.587   3.482   0.371  0.0511  2.2625  2.1432
  668TIP3   OH2 1948   6.546   4.551   5.222 -1.0118 -0.4907 -0.0210
  668TIP3    H1 1949   6.477   4.557   5.288  0.1393  1.9819  1.0928
  668TIP3    H2 1950   6.609   4.490   5.259  0.3679  1.9898  2.0730
  669TIP3   OH2 1951   7.865   0.409   4.257  0.2078  0.2801  0.0477
  669TIP3    H1 1952   7.904   0.322   4.266 -0.0942  0.2370  1.1918
  669TIP3    H2 1953   7.772   0.395   4.275 -0.0531  0.6465 -0.9826
  670TIP3   OH2 1954   2.150   3.437   1.690 -0.4213  0.2497  0.5943
  670TIP3    H1 1955   2.127   3.529   1.692  0.9644  0.6213  0.8071
  670TIP3    H2 1956   2.120   3.402   1.773  0.3911  0.8699  1.1592
  671TIP3   OH2 1957   4.865   3.115   1.447  0.6650 -0.3125 -0.1668
  671TIP3    H1 1958   4.831   3.152   1.366  0.6187 -0.3326 -0.1566
  671TIP3    H2 1959   4.846   3.021   1.441  0.5421 -0.2937 -0.0738
  672TIP3   OH2 1960   4.814   0.613   4.969  0.6737  0.4161  0.3924
  672TIP3    H1 1961   4.790   0.557   4.896 -0.0334  2.3804 -0.9763
  672TIP3    H2 1962   4.768   0.695   4.952  2.3388  1.7238  1.8151
  673TIP3   OH2 1963   3.684   2.882   5.883  0.2664  0.0476 -0.2639
  673TIP3    H1 1964   3.708   2.869   5.791 -0.4775  0.0654 -0.4662
  673TIP3    H2 1965   3.623   2.955   5.881 -0.9242 -0.9120  0.0613
  674TIP3   OH2 1966   8.159   2.254   3.623 -0.0804  0.5233  0.4127
  674TIP3    H1 1967   8.217   2.190   3.664 -0.3217 -0.4039 -0.6441
  674TIP3    H2 1968   8.152   2.226   3.532 -0.0565  2.1634 -0.1398
  675TIP3   OH2 1969   0.989   3.912   1.007  0.1725  0.3078 -0.1360
  675TIP3    H1 1970   1.077   3.935   0.977 -0.9617  1.5094 -2.8756
  675TIP3    H2 1971   0.956   3.851   0.942 -1.1222  0.0320  0.7346
  676TIP3   OH2 1972   5.369   5.288   3.800  0.4675 -0.3029  0.1653
  676TIP3    H1 1973   5.332   5.293   3.888  1.1857 -0.0188  0.4542
  676TIP3    H2 1974   5.411   5.373   3.786 -0.2618 -0.0703 -0.7376
  677TIP3   OH2 1975   6.055   2.348   6.029 -0.0780  0.0191 -0.4226
  677TIP3    H1 1976   6.102   2.311   6.103 -0.3573 -3.2926 -1.7472
  677TIP3    H2 1977   6.061   2.282   5.960 -3.5827  0.9891 -1.9036
  678TIP3   OH2 1978   2.624   3.946   3.295 -0.2470 -0.4949 -0.0032
  678TIP3    H1 1979   2.585   4.032   3.309 -0.1876 -0.4976  0.1787
  678TIP3    H2 1980   2.583   3.914   3.214  0.8955  0.3644 -0.9436
  679TIP3   OH2 1981   8.236   7.626   5.271  0.1297  0.1650 -0.3946
  679TIP3    H1 1982   8.319   7.593   5.236 -0.5907 -0.5929 -1.4654
  679TIP3    H2 1983   8.245   7.618   5.366  0.8948 -0.8900 -0.5326
  680TIP3   OH2 1984   4.086   0.594   5.778  0.6302  0.1837 -0.4267
  680TIP3    H1 1985   4.172   0.589   5.735  1.2734  2.3352  0.5004
  680TIP3    H2 1986   4.062   0.686   5.772 -2.3172 -0.5605 -1.8613
  681TIP3   OH2 1987   6.563   0.760   5.837 -0.3995  0.0094  0.1766
  681TIP3    H1 1988   6.638   0.780   5.894 -0.4607  1.7947 -0.2907
  681TIP3    H2 1989   6.490   0.807   5.878 -0.7503  0.1367 -0.5780
  682TIP3   OH2 1990   4.122   4.872   5.057  0.1730 -0.0661 -0.0008
  682TIP3    H1 1991   4.066   4.795   5.062 -0.5482  0.4285 -0.2576
  682TIP3    H2 1992   4.206   4.843   5.093 -0.4757 -0.5954  1.1322
  683TIP3   OH2 1993   3.294   7.087   5.361 -0.0193  1.3332 -0.0739
  683TIP3    H1 1994   3.267   7.008   5.313  1.1459 -0.0512  1.4222
  683TIP3    H2 1995   3.331   7.144   5.294 -0.5777  0.4744 -1.1631
  684TIP3   OH2 1996   4.645   0.773   1.018 -0.5779  0.8535 -0.2217
  684TIP3    H1 1997   4.613   0.836   1.083  1.3401  0.3907  1.2702
  684TIP3    H2 1998   4.708   0.823   0.966 -1.4568  0.9906 -1.1679
  685TIP3   OH2 1999   2.192   4.211   6.413 -0.1426 -0.1927  0.1856
  685TIP3    H1 2000   2.156   4.293   6.447  0.2800 -0.4670  1.3619
  685TIP3    H2 2001   2.144   4.195   6.332 -0.8921  0.7317  0.4294
  686TIP3   OH2 2002   3.745   7.142   6.707  0.0614  0.3463  0.8419
  686TIP3    H1 2003   3.660   7.184   6.693 -0.6659 -0.6236  2.1444
  686TIP3    H2 2004   3.797   7.208   6.753  0.9312  1.8651 -2.0700
  687TIP3   OH2 2005   7.808   2.799   0.759  0.3259 -0.1142  0.1563
  687TIP3    H1 2006   7.722   2.831   0.733 -0.4242  0.4070  2.9104
  687TIP3    H2 2007   7.861   2.878   0.768  0.7939 -0.3464 -0.4714
  688TIP3   OH2 2008   0.081   6.925   5.494 -0.1721 -0.2800 -0.5907
  688TIP3    H1 2009   0.076   6.833   5.522  2.0600 -0.3738 -0.3233
  688TIP3    H2 2010   0.005   6.936   5.437 -1.1687 -1.9380  0.3245
  689TIP3   OH2 2011   5.603   0.426   0.281 -0.6434 -0.0737  0.2790
  689TIP3    H1 2012   5.639   0.390   0.200 -1.3885 -1.6407  0.6038
  689TIP3    H2 2013   5.567   0.511   0.256  2.1152  1.0306 -0.2996
  690TIP3   OH2 2014   2.876   1.219   2.241  0.1458  0.1465  0.1750
  690TIP3    H1 2015   2.944   1.212   2.308  0.4006 -0.0374 -0.0987
  690TIP3    H2 2016   2.794   1.212   2.289  0.3196  0.2992  0.5006
  691TIP3   OH2 2017   5.228   6.369   5.901  0.2388  0.0746 -0.0104
  691TIP3    H1 2018   5.144   6.323   5.890  0.2064  0.3130 -0.7792
  691TIP3    H2 2019   5.248   6.403   5.814  0.3775  1.3356  0.5021
  692TIP3   OH2 2020   7.702   7.524   2.380 -0.2165  0.2118  0.0072
  692TIP3    H1 2021   7.785   7.477   2.383 -0.4192 -0.4240 -2.3326
  692TIP3    H2 2022   7.637   7.455   2.367 -0.5401  0.9937 -3.3867
  693TIP3   OH2 2023   3.828   5.036   2.773 -0.1890 -0.3825  0.3657
  693TIP3    H1 2024   3.817   5.116   2.824  1.1712 -0.4714  0.8271
  693TIP3    H2 2025   3.910   4.998   2.804  1.4166  0.2195 -2.7804
  694TIP3   OH2 2026   4.148   5.896   5.247 -0.4454  0.1879 -0.3469
  694TIP3    H1 2027   4.094   5.830   5.203  0.7646 -0.9079 -0.2526
  694TIP3    H2 2028   4.236   5.883   5.211 -0.1050  1.5196 -0.0515
  695TIP3   OH2 2029   8.092   7.516   2.227 -0.1749 -0.4759 -0.0750
  695TIP3    H1 2030   8.096   7.527   2.322 -0.2213 -1.5638  0.0688
  695TIP3    H2 2031   8.062   7.600   2.194  1.9296  0.6548  0.6846
  696TIP3   OH2 2032   8.206   5.107   3.822  0.2332 -0.5411  0.1488
  696TIP3    H1 2033   8.255   5.057   3.888 -3.0595 -1.5952  2.0416
  696TIP3    H2 2034   8.177   5.186   3.869  0.8345  0.5137 -1.1916
  697TIP3   OH2 2035   6.222   6.909   5.798 -0.4838  0.4792  0.2258
  697TIP3    H1 2036   6.257   6.829   5.836  0.9056  1.4888  1.1676
  697TIP3    H2 2037   6.157   6.879   5.735  0.6418 -1.4042 -0.1033
  698TIP3   OH2 2038   7.822   1.157   6.581 -0.8467  0.0695 -0.0753
  698TIP3    H1 2039   7.727   1.163   6.566 -1.0855 -2.2735  0.1372
  698TIP3    H2 2040   7.835   1.203   6.665 -2.3029 -2.0076  1.3906
  699TIP3   OH2 2041   7.761   3.765   5.284  0.0420  0.2092  0.0524
  699TIP3    H1 2042   7.755   3.725   5.197 -0.8627  1.6229 -0.5644
  699TIP3    H2 2043   7.731   3.697   5.344 -0.8022 -0.2651 -0.8893
  700TIP3   OH2 2044   6.120   6.893   4.286  0.2871  0.3033 -0.4899
  700TIP3    H1 2045   6.177   6.952   4.336  0.0139  1.2350 -1.2401
  700TIP3    H2 2046   6.151   6.901   4.195  0.1122 -0.5611 -0.6326
  701TIP3   OH2 2047   6.903   0.906   2.144 -0.1302  0.4761 -0.1403
  701TIP3    H1 2048   6.890   0.911   2.049 -0.2997  1.2347 -0.0893
  701TIP3    H2 2049   6.912   0.813   2.162 -0.6371  0.2805 -0.8333
  702TIP3   OH2 2050   5.219   5.419   1.369 -0.1415 -1.0735 -0.1800
  702TIP3    H1 2051   5.230   5.324   1.371 -0.9551 -1.1800 -0.4071
  702TIP3    H2 2052   5.287   5.452   1.428  0.1384 -1.7958 -0.0881
  703TIP3   OH2 2053   2.880   0.156   1.471  0.4729 -0.1684  0.7831
  703TIP3    H1 2054   2.964   0.192   1.442  0.3718  0.3603  1.1228
  703TIP3    H2 2055   2.884   0.158   1.567  0.5257 -1.2324  0.8109
  704TIP3   OH2 2056   3.344   6.453   0.551  0.3360  0.2337  0.2487
  704TIP3    H1 2057   3.391   6.493   0.478  0.9870 -0.8831  0.0418
  704TIP3    H2 2058   3.263   6.505   0.559 -0.2464 -0.2514 -1.9096
  705TIP3   OH2 2059   8.264   5.994   5.107 -0.7370  0.8408 -0.0097
  705TIP3    H1 2060   8.266   6.088   5.125 -0.6570  0.9667 -0.6738
  705TIP3    H2 2061   8.351   5.963   5.134  0.7694  1.6389 -3.3800
  706TIP3   OH2 2062   3.237   1.685   1.235  0.0971  0.3038 -0.9036
  706TIP3    H1 2063   3.254   1.747   1.305 -0.3996  0.4346 -0.8950
  706TIP3    H2 2064   3.142   1.687   1.223 -0.2507 -2.1266  0.6654
  707TIP3   OH2 2065   3.958   2.914   0.056  0.0601  0.3560  0.3492
  707TIP3    H1 2066   3.959   2.996   0.007 -0.1836 -0.8367 -1.7702
  707TIP3    H2 2067   3.980   2.939   0.146  1.0652  2.5766 -0.4588
  708TIP3   OH2 2068   6.154   1.940   5.684 -0.3639  0.0716  0.3711
  708TIP3    H1 2069   6.225   1.876   5.687  0.8223  1.2372 -1.2604
  708TIP3    H2 2070   6.088   1.902   5.627 -1.1836 -1.0675  1.9869
  709TIP3   OH2 2071   2.170   5.524   3.230  0.0677  0.9257  0.0568
  709TIP3    H1 2072   2.223   5.492   3.157  0.3583 -0.1656  0.7160
  709TIP3    H2 2073   2.168   5.619   3.219  1.2198  0.8881 -0.6093
  710TIP3   OH2 2074   2.789   3.089   2.609  0.0110  0.0298  0.1762
  710TIP3    H1 2075   2.865   3.100   2.667  0.5769  1.7060 -0.8156
  710TIP3    H2 2076   2.816   3.023   2.546  0.3154 -0.0428  0.3806
  711TIP3   OH2 2077   5.871   3.252   5.704 -0.5025 -0.2435 -0.1475
  711TIP3    H1 2078   5.960   3.238   5.736 -0.0963  0.0324 -1.1365
  711TIP3    H2 2079   5.817   3.254   5.784  0.6061  1.4673  0.6082
  712TIP3   OH2 2080   7.434   2.190   1.136  0.1469 -0.4925 -0.3978
  712TIP3    H1 2081   7.342   2.176   1.112 -0.1055  0.0247  0.2095
  712TIP3    H2 2082   7.481   2.193   1.053 -0.5598  0.3415 -0.7830
  713TIP3   OH2 2083   3.044   1.131   3.322 -0.5220  0.1614 -0.3099
  713TIP3    H1 2084   3.131   1.094   3.305 -0.5566  0.3333 -0.8602
  713TIP3    H2 2085   3.056   1.225   3.315 -0.4045  0.2992  1.2355
  714TIP3   OH2 2086   3.729   6.522   1.674 -0.3672  0.3639 -0.3424
  714TIP3    H1 2087   3.682   6.561   1.600 -0.6668  1.0899  0.2178
  714TIP3    H2 2088   3.705   6.576   1.749 -2.9157 -2.3820  1.0208
  715TIP3   OH2 2089   0.189   0.447   5.483  0.1510 -0.3865 -0.6105
  715TIP3    H1 2090   0.181   0.404   5.398 -0.8581 -0.9696 -0.2286
  715TIP3    H2 2091   0.147   0.387   5.545  0.3853  0.2852  0.2137
  716TIP3   OH2 2092   7.720   3.428   3.294  0.2849  0.0763 -0.1986
  716TIP3    H1 2093   7.643   3.482   3.313 -1.2614 -2.4250  1.1245
  716TIP3    H2 2094   7.773   3.432   3.373  0.4395  0.0272 -0.2974
  717TIP3   OH2 2095   7.308   5.699   3.681  0.0161 -0.0926 -0.2876
  717TIP3    H1 2096   7.248   5.643   3.729 -0.2415  2.3335  2.4398
  717TIP3    H2 2097   7.394   5.658   3.693 -0.2983 -0.4691  0.7486
  718TIP3   OH2 2098   7.028   1.351   3.117  0.2327  0.2885 -0.2594
  718TIP3    H1 2099   6.989   1.272   3.154  1.0890  0.8406  2.0095
  718TIP3    H2 2100   7.004   1.349   3.025 -2.1904 -1.1319  0.3137
  719TIP3   OH2 2101   0.071   5.841   3.310  0.7480  0.2977  0.4678
  719TIP3    H1 2102   0.162   5.864   3.292  0.4253  1.2811 -0.0378
  719TIP3    H2 2103   0.030   5.838   3.224  0.8206 -2.7245  0.4400
  720TIP3   OH2 2104   1.232   5.676   3.123 -0.0754  0.3714 -0.8321
  720TIP3    H1 2105   1.269   5.588   3.137 -1.2973  0.0757  0.8650
  720TIP3    H2 2106   1.249   5.722   3.205 -1.6691  0.8677 -0.7509
  721TIP3   OH2 2107   2.013   1.007   6.197 -0.2044 -0.2732 -0.3880
  721TIP3    H1 2108   1.960   1.030   6.121 -0.4855 -1.2896 -0.5196
  721TIP3    H2 2109   2.044   1.090   6.232 -0.3040  0.2203 -1.4508
  722TIP3   OH2 2110   3.338   6.992   1.090  0.1949 -0.7199  0.1659
  722TIP3    H1 2111   3.373   6.978   1.178 -1.1697 -0.6235  0.7520
  722TIP3    H2 2112   3.411   7.029   1.041  0.6675  0.3309  1.5736
  723TIP3   OH2 2113   0.329   1.370   4.033  0.1195 -0.7162 -0.6068
  723TIP3    H1 2114   0.299   1.367   4.124 -1.5526 -0.3328 -1.1077
  723TIP3    H2 2115   0.424   1.361   4.039  0.0274 -0.9156  1.1588
  724TIP3   OH2 2116   5.888   1.153   1.590  0.3025 -0.2608  0.0159
  724TIP3    H1 2117   5.909   1.138   1.682 -1.2766 -0.5859  0.3488
  724TIP3    H2 2118   5.829   1.228   1.591  1.3207  0.5854 -0.8735
  725TIP3   OH2 2119   5.656   7.591   4.097 -0.5892  0.4664 -0.6518
  725TIP3    H1 2120   5.636   7.671   4.048  0.3298  0.5206 -0.9555
  725TIP3    H2 2121   5.585   7.531   4.075 -1.5536  1.3459 -0.0437
  726TIP3   OH2 2122   5.904   7.769   0.310 -0.2801  0.3422 -0.3481
  726TIP3    H1 2123   5.998   7.763   0.293 -0.2515  1.1120 -0.4878
  726TIP3    H2 2124   5.892   7.717   0.390  0.0214 -0.9567 -1.1026
  727TIP3   OH2 2125   2.165   5.726   3.847  0.4268  0.0941  0.1099
  727TIP3    H1 2126   2.206   5.778   3.778 -0.6739 -0.2541 -0.8345
  727TIP3    H2 2127   2.197   5.637   3.832  0.4050  0.0687  0.2128
  728TIP3   OH2 2128   3.868   0.412   0.368 -0.2103 -0.5690 -0.4891
  728TIP3    H1 2129   3.802   0.472   0.404  0.4340 -0.6917  1.0092
  728TIP3    H2 2130   3.948   0.432   0.418  0.9170 -0.4142 -2.2577
  729TIP3   OH2 2131   1.166   4.675   5.772  0.4826 -0.2774  0.0110
  729TIP3    H1 2132   1.244   4.620   5.774  1.6153  1.2535  0.1171
  729TIP3    H2 2133   1.152   4.699   5.864 -0.1771 -0.6120  0.0024
  730TIP3   OH2 2134   0.050   7.540   1.490 -0.0125 -0.0427 -0.2568
  730TIP3    H1 2135   0.037   7.613   1.550  0.0044  0.0099 -0.3167
  730TIP3    H2 2136  -0.035   7.496   1.485  0.1953 -0.5380  0.4463
  731TIP3   OH2 2137   4.115   3.750   3.111  0.1255  0.4785 -0.0544
  731TIP3    H1 2138   4.079   3.713   3.030 -0.4953  0.2843  0.3024
  731TIP3    H2 2139   4.144   3.837   3.086  0.8661  0.0538 -0.7201
  732TIP3   OH2 2140   3.529   1.959   6.544 -0.2431 -0.1305 -0.2347
  732TIP3    H1 2141   3.547   1.951   6.638  1.6668 -0.9835 -0.6214
  732TIP3    H2 2142   3.435   1.941   6.537 -0.0013 -2.4791  1.2900
  733TIP3   OH2 2143   2.483   5.351   6.579  0.3116  0.2562 -0.0072
  733TIP3    H1 2144   2.446   5.347   6.667  0.4924 -0.9602  0.0266
  733TIP3    H2 2145   2.417   5.311   6.523 -1.0932  3.5147 -0.9356
  734TIP3   OH2 2146   3.479   0.275   4.653  0.1920  0.0569  0.5196
  734TIP3    H1 2147   3.430   0.208   4.701  1.9633 -0.5402  1.6263
  734TIP3    H2 2148   3.560   0.230   4.628  0.3595  1.1039 -0.8944
  735TIP3   OH2 2149   6.914   1.192   2.545 -0.3308  0.2378  0.4047
  735TIP3    H1 2150   6.848   1.240   2.494  0.1074  0.6746  0.2356
  735TIP3    H2 2151   6.987   1.181   2.485  0.2749  0.9382  0.9859
  736TIP3   OH2 2152   7.312   1.322   0.903 -0.5975 -0.4468 -0.8216
  736TIP3    H1 2153   7.222   1.293   0.889 -1.1498 -0.4984  2.2504
  736TIP3    H2 2154   7.307   1.418   0.904 -0.5116 -0.4369 -1.1301
  737TIP3   OH2 2155   2.468   1.562   5.866  0.1011  0.3341 -0.6432
  737TIP3    H1 2156   2.417   1.489   5.901  0.4776 -0.3455 -1.4939
  737TIP3    H2 2157   2.516   1.596   5.941  0.4878 -0.7635 -0.3816
  738TIP3   OH2 2158   7.481   3.891   4.062  0.3239 -0.4246  0.2299
  738TIP3    H1 2159   7.527   3.808   4.056  0.2619 -0.4982  0.7118
  738TIP3    H2 2160   7.388   3.868   4.056  0.3416 -0.2663 -0.8499
  739TIP3   OH2 2161  -0.033   1.511   3.126 -0.5923  0.4168  0.0894
  739TIP3    H1 2162  -0.014   1.574   3.056  0.2757 -1.0030 -1.0086
  739TIP3    H2 2163   0.053   1.481   3.155 -0.9570 -2.2998 -1.3750
  740TIP3   OH2 2164   1.749   0.969   1.574  0.0148 -0.3420 -0.4957
  740TIP3    H1 2165   1.800   0.990   1.496  1.5583  1.7470  0.9560
  740TIP3    H2 2166   1.664   1.010   1.559  0.6072  0.8461 -0.7322
  741TIP3   OH2 2167   6.558   0.723   3.345 -0.0180  0.4976 -0.0186
  741TIP3    H1 2168   6.540   0.666   3.270  1.7641  0.1678 -0.2452
  741TIP3    H2 2169   6.536   0.810   3.314  0.2581  0.3073 -0.7854
  742TIP3   OH2 2170   3.911   3.019   6.020 -0.0472 -0.0474 -0.1513
  742TIP3    H1 2171   3.885   3.092   6.075 -1.2582 -0.6314  0.0687
  742TIP3    H2 2172   3.830   2.987   5.982  0.3926 -1.6354  0.1907
  743TIP3   OH2 2173   3.981   5.939   4.760  0.0588 -0.3264 -0.3254
  743TIP3    H1 2174   3.958   5.866   4.702 -0.9695  0.2138 -0.6163
  743TIP3    H2 2175   4.066   5.914   4.797 -0.3988 -1.8116 -0.1963
  744TIP3   OH2 2176   7.102   6.997   3.305 -0.7291  0.5921 -0.3616
  744TIP3    H1 2177   7.029   6.935   3.301  0.1110 -0.4151 -0.8198
  744TIP3    H2 2178   7.069   7.076   3.262 -1.5207  0.1201 -0.6471
  745TIP3   OH2 2179   3.884   5.623   3.593 -0.3343  0.1174 -0.1078
  745TIP3    H1 2180   3.796   5.635   3.557 -0.4359  2.1311  0.6675
  745TIP3    H2 2181   3.871   5.627   3.688  0.3465 -1.7695  0.1115
  746TIP3   OH2 2182   8.080   5.988   2.374 -0.2576 -0.7512 -0.6926
  746TIP3    H1 2183   8.090   6.065   2.317 -0.0674 -1.0800 -1.1132
  746TIP3    H2 2184   8.125   5.918   2.326  0.8269 -0.7937  0.3460
  747TIP3   OH2 2185   6.863   3.935   3.730  0.7038  0.4226 -0.1015
  747TIP3    H1 2186   6.788   3.911   3.784  0.1860  1.0842 -0.5054
  747TIP3    H2 2187   6.931   3.961   3.793  0.2974  0.6479  0.2491
  748TIP3   OH2 2188   4.828   0.138   0.510 -0.6616 -0.1480 -0.2684
  748TIP3    H1 2189   4.800   0.062   0.561  0.7362  0.5449  1.6771
  748TIP3    H2 2190   4.773   0.137   0.432 -1.2132 -2.6871  0.0752
  749TIP3   OH2 2191   2.083   1.513   1.119  0.1767  0.4567 -0.3321
  749TIP3    H1 2192   2.124   1.484   1.037  0.9077  0.9453 -0.1523
  749TIP3    H2 2193   2.114   1.450   1.184  1.3836  1.3236 -0.0307
  750TIP3   OH2 2194   5.126   3.727   5.759  0.1133 -0.1512  0.4089
  750TIP3    H1 2195   5.162   3.791   5.820  0.4848  1.6415 -1.6050
  750TIP3    H2 2196   5.038   3.759   5.739  0.0016 -0.7108 -0.0195
  751TIP3   OH2 2197   7.528   7.071   1.858 -0.4823 -0.2243  0.1511
  751TIP3    H1 2198   7.561   7.104   1.775 -0.0044  0.4367  0.6002
  751TIP3    H2 2199   7.560   6.981   1.863  1.4324  0.4534  0.6658
  752TIP3   OH2 2200   2.750   1.908   2.832 -0.1714  1.0845 -0.0472
  752TIP3    H1 2201   2.703   1.945   2.906 -0.5565  0.8454 -0.1717
  752TIP3    H2 2202   2.737   1.814   2.839  0.6853  0.9716  0.1839
  753TIP3   OH2 2203   3.164   4.486   1.976 -0.0437 -0.8339 -0.1237
  753TIP3    H1 2204   3.246   4.500   1.929 -0.3157  0.3039 -0.2864
  753TIP3    H2 2205   3.130   4.574   1.991 -0.1100 -1.1531  1.9450
  754TIP3   OH2 2206   3.981   1.857   6.193 -0.1164 -0.0229 -0.0926
  754TIP3    H1 2207   3.887   1.875   6.200  0.1506  2.6762 -2.0336
  754TIP3    H2 2208   4.016   1.881   6.279 -1.3052 -2.4928  1.1784
  755TIP3   OH2 2209   2.569   5.318   3.409 -0.4107 -0.2188 -0.2262
  755TIP3    H1 2210   2.641   5.326   3.347  1.1764 -1.5306  1.3318
  755TIP3    H2 2211   2.496   5.285   3.357  0.7928 -1.0823 -1.4495
  756TIP3   OH2 2212   5.705   2.947   3.206 -0.3942 -0.3027  0.0327
  756TIP3    H1 2213   5.694   3.010   3.277 -1.3990 -0.7694  0.3182
  756TIP3    H2 2214   5.717   2.863   3.251  0.2623 -0.4121 -0.3427
  757TIP3   OH2 2215   0.736   1.124   3.578 -0.2778 -0.0438 -0.5512
  757TIP3    H1 2216   0.745   1.043   3.628 -1.5208 -1.2244 -2.1746
  757TIP3    H2 2217   0.776   1.190   3.635 -0.2803 -1.5553  1.3390
  758TIP3   OH2 2218   4.435   1.871   0.388 -0.1833  0.4217 -0.0008
  758TIP3    H1 2219   4.384   1.791   0.402  1.8382 -1.0283 -0.4977
  758TIP3    H2 2220   4.524   1.847   0.411  0.2983  2.9727  1.1697
  759TIP3   OH2 2221   5.109   2.873   6.107  0.3003 -0.1472  0.0559
  759TIP3    H1 2222   5.077   2.927   6.179 -0.5735 -0.1635 -0.3051
  759TIP3    H2 2223   5.038   2.811   6.090 -0.8184  1.6965 -2.7005
  760TIP3   OH2 2224   1.254   4.364   6.131 -0.1104 -0.5759  0.3591
  760TIP3    H1 2225   1.255   4.275   6.097  0.4104 -0.9887  1.4271
  760TIP3    H2 2226   1.161   4.387   6.135 -0.2744 -1.2396  0.4899
  761TIP3   OH2 2227   2.460   3.875   0.414 -0.6855  0.2598 -0.0129
  761TIP3    H1 2228   2.511   3.956   0.408  1.2352 -0.9731 -1.2245
  761TIP3    H2 2229   2.452   3.859   0.508  0.9947  0.6161  0.2215
  762TIP3   OH2 2230   6.202   0.800   3.674 -0.2480  0.4203  0.2398
  762TIP3    H1 2231   6.254   0.870   3.715  0.0590 -0.4817  1.4712
  762TIP3    H2 2232   6.165   0.751   3.748  2.2150 -2.7226 -0.3557
  763TIP3   OH2 2233   6.861   7.042   0.303  0.1610  0.0651 -0.3119
  763TIP3    H1 2234   6.770   7.070   0.297  0.3105  0.5846 -0.2547
  763TIP3    H2 2235   6.907   7.120   0.335  0.5496 -0.3380  0.1078
  764TIP3   OH2 2236   2.808   0.605   6.045 -0.4999  0.3092  0.3734
  764TIP3    H1 2237   2.899   0.578   6.060 -0.5444  0.7095  1.4181
  764TIP3    H2 2238   2.810   0.648   5.960  0.9051  2.9087  1.5893
  765TIP3   OH2 2239   7.190   7.462   1.264  0.1675 -0.1099 -0.2602
  765TIP3    H1 2240   7.102   7.499   1.269  0.8057  1.3876  1.0987
  765TIP3    H2 2241   7.229   7.502   1.187 -0.2676 -0.6371 -0.7610
  766TIP3   OH2 2242   4.328   2.066   4.862  0.5628  0.1069  0.1840
  766TIP3    H1 2243   4.378   2.034   4.937 -1.6837 -0.7621  1.4025
  766TIP3    H2 2244   4.372   2.029   4.786  1.8007 -0.5380  1.1804
  767TIP3   OH2 2245   0.974   1.934   2.408  0.1917  0.1505  0.4782
  767TIP3    H1 2246   0.880   1.917   2.400  0.5512 -1.2289 -1.3311
  767TIP3    H2 2247   0.984   2.024   2.377 -0.3605 -0.2019 -0.7733
  768TIP3   OH2 2248   4.138   3.437   0.676 -0.5401 -0.6500 -0.1025
  768TIP3    H1 2249   4.221   3.413   0.635  0.6702  1.1482  1.1698
  768TIP3    H2 2250   4.159   3.513   0.731 -2.4542 -1.7799  2.3790
  769TIP3   OH2 2251   2.759   7.675   2.879  0.1851 -0.4386  0.0227
  769TIP3    H1 2252   2.702   7.615   2.830  1.6267 -2.1355  0.3030
  769TIP3    H2 2253   2.706   7.704   2.953 -0.8743 -0.5978 -0.6558
  770TIP3   OH2 2254   5.816   1.558   1.157 -0.3438 -0.0922  0.2924
  770TIP3    H1 2255   5.836   1.474   1.198 -2.6754 -0.3380  1.1085
  770TIP3    H2 2256   5.746   1.539   1.095 -0.4640  1.1356  0.0086
  771TIP3   OH2 2257   3.113   2.304   3.132  0.2428  0.4422  0.1446
  771TIP3    H1 2258   3.183   2.345   3.081  1.5062 -1.6042  0.1013
  771TIP3    H2 2259   3.089   2.227   3.080 -2.4810  1.3683 -0.1063
  772TIP3   OH2 2260   4.383   0.924   5.638  0.3824 -0.1560 -0.9321
  772TIP3    H1 2261   4.378   0.874   5.720  3.0469  1.3749  0.3041
  772TIP3    H2 2262   4.292   0.942   5.616 -0.4921  1.1925  2.8966
  773TIP3   OH2 2263   2.416   1.572   0.852  0.1183 -0.1573  1.5471
  773TIP3    H1 2264   2.348   1.517   0.892 -1.1510  0.2439  0.0514
  773TIP3    H2 2265   2.399   1.566   0.758  2.0951  0.0834  1.1309
  774TIP3   OH2 2266   0.420   1.049   1.387 -0.2959 -0.1053 -0.1045
  774TIP3    H1 2267   0.341   1.091   1.419 -1.1767 -1.3270 -0.6082
  774TIP3    H2 2268   0.402   0.955   1.391  0.9425 -0.4034 -0.6733
  775TIP3   OH2 2269   3.092   3.581   2.074 -0.8167  0.2125 -0.4059
  775TIP3    H1 2270   3.144   3.662   2.074  2.9102 -1.9403 -0.6893
  775TIP3    H2 2271   3.066   3.569   2.165  2.1042 -0.1951  0.4740
  776TIP3   OH2 2272   5.314   2.967   1.088  0.0363 -0.2002  0.5818
  776TIP3    H1 2273   5.388   2.906   1.089  1.5063  1.4714  0.8088
  776TIP3    H2 2274   5.349   3.046   1.046 -1.6004  0.6867  0.7936
  777TIP3   OH2 2275   6.079   5.154   6.150 -0.0899  0.0817 -0.1404
  777TIP3    H1 2276   5.999   5.123   6.109  0.5331 -0.7917 -0.7190
  777TIP3    H2 2277   6.051   5.228   6.204 -1.6160 -1.5477  1.3752
  778TIP3   OH2 2278   0.218   5.240   0.094  0.5396  0.6499 -0.2129
  778TIP3    H1 2279   0.225   5.333   0.115 -0.0237  0.3857  1.2633
  778TIP3    H2 2280   0.163   5.237   0.016 -1.6334  1.4565  1.1968
  779TIP3   OH2 2281   4.510   6.451   4.697 -0.5703  0.6479  0.0597
  779TIP3    H1 2282   4.415   6.456   4.684 -0.5773 -0.2950 -0.3470
  779TIP3    H2 2283   4.541   6.393   4.627  0.5183  2.1282 -0.7427
  780TIP3   OH2 2284   7.688   2.893   4.784  0.0545 -0.5130 -0.0664
  780TIP3    H1 2285   7.709   2.812   4.831  1.4279 -0.5587 -0.7019
  780TIP3    H2 2286   7.610   2.871   4.733  0.1222 -1.2845  0.1472
  781TIP3   OH2 2287   4.926   5.492   2.165 -0.4338  0.0038 -0.3149
  781TIP3    H1 2288   4.868   5.417   2.149 -0.6209 -0.2364  1.2942
  781TIP3    H2 2289   4.889   5.534   2.243  1.1399  0.2484  0.3408
  782TIP3   OH2 2290   1.877   6.896   3.733 -0.8739  0.8392 -0.0308
  782TIP3    H1 2291   1.786   6.880   3.755 -0.6879 -0.0929  0.1116
  782TIP3    H2 2292   1.911   6.810   3.706  0.4152  0.7938  1.5989
  783TIP3   OH2 2293   2.485   0.131   4.823  0.4948 -0.0049 -0.3360
  783TIP3    H1 2294   2.543   0.133   4.747  0.0499 -0.4767 -0.6919
  783TIP3    H2 2295   2.542   0.109   4.896  1.1725  1.7543 -0.2988
  784TIP3   OH2 2296   5.386   6.923   4.263 -0.2131  0.7163 -0.5313
  784TIP3    H1 2297   5.388   6.998   4.322  1.1954  0.2294  0.0794
  784TIP3    H2 2298   5.470   6.879   4.276 -0.4735 -0.2471 -1.8226
  785TIP3   OH2 2299   5.480   4.296   1.198 -0.6053  0.1489 -0.1948
  785TIP3    H1 2300   5.392   4.328   1.178 -1.2894 -0.6579  1.3436
  785TIP3    H2 2301   5.512   4.353   1.268  0.0948  0.4087 -0.7104
  786TIP3   OH2 2302   6.826   7.640   4.798 -0.1460  0.1894 -0.2920
  786TIP3    H1 2303   6.788   7.728   4.785  1.4818  0.8174 -1.0189
  786TIP3    H2 2304   6.754   7.589   4.835 -1.5741  1.4420 -1.2033
  787TIP3   OH2 2305   7.461   2.537   3.893 -0.2070  0.8824 -0.1169
  787TIP3    H1 2306   7.553   2.533   3.868  0.2892  1.1978  1.5956
  787TIP3    H2 2307   7.425   2.452   3.866 -0.0481  1.6089 -2.9884
  788TIP3   OH2 2308   7.122   3.168   5.145  0.1427  0.7863 -0.2321
  788TIP3    H1 2309   7.092   3.216   5.068  0.0420  0.7172 -0.2371
  788TIP3    H2 2310   7.215   3.190   5.153 -0.4007  2.9663  1.1846
  789TIP3   OH2 2311   8.059   6.761   4.410  0.3806  0.1806  0.1688
  789TIP3    H1 2312   8.115   6.751   4.333 -0.4974 -0.6138 -0.3900
  789TIP3    H2 2313   8.120   6.762   4.484  1.1829  0.1640 -0.4748
  790TIP3   OH2 2314   1.988   3.517   1.328  0.6461  0.1252 -0.7491
  790TIP3    H1 2315   1.962   3.600   1.368  1.5836  0.3555 -0.6056
  790TIP3    H2 2316   1.943   3.450   1.380  1.2113  0.4622  0.1981
  791TIP3   OH2 2317   6.229   7.306   5.295 -0.3320  0.3851  0.4749
  791TIP3    H1 2318   6.173   7.266   5.229 -1.0884  2.1821 -0.0359
  791TIP3    H2 2319   6.267   7.232   5.343 -1.6489 -0.9112 -0.4002
  792TIP3   OH2 2320   4.682   0.137   1.259 -0.2240  0.4494  0.1123
  792TIP3    H1 2321   4.637   0.216   1.230  1.2187  0.7281 -1.5350
  792TIP3    H2 2322   4.758   0.169   1.307 -1.0785 -0.0125  1.8871
  793TIP3   OH2 2323   0.962   7.415   1.609 -0.0608 -0.1382  0.4304
  793TIP3    H1 2324   1.057   7.406   1.618 -0.1240 -2.2165 -0.3390
  793TIP3    H2 2325   0.947   7.434   1.516 -0.2970  3.9480  1.1124
  794TIP3   OH2 2326   3.003   4.725   6.781  0.2596  0.1511 -0.6236
  794TIP3    H1 2327   3.010   4.690   6.692 -1.6121  0.4901 -0.9346
  794TIP3    H2 2328   2.935   4.792   6.775  1.0961  1.1776  0.7780
  795TIP3   OH2 2329   6.823   3.281   3.421 -0.8710 -0.3899  0.5699
  795TIP3    H1 2330   6.807   3.330   3.502  1.2366  0.5687  0.4705
  795TIP3    H2 2331   6.796   3.339   3.351  2.3600  1.1556  0.4109
  796TIP3   OH2 2332   6.433   4.384   4.572  0.0384 -0.0566  0.3686
  796TIP3    H1 2333   6.457   4.450   4.508  0.6328  0.4747  1.1192
  796TIP3    H2 2334   6.341   4.401   4.591  0.3000  0.8654  0.8882
  797TIP3   OH2 2335   8.284   0.399   6.394  0.5514 -0.1614 -0.3877
  797TIP3    H1 2336   8.229   0.461   6.441  1.6807  1.1592 -0.7384
  797TIP3    H2 2337   8.228   0.323   6.380 -1.4439  1.3833 -1.4087
  798TIP3   OH2 2338   7.420   3.467   2.362  0.0153  0.1058  0.6629
  798TIP3    H1 2339   7.455   3.378   2.354 -0.1136  0.1377 -0.3685
  798TIP3    H2 2340   7.495   3.518   2.393  0.2505 -0.2612  0.7123
  799TIP3   OH2 2341   0.884   0.981   6.001  0.4555  0.3585 -0.1576
  799TIP3    H1 2342   0.941   0.997   5.925  1.0009 -0.1239  0.1349
  799TIP3    H2 2343   0.834   0.903   5.978  1.1818 -0.2555  0.2684
  800TIP3   OH2 2344   1.071   3.851   5.582  0.1379 -0.0911  0.3186
  800TIP3    H1 2345   1.054   3.789   5.653 -1.9826 -0.9943 -0.8931
  800TIP3    H2 2346   1.039   3.935   5.616 -0.3174 -0.3948  0.6583
  801TIP3   OH2 2347   5.502   2.488   2.595  0.1051  0.4925  0.1476
  801TIP3    H1 2348   5.565   2.540   2.545  0.7074  0.4281  0.8197
  801TIP3    H2 2349   5.422   2.540   2.594  0.2872  0.7683 -0.3715
  802TIP3   OH2 2350   3.873   0.365   3.305  0.4817 -0.0795 -0.3621
  802TIP3    H1 2351   3.853   0.276   3.335  0.3610  0.3225  0.8159
  802TIP3    H2 2352   3.867   0.418   3.384 -1.6935  1.3697 -1.3820
  803TIP3   OH2 2353   3.586   5.926   4.811  0.0614 -0.1037  0.5211
  803TIP3    H1 2354   3.646   5.887   4.875 -0.0441 -0.4740  0.3988
  803TIP3    H2 2355   3.514   5.863   4.805 -0.9649  0.9204  1.5953
  804TIP3   OH2 2356   8.230   4.022   5.134  0.2665  0.5100  0.4323
  804TIP3    H1 2357   8.265   4.077   5.203  0.0285 -1.6446  2.4037
  804TIP3    H2 2358   8.169   3.963   5.178 -0.6599 -0.3299 -1.7828
  805TIP3   OH2 2359   0.020   4.594   4.341 -0.4663  0.0682  0.0231
  805TIP3    H1 2360   0.091   4.532   4.356 -0.5176 -0.2389 -0.9160
  805TIP3    H2 2361   0.044   4.671   4.392  0.5123 -0.0526 -0.2356
  806TIP3   OH2 2362   3.358   3.701   4.207  0.2319 -0.1610 -0.4618
  806TIP3    H1 2363   3.360   3.631   4.271  0.2744 -0.8549 -1.2097
  806TIP3    H2 2364   3.265   3.719   4.193  0.1839 -0.7980 -1.0346
  807TIP3   OH2 2365   2.832   0.604   6.610  0.0859 -0.3971  0.1585
  807TIP3    H1 2366   2.760   0.631   6.553 -0.2308  1.1452  1.2267
  807TIP3    H2 2367   2.789   0.574   6.690  0.5616  1.9298  1.4031
  808TIP3   OH2 2368   7.299   4.716   1.484  0.5372  0.5683 -0.3416
  808TIP3    H1 2369   7.237   4.645   1.465 -0.0886  1.0930 -0.3161
  808TIP3    H2 2370   7.299   4.722   1.580  0.5587  0.6276 -0.3457
  809TIP3   OH2 2371   0.150   1.307   5.457 -0.0940  0.4776 -0.0091
  809TIP3    H1 2372   0.220   1.371   5.469 -1.3332  1.5302  2.1372
  809TIP3    H2 2373   0.162   1.276   5.367  1.7954  2.1854 -0.4289
  810TIP3   OH2 2374   5.135   3.991   1.156 -0.4128  0.3091 -1.0006
  810TIP3    H1 2375   5.161   4.000   1.065  2.6189  0.6013 -0.2155
  810TIP3    H2 2376   5.126   4.081   1.188 -0.4066  0.2232 -0.7535
  811TIP3   OH2 2377   4.799   7.357   0.909 -0.2127 -0.6675 -0.1760
  811TIP3    H1 2378   4.822   7.448   0.892  0.5566 -0.7457  0.3999
  811TIP3    H2 2379   4.703   7.354   0.904 -0.1648 -0.2153 -2.0899
  812TIP3   OH2 2380   4.546   5.386   1.586 -0.2779 -0.8084  0.5530
  812TIP3    H1 2381   4.539   5.325   1.512  1.2771 -0.5178  0.1281
  812TIP3    H2 2382   4.552   5.473   1.544 -0.0400 -0.5864  1.0415
  813TIP3   OH2 2383   4.972   0.863   4.917  0.6690  0.8176  0.8337
  813TIP3    H1 2384   5.036   0.843   4.849  0.1916 -1.3637  0.9296
  813TIP3    H2 2385   4.921   0.936   4.882  1.5110  0.8433 -0.3954
  814TIP3   OH2 2386   1.030   4.713   1.679  0.1466 -0.4523 -0.2794
  814TIP3    H1 2387   1.027   4.669   1.594  1.5756 -0.9184 -0.1267
  814TIP3    H2 2388   1.069   4.649   1.738  0.8572  0.4754  0.2994
  815TIP3   OH2 2389   5.110   3.507   5.924  0.1957  0.1387  0.0904
  815TIP3    H1 2390   5.116   3.473   5.834  1.0303  0.0371  0.1835
  815TIP3    H2 2391   5.096   3.601   5.913  3.0657  0.6255 -0.1765
  816TIP3   OH2 2392   7.526   1.504   6.736 -0.1351 -0.5393  0.5248
  816TIP3    H1 2393   7.464   1.572   6.763 -1.6708 -1.5542 -0.3244
  816TIP3    H2 2394   7.559   1.468   6.819  0.2999  0.8433  0.9816
  817TIP3   OH2 2395   2.091   0.998   1.839  0.5813  0.1806  0.5362
  817TIP3    H1 2396   2.050   1.068   1.890 -0.5177 -1.0488  1.4042
  817TIP3    H2 2397   2.123   1.041   1.760 -1.8237  1.3168  0.1159
  818TIP3   OH2 2398   5.396   0.373   4.674  0.5724  0.5293  0.3122
  818TIP3    H1 2399   5.477   0.415   4.703  1.1238 -0.5169  0.3098
  818TIP3    H2 2400   5.424   0.301   4.618 -0.3084 -0.5632  1.2324
  819TIP3   OH2 2401   5.530   1.261   6.104  0.3519 -0.2091  0.0047
  819TIP3    H1 2402   5.466   1.190   6.102 -0.1014  0.1602  0.8263
  819TIP3    H2 2403   5.484   1.336   6.066  0.8786 -0.3824 -0.9990
  820TIP3   OH2 2404   2.284   3.624   2.512 -0.0489 -0.3035  0.1508
  820TIP3    H1 2405   2.289   3.570   2.433 -0.7517  1.1978 -0.9940
  820TIP3    H2 2406   2.365   3.676   2.510  0.0538 -0.4513  0.5552
  821TIP3   OH2 2407   0.165   1.005   0.398 -0.1143  0.2267  0.0071
  821TIP3    H1 2408   0.081   0.989   0.441 -0.2867 -1.2480 -0.8270
  821TIP3    H2 2409   0.206   0.919   0.392  0.5454  0.6186 -1.4828
  822TIP3   OH2 2410   0.344   6.773   5.461 -0.8623 -0.5997 -0.5872
  822TIP3    H1 2411   0.348   6.841   5.528 -1.7056  0.8919 -2.0093
  822TIP3    H2 2412   0.422   6.720   5.476 -0.2744  0.5641  0.6341
  823TIP3   OH2 2413   2.192   3.856   6.637  0.5829 -0.3407 -0.0421
  823TIP3    H1 2414   2.149   3.829   6.718 -0.7763  0.5151 -0.4251
  823TIP3    H2 2415   2.135   3.822   6.567  1.4099 -0.5623 -0.6228
  824TIP3   OH2 2416   2.126   4.273   2.320 -0.0834 -0.1938  0.0597
  824TIP3    H1 2417   2.180   4.228   2.386 -0.9644 -0.3932  0.6560
  824TIP3    H2 2418   2.166   4.247   2.237  2.4787  1.8716  0.5070
  825TIP3   OH2 2419   2.415   3.203   1.317 -0.2067  0.3864  0.2384
  825TIP3    H1 2420   2.372   3.288   1.334  0.3158  0.5135  0.9639
  825TIP3    H2 2421   2.344   3.146   1.287 -0.5004  1.1761 -0.6338
  826TIP3   OH2 2422   3.137   2.262   2.453  0.5151 -0.0358 -0.6116
  826TIP3    H1 2423   3.087   2.339   2.427  0.3031  0.6247  1.5298
  826TIP3    H2 2424   3.220   2.270   2.408 -0.2571  0.3438 -2.0136
  827TIP3   OH2 2425   1.574   2.975   3.977  0.7964 -0.1025  0.3072
  827TIP3    H1 2426   1.629   2.896   3.971  0.1764 -0.4953 -0.3522
  827TIP3    H2 2427   1.506   2.962   3.910 -0.3231  0.2003  1.3562
  828TIP3   OH2 2428   7.818   7.488   0.784 -0.7096  0.3217  0.0390
  828TIP3    H1 2429   7.770   7.569   0.767 -0.6656  0.7174  1.6526
  828TIP3    H2 2430   7.910   7.511   0.768 -0.8807 -0.0145 -1.5557
  829TIP3   OH2 2431   6.158   5.529   4.581  0.3228  0.0684 -0.2700
  829TIP3    H1 2432   6.166   5.517   4.676  1.3773 -0.5834 -0.4247
  829TIP3    H2 2433   6.239   5.493   4.545  0.3170  1.0733 -1.3598
  830TIP3   OH2 2434   7.876   4.016   4.247  0.5227  0.5798  0.1097
  830TIP3    H1 2435   7.949   4.006   4.186  1.2724  0.2659  1.0322
  830TIP3    H2 2436   7.905   4.084   4.308 -0.2038  0.8755  0.1346
  831TIP3   OH2 2437   2.913   1.517   1.424 -0.6577  0.1734 -0.8750
  831TIP3    H1 2438   2.963   1.436   1.431 -0.3958  0.2012 -2.1845
  831TIP3    H2 2439   2.864   1.522   1.506 -1.4206 -1.7947 -1.1603
  832TIP3   OH2 2440   4.247   2.892   0.611 -0.2648 -0.2909  0.2724
  832TIP3    H1 2441   4.313   2.950   0.650  0.7278 -1.6709  0.7343
  832TIP3    H2 2442   4.248   2.815   0.667  1.2283 -2.3904 -2.3804
  833TIP3   OH2 2443   5.956   6.007   5.040 -0.0165 -0.2140  0.1254
  833TIP3    H1 2444   5.871   6.048   5.055 -0.0271  0.6720 -1.9824
  833TIP3    H2 2445   5.955   5.981   4.948  1.9991 -0.1044  0.0125
  834TIP3   OH2 2446   4.445   3.780   5.712  0.6237 -0.4558  0.2284
  834TIP3    H1 2447   4.362   3.791   5.664 -0.5074  0.0806  2.2080
  834TIP3    H2 2448   4.481   3.869   5.716  0.1715 -0.3086  1.2639
  835TIP3   OH2 2449   4.244   6.649   3.180 -0.3086 -0.2319  0.2169
  835TIP3    H1 2450   4.150   6.668   3.173 -0.5602 -1.7617 -1.2973
  835TIP3    H2 2451   4.265   6.606   3.097  2.1983  1.8448 -0.3554
  836TIP3   OH2 2452   0.969   3.352   1.949 -0.0447 -0.2603  0.2035
  836TIP3    H1 2453   0.948   3.358   2.042 -1.8260  0.8527 -0.2327
  836TIP3    H2 2454   0.898   3.397   1.905  1.2462  0.0773 -1.6654
  837TIP3   OH2 2455   0.881   7.674   2.794  0.2596  0.3372 -0.1968
  837TIP3    H1 2456   0.931   7.678   2.875 -1.6846 -0.0104  1.0811
  837TIP3    H2 2457   0.833   7.757   2.792 -0.3563 -0.0243 -0.5677
  838TIP3   OH2 2458   3.160   6.989   2.196  0.4628  0.3561 -0.3965
  838TIP3    H1 2459   3.237   6.936   2.216 -0.1308  0.0971  1.3560
  838TIP3    H2 2460   3.110   6.991   2.277 -2.2004 -0.7872 -1.8781
  839TIP3   OH2 2461   0.298   1.892   3.100 -0.3659 -0.1749  0.9942
  839TIP3    H1 2462   0.305   1.910   3.194 -2.5310  3.0058  0.6896
  839TIP3    H2 2463   0.372   1.939   3.061  0.6581 -1.6707  1.0506
  840TIP3   OH2 2464   0.382   2.235   0.004 -0.0973 -0.0481  0.0288
  840TIP3    H1 2465   0.314   2.207   0.065 -0.4677  1.0493  0.1444
  840TIP3    H2 2466   0.394   2.328   0.024 -1.7895  0.9542 -3.0088
  841TIP3   OH2 2467   4.799   1.392   4.058  0.5607  0.4022  0.0505
  841TIP3    H1 2468   4.861   1.364   4.125  1.7212  1.1926 -0.6525
  841TIP3    H2 2469   4.851   1.401   3.978 -0.9092 -1.2253 -1.1818
  842TIP3   OH2 2470   5.832   3.405   5.039 -0.6644  0.3784  0.2137
  842TIP3    H1 2471   5.855   3.404   4.946 -0.4078 -0.0208  0.2818
  842TIP3    H2 2472   5.740   3.434   5.040 -2.0779 -3.4338 -0.5044
  843TIP3   OH2 2473   4.806   0.788   0.499  0.2216  0.5166  0.7966
  843TIP3    H1 2474   4.890   0.746   0.483  0.0576  0.4823 -0.0072
  843TIP3    H2 2475   4.829   0.874   0.534  0.6803  1.4524 -1.6272
  844TIP3   OH2 2476   6.268   4.252   0.600  0.5644 -0.0693 -0.0580
  844TIP3    H1 2477   6.252   4.294   0.516 -0.6769 -1.1323 -0.3969
  844TIP3    H2 2478   6.180   4.235   0.635  0.9907 -2.1866  0.1122
  845TIP3   OH2 2479   6.801   5.239   2.086  0.3511 -0.8946 -0.1381
  845TIP3    H1 2480   6.860   5.248   2.161  0.0924  0.3233 -0.0649
  845TIP3    H2 2481   6.820   5.316   2.031 -1.4074 -0.2726  0.0652
  846TIP3   OH2 2482   4.391   2.044   6.336 -0.3323 -0.6622  0.3298
  846TIP3    H1 2483   4.370   2.137   6.331 -0.5820 -0.6634  1.1463
  846TIP3    H2 2484   4.484   2.041   6.357 -0.8070 -0.5065  2.8427
  847TIP3   OH2 2485   4.456   5.773   2.844  0.2628 -0.1328 -0.1127
  847TIP3    H1 2486   4.430   5.688   2.810 -0.0539 -0.0119 -0.1703
  847TIP3    H2 2487   4.542   5.789   2.805 -1.0876  1.0882 -2.8199
  848TIP3   OH2 2488   4.179   3.936   0.087 -0.3822 -0.6573 -0.5049
  848TIP3    H1 2489   4.171   4.005   0.153  1.3620 -0.8898  0.0211
  848TIP3    H2 2490   4.090   3.917   0.061 -1.1496 -0.5892  1.8222
  849TIP3   OH2 2491   0.241   5.987   6.196  0.1388 -0.7432  0.2164
  849TIP3    H1 2492   0.259   5.961   6.106  0.6576 -1.6042  0.5609
  849TIP3    H2 2493   0.224   5.905   6.242 -0.7446 -0.2674  0.7754
  850TIP3   OH2 2494   1.989   5.390   1.228  0.6525  0.4232  0.3152
  850TIP3    H1 2495   1.947   5.377   1.143 -1.9429  0.9136  1.4230
  850TIP3    H2 2496   2.080   5.412   1.207  0.4294 -0.7722 -2.2495
  851TIP3   OH2 2497   3.302   3.036   4.120 -0.3770  0.0961 -0.3298
  851TIP3    H1 2498   3.316   2.941   4.115 -0.4060  0.1230 -0.9221
  851TIP3    H2 2499   3.218   3.050   4.077 -0.9308  0.2663  0.7621
  852TIP3   OH2 2500   5.844   4.036   2.056  0.1449 -0.4169  0.3625
  852TIP3    H1 2501   5.775   3.995   2.108  2.1268 -1.3361  2.4222
  852TIP3    H2 2502   5.805   4.118   2.025 -1.8073 -0.8296  1.5461
  853TIP3   OH2 2503   3.957   6.612   4.298 -0.0603 -0.7064 -0.5754
  853TIP3    H1 2504   3.904   6.682   4.337 -0.2448 -1.2080  0.0782
  853TIP3    H2 2505   4.033   6.605   4.355 -0.6739 -1.9287  0.1156
  854TIP3   OH2 2506   4.771   6.351   1.102 -0.1368  0.0301 -0.1653
  854TIP3    H1 2507   4.851   6.358   1.154 -0.7699  1.3005  0.7184
  854TIP3    H2 2508   4.800   6.346   1.012  0.9439  0.6036  0.1394
  855TIP3   OH2 2509   5.422   7.717   2.613 -0.2086  0.3815  0.0072
  855TIP3    H1 2510   5.350   7.779   2.596  1.8373  2.7822 -0.4867
  855TIP3    H2 2511   5.398   7.676   2.696 -2.8434 -0.0401 -0.8551
  856TIP3   OH2 2512   3.407   0.738   2.283 -0.4040  0.3145 -0.2236
  856TIP3    H1 2513   3.434   0.657   2.240 -0.5971 -0.2267  0.6289
  856TIP3    H2 2514   3.392   0.712   2.374 -0.1036  1.3933  0.1482
  857TIP3   OH2 2515   2.971   3.376   1.271  0.4770  0.2454  0.5941
  857TIP3    H1 2516   3.005   3.309   1.330 -0.3105 -2.4272 -1.7760
  857TIP3    H2 2517   2.923   3.436   1.328  1.0229 -1.3178  2.8318
  858TIP3   OH2 2518   2.784   7.347   3.355  0.1433  0.3294 -0.3878
  858TIP3    H1 2519   2.778   7.380   3.265  0.8892 -0.8279 -0.8876
  858TIP3    H2 2520   2.696   7.358   3.390 -0.9775 -1.7887 -2.2244
  859TIP3   OH2 2521   5.405   7.292   1.170  0.0608  0.2650 -0.1126
  859TIP3    H1 2522   5.398   7.358   1.101 -0.0669  0.5726  0.1878
  859TIP3    H2 2523   5.379   7.339   1.250  0.1709 -0.0944  0.1359
  860TIP3   OH2 2524   4.755   5.677   4.785  0.9083  0.2456  0.1243
  860TIP3    H1 2525   4.850   5.678   4.792  1.0115 -0.2564 -0.8643
  860TIP3    H2 2526   4.729   5.595   4.826  1.1018 -0.5529 -1.2671
  861TIP3   OH2 2527   0.467   6.513   6.284 -0.1188 -0.1633 -1.1166
  861TIP3    H1 2528   0.372   6.525   6.284 -0.4866 -1.5678  2.9366
  861TIP3    H2 2529   0.480   6.418   6.296  1.6752  0.2108  0.4960
  862TIP3   OH2 2530   0.970   5.317   3.704 -0.2391  0.2320  0.3266
  862TIP3    H1 2531   0.899   5.253   3.702  0.8610 -1.0306 -0.2843
  862TIP3    H2 2532   0.978   5.341   3.796 -0.9412 -0.2107  0.5083
  863TIP3   OH2 2533   3.851   5.382   5.207  0.3226 -0.0546 -0.4530
  863TIP3    H1 2534   3.771   5.362   5.255  0.8071 -0.4878  0.1883
  863TIP3    H2 2535   3.822   5.394   5.116 -0.4585 -0.2540 -0.2367
  864TIP3   OH2 2536   7.832   2.078   5.747 -0.3375  0.2469  0.6300
  864TIP3    H1 2537   7.880   2.077   5.830 -0.4866  0.3046  0.7155
  864TIP3    H2 2538   7.794   2.165   5.742 -3.0836 -0.7581  2.0630
  865TIP3   OH2 2539   0.751   1.750   0.453 -0.3496  0.1283 -0.2988
  865TIP3    H1 2540   0.672   1.797   0.479 -0.6768 -1.0029  0.8215
  865TIP3    H2 2541   0.801   1.740   0.533  0.9891  0.8775 -1.0045
  866TIP3   OH2 2542   5.541   3.195   5.958 -0.2667 -0.5804 -0.5410
  866TIP3    H1 2543   5.628   3.155   5.950  0.0909  0.1673 -0.4924
  866TIP3    H2 2544   5.487   3.126   5.997  0.3274 -1.0181 -0.4601
  867TIP3   OH2 2545   6.460   0.058   3.321  0.2197 -0.0145 -0.2296
  867TIP3    H1 2546   6.464  -0.013   3.385  0.3978  2.1721  2.3464
  867TIP3    H2 2547   6.541   0.049   3.271  0.4241 -1.3781  0.2964
  868TIP3   OH2 2548   0.735   6.621   2.830  0.2119 -0.1641  0.3459
  868TIP3    H1 2549   0.820   6.617   2.787  0.4960  0.5321  0.8196
  868TIP3    H2 2550   0.698   6.533   2.820  0.4343 -0.1264 -0.9669
  869TIP3   OH2 2551   6.025   1.829   3.612 -0.4310 -0.0544 -0.3713
  869TIP3    H1 2552   5.958   1.814   3.678  0.1163  1.1912  0.5051
  869TIP3    H2 2553   5.978   1.873   3.541 -0.8180 -0.4669 -0.3781
  870TIP3   OH2 2554   6.552   0.999   4.103  0.2997 -0.0743  0.1368
  870TIP3    H1 2555   6.603   1.037   4.031  1.7483 -0.0759  1.1231
  870TIP3    H2 2556   6.568   1.058   4.177  0.1231 -0.9524  0.8816
  871TIP3   OH2 2557   6.536   1.542   1.121  0.0048  0.2481  0.6952
  871TIP3    H1 2558   6.610   1.587   1.161  0.1994 -0.3638  1.0415
  871TIP3    H2 2559   6.547   1.450   1.146 -0.5491  0.0537  0.2608
  872TIP3   OH2 2560   5.660   2.188   0.260 -0.0888  0.2032 -0.7610
  872TIP3    H1 2561   5.738   2.230   0.223  0.4053 -0.1165 -0.1027
  872TIP3    H2 2562   5.693   2.109   0.303 -0.5644  0.7530  0.6994
  873TIP3   OH2 2563   2.920   2.106   0.771  1.0208  0.6671 -0.0463
  873TIP3    H1 2564   2.947   2.058   0.693  1.5274  0.2320  0.3888
  873TIP3    H2 2565   2.836   2.068   0.795  0.4369  1.3913 -0.8685
  874TIP3   OH2 2566   1.117   2.739   0.453 -0.1528 -0.3793  0.1822
  874TIP3    H1 2567   1.168   2.718   0.375  1.9758  0.1375  1.3471
  874TIP3    H2 2568   1.027   2.747   0.422  0.8243  1.4588 -2.5494
  875TIP3   OH2 2569   3.811   0.274   5.685 -0.5350 -0.2978  0.8137
  875TIP3    H1 2570   3.892   0.302   5.729 -1.3071  0.3967  1.8453
  875TIP3    H2 2571   3.750   0.346   5.699 -1.2130 -0.6365 -0.3138
  876TIP3   OH2 2572   3.248   7.601   6.445  0.2490  0.4826  0.2706
  876TIP3    H1 2573   3.283   7.690   6.442 -1.1929  1.1259  1.3975
  876TIP3    H2 2574   3.177   7.601   6.380  0.3481  0.0955  0.1577
  877TIP3   OH2 2575   2.788   5.627   2.936 -0.3010  0.0993  0.1543
  877TIP3    H1 2576   2.859   5.643   2.874  1.0124 -0.7025  1.3838
  877TIP3    H2 2577   2.759   5.714   2.963 -2.6232  0.5924 -3.3284
  878TIP3   OH2 2578   1.108   0.264   2.394  0.1379  0.1744 -0.0474
  878TIP3    H1 2579   1.078   0.292   2.480  0.9455  0.3514  0.1756
  878TIP3    H2 2580   1.171   0.330   2.367 -0.9519  0.7570 -1.2851
  879TIP3   OH2 2581   5.970   3.869   0.661 -0.2521  0.3303  0.3803
  879TIP3    H1 2582   5.935   3.784   0.686  0.5535  0.3020  1.5020
  879TIP3    H2 2583   5.947   3.927   0.734  0.4191  0.7319  0.2826
  880TIP3   OH2 2584   1.712   4.106   0.200  0.1449 -0.0103 -0.3226
  880TIP3    H1 2585   1.722   4.016   0.170  0.3765  0.2047 -0.9118
  880TIP3    H2 2586   1.798   4.129   0.235  0.4512  0.3648 -1.2733
  881TIP3   OH2 2587   7.719   0.538   5.151  0.5660 -0.3995 -0.1247
  881TIP3    H1 2588   7.697   0.630   5.138 -0.4217 -0.3983  1.3583
  881TIP3    H2 2589   7.781   0.519   5.081  0.8411  1.4042 -0.4335
  882TIP3   OH2 2590   1.365   7.490   2.989 -0.0589  0.8331  0.1265
  882TIP3    H1 2591   1.273   7.474   3.009  0.3489  0.3409  1.7092
  882TIP3    H2 2592   1.388   7.568   3.039  0.5095  0.6860  0.1069
  883TIP3   OH2 2593   7.097   7.205   2.000 -0.1475 -0.7770  0.2357
  883TIP3    H1 2594   7.189   7.233   1.996 -0.5973  0.6970 -0.4254
  883TIP3    H2 2595   7.047   7.284   1.982 -1.5776 -1.4708  0.9992
  884TIP3   OH2 2596   3.697   3.734   1.111 -0.8140 -0.0948 -0.1265
  884TIP3    H1 2597   3.750   3.735   1.031 -1.9827 -0.9585 -0.9603
  884TIP3    H2 2598   3.631   3.802   1.096 -1.6942 -0.9889 -0.3906
  885TIP3   OH2 2599   7.575   4.504   2.270 -0.1240 -0.3605 -0.7482
  885TIP3    H1 2600   7.512   4.505   2.198  1.1723  0.1191 -1.9060
  885TIP3    H2 2601   7.580   4.411   2.295 -0.8045 -0.4928 -1.0694
  886TIP3   OH2 2602   4.676   4.405   1.664 -0.2144 -0.1009  1.3135
  886TIP3    H1 2603   4.596   4.457   1.662 -0.5809 -0.6602  1.4257
  886TIP3    H2 2604   4.730   4.442   1.594 -1.1632 -0.6870  0.2548
  887TIP3   OH2 2605   3.689   7.476   3.822 -0.3888  0.0766  0.3503
  887TIP3    H1 2606   3.594   7.487   3.821 -0.3562  0.5647 -2.1714
  887TIP3    H2 2607   3.705   7.397   3.771  0.6195  0.9125 -0.6726
  888TIP3   OH2 2608   0.239   0.669   0.796  0.2658  0.6850  0.2327
  888TIP3    H1 2609   0.208   0.691   0.884  1.8527  1.8849  0.5368
  888TIP3    H2 2610   0.174   0.709   0.737  0.2438  1.5681  0.8443
  889TIP3   OH2 2611   1.922   2.183   1.777 -0.2896 -0.6313  0.4422
  889TIP3    H1 2612   1.869   2.244   1.726  1.9518  0.0220 -1.2851
  889TIP3    H2 2613   1.928   2.223   1.864  0.6356  1.3782 -0.4812
  890TIP3   OH2 2614   2.014   7.195   0.990  0.1942  0.4320  0.2720
  890TIP3    H1 2615   1.943   7.258   0.980  0.4755  0.4845 -1.9842
  890TIP3    H2 2616   2.068   7.230   1.061 -1.6523  0.7006  1.6196
  891TIP3   OH2 2617   0.921   4.691   3.788 -0.2159 -0.2167 -0.7864
  891TIP3    H1 2618   0.889   4.646   3.866 -2.1726  1.5603 -0.4888
  891TIP3    H2 2619   0.985   4.754   3.821  0.3410 -0.7317 -0.8624
  892TIP3   OH2 2620   8.082   7.730   1.035  0.1776 -0.4934 -0.0717
  892TIP3    H1 2621   8.032   7.661   1.079  1.0913 -0.6958  0.6843
  892TIP3    H2 2622   8.069   7.808   1.089  1.1337 -0.6930  0.4709
  893TIP3   OH2 2623   4.030   5.576   4.880 -0.3229 -0.4226  1.2609
  893TIP3    H1 2624   3.997   5.486   4.882 -0.2839 -0.4345  1.3476
  893TIP3    H2 2625   4.001   5.609   4.795  0.1565 -0.7043  0.9785
  894TIP3   OH2 2626   0.644   2.493   6.375 -0.2069  0.0581 -0.4385
  894TIP3    H1 2627   0.679   2.495   6.286  2.6206 -2.6108  0.4384
  894TIP3    H2 2628   0.587   2.416   6.376  1.9708 -1.6357  0.6490
  895TIP3   OH2 2629   4.159   2.985   2.330 -0.6078  0.4184  0.3539
  895TIP3    H1 2630   4.181   3.034   2.409 -0.6562 -0.5981  1.0216
  895TIP3    H2 2631   4.128   3.051   2.268 -2.4872  1.0328  1.8585
  896TIP3   OH2 2632   6.466   4.766   4.926  0.1646 -0.6535  0.0073
  896TIP3    H1 2633   6.426   4.819   4.994  1.6589 -0.3037  0.6510
  896TIP3    H2 2634   6.452   4.675   4.954  1.1681 -0.5084  1.0539
  897TIP3   OH2 2635   7.409   1.464   2.331 -0.2111  0.5043  0.3474
  897TIP3    H1 2636   7.437   1.542   2.284  0.1748  0.3059  0.2478
  897TIP3    H2 2637   7.463   1.393   2.295  0.9893  0.5488  1.9323
  898TIP3   OH2 2638   4.765   4.961   5.367  0.5837  0.8709  0.3776
  898TIP3    H1 2639   4.727   5.042   5.335 -1.4926  0.6777  2.0751
  898TIP3    H2 2640   4.843   4.988   5.415  0.8268  1.6743 -0.4549
  899TIP3   OH2 2641   5.961   2.992   3.472  0.9265  0.7365  0.2659
  899TIP3    H1 2642   5.947   2.969   3.564  0.4318  0.9604  0.2481
  899TIP3    H2 2643   5.996   2.911   3.433 -0.6721  0.0199  0.2389
  900TIP3   OH2 2644   1.924   3.159   0.124 -0.1719  0.5776 -0.4508
  900TIP3    H1 2645   1.999   3.130   0.072 -0.8305  0.7179 -1.4958
  900TIP3    H2 2646   1.929   3.107   0.204  0.8117  0.3007 -0.6774
  901TIP3   OH2 2647   2.265   6.666   5.329  0.3289  0.3100 -0.2556
  901TIP3    H1 2648   2.272   6.713   5.412  1.0984  0.6590 -0.5197
  901TIP3    H2 2649   2.316   6.717   5.267 -1.8463  1.1708 -1.4655
  902TIP3   OH2 2650   1.154   2.046   0.560  0.5590 -0.5152  0.6804
  902TIP3    H1 2651   1.120   2.101   0.631  0.2007 -0.3076  0.3549
  902TIP3    H2 2652   1.247   2.037   0.579  0.7906  0.8547  0.3370
  903TIP3   OH2 2653   5.737   4.873   2.314 -0.2955  0.0130 -0.2300
  903TIP3    H1 2654   5.764   4.795   2.362 -1.3314 -1.3672 -1.7984
  903TIP3    H2 2655   5.642   4.873   2.321 -0.3463  0.7300 -0.8606
  904TIP3   OH2 2656   6.403   0.688   6.721  0.1028  0.4014 -0.2141
  904TIP3    H1 2657   6.309   0.693   6.742  0.2219  1.4665  0.1100
  904TIP3    H2 2658   6.429   0.779   6.706  1.3618  0.2572  0.9081
  905TIP3   OH2 2659   3.738   4.461   2.552  0.0663  0.2999  0.4041
  905TIP3    H1 2660   3.686   4.384   2.528  0.4453  0.2111 -0.1339
  905TIP3    H2 2661   3.829   4.430   2.549  0.1380  0.3099  1.8480
  906TIP3   OH2 2662   1.404   7.320   2.773 -0.1896  0.2218 -0.1100
  906TIP3    H1 2663   1.399   7.230   2.808  2.2665 -0.2130 -0.6844
  906TIP3    H2 2664   1.402   7.375   2.851 -0.6224 -0.3908  0.3283
  907TIP3   OH2 2665   0.415   0.462   4.330  0.3560  0.2996 -0.2351
  907TIP3    H1 2666   0.476   0.513   4.278 -1.0725  0.0945 -2.2707
  907TIP3    H2 2667   0.364   0.412   4.265 -0.0498 -1.7248  1.4965
  908TIP3   OH2 2668   1.153   6.345   4.786  0.1040 -0.2967  0.2200
  908TIP3    H1 2669   1.242   6.378   4.774  0.0258 -0.9395 -3.1956
  908TIP3    H2 2670   1.096   6.411   4.745 -0.8197 -0.7301  0.7610
  909TIP3   OH2 2671   0.693   2.231   4.401 -0.5521 -0.0830 -0.0195
  909TIP3    H1 2672   0.764   2.170   4.423  2.9291  3.4692 -0.3324
  909TIP3    H2 2673   0.708   2.253   4.309 -2.6724  0.1308 -0.3523
  910TIP3   OH2 2674   0.078   7.525   2.666  0.2925  0.1631  0.1660
  910TIP3    H1 2675   0.120   7.565   2.742  1.0494 -1.1961  0.4956
  910TIP3    H2 2676   0.084   7.431   2.682 -1.1445 -0.1143 -0.7314
  911TIP3   OH2 2677   8.207   5.766   5.445 -0.1492  0.5923 -0.5104
  911TIP3    H1 2678   8.200   5.672   5.430  0.4373  0.6405 -1.1373
  911TIP3    H2 2679   8.182   5.806   5.362 -0.7576  1.0105 -0.1396
  912TIP3   OH2 2680   1.598   0.349   6.686  0.1112  0.5242 -0.3916
  912TIP3    H1 2681   1.535   0.366   6.616 -1.1855 -0.8014  0.3861
  912TIP3    H2 2682   1.545   0.343   6.765  1.3347  0.2044  0.4374
  913TIP3   OH2 2683   5.808   5.569   1.336 -0.0413  0.1163  0.0281
  913TIP3    H1 2684   5.852   5.533   1.413  2.7341  1.7827 -0.5902
  913TIP3    H2 2685   5.732   5.615   1.370  0.6349  0.0530  1.6863
  914TIP3   OH2 2686   5.815   2.390   0.152 -0.0851  0.0541  0.2523
  914TIP3    H1 2687   5.893   2.414   0.203 -0.0193 -0.2432  0.2931
  914TIP3    H2 2688   5.849   2.343   0.076 -0.2420 -0.3550  0.4320
  915TIP3   OH2 2689   7.996   5.849   3.046  0.0767  0.1597  0.5988
  915TIP3    H1 2690   7.992   5.825   2.953 -1.8862  1.0441  0.3957
  915TIP3    H2 2691   8.005   5.765   3.092 -2.1427 -0.6265 -0.2791
  916TIP3   OH2 2692   3.545   2.703   0.186 -0.6059  0.5154 -0.2157
  916TIP3    H1 2693   3.560   2.684   0.279 -0.6234  1.4886 -0.0074
  916TIP3    H2 2694   3.631   2.690   0.145 -0.2714  1.4064  0.1744
  917TIP3   OH2 2695   1.543   3.920   4.607 -0.0533 -0.0042  0.0153
  917TIP3    H1 2696   1.468   3.865   4.585  0.3736 -1.6455  2.2960
  917TIP3    H2 2697   1.510   3.977   4.677  0.6519 -0.3484  0.6393
  918TIP3   OH2 2698   8.061   3.883   0.515 -0.0233 -0.4587  0.1972
  918TIP3    H1 2699   8.145   3.842   0.537 -0.3110 -1.1917 -0.0308
  918TIP3    H2 2700   8.044   3.944   0.587  0.2902 -0.9414  0.6824
  919TIP3   OH2 2701   1.877   4.550   2.278  0.5375 -0.0826  0.3186
  919TIP3    H1 2702   1.919   4.623   2.322 -0.4905 -0.6214  2.2838
  919TIP3    H2 2703   1.835   4.500   2.348  0.6405 -2.1880 -1.0284
  920TIP3   OH2 2704   5.162   6.961   1.939 -0.0016 -0.7466 -0.3817
  920TIP3    H1 2705   5.170   6.937   2.031  1.7671  0.7533 -0.0862
  920TIP3    H2 2706   5.072   6.994   1.930 -0.7956 -2.6179  0.3300
  921TIP3   OH2 2707   0.499   4.550   6.611  0.0108 -0.3514  0.3581
  921TIP3    H1 2708   0.476   4.637   6.578 -0.4998 -1.2481 -1.8685
  921TIP3    H2 2709   0.594   4.545   6.601 -0.1242 -0.6068 -1.2203
  922TIP3   OH2 2710   1.319   1.439   2.712 -0.8412 -0.3292  0.0734
  922TIP3    H1 2711   1.335   1.503   2.643  0.2694  0.1723  0.7574
  922TIP3    H2 2712   1.292   1.359   2.666  0.8924 -0.3328 -1.0133
  923TIP3   OH2 2713   4.066   3.940   5.999  0.1720  0.2999  0.1470
  923TIP3    H1 2714   4.129   3.881   5.957  0.5014 -1.0544  2.3750
  923TIP3    H2 2715   3.981   3.900   5.984 -0.0222  1.2103 -1.3773
  924TIP3   OH2 2716   7.697   2.591   4.763  0.0760 -0.1568 -0.2848
  924TIP3    H1 2717   7.777   2.546   4.791 -0.1797  0.3603  1.4034
  924TIP3    H2 2718   7.651   2.527   4.708  0.2681 -1.5538  1.1212
  925TIP3   OH2 2719   7.846   5.682   3.397  0.3482 -0.6588  0.4127
  925TIP3    H1 2720   7.927   5.673   3.346 -0.0530  1.0596 -0.6241
  925TIP3    H2 2721   7.805   5.595   3.391 -0.8112 -0.1027 -4.3241
  926TIP3   OH2 2722   7.686   7.729   4.427 -0.0003  0.3321  0.1537
  926TIP3    H1 2723   7.721   7.706   4.513 -0.9148  0.0775  0.4720
  926TIP3    H2 2724   7.763   7.746   4.373  0.6279  3.9536  1.8943
  927TIP3   OH2 2725   6.080   4.166   4.741 -0.0114  0.2072 -0.1197
  927TIP3    H1 2726   6.124   4.144   4.659 -0.7863 -0.4406 -0.3749
  927TIP3    H2 2727   6.029   4.244   4.721 -0.5449 -0.2053 -0.3832
  928TIP3   OH2 2728   8.260   1.823   3.518 -0.1757  0.1795 -0.6254
  928TIP3    H1 2729   8.355   1.829   3.507 -0.2600  1.1195 -0.9748
  928TIP3    H2 2730   8.244   1.731   3.539  0.8424  0.0705 -0.2371
  929TIP3   OH2 2731   1.038   0.373   4.959 -0.2248  0.4199  0.2443
  929TIP3    H1 2732   0.999   0.402   5.042  0.0554  0.7111  0.2748
  929TIP3    H2 2733   1.007   0.283   4.949 -1.9843  1.0451 -0.3879
  930TIP3   OH2 2734   3.947   4.439   0.130 -0.5987  0.5791 -0.0718
  930TIP3    H1 2735   3.976   4.524   0.162  0.1941  0.3074 -0.0270
  930TIP3    H2 2736   3.938   4.450   0.035  0.2230  0.5230 -0.1635
  931TIP3   OH2 2737   4.817   1.100   1.256 -0.2112  0.3207  0.1759
  931TIP3    H1 2738   4.860   1.159   1.317  1.3285 -0.2485 -0.3135
  931TIP3    H2 2739   4.876   1.095   1.181 -0.7458 -1.0959 -0.1943
  932TIP3   OH2 2740   4.870   3.618   3.674 -0.6202  0.1811  0.3234
  932TIP3    H1 2741   4.800   3.593   3.735 -3.3189  1.4514 -1.9823
  932TIP3    H2 2742   4.867   3.714   3.674  0.4485  0.2275 -0.6093
  933TIP3   OH2 2743   3.850   5.970   6.475 -0.3153 -0.1056  0.4159
  933TIP3    H1 2744   3.800   5.890   6.458  0.1830  0.1296 -2.6826
  933TIP3    H2 2745   3.784   6.038   6.487 -0.7365 -0.5324  0.5193
  934TIP3   OH2 2746   7.503   2.403   2.497  0.5298  0.2230  0.1413
  934TIP3    H1 2747   7.542   2.320   2.471  0.8820  0.1339  0.9136
  934TIP3    H2 2748   7.465   2.385   2.583  0.7501  0.9014  0.3875
  935TIP3   OH2 2749   7.685   4.695   3.814 -0.2885 -0.1967  0.7877
  935TIP3    H1 2750   7.615   4.631   3.831 -1.3047  1.0837  1.6346
  935TIP3    H2 2751   7.642   4.764   3.763  0.7479 -0.0771  0.0489
  936TIP3   OH2 2752   5.571   4.814   2.954 -0.1229  0.8858 -0.4444
  936TIP3    H1 2753   5.587   4.722   2.931  2.8443  0.6719  1.7914
  936TIP3    H2 2754   5.477   4.819   2.970 -0.1930 -2.1700  0.7760
  937TIP3   OH2 2755   0.844   1.920   3.775  0.0333 -0.3344 -0.0992
  937TIP3    H1 2756   0.789   1.906   3.698  0.6615  0.3436 -0.6901
  937TIP3    H2 2757   0.804   1.994   3.820 -1.0399 -1.4903  0.9121
  938TIP3   OH2 2758   5.848   1.022   2.112 -0.1589  0.0790 -0.7567
  938TIP3    H1 2759   5.781   0.969   2.157 -1.0226  2.0127  0.3579
  938TIP3    H2 2760   5.897   0.959   2.060 -1.5857 -1.7094 -0.0494
  939TIP3   OH2 2761   2.104   3.044   6.483  0.0456  0.0547 -0.2914
  939TIP3    H1 2762   2.159   3.122   6.476 -0.3118  0.2902 -0.4783
  939TIP3    H2 2763   2.152   2.986   6.543  1.5419 -0.6068 -2.0095
  940TIP3   OH2 2764   7.168   6.187   6.513  0.0115  0.6033 -0.6880
  940TIP3    H1 2765   7.182   6.128   6.439  0.2656  0.3977 -0.4842
  940TIP3    H2 2766   7.227   6.153   6.581  1.4060  2.0773 -1.1114
  941TIP3   OH2 2767   1.993   3.104   5.235 -0.0703 -0.0007 -0.3600
  941TIP3    H1 2768   1.971   3.013   5.216 -0.3665  0.1260 -0.6362
  941TIP3    H2 2769   1.908   3.147   5.244  0.0189 -0.1810  1.9169
  942TIP3   OH2 2770   5.771   3.055   5.503  0.0704  0.1971  0.1029
  942TIP3    H1 2771   5.677   3.053   5.483 -0.0573  1.4622  0.4607
  942TIP3    H2 2772   5.782   3.132   5.559  1.2279 -0.3024  0.6067
  943TIP3   OH2 2773   3.770   1.775   2.608  0.2027  0.0701 -0.3242
  943TIP3    H1 2774   3.755   1.684   2.634 -0.4586 -0.0967 -1.2231
  943TIP3    H2 2775   3.787   1.821   2.690 -2.2801 -0.3109  0.4992
  944TIP3   OH2 2776   7.685   1.867   0.444 -0.0900  0.1301 -0.0784
  944TIP3    H1 2777   7.725   1.877   0.530  0.9973  0.7066 -0.6250
  944TIP3    H2 2778   7.597   1.903   0.453 -0.8582 -1.8961  1.3735
  945TIP3   OH2 2779   2.963   7.423   4.072 -0.0126  0.0559 -0.7052
  945TIP3    H1 2780   2.946   7.416   3.978  0.6772  1.9443 -0.9998
  945TIP3    H2 2781   3.010   7.505   4.082 -0.4740  0.1133  1.3660
  946TIP3   OH2 2782   6.035   1.755   3.249  0.0385  0.6751  0.3488
  946TIP3    H1 2783   5.972   1.814   3.289 -1.4000 -0.7429  0.2770
  946TIP3    H2 2784   5.995   1.668   3.256  1.7489 -0.2105 -0.1850
  947TIP3   OH2 2785   1.516   3.974   4.222 -0.3671 -0.1444  0.3467
  947TIP3    H1 2786   1.464   3.895   4.233 -0.2662 -0.0830  1.4201
  947TIP3    H2 2787   1.481   4.017   4.144 -0.4550 -1.2129 -0.2104
  948TIP3   OH2 2788   5.688   1.972   2.547 -0.5034 -0.7620 -0.5944
  948TIP3    H1 2789   5.639   2.020   2.615  1.0227 -0.1242  0.1017
  948TIP3    H2 2790   5.689   2.032   2.472  0.8683  0.0910  0.0647
  949TIP3   OH2 2791   5.110   2.320   6.229 -1.0985 -0.0156 -0.1021
  949TIP3    H1 2792   5.065   2.245   6.268  0.8473 -2.2375 -1.8142
  949TIP3    H2 2793   5.123   2.295   6.137  2.2306  1.0836 -0.0587
  950TIP3   OH2 2794   0.752   0.504   0.865  0.2560 -0.4134  0.1405
  950TIP3    H1 2795   0.819   0.490   0.798  0.0013  0.7232 -0.3673
  950TIP3    H2 2796   0.743   0.419   0.908  1.0248 -0.9366 -0.7059
  951TIP3   OH2 2797   2.244   5.344   2.824  0.3334  0.2990 -0.1961
  951TIP3    H1 2798   2.273   5.310   2.909 -0.7503  2.5825  1.1841
  951TIP3    H2 2799   2.316   5.323   2.765  1.0897 -1.4636  1.2335
  952TIP3   OH2 2800   1.782   5.621   2.281 -0.2507 -0.3270 -0.6150
  952TIP3    H1 2801   1.805   5.635   2.189  0.0969 -0.1673 -0.5052
  952TIP3    H2 2802   1.696   5.579   2.278  0.0702 -0.9679 -1.0327
  953TIP3   OH2 2803   2.975   3.451   6.208 -0.0998  0.3554  0.4860
  953TIP3    H1 2804   3.046   3.451   6.273  0.2909 -0.4876  0.0724
  953TIP3    H2 2805   2.990   3.372   6.157  0.8683  2.0304 -2.0131
  954TIP3   OH2 2806   2.626   3.460   5.887  0.3478 -0.2861 -0.6124
  954TIP3    H1 2807   2.657   3.483   5.975 -0.1710  1.3800 -0.8393
  954TIP3    H2 2808   2.549   3.405   5.903 -0.2271  0.6634 -0.0036
  955TIP3   OH2 2809   4.349   3.385   1.256  0.4225 -0.2955  0.7348
  955TIP3    H1 2810   4.351   3.458   1.194  1.6232 -0.3155  0.7255
  955TIP3    H2 2811   4.256   3.367   1.269  0.1297  0.6180  0.0111
  956TIP3   OH2 2812   0.103   1.166   4.045 -0.2480  0.2128 -0.6226
  956TIP3    H1 2813   0.189   1.175   4.085 -0.5499  1.0949 -0.1291
  956TIP3    H2 2814   0.046   1.137   4.116 -0.2230 -1.1607 -1.1297
  957TIP3   OH2 2815   6.491   7.764   2.910 -0.7510 -0.3328 -0.1277
  957TIP3    H1 2816   6.569   7.804   2.871 -1.2802  1.0851  0.1996
  957TIP3    H2 2817   6.518   7.741   2.999 -0.2449 -1.3716 -0.5297
  958TIP3   OH2 2818   7.654   2.205   1.528  0.0443 -0.2730 -0.3267
  958TIP3    H1 2819   7.559   2.209   1.520 -0.0030 -1.3395 -0.4166
  958TIP3    H2 2820   7.675   2.269   1.596 -0.7439 -0.0729 -0.2645
  959TIP3   OH2 2821   2.211   2.339   6.531  0.2147  0.6801 -0.2126
  959TIP3    H1 2822   2.207   2.327   6.626  0.4768  2.2600  0.0330
  959TIP3    H2 2823   2.177   2.257   6.495  0.7884 -0.2373  1.2213
  960TIP3   OH2 2824   5.335   2.609   3.599 -0.3380  0.0507  0.3205
  960TIP3    H1 2825   5.326   2.583   3.691 -0.6051  0.1779  0.3289
  960TIP3    H2 2826   5.285   2.544   3.550 -2.2618  1.3557  0.4465
  961TIP3   OH2 2827   7.682   6.486   2.971  0.5205  0.8009  0.0223
  961TIP3    H1 2828   7.667   6.552   3.040  0.2155  1.3299 -0.5352
  961TIP3    H2 2829   7.721   6.536   2.899  0.8471  0.2477 -0.1853
  962TIP3   OH2 2830   7.249   2.569   1.027  0.1335 -0.6274  0.4912
  962TIP3    H1 2831   7.154   2.573   1.032  0.2527  1.4238  3.8853
  962TIP3    H2 2832   7.271   2.625   0.952 -1.2868 -1.1400 -0.3440
  963TIP3   OH2 2833   1.923   1.769   4.455 -0.3387  0.0524  0.7372
  963TIP3    H1 2834   1.832   1.760   4.484 -0.2382 -1.4331  0.6513
  963TIP3    H2 2835   1.962   1.827   4.521 -0.8763 -0.8308  1.8776
  964TIP3   OH2 2836   4.126   7.642   5.049 -0.0200  0.5378 -0.1369
  964TIP3    H1 2837   4.078   7.623   4.968 -0.6063  0.8772  0.1215
  964TIP3    H2 2838   4.113   7.735   5.063  2.7413  1.1854 -1.3369
  965TIP3   OH2 2839   3.852   7.616   4.540 -0.4334  0.5665 -0.2527
  965TIP3    H1 2840   3.843   7.525   4.569 -1.9660 -0.1462 -2.6627
  965TIP3    H2 2841   3.787   7.664   4.591 -1.2176 -0.1302 -0.5754
  966TIP3   OH2 2842   2.673   4.088   6.578  0.3277  0.0349 -0.3683
  966TIP3    H1 2843   2.663   4.143   6.501 -2.3151  1.0775  0.5983
  966TIP3    H2 2844   2.680   4.150   6.651 -0.7365 -0.8689  0.5476
  967TIP3   OH2 2845   4.851   3.654   0.422 -0.4219 -0.1382  0.0381
  967TIP3    H1 2846   4.942   3.648   0.392 -0.4973 -0.1724 -0.1926
  967TIP3    H2 2847   4.813   3.721   0.365  0.5100  2.9773  2.7716
  968TIP3   OH2 2848   5.364   3.425   5.731 -0.7140 -0.1607  0.1193
  968TIP3    H1 2849   5.406   3.379   5.659  0.4266  1.9864 -0.6644
  968TIP3    H2 2850   5.298   3.364   5.764 -1.4470 -1.1382 -2.8771
  969TIP3   OH2 2851   3.798   1.519   4.647  0.0894  0.0010 -0.0822
  969TIP3    H1 2852   3.738   1.445   4.659 -1.0788  1.0218  0.5567
  969TIP3    H2 2853   3.853   1.519   4.725 -0.2984  0.1531  0.1908
  970TIP3   OH2 2854   6.250   1.349   4.995 -0.5232  0.1450 -0.8077
  970TIP3    H1 2855   6.264   1.282   5.062 -1.1904  0.0586 -0.7514
  970TIP3    H2 2856   6.155   1.361   4.992 -0.4773  0.3851 -1.5068
  971TIP3   OH2 2857   5.305   5.590   2.477 -0.4515  0.6805 -0.3564
  971TIP3    H1 2858   5.266   5.585   2.390 -0.1074 -1.2657 -0.4398
  971TIP3    H2 2859   5.396   5.613   2.461 -0.8393  2.3428 -0.3454
  972TIP3   OH2 2860   0.721   3.749   3.517  0.2109  0.2623 -0.0157
  972TIP3    H1 2861   0.682   3.675   3.565  0.4547  1.2127  1.7405
  972TIP3    H2 2862   0.795   3.775   3.571  0.5240  1.3840 -0.9582
  973TIP3   OH2 2863   5.021   0.217   5.901 -0.1999 -0.6617 -0.4050
  973TIP3    H1 2864   4.969   0.231   5.822 -1.0207 -1.7034 -0.0775
  973TIP3    H2 2865   5.091   0.157   5.873  0.0992 -0.2469 -0.5579
  974TIP3   OH2 2866   1.297   4.249   4.271  0.7181  0.2080  0.0438
  974TIP3    H1 2867   1.326   4.215   4.186 -0.8832  0.1588 -0.5093
  974TIP3    H2 2868   1.374   4.294   4.306  2.5196 -2.6663  0.1669
  975TIP3   OH2 2869   4.200   0.351   6.129 -0.0836  0.0168 -0.2020
  975TIP3    H1 2870   4.106   0.367   6.122  0.0747  0.1804 -2.4881
  975TIP3    H2 2871   4.234   0.427   6.176 -0.9072  0.6002 -0.5395
  976TIP3   OH2 2872   3.215   7.508   2.660  0.1068 -0.8863 -0.2095
  976TIP3    H1 2873   3.294   7.562   2.659 -0.5478  0.1352  0.3798
  976TIP3    H2 2874   3.145   7.570   2.683 -1.0330 -1.5488 -1.7760
  977TIP3   OH2 2875   3.046   6.518   3.003  0.0791 -0.5122  0.2967
  977TIP3    H1 2876   3.035   6.608   2.973  1.0789 -1.2538 -2.6720
  977TIP3    H2 2877   2.964   6.475   2.979  0.1249 -0.6971  0.4734
  978TIP3   OH2 2878   4.387   0.893   6.125  0.1721 -0.0674 -0.0593
  978TIP3    H1 2879   4.298   0.857   6.130 -0.7582  1.9970 -0.8128
  978TIP3    H2 2880   4.432   0.857   6.202 -0.7952 -2.4006 -0.5140
  979TIP3   OH2 2881   3.836   3.975   3.685 -0.0045  0.2683 -0.5899
  979TIP3    H1 2882   3.891   4.001   3.611  0.3959  0.1091 -0.3489
  979TIP3    H2 2883   3.893   3.983   3.762 -0.8081  1.8160 -0.0949
  980TIP3   OH2 2884   4.955   6.218   3.685 -0.7916  0.2633 -0.0011
  980TIP3    H1 2885   4.937   6.207   3.592 -0.1963  1.2480 -0.2418
  980TIP3    H2 2886   4.955   6.128   3.720  0.7054 -0.2654 -1.2588
  981TIP3   OH2 2887   4.105   7.518   1.744 -0.1251 -0.0124 -0.0126
  981TIP3    H1 2888   4.121   7.447   1.806  0.9385  0.1390 -0.0968
  981TIP3    H2 2889   4.058   7.584   1.794 -2.7662 -1.4653 -0.3694
  982TIP3   OH2 2890   2.450   4.065   0.120  0.4230  0.2674  0.1605
  982TIP3    H1 2891   2.383   4.132   0.135  1.2354  1.6204 -1.7883
  982TIP3    H2 2892   2.511   4.076   0.192  0.3160  1.3511  0.1059
  983TIP3   OH2 2893   5.990   2.722   5.152  0.4461 -0.0457  0.2776
  983TIP3    H1 2894   6.021   2.765   5.232  0.5589  0.9466 -0.2797
  983TIP3    H2 2895   5.972   2.632   5.179  3.0350 -0.4864  0.8193
  984TIP3   OH2 2896   0.387   5.465   2.962  0.3409  0.2330  0.0344
  984TIP3    H1 2897   0.385   5.377   2.925 -1.2285  0.2456  0.0126
  984TIP3    H2 2898   0.421   5.453   3.051  1.2944 -0.2024 -0.3701
  985TIP3   OH2 2899   0.073   1.919   4.069  0.4972  0.3861 -0.6509
  985TIP3    H1 2900   0.002   1.930   4.006  1.4963  2.1316 -1.5627
  985TIP3    H2 2901   0.063   1.993   4.129  0.2465 -0.6149  0.5925
  986TIP3   OH2 2902   6.735   2.748   0.511  0.3955 -0.1483  1.1132
  986TIP3    H1 2903   6.700   2.660   0.495 -0.4562  0.4210 -0.2377
  986TIP3    H2 2904   6.675   2.786   0.575  0.5047 -0.3837  1.3576
  987TIP3   OH2 2905   3.246   2.891   3.655  0.3576  0.7403  0.1050
  987TIP3    H1 2906   3.335   2.926   3.661  0.6266  0.1898 -0.5990
  987TIP3    H2 2907   3.237   2.837   3.733  0.2324  1.6867  0.7687
  988TIP3   OH2 2908   1.422   0.447   6.509  0.3485  0.1067  0.0724
  988TIP3    H1 2909   1.340   0.401   6.492  0.9448 -1.5543  1.4479
  988TIP3    H2 2910   1.402   0.539   6.493 -0.7272 -0.5964 -3.3829
  989TIP3   OH2 2911   2.773   2.081   2.399  0.3397  0.2079  1.0318
  989TIP3    H1 2912   2.774   2.080   2.495  0.3735 -0.7667  1.0282
  989TIP3    H2 2913   2.750   2.172   2.377 -0.8097  0.1751  1.9748
  990TIP3   OH2 2914   1.686   4.730   1.787  0.0393 -0.4326  0.1367
  990TIP3    H1 2915   1.616   4.667   1.802 -1.2727  1.0919  0.6678
  990TIP3    H2 2916   1.714   4.714   1.696  0.0057 -1.9834  0.3764
  991TIP3   OH2 2917   6.728   0.280   1.596  0.1428  0.3191  0.5652
  991TIP3    H1 2918   6.724   0.374   1.576  0.5990  0.4416  1.0129
  991TIP3    H2 2919   6.661   0.241   1.541  0.6596  0.7787 -0.4196
  992TIP3   OH2 2920   6.559   6.243   4.349 -0.2133 -1.0549  0.0209
  992TIP3    H1 2921   6.507   6.300   4.405  1.6256 -1.0422  1.8203
  992TIP3    H2 2922   6.574   6.165   4.402  0.1769 -1.7691 -1.1089
  993TIP3   OH2 2923   3.508   1.498   3.831 -0.3435  0.2416  0.1301
  993TIP3    H1 2924   3.535   1.406   3.839 -0.8201  0.1530  0.8538
  993TIP3    H2 2925   3.558   1.544   3.898 -1.8741  0.0865  1.4444
  994TIP3   OH2 2926   4.646   4.102   1.059 -0.2284  0.2570 -0.4904
  994TIP3    H1 2927   4.661   4.086   0.966  1.1999 -2.1071  0.0568
  994TIP3    H2 2928   4.622   4.016   1.095 -0.3779  1.0256  1.3752
  995TIP3   OH2 2929   0.831   3.794   3.990 -0.2561 -0.2364  0.6680
  995TIP3    H1 2930   0.923   3.792   4.020  0.2006  2.3523 -0.3145
  995TIP3    H2 2931   0.790   3.861   4.044 -0.8045  0.6929 -0.8547
  996TIP3   OH2 2932   5.880   3.909   4.860  0.2419 -0.0164  0.2837
  996TIP3    H1 2933   5.847   3.850   4.929  3.1651  0.4650  2.3053
  996TIP3    H2 2934   5.904   3.850   4.789 -0.2425 -0.8594  0.7825
  997TIP3   OH2 2935   4.576   2.990   4.140  0.0212 -0.0445 -0.2082
  997TIP3    H1 2936   4.563   2.900   4.110 -0.4876 -0.1470  0.3091
  997TIP3    H2 2937   4.623   3.033   4.068 -0.5870 -0.4650 -0.8686
  998TIP3   OH2 2938   0.224   5.086   1.116 -0.6751  0.0865  0.3631
  998TIP3    H1 2939   0.244   4.993   1.124 -0.4665  0.1904  1.1395
  998TIP3    H2 2940   0.149   5.090   1.057 -0.0556 -0.4966 -0.4668
  999TIP3   OH2 2941   6.673   3.879   3.289 -0.5159  0.3421 -0.3262
  999TIP3    H1 2942   6.636   3.809   3.235  0.3943  0.7528 -1.5253
  999TIP3    H2 2943   6.597   3.923   3.326 -1.1570 -0.1070 -1.0777
 1000TIP3   OH2 2944   7.701   2.052   4.556  0.5391  0.1815  0.1008
 1000TIP3    H1 2945   7.665   2.123   4.503  0.5564  0.8977  1.0235
 1000TIP3    H2 2946   7.763   2.008   4.498 -0.6883 -0.1277 -1.0170
 1001TIP3   OH2 2947   5.341   2.024   2.243  0.2311  0.2093  0.3051
 1001TIP3    H1 2948   5.345   2.017   2.338 -1.1568  0.7637  0.4129
 1001TIP3    H2 2949   5.307   1.939   2.214  1.9765 -0.4911  0.1662
 1002TIP3   OH2 2950   4.342   6.293   3.149  0.4128 -0.2090 -0.4383
 1002TIP3    H1 2951   4.395   6.325   3.075  0.1174  0.4076 -0.3909
 1002TIP3    H2 2952   4.403   6.243   3.202  1.3789  1.7696  0.4504
 1003TIP3   OH2 2953   8.028   7.227   4.634  0.3376  0.0283 -0.3502
 1003TIP3    H1 2954   7.958   7.266   4.582  0.0207  1.4231  1.0326
 1003TIP3    H2 2955   7.983   7.191   4.711  0.7465 -2.2746 -1.1191
 1004TIP3   OH2 2956   1.509   3.254   2.392  0.0628  0.2746 -0.1431
 1004TIP3    H1 2957   1.514   3.274   2.298  1.2289  0.0343 -0.1471
 1004TIP3    H2 2958   1.516   3.339   2.435 -1.3396  0.4832 -0.2651
 1005TIP3   OH2 2959   5.989   3.682   5.754 -0.5510  0.2876 -0.1050
 1005TIP3    H1 2960   5.932   3.759   5.745 -0.7090 -0.0058 -2.1123
 1005TIP3    H2 2961   5.968   3.628   5.677  1.5798 -0.4094 -0.2495
 1006TIP3   OH2 2962   7.277   2.646   0.734  0.0173  0.1254 -0.7656
 1006TIP3    H1 2963   7.367   2.669   0.757 -0.0677  1.1911 -1.4398
 1006TIP3    H2 2964   7.251   2.712   0.670 -0.7578 -1.0146 -1.6637
 1007TIP3   OH2 2965   1.175   1.185   5.942 -0.2358 -0.0790  0.1060
 1007TIP3    H1 2966   1.216   1.241   5.876  1.4079 -0.0075  1.1244
 1007TIP3    H2 2967   1.096   1.233   5.969 -0.7073  0.0867 -1.4598
 1008TIP3   OH2 2968   3.392   4.755   2.978 -0.3798 -0.5542  0.5516
 1008TIP3    H1 2969   3.391   4.662   3.000 -0.0742 -0.5549  0.5636
 1008TIP3    H2 2970   3.405   4.758   2.884  0.2792 -0.5137  0.6378
 1009TIP3   OH2 2971   5.342   5.904   5.799 -0.0223 -0.1156  0.2467
 1009TIP3    H1 2972   5.322   5.984   5.847 -0.1884  1.9498 -2.9638
 1009TIP3    H2 2973   5.257   5.865   5.780  0.0337 -0.8145  1.3445
 1010TIP3   OH2 2974   3.739   0.205   1.159 -0.1287 -0.6206 -0.2305
 1010TIP3    H1 2975   3.690   0.286   1.146 -0.7893 -0.5703  2.0835
 1010TIP3    H2 2976   3.673   0.136   1.156  0.0877 -0.8422  0.0286
 1011TIP3   OH2 2977   0.349   4.666   1.598 -0.3193  0.1514  0.0541
 1011TIP3    H1 2978   0.445   4.667   1.591 -0.2947 -0.1123  0.3339
 1011TIP3    H2 2979   0.323   4.757   1.582 -0.0491  0.1644 -0.3464
 1012TIP3   OH2 2980   6.615   4.298   1.642  0.2835  0.4125 -0.0225
 1012TIP3    H1 2981   6.578   4.372   1.691  0.5716  0.5308  0.0147
 1012TIP3    H2 2982   6.709   4.302   1.659  0.2824 -0.0664  0.1226
 1013TIP3   OH2 2983   6.352   5.117   2.494 -0.0286 -0.2569 -0.1337
 1013TIP3    H1 2984   6.353   5.205   2.457 -0.4704 -0.4745 -0.6648
 1013TIP3    H2 2985   6.278   5.117   2.555 -0.2395 -0.3615 -0.3874
 1014TIP3   OH2 2986   1.901   5.541   5.345  0.4066  0.9886 -0.0319
 1014TIP3    H1 2987   1.900   5.481   5.270 -1.2975  0.4316  0.3858
 1014TIP3    H2 2988   1.963   5.502   5.407 -1.1807 -0.7792  0.5323
 1015TIP3   OH2 2989   0.434   3.111   5.047 -0.2878  0.4424 -0.1856
 1015TIP3    H1 2990   0.359   3.054   5.060  0.5324 -0.4134  0.9923
 1015TIP3    H2 2991   0.500   3.056   5.005 -0.0877  1.0024 -0.6238
 1016TIP3   OH2 2992   7.864   1.167   2.413  0.0161 -0.3148 -0.1024
 1016TIP3    H1 2993   7.901   1.241   2.462 -1.2002  0.5821 -0.5133
 1016TIP3    H2 2994   7.836   1.105   2.480 -0.9351  0.5705  0.3416
 1017TIP3   OH2 2995   0.695   2.091   1.661  0.0259  0.3363  0.0989
 1017TIP3    H1 2996   0.750   2.013   1.651 -0.5579  0.1221 -2.0038
 1017TIP3    H2 2997   0.753   2.165   1.643 -0.0241  0.1865 -0.7550
 1018TIP3   OH2 2998   7.314   7.097   5.370 -0.2705 -0.7882  0.5035
 1018TIP3    H1 2999   7.278   7.048   5.296  1.3099 -1.0416 -0.1490
 1018TIP3    H2 3000   7.395   7.136   5.335 -0.6576  0.9902  1.4577
 1019TIP3   OH2 3001   6.927   7.376   3.800 -0.7146  0.5846 -0.2149
 1019TIP3    H1 3002   6.999   7.368   3.737  0.7052  0.5962  1.3380
 1019TIP3    H2 3003   6.859   7.318   3.765  0.4976 -0.3616 -1.1177
 1020TIP3   OH2 3004   4.372   4.718   3.837  0.0287  0.0394  0.2030
 1020TIP3    H1 3005   4.332   4.633   3.822 -0.7286  0.3954  0.1820
 1020TIP3    H2 3006   4.437   4.703   3.906 -0.4858 -0.4411  0.5823
 1021TIP3   OH2 3007   6.953   7.636   4.204 -0.2591 -0.0897  0.1075
 1021TIP3    H1 3008   6.914   7.618   4.118 -0.5767 -0.2098  0.2781
 1021TIP3    H2 3009   6.995   7.721   4.193 -0.8682  0.2012  0.0293
 1022TIP3   OH2 3010   7.764   2.136   3.124  0.1407 -0.4593  0.0959
 1022TIP3    H1 3011   7.684   2.084   3.123  0.6129 -1.3012  1.8760
 1022TIP3    H2 3012   7.834   2.074   3.107  0.4761  0.2000 -1.0398
 1023TIP3   OH2 3013   8.219   0.475   1.580 -0.0380 -0.3459 -0.5649
 1023TIP3    H1 3014   8.180   0.406   1.526  0.3845 -1.1181  0.1050
 1023TIP3    H2 3015   8.312   0.474   1.557 -0.1894  0.7447 -1.3377
 1024TIP3   OH2 3016   6.919   2.120   1.068 -0.1227  0.2003 -0.0320
 1024TIP3    H1 3017   6.844   2.061   1.071 -0.7123  0.9609  0.9301
 1024TIP3    H2 3018   6.971   2.097   1.145 -0.7610  1.4196  0.7928
 1025TIP3   OH2 3019   1.711   5.894   2.785 -0.3232  0.1348  0.5322
 1025TIP3    H1 3020   1.619   5.867   2.789 -0.0752 -1.3352 -1.8628
 1025TIP3    H2 3021   1.760   5.813   2.785  1.0679  0.9136  2.0987
 1026TIP3   OH2 3022   4.888   3.888   6.042  0.1844  0.1027  0.4848
 1026TIP3    H1 3023   4.903   3.982   6.040  0.4529  0.0875  1.2778
 1026TIP3    H2 3024   4.975   3.850   6.054  0.0364 -0.2198  0.5604
 1027TIP3   OH2 3025   0.453   7.852   2.809 -0.2998 -0.5837  0.2567
 1027TIP3    H1 3026   0.426   7.773   2.855  1.2658 -0.4158  1.5217
 1027TIP3    H2 3027   0.459   7.826   2.717  0.4930 -2.0115  0.6991
 1028TIP3   OH2 3028   6.048   6.715   5.597 -0.3926 -0.2411  0.2919
 1028TIP3    H1 3029   5.992   6.713   5.520 -0.6783  1.0365  0.4364
 1028TIP3    H2 3030   5.987   6.722   5.671 -0.1137 -1.1487  0.6182
 1029TIP3   OH2 3031   2.287   0.300   4.973 -0.0283 -0.0162  0.0433
 1029TIP3    H1 3032   2.269   0.214   4.935 -1.1935  0.2665 -0.0952
 1029TIP3    H2 3033   2.201   0.342   4.977  0.5822  1.3087 -0.2963
 1030TIP3   OH2 3034   3.391   3.414   1.864  0.0306 -0.3535 -0.3228
 1030TIP3    H1 3035   3.327   3.346   1.885 -2.2404  1.6917 -0.1912
 1030TIP3    H2 3036   3.469   3.391   1.915 -1.5106 -1.5312  1.6141
 1031TIP3   OH2 3037   0.242   5.265   6.408 -0.2336 -0.1068 -0.1424
 1031TIP3    H1 3038   0.190   5.313   6.344  0.5422  0.4023 -0.4139
 1031TIP3    H2 3039   0.197   5.280   6.491 -1.9327 -1.7728 -0.6941
 1032TIP3   OH2 3040   2.336   5.132   2.166  0.0810 -0.2623 -0.3536
 1032TIP3    H1 3041   2.289   5.154   2.086  1.9294 -0.3866 -1.5175
 1032TIP3    H2 3042   2.267   5.126   2.233 -1.6780 -1.4608 -2.1577
 1033TIP3   OH2 3043   7.854   6.462   4.077 -0.1413  0.0955  0.3746
 1033TIP3    H1 3044   7.854   6.468   4.173  3.0388  3.2291  0.4121
 1033TIP3    H2 3045   7.876   6.371   4.059 -2.4705 -0.9967  2.4871
 1034TIP3   OH2 3046   1.710   5.465   5.738 -0.4932  0.0005 -0.1026
 1034TIP3    H1 3047   1.682   5.518   5.812  0.2290  0.8697 -0.4346
 1034TIP3    H2 3048   1.802   5.487   5.725 -0.5136 -0.3873 -1.0486
 1035TIP3   OH2 3049   8.119   1.521   1.600  0.5217  0.6258 -0.3218
 1035TIP3    H1 3050   8.067   1.464   1.657 -0.3945  1.8258  0.1048
 1035TIP3    H2 3051   8.169   1.576   1.660  1.6169  0.0876 -0.7280
 1036TIP3   OH2 3052   1.583   1.215   5.376 -0.1839  0.6055 -0.2050
 1036TIP3    H1 3053   1.633   1.196   5.297  0.6268  0.2996  0.3758
 1036TIP3    H2 3054   1.502   1.254   5.344  0.6670  1.6652 -1.1382
 1037TIP3   OH2 3055   5.381   7.336   5.510  0.2343  0.1554  0.0832
 1037TIP3    H1 3056   5.359   7.375   5.426  0.3938 -1.1123 -0.5692
 1037TIP3    H2 3057   5.299   7.300   5.543  0.4472 -0.6504 -0.2422
 1038TIP3   OH2 3058   7.099   1.134   5.547 -0.1016 -0.0812 -0.3295
 1038TIP3    H1 3059   7.017   1.158   5.505 -1.2709 -0.6789  1.5213
 1038TIP3    H2 3060   7.121   1.049   5.510 -1.0756 -0.5723  0.1958
 1039TIP3   OH2 3061   7.867   5.129   6.160  0.4856 -0.2213 -0.2199
 1039TIP3    H1 3062   7.826   5.181   6.229  1.0888  1.1703 -0.8833
 1039TIP3    H2 3063   7.844   5.038   6.182 -1.1524  0.3523  0.5860
 1040TIP3   OH2 3064   6.150   2.788   1.736 -0.2339  0.2213 -0.2549
 1040TIP3    H1 3065   6.218   2.763   1.798 -0.3863  2.4341  0.9238
 1040TIP3    H2 3066   6.069   2.755   1.776 -0.1517  0.1980 -0.1047
 1041TIP3   OH2 3067   3.096   1.949   0.063  0.4833  0.5920  0.0777
 1041TIP3    H1 3068   3.157   2.022   0.055  0.6983  0.5887  1.5130
 1041TIP3    H2 3069   3.047   1.949  -0.020  0.8210  2.0391 -0.1409
 1042TIP3   OH2 3070   2.690   2.932   4.624 -0.3422  0.0042  0.7745
 1042TIP3    H1 3071   2.670   3.026   4.618  1.1379  0.3486  0.8788
 1042TIP3    H2 3072   2.651   2.894   4.545 -0.0415  0.8869  0.1876
 1043TIP3   OH2 3073   2.748   5.101   6.128 -0.0483  0.1014 -0.5302
 1043TIP3    H1 3074   2.829   5.148   6.108  1.0121 -0.5181  1.9443
 1043TIP3    H2 3075   2.771   5.008   6.118 -1.2858 -0.0543 -2.4560
 1044TIP3   OH2 3076   0.121   3.158   6.037 -0.0562 -0.4531  0.3726
 1044TIP3    H1 3077   0.039   3.206   6.046 -0.5814 -0.8371 -1.7864
 1044TIP3    H2 3078   0.096   3.066   6.046 -0.1004 -0.6460 -1.4021
 1045TIP3   OH2 3079   0.214   2.298   2.825  0.6214  0.0524  0.0622
 1045TIP3    H1 3080   0.280   2.283   2.757  0.1151 -1.0408 -0.2124
 1045TIP3    H2 3081   0.165   2.374   2.793  0.8672  0.0151 -0.4246
 1046TIP3   OH2 3082   7.542   5.147   4.467 -0.5184 -0.0620 -0.4125
 1046TIP3    H1 3083   7.587   5.158   4.550 -0.4285  2.0768 -0.6838
 1046TIP3    H2 3084   7.476   5.080   4.484  2.1353 -2.7361  0.2123
 1047TIP3   OH2 3085   6.299   0.484   3.881  0.5716 -0.0155 -0.0405
 1047TIP3    H1 3086   6.354   0.406   3.888  0.9076  0.0593 -1.4843
 1047TIP3    H2 3087   6.256   0.475   3.796  1.9083  2.1720 -1.0112
 1048TIP3   OH2 3088   1.478   4.527   6.163 -0.2737 -0.2067  0.5113
 1048TIP3    H1 3089   1.483   4.598   6.099 -1.1882 -0.8507 -0.3059
 1048TIP3    H2 3090   1.402   4.476   6.136 -0.2016 -0.9559  1.6523
 1049TIP3   OH2 3091   0.965   1.909   0.141 -0.0272  0.2014 -0.0507
 1049TIP3    H1 3092   0.935   1.942   0.226  0.0243  0.0418  0.0311
 1049TIP3    H2 3093   0.885   1.895   0.091  0.0146  2.1881 -0.7617
 1050TIP3   OH2 3094   6.026   1.712   2.253 -0.0087  0.1179 -0.1015
 1050TIP3    H1 3095   6.054   1.789   2.204  0.8475 -0.7717 -1.0642
 1050TIP3    H2 3096   6.100   1.692   2.310 -1.5919  2.1412  2.9846
 1051TIP3   OH2 3097   4.437   4.084   0.637  0.3904 -0.1261  0.3013
 1051TIP3    H1 3098   4.449   4.179   0.632  1.6303 -0.2989 -0.6142
 1051TIP3    H2 3099   4.344   4.073   0.656 -0.2179  1.2485 -1.5277
 1052TIP3   OH2 3100   4.258   1.235   6.671 -0.0928  0.5842 -0.7263
 1052TIP3    H1 3101   4.283   1.146   6.696  0.2748  0.7667 -0.4356
 1052TIP3    H2 3102   4.338   1.274   6.636 -0.0488  1.0553 -0.1199
 1053TIP3   OH2 3103   4.850   6.601   4.089 -0.4490  0.4075 -0.1149
 1053TIP3    H1 3104   4.864   6.682   4.138 -2.1295  0.2758  0.6650
 1053TIP3    H2 3105   4.769   6.616   4.041 -0.2578 -0.4646 -0.7184
 1054TIP3   OH2 3106   7.437   7.470   1.452 -0.0335 -0.0079  0.4690
 1054TIP3    H1 3107   7.404   7.479   1.362  0.6766  0.1543  0.2140
 1054TIP3    H2 3108   7.383   7.529   1.504 -2.1152 -1.9267  0.6070
 1055TIP3   OH2 3109   3.981   1.223   2.887 -0.0832 -0.4185 -0.4895
 1055TIP3    H1 3110   3.990   1.132   2.915 -0.3209 -0.2544  0.1447
 1055TIP3    H2 3111   4.012   1.274   2.962 -0.6620  0.0299 -0.5505
 1056TIP3   OH2 3112   6.496   0.042   6.475  0.0746  0.0145  0.2876
 1056TIP3    H1 3113   6.506   0.117   6.416  1.3154 -0.1161  0.3159
 1056TIP3    H2 3114   6.401   0.034   6.486 -0.2522 -0.3341 -2.1888
 1057TIP3   OH2 3115   0.099   1.777   1.495 -0.2157  0.2604 -0.0401
 1057TIP3    H1 3116   0.128   1.864   1.467  1.4513  0.1861  1.3259
 1057TIP3    H2 3117   0.123   1.720   1.421  1.9957  0.4301  0.4788
 1058TIP3   OH2 3118   4.006   1.838   2.523  0.2300 -0.2966 -0.3178
 1058TIP3    H1 3119   3.985   1.905   2.458  1.5290 -0.3480 -0.8158
 1058TIP3    H2 3120   3.922   1.814   2.562 -0.3579  0.9379 -0.8034
 1059TIP3   OH2 3121   5.293   0.789  -0.006  0.5754 -0.3456 -0.1627
 1059TIP3    H1 3122   5.233   0.841   0.048  0.6161 -0.7325  0.2651
 1059TIP3    H2 3123   5.374   0.840  -0.008  1.0874 -1.0130  1.4187
 1060TIP3   OH2 3124   3.568   0.747   0.296 -0.4230 -0.0386 -0.2754
 1060TIP3    H1 3125   3.620   0.679   0.339 -0.8645 -1.2276 -1.5634
 1060TIP3    H2 3126   3.616   0.828   0.314  1.0373 -0.8988 -0.1247
 1061TIP3   OH2 3127   2.758   0.956   3.292 -0.0394  0.7467 -0.4027
 1061TIP3    H1 3128   2.845   0.994   3.303 -0.2069  1.2630 -0.7959
 1061TIP3    H2 3129   2.772   0.862   3.291  0.2873  0.7285  1.5595
 1062TIP3   OH2 3130   0.470   0.460   4.894 -0.3731  0.4494 -0.6772
 1062TIP3    H1 3131   0.383   0.471   4.855 -1.5123 -1.8825  0.9652
 1062TIP3    H2 3132   0.494   0.370   4.874 -0.3909 -0.4063  2.5838
 1063TIP3   OH2 3133   3.857   7.419   2.190  0.0319 -0.0378 -0.1411
 1063TIP3    H1 3134   3.856   7.399   2.284  1.7134  1.5274  0.2654
 1063TIP3    H2 3135   3.950   7.427   2.168 -0.3688  0.7347 -1.6872
 1064TIP3   OH2 3136   4.207   5.754   1.405 -0.0738 -0.2728 -0.0117
 1064TIP3    H1 3137   4.259   5.833   1.395 -2.1399  1.0836 -0.7496
 1064TIP3    H2 3138   4.200   5.742   1.500 -0.9185  1.3213  0.1620
 1065TIP3   OH2 3139   5.425   1.441   1.887 -1.0179 -0.2241 -0.2358
 1065TIP3    H1 3140   5.418   1.370   1.822 -1.8208 -0.2185 -0.1633
 1065TIP3    H2 3141   5.505   1.421   1.935 -2.1254 -2.0845  0.9577
 1066TIP3   OH2 3142   4.666   6.678   4.672 -0.2619 -0.3745 -0.3240
 1066TIP3    H1 3143   4.620   6.594   4.667  0.6030 -0.8531 -0.4822
 1066TIP3    H2 3144   4.752   6.656   4.710  0.7927  0.0660 -2.3103
 1067TIP3   OH2 3145   2.850   6.730   4.791 -0.2680 -0.2135 -0.3663
 1067TIP3    H1 3146   2.808   6.699   4.711 -0.0945 -2.2623  0.2952
 1067TIP3    H2 3147   2.940   6.749   4.764 -0.1124 -1.2325 -0.6023
 1068TIP3   OH2 3148   7.066   3.535   1.272  0.6270  0.1233  0.7214
 1068TIP3    H1 3149   7.078   3.603   1.205 -1.0225  1.7276  1.9495
 1068TIP3    H2 3150   6.976   3.548   1.302 -0.2018 -3.4463  0.1669
 1069TIP3   OH2 3151   4.154   1.413   1.291 -0.0475  0.2396 -0.2933
 1069TIP3    H1 3152   4.219   1.468   1.247  1.3267 -1.3407 -0.3310
 1069TIP3    H2 3153   4.193   1.393   1.376 -0.2689 -1.0970 -0.4901
 1070TIP3   OH2 3154   6.303   5.339   2.210 -0.2663 -0.2249  0.7074
 1070TIP3    H1 3155   6.322   5.408   2.273  1.0778  0.9520 -0.9045
 1070TIP3    H2 3156   6.371   5.273   2.226 -0.5857 -0.4398  1.1928
 1071TIP3   OH2 3157   7.116   0.811   0.297  0.5314 -0.0948  0.2735
 1071TIP3    H1 3158   7.203   0.779   0.272  0.0682 -1.0785 -0.1402
 1071TIP3    H2 3159   7.132   0.867   0.373  1.5398 -0.1687  0.1311
 1072TIP3   OH2 3160   3.046   3.359   0.134 -0.5111  0.7088 -0.0305
 1072TIP3    H1 3161   2.972   3.419   0.128  0.6452  2.1743 -0.0267
 1072TIP3    H2 3162   3.008   3.277   0.165 -2.3453  1.0096 -1.3352
 1073TIP3   OH2 3163   8.281   1.607   2.388 -0.4240  0.5318 -0.2772
 1073TIP3    H1 3164   8.348   1.556   2.433 -1.3002 -0.1767  0.2490
 1073TIP3    H2 3165   8.239   1.545   2.328 -1.4980  0.6075  0.3675
 1074TIP3   OH2 3166   0.099   0.375   4.388  0.5746  0.2909  0.2127
 1074TIP3    H1 3167   0.147   0.357   4.469  1.6190  0.4247 -0.3547
 1074TIP3    H2 3168   0.092   0.290   4.345  0.8750  0.3810 -0.0118
 1075TIP3   OH2 3169   3.890   2.997   2.635  0.1924 -0.3553  0.5835
 1075TIP3    H1 3170   3.935   2.993   2.719  0.7074 -1.6299  0.2748
 1075TIP3    H2 3171   3.925   2.922   2.586 -2.1931 -1.3552  0.2920
 1076TIP3   OH2 3172   1.351   6.897   5.887 -0.0218 -0.4109  0.2667
 1076TIP3    H1 3173   1.395   6.908   5.971 -0.4188 -1.5773  0.6603
 1076TIP3    H2 3174   1.401   6.950   5.826  0.6249 -0.0047  1.1279
 1077TIP3   OH2 3175   3.861   0.457   3.551  0.5298  0.6927  0.0762
 1077TIP3    H1 3176   3.865   0.395   3.623 -0.5674  0.1329 -0.3271
 1077TIP3    H2 3177   3.802   0.526   3.582 -2.1170 -0.8476 -1.1885
 1078TIP3   OH2 3178   3.122   2.655   3.049  0.8135  0.0615 -0.1769
 1078TIP3    H1 3179   3.074   2.667   2.968  0.4822 -0.4360 -0.0581
 1078TIP3    H2 3180   3.197   2.600   3.025  1.0340  0.3954 -0.2574
 1079TIP3   OH2 3181   1.172   5.743   5.686  0.2859 -0.3908  0.3418
 1079TIP3    H1 3182   1.119   5.823   5.687 -0.7038 -1.0317  1.8264
 1079TIP3    H2 3183   1.152   5.703   5.601 -1.8678 -0.7360  0.9483
 1080TIP3   OH2 3184   7.177   6.744   3.457 -0.0130  0.2208  0.4227
 1080TIP3    H1 3185   7.087   6.717   3.439  0.4489  0.7094 -3.6881
 1080TIP3    H2 3186   7.169   6.834   3.488 -0.9489 -0.5830  2.7646
 1081TIP3   OH2 3187   6.022   7.202   2.239 -0.0417  0.2128 -0.3563
 1081TIP3    H1 3188   6.024   7.122   2.292  0.5747 -0.5524 -1.5156
 1081TIP3    H2 3189   5.944   7.249   2.271 -0.3163 -0.7565  0.4572
 1082TIP3   OH2 3190   0.061   1.529   6.471 -0.2948  0.4837  0.5007
 1082TIP3    H1 3191   0.065   1.623   6.454  2.0306  0.3572  0.0033
 1082TIP3    H2 3192   0.138   1.511   6.524  0.6975 -1.4779 -1.4389
 1083TIP3   OH2 3193   2.330   0.475   1.216  0.2743  0.4169 -0.2944
 1083TIP3    H1 3194   2.374   0.429   1.144 -0.3559 -0.2267 -0.2803
 1083TIP3    H2 3195   2.250   0.511   1.177 -1.0884 -1.6091  0.4674
 1084TIP3   OH2 3196   0.002   2.190   5.021 -0.0165  0.2118  0.1027
 1084TIP3    H1 3197   0.079   2.224   5.068 -0.2232 -0.6161  1.0660
 1084TIP3    H2 3198   0.036   2.161   4.937  0.2633  2.2699 -0.5526
 1085TIP3   OH2 3199   4.424   1.912   3.122  0.1067 -0.4444  0.9434
 1085TIP3    H1 3200   4.347   1.891   3.175 -1.6617  0.1994 -1.2588
 1085TIP3    H2 3201   4.436   2.006   3.135  0.3752 -0.4937  1.0640
 1086TIP3   OH2 3202   3.578   2.438   2.346  0.2639  0.1147  0.5533
 1086TIP3    H1 3203   3.659   2.480   2.319 -0.0784  1.3541  1.3719
 1086TIP3    H2 3204   3.567   2.464   2.438 -0.7929 -0.4534  0.6030
 1087TIP3   OH2 3205   5.980   4.718   1.777 -0.4185 -0.6809 -0.1709
 1087TIP3    H1 3206   5.951   4.719   1.686  1.0784 -0.3544 -0.6710
 1087TIP3    H2 3207   5.965   4.808   1.808  0.2578 -0.4440 -0.5071
 1088TIP3   OH2 3208   0.187   4.004   4.369  0.0468 -0.0390  0.4473
 1088TIP3    H1 3209   0.162   3.916   4.395  0.1243 -0.0214  0.5798
 1088TIP3    H2 3210   0.271   4.020   4.413 -0.8812  0.8331  2.0078
 1089TIP3   OH2 3211   5.235   1.662   0.984 -0.1029 -0.1864 -0.9995
 1089TIP3    H1 3212   5.249   1.670   0.890 -2.6816  0.6925 -1.3827
 1089TIP3    H2 3213   5.203   1.748   1.011  0.0450 -0.5926  0.5742
 1090TIP3   OH2 3214   5.220   1.678   6.413  0.2463 -0.0007 -0.1783
 1090TIP3    H1 3215   5.247   1.642   6.329  1.8346  3.6533 -1.4221
 1090TIP3    H2 3216   5.297   1.670   6.469  0.3811  0.7183 -0.2469
 1091TIP3   OH2 3217   0.999   3.884   0.040  0.0631  0.4728  0.0871
 1091TIP3    H1 3218   1.028   3.965   0.083  0.6835  1.5264 -2.1133
 1091TIP3    H2 3219   0.933   3.913  -0.023 -0.5340 -0.9174  0.0453
 1092TIP3   OH2 3220   4.884   3.222   4.379 -1.1620  0.0741  0.0913
 1092TIP3    H1 3221   4.807   3.256   4.333  0.1578  2.2736 -0.6508
 1092TIP3    H2 3222   4.955   3.234   4.317 -0.0630 -1.1437  1.0729
 1093TIP3   OH2 3223   0.854   3.093   3.037 -0.2674  0.0938  0.0546
 1093TIP3    H1 3224   0.843   3.153   2.963 -0.8961 -0.5750 -0.4015
 1093TIP3    H2 3225   0.798   3.129   3.106 -0.1171  0.4010  0.0198
 1094TIP3   OH2 3226   1.845   7.513   1.775  0.3833  0.3401 -0.4029
 1094TIP3    H1 3227   1.758   7.480   1.798 -0.2633  0.6739 -2.2146
 1094TIP3    H2 3228   1.899   7.495   1.852 -1.6557  1.5709  1.4000
 1095TIP3   OH2 3229   3.291   4.475   0.772  0.2356 -0.1641  0.2242
 1095TIP3    H1 3230   3.269   4.468   0.679 -1.8958 -1.5774  0.7421
 1095TIP3    H2 3231   3.386   4.465   0.776  0.2004 -1.8670 -1.7010
 1096TIP3   OH2 3232   2.641   3.583   5.502  0.2856 -0.0495 -0.0687
 1096TIP3    H1 3233   2.580   3.512   5.482 -0.0813  0.3644 -0.4428
 1096TIP3    H2 3234   2.691   3.596   5.422  0.4823 -0.0113  0.0583
 1097TIP3   OH2 3235   0.368   5.740   3.890 -0.0205  0.1236 -0.0419
 1097TIP3    H1 3236   0.357   5.809   3.825  0.0070  0.0108 -0.1676
 1097TIP3    H2 3237   0.463   5.734   3.903 -0.0672  0.7133  0.6256
 1098TIP3   OH2 3238   2.101   1.825   3.373  0.0601 -0.4811 -0.6844
 1098TIP3    H1 3239   2.169   1.769   3.412  0.6570 -0.6075 -1.8667
 1098TIP3    H2 3240   2.045   1.765   3.325  0.5329 -0.1138 -1.7171
 1099TIP3   OH2 3241   6.846   2.485   3.709  0.0535  0.2343  0.5435
 1099TIP3    H1 3242   6.833   2.578   3.690 -0.8285  0.0094 -0.0222
 1099TIP3    H2 3243   6.776   2.463   3.771  0.1764 -0.0778  0.5727
 1100TIP3   OH2 3244   4.236   0.798   6.654 -0.4125 -0.0078  0.6444
 1100TIP3    H1 3245   4.160   0.837   6.697 -0.2597  1.9239 -0.7210
 1100TIP3    H2 3246   4.306   0.863   6.664  0.3674 -0.6790 -0.2137
 1101TIP3   OH2 3247   3.442   4.426   0.473  0.2788 -0.0011 -0.0235
 1101TIP3    H1 3248   3.524   4.444   0.427 -0.2581 -1.5114 -1.6774
 1101TIP3    H2 3249   3.376   4.479   0.427  0.3404  1.6540  1.6514
 1102TIP3   OH2 3250   1.538   1.074   0.441 -0.3093 -0.5769 -0.2455
 1102TIP3    H1 3251   1.620   1.025   0.440 -0.2402 -0.4648 -1.4444
 1102TIP3    H2 3252   1.470   1.007   0.442 -0.3389 -0.7772  4.0939
 1103TIP3   OH2 3253   7.166   4.884   5.856 -0.0849 -0.3803  0.6099
 1103TIP3    H1 3254   7.202   4.873   5.944 -1.1058 -0.8025  0.9972
 1103TIP3    H2 3255   7.161   4.979   5.844  0.7729 -0.3170  0.6919
 1104TIP3   OH2 3256   1.634   6.138   3.809 -0.4788 -0.6151 -0.4052
 1104TIP3    H1 3257   1.622   6.176   3.722 -1.3431  0.6379  0.2330
 1104TIP3    H2 3258   1.547   6.108   3.834 -0.0165 -2.0510 -0.4275
 1105TIP3   OH2 3259   1.602   4.562   0.679  0.0428  0.3139  0.0150
 1105TIP3    H1 3260   1.662   4.629   0.646  0.6669 -0.4577 -0.4576
 1105TIP3    H2 3261   1.608   4.491   0.615 -1.2173  0.1295  0.0790
 1106TIP3   OH2 3262   5.575   7.155   5.571 -0.5624 -0.1648 -0.3689
 1106TIP3    H1 3263   5.501   7.195   5.526 -0.4703  0.4860  0.0450
 1106TIP3    H2 3264   5.650   7.169   5.513 -0.6688 -0.3849 -0.5600
 1107TIP3   OH2 3265   8.244   2.907   6.014 -0.2788 -0.0310 -0.4447
 1107TIP3    H1 3266   8.149   2.911   6.002 -0.1711  2.1927 -0.9296
 1107TIP3    H2 3267   8.279   2.887   5.928 -0.2371  1.1437 -0.7174
 1108TIP3   OH2 3268   0.446   2.208   2.036 -0.1144  0.5420 -0.5405
 1108TIP3    H1 3269   0.484   2.139   2.090 -0.7427  1.2778  0.9053
 1108TIP3    H2 3270   0.513   2.277   2.037 -0.5963  1.0201  0.3094
 1109TIP3   OH2 3271   5.215   2.976   4.876  0.2055 -0.1645 -0.2154
 1109TIP3    H1 3272   5.157   2.902   4.898 -0.5592  0.0519 -1.4199
 1109TIP3    H2 3273   5.165   3.054   4.902  1.0259 -0.0440  1.0876
 1110TIP3   OH2 3274   1.372   7.283   4.383 -0.0595  0.0147 -0.2926
 1110TIP3    H1 3275   1.400   7.270   4.474 -0.3358 -0.1285 -0.2269
 1110TIP3    H2 3276   1.330   7.369   4.383  0.5276  0.3121 -0.4297
 1111TIP3   OH2 3277   5.635   0.367   4.313  0.3304  0.6516 -0.2016
 1111TIP3    H1 3278   5.591   0.320   4.384  0.0468  1.4227  0.1570
 1111TIP3    H2 3279   5.622   0.312   4.236  2.8207 -1.4929  0.7620
 1112TIP3   OH2 3280   0.345   1.126   3.675  0.0122  0.5929  0.9364
 1112TIP3    H1 3281   0.394   1.047   3.700 -0.0229 -0.3743 -1.7299
 1112TIP3    H2 3282   0.256   1.109   3.705  0.3253  0.3135  1.7377
 1113TIP3   OH2 3283   6.350   2.941   2.907 -0.0734 -0.1839  0.4326
 1113TIP3    H1 3284   6.384   2.979   2.826 -1.3712 -0.1553 -0.1195
 1113TIP3    H2 3285   6.428   2.909   2.953  0.8252  1.0807 -0.1485
 1114TIP3   OH2 3286   4.317   2.801   6.427  0.2815  0.2892  0.1621
 1114TIP3    H1 3287   4.322   2.759   6.513  0.1280  1.6077  0.8382
 1114TIP3    H2 3288   4.407   2.801   6.395  0.4307  0.3049  0.5722
 1115TIP3   OH2 3289   1.497   2.335   1.424  0.9279  0.2014  0.1444
 1115TIP3    H1 3290   1.524   2.410   1.371  0.0904 -0.3063 -1.0377
 1115TIP3    H2 3291   1.544   2.261   1.387  0.3457 -0.1555  0.1021
 1116TIP3   OH2 3292   2.214   1.168   6.703 -0.7936 -0.1909 -0.5457
 1116TIP3    H1 3293   2.282   1.099   6.705  2.0222  2.2903 -2.4176
 1116TIP3    H2 3294   2.240   1.228   6.773 -2.3032 -0.1954  0.0426
 1117TIP3   OH2 3295   7.384  -0.023   4.520  0.0840  0.1893 -0.3810
 1117TIP3    H1 3296   7.444   0.013   4.586  0.7308  0.7810 -1.2760
 1117TIP3    H2 3297   7.377   0.046   4.454 -1.4188  0.0343 -0.4097
 1118TIP3   OH2 3298   6.125   2.422   2.097  0.2882 -0.2090  0.6067
 1118TIP3    H1 3299   6.196   2.380   2.050  1.0883  0.7858  0.8841
 1118TIP3    H2 3300   6.078   2.350   2.139  0.6447 -0.9438 -0.2341
 1119TIP3   OH2 3301   2.508   0.942   1.676 -0.1678 -0.1291  0.4154
 1119TIP3    H1 3302   2.577   0.923   1.739 -0.4807  0.2760  0.8806
 1119TIP3    H2 3303   2.466   0.857   1.660 -1.2985  0.0368  2.1865
 1120TIP3   OH2 3304   3.864   4.716   2.794  0.7707  0.1967 -0.5419
 1120TIP3    H1 3305   3.866   4.769   2.714 -0.1157 -0.5762 -1.1039
 1120TIP3    H2 3306   3.781   4.669   2.788  1.5709 -1.3188 -0.1095
 1121TIP3   OH2 3307   0.387   2.254   1.489  0.1467 -0.3502  0.6527
 1121TIP3    H1 3308   0.462   2.285   1.438 -0.0853  0.7441  0.9361
 1121TIP3    H2 3309   0.311   2.272   1.433 -0.0980  0.7399  1.2877
 1122TIP3   OH2 3310   1.730   2.277   4.602 -0.1237 -0.0574 -0.8174
 1122TIP3    H1 3311   1.812   2.264   4.554 -1.0912 -1.5882 -2.1649
 1122TIP3    H2 3312   1.710   2.370   4.589  0.5240 -0.0490 -1.9587
 1123TIP3   OH2 3313   2.307   7.636   5.763  0.9187 -0.3711  0.4307
 1123TIP3    H1 3314   2.250   7.654   5.837  0.7727  1.7029 -0.1294
 1123TIP3    H2 3315   2.254   7.582   5.704 -0.0991  0.6146  0.4095
 1124TIP3   OH2 3316   6.600   2.027   1.521 -0.4933  0.0864  0.0168
 1124TIP3    H1 3317   6.675   2.025   1.462 -0.8581 -0.1447 -0.4503
 1124TIP3    H2 3318   6.529   1.988   1.470 -0.5620 -1.0622  0.9583
 1125TIP3   OH2 3319   4.815   4.913   5.923  0.8163  0.2966 -0.4428
 1125TIP3    H1 3320   4.789   4.941   5.835  1.1322  0.0618 -0.6121
 1125TIP3    H2 3321   4.909   4.897   5.916  0.9857  0.9776  0.1168
 1126TIP3   OH2 3322   2.367   4.943   0.272  0.2560 -0.0750 -0.1325
 1126TIP3    H1 3323   2.339   4.899   0.191  1.4430  1.3532 -1.3800
 1126TIP3    H2 3324   2.285   4.964   0.317 -0.3789 -2.8707  0.2182
 1127TIP3   OH2 3325   4.755   4.757   1.102  0.1535  0.1597 -0.9080
 1127TIP3    H1 3326   4.699   4.706   1.161  0.3438  0.8714 -0.0994
 1127TIP3    H2 3327   4.818   4.693   1.069  0.4608 -0.1293  0.1801
 1128TIP3   OH2 3328   0.312   0.013   5.542  0.0675  0.4408 -0.2299
 1128TIP3    H1 3329   0.284   0.068   5.615  0.3621  0.8076 -0.3910
 1128TIP3    H2 3330   0.335  -0.070   5.582 -0.0511  0.5475  0.0604
 1129TIP3   OH2 3331   0.712   7.064   3.189  0.0154 -0.0678  0.4383
 1129TIP3    H1 3332   0.756   7.129   3.133 -4.5855  2.6270 -0.5421
 1129TIP3    H2 3333   0.691   6.992   3.129 -1.3469  0.9784 -0.3849
 1130TIP3   OH2 3334   7.348   1.693   5.051 -0.5480  0.3408 -0.3207
 1130TIP3    H1 3335   7.352   1.671   5.144 -0.8180  0.0491 -0.3765
 1130TIP3    H2 3336   7.414   1.761   5.040 -0.2291  0.0923  0.0069
 1131TIP3   OH2 3337   3.233   1.161   5.291 -0.0192 -0.6252 -0.0881
 1131TIP3    H1 3338   3.184   1.185   5.213 -0.2777 -1.6656 -0.2623
 1131TIP3    H2 3339   3.258   1.245   5.330 -1.1338 -0.0749 -0.4983
 1132TIP3   OH2 3340   0.284   7.375   1.499 -0.1636  0.5129 -0.1419
 1132TIP3    H1 3341   0.202   7.421   1.517 -1.2657 -1.5217  0.3598
 1132TIP3    H2 3342   0.264   7.318   1.424  0.1154 -1.4952  1.2201
 1133TIP3   OH2 3343   5.237   0.432   5.654 -0.0340 -0.1422 -0.1933
 1133TIP3    H1 3344   5.186   0.506   5.620 -0.5726 -1.2883 -2.0581
 1133TIP3    H2 3345   5.177   0.358   5.647  0.6145 -0.8400  1.3073
 1134TIP3   OH2 3346   0.130   6.644   2.197 -0.3913 -0.1404  0.9507
 1134TIP3    H1 3347   0.070   6.591   2.250  0.3528 -0.5266  1.4340
 1134TIP3    H2 3348   0.076   6.714   2.161 -0.7792  0.6681  2.9679
 1135TIP3   OH2 3349   6.092   3.929   4.027  0.2692  0.2007 -0.3752
 1135TIP3    H1 3350   6.089   3.888   3.941  1.5543  0.1058 -0.3909
 1135TIP3    H2 3351   6.006   3.971   4.037  0.0329  0.0393 -1.6035
 1136TIP3   OH2 3352   4.781   5.249   6.420 -0.2048  0.1260  0.3042
 1136TIP3    H1 3353   4.728   5.213   6.350  1.0026 -0.0566 -0.5506
 1136TIP3    H2 3354   4.728   5.236   6.499 -1.4932  0.1447 -0.5242
 1137TIP3   OH2 3355   2.044   6.674   2.668 -0.5103 -0.0836  0.7251
 1137TIP3    H1 3356   2.120   6.619   2.649 -0.2357  0.1362  1.1771
 1137TIP3    H2 3357   2.063   6.758   2.628  0.0168  0.3440  1.8263
 1138TIP3   OH2 3358   1.037   7.479   0.916 -0.0002  0.1552  0.0014
 1138TIP3    H1 3359   1.123   7.517   0.936 -0.5314  1.5320 -0.2214
 1138TIP3    H2 3360   1.054   7.418   0.844  0.9227 -0.2332  0.5363
 1139TIP3   OH2 3361   7.108   4.737   4.007 -0.0171  0.1383 -0.0027
 1139TIP3    H1 3362   7.184   4.741   3.949 -0.1329  1.3862 -0.0957
 1139TIP3    H2 3363   7.037   4.777   3.957 -0.4093  0.1459  0.5492
 1140TIP3   OH2 3364   6.877   2.737   5.049  0.7466  0.1877  0.2460
 1140TIP3    H1 3365   6.824   2.807   5.088 -3.2323 -1.8987 -0.8758
 1140TIP3    H2 3366   6.912   2.777   4.969 -1.6445  0.9774 -0.5120
 1141TIP3   OH2 3367   3.170   3.194   0.740 -0.8333  0.0905 -0.4725
 1141TIP3    H1 3368   3.224   3.255   0.790 -1.5287  0.4026 -0.0713
 1141TIP3    H2 3369   3.216   3.183   0.657  0.7803 -1.0972  0.5372
 1142TIP3   OH2 3370   3.168   7.807   1.111  0.0286 -0.7399 -0.6029
 1142TIP3    H1 3371   3.127   7.748   1.048  0.8812 -1.5672 -0.3971
 1142TIP3    H2 3372   3.262   7.790   1.104  0.1380 -1.0040  1.0160
 1143TIP3   OH2 3373   7.744   7.258   2.666 -0.3723  0.3147  0.0447
 1143TIP3    H1 3374   7.724   7.169   2.695  0.2592  0.5609  1.3304
 1143TIP3    H2 3375   7.839   7.263   2.667 -0.3997  0.9646 -0.1152
 1144TIP3   OH2 3376   2.699   2.871   1.368 -0.1250 -0.4331 -1.2139
 1144TIP3    H1 3377   2.655   2.925   1.434 -0.0290 -1.4888 -0.2584
 1144TIP3    H2 3378   2.725   2.792   1.415  2.1670 -0.1619 -1.9280
 1145TIP3   OH2 3379   4.436   6.952   4.037  0.1295  0.5594  0.1997
 1145TIP3    H1 3380   4.384   6.916   4.109  0.0966  1.1837  0.4954
 1145TIP3    H2 3381   4.476   7.031   4.073  0.4206  0.6694 -0.3523
 1146TIP3   OH2 3382   3.345   5.294   1.888  0.2565 -0.0344 -0.5830
 1146TIP3    H1 3383   3.326   5.253   1.803  0.0843  1.0071 -1.0557
 1146TIP3    H2 3384   3.441   5.296   1.892  0.2765  1.1680 -1.3806
 1147TIP3   OH2 3385   0.853   5.170   4.058  0.1837 -0.1986  0.6990
 1147TIP3    H1 3386   0.800   5.248   4.073  0.8496  0.4111 -0.0656
 1147TIP3    H2 3387   0.795   5.112   4.007  0.4533  0.7579 -0.7627
 1148TIP3   OH2 3388   2.141   1.888   4.620 -0.1646  0.0572  0.2370
 1148TIP3    H1 3389   2.167   1.886   4.712 -0.2712 -0.9252  0.2657
 1148TIP3    H2 3390   2.217   1.921   4.573 -0.3420  1.2064  0.7449
 1149TIP3   OH2 3391   0.545   7.071   2.808  0.4044  0.2711  0.0988
 1149TIP3    H1 3392   0.528   7.057   2.715 -0.1937  0.7323  0.1347
 1149TIP3    H2 3393   0.614   7.136   2.810  0.4384  0.2400 -0.0226
 1150TIP3   OH2 3394   5.396   2.854   3.094  0.0943 -0.3037  0.3270
 1150TIP3    H1 3395   5.360   2.789   3.034  0.5031 -0.1825 -0.0596
 1150TIP3    H2 3396   5.429   2.803   3.168 -0.7427 -0.4228  0.6194
 1151TIP3   OH2 3397   2.503   1.105   4.655 -0.3053  0.4028 -0.2020
 1151TIP3    H1 3398   2.566   1.107   4.727 -0.1055  0.9816 -0.3834
 1151TIP3    H2 3399   2.441   1.035   4.678  2.0897 -2.3469 -1.4707
 1152TIP3   OH2 3400   7.988   4.297   5.770 -0.5713  0.0555  0.0788
 1152TIP3    H1 3401   7.978   4.377   5.720  0.3605  1.3036  1.7771
 1152TIP3    H2 3402   8.049   4.244   5.720 -0.8858  0.5682 -0.8632
 1153TIP3   OH2 3403   5.142   4.477   1.397 -0.5085 -0.5294  0.6146
 1153TIP3    H1 3404   5.083   4.520   1.459  1.6086 -0.2191  2.5312
 1153TIP3    H2 3405   5.182   4.406   1.447 -0.1803 -1.5502 -1.0149
 1154TIP3   OH2 3406   4.448   5.469   3.912  0.2645 -0.0664  0.4467
 1154TIP3    H1 3407   4.418   5.460   4.003 -1.3185 -0.3351 -0.0778
 1154TIP3    H2 3408   4.403   5.547   3.880 -0.8103 -1.1384 -0.7205
 1155TIP3   OH2 3409   5.061   2.201   4.872  0.6573  0.0649  0.0251
 1155TIP3    H1 3410   5.024   2.284   4.844 -0.7818 -0.5067  0.1279
 1155TIP3    H2 3411   5.056   2.145   4.794  2.3013  0.2709 -0.2584
 1156TIP3   OH2 3412   7.179   3.020   6.625  0.5643  0.0528  0.0324
 1156TIP3    H1 3413   7.094   3.062   6.638  1.0091  0.9575  0.1651
 1156TIP3    H2 3414   7.176   2.985   6.536  0.2563  0.5723 -0.1669
 1157TIP3   OH2 3415   1.618   7.259   6.342 -0.5914  0.2341 -0.0728
 1157TIP3    H1 3416   1.706   7.222   6.354 -0.8295 -0.3046  0.0533
 1157TIP3    H2 3417   1.573   7.241   6.424 -0.3647  1.8518  0.4344
 1158TIP3   OH2 3418   4.336   5.312   0.808  0.1643  0.0492  0.6962
 1158TIP3    H1 3419   4.412   5.270   0.848 -0.2807 -0.5247  0.9628
 1158TIP3    H2 3420   4.262   5.285   0.863 -0.2019  0.7798  0.5715
 1159TIP3   OH2 3421   3.901   0.543   4.272 -0.1729 -0.3362 -0.3668
 1159TIP3    H1 3422   3.878   0.453   4.248 -2.0646 -0.6868  2.3097
 1159TIP3    H2 3423   3.820   0.592   4.259 -0.0673  0.2865  1.1722
 1160TIP3   OH2 3424   6.691   6.834   5.583 -0.4818  0.0808 -0.4623
 1160TIP3    H1 3425   6.699   6.841   5.487 -0.9853 -0.4574 -0.5440
 1160TIP3    H2 3426   6.709   6.923   5.614  4.1427 -0.5146 -0.7163
 1161TIP3   OH2 3427   6.804   5.659   2.138 -0.1141 -0.0249  0.2113
 1161TIP3    H1 3428   6.725   5.605   2.147 -0.0658  0.0347  1.0369
 1161TIP3    H2 3429   6.877   5.597   2.149  0.0156  0.5669  4.5691
 1162TIP3   OH2 3430   2.177   7.776   3.012 -0.4653 -0.5271  0.0490
 1162TIP3    H1 3431   2.105   7.814   2.963 -0.6305 -0.5383  0.2782
 1162TIP3    H2 3432   2.255   7.822   2.981 -0.6424 -0.1271  0.1973
 1163TIP3   OH2 3433   3.147   6.042   4.584 -0.4796 -0.4946  0.1177
 1163TIP3    H1 3434   3.222   6.099   4.569 -0.2551 -0.6720  0.5229
 1163TIP3    H2 3435   3.103   6.036   4.500  0.7812 -1.5523 -0.5141
 1164TIP3   OH2 3436   0.074   4.560   6.705  0.0516 -0.2677  0.2531
 1164TIP3    H1 3437   0.108   4.614   6.634 -1.8888 -1.5598 -1.8591
 1164TIP3    H2 3438   0.088   4.611   6.784  0.3295  2.2931 -1.3245
 1165TIP3   OH2 3439   1.561   5.699   6.180 -0.2879  0.2361  0.1602
 1165TIP3    H1 3440   1.524   5.665   6.261  1.3519 -1.9400  0.0956
 1165TIP3    H2 3441   1.646   5.735   6.205 -0.1810  0.4196 -0.4418
 1166TIP3   OH2 3442   5.210   3.254   2.681  0.4779 -0.5272  0.2453
 1166TIP3    H1 3443   5.210   3.181   2.619  0.0926 -0.5524  0.2768
 1166TIP3    H2 3444   5.220   3.332   2.627  2.0998 -0.6699  0.2934
 1167TIP3   OH2 3445   7.488   7.330   2.599  0.1772 -0.6881  0.5241
 1167TIP3    H1 3446   7.470   7.268   2.528  1.0295  1.2032 -1.4789
 1167TIP3    H2 3447   7.573   7.304   2.633  0.5992 -0.5763 -0.4032
 1168TIP3   OH2 3448   6.255   2.921   3.894  0.0877  0.1286 -0.0877
 1168TIP3    H1 3449   6.314   2.992   3.920 -1.5398  0.7507  2.2333
 1168TIP3    H2 3450   6.314   2.849   3.869  1.7816  1.7400 -1.0455
 1169TIP3   OH2 3451   7.357   2.926   5.566 -0.3841 -0.2821  0.3249
 1169TIP3    H1 3452   7.324   2.984   5.498  1.1235 -0.0281 -0.2302
 1169TIP3    H2 3453   7.368   2.841   5.522 -2.5525 -1.0365  1.1218
 1170TIP3   OH2 3454   1.504   7.284   5.688 -0.6510  0.1143 -0.3731
 1170TIP3    H1 3455   1.534   7.246   5.771 -0.4838 -0.9485 -0.9076
 1170TIP3    H2 3456   1.411   7.299   5.701 -1.1887 -2.4402 -0.8246
 1171TIP3   OH2 3457   7.193   3.498   2.853  0.2703  1.0040 -0.0848
 1171TIP3    H1 3458   7.114   3.512   2.905 -0.0923  0.5830 -0.5135
 1171TIP3    H2 3459   7.264   3.531   2.908  0.0432 -0.4925  1.1789
 1172TIP3   OH2 3460   0.675   5.203   0.214 -0.7078 -0.1355  0.2159
 1172TIP3    H1 3461   0.671   5.139   0.142 -0.1022 -0.1740  0.2078
 1172TIP3    H2 3462   0.726   5.276   0.178 -0.1664 -0.2716  0.6884
 1173TIP3   OH2 3463   1.563   5.799   1.210 -0.5137  0.6519  0.6858
 1173TIP3    H1 3464   1.558   5.775   1.117  0.5956 -0.0947  0.8046
 1173TIP3    H2 3465   1.623   5.873   1.213 -1.6036  1.5748  0.6774
 1174TIP3   OH2 3466   4.869   2.338   5.902 -0.5369  0.2644 -0.0512
 1174TIP3    H1 3467   4.875   2.409   5.966  0.2350  0.4785 -0.3414
 1174TIP3    H2 3468   4.891   2.380   5.819  3.3131 -0.8765  0.1847
 1175TIP3   OH2 3469   8.307   2.221   5.432 -0.0328 -0.0520 -0.0578
 1175TIP3    H1 3470   8.351   2.138   5.412  0.5305  0.4301 -0.8793
 1175TIP3    H2 3471   8.234   2.225   5.370  0.4761  0.4804 -0.6297
 1176TIP3   OH2 3472   6.080   2.176   6.508  0.4354  0.5161 -0.0640
 1176TIP3    H1 3473   5.986   2.195   6.501  0.2448 -0.1858  0.4486
 1176TIP3    H2 3474   6.086   2.114   6.580  1.2191  0.0104 -0.5555
 1177TIP3   OH2 3475   4.723   0.335   2.584  0.2391  0.4864  0.6268
 1177TIP3    H1 3476   4.709   0.349   2.491 -3.0167 -0.1019  0.9209
 1177TIP3    H2 3477   4.668   0.400   2.628  2.2487  1.2361  2.2231
 1178TIP3   OH2 3478   2.100   7.291   6.099 -0.5314 -0.6793  0.1565
 1178TIP3    H1 3479   2.152   7.273   6.021  1.0450  0.7631  0.7957
 1178TIP3    H2 3480   2.139   7.237   6.168  0.1643  0.3932  0.6357
 1179TIP3   OH2 3481   6.111   6.055   3.358 -0.6285 -0.3389  0.6135
 1179TIP3    H1 3482   6.125   5.994   3.430 -1.5439  0.7475  1.7614
 1179TIP3    H2 3483   6.164   6.132   3.379 -0.3120 -0.2993 -0.2656
 1180TIP3   OH2 3484   0.265   1.422   6.259  0.8284 -0.1723 -0.0476
 1180TIP3    H1 3485   0.285   1.470   6.340 -2.8014 -1.3023  1.7123
 1180TIP3    H2 3486   0.243   1.334   6.288 -2.6005 -0.0945 -1.9068
 1181TIP3   OH2 3487   2.858   2.424   2.555  0.0525  0.2645  0.4311
 1181TIP3    H1 3488   2.907   2.454   2.631 -0.0736 -0.1575  0.6858
 1181TIP3    H2 3489   2.767   2.424   2.584 -0.0692  0.7927  0.0458
 1182TIP3   OH2 3490   1.600   3.563   0.742  0.2461 -0.0304  0.4656
 1182TIP3    H1 3491   1.556   3.479   0.736  1.2991 -0.4828 -2.5761
 1182TIP3    H2 3492   1.538   3.626   0.705  0.8367 -0.1274 -0.7371
 1183TIP3   OH2 3493   5.476   3.099   2.214  0.2395 -0.3682 -0.6497
 1183TIP3    H1 3494   5.541   3.032   2.194 -0.8654 -1.6625 -0.0871
 1183TIP3    H2 3495   5.455   3.138   2.130  2.5929  0.9671 -0.7223
 1184TIP3   OH2 3496   2.106   5.364   4.953 -0.1741  0.2070 -0.3242
 1184TIP3    H1 3497   2.100   5.352   4.858 -0.2126  0.0948 -0.3081
 1184TIP3    H2 3498   2.018   5.344   4.985  0.3589 -1.9391 -0.0342
 1185TIP3   OH2 3499   2.769   6.234   5.392 -0.2442  0.1164  0.3410
 1185TIP3    H1 3500   2.838   6.292   5.423 -0.4530  0.4020  0.2817
 1185TIP3    H2 3501   2.702   6.235   5.461 -0.7609  0.8460 -0.1571
 1186TIP3   OH2 3502   5.386   2.602   6.324 -0.2312  0.0675 -0.0914
 1186TIP3    H1 3503   5.480   2.602   6.338  0.1986 -4.2322 -1.2716
 1186TIP3    H2 3504   5.376   2.617   6.230 -0.6966  0.3312 -0.0015
 1187TIP3   OH2 3505   0.090   4.462   2.799  0.1346  0.2297 -0.8500
 1187TIP3    H1 3506   0.017   4.408   2.830  2.9245 -3.0341  0.7948
 1187TIP3    H2 3507   0.081   4.460   2.703 -1.5635 -0.6237 -0.7239
 1188TIP3   OH2 3508   2.380   5.488   3.512  0.4913  0.2293 -0.3556
 1188TIP3    H1 3509   2.453   5.433   3.486  0.2893 -0.5139  0.5918
 1188TIP3    H2 3510   2.373   5.554   3.443  0.6302 -1.0274 -1.6023
 1189TIP3   OH2 3511   5.786   0.247   3.743 -0.5602  0.0538 -0.4284
 1189TIP3    H1 3512   5.808   0.177   3.681 -0.9518 -0.4213 -0.0384
 1189TIP3    H2 3513   5.836   0.227   3.822 -2.1535 -0.9165  0.3850
 1190TIP3   OH2 3514   6.121   6.439   1.727  0.0908 -0.2060  0.5613
 1190TIP3    H1 3515   6.122   6.516   1.670  2.0145  0.6348  1.6307
 1190TIP3    H2 3516   6.077   6.372   1.676  1.2956  0.6487 -1.7283
 1191TIP3   OH2 3517   0.386   1.921   3.775 -0.0541 -0.1951  0.1989
 1191TIP3    H1 3518   0.335   2.000   3.792 -0.9689 -0.8050  0.3860
 1191TIP3    H2 3519   0.377   1.868   3.854  0.7458 -0.3918  0.1707
 1192TIP3   OH2 3520   1.285   5.999   0.461 -0.3801  0.7418  0.1733
 1192TIP3    H1 3521   1.375   6.029   0.471 -0.1755 -0.2225  1.4736
 1192TIP3    H2 3522   1.258   6.032   0.375  0.1391  3.7428  1.0633
 1193TIP3   OH2 3523   6.943   5.267   4.576 -0.3151  0.0271  0.0590
 1193TIP3    H1 3524   6.933   5.362   4.580  2.6504  0.5318 -1.4808
 1193TIP3    H2 3525   6.969   5.242   4.665 -0.6036  0.7298  0.3491
 1194TIP3   OH2 3526   5.775   6.257   3.145 -0.1558  0.2735 -0.4003
 1194TIP3    H1 3527   5.699   6.263   3.203  2.2083 -0.2466  3.0409
 1194TIP3    H2 3528   5.822   6.179   3.175  1.8451  0.6630 -2.2894
 1195TIP3   OH2 3529   2.524   1.316   4.073  0.1484 -0.1479 -0.2638
 1195TIP3    H1 3530   2.586   1.314   4.000  0.8567  1.7791  0.2372
 1195TIP3    H2 3531   2.542   1.235   4.121  1.5614 -0.1416 -0.7254
 1196TIP3   OH2 3532   4.070   6.895   2.857 -0.4661  0.0792 -0.3454
 1196TIP3    H1 3533   4.068   6.841   2.936  0.7501 -1.6410 -1.4127
 1196TIP3    H2 3534   4.158   6.933   2.857 -0.6893  0.6087 -0.5583
 1197TIP3   OH2 3535   6.729   1.938   6.128  0.7230  0.1374 -0.1837
 1197TIP3    H1 3536   6.782   2.004   6.173 -0.1353  1.6086 -1.2633
 1197TIP3    H2 3537   6.773   1.855   6.148  1.4528  0.9341  1.7502
 1198TIP3   OH2 3538   3.039   2.187   1.021 -0.0964  0.1154  0.3299
 1198TIP3    H1 3539   3.085   2.124   1.077 -2.1705 -1.2127  0.6631
 1198TIP3    H2 3540   3.016   2.137   0.943  0.9677  1.3904 -0.8552
 1199TIP3   OH2 3541   2.465   1.971   6.722  0.2393  0.0266 -0.4143
 1199TIP3    H1 3542   2.464   2.042   6.658  0.0863  1.2803  0.9389
 1199TIP3    H2 3543   2.558   1.953   6.736  0.3855  1.6730  1.0317
 1200TIP3   OH2 3544   2.563   4.216   3.284 -0.0194 -0.5757 -0.4108
 1200TIP3    H1 3545   2.638   4.273   3.270 -1.6086  1.9677  0.7085
 1200TIP3    H2 3546   2.502   4.239   3.214 -1.7692  1.2023  1.5379
 1201TIP3   OH2 3547   0.761   1.257   5.327 -0.0777  0.0257 -0.0642
 1201TIP3    H1 3548   0.720   1.322   5.270  1.5016  0.5110 -0.7309
 1201TIP3    H2 3549   0.851   1.250   5.293 -0.1553 -2.4296  0.0506
 1202TIP3   OH2 3550   4.381   1.508   4.124 -0.5256  0.3971 -0.4491
 1202TIP3    H1 3551   4.413   1.587   4.081 -0.0926 -0.2267 -1.3055
 1202TIP3    H2 3552   4.457   1.450   4.127 -1.0863 -0.3612 -0.7322
 1203TIP3   OH2 3553   4.117   1.709   5.994 -0.8143 -0.7528  0.2215
 1203TIP3    H1 3554   4.049   1.719   6.060 -1.1656 -0.6628 -0.1527
 1203TIP3    H2 3555   4.183   1.775   6.018 -1.1107 -0.4704  0.2724
 1204TIP3   OH2 3556   8.164   0.513   3.164 -0.5019  0.3511 -0.3735
 1204TIP3    H1 3557   8.230   0.551   3.221 -0.9909  0.1541  0.3448
 1204TIP3    H2 3558   8.095   0.484   3.223 -0.0827 -1.8042 -0.8493
 1205TIP3   OH2 3559   4.207   4.834   2.131  0.0376  0.8681  0.7668
 1205TIP3    H1 3560   4.224   4.877   2.047  0.8824 -1.7034 -0.4791
 1205TIP3    H2 3561   4.267   4.875   2.192  1.3459  0.9769 -0.5368
 1206TIP3   OH2 3562   5.557   3.310   4.613  0.0624  0.1069  0.5110
 1206TIP3    H1 3563   5.615   3.351   4.549  0.5475  0.7030  1.3059
 1206TIP3    H2 3564   5.615   3.255   4.665 -0.1309  0.4498  1.1020
 1207TIP3   OH2 3565   0.201   1.405   4.304 -0.2801 -0.1109 -0.1008
 1207TIP3    H1 3566   0.147   1.332   4.335 -0.9099  0.3112 -0.1991
 1207TIP3    H2 3567   0.142   1.458   4.250  0.1024  0.6225  0.1900
 1208TIP3   OH2 3568   2.957   0.682   1.975  0.2430 -0.3437 -0.1223
 1208TIP3    H1 3569   3.019   0.685   1.901  1.3791  1.4075  0.8258
 1208TIP3    H2 3570   3.010   0.706   2.051 -1.5397  1.0161  0.7608
 1209TIP3   OH2 3571   5.388   7.568   2.127 -0.2275 -0.1038  0.2311
 1209TIP3    H1 3572   5.467   7.524   2.095  0.3056  0.5966  0.5646
 1209TIP3    H2 3573   5.418   7.620   2.201 -1.0354  0.0636  0.4474
 1210TIP3   OH2 3574   5.571   3.628   6.318  0.1158  0.7186 -0.5592
 1210TIP3    H1 3575   5.593   3.660   6.231  1.4406  0.3497 -0.3893
 1210TIP3    H2 3576   5.486   3.667   6.338 -0.9142 -0.3611 -2.5921
 1211TIP3   OH2 3577   4.159   3.697   0.755 -0.0162  0.3371  0.3515
 1211TIP3    H1 3578   4.134   3.762   0.690 -0.4805  0.3798  0.5729
 1211TIP3    H2 3579   4.254   3.710   0.766  0.2752 -0.3733 -1.0862
 1212TIP3   OH2 3580   3.261   3.502   6.351  0.1254  0.8725  0.6138
 1212TIP3    H1 3581   3.318   3.576   6.329  1.1578  0.2427  1.1463
 1212TIP3    H2 3582   3.259   3.501   6.446  2.1956 -1.3135  0.7105
 1213TIP3   OH2 3583   6.331   2.136   4.396  0.0693 -0.1601 -0.2068
 1213TIP3    H1 3584   6.370   2.135   4.483 -0.5802  0.3540  0.0899
 1213TIP3    H2 3585   6.251   2.084   4.405 -1.5018  2.2194  0.2251
 1214TIP3   OH2 3586   7.269   0.674   1.211 -0.2977  0.3574  0.1729
 1214TIP3    H1 3587   7.214   0.606   1.172 -0.2489  0.6091 -0.3464
 1214TIP3    H2 3588   7.207   0.737   1.249 -0.3542  0.2902  0.1910
 1215TIP3   OH2 3589   7.392   6.545   4.144  0.0416  0.0120 -0.2822
 1215TIP3    H1 3590   7.334   6.592   4.084  0.2592 -0.6323 -1.0126
 1215TIP3    H2 3591   7.468   6.602   4.154 -0.8379  1.0142  0.9370
 1216TIP3   OH2 3592   7.472   6.920   5.116  0.2456 -0.3946  0.1482
 1216TIP3    H1 3593   7.429   6.863   5.180  1.0619 -0.1261  0.9635
 1216TIP3    H2 3594   7.564   6.918   5.141  0.3779  0.7823 -0.1961
 1217TIP3   OH2 3595   5.309   6.628   5.291  0.1966 -0.1085 -0.0417
 1217TIP3    H1 3596   5.281   6.537   5.278  0.2816 -0.1398 -0.0080
 1217TIP3    H2 3597   5.325   6.661   5.203 -2.0180  0.5843 -0.2532
 1218TIP3   OH2 3598   2.443   6.786   0.971 -0.2543 -0.0247  0.4889
 1218TIP3    H1 3599   2.459   6.693   0.987 -0.7434  0.0285  1.3325
 1218TIP3    H2 3600   2.434   6.792   0.875 -1.9033 -1.1395  0.5322
 1219TIP3   OH2 3601   1.428   5.390   0.274 -0.5730  0.0392 -0.4724
 1219TIP3    H1 3602   1.381   5.431   0.347 -0.1431 -0.6000  0.1891
 1219TIP3    H2 3603   1.456   5.305   0.309 -2.2912 -1.2621 -2.1298
 1220TIP3   OH2 3604   6.511   7.012   6.214  0.2571 -0.6173  0.1424
 1220TIP3    H1 3605   6.452   7.064   6.158  0.0391  0.0016  0.9211
 1220TIP3    H2 3606   6.454   6.949   6.257  0.2574 -0.4116  0.4457
 1221TIP3   OH2 3607   5.817   6.953   1.459  0.0391 -0.3409 -0.0628
 1221TIP3    H1 3608   5.903   6.996   1.459  0.6745 -1.5752  0.2605
 1221TIP3    H2 3609   5.778   6.979   1.543  0.2763 -0.1286 -0.0142
 1222TIP3   OH2 3610   7.715   3.159   6.697 -0.4609  0.0575  0.1485
 1222TIP3    H1 3611   7.652   3.114   6.752 -1.2633  0.3554 -0.5060
 1222TIP3    H2 3612   7.731   3.098   6.624  0.4207 -0.2397  0.5728
 1223TIP3   OH2 3613   4.420   2.637   2.173 -0.1866 -0.3215 -0.2208
 1223TIP3    H1 3614   4.508   2.667   2.193 -0.3190  0.0818 -0.2308
 1223TIP3    H2 3615   4.426   2.604   2.083 -0.1772  0.2561 -0.4383
 1224TIP3   OH2 3616   7.202   6.896   1.127 -0.4235 -0.1385 -0.0700
 1224TIP3    H1 3617   7.290   6.901   1.088  1.4198 -4.3768  2.7908
 1224TIP3    H2 3618   7.213   6.928   1.216 -1.3589 -1.9738  0.7642
 1225TIP3   OH2 3619   5.691   1.792   1.987  0.1141 -1.0966  0.2572
 1225TIP3    H1 3620   5.685   1.782   2.082 -0.6987 -1.8968  0.1386
 1225TIP3    H2 3621   5.638   1.869   1.967  0.9965 -0.4048  0.5293
 1226TIP3   OH2 3622   0.634   4.186   5.196 -0.1684 -0.2163 -0.3129
 1226TIP3    H1 3623   0.709   4.191   5.255  0.6001  0.7176 -1.3207
 1226TIP3    H2 3624   0.580   4.115   5.231  0.0710  0.5189  1.6965
 1227TIP3   OH2 3625   2.463   6.809   5.200 -0.2981 -0.1307  0.2513
 1227TIP3    H1 3626   2.463   6.783   5.108 -0.6358  2.1338 -0.4323
 1227TIP3    H2 3627   2.549   6.783   5.233  0.4177  0.4460 -1.1226
 1228TIP3   OH2 3628   3.958   4.083   4.802 -0.1362 -0.2628  0.2919
 1228TIP3    H1 3629   3.900   4.041   4.866 -0.6165  2.2421  1.6518
 1228TIP3    H2 3630   4.036   4.104   4.853 -0.7317  2.2378  0.2684
 1229TIP3   OH2 3631   4.672   1.285   2.555 -0.0816 -0.4781 -0.5829
 1229TIP3    H1 3632   4.619   1.268   2.634 -1.4498 -0.1427 -1.3941
 1229TIP3    H2 3633   4.746   1.225   2.562 -1.8166 -2.7463 -0.5807
 1230TIP3   OH2 3634   6.919   0.270   2.185 -0.0821 -0.4583  0.1313
 1230TIP3    H1 3635   6.916   0.180   2.152  0.0405 -1.1335  1.8696
 1230TIP3    H2 3636   6.890   0.263   2.276  0.2954  1.2065  0.4043
 1231TIP3   OH2 3637   2.161   5.606   0.354 -0.1338 -0.8545  0.2344
 1231TIP3    H1 3638   2.205   5.681   0.313  0.0641 -0.1975  1.5790
 1231TIP3    H2 3639   2.071   5.637   0.368  0.1260 -0.5742  1.4311
 1232TIP3   OH2 3640   3.619   3.631   2.584 -0.0179 -0.8452 -0.0543
 1232TIP3    H1 3641   3.580   3.629   2.671  1.3270 -0.6308  0.5677
 1232TIP3    H2 3642   3.555   3.677   2.530 -0.8483 -0.9564  0.8175
 1233TIP3   OH2 3643   2.565   2.241   1.193  0.1858 -0.2725  0.2414
 1233TIP3    H1 3644   2.561   2.308   1.262 -1.0881 -0.5905  0.4997
 1233TIP3    H2 3645   2.639   2.186   1.218  2.9516  2.4369 -1.3272
 1234TIP3   OH2 3646   7.400   6.512   0.957 -0.6429 -0.0479  0.6042
 1234TIP3    H1 3647   7.471   6.549   1.010 -0.9123 -0.3496  1.1897
 1234TIP3    H2 3648   7.345   6.587   0.934 -1.1287 -0.0446  1.6976
 1235TIP3   OH2 3649   1.043   2.940   5.707 -0.3281 -0.2623 -0.3075
 1235TIP3    H1 3650   0.999   2.948   5.792 -3.2457  0.4646 -1.7629
 1235TIP3    H2 3651   1.026   3.024   5.663  0.1550 -1.0124 -2.0084
 1236TIP3   OH2 3652   5.452   7.067   2.943  0.2315  0.1186 -0.1910
 1236TIP3    H1 3653   5.428   7.160   2.947  1.4815  0.4406  0.1817
 1236TIP3    H2 3654   5.411   7.028   3.020  1.3654  0.7822  0.7823
 1237TIP3   OH2 3655   0.615   7.227   6.438 -0.0273  0.5913  0.0432
 1237TIP3    H1 3656   0.520   7.231   6.428 -0.2061 -0.7701  1.0421
 1237TIP3    H2 3657   0.632   7.148   6.489  1.6058  1.1390  0.4334
 1238TIP3   OH2 3658   0.344   5.850   3.277  0.1287  0.1681  0.4200
 1238TIP3    H1 3659   0.378   5.765   3.248 -0.3045 -0.0932  0.6741
 1238TIP3    H2 3660   0.355   5.849   3.372  0.2120  0.4401  0.4155
 1239TIP3   OH2 3661   6.422   6.094   2.471 -0.0689  0.3403 -0.3227
 1239TIP3    H1 3662   6.453   6.185   2.467 -0.0658  0.4536  1.4284
 1239TIP3    H2 3663   6.370   6.090   2.551 -0.1863 -1.1698 -0.4499
 1240TIP3   OH2 3664   0.874   3.203   4.958  0.2328  0.2446 -0.4738
 1240TIP3    H1 3665   0.837   3.271   4.901 -0.1331  0.5731  0.1435
 1240TIP3    H2 3666   0.967   3.225   4.963  0.3375 -0.0005 -1.2318
 1241TIP3   OH2 3667   2.013   7.779   3.734 -0.0889  0.1014  0.9366
 1241TIP3    H1 3668   2.049   7.691   3.734 -0.0572  0.1137  1.3070
 1241TIP3    H2 3669   1.976   7.790   3.647 -4.4085 -2.0403  2.2314
 1242TIP3   OH2 3670   2.396   7.630   3.826  0.2710 -0.6840  0.1155
 1242TIP3    H1 3671   2.401   7.725   3.839  1.2227 -0.6927 -0.0531
 1242TIP3    H2 3672   2.306   7.613   3.802 -0.0066  0.1333  0.5398
 1243TIP3   OH2 3673   2.722   2.163  -0.013  0.2141 -0.4015 -0.7391
 1243TIP3    H1 3674   2.750   2.077   0.018 -0.1965 -0.7045 -1.2007
 1243TIP3    H2 3675   2.645   2.183   0.041  1.0180  0.2298  0.2149
 1244TIP3   OH2 3676   7.959   5.022   6.661  0.7096 -0.0427  0.3020
 1244TIP3    H1 3677   7.973   4.989   6.573  0.2379  1.6037 -0.4234
 1244TIP3    H2 3678   7.895   4.961   6.699  0.0362 -0.1043 -0.8952
 1245TIP3   OH2 3679   1.657   0.842   2.923  0.1808  0.0133  0.6483
 1245TIP3    H1 3680   1.719   0.850   2.850 -0.6534  1.9737  0.0865
 1245TIP3    H2 3681   1.571   0.861   2.884 -0.7072 -1.8306  1.5783
 1246TIP3   OH2 3682   1.069   6.420   1.325 -0.4538 -0.2319 -0.1649
 1246TIP3    H1 3683   1.091   6.327   1.322  0.1769 -0.0930 -0.0732
 1246TIP3    H2 3684   0.999   6.427   1.389 -0.6821 -0.6746 -0.3630
 1247TIP3   OH2 3685   2.295   1.454   5.368  0.0831 -0.8105  0.2807
 1247TIP3    H1 3686   2.267   1.469   5.458  1.2057 -0.9222  0.6522
 1247TIP3    H2 3687   2.294   1.359   5.357  1.2222 -0.8659  0.5956
 1248TIP3   OH2 3688   4.077   0.343   6.595  0.1969  0.2785  0.4961
 1248TIP3    H1 3689   4.157   0.320   6.643 -0.5942 -0.6629  1.3881
 1248TIP3    H2 3690   4.064   0.272   6.533  1.0520  1.3488 -0.9725
 1249TIP3   OH2 3691   4.027   4.104   3.390  0.5915  0.0030 -0.5298
 1249TIP3    H1 3692   4.077   4.127   3.468  1.4238  1.5172 -1.4699
 1249TIP3    H2 3693   4.091   4.100   3.320 -0.4933  1.3811 -1.6500
 1250TIP3   OH2 3694   2.078   2.137   1.118  0.0036 -0.8414 -0.5378
 1250TIP3    H1 3695   2.166   2.126   1.154 -0.3391  0.3142  0.7525
 1250TIP3    H2 3696   2.066   2.062   1.059  1.1342 -2.0504  0.7114
 1251TIP3   OH2 3697   3.231   2.790   1.072  0.1744  0.0339 -0.3279
 1251TIP3    H1 3698   3.144   2.793   1.110 -0.1484 -1.8003 -0.8024
 1251TIP3    H2 3699   3.220   2.826   0.984  0.5476  2.5375  0.5690
 1252TIP3   OH2 3700   8.209   6.651   6.411  0.3303 -0.2967 -0.3481
 1252TIP3    H1 3701   8.189   6.688   6.497  0.7842 -0.7596 -0.0325
 1252TIP3    H2 3702   8.222   6.558   6.428  1.1229 -0.2790 -0.7956
 1253TIP3   OH2 3703   2.349   1.931   5.857 -0.1873 -0.1675  0.2830
 1253TIP3    H1 3704   2.328   2.023   5.874  0.3050  0.6656 -2.9829
 1253TIP3    H2 3705   2.440   1.920   5.885  0.0039  0.5834 -0.0351
 1254TIP3   OH2 3706   8.106   3.039   5.180  0.1897 -0.1131 -0.4982
 1254TIP3    H1 3707   8.123   3.011   5.270 -2.2693 -0.5792 -0.1151
 1254TIP3    H2 3708   8.069   2.962   5.138 -2.2425  1.1220 -0.7792
 1255TIP3   OH2 3709   6.899   2.150   3.152 -0.1706  0.3169 -0.0466
 1255TIP3    H1 3710   6.857   2.080   3.103 -1.0166 -0.5666  1.8549
 1255TIP3    H2 3711   6.993   2.137   3.137 -0.3554 -0.6964 -0.3929
 1256TIP3   OH2 3712   7.383   4.130   5.275  0.0845 -0.1101  0.2861
 1256TIP3    H1 3713   7.414   4.215   5.307  0.3530 -0.2188  0.3181
 1256TIP3    H2 3714   7.288   4.132   5.290  0.2036 -0.1605  1.1114
 1257TIP3   OH2 3715   3.568   4.356   1.003 -0.5874  0.4615  0.8634
 1257TIP3    H1 3716   3.534   4.362   0.914  0.1221  2.3680  0.6694
 1257TIP3    H2 3717   3.553   4.266   1.029  3.7847 -1.8674 -3.1068
 1258TIP3   OH2 3718   4.065   7.195   5.165 -0.2945 -0.4892 -0.2600
 1258TIP3    H1 3719   4.159   7.180   5.177 -0.5970 -1.6263  0.8486
 1258TIP3    H2 3720   4.037   7.126   5.105 -0.4607 -0.2812 -0.4214
 1259TIP3   OH2 3721   2.003   1.117   6.539  0.1682 -0.7112 -0.1078
 1259TIP3    H1 3722   2.055   1.149   6.613 -1.2971  0.1873  0.5986
 1259TIP3    H2 3723   2.063   1.062   6.488  1.9387  0.7642  0.3105
 1260TIP3   OH2 3724   4.832   4.871   2.946 -0.0522  0.4787 -0.0655
 1260TIP3    H1 3725   4.916   4.850   2.906  0.0724  0.0123  0.4201
 1260TIP3    H2 3726   4.768   4.822   2.895  0.1490 -0.4448  0.5338
 1261TIP3   OH2 3727   5.699   6.141   2.524  0.2718  0.5440 -0.2111
 1261TIP3    H1 3728   5.608   6.145   2.554  0.1058 -0.4259 -0.5400
 1261TIP3    H2 3729   5.694   6.159   2.430  0.4132  0.5004 -0.2272
 1262TIP3   OH2 3730   7.425   4.278   1.454  0.0148  0.5563 -0.1011
 1262TIP3    H1 3731   7.426   4.197   1.403  0.3678  1.3540 -1.3941
 1262TIP3    H2 3732   7.404   4.250   1.543  4.2146 -1.5256  0.4555
 1263TIP3   OH2 3733   1.099   0.688   4.464  0.0832  0.0941 -0.7562
 1263TIP3    H1 3734   1.155   0.759   4.432 -0.2335  0.4542 -0.5269
 1263TIP3    H2 3735   1.123   0.613   4.411  0.9238  0.1916 -0.5294
 1264TIP3   OH2 3736   5.237   5.724   0.554 -0.2678  0.6657  0.3221
 1264TIP3    H1 3737   5.267   5.755   0.469  0.4102  0.6697  0.5520
 1264TIP3    H2 3738   5.170   5.787   0.580 -0.4355  0.6976 -0.1827
 1265TIP3   OH2 3739   2.092   6.985   1.337 -0.1505 -0.2870  0.0564
 1265TIP3    H1 3740   2.031   6.989   1.264 -0.0831  0.3184  0.0305
 1265TIP3    H2 3741   2.131   6.897   1.330 -0.8460 -0.5968 -0.0540
 1266TIP3   OH2 3742   5.272   5.152   0.357  0.1430  0.1836 -0.1906
 1266TIP3    H1 3743   5.221   5.170   0.437 -1.7756  0.0666 -1.3315
 1266TIP3    H2 3744   5.357   5.193   0.374 -1.3507  3.2668  0.5702
 1267TIP3   OH2 3745   6.570   6.550   4.593 -0.0244 -0.4073  0.0430
 1267TIP3    H1 3746   6.516   6.504   4.529 -0.4078 -0.5821  0.4837
 1267TIP3    H2 3747   6.630   6.603   4.541 -0.0163 -0.9099 -0.4621
 1268TIP3   OH2 3748   8.067   2.601   4.319  0.7594  0.9638  0.3979
 1268TIP3    H1 3749   8.041   2.548   4.394  1.5152 -1.4720 -0.9311
 1268TIP3    H2 3750   8.155   2.570   4.297  0.9963  2.3765 -0.8227
 1269TIP3   OH2 3751   1.504   4.021   5.897  0.2264  0.1245  0.5504
 1269TIP3    H1 3752   1.512   4.111   5.930  1.1762 -0.1948  1.2515
 1269TIP3    H2 3753   1.419   3.991   5.929 -0.3486  0.9444 -0.1567
 1270TIP3   OH2 3754   6.519   5.545   3.717  0.3575 -0.9018  0.0077
 1270TIP3    H1 3755   6.450   5.489   3.681  0.3740 -0.8436 -0.1125
 1270TIP3    H2 3756   6.539   5.505   3.802  0.0463 -0.8091  0.1244
 1271TIP3   OH2 3757   4.500   3.786   0.516 -0.0072 -0.2175  0.5942
 1271TIP3    H1 3758   4.474   3.794   0.608  1.5951 -0.1117  1.0876
 1271TIP3    H2 3759   4.590   3.819   0.515 -0.4430  1.0484 -1.2863
 1272TIP3   OH2 3760   1.626   2.600   1.751 -0.4951 -0.3485  0.5979
 1272TIP3    H1 3761   1.610   2.508   1.729 -0.2201 -0.3576  0.4378
 1272TIP3    H2 3762   1.720   2.606   1.765 -0.2340  0.2808 -1.1911
 1273TIP3   OH2 3763   8.139   5.786   2.037  0.1498 -0.3805 -0.1261
 1273TIP3    H1 3764   8.121   5.793   2.131 -1.6869  2.1628 -0.5530
 1273TIP3    H2 3765   8.200   5.713   2.029  2.3806  0.8587  3.3102
 1274TIP3   OH2 3766   5.330   5.314   2.012  0.5874 -0.3519 -0.2299
 1274TIP3    H1 3767   5.421   5.310   2.042  1.1117 -2.3961 -1.8965
 1274TIP3    H2 3768   5.336   5.317   1.917 -1.0954  0.5033 -0.3397
 1275TIP3   OH2 3769   1.131   3.213   0.487  0.0461 -0.1298  0.1272
 1275TIP3    H1 3770   1.048   3.237   0.529  1.6005  1.3228  2.5869
 1275TIP3    H2 3771   1.141   3.120   0.507  0.0895  0.2194  1.8888
 1276TIP3   OH2 3772   4.701   0.441   4.701  0.1087  0.4198 -0.2024
 1276TIP3    H1 3773   4.755   0.389   4.642 -0.1645  0.4915 -0.5178
 1276TIP3    H2 3774   4.618   0.395   4.705  0.4973 -0.2140  1.0422
 1277TIP3   OH2 3775   4.461   7.604   0.528  0.1672 -0.2019  0.3170
 1277TIP3    H1 3776   4.368   7.585   0.519  0.2092 -0.9036  1.1851
 1277TIP3    H2 3777   4.494   7.608   0.438 -0.1614 -2.8685 -0.0096
 1278TIP3   OH2 3778   2.461   2.224   2.523 -0.2811  0.1257  0.1883
 1278TIP3    H1 3779   2.493   2.149   2.573 -2.5977  0.3999  2.2633
 1278TIP3    H2 3780   2.378   2.194   2.486 -1.9175  1.9335  2.1308
 1279TIP3   OH2 3781   4.890   2.086   1.809 -0.4784 -0.5733 -0.4814
 1279TIP3    H1 3782   4.820   2.138   1.848 -0.2470 -0.1820 -0.5869
 1279TIP3    H2 3783   4.864   1.995   1.826 -1.3999 -0.4547 -1.2023
 1280TIP3   OH2 3784   6.943   7.561   3.120  0.6793  0.5667  0.5106
 1280TIP3    H1 3785   6.917   7.651   3.139 -0.2053  0.4533 -0.0772
 1280TIP3    H2 3786   6.984   7.530   3.201 -0.9633  0.8131  1.4933
 1281TIP3   OH2 3787   2.841   0.169   2.515 -0.1209 -0.1433  0.4725
 1281TIP3    H1 3788   2.749   0.193   2.505 -0.1480  0.6461  2.2384
 1281TIP3    H2 3789   2.842   0.107   2.588  0.5375 -1.8495 -0.9088
 1282TIP3   OH2 3790   8.065   6.608   5.991  0.2379 -0.0589 -0.1349
 1282TIP3    H1 3791   7.996   6.665   5.957 -0.3855 -1.2760 -0.9668
 1282TIP3    H2 3792   8.019   6.547   6.049  0.9298  0.3817  0.9210
 1283TIP3   OH2 3793   3.632   3.848   5.445 -0.4022  0.0597 -0.0912
 1283TIP3    H1 3794   3.702   3.784   5.458 -0.5039 -0.2495 -0.9438
 1283TIP3    H2 3795   3.656   3.922   5.499  0.3808 -0.2037 -0.0670
 1284TIP3   OH2 3796   1.423   1.856   5.499 -0.0211 -0.2912  0.0891
 1284TIP3    H1 3797   1.377   1.772   5.494 -0.3273 -0.1643  0.6821
 1284TIP3    H2 3798   1.485   1.853   5.426 -0.4682 -0.7651 -0.2862
 1285TIP3   OH2 3799   7.222   2.877   2.989 -0.4583 -0.5852  0.2649
 1285TIP3    H1 3800   7.195   2.860   2.898  0.1445 -3.7253  0.5698
 1285TIP3    H2 3801   7.305   2.831   2.998  0.4099  1.1851  1.9661
 1286TIP3   OH2 3802   6.052   5.949   5.872  0.0326 -0.2424  0.1263
 1286TIP3    H1 3803   6.060   6.017   5.804 -1.0742 -1.7327 -1.5936
 1286TIP3    H2 3804   6.018   5.873   5.825 -1.1457 -1.2403  2.4525
 1287TIP3   OH2 3805   2.387   7.580   0.362  0.2714  0.0292 -0.2587
 1287TIP3    H1 3806   2.445   7.506   0.383 -0.3588 -0.1373  1.0049
 1287TIP3    H2 3807   2.299   7.543   0.366  0.0324  0.0383 -3.1737
 1288TIP3   OH2 3808   3.254   5.584   3.560 -0.0379  0.1033  0.1087
 1288TIP3    H1 3809   3.277   5.609   3.649 -3.4706  0.5802  1.0072
 1288TIP3    H2 3810   3.199   5.506   3.569 -2.8090  1.7244 -1.1890
 1289TIP3   OH2 3811   7.550   1.077   6.143  0.8526  0.2294  0.2988
 1289TIP3    H1 3812   7.499   1.029   6.078 -0.5178  1.2680  0.5508
 1289TIP3    H2 3813   7.598   1.009   6.191  0.3226 -0.7173 -0.4794
 1290TIP3   OH2 3814   7.840   3.123   5.103  0.0348  0.1631 -0.5752
 1290TIP3    H1 3815   7.923   3.084   5.077 -0.5978 -1.2125 -0.6319
 1290TIP3    H2 3816   7.794   3.141   5.021 -0.9915 -1.9996 -0.5317
 1291TIP3   OH2 3817   1.057   1.735   2.226  0.0877 -0.1898 -0.1495
 1291TIP3    H1 3818   1.111   1.745   2.304  1.1165  0.1787 -0.8834
 1291TIP3    H2 3819   1.021   1.822   2.210  0.4062 -0.1086 -0.4467
 1292TIP3   OH2 3820   3.227   2.716   3.875 -0.5110 -0.4457 -0.0445
 1292TIP3    H1 3821   3.136   2.743   3.885 -0.5444 -0.2317 -0.8764
 1292TIP3    H2 3822   3.263   2.719   3.964 -1.1874 -0.0763  0.2199
 1293TIP3   OH2 3823   6.272   5.504   5.152  0.4600 -0.7569 -0.2729
 1293TIP3    H1 3824   6.324   5.484   5.230  0.6203 -0.4829 -0.3078
 1293TIP3    H2 3825   6.323   5.571   5.106 -0.0959 -0.2114 -0.1155
 1294TIP3   OH2 3826   7.283   3.517   1.725  0.0654  0.3937  0.1293
 1294TIP3    H1 3827   7.201   3.484   1.762 -1.0625  0.5255 -2.0858
 1294TIP3    H2 3828   7.340   3.530   1.801 -1.4842 -0.9681  1.6233
 1295TIP3   OH2 3829   6.580   7.438   6.273  0.0373  0.2292 -0.2594
 1295TIP3    H1 3830   6.495   7.397   6.287 -0.2915  0.9341 -0.1744
 1295TIP3    H2 3831   6.573   7.477   6.186  0.3274  0.1619 -0.3129
 1296TIP3   OH2 3832   5.944   2.991   6.536 -0.6781  0.6554 -0.5791
 1296TIP3    H1 3833   5.890   2.949   6.603  1.2084  0.1280  0.6757
 1296TIP3    H2 3834   5.944   3.084   6.560 -0.2833  0.5170 -0.0366
 1297TIP3   OH2 3835   3.553   0.440   5.721  0.1730 -0.2380 -0.3211
 1297TIP3    H1 3836   3.459   0.454   5.731  0.2185  0.8160 -1.0861
 1297TIP3    H2 3837   3.587   0.527   5.700  1.5791 -0.2676  1.6198
 1298TIP3   OH2 3838   0.998   5.670   5.471  0.1413  0.0118 -0.4418
 1298TIP3    H1 3839   0.936   5.598   5.470  0.6283 -0.4296  0.3414
 1298TIP3    H2 3840   0.958   5.737   5.416 -1.0927 -0.2018  0.1628
 1299TIP3   OH2 3841   2.728   6.588   0.755 -0.1098  0.9665 -0.1414
 1299TIP3    H1 3842   2.652   6.573   0.698  0.0350 -1.5038  0.1728
 1299TIP3    H2 3843   2.690   6.607   0.841 -0.3259  2.6065 -0.5660
 1300TIP3   OH2 3844   5.549   2.320   4.365  0.2633  0.0749  0.1233
 1300TIP3    H1 3845   5.512   2.311   4.453 -3.1018 -0.9498 -1.2086
 1300TIP3    H2 3846   5.525   2.408   4.338 -2.4293 -0.9424 -1.1351
 1301TIP3   OH2 3847   7.041   5.469   1.000  0.2457  0.1313 -0.2261
 1301TIP3    H1 3848   6.981   5.458   1.074  0.3884 -1.2454 -0.2834
 1301TIP3    H2 3849   7.063   5.379   0.975  0.9139  0.6042 -1.3595
 1302TIP3   OH2 3850   5.427   5.913   6.502  0.6590 -0.0577 -0.2182
 1302TIP3    H1 3851   5.423   5.912   6.407  1.2374 -0.1476 -0.2475
 1302TIP3    H2 3852   5.388   5.996   6.527 -1.5780 -0.9910 -0.4061
 1303TIP3   OH2 3853   5.804   5.081   4.586  0.3683  0.0773 -0.1058
 1303TIP3    H1 3854   5.796   5.167   4.628  1.0964  0.8016 -1.3818
 1303TIP3    H2 3855   5.892   5.051   4.610 -0.1904 -0.7156  1.0242
 1304TIP3   OH2 3856   1.352   1.080   4.953  0.1817  0.3771  0.6159
 1304TIP3    H1 3857   1.286   1.020   4.918  1.3852 -0.9329  0.4882
 1304TIP3    H2 3858   1.433   1.055   4.909  0.5633  2.8727 -0.2850
 1305TIP3   OH2 3859   5.988   5.674   5.811  0.0584 -0.2688  0.0505
 1305TIP3    H1 3860   5.993   5.579   5.821 -0.3565 -0.5156 -1.8070
 1305TIP3    H2 3861   5.961   5.687   5.720  1.8239  1.6517 -0.2706
 1306TIP3   OH2 3862   8.244   1.959   0.565  0.1112 -0.3888 -0.2108
 1306TIP3    H1 3863   8.295   1.890   0.606  2.6308 -0.3006 -2.8923
 1306TIP3    H2 3864   8.209   1.919   0.485 -1.6662  0.3981  0.1231
 1307TIP3   OH2 3865   2.585   4.278   5.867 -0.3786  0.5096 -0.4719
 1307TIP3    H1 3866   2.644   4.242   5.801  0.1604  0.3189  0.1060
 1307TIP3    H2 3867   2.551   4.202   5.913  0.4665  0.6973  0.4962
 1308TIP3   OH2 3868   4.942   1.818   0.570 -0.7217 -0.1542  0.1828
 1308TIP3    H1 3869   4.885   1.773   0.633 -0.8949 -0.2228 -0.0202
 1308TIP3    H2 3870   4.907   1.907   0.565 -1.7170 -0.5675 -1.0021
 1309TIP3   OH2 3871   2.093   6.109   2.043 -0.0402 -0.1633  0.6724
 1309TIP3    H1 3872   2.139   6.041   2.092 -1.6827 -0.8260  1.3663
 1309TIP3    H2 3873   2.065   6.065   1.962  0.2302  0.1331  0.4140
 1310TIP3   OH2 3874   7.608   1.350   5.839 -0.0054 -0.5155  0.2180
 1310TIP3    H1 3875   7.541   1.375   5.902  0.0708 -0.1180  0.1474
 1310TIP3    H2 3876   7.565   1.360   5.754  0.4876  0.8862  0.1086
 1311TIP3   OH2 3877   1.756   6.852   4.688  0.2858  0.0776  0.6099
 1311TIP3    H1 3878   1.850   6.863   4.678  0.2231  3.2241  2.1947
 1311TIP3    H2 3879   1.746   6.798   4.767  0.8113  1.0761  1.3836
 1312TIP3   OH2 3880   2.239   4.731   4.365 -0.2974  0.7785  0.2798
 1312TIP3    H1 3881   2.161   4.675   4.359  0.3662 -0.5328  2.5816
 1312TIP3    H2 3882   2.249   4.748   4.459  2.3073  0.7105  0.0919
 1313TIP3   OH2 3883   2.343   7.290   2.799  0.6553 -0.0028 -0.2084
 1313TIP3    H1 3884   2.421   7.283   2.745  0.4076 -0.2988 -0.5287
 1313TIP3    H2 3885   2.270   7.277   2.739  0.3255  0.9737 -0.0448
 1314TIP3   OH2 3886   1.442   2.353   5.894 -0.0014 -0.4592 -0.3464
 1314TIP3    H1 3887   1.359   2.353   5.942  1.8422  1.3241  3.1804
 1314TIP3    H2 3888   1.419   2.390   5.808 -2.9346 -0.6870  0.2254
 1315TIP3   OH2 3889   4.277   6.382   5.476  0.2848 -0.2233 -0.3010
 1315TIP3    H1 3890   4.266   6.340   5.561  1.5206 -0.2298 -0.1267
 1315TIP3    H2 3891   4.188   6.403   5.448 -0.2117 -1.1659  0.5078
 1316TIP3   OH2 3892   4.766   7.430   3.352  0.0361  0.5859  0.6180
 1316TIP3    H1 3893   4.719   7.513   3.363  0.3529  0.7837  0.4765
 1316TIP3    H2 3894   4.796   7.431   3.261 -0.0204  0.2847  0.5954
 1317TIP3   OH2 3895   0.125   7.178   1.337 -0.4317  0.4345 -0.6498
 1317TIP3    H1 3896   0.148   7.246   1.273  0.7384  1.0829  0.4139
 1317TIP3    H2 3897   0.029   7.182   1.344 -0.5802  0.3848 -2.2877
 1318TIP3   OH2 3898   0.201   4.448   2.168  0.5106  0.0024 -0.0243
 1318TIP3    H1 3899   0.259   4.515   2.133  0.4699  0.6048  1.0241
 1318TIP3    H2 3900   0.120   4.456   2.118  1.0733 -0.3827 -1.0259
 1319TIP3   OH2 3901   1.682   4.009   4.964  0.3809 -0.0599 -0.8896
 1319TIP3    H1 3902   1.618   4.079   4.956  0.1036 -0.0958  0.6123
 1319TIP3    H2 3903   1.634   3.929   4.941  0.6328  0.1904 -2.3633
 1320TIP3   OH2 3904   1.002   0.020   2.538 -0.4071  0.1780 -0.0955
 1320TIP3    H1 3905   1.025   0.019   2.631 -1.5197  0.0511  0.1959
 1320TIP3    H2 3906   1.071   0.071   2.497  0.9086 -0.9858  0.5729
 1321TIP3   OH2 3907   3.990   6.660   5.713  0.0606 -0.1962 -0.2727
 1321TIP3    H1 3908   3.935   6.720   5.661 -0.7414 -1.4618 -0.9422
 1321TIP3    H2 3909   4.026   6.600   5.648  2.0914  0.4520  0.1985
 1322TIP3   OH2 3910   4.636   4.795   2.720  0.1064 -0.1244 -0.4230
 1322TIP3    H1 3911   4.644   4.888   2.704  0.7979  0.2380  1.7659
 1322TIP3    H2 3912   4.541   4.780   2.729  0.0827  1.1829  3.0415
 1323TIP3   OH2 3913   2.879   3.500   4.607  0.2884  0.6623  0.6162
 1323TIP3    H1 3914   2.815   3.551   4.556 -0.3171  0.7097  1.4009
 1323TIP3    H2 3915   2.960   3.550   4.599 -0.1619  1.4811  0.9062
 1324TIP3   OH2 3916   1.695   5.068   1.504 -0.0410 -0.3621 -0.2273
 1324TIP3    H1 3917   1.624   5.042   1.564 -0.5803 -0.7614 -1.0253
 1324TIP3    H2 3918   1.653   5.124   1.439  1.1263  2.8177  1.5365
 1325TIP3   OH2 3919   4.345   3.271   6.674 -0.6720  0.4174 -0.3242
 1325TIP3    H1 3920   4.422   3.327   6.667  1.9555 -2.9805 -1.7149
 1325TIP3    H2 3921   4.276   3.320   6.630  1.6646  2.1518 -2.3850
 1326TIP3   OH2 3922   2.961   5.281   6.128  0.0889 -0.4394 -0.3676
 1326TIP3    H1 3923   2.975   5.360   6.181  0.9427 -0.3665 -0.6834
 1326TIP3    H2 3924   3.047   5.240   6.124 -0.5209 -1.8643  0.5123
 1327TIP3   OH2 3925   0.565   5.492   4.736  0.0921 -0.5747 -0.0387
 1327TIP3    H1 3926   0.628   5.472   4.806 -0.6818 -0.2946  0.7601
 1327TIP3    H2 3927   0.615   5.543   4.673  0.7932 -0.7805  0.3360
 1328TIP3   OH2 3928   6.621   4.344   3.905 -0.1338  0.1668 -0.2491
 1328TIP3    H1 3929   6.694   4.399   3.877  1.4154 -1.8066 -0.3460
 1328TIP3    H2 3930   6.579   4.316   3.824 -0.3019  0.4223 -0.2491
 1329TIP3   OH2 3931   2.581   0.678   0.811  0.2983  0.0620  0.1064
 1329TIP3    H1 3932   2.655   0.738   0.802  0.5244 -0.2218  0.0511
 1329TIP3    H2 3933   2.595   0.637   0.897 -0.0131  0.3016  0.2716
 1330TIP3   OH2 3934   3.728   5.372   0.194  0.1085 -0.2054 -0.1886
 1330TIP3    H1 3935   3.800   5.373   0.131  0.1432 -2.2426 -0.2448
 1330TIP3    H2 3936   3.735   5.287   0.237 -1.5844  0.0215  0.6206
 1331TIP3   OH2 3937   5.884   1.695   3.889 -0.5048  0.3504  0.3726
 1331TIP3    H1 3938   5.835   1.681   3.807 -2.6147  1.2812  1.3930
 1331TIP3    H2 3939   5.832   1.651   3.956  1.7038 -1.2512  1.1548
 1332TIP3   OH2 3940   1.916   3.502   5.159 -0.2581  0.2126 -0.0608
 1332TIP3    H1 3941   1.881   3.588   5.181 -2.3199 -1.0255  2.1271
 1332TIP3    H2 3942   1.950   3.468   5.242  1.9647 -0.5123 -1.1936
 1333TIP3   OH2 3943   5.407   2.832   4.259 -0.8162 -0.1866  0.0601
 1333TIP3    H1 3944   5.475   2.885   4.301 -1.5295  1.7323 -1.1002
 1333TIP3    H2 3945   5.448   2.745   4.249  1.9830  1.2102 -1.7731
 1334TIP3   OH2 3946   2.772   4.177   3.792 -0.4500 -0.2487  0.3886
 1334TIP3    H1 3947   2.756   4.130   3.874 -2.6512  0.8394  0.6621
 1334TIP3    H2 3948   2.780   4.108   3.726 -0.4105 -1.0834  1.2358
 1335TIP3   OH2 3949   6.987   5.555   5.624  0.3465  0.5337  0.0274
 1335TIP3    H1 3950   6.926   5.559   5.698 -1.5715  0.8045 -1.4760
 1335TIP3    H2 3951   6.999   5.461   5.608  0.6417  0.4767  0.5558
 1336TIP3   OH2 3952   0.280   2.968   0.675  0.3469  0.0124 -0.4631
 1336TIP3    H1 3953   0.282   2.977   0.579  0.5910  1.5856 -0.3413
 1336TIP3    H2 3954   0.371   2.950   0.698  0.6487  1.4390 -0.4177
 1337TIP3   OH2 3955   6.660   5.347   6.215  0.6662 -0.1465  0.1449
 1337TIP3    H1 3956   6.591   5.300   6.167  0.8277  0.1656 -0.3997
 1337TIP3    H2 3957   6.698   5.406   6.151 -0.2345  1.5327  1.0805
 1338TIP3   OH2 3958   0.610   6.600   6.537  0.0319 -0.0166  0.1008
 1338TIP3    H1 3959   0.530   6.597   6.483  0.5055  1.5942 -0.7682
 1338TIP3    H2 3960   0.672   6.650   6.484  1.0368  0.2751  1.5114
 1339TIP3   OH2 3961   6.902   2.221   6.023 -0.0195 -0.1538  0.0864
 1339TIP3    H1 3962   6.897   2.161   5.949  1.4286 -0.7109  0.3998
 1339TIP3    H2 3963   6.889   2.165   6.100  0.1291  0.1459  0.3324
 1340TIP3   OH2 3964   3.068   6.782   2.955  0.3410  0.4740  0.3568
 1340TIP3    H1 3965   3.124   6.796   3.032  0.7221  3.1060 -0.3179
 1340TIP3    H2 3966   2.999   6.848   2.964  0.1204  0.4982 -1.3279
 1341TIP3   OH2 3967   3.486   0.230   3.215  0.4594  0.3884  0.1751
 1341TIP3    H1 3968   3.391   0.241   3.219  0.1107 -2.0806  0.1216
 1341TIP3    H2 3969   3.516   0.240   3.305  0.2637  1.7389  0.1139
 1342TIP3   OH2 3970   2.357   6.682   4.719 -0.0524  0.4983  0.1844
 1342TIP3    H1 3971   2.414   6.650   4.789  0.0266 -2.2381 -0.9794
 1342TIP3    H2 3972   2.269   6.672   4.753  0.0466  0.9779  0.5793
 1343TIP3   OH2 3973   0.434   3.886   4.988 -0.0987 -0.1652 -0.2201
 1343TIP3    H1 3974   0.370   3.917   5.053 -1.0610 -0.2238 -1.1136
 1343TIP3    H2 3975   0.453   3.796   5.014 -0.8700 -0.3587 -0.3022
 1344TIP3   OH2 3976   5.673   2.846   3.532  0.2590 -0.2495  0.1349
 1344TIP3    H1 3977   5.668   2.788   3.456  0.8582 -1.1386  0.7535
 1344TIP3    H2 3978   5.634   2.928   3.502 -0.5292 -0.9345 -0.7898
 1345TIP3   OH2 3979   2.383   2.524   1.798 -0.0818 -0.2334  0.2523
 1345TIP3    H1 3980   2.380   2.595   1.734  1.6945  0.0268  0.4029
 1345TIP3    H2 3981   2.402   2.567   1.881 -1.1156 -0.6980  0.7548
 1346TIP3   OH2 3982   4.880   6.086   5.229  0.2081 -0.6028 -0.3678
 1346TIP3    H1 3983   4.786   6.078   5.246 -0.2379  1.7834 -1.3324
 1346TIP3    H2 3984   4.903   6.172   5.265  1.5684 -0.2715 -1.9246
 1347TIP3   OH2 3985   6.862   7.080   2.689  0.2007  0.1077  0.0999
 1347TIP3    H1 3986   6.773   7.098   2.658  0.5046  0.7146 -0.4395
 1347TIP3    H2 3987   6.850   7.044   2.777 -0.4341  4.0505  1.8146
 1348TIP3   OH2 3988   6.776   3.429   4.496  0.1012 -0.1595  0.2049
 1348TIP3    H1 3989   6.866   3.396   4.488  0.4525  0.5456  1.0344
 1348TIP3    H2 3990   6.722   3.360   4.460  0.9905 -0.5505 -0.4187
 1349TIP3   OH2 3991   3.008   5.720   6.343  0.5171  0.3988 -0.0639
 1349TIP3    H1 3992   2.969   5.800   6.308  2.6766  0.8960 -1.5488
 1349TIP3    H2 3993   3.074   5.750   6.405  0.2907 -0.3116  0.5398
 1350TIP3   OH2 3994   3.085   1.527   3.745 -0.5788  0.0509  0.0649
 1350TIP3    H1 3995   3.108   1.491   3.659 -1.2449  0.6148 -0.3590
 1350TIP3    H2 3996   3.059   1.452   3.797  1.7869 -0.5898  0.4508
 1351TIP3   OH2 3997   8.124   2.885   4.382 -0.1614 -0.1002 -0.3468
 1351TIP3    H1 3998   8.212   2.863   4.414 -0.8003 -0.9926  0.8925
 1351TIP3    H2 3999   8.084   2.800   4.361 -0.1574  0.3935 -2.5893
 1352TIP3   OH2 4000   1.247   5.289   4.011  0.1161 -0.0895  0.0395
 1352TIP3    H1 4001   1.160   5.256   3.988 -0.4578  0.9314  0.6822
 1352TIP3    H2 4002   1.307   5.225   3.973 -0.8942 -0.5059 -0.9216
 1353TIP3   OH2 4003   0.430   2.354   5.718  0.8644  0.4839 -0.2683
 1353TIP3    H1 4004   0.341   2.319   5.717  0.7766  0.7069 -1.7966
 1353TIP3    H2 4005   0.471   2.319   5.639  2.4461 -0.3625  0.8706
 1354TIP3   OH2 4006   7.125   1.875   3.427  0.0537 -0.0575 -0.6131
 1354TIP3    H1 4007   7.143   1.969   3.419 -1.1164  0.4235  1.4331
 1354TIP3    H2 4008   7.122   1.860   3.522  0.1462 -2.1554 -0.9063
 1355TIP3   OH2 4009   3.429   7.647   2.588 -0.4558  0.2126  0.6056
 1355TIP3    H1 4010   3.366   7.711   2.557 -0.0997 -0.1569 -0.9724
 1355TIP3    H2 4011   3.466   7.609   2.509  1.1259 -0.2003  1.4888
 1356TIP3   OH2 4012   5.830   4.029   3.475 -0.1058 -0.1834 -0.4229
 1356TIP3    H1 4013   5.760   4.021   3.409 -0.3512  1.0063 -0.3362
 1356TIP3    H2 4014   5.898   3.969   3.445 -0.1157  0.4903 -1.9022
 1357TIP3   OH2 4015   5.779   2.773   3.763  0.1038  0.3580  0.0668
 1357TIP3    H1 4016   5.746   2.809   3.681  1.9591  0.9033 -0.5051
 1357TIP3    H2 4017   5.846   2.710   3.736 -1.6864 -2.1254  1.1096
 1358TIP3   OH2 4018   7.081   4.321   4.998  0.0122 -0.5167  0.5082
 1358TIP3    H1 4019   7.042   4.357   5.078 -1.4682  0.1273 -0.4708
 1358TIP3    H2 4020   7.056   4.229   4.998  0.7653 -0.7347  1.2076
 1359TIP3   OH2 4021   3.829   0.182   1.796  0.2264  0.3812 -0.6442
 1359TIP3    H1 4022   3.794   0.272   1.799 -0.4304  0.1241 -0.3711
 1359TIP3    H2 4023   3.835   0.162   1.703  0.1729  0.6359 -0.7051
 1360TIP3   OH2 4024   3.922   5.482   2.155  0.1600 -0.5635  0.0012
 1360TIP3    H1 4025   3.997   5.435   2.118  1.0582  1.3428 -0.7120
 1360TIP3    H2 4026   3.960   5.546   2.214 -0.7725  1.2900 -1.3208
 1361TIP3   OH2 4027   5.772   7.375   0.858 -0.1963  0.1484 -0.1503
 1361TIP3    H1 4028   5.685   7.339   0.840 -0.4971  1.0725 -0.6390
 1361TIP3    H2 4029   5.767   7.466   0.828  0.3878  0.7436  1.4368
 1362TIP3   OH2 4030   2.260   1.527   4.234 -0.1951  0.2022 -0.7164
 1362TIP3    H1 4031   2.240   1.473   4.158 -0.1626  1.1250 -1.3984
 1362TIP3    H2 4032   2.283   1.464   4.303 -1.6494 -0.7251 -1.0228
 1363TIP3   OH2 4033   1.045   7.676   3.046 -0.3188  0.3314  0.4983
 1363TIP3    H1 4034   1.117   7.739   3.049 -0.1259  0.0571  1.7207
 1363TIP3    H2 4035   1.084   7.592   3.071 -0.2944 -0.6004 -2.3030
 1364TIP3   OH2 4036   6.088   3.301   4.307 -0.0467  0.2068 -0.4260
 1364TIP3    H1 4037   6.182   3.318   4.315  0.5498 -2.0165 -1.6250
 1364TIP3    H2 4038   6.075   3.286   4.213 -1.1390 -1.6239 -0.0383
 1365TIP3   OH2 4039   2.383   7.543   3.249 -0.4089  0.0837 -0.6426
 1365TIP3    H1 4040   2.443   7.617   3.244 -1.6690  1.2464  0.6512
 1365TIP3    H2 4041   2.349   7.533   3.160  0.8925  0.0601 -1.1582
 1366TIP3   OH2 4042   6.663   1.829   3.800 -0.0811 -0.3220 -0.6185
 1366TIP3    H1 4043   6.664   1.736   3.775  0.8912 -0.4292 -0.2268
 1366TIP3    H2 4044   6.640   1.828   3.892  0.3773 -0.2136 -0.4993
 1367TIP3   OH2 4045   1.896   2.384   4.386  0.2025  0.0422  0.0765
 1367TIP3    H1 4046   1.823   2.400   4.326  1.2403  1.1848 -0.9136
 1367TIP3    H2 4047   1.964   2.344   4.331  0.9937  0.6722  0.5761
 1368TIP3   OH2 4048   4.589   1.484   2.381  0.3252  0.1574 -0.7234
 1368TIP3    H1 4049   4.549   1.563   2.416 -0.4877  0.1137 -1.5059
 1368TIP3    H2 4050   4.630   1.442   2.456 -0.9127  0.3279  0.0688
 1369TIP3   OH2 4051   1.486   6.834   2.237 -0.3292  0.0553 -0.6642
 1369TIP3    H1 4052   1.534   6.904   2.282 -2.5348  1.6546 -0.6236
 1369TIP3    H2 4053   1.504   6.848   2.144  0.2836 -0.1565 -0.5809
 1370TIP3   OH2 4054   2.365   0.969   2.144 -0.3558  0.1969 -0.0030
 1370TIP3    H1 4055   2.295   1.002   2.201 -0.3609 -0.7211  0.5454
 1370TIP3    H2 4056   2.329   0.889   2.105  1.0659 -1.4927  1.9125
 1371TIP3   OH2 4057   2.296   5.989   1.276 -0.4895 -0.0109 -0.1667
 1371TIP3    H1 4058   2.307   6.057   1.343  0.8650 -1.5966  1.3269
 1371TIP3    H2 4059   2.304   6.036   1.193  2.9498  1.3991  0.7752
 1372TIP3   OH2 4060   7.225   1.187   0.201 -0.3523  0.5948  0.1871
 1372TIP3    H1 4061   7.217   1.265   0.255 -1.3568 -1.7842  3.8784
 1372TIP3    H2 4062   7.134   1.161   0.183 -0.0738  1.4332 -3.1600
 1373TIP3   OH2 4063   0.716   0.668   1.575  0.1077  0.2747 -0.7819
 1373TIP3    H1 4064   0.784   0.735   1.564 -0.0427  0.2455 -2.1079
 1373TIP3    H2 4065   0.669   0.668   1.491 -2.4811  1.2867  0.5493
 1374TIP3   OH2 4066   7.665   0.788   4.436  0.0398  0.0419 -0.2259
 1374TIP3    H1 4067   7.570   0.783   4.425  0.1826 -0.3167 -1.4815
 1374TIP3    H2 4068   7.679   0.864   4.492 -0.9790  0.1538 -0.1007
 1375TIP3   OH2 4069   2.090   0.533   0.787  0.0932  0.6401 -0.4132
 1375TIP3    H1 4070   2.159   0.478   0.750  0.0651  0.7981 -0.6967
 1375TIP3    H2 4071   2.129   0.619   0.795 -0.0255  0.6971 -0.4417
 1376TIP3   OH2 4072   7.583   4.930   5.131  0.1228  0.2204  0.1132
 1376TIP3    H1 4073   7.571   4.848   5.179  0.0522  0.1866  0.0357
 1376TIP3    H2 4074   7.501   4.943   5.084  0.3062  0.1007 -0.2381
 1377TIP3   OH2 4075   5.218   4.982   5.173 -0.4352  0.7235 -0.4789
 1377TIP3    H1 4076   5.255   4.894   5.159 -1.9028  0.0791 -0.5314
 1377TIP3    H2 4077   5.259   5.012   5.254 -0.5220 -0.3630 -0.0071
 1378TIP3   OH2 4078   6.569   3.861   2.586  0.3099 -1.1377  0.0404
 1378TIP3    H1 4079   6.646   3.918   2.580  0.6752 -1.5096  1.0036
 1378TIP3    H2 4080   6.605   3.773   2.581 -0.0855 -1.3098  0.2650
 1379TIP3   OH2 4081   3.736   5.880   5.974 -0.5155  0.0610 -0.2539
 1379TIP3    H1 4082   3.701   5.804   6.021 -1.2181 -0.5269 -1.6924
 1379TIP3    H2 4083   3.659   5.928   5.945 -0.0870  0.5649 -0.5769
 1380TIP3   OH2 4084   1.872   2.282   6.456  0.2770  0.1278 -0.0294
 1380TIP3    H1 4085   1.938   2.242   6.400  1.0274 -0.9403  1.5063
 1380TIP3    H2 4086   1.797   2.298   6.399  0.3951 -2.4131 -1.0257
 1381TIP3   OH2 4087   6.542   6.013   2.762 -0.0165 -0.0986  0.2750
 1381TIP3    H1 4088   6.454   6.051   2.753 -0.2594 -0.4107  1.2514
 1381TIP3    H2 4089   6.531   5.942   2.824  1.0303  0.1795  0.7937
 1382TIP3   OH2 4090   3.212   4.279   5.423  0.3908 -0.1897 -0.0543
 1382TIP3    H1 4091   3.226   4.195   5.380  1.2288 -0.5883  0.9333
 1382TIP3    H2 4092   3.146   4.323   5.370  0.7627 -1.0019 -1.2297
 1383TIP3   OH2 4093   7.016   3.186   6.271 -0.2715  0.4503  0.3315
 1383TIP3    H1 4094   6.923   3.164   6.277 -0.1281 -0.3465 -0.2614
 1383TIP3    H2 4095   7.023   3.271   6.314 -1.1444  0.1712  1.0677
 1384TIP3   OH2 4096   7.875   2.256   1.722  0.0693  0.6174 -0.7796
 1384TIP3    H1 4097   7.908   2.345   1.712  1.4586  0.1703 -0.3644
 1384TIP3    H2 4098   7.881   2.238   1.816  0.8375 -0.2875 -0.9878
 1385TIP3   OH2 4099   0.564   5.280   4.527 -0.3847  0.3683  0.3848
 1385TIP3    H1 4100   0.538   5.350   4.467  0.1549  0.5751  0.3837
 1385TIP3    H2 4101   0.549   5.315   4.614 -0.1271  0.4877  0.3840
 1386TIP3   OH2 4102   7.473   5.983   3.636 -0.2723 -0.4659 -0.2891
 1386TIP3    H1 4103   7.378   5.983   3.619 -0.1164 -0.4310 -1.1999
 1386TIP3    H2 4104   7.499   6.075   3.624  0.0451 -0.6491 -1.0997
 1387TIP3   OH2 4105   1.758   5.465   1.043  0.2930 -0.1805 -0.0259
 1387TIP3    H1 4106   1.746   5.391   1.102 -0.1911 -0.9098 -1.0080
 1387TIP3    H2 4107   1.677   5.516   1.050  0.6760  0.3366  0.7423
 1388TIP3   OH2 4108   0.202   6.732   0.321  0.1219  0.0514  0.0542
 1388TIP3    H1 4109   0.180   6.823   0.341 -1.9833 -0.6635  1.3566
 1388TIP3    H2 4110   0.165   6.718   0.233  2.4318  0.9954 -1.1640
 1389TIP3   OH2 4111   0.414   5.291   6.746 -0.1900  0.1126 -0.5434
 1389TIP3    H1 4112   0.338   5.248   6.707  0.4249 -0.3859 -1.2200
 1389TIP3    H2 4113   0.446   5.349   6.676  0.0678  0.2960 -0.2737
 1390TIP3   OH2 4114   5.508   5.752   0.037  0.1372 -0.1951  0.0417
 1390TIP3    H1 4115   5.504   5.809   0.114  0.0698 -1.5204  1.0628
 1390TIP3    H2 4116   5.566   5.798  -0.024 -0.2957  1.1733  0.6217
 1391TIP3   OH2 4117   3.539   1.352   4.164 -0.3013  0.1877  0.1054
 1391TIP3    H1 4118   3.546   1.438   4.123 -0.5465  0.1088 -0.1064
 1391TIP3    H2 4119   3.485   1.366   4.241 -0.3710  0.2174  0.0512
 1392TIP3   OH2 4120   5.680   1.439   0.953  0.8525  0.5875 -0.0491
 1392TIP3    H1 4121   5.724   1.359   0.922  1.1463  0.5257  0.5085
 1392TIP3    H2 4122   5.646   1.480   0.874 -1.2925 -1.2490 -0.1741
 1393TIP3   OH2 4123   6.360   0.176   1.159  0.0800  0.4445 -0.3897
 1393TIP3    H1 4124   6.294   0.119   1.119 -1.1812  1.7587 -0.2887
 1393TIP3    H2 4125   6.314   0.218   1.232  0.6750  2.2383 -0.9998
 1394TIP3   OH2 4126   4.897   2.077   6.747  0.2102  0.6366  0.0626
 1394TIP3    H1 4127   4.912   1.989   6.713 -1.9648  0.0765  0.3881
 1394TIP3    H2 4128   4.866   2.127   6.672  1.3458  1.1194 -0.0984
 1395TIP3   OH2 4129   1.434   7.749   0.205 -0.5508 -0.1666  0.5407
 1395TIP3    H1 4130   1.456   7.712   0.120 -1.0667  1.4044 -0.3182
 1395TIP3    H2 4131   1.446   7.677   0.267  1.5705 -0.8641 -0.5975
 1396TIP3   OH2 4132   1.956   4.337   1.492  0.0162 -0.4218  0.4578
 1396TIP3    H1 4133   1.943   4.247   1.463 -1.7196 -0.5658  1.5390
 1396TIP3    H2 4134   1.933   4.336   1.585 -0.0928  1.1606  0.4760
 1397TIP3   OH2 4135   2.891   0.988   2.071  0.2865 -0.1866  0.0447
 1397TIP3    H1 4136   2.884   0.919   2.137 -0.9722  0.1173  0.2503
 1397TIP3    H2 4137   2.879   1.069   2.121  0.0353  0.0839 -0.4567
 1398TIP3   OH2 4138   1.412   6.434   4.004 -0.1907 -0.4992  0.1327
 1398TIP3    H1 4139   1.490   6.474   3.966  0.4639 -0.7539  1.1595
 1398TIP3    H2 4140   1.441   6.346   4.030 -1.1671 -1.0637 -0.6309
 1399TIP3   OH2 4141   3.540   6.660   1.537 -0.2545  0.4374  0.2094
 1399TIP3    H1 4142   3.456   6.705   1.535  0.3663  1.5963 -0.9336
 1399TIP3    H2 4143   3.605   6.729   1.540  0.6949 -0.4106 -0.0894
 1400TIP3   OH2 4144   5.973   4.242   0.331 -0.0605  0.0381  0.3058
 1400TIP3    H1 4145   6.063   4.272   0.318 -0.1889  0.1883 -0.2798
 1400TIP3    H2 4146   5.920   4.322   0.324 -0.0959  0.2510  2.5135
 1401TIP3   OH2 4147   4.713   3.242   3.364  0.5219 -0.6378 -0.4525
 1401TIP3    H1 4148   4.775   3.230   3.292  2.2223  1.7667  0.4990
 1401TIP3    H2 4149   4.767   3.257   3.441 -1.2547 -0.0338  0.7412
 1402TIP3   OH2 4150   1.280   2.158   2.597  0.0626 -0.0741  0.7746
 1402TIP3    H1 4151   1.352   2.123   2.648  0.2142  0.6585  1.0741
 1402TIP3    H2 4152   1.248   2.233   2.648  0.2177  0.6750 -0.1886
 1403TIP3   OH2 4153   0.910   5.919   2.525 -0.1128 -0.0793 -0.7768
 1403TIP3    H1 4154   0.997   5.881   2.527  0.7750  1.7735  2.1846
 1403TIP3    H2 4155   0.891   5.941   2.616 -3.2001  0.6691 -1.4803
 1404TIP3   OH2 4156   2.555   5.125   0.149 -0.0711 -0.5876 -0.2206
 1404TIP3    H1 4157   2.565   5.044   0.199 -0.6300 -0.8753 -0.5632
 1404TIP3    H2 4158   2.464   5.123   0.118  0.2486 -0.4060 -1.2182
 1405TIP3   OH2 4159   7.602   5.124   6.591  0.5585 -0.8021  0.1427
 1405TIP3    H1 4160   7.563   5.211   6.596 -0.2823 -1.1941  0.6345
 1405TIP3    H2 4161   7.529   5.066   6.570  0.9999 -1.4686  0.4007
 1406TIP3   OH2 4162   7.187   2.133   3.482 -0.3203  0.0471 -0.3304
 1406TIP3    H1 4163   7.264   2.116   3.536 -0.5902 -1.5699 -0.4016
 1406TIP3    H2 4164   7.133   2.190   3.536  0.6767  0.7710 -0.0644
 1407TIP3   OH2 4165   3.709   7.289   1.555  0.1496  0.7899  0.0758
 1407TIP3    H1 4166   3.762   7.220   1.515 -0.4441 -0.3238  1.1496
 1407TIP3    H2 4167   3.759   7.318   1.631 -0.0388  0.8871  0.1648
 1408TIP3   OH2 4168   1.408   6.892   3.585  0.3688  0.1010 -0.2471
 1408TIP3    H1 4169   1.439   6.809   3.622 -0.7830  0.5018  1.7927
 1408TIP3    H2 4170   1.333   6.866   3.531 -1.7687 -0.0781  2.5630
 1409TIP3   OH2 4171   5.380   7.638   3.012  0.6053 -0.3002 -0.0736
 1409TIP3    H1 4172   5.328   7.594   3.079 -0.3777 -0.6008 -1.0072
 1409TIP3    H2 4173   5.318   7.659   2.942  1.1897  1.8507 -0.0325
 1410TIP3   OH2 4174   5.581   6.482   3.596 -0.3811  0.1467  0.8554
 1410TIP3    H1 4175   5.574   6.575   3.620 -1.4872  0.0839  0.8221
 1410TIP3    H2 4176   5.520   6.471   3.523 -0.3096 -0.6166  0.9030
 1411TIP3   OH2 4177   1.124   2.054   1.036 -0.7233  0.0713 -0.3487
 1411TIP3    H1 4178   1.068   1.990   1.080  0.0005 -0.2439  0.1329
 1411TIP3    H2 4179   1.199   2.065   1.095  0.5682 -0.7881 -1.7409
 1412TIP3   OH2 4180   0.692   7.362   4.311 -0.1939 -0.0546 -0.3325
 1412TIP3    H1 4181   0.750   7.352   4.386  1.5504  0.2407 -1.5872
 1412TIP3    H2 4182   0.664   7.453   4.314 -0.8851 -0.2771  0.4465
 1413TIP3   OH2 4183   7.659   3.377   0.104  0.4709 -0.3579  0.0380
 1413TIP3    H1 4184   7.706   3.460   0.114  1.8653 -1.1925  0.8200
 1413TIP3    H2 4185   7.660   3.338   0.191  1.9704 -2.2426 -0.7350
 1414TIP3   OH2 4186   3.749   1.274   5.006 -0.3006  0.1891  0.5436
 1414TIP3    H1 4187   3.677   1.329   5.036 -1.2609 -1.1404  0.7562
 1414TIP3    H2 4188   3.707   1.195   4.972  0.8717  0.6520 -2.2736
 1415TIP3   OH2 4189   6.568   7.415   4.129  0.0701 -0.6677  0.3979
 1415TIP3    H1 4190   6.655   7.377   4.112  1.0053  0.8987  1.4794
 1415TIP3    H2 4191   6.581   7.472   4.205 -2.1377 -1.1381  1.2078
 1416TIP3   OH2 4192   2.413   4.439   4.601 -1.0754 -0.0196  0.1465
 1416TIP3    H1 4193   2.349   4.452   4.670  0.1113 -0.1858  1.3309
 1416TIP3    H2 4194   2.460   4.522   4.596 -0.6612 -0.2534  0.0789
 1417TIP3   OH2 4195   6.911   0.476   1.897  0.3407  0.2559  0.0186
 1417TIP3    H1 4196   6.977   0.439   1.840  1.0317  1.3343  0.0985
 1417TIP3    H2 4197   6.886   0.403   1.955 -0.4815 -0.9019 -1.6818
 1418TIP3   OH2 4198   6.007   1.351   6.744 -0.0881 -0.0414  0.0744
 1418TIP3    H1 4199   6.046   1.265   6.764 -1.7823 -0.7689  0.4296
 1418TIP3    H2 4200   5.932   1.358   6.803 -1.4237  0.6080 -1.6038
 1419TIP3   OH2 4201   1.588   0.085   6.113  0.6089  0.1774  0.2691
 1419TIP3    H1 4202   1.502   0.070   6.075  0.8227 -0.2880 -0.0284
 1419TIP3    H2 4203   1.632   0.143   6.050  0.7460 -0.1053  0.1058
 1420TIP3   OH2 4204   6.173   3.238   5.842 -0.1946  0.3999  0.3700
 1420TIP3    H1 4205   6.180   3.178   5.767  0.3997 -0.8835  1.4022
 1420TIP3    H2 4206   6.252   3.221   5.894 -0.8895  0.8045  1.6103
 1421TIP3   OH2 4207   3.263   4.941   0.214 -0.9027 -0.6141 -0.1002
 1421TIP3    H1 4208   3.316   4.937   0.135 -2.0757  1.0599 -1.0301
 1421TIP3    H2 4209   3.177   4.970   0.184 -1.2939  0.3919  1.8098
 1422TIP3   OH2 4210   1.618   7.099   1.203 -0.2178 -0.5232 -0.8720
 1422TIP3    H1 4211   1.673   7.024   1.225  1.4094  0.9257  0.3049
 1422TIP3    H2 4212   1.587   7.082   1.115  1.4345 -1.8310 -1.2510
 1423TIP3   OH2 4213   4.799   4.078   4.001  0.4839 -0.3109  0.1676
 1423TIP3    H1 4214   4.894   4.089   3.994  0.5992 -0.4863  1.2541
 1423TIP3    H2 4215   4.774   4.131   4.077  0.0314 -1.9050  1.1722
 1424TIP3   OH2 4216   3.503   0.990   2.255  0.3068 -0.0303 -0.1682
 1424TIP3    H1 4217   3.562   1.009   2.328 -0.0839  0.8857 -0.0826
 1424TIP3    H2 4218   3.494   0.895   2.257  1.4441 -0.1548  0.0769
 1425TIP3   OH2 4219   3.660   5.898   4.060 -0.1413 -0.1655  0.4309
 1425TIP3    H1 4220   3.604   5.822   4.073 -1.2373  0.5978  0.2777
 1425TIP3    H2 4221   3.651   5.920   3.968 -1.4849  1.3742  0.8728
 1426TIP3   OH2 4222   3.304   2.370   4.006  0.0004 -0.1550  0.0328
 1426TIP3    H1 4223   3.365   2.324   3.949  0.8802  1.9809 -0.8662
 1426TIP3    H2 4224   3.247   2.417   3.946  0.9276  2.1195  0.8210
 1427TIP3   OH2 4225   5.870   0.096   6.070  0.4295  0.2013 -0.2929
 1427TIP3    H1 4226   5.805   0.156   6.106  0.5717  0.5032 -0.5325
 1427TIP3    H2 4227   5.947   0.150   6.054  0.4654  0.0174 -0.7762
 1428TIP3   OH2 4228   1.409   2.895   6.158 -0.3880  0.1665 -0.1034
 1428TIP3    H1 4229   1.396   2.811   6.202  0.5120 -0.8685 -1.7319
 1428TIP3    H2 4230   1.503   2.911   6.162 -0.2672  0.0158 -1.6324
 1429TIP3   OH2 4231   0.557   2.352   2.285  0.1174  0.3936 -0.1174
 1429TIP3    H1 4232   0.542   2.421   2.221 -0.3460  0.7912  0.4120
 1429TIP3    H2 4233   0.633   2.382   2.335 -1.3664  1.5874  1.5187
 1430TIP3   OH2 4234   2.586   5.377   2.937 -0.8282 -0.1923 -0.2309
 1430TIP3    H1 4235   2.633   5.458   2.917 -1.9838  1.1131  1.9356
 1430TIP3    H2 4236   2.607   5.319   2.864  3.7385  0.3903  0.3263
 1431TIP3   OH2 4237   4.204   1.055   2.486  0.3529 -0.6574  0.2351
 1431TIP3    H1 4238   4.300   1.056   2.485  0.3565 -0.9689  0.4364
 1431TIP3    H2 4239   4.180   1.112   2.559  0.4050 -1.7184  1.1053
 1432TIP3   OH2 4240   6.269   0.514   0.073 -0.1718 -0.3389  0.3022
 1432TIP3    H1 4241   6.356   0.548   0.053  0.3505 -1.5958  0.2955
 1432TIP3    H2 4242   6.241   0.563   0.150  0.4564  0.2289  0.1748
 1433TIP3   OH2 4243   4.302   0.671   4.998 -0.3804  0.6158 -0.0499
 1433TIP3    H1 4244   4.357   0.601   5.033 -0.9288  0.0208 -0.3590
 1433TIP3    H2 4245   4.218   0.660   5.043 -0.2513  1.5437  0.4556
 1434TIP3   OH2 4246   5.471   6.720   6.319  0.2043  0.4741 -0.6437
 1434TIP3    H1 4247   5.499   6.697   6.230  0.2358  0.3336 -0.5973
 1434TIP3    H2 4248   5.435   6.808   6.310 -0.0286  0.3610 -0.8456
 1435TIP3   OH2 4249   4.964   0.357   1.161  0.1748  0.0018  0.0137
 1435TIP3    H1 4250   4.946   0.450   1.171 -0.2054 -0.1288  0.5950
 1435TIP3    H2 4251   4.982   0.326   1.250 -0.4706 -0.6260 -0.0615
 1436TIP3   OH2 4252   2.265   4.230   0.407  0.1404 -0.4168  0.4402
 1436TIP3    H1 4253   2.286   4.295   0.339 -3.4608  1.2809  0.6827
 1436TIP3    H2 4254   2.278   4.277   0.489 -0.6389 -0.6189  0.6886
 1437TIP3   OH2 4255   2.446   2.992   0.387 -0.0594  0.1247  0.1907
 1437TIP3    H1 4256   2.444   2.930   0.460 -0.7812 -1.2846 -0.9733
 1437TIP3    H2 4257   2.532   2.979   0.346 -0.1866 -0.0585 -0.0177
 1438TIP3   OH2 4258   5.970   7.714   3.239 -0.0867  0.0363  0.3434
 1438TIP3    H1 4259   5.910   7.729   3.167  0.8800 -0.1434 -0.5200
 1438TIP3    H2 4260   6.008   7.627   3.221 -0.0781 -0.1566  1.2416
 1439TIP3   OH2 4261   4.174   5.492   2.568 -0.7552  0.0419 -0.4742
 1439TIP3    H1 4262   4.187   5.583   2.542  0.3275  0.0588  0.0798
 1439TIP3    H2 4263   4.261   5.452   2.562 -0.6006 -0.1941  2.1425
 1440TIP3   OH2 4264   5.022   5.898   1.127  0.2102  0.0033  0.1161
 1440TIP3    H1 4265   5.015   5.807   1.158  2.1936  0.1633  1.1284
 1440TIP3    H2 4266   5.096   5.897   1.067 -0.0618  0.8792 -0.2442
 1441TIP3   OH2 4267   4.933   7.761   4.374 -0.7375  0.6483  0.4004
 1441TIP3    H1 4268   4.989   7.821   4.424  0.9267 -0.4096 -0.0819
 1441TIP3    H2 4269   4.954   7.675   4.409  0.4842 -0.1411 -2.0281
 1442TIP3   OH2 4270   3.391   7.315   4.386 -0.2502  0.2276 -0.2231
 1442TIP3    H1 4271   3.403   7.225   4.416 -1.2577 -0.7507 -2.5286
 1442TIP3    H2 4272   3.299   7.335   4.407 -0.1981  0.4994 -0.2491
 1443TIP3   OH2 4273   7.823   4.867   3.102 -0.0248 -0.4741  0.6010
 1443TIP3    H1 4274   7.773   4.792   3.135  1.0572 -0.7561  1.6818
 1443TIP3    H2 4275   7.777   4.893   3.022 -1.7399 -0.8738  1.4017
 1444TIP3   OH2 4276   0.178   0.571   3.619  0.1071 -0.6154 -0.0449
 1444TIP3    H1 4277   0.091   0.600   3.647  1.3602  2.1845  1.3089
 1444TIP3    H2 4278   0.202   0.504   3.683 -0.9885 -1.3774 -0.3974
 1445TIP3   OH2 4279   0.859   2.038   2.180 -0.0974  0.0440  0.4668
 1445TIP3    H1 4280   0.770   2.073   2.185 -0.1658 -0.1691  0.7186
 1445TIP3    H2 4281   0.898   2.084   2.105 -0.0473  0.9762  1.0484
 1446TIP3   OH2 4282   5.651   6.028   2.928  0.2014  0.2365  0.0885
 1446TIP3    H1 4283   5.623   6.120   2.936 -0.1435  0.2985 -1.5230
 1446TIP3    H2 4284   5.580   5.986   2.879  0.5762 -0.7935  0.4064
 1447TIP3   OH2 4285   0.243   6.816   1.560 -0.1453  0.4631  0.3756
 1447TIP3    H1 4286   0.229   6.911   1.555  1.1021  0.8202  2.5702
 1447TIP3    H2 4287   0.166   6.783   1.607  0.6396  0.8081  1.9814
 1448TIP3   OH2 4288   6.754   0.600   4.376 -0.6725  0.0229 -0.0297
 1448TIP3    H1 4289   6.737   0.508   4.396 -0.6495 -0.2626 -1.2636
 1448TIP3    H2 4290   6.709   0.616   4.294  1.4832  0.3779 -1.2342
 1449TIP3   OH2 4291   2.129   2.077   0.216  0.1972 -0.1908 -1.3331
 1449TIP3    H1 4292   2.069   2.141   0.253  0.2705  0.4080 -2.2082
 1449TIP3    H2 4293   2.189   2.129   0.162  1.5148 -0.7659 -0.4782
 1450TIP3   OH2 4294   2.279   2.467   2.889 -0.4037 -0.0324 -0.0757
 1450TIP3    H1 4295   2.184   2.476   2.887 -0.2760  1.5644 -1.6821
 1450TIP3    H2 4296   2.302   2.436   2.801  0.4268 -2.7767  1.0053
 1451TIP3   OH2 4297   6.568   4.739   2.967  0.2162 -0.6232  0.0432
 1451TIP3    H1 4298   6.648   4.721   3.017  1.3141  0.5694 -1.2049
 1451TIP3    H2 4299   6.598   4.788   2.891 -1.4317 -2.1323 -1.6760
 1452TIP3   OH2 4300   2.716   4.188   0.914 -0.4233  0.0007 -0.4459
 1452TIP3    H1 4301   2.643   4.130   0.937  0.7582 -0.9061  1.2098
 1452TIP3    H2 4302   2.782   4.129   0.878 -0.0333  0.6396 -0.7818
 1453TIP3   OH2 4303   0.308   0.030   2.555  0.0829  0.4136  0.4355
 1453TIP3    H1 4304   0.357   0.039   2.637  1.7123  1.6025 -0.6147
 1453TIP3    H2 4305   0.315   0.116   2.513 -1.1271 -0.0281 -0.7455
 1454TIP3   OH2 4306   6.637   0.312   2.609  0.2626  0.0428 -0.2863
 1454TIP3    H1 4307   6.673   0.325   2.521 -0.1573 -0.0011 -0.4643
 1454TIP3    H2 4308   6.631   0.217   2.619  2.1874 -0.0572  0.5563
 1455TIP3   OH2 4309   7.892   6.687   4.720  0.5217 -0.3242 -0.0939
 1455TIP3    H1 4310   7.827   6.723   4.660  2.2654  1.4925 -0.9760
 1455TIP3    H2 4311   7.913   6.759   4.779  1.2352 -1.1121  0.6493
 1456TIP3   OH2 4312   7.969   6.910   5.540  0.2385  0.6184 -0.1084
 1456TIP3    H1 4313   7.951   6.994   5.582  1.8633  0.9773 -0.0816
 1456TIP3    H2 4314   8.026   6.864   5.602 -0.3901 -0.3872 -0.2576
 1457TIP3   OH2 4315   6.630   4.565   2.002 -0.2100  0.7324 -0.3173
 1457TIP3    H1 4316   6.548   4.594   1.962 -0.5514 -1.5547 -1.4030
 1457TIP3    H2 4317   6.608   4.481   2.043  1.1181  1.0969  1.2391
 1458TIP3   OH2 4318   3.043   6.039   6.546  0.0826  0.1469  0.1440
 1458TIP3    H1 4319   3.067   6.063   6.636 -1.9580 -0.8579  1.0182
 1458TIP3    H2 4320   3.100   5.965   6.525  0.2151  0.0566  0.8093
 1459TIP3   OH2 4321   1.757   5.067   3.677 -0.1902 -0.0570  0.2406
 1459TIP3    H1 4322   1.799   5.125   3.740  0.6887 -1.6528  1.2159
 1459TIP3    H2 4323   1.821   4.996   3.664 -1.6625 -1.4166  0.0357
 1460TIP3   OH2 4324   7.313   2.527   4.125 -0.3821  0.2352  0.1759
 1460TIP3    H1 4325   7.373   2.530   4.051 -0.6263  2.7568 -0.0032
 1460TIP3    H2 4326   7.228   2.506   4.086 -0.4725  1.3544 -0.2533
 1461TIP3   OH2 4327   5.990   0.574   3.208 -0.1626  0.1756 -0.6639
 1461TIP3    H1 4328   6.021   0.636   3.274 -0.5778 -0.3935  0.0816
 1461TIP3    H2 4329   5.913   0.615   3.170 -0.6885 -0.0646  0.1286
 1462TIP3   OH2 4330   4.138   2.624   2.265  0.3029 -0.5365  0.4788
 1462TIP3    H1 4331   4.078   2.637   2.192 -0.9473  1.6565  1.7654
 1462TIP3    H2 4332   4.223   2.606   2.224 -0.5306 -0.2589 -1.4716
 1463TIP3   OH2 4333   7.705   3.255   4.502  0.1959  0.1390 -0.2048
 1463TIP3    H1 4334   7.654   3.177   4.524  1.1620 -0.5204 -0.2136
 1463TIP3    H2 4335   7.771   3.222   4.440  1.5597  0.6509  0.9366
 1464TIP3   OH2 4336   2.185   2.646   1.030  0.5486 -0.3433  0.2494
 1464TIP3    H1 4337   2.183   2.726   0.978 -1.0846 -0.3910  0.2007
 1464TIP3    H2 4338   2.142   2.580   0.975  0.4152 -0.8481  0.9430
 1465TIP3   OH2 4339   3.039   4.750   5.347 -0.2013 -0.2666  0.0008
 1465TIP3    H1 4340   2.966   4.800   5.384  0.2711 -0.0774  0.7012
 1465TIP3    H2 4341   3.043   4.778   5.256 -2.2511 -1.7501 -0.6189
 1466TIP3   OH2 4342   4.642   2.389   1.198  0.0044 -0.2678  0.1502
 1466TIP3    H1 4343   4.552   2.358   1.209 -0.9314  1.2838 -2.3235
 1466TIP3    H2 4344   4.687   2.317   1.155 -0.1305 -0.8868  1.0053
 1467TIP3   OH2 4345   8.031   6.307   4.610 -0.1990  0.4867  0.0687
 1467TIP3    H1 4346   8.114   6.274   4.644 -0.5520 -0.3356  0.1425
 1467TIP3    H2 4347   8.053   6.340   4.523 -0.0629 -1.0491 -0.5043
 1468TIP3   OH2 4348   6.281   3.492   0.317  0.1425 -0.2180  0.0607
 1468TIP3    H1 4349   6.247   3.436   0.248 -0.3190  0.3281 -0.1656
 1468TIP3    H2 4350   6.376   3.480   0.313  0.4095  1.7168 -2.4271
 1469TIP3   OH2 4351   3.812   3.603   2.354 -0.1221  0.6731  0.4143
 1469TIP3    H1 4352   3.787   3.516   2.383  1.4190 -0.7805 -2.1906
 1469TIP3    H2 4353   3.745   3.661   2.390 -0.8038 -1.4529  2.8056
 1470TIP3   OH2 4354   0.590   6.698   3.136 -0.0429 -0.2048  0.7451
 1470TIP3    H1 4355   0.644   6.740   3.070  2.7181 -1.0572  2.2736
 1470TIP3    H2 4356   0.606   6.604   3.124  1.4180 -0.3556  3.1969
 1471TIP3   OH2 4357   1.342   2.866   1.026  0.0300  0.2243 -0.3877
 1471TIP3    H1 4358   1.336   2.865   1.122 -0.9348 -1.2895 -0.4360
 1471TIP3    H2 4359   1.347   2.774   1.001 -0.6216  0.5577 -1.8384
 1472TIP3   OH2 4360   7.410   3.550   3.338 -0.2454  0.2525  0.0255
 1472TIP3    H1 4361   7.376   3.471   3.380 -1.3218  0.4453 -0.4318
 1472TIP3    H2 4362   7.334   3.587   3.293  0.1857  1.6487  0.3858
 1473TIP3   OH2 4363   1.734   0.420   6.293  0.3558  0.6102  0.4750
 1473TIP3    H1 4364   1.643   0.397   6.273  0.3193  0.0927  1.2027
 1473TIP3    H2 4365   1.782   0.403   6.212 -0.2339  1.1441  0.0018
 1474TIP3   OH2 4366   2.895   1.916   4.787  0.1895  0.0848  0.0882
 1474TIP3    H1 4367   2.802   1.907   4.766 -0.3525  0.2171  2.2891
 1474TIP3    H2 4368   2.940   1.891   4.705 -1.7079 -2.1124 -0.3861
 1475TIP3   OH2 4369   0.238   0.504   0.578 -0.0965  0.4690  0.1933
 1475TIP3    H1 4370   0.216   0.536   0.666 -0.4344 -1.7799  0.9820
 1475TIP3    H2 4371   0.202   0.416   0.575  3.1823 -0.9580 -0.8353
 1476TIP3   OH2 4372   2.029   3.226   3.717  0.9528  0.0211 -0.4254
 1476TIP3    H1 4373   1.990   3.151   3.671  2.0838  0.6800 -2.6134
 1476TIP3    H2 4374   1.955   3.266   3.763  0.1361 -1.8290 -0.0380
 1477TIP3   OH2 4375   7.966   2.527   4.074  0.3746  0.5696 -0.1415
 1477TIP3    H1 4376   7.954   2.588   4.146  1.0401  0.8799 -0.2854
 1477TIP3    H2 4377   8.024   2.459   4.108  1.6140  1.3138 -0.7084
 1478TIP3   OH2 4378   1.066   0.272   1.540 -0.3372 -0.4297 -0.0229
 1478TIP3    H1 4379   1.134   0.338   1.554 -0.7069 -0.0980  0.2391
 1478TIP3    H2 4380   0.987   0.322   1.521 -0.4466 -0.8196 -0.6381
 1479TIP3   OH2 4381   3.117   7.005   5.582 -0.2435  0.2244 -0.3587
 1479TIP3    H1 4382   3.183   7.021   5.515 -1.4903 -0.3841 -1.7854
 1479TIP3    H2 4383   3.051   6.951   5.539 -0.4790 -1.2710  1.7360
 1480TIP3   OH2 4384   5.162   3.949   3.751 -0.5505  0.0469  0.3843
 1480TIP3    H1 4385   5.243   3.996   3.769 -0.5487 -0.3092  1.3569
 1480TIP3    H2 4386   5.184   3.891   3.678 -0.2486  0.7465 -0.0907
 1481TIP3   OH2 4387   3.281   4.203   1.460 -0.7690 -0.3291  0.4105
 1481TIP3    H1 4388   3.232   4.128   1.495 -1.1962 -0.2347  0.0247
 1481TIP3    H2 4389   3.368   4.195   1.499 -0.6908 -1.2419  0.0876
 1482TIP3   OH2 4390   7.821   6.187   3.580  0.5259  0.0853  0.2463
 1482TIP3    H1 4391   7.843   6.226   3.495  0.1461 -1.2596 -0.4996
 1482TIP3    H2 4392   7.814   6.093   3.562 -3.6968  0.1093  0.8233
 1483TIP3   OH2 4393   2.524   6.574   5.627  0.2733 -0.0051 -0.1994
 1483TIP3    H1 4394   2.553   6.602   5.540 -0.4937  1.8890  0.1007
 1483TIP3    H2 4395   2.429   6.566   5.619  0.3170 -1.0097  0.1742
 1484TIP3   OH2 4396   0.795   6.033   6.190 -0.1408  0.2433 -0.6671
 1484TIP3    H1 4397   0.713   6.059   6.147  1.3172  1.3811 -2.9706
 1484TIP3    H2 4398   0.828   6.113   6.231  0.8412  0.3406 -1.6013
 1485TIP3   OH2 4399   4.949   3.995   1.818  0.2161  0.0823 -0.4746
 1485TIP3    H1 4400   4.994   3.923   1.774 -0.8451 -0.4519 -0.7173
 1485TIP3    H2 4401   4.971   4.073   1.766  0.5391 -0.2269 -0.8061
 1486TIP3   OH2 4402   5.692   6.626   4.917  0.1286 -0.2098  0.1179
 1486TIP3    H1 4403   5.653   6.647   4.832 -0.0254  4.1011  0.9969
 1486TIP3    H2 4404   5.786   6.627   4.901  0.1402 -2.7527 -0.4880
 1487TIP3   OH2 4405   7.859   0.247   6.118 -0.2204 -0.2587 -0.3994
 1487TIP3    H1 4406   7.870   0.294   6.201  1.6034 -2.3441  0.6502
 1487TIP3    H2 4407   7.783   0.190   6.134  0.2441 -0.7945 -0.0733
 1488TIP3   OH2 4408   6.463   1.396   1.783 -0.0403 -0.1817 -0.2079
 1488TIP3    H1 4409   6.392   1.351   1.737  0.0995 -0.6302  0.0121
 1488TIP3    H2 4410   6.528   1.327   1.800  0.8865  0.4027 -1.2564
 1489TIP3   OH2 4411   2.777   6.820   1.997 -0.0939 -0.5311 -0.3813
 1489TIP3    H1 4412   2.866   6.795   1.975 -0.1671 -0.2927 -0.9623
 1489TIP3    H2 4413   2.729   6.737   2.002 -0.0219 -0.6055 -0.8921
 1490TIP3   OH2 4414   4.055   4.235   1.765  0.0874  0.0458  0.8136
 1490TIP3    H1 4415   4.062   4.230   1.861 -1.3294  2.0262  1.0675
 1490TIP3    H2 4416   3.971   4.192   1.746 -0.2655  0.8172  0.6081
 1491TIP3   OH2 4417   3.108   0.534   0.885  0.0258  0.4273  0.3790
 1491TIP3    H1 4418   3.172   0.481   0.934  1.4207  0.4105 -1.3161
 1491TIP3    H2 4419   3.120   0.623   0.917 -1.0381  0.0275  1.9650
 1492TIP3   OH2 4420   1.651   3.316   4.754  0.3241 -0.1232 -0.7201
 1492TIP3    H1 4421   1.648   3.403   4.794  1.8120  0.0376 -0.9169
 1492TIP3    H2 4422   1.593   3.263   4.808 -0.7386  1.0227 -0.6948
 1493TIP3   OH2 4423   2.168   6.646   4.916 -0.0187  0.0159 -0.3197
 1493TIP3    H1 4424   2.208   6.593   4.986  1.1305  0.7809 -0.3734
 1493TIP3    H2 4425   2.109   6.706   4.962 -0.1533 -0.2668 -0.1188
 1494TIP3   OH2 4426   5.106   6.905   6.312  0.1699 -0.5837  0.0237
 1494TIP3    H1 4427   5.010   6.902   6.308  0.1530 -0.7245  0.4793
 1494TIP3    H2 4428   5.127   6.885   6.403  0.6681 -1.6071 -0.3007
 1495TIP3   OH2 4429   7.796   1.867   4.336 -0.0879 -0.3009  0.2441
 1495TIP3    H1 4430   7.760   1.779   4.351 -2.1717  0.7154  1.5771
 1495TIP3    H2 4431   7.890   1.852   4.328 -0.2845 -2.5900  1.2391
 1496TIP3   OH2 4432   5.931   7.788   6.209 -0.2479 -0.3796 -0.6583
 1496TIP3    H1 4433   5.983   7.708   6.195 -0.7713 -0.6663 -1.0145
 1496TIP3    H2 4434   5.877   7.796   6.130  0.2984  0.7195 -0.9353
 1497TIP3   OH2 4435   0.172   5.875   0.825  0.5764 -0.1309 -0.1218
 1497TIP3    H1 4436   0.239   5.939   0.799 -0.2286  0.5868 -0.5022
 1497TIP3    H2 4437   0.195   5.796   0.777 -0.4618  0.9528 -2.6181
 1498TIP3   OH2 4438   0.036   4.099   2.910 -0.1773  0.5520 -0.1140
 1498TIP3    H1 4439  -0.016   4.178   2.925  2.4380  1.8791  3.2595
 1498TIP3    H2 4440   0.039   4.090   2.814 -3.8888  2.1013 -0.5271
 1499TIP3   OH2 4441   2.867   1.135   5.689  0.3721  0.4967 -0.5620
 1499TIP3    H1 4442   2.897   1.190   5.616  0.8541 -1.2826 -1.7773
 1499TIP3    H2 4443   2.820   1.195   5.746  1.3253  2.2725 -1.5412
 1500TIP3   OH2 4444   5.927   1.515   3.282  0.3660  0.1579  0.4680
 1500TIP3    H1 4445   5.869   1.485   3.351  0.4588 -0.5253  0.2604
 1500TIP3    H2 4446   6.012   1.478   3.305  0.6126  0.7364  0.5042
 1501TIP3   OH2 4447   2.906   1.340   6.561  0.9794  0.2341 -0.1738
 1501TIP3    H1 4448   2.950   1.381   6.635  0.7926  0.3983 -0.1537
 1501TIP3    H2 4449   2.863   1.263   6.599 -0.8315  1.4296  0.3021
 1502TIP3   OH2 4450   0.044   7.578   1.861 -0.4118 -0.4867 -0.4376
 1502TIP3    H1 4451   0.040   7.532   1.945 -1.6401 -0.7174 -0.6003
 1502TIP3    H2 4452   0.072   7.667   1.883  2.3549 -1.3271 -0.1497
 1503TIP3   OH2 4453   6.169   4.263   4.977 -0.3574 -0.2628 -0.1417
 1503TIP3    H1 4454   6.232   4.334   4.970 -0.1752 -0.3901  0.1518
 1503TIP3    H2 4455   6.141   4.246   4.888  0.1276 -0.2963 -0.2903
 1504TIP3   OH2 4456   7.156   0.979   2.238  0.3859  0.0338  0.5834
 1504TIP3    H1 4457   7.063   0.958   2.242  0.0359  1.0946 -1.2078
 1504TIP3    H2 4458   7.190   0.924   2.168  0.9371  0.2766  0.6555
 1505TIP3   OH2 4459   5.527   0.831   5.715 -0.6386 -0.2402 -0.4432
 1505TIP3    H1 4460   5.550   0.739   5.708  0.4216 -0.1098  0.9568
 1505TIP3    H2 4461   5.522   0.847   5.809 -1.4338  0.9939 -0.6702
 1506TIP3   OH2 4462   0.321   5.021   6.488 -0.4834 -0.1267  0.9054
 1506TIP3    H1 4463   0.322   5.116   6.476 -1.2829  0.2195  3.0358
 1506TIP3    H2 4464   0.230   5.001   6.512 -1.0100 -1.8618 -2.0128
 1507TIP3   OH2 4465   1.435   3.522   2.809 -0.2101  0.5454 -0.3659
 1507TIP3    H1 4466   1.446   3.512   2.904  0.1818  1.4569 -0.3075
 1507TIP3    H2 4467   1.496   3.591   2.785  0.2007 -0.1657 -1.4097
 1508TIP3   OH2 4468   3.352   4.825   0.824 -0.0072 -0.0507  0.3221
 1508TIP3    H1 4469   3.363   4.888   0.753  1.1071  0.9032  1.2924
 1508TIP3    H2 4470   3.441   4.806   0.853 -0.2592 -2.5444 -0.3037
 1509TIP3   OH2 4471   0.881   3.433   3.372 -1.0096  0.4058  0.0984
 1509TIP3    H1 4472   0.872   3.405   3.281 -2.1094  0.6820  0.1073
 1509TIP3    H2 4473   0.799   3.408   3.414 -1.3886  2.1492  0.4932
 1510TIP3   OH2 4474   0.607   4.264   6.308  0.4189 -0.5917  0.8381
 1510TIP3    H1 4475   0.584   4.208   6.382  2.3480 -0.6222  1.4725
 1510TIP3    H2 4476   0.636   4.203   6.240  1.9147 -0.4445  1.3051
 1511TIP3   OH2 4477   6.363   7.180   1.081 -0.4074  0.5609 -0.0388
 1511TIP3    H1 4478   6.379   7.194   1.174  0.1019 -0.8007  0.0994
 1511TIP3    H2 4479   6.444   7.140   1.049 -0.7338  0.6350 -0.9760
 1512TIP3   OH2 4480   6.144   0.696   3.418 -0.3892  0.2018 -0.1507
 1512TIP3    H1 4481   6.220   0.637   3.422  0.1649  0.6837 -2.2657
 1512TIP3    H2 4482   6.129   0.721   3.509  1.5559 -0.4641  0.4090
 1513TIP3   OH2 4483   4.421   7.257   1.303  0.1805 -0.0764 -0.3125
 1513TIP3    H1 4484   4.375   7.189   1.352  0.0711 -0.7071 -1.2577
 1513TIP3    H2 4485   4.408   7.337   1.353  0.1710 -0.7246  0.7389
 1514TIP3   OH2 4486   7.401   2.575   3.553 -0.1232  0.0093  0.1524
 1514TIP3    H1 4487   7.416   2.578   3.648 -2.1656  0.7146  0.5070
 1514TIP3    H2 4488   7.339   2.503   3.542  1.2223 -1.0386 -0.8668
 1515TIP3   OH2 4489   5.880   4.184   5.030 -0.2979  0.2664 -0.0755
 1515TIP3    H1 4490   5.973   4.203   5.037 -0.0824 -1.1529  1.5275
 1515TIP3    H2 4491   5.875   4.114   4.965 -0.3553  0.9427 -0.8097
 1516TIP3   OH2 4492   1.465   6.600   6.104  0.4938 -0.7462  0.4421
 1516TIP3    H1 4493   1.472   6.622   6.011  0.4542 -3.1465 -0.1971
 1516TIP3    H2 4494   1.520   6.523   6.115 -1.7711 -2.3286  1.7210
 1517TIP3   OH2 4495   6.546   4.806   1.550  0.4042  0.3164  0.4057
 1517TIP3    H1 4496   6.480   4.768   1.492 -0.0973  1.6060  0.0884
 1517TIP3    H2 4497   6.498   4.874   1.599  1.4972  1.3012  0.1499
 1518TIP3   OH2 4498   2.459   3.924   2.412 -0.3306  0.1993 -0.4572
 1518TIP3    H1 4499   2.514   3.960   2.481  1.1437 -3.4882  0.5692
 1518TIP3    H2 4500   2.502   3.949   2.330  0.5544  0.7786  0.1679
 1519TIP3   OH2 4501   1.141   6.450   3.789 -0.3412  0.1740 -0.5623
 1519TIP3    H1 4502   1.047   6.456   3.771 -0.6643 -1.6969  0.2955
 1519TIP3    H2 4503   1.180   6.519   3.734 -2.1938  1.0195 -0.8996
 1520TIP3   OH2 4504   2.184   5.751   4.288  0.3913 -0.2802  0.0413
 1520TIP3    H1 4505   2.161   5.687   4.221  0.3991  0.7280 -0.9521
 1520TIP3    H2 4506   2.213   5.828   4.239  1.7864 -0.0087  1.2023
 1521TIP3   OH2 4507   3.458   3.714   6.043  0.3796  0.0935  0.1922
 1521TIP3    H1 4508   3.370   3.684   6.063 -0.2076  1.1395 -0.7181
 1521TIP3    H2 4509   3.489   3.655   5.974  0.4201 -0.2860  0.5267
 1522TIP3   OH2 4510   0.496   3.240   1.537 -0.3717  0.1147 -0.0237
 1522TIP3    H1 4511   0.547   3.241   1.618  1.2028 -0.6853 -0.9636
 1522TIP3    H2 4512   0.466   3.330   1.526  0.2134  0.4358  0.9440
 1523TIP3   OH2 4513   1.776   4.046   2.529 -0.0522  0.3207 -0.1809
 1523TIP3    H1 4514   1.849   3.990   2.501 -0.3335  0.0074 -0.3022
 1523TIP3    H2 4515   1.797   4.070   2.619  0.0268 -0.0600 -0.0946
 1524TIP3   OH2 4516   7.038   4.597   2.879  0.5366  0.0480 -0.0844
 1524TIP3    H1 4517   6.967   4.581   2.817 -0.1092 -1.5135  0.9887
 1524TIP3    H2 4518   7.115   4.612   2.825 -0.3037  0.2131 -1.2626
 1525TIP3   OH2 4519   7.320   7.464   4.081 -0.0136  0.6217  0.4482
 1525TIP3    H1 4520   7.261   7.510   4.022  1.9415  0.8113 -1.4924
 1525TIP3    H2 4521   7.282   7.477   4.168 -2.2645  1.5091 -0.5878
 1526TIP3   OH2 4522   6.461   4.108   1.134  0.2417  0.2449  0.5067
 1526TIP3    H1 4523   6.439   4.137   1.046  1.5366  0.4745  0.2408
 1526TIP3    H2 4524   6.464   4.013   1.128  5.1401  0.2096 -1.0566
 1527TIP3   OH2 4525   2.672   0.890   1.108 -0.3236 -0.3469 -0.3511
 1527TIP3    H1 4526   2.663   0.934   1.023 -0.8102 -1.0802 -0.6954
 1527TIP3    H2 4527   2.636   0.951   1.171 -1.3523 -0.3898 -0.8701
 1528TIP3   OH2 4528   1.331   4.276   2.770  0.1454  0.0776 -0.2893
 1528TIP3    H1 4529   1.283   4.352   2.738 -0.7521 -0.0835  0.6170
 1528TIP3    H2 4530   1.267   4.205   2.768  0.0040  0.0784  1.9088
 1529TIP3   OH2 4531   7.673   6.897   0.604 -0.4287  0.1534 -0.0833
 1529TIP3    H1 4532   7.641   6.896   0.513  1.5875  0.5428 -0.8655
 1529TIP3    H2 4533   7.627   6.825   0.646 -0.7074 -0.6735 -1.6971
 1530TIP3   OH2 4534   4.786   0.072   5.259 -0.1463 -0.3363  0.0299
 1530TIP3    H1 4535   4.866   0.046   5.304 -0.6223 -0.9128  0.5694
 1530TIP3    H2 4536   4.792   0.031   5.173  0.0818 -0.4729  0.1125
 1531TIP3   OH2 4537   1.709   1.378   3.769 -0.1703 -0.1399  0.0562
 1531TIP3    H1 4538   1.778   1.424   3.818 -0.8736  1.1055 -0.0896
 1531TIP3    H2 4539   1.757   1.327   3.704  0.6512  0.1695  0.3960
 1532TIP3   OH2 4540   3.774   1.429   5.385  0.1377 -0.2316  0.0228
 1532TIP3    H1 4541   3.800   1.469   5.301  0.9936 -0.6167  0.0851
 1532TIP3    H2 4542   3.713   1.491   5.424 -0.0788  0.0696 -0.7799
 1533TIP3   OH2 4543   5.602   5.219   2.025 -0.0732  0.4705 -0.3361
 1533TIP3    H1 4544   5.612   5.276   2.101  0.4409 -0.0871  0.0303
 1533TIP3    H2 4545   5.689   5.216   1.986 -0.7339  2.2908 -2.1017
 1534TIP3   OH2 4546   7.569   1.379   0.331 -0.1117  0.4415  0.5901
 1534TIP3    H1 4547   7.539   1.370   0.421  0.5244 -0.4159  0.7324
 1534TIP3    H2 4548   7.621   1.460   0.330 -0.6159  0.7697  0.8463
 1535TIP3   OH2 4549   2.687   6.118   2.802 -0.3377  0.3272  0.1203
 1535TIP3    H1 4550   2.711   6.210   2.815 -1.0216  0.5938 -0.3917
 1535TIP3    H2 4551   2.596   6.122   2.769  0.1476 -0.4302 -1.4180
 1536TIP3   OH2 4552   3.630   4.651   3.684  0.4165  0.1705  0.0141
 1536TIP3    H1 4553   3.575   4.638   3.606 -0.2685 -0.7236  0.6263
 1536TIP3    H2 4554   3.700   4.709   3.654  0.8412 -1.0820 -1.6070
 1537TIP3   OH2 4555   1.041   5.415   5.985 -0.7129  0.1216  0.3642
 1537TIP3    H1 4556   1.068   5.462   5.906 -2.4404 -0.4084 -0.5851
 1537TIP3    H2 4557   1.042   5.323   5.959 -2.8006  0.0343  0.4255
 1538TIP3   OH2 4558   4.677   7.001   3.153 -0.5954  0.4752  0.3007
 1538TIP3    H1 4559   4.730   6.971   3.227  0.8412 -0.4378 -1.0521
 1538TIP3    H2 4560   4.627   7.074   3.189  1.9693  1.7658  1.5315
 1539TIP3   OH2 4561   6.465   4.071   6.601 -0.1727 -0.5498 -0.0591
 1539TIP3    H1 4562   6.533   4.053   6.537 -1.3629 -1.7801 -1.0453
 1539TIP3    H2 4563   6.388   4.094   6.549 -0.4283  1.2707  1.0355
 1540TIP3   OH2 4564   6.844   5.962   2.745 -0.3780 -0.4802  0.2672
 1540TIP3    H1 4565   6.789   5.909   2.688 -0.7154  0.9135 -0.7436
 1540TIP3    H2 4566   6.789   5.979   2.822 -1.1436  0.3662 -0.4524
 1541TIP3   OH2 4567   7.821   2.964   1.291 -0.2492  0.2478 -0.4261
 1541TIP3    H1 4568   7.810   2.869   1.283 -0.8208  0.2701  0.0292
 1541TIP3    H2 4569   7.912   2.975   1.318 -0.1754 -0.1713 -0.4900
 1542TIP3   OH2 4570   1.694   4.505   2.711 -0.2764  0.0879 -0.3727
 1542TIP3    H1 4571   1.651   4.491   2.626  0.5783 -0.6141 -0.7056
 1542TIP3    H2 4572   1.669   4.429   2.763 -0.5757  0.3807 -0.0888
 1543TIP3   OH2 4573   2.706   0.426   0.450  0.5180 -0.3083 -0.5640
 1543TIP3    H1 4574   2.649   0.411   0.374 -0.3591 -1.5946  0.3194
 1543TIP3    H2 4575   2.646   0.456   0.519  1.0860 -0.5476  0.0390
 1544TIP3   OH2 4576  -0.018   6.880   2.135  0.5860 -0.3222 -0.0650
 1544TIP3    H1 4577   0.050   6.939   2.168 -0.0675  0.1020  0.5174
 1544TIP3    H2 4578  -0.020   6.897   2.041 -0.0139  1.0272  0.1747
 1545TIP3   OH2 4579   5.146   6.379   0.684  0.0617 -0.0476  0.1044
 1545TIP3    H1 4580   5.147   6.444   0.755 -1.6344 -2.9208  3.0634
 1545TIP3    H2 4581   5.238   6.369   0.659  0.4186  3.0863 -0.2321
 1546TIP3   OH2 4582   2.106   4.258   5.155  0.7702 -0.2341  0.8869
 1546TIP3    H1 4583   2.143   4.202   5.224  2.3213  0.1460  0.4007
 1546TIP3    H2 4584   2.142   4.345   5.173 -0.9798  0.4742  1.1665
 1547TIP3   OH2 4585   8.095   3.601   3.216  0.0133 -0.1050 -0.2063
 1547TIP3    H1 4586   8.016   3.588   3.164 -0.3809  3.2984 -0.7452
 1547TIP3    H2 4587   8.063   3.629   3.302  0.6208 -0.2000  0.0576
 1548TIP3   OH2 4588   7.288   3.690   4.402 -0.0400  0.5093  0.3762
 1548TIP3    H1 4589   7.304   3.773   4.448  3.1686 -0.4141  1.2069
 1548TIP3    H2 4590   7.374   3.647   4.400 -0.3638 -0.5533 -4.6174
 1549TIP3   OH2 4591   7.030   3.457   3.588 -0.3834 -0.6199  0.5651
 1549TIP3    H1 4592   6.961   3.418   3.642  0.5066 -1.2595  1.2709
 1549TIP3    H2 4593   7.010   3.550   3.586 -1.9033 -0.9276 -0.1930
 1550TIP3   OH2 4594   0.761   7.512   3.678  0.1081 -0.0397  0.2834
 1550TIP3    H1 4595   0.760   7.436   3.619  1.2001 -0.3589  0.6637
 1550TIP3    H2 4596   0.691   7.494   3.741  0.9512 -1.2147  0.9378
 1551TIP3   OH2 4597   7.600   5.541   3.979  0.1855  0.8141 -0.2817
 1551TIP3    H1 4598   7.569   5.536   3.889 -0.1062 -1.4242 -0.1182
 1551TIP3    H2 4599   7.695   5.531   3.972  0.2641  1.5514 -0.3762
 1552TIP3   OH2 4600   2.612   6.243   0.276  0.2639  0.2677 -0.2753
 1552TIP3    H1 4601   2.533   6.222   0.226  0.5742  0.3589 -0.8132
 1552TIP3    H2 4602   2.580   6.266   0.363 -0.4692  2.1145 -0.9877
 1553TIP3   OH2 4603   4.518   1.998   3.428 -0.3399  0.3069 -0.2138
 1553TIP3    H1 4604   4.447   2.063   3.427 -1.8467 -1.2661 -0.6477
 1553TIP3    H2 4605   4.584   2.036   3.486 -1.3828  1.9808 -0.0396
 1554TIP3   OH2 4606   3.690   4.197   2.377  0.5031 -0.0505 -0.0125
 1554TIP3    H1 4607   3.610   4.178   2.328  1.0282 -1.4503 -0.3743
 1554TIP3    H2 4608   3.720   4.112   2.409  2.3233  0.2992 -0.6553
 1555TIP3   OH2 4609   4.150   3.988   5.610  0.0872 -0.4196  0.1351
 1555TIP3    H1 4610   4.176   3.907   5.565  0.5889  0.3715 -1.0555
 1555TIP3    H2 4611   4.115   4.044   5.540  0.2551  0.5982  0.8425
 1556TIP3   OH2 4612   2.609   0.189   3.995 -0.1523 -0.1062  0.6104
 1556TIP3    H1 4613   2.596   0.231   4.080  0.5748  2.7504 -0.5775
 1556TIP3    H2 4614   2.524   0.195   3.952 -0.8171 -2.5047  1.4236
 1557TIP3   OH2 4615   5.984   1.502   2.585 -0.4188 -0.5125 -0.0598
 1557TIP3    H1 4616   6.067   1.525   2.627 -0.8615  0.2373  0.4230
 1557TIP3    H2 4617   5.944   1.586   2.563 -1.0310 -0.8711 -0.3335
 1558TIP3   OH2 4618   6.920   4.863   3.857  0.2170  0.0377  0.5218
 1558TIP3    H1 4619   6.911   4.808   3.779  0.0898 -0.5031  0.9112
 1558TIP3    H2 4620   6.914   4.953   3.824 -0.9798 -0.1985  0.0459
 1559TIP3   OH2 4621   5.663   6.919   6.421  0.2280 -0.0364  0.1640
 1559TIP3    H1 4622   5.633   6.829   6.433  1.2538 -0.2868  0.9479
 1559TIP3    H2 4623   5.759   6.914   6.423  0.3038  1.1043  0.5238
 1560TIP3   OH2 4624   0.740   0.242   4.882  0.0330  0.0294 -0.3093
 1560TIP3    H1 4625   0.715   0.248   4.974  2.2363  0.2750  0.3409
 1560TIP3    H2 4626   0.806   0.173   4.879  1.0370  0.9773 -1.4122
 1561TIP3   OH2 4627   1.055   7.305   3.371 -0.7098 -0.4349  0.3353
 1561TIP3    H1 4628   1.084   7.349   3.451 -1.2958  1.7595 -0.6002
 1561TIP3    H2 4629   1.103   7.222   3.371 -1.0659 -0.7526  3.1847
 1562TIP3   OH2 4630   3.226   3.352   1.135  0.3044 -0.0782  0.1166
 1562TIP3    H1 4631   3.131   3.356   1.145  0.0349 -0.4183 -1.8019
 1562TIP3    H2 4632   3.244   3.259   1.118  0.8239  0.1586 -0.6678
 1563TIP3   OH2 4633   2.567   2.815   1.119  0.1906 -0.4255  0.3313
 1563TIP3    H1 4634   2.575   2.908   1.097 -0.1717 -0.4956 -0.1301
 1563TIP3    H2 4635   2.632   2.800   1.187  1.5845 -0.2360 -0.8913
 1564TIP3   OH2 4636   1.833   1.677   2.962  0.0145 -0.4236 -0.6088
 1564TIP3    H1 4637   1.900   1.729   2.917  0.9222 -0.1276  1.0126
 1564TIP3    H2 4638   1.865   1.587   2.957  0.2218 -0.3633 -0.3827
 1565TIP3   OH2 4639   3.318   5.432   2.937 -0.0340  0.1577  0.0688
 1565TIP3    H1 4640   3.256   5.374   2.981  0.7145 -0.4475  0.3495
 1565TIP3    H2 4641   3.270   5.514   2.926 -0.2653  0.3376  1.9945
 1566TIP3   OH2 4642   1.333   4.376   4.809  0.9883 -0.1254  0.4743
 1566TIP3    H1 4643   1.329   4.468   4.784  2.0000 -0.1987  0.0046
 1566TIP3    H2 4644   1.249   4.340   4.781  1.1446  0.3379 -0.6108
 1567TIP3   OH2 4645   4.196   0.888   3.211 -0.4771 -0.6098  0.6088
 1567TIP3    H1 4646   4.173   0.831   3.284 -3.0074 -1.1782 -0.5164
 1567TIP3    H2 4647   4.123   0.880   3.150  0.7020  1.2041 -1.1957
 1568TIP3   OH2 4648   1.951   4.299   3.036  0.2822  0.2557  0.4734
 1568TIP3    H1 4649   1.948   4.334   2.947  3.8277 -0.8742 -0.2536
 1568TIP3    H2 4650   2.023   4.347   3.077 -0.5272 -0.0873  2.3778
 1569TIP3   OH2 4651   0.284   7.174   3.091 -0.2363  0.4185 -0.4254
 1569TIP3    H1 4652   0.287   7.125   3.009  0.4133  1.7731 -1.2426
 1569TIP3    H2 4653   0.193   7.167   3.119 -0.2206 -1.0142 -0.6371
 1570TIP3   OH2 4654   6.647   6.150   5.417 -0.3134 -0.4196 -0.2266
 1570TIP3    H1 4655   6.601   6.066   5.424 -1.0396 -0.0747 -0.7465
 1570TIP3    H2 4656   6.585   6.207   5.371  0.7107 -0.0019 -1.1262
 1571TIP3   OH2 4657   1.922   5.296   1.520 -0.2263  0.2478  0.0741
 1571TIP3    H1 4658   1.921   5.379   1.472 -0.3942  1.3328  1.8592
 1571TIP3    H2 4659   1.842   5.251   1.492  0.4840  0.1095 -1.8264
 1572TIP3   OH2 4660   2.657   3.499   0.874  1.0707 -0.5636  0.4044
 1572TIP3    H1 4661   2.586   3.561   0.895  0.4549 -0.9918 -0.3566
 1572TIP3    H2 4662   2.643   3.426   0.934  0.1561 -1.1595 -0.5006
 1573TIP3   OH2 4663   7.634   4.485   6.253 -0.0693 -0.0209 -0.1319
 1573TIP3    H1 4664   7.701   4.549   6.230 -0.7530  0.4753 -0.7878
 1573TIP3    H2 4665   7.651   4.463   6.345  0.2565  0.9903  0.0537
 1574TIP3   OH2 4666   6.717   7.231   4.940 -0.1034 -0.0825  0.0182
 1574TIP3    H1 4667   6.727   7.206   5.032 -0.4844 -1.3073 -0.2549
 1574TIP3    H2 4668   6.807   7.237   4.908  0.0006 -1.4573  0.0193
 1575TIP3   OH2 4669   3.514   2.639   2.647 -0.5966 -0.2189 -0.5112
 1575TIP3    H1 4670   3.581   2.572   2.660 -0.1739  0.4123  0.8957
 1575TIP3    H2 4671   3.562   2.722   2.655 -1.7739  0.3166  2.8249
 1576TIP3   OH2 4672   3.742   4.554   3.052 -0.2565  0.3353 -0.4287
 1576TIP3    H1 4673   3.764   4.646   3.068 -2.3204  0.7516  0.2762
 1576TIP3    H2 4674   3.692   4.555   2.970 -2.3510  0.2324  0.7832
 1577TIP3   OH2 4675   4.098   6.847   1.891 -0.3362  0.1143  0.1968
 1577TIP3    H1 4676   4.129   6.770   1.939  0.6741  1.1036  1.2027
 1577TIP3    H2 4677   4.149   6.919   1.927 -0.3287  1.0701 -1.6361
 1578TIP3   OH2 4678   5.106   1.885   3.765  0.3359 -0.5417  0.3292
 1578TIP3    H1 4679   5.043   1.952   3.789  1.0786  0.5205 -0.6071
 1578TIP3    H2 4680   5.157   1.870   3.846  1.1964  1.1958  0.1561
 1579TIP3   OH2 4681   5.701   3.416   6.151  0.7984  0.4571  0.3274
 1579TIP3    H1 4682   5.686   3.485   6.216  0.3262  0.4508  0.2333
 1579TIP3    H2 4683   5.695   3.334   6.200 -0.1215  0.4276  0.1910
 1580TIP3   OH2 4684   0.476   1.136   0.086  0.3239 -1.0163  0.1551
 1580TIP3    H1 4685   0.565   1.102   0.073  0.4711 -0.5636 -0.0296
 1580TIP3    H2 4686   0.489   1.223   0.124  0.0110 -0.3112 -1.2756
 1581TIP3   OH2 4687   2.056   3.993   5.627  0.6662  0.5673 -0.2294
 1581TIP3    H1 4688   2.148   4.015   5.607  0.4940  1.2825 -0.2748
 1581TIP3    H2 4689   2.020   4.074   5.664 -0.0203  0.3694 -0.4602
 1582TIP3   OH2 4690   6.261   5.703   5.770 -0.2051  0.0467  0.2361
 1582TIP3    H1 4691   6.165   5.700   5.766 -0.1713  0.2707 -1.7019
 1582TIP3    H2 4692   6.289   5.690   5.679  1.6071  0.2590  0.7278
 1583TIP3   OH2 4693   3.168   2.744   5.727  0.1819  0.0856  0.0602
 1583TIP3    H1 4694   3.122   2.819   5.765 -0.5934 -0.3395 -0.0349
 1583TIP3    H2 4695   3.123   2.668   5.762  0.2290 -0.3272 -0.7592
 1584TIP3   OH2 4696   8.067   0.686   1.480 -0.8213  0.2286  0.0145
 1584TIP3    H1 4697   8.104   0.616   1.533 -0.3895 -0.5529 -1.2770
 1584TIP3    H2 4698   8.096   0.767   1.523 -0.7227 -0.3737  1.1096
 1585TIP3   OH2 4699   0.268   6.310   4.530  0.0514  0.0865  0.2362
 1585TIP3    H1 4700   0.182   6.349   4.513  0.5421  0.6642 -1.0188
 1585TIP3    H2 4701   0.249   6.227   4.574 -1.0568  1.1910  1.9171
 1586TIP3   OH2 4702   5.808   0.229   6.336  0.3066 -0.3571  0.0326
 1586TIP3    H1 4703   5.753   0.274   6.400  0.4491  1.4991 -1.0628
 1586TIP3    H2 4704   5.772   0.140   6.331 -0.6512 -0.0869  1.5466
 1587TIP3   OH2 4705   4.959   1.616   6.454  0.2676 -0.5467 -0.7075
 1587TIP3    H1 4706   4.926   1.602   6.365 -1.7765  1.9844 -0.4339
 1587TIP3    H2 4707   5.054   1.625   6.442  0.0036  0.1334 -2.7017
 1588TIP3   OH2 4708   6.653   0.676   2.056  0.4230 -0.1995  0.1465
 1588TIP3    H1 4709   6.664   0.664   2.151 -0.9975  0.0949  0.3757
 1588TIP3    H2 4710   6.650   0.771   2.044  1.0330 -0.2276 -0.2608
 1589TIP3   OH2 4711   3.409   5.998   5.074  0.2921 -0.0980 -0.6932
 1589TIP3    H1 4712   3.371   6.085   5.060  0.9397  0.3943  0.4404
 1589TIP3    H2 4713   3.442   5.972   4.988  2.0317  1.7506 -0.6668
 1590TIP3   OH2 4714   4.579   7.338   0.334 -0.3681 -0.0267  0.1796
 1590TIP3    H1 4715   4.647   7.388   0.289  0.3183 -1.5488 -0.5850
 1590TIP3    H2 4716   4.615   7.320   0.421 -0.3136  0.2053  0.2038
 1591TIP3   OH2 4717   7.741   2.736   3.955  0.2013 -0.1454 -0.0214
 1591TIP3    H1 4718   7.799   2.774   4.020  2.2292 -1.0166 -1.1997
 1591TIP3    H2 4719   7.747   2.641   3.970  1.5046 -0.4411 -1.9970
 1592TIP3   OH2 4720   4.239   4.259   2.947 -0.2514  0.1586  0.1916
 1592TIP3    H1 4721   4.298   4.306   2.887  0.2691 -1.9684 -1.0863
 1592TIP3    H2 4722   4.296   4.230   3.018 -0.3601  0.5314  0.4347
 1593TIP3   OH2 4723   3.149   1.471   1.951 -0.2930  0.1823  0.0356
 1593TIP3    H1 4724   3.178   1.548   2.000  1.3586 -0.5518  0.2906
 1593TIP3    H2 4725   3.229   1.424   1.931 -1.1159 -0.5747 -1.6734
 1594TIP3   OH2 4726   1.934   3.746   1.482  0.0810  0.5175 -0.2470
 1594TIP3    H1 4727   2.003   3.778   1.539  2.4363 -1.5002 -1.7703
 1594TIP3    H2 4728   1.876   3.697   1.540  1.4169  0.0177  0.7021
 1595TIP3   OH2 4729   6.224   1.687   5.299 -0.1855  0.4360  0.5360
 1595TIP3    H1 4730   6.231   1.777   5.266  0.1833  0.9001  1.8413
 1595TIP3    H2 4731   6.286   1.637   5.245  0.5595  1.2179  0.6413
 1596TIP3   OH2 4732   7.146   3.670   6.003  0.2762 -0.0169 -0.2474
 1596TIP3    H1 4733   7.177   3.628   6.082 -0.6050 -1.5347 -0.6763
 1596TIP3    H2 4734   7.215   3.733   5.980  1.2366 -0.6462  0.8586
 1597TIP3   OH2 4735   8.205   1.791   0.337 -0.4787  0.1320  0.1089
 1597TIP3    H1 4736   8.150   1.718   0.308  0.4802 -0.2688 -0.7796
 1597TIP3    H2 4737   8.204   1.853   0.264 -0.8952  0.7995  0.6652
 1598TIP3   OH2 4738   5.151   2.313   5.944  0.0984 -1.0403  0.0302
 1598TIP3    H1 4739   5.241   2.289   5.921  0.2189  0.5279 -1.3031
 1598TIP3    H2 4740   5.115   2.350   5.864 -0.9774  0.5266  1.1784
 1599TIP3   OH2 4741   2.186   0.180   2.114  1.0013 -0.0459 -0.2268
 1599TIP3    H1 4742   2.152   0.204   2.200  1.2962  0.2953 -0.2058
 1599TIP3    H2 4743   2.281   0.175   2.126  1.0751  0.3774 -0.6264
 1600TIP3   OH2 4744   5.636   2.102   1.374  0.1769  0.2023 -0.6643
 1600TIP3    H1 4745   5.679   2.085   1.458  0.5624 -1.0900 -1.1102
 1600TIP3    H2 4746   5.549   2.134   1.398  0.8152  1.3408  0.2257
 1601TIP3   OH2 4747   4.083   6.036   6.354 -0.5472  0.2028  0.2655
 1601TIP3    H1 4748   3.997   6.005   6.381 -0.4177 -0.6223 -0.2337
 1601TIP3    H2 4749   4.145   5.979   6.399 -0.3009 -0.1542 -0.5100
 1602TIP3   OH2 4750   1.753   6.061   0.399 -0.7349  0.4350  0.7762
 1602TIP3    H1 4751   1.805   6.014   0.465 -0.1875  0.9271  0.6995
 1602TIP3    H2 4752   1.766   6.010   0.319 -0.4677  0.4937  0.7830
 1603TIP3   OH2 4753   7.693   2.777   3.659 -0.3239 -0.4124 -0.1016
 1603TIP3    H1 4754   7.748   2.755   3.734 -0.1755  1.6419  0.4511
 1603TIP3    H2 4755   7.616   2.819   3.698  0.0735  1.3151 -1.1179
 1604TIP3   OH2 4756   7.836   2.487   3.617  0.0370  0.3060  0.1452
 1604TIP3    H1 4757   7.930   2.490   3.599 -0.2430  0.2984 -1.5006
 1604TIP3    H2 4758   7.803   2.571   3.585 -0.4935  0.4022  0.9190
 1605TIP3   OH2 4759   1.615   0.098   5.603  0.1877 -0.1392  0.4246
 1605TIP3    H1 4760   1.696   0.073   5.558 -1.0640 -0.1266 -2.0049
 1605TIP3    H2 4761   1.566   0.016   5.611  0.0474  0.0032  1.0925
 1606TIP3   OH2 4762   5.816   7.768   5.945  0.0580  0.0951 -0.0998
 1606TIP3    H1 4763   5.833   7.726   5.860  1.2057 -1.2531  0.7378
 1606TIP3    H2 4764   5.758   7.707   5.990  0.4114  0.2045  0.5141
 1607TIP3   OH2 4765   5.052   3.783   4.120  0.1087  0.7372 -0.0971
 1607TIP3    H1 4766   5.028   3.730   4.044  0.0195  0.7206 -0.0568
 1607TIP3    H2 4767   5.047   3.873   4.089  1.0806  0.6924 -0.4078
 1608TIP3   OH2 4768   4.061   0.474   0.738 -0.1596  0.4284  1.1595
 1608TIP3    H1 4769   4.027   0.503   0.823 -0.7814 -1.1936  1.4937
 1608TIP3    H2 4770   4.069   0.379   0.746 -0.0468  0.2630 -0.5416
 1609TIP3   OH2 4771   0.057   5.881   1.629 -0.7474 -0.3529 -0.5898
 1609TIP3    H1 4772   0.099   5.820   1.689 -0.2109 -0.0827 -0.6878
 1609TIP3    H2 4773   0.073   5.844   1.542 -0.6770 -0.2259 -0.6308
 1610TIP3   OH2 4774   0.902   6.411   2.038 -0.1534 -0.4457  0.2761
 1610TIP3    H1 4775   0.820   6.377   2.073 -2.2929  1.6809 -2.2614
 1610TIP3    H2 4776   0.926   6.483   2.097 -0.0028 -1.1350  1.0767
 1611TIP3   OH2 4777   7.648   6.665   4.100 -1.0344 -0.3089 -0.2280
 1611TIP3    H1 4778   7.719   6.604   4.081 -1.4126 -2.0993  3.2403
 1611TIP3    H2 4779   7.691   6.743   4.135 -0.6747  0.0991 -1.5492
 1612TIP3   OH2 4780   5.898   7.726   3.951 -0.7245 -0.0315  0.1025
 1612TIP3    H1 4781   5.953   7.671   3.894  0.7812  2.5152 -1.0581
 1612TIP3    H2 4782   5.956   7.750   4.024 -0.9089  1.0622 -0.1000
 1613TIP3   OH2 4783   7.402   6.683   6.365  0.4968  0.1654  0.1333
 1613TIP3    H1 4784   7.466   6.745   6.400  0.7451 -0.5022  0.8801
 1613TIP3    H2 4785   7.433   6.597   6.393  0.1136 -0.3046 -0.8231
 1614TIP3   OH2 4786   4.606   6.123   1.408  0.1560  0.2268 -0.2679
 1614TIP3    H1 4787   4.661   6.185   1.455  0.1807 -0.8586  1.2059
 1614TIP3    H2 4788   4.667   6.073   1.354  0.5318 -0.4460  0.7594
 1615TIP3   OH2 4789   2.009   6.281   4.178  0.0200  0.2936  0.7041
 1615TIP3    H1 4790   2.063   6.209   4.146  0.7461  0.1856  2.1025
 1615TIP3    H2 4791   1.919   6.252   4.164  0.3106 -0.3987  0.2325
 1616TIP3   OH2 4792   6.532   0.297   6.781  0.4618  0.8034  0.8820
 1616TIP3    H1 4793   6.438   0.283   6.768  0.3229  2.1090  0.2906
 1616TIP3    H2 4794   6.559   0.349   6.704  1.5619  0.8499  1.2836
 1617TIP3   OH2 4795   1.041   2.494   6.450  0.2234  0.7098 -0.2557
 1617TIP3    H1 4796   0.995   2.561   6.399  1.0342  0.9466 -0.6938
 1617TIP3    H2 4797   1.106   2.542   6.500  0.8172  0.2639 -0.5775
 1618TIP3   OH2 4798   2.252   5.491   1.261 -0.0988  0.5090  0.5889
 1618TIP3    H1 4799   2.272   5.578   1.295 -0.0371  0.7081  0.0498
 1618TIP3    H2 4800   2.328   5.469   1.207 -0.7578  0.7370 -0.4580
 1619TIP3   OH2 4801   5.625   3.491   0.502 -0.3043 -0.3581 -0.5431
 1619TIP3    H1 4802   5.592   3.447   0.580  0.5362  1.6239  0.9994
 1619TIP3    H2 4803   5.717   3.463   0.496 -0.7126 -1.5962 -1.6956
 1620TIP3   OH2 4804   5.235   1.307   4.642 -0.5173 -0.0360  0.0228
 1620TIP3    H1 4805   5.224   1.402   4.647 -0.9547 -0.0038 -1.1905
 1620TIP3    H2 4806   5.298   1.294   4.571 -1.5501 -0.6981 -0.8034
 1621TIP3   OH2 4807   0.896   7.030   3.667  0.4962  0.1926 -0.1431
 1621TIP3    H1 4808   0.813   6.996   3.701  0.7146  0.0011  0.2081
 1621TIP3    H2 4809   0.901   6.995   3.578  0.1101  0.3631 -0.2346
 1622TIP3   OH2 4810   7.758   6.961   1.323 -0.0424  0.1942 -0.2324
 1622TIP3    H1 4811   7.672   6.998   1.341 -0.2062 -0.9228  1.4948
 1622TIP3    H2 4812   7.813   6.991   1.394  0.7913  0.2130 -0.8706
 1623TIP3   OH2 4813   0.126   0.941   6.642 -0.0155 -0.4719 -0.2076
 1623TIP3    H1 4814   0.211   0.906   6.671 -1.1054 -2.7732  0.4615
 1623TIP3    H2 4815   0.110   0.897   6.558 -0.9985 -0.8821  0.1840
 1624TIP3   OH2 4816   7.188   6.109   0.311 -0.2171  0.0987 -0.3566
 1624TIP3    H1 4817   7.150   6.182   0.263 -0.1974  0.1251 -0.3318
 1624TIP3    H2 4818   7.247   6.067   0.249  0.6033  0.7505 -0.0336
 1625TIP3   OH2 4819   5.342   0.589   0.747 -0.0640 -0.0132 -0.7390
 1625TIP3    H1 4820   5.380   0.501   0.750 -1.6258 -0.7595 -1.6548
 1625TIP3    H2 4821   5.248   0.574   0.755 -0.2301  1.8075  2.1892
 1626TIP3   OH2 4822   3.869   4.377   0.712  0.0154 -0.2139 -0.0236
 1626TIP3    H1 4823   3.956   4.405   0.686  2.0496 -2.7881  3.1565
 1626TIP3    H2 4824   3.854   4.295   0.663 -0.9383  0.5086 -0.9871
 1627TIP3   OH2 4825   1.366   2.689   6.317  0.4346  0.2599  0.4806
 1627TIP3    H1 4826   1.365   2.596   6.342  0.1165 -0.3834 -1.6905
 1627TIP3    H2 4827   1.298   2.729   6.371 -0.9594 -1.2413 -0.0676
 1628TIP3   OH2 4828   0.628   1.581   0.043 -0.2855  0.5749  0.2488
 1628TIP3    H1 4829   0.642   1.672   0.071 -0.3192  0.4275  0.7458
 1628TIP3    H2 4830   0.712   1.554   0.008 -0.1264  0.6216  0.5961
 1629TIP3   OH2 4831   6.352   7.035   0.144  0.3596  0.0069  0.2067
 1629TIP3    H1 4832   6.331   7.112   0.091 -1.4317  1.2379  2.5107
 1629TIP3    H2 4833   6.307   6.963   0.099  3.0269 -0.0765 -2.6427
 1630TIP3   OH2 4834   2.955   1.306   6.291  0.3247  0.3971  0.2150
 1630TIP3    H1 4835   2.950   1.304   6.387 -0.8981  0.6069  0.1626
 1630TIP3    H2 4836   2.871   1.273   6.261  1.2094 -1.0334 -0.8181
 1631TIP3   OH2 4837   2.192   4.856   5.883 -0.8337 -0.1063  0.3279
 1631TIP3    H1 4838   2.239   4.922   5.934 -0.2228 -0.5922  0.3985
 1631TIP3    H2 4839   2.130   4.907   5.831 -0.4325  0.5200  0.4459
 1632TIP3   OH2 4840   5.024   5.811   4.809  0.2927 -0.4207  0.4888
 1632TIP3    H1 4841   5.064   5.815   4.896  0.8410 -1.1420  0.2697
 1632TIP3    H2 4842   5.081   5.754   4.758 -1.3739 -2.0871  0.3656
 1633TIP3   OH2 4843   4.096   3.962   4.588 -0.4202  0.3475 -0.8490
 1633TIP3    H1 4844   4.049   4.008   4.657 -0.4706  0.4823 -0.9711
 1633TIP3    H2 4845   4.053   3.990   4.507 -2.0044 -1.6747 -0.8123
 1634TIP3   OH2 4846   4.573   1.973   2.313  0.7270  0.1858  0.3235
 1634TIP3    H1 4847   4.658   1.929   2.316  0.6911 -0.2972 -2.8776
 1634TIP3    H2 4848   4.591   2.058   2.272 -0.0651  0.8999  1.4042
 1635TIP3   OH2 4849   2.474   1.104   5.217 -0.0871  0.6219 -0.4746
 1635TIP3    H1 4850   2.546   1.168   5.222 -0.2118  0.7684 -0.5598
 1635TIP3    H2 4851   2.428   1.126   5.136  0.4988 -0.2426 -1.0603
 1636TIP3   OH2 4852   0.180   7.481   3.144 -0.8936  0.3777  0.0625
 1636TIP3    H1 4853   0.153   7.396   3.179 -2.0314  0.3049 -0.9375
 1636TIP3    H2 4854   0.261   7.462   3.096 -1.3579 -0.2407 -0.5009
 1637TIP3   OH2 4855   2.073   1.109   4.434  0.3111  0.4469  0.1125
 1637TIP3    H1 4856   1.980   1.130   4.424  0.3333  0.0266 -1.2660
 1637TIP3    H2 4857   2.080   1.017   4.406  1.2780  0.7684 -0.7668
 1638TIP3   OH2 4858   1.753   0.629   0.515  1.0181 -0.1419 -0.1793
 1638TIP3    H1 4859   1.843   0.656   0.495  0.8673  0.1785 -0.4352
 1638TIP3    H2 4860   1.754   0.608   0.608  1.0586  1.0941  0.1078
 1639TIP3   OH2 4861   3.082   5.565   1.731 -0.1668  0.1152  0.5819
 1639TIP3    H1 4862   3.173   5.536   1.722 -0.2020  0.1834  0.0196
 1639TIP3    H2 4863   3.033   5.485   1.752 -0.0693 -0.0207  0.2901
 1640TIP3   OH2 4864   5.569   2.348   6.151  0.0233 -0.3531  0.0070
 1640TIP3    H1 4865   5.523   2.409   6.094  0.0036 -0.9246 -0.5987
 1640TIP3    H2 4866   5.627   2.299   6.092  2.0686  0.9179  0.8412
 1641TIP3   OH2 4867   6.816   1.982   4.598 -0.1599 -0.1079 -0.1835
 1641TIP3    H1 4868   6.765   1.951   4.673 -0.6347  1.3647  0.1396
 1641TIP3    H2 4869   6.900   2.010   4.635  0.5866 -1.7021 -0.5895
 1642TIP3   OH2 4870   7.807   3.913   0.376  0.2245  0.2766 -0.1298
 1642TIP3    H1 4871   7.885   3.864   0.349  0.0117 -0.1929  0.0954
 1642TIP3    H2 4872   7.824   3.937   0.467  0.1640  0.2876 -0.1215
 1643TIP3   OH2 4873   7.444   5.235   6.348  0.1572 -0.1198  0.5721
 1643TIP3    H1 4874   7.474   5.284   6.425  1.1184  0.7351 -0.3217
 1643TIP3    H2 4875   7.425   5.302   6.283  1.1836 -0.8895 -0.5720
 1644TIP3   OH2 4876   5.620   7.139   5.867  0.0705  0.0723 -0.2921
 1644TIP3    H1 4877   5.705   7.128   5.825 -0.0462 -1.7280 -0.1188
 1644TIP3    H2 4878   5.563   7.175   5.799  1.0853  1.9226 -0.2328
 1645TIP3   OH2 4879   7.917   2.643   0.579  0.7694 -0.3918  0.2045
 1645TIP3    H1 4880   7.892   2.552   0.598  1.3117 -0.4154  0.8323
 1645TIP3    H2 4881   7.880   2.693   0.651  2.8122 -0.4752  1.3778
 1646TIP3   OH2 4882   1.647   0.365   4.353  0.3154  0.3494 -0.3180
 1646TIP3    H1 4883   1.703   0.306   4.302 -0.2430  0.5446 -1.1853
 1646TIP3    H2 4884   1.671   0.453   4.322 -1.4858  0.3774 -1.8372
 1647TIP3   OH2 4885   0.644   1.222   1.314  0.1898  0.2188  0.5978
 1647TIP3    H1 4886   0.697   1.143   1.326 -0.3158 -0.3999 -1.0158
 1647TIP3    H2 4887   0.554   1.193   1.328 -0.0918  0.2412 -0.9225
 1648TIP3   OH2 4888   6.839   0.280   6.141 -0.1138  0.9932  0.2896
 1648TIP3    H1 4889   6.832   0.354   6.080  1.4270  0.2049 -0.9130
 1648TIP3    H2 4890   6.749   0.266   6.171 -1.1695  0.7617 -2.6340
 1649TIP3   OH2 4891   7.428   4.510   1.652  0.1419 -0.0123 -0.1751
 1649TIP3    H1 4892   7.396   4.529   1.564 -1.8446 -1.7215  0.0992
 1649TIP3    H2 4893   7.351   4.481   1.700  1.3364  0.0399  1.9100
 1650TIP3   OH2 4894   0.599   6.527   0.913 -0.0825  0.2199  0.1854
 1650TIP3    H1 4895   0.639   6.563   0.992  3.4745 -1.1793 -0.8063
 1650TIP3    H2 4896   0.514   6.494   0.943  1.3226 -0.7364  3.5857
 1651TIP3   OH2 4897   2.401   3.431   4.885  0.2717 -0.4224  0.2682
 1651TIP3    H1 4898   2.328   3.371   4.868  2.1189 -2.7479 -0.1010
 1651TIP3    H2 4899   2.404   3.488   4.808 -0.3499 -1.1876 -0.3415
 1652TIP3   OH2 4900   2.996   0.724   3.948  0.2188 -0.2181 -0.0472
 1652TIP3    H1 4901   3.084   0.689   3.961  0.0217 -1.1237 -1.0071
 1652TIP3    H2 4902   2.945   0.690   4.022  0.8519  1.0481  1.0178
 1653TIP3   OH2 4903   7.603   6.733   2.220  0.2862  0.0473  0.1073
 1653TIP3    H1 4904   7.547   6.710   2.146  1.0686  0.0390 -0.4909
 1653TIP3    H2 4905   7.652   6.652   2.239  1.1472  0.4641 -0.3108
 1654TIP3   OH2 4906   0.480   7.444   5.665 -0.2038 -0.5963  0.0501
 1654TIP3    H1 4907   0.456   7.524   5.711 -0.5475 -0.5837 -0.1477
 1654TIP3    H2 4908   0.564   7.465   5.622  0.2556 -0.6989  0.8832
 1655TIP3   OH2 4909   1.942   2.312   0.051 -0.1452  0.9103 -0.1186
 1655TIP3    H1 4910   1.898   2.228   0.040  1.7157 -0.1169 -0.0959
 1655TIP3    H2 4911   1.875   2.370   0.086 -1.4943 -0.5297 -0.2211
 1656TIP3   OH2 4912   1.942   7.501   2.066  0.2163  0.5221  0.1149
 1656TIP3    H1 4913   1.894   7.508   2.149  0.4172  1.0671  0.1940
 1656TIP3    H2 4914   1.984   7.416   2.069 -0.3038  0.2661  0.2862
 1657TIP3   OH2 4915   2.716   1.296   5.925 -0.7423  0.2399 -0.1478
 1657TIP3    H1 4916   2.679   1.285   6.013 -2.0642 -0.7530 -0.7954
 1657TIP3    H2 4917   2.762   1.380   5.929 -2.6612  1.3047  0.8526
 1658TIP3   OH2 4918   2.030   2.824   6.115  0.6391  0.0381 -0.7055
 1658TIP3    H1 4919   2.111   2.838   6.164 -0.3906 -1.0667  1.4604
 1658TIP3    H2 4920   1.972   2.895   6.143  0.1406 -0.4236 -0.5509
 1659TIP3   OH2 4921   2.611   7.066   3.349  0.4947  0.0763  0.3464
 1659TIP3    H1 4922   2.532   7.105   3.387  0.4666 -0.9481  1.4069
 1659TIP3    H2 4923   2.661   7.035   3.425  0.1096 -2.6843 -0.4142
 1660TIP3   OH2 4924   4.301   4.199   1.107 -0.3999 -0.1187 -0.6740
 1660TIP3    H1 4925   4.283   4.151   1.187 -0.7539 -0.7320 -1.1082
 1660TIP3    H2 4926   4.396   4.194   1.096 -0.4923 -1.3183 -1.0643
 1661TIP3   OH2 4927   3.812   7.153   0.057  0.0610 -0.0700 -0.5275
 1661TIP3    H1 4928   3.896   7.174   0.097  0.6118 -0.9312 -1.2172
 1661TIP3    H2 4929   3.776   7.238   0.030 -0.5859  0.6405  2.2028
 1662TIP3   OH2 4930   5.427   1.705   1.193  0.3281  0.4456  0.1816
 1662TIP3    H1 4931   5.458   1.615   1.200  0.1536  0.4719  1.5468
 1662TIP3    H2 4932   5.354   1.700   1.130  0.7574 -0.2324 -0.2833
 1663TIP3   OH2 4933   4.632   0.203   3.698 -0.5934  0.1741  0.1732
 1663TIP3    H1 4934   4.590   0.156   3.627  1.3216 -0.1659 -0.7905
 1663TIP3    H2 4935   4.714   0.156   3.713  1.7186  3.3873 -1.2425
 1664TIP3   OH2 4936   3.015   1.263   1.502 -0.1395 -0.6252  0.2638
 1664TIP3    H1 4937   3.052   1.211   1.573 -0.0733 -2.5288 -1.1046
 1664TIP3    H2 4938   2.954   1.204   1.458 -0.3116  0.5477 -1.1524
 1665TIP3   OH2 4939   3.193   0.692   6.749  0.0371  0.8054  0.1973
 1665TIP3    H1 4940   3.153   0.675   6.664  1.2912  3.4849 -1.0608
 1665TIP3    H2 4941   3.138   0.759   6.789 -0.2106 -0.0128  1.2683
 1666TIP3   OH2 4942   6.445   5.636   5.346 -0.1478  0.3804  0.1168
 1666TIP3    H1 4943   6.480   5.713   5.302 -0.0808 -0.3116 -1.0978
 1666TIP3    H2 4944   6.520   5.577   5.352 -0.3626  0.1336  0.3868
 1667TIP3   OH2 4945   0.341   6.589   4.527 -0.7725  0.1958 -0.2546
 1667TIP3    H1 4946   0.352   6.597   4.622 -1.4571 -0.5528 -0.1016
 1667TIP3    H2 4947   0.325   6.496   4.512 -0.7415  0.3193 -1.0977
 1668TIP3   OH2 4948   7.598   1.002   6.732  0.4383  0.0666  0.0576
 1668TIP3    H1 4949   7.547   0.939   6.682  0.4154 -0.3441  0.5803
 1668TIP3    H2 4950   7.543   1.080   6.738 -0.6497 -0.7657  1.6001
 1669TIP3   OH2 4951   2.872   6.966   5.085 -0.3717  0.3859  0.3178
 1669TIP3    H1 4952   2.816   7.036   5.054 -0.7832 -0.6826 -1.5112
 1669TIP3    H2 4953   2.859   6.895   5.022  0.7409 -0.9925  1.5562
 1670TIP3   OH2 4954   3.208   4.054   5.296  0.1599 -0.4552  0.6164
 1670TIP3    H1 4955   3.284   4.082   5.245  0.2517 -0.2252  0.8784
 1670TIP3    H2 4956   3.168   3.985   5.244  0.3863 -0.3785  0.3424
 1671TIP3   OH2 4957   3.092   3.525   0.561  0.2107  0.6320  0.6227
 1671TIP3    H1 4958   3.101   3.549   0.653  0.0117 -0.3774  0.9218
 1671TIP3    H2 4959   3.025   3.457   0.561 -1.7751  2.4714 -0.5939
 1672TIP3   OH2 4960   3.300   7.782   5.340  0.2965  0.1409  0.4676
 1672TIP3    H1 4961   3.332   7.729   5.412 -0.0061 -0.7164 -0.0119
 1672TIP3    H2 4962   3.253   7.854   5.382 -2.5099 -1.9522  1.1869
 1673TIP3   OH2 4963   1.583   0.757   6.592 -0.3149 -0.1400 -0.3280
 1673TIP3    H1 4964   1.651   0.825   6.594 -0.5587  0.1070  1.2985
 1673TIP3    H2 4965   1.629   0.678   6.563  0.3483  0.3491 -0.6371
 1674TIP3   OH2 4966   7.365   5.468   0.094  0.3654  0.7829 -0.2041
 1674TIP3    H1 4967   7.371   5.475  -0.002  1.2319  3.4897 -0.0373
 1674TIP3    H2 4968   7.424   5.396   0.116 -0.8790 -0.8178 -1.7339
 1675TIP3   OH2 4969   8.270   1.578   3.897  0.7069  0.0222 -0.3968
 1675TIP3    H1 4970   8.330   1.505   3.885 -1.3953 -2.0660  0.7503
 1675TIP3    H2 4971   8.282   1.604   3.988 -1.3645 -1.7665  0.4799
 1676TIP3   OH2 4972   7.603   3.386   4.708  0.9641 -0.5068 -0.0568
 1676TIP3    H1 4973   7.648   3.344   4.634 -2.0186 -0.7175 -1.9349
 1676TIP3    H2 4974   7.583   3.474   4.678  1.0282 -0.0620  1.1386
 1677TIP3   OH2 4975   4.983   4.379   2.639  0.4117  0.1274 -0.3316
 1677TIP3    H1 4976   4.896   4.371   2.678  0.8889  0.9342  0.9546
 1677TIP3    H2 4977   5.012   4.289   2.626  0.3679 -0.1895  1.5306
 1678TIP3   OH2 4978   2.051   0.787   0.220  0.0819 -0.9753 -0.0631
 1678TIP3    H1 4979   2.120   0.786   0.287  0.6977 -0.4988 -0.6740
 1678TIP3    H2 4980   2.009   0.701   0.228  0.4599 -1.1078  0.6097
 1679TIP3   OH2 4981   6.580   5.398   2.479  0.1323 -0.1683 -0.6908
 1679TIP3    H1 4982   6.510   5.356   2.530  3.0607 -2.1024  2.0996
 1679TIP3    H2 4983   6.594   5.482   2.522  2.7181 -1.8673  2.1941
 1680TIP3   OH2 4984   2.572   0.145   1.185 -0.2778 -0.4463 -0.0183
 1680TIP3    H1 4985   2.506   0.142   1.254  1.6436 -0.7151  1.9033
 1680TIP3    H2 4986   2.536   0.205   1.120 -3.2456 -2.0086 -0.0147
 1681TIP3   OH2 4987   0.325   1.911   0.098 -0.1135  0.1254 -0.4075
 1681TIP3    H1 4988   0.247   1.965   0.112 -0.2104  0.3099 -1.5669
 1681TIP3    H2 4989   0.297   1.844   0.036  0.4380 -0.3056 -0.1983
 1682TIP3   OH2 4990   6.139   3.994   4.995  0.2427  0.4376 -0.5769
 1682TIP3    H1 4991   6.053   3.970   4.961  1.1035  0.7674 -3.2784
 1682TIP3    H2 4992   6.151   4.085   4.968  1.4322  0.3779 -0.2978
 1683TIP3   OH2 4993   4.899   5.024   0.937 -0.1186 -0.1811  0.0800
 1683TIP3    H1 4994   4.826   4.970   0.906 -0.3630  0.1559  0.0625
 1683TIP3    H2 4995   4.945   4.968   1.000 -1.6701  0.3638  1.7771
 1684TIP3   OH2 4996   1.442   6.481   5.539 -0.8331 -0.1027  0.5394
 1684TIP3    H1 4997   1.517   6.462   5.596  1.7373 -1.2806 -2.8964
 1684TIP3    H2 4998   1.436   6.577   5.540  2.5750  0.2967 -0.9784
 1685TIP3   OH2 4999   3.494   4.347   6.736  0.1520 -0.2497  0.3432
 1685TIP3    H1 5000   3.444   4.418   6.775  0.4508  0.4943 -0.5913
 1685TIP3    H2 5001   3.585   4.374   6.745  0.3233 -0.9246  0.7424
 1686TIP3   OH2 5002   0.490   7.291   1.668 -0.0191 -0.2035  0.2410
 1686TIP3    H1 5003   0.395   7.288   1.657 -0.0933  0.2325  0.7049
 1686TIP3    H2 5004   0.525   7.293   1.579 -0.4283 -0.7109  0.0627
 1687TIP3   OH2 5005   2.149   6.286   3.270 -0.6568 -0.0574 -0.5746
 1687TIP3    H1 5006   2.065   6.286   3.225 -1.6139 -1.2239  1.0885
 1687TIP3    H2 5007   2.164   6.377   3.294 -1.6793  0.1029 -0.4967
 1688TIP3   OH2 5008   5.354   4.996   0.691  0.1309 -0.3140 -0.2417
 1688TIP3    H1 5009   5.413   5.071   0.702  0.0303  0.4147 -3.6751
 1688TIP3    H2 5010   5.274   5.034   0.653 -0.4700 -1.9816 -0.7125
 1689TIP3   OH2 5011   3.726   5.724   6.448  0.3757 -0.2870 -0.4283
 1689TIP3    H1 5012   3.633   5.717   6.471  0.1773  0.3763 -0.9602
 1689TIP3    H2 5013   3.729   5.699   6.355  0.7712 -0.5860 -0.3342
 1690TIP3   OH2 5014   2.710   4.596   5.874  0.3945  0.4755  0.8716
 1690TIP3    H1 5015   2.622   4.562   5.860  0.0289  1.1652  1.4543
 1690TIP3    H2 5016   2.749   4.597   5.786 -0.5752  1.2408  0.4345
 1691TIP3   OH2 5017   3.767   4.934   1.162  0.6717 -0.4044 -0.1458
 1691TIP3    H1 5018   3.766   4.947   1.257 -0.6196  1.3607 -0.3775
 1691TIP3    H2 5019   3.808   4.848   1.151 -0.4035 -1.2789  2.0792
 1692TIP3   OH2 5020   6.465   6.995   1.330 -0.7197 -0.5053 -0.3045
 1692TIP3    H1 5021   6.511   6.911   1.326  0.3813 -0.1008  2.0662
 1692TIP3    H2 5022   6.441   7.014   1.239 -0.7981 -3.2430 -0.9393
 1693TIP3   OH2 5023   0.921   5.105   6.543 -0.5096 -0.3624  0.4382
 1693TIP3    H1 5024   0.979   5.042   6.501 -1.0155 -0.9631  0.6268
 1693TIP3    H2 5025   0.962   5.123   6.628 -0.2552 -0.2782  0.2961
 1694TIP3   OH2 5026   2.259   4.296   2.695  0.1057 -0.2868 -0.2600
 1694TIP3    H1 5027   2.257   4.223   2.633 -2.7026 -1.8065  1.4126
 1694TIP3    H2 5028   2.188   4.353   2.667  2.1001  1.8062 -1.3858
 1695TIP3   OH2 5029   6.055   0.927   0.515 -0.2802  0.1347 -0.0768
 1695TIP3    H1 5030   6.002   0.867   0.462 -0.0496 -0.8115  0.7462
 1695TIP3    H2 5031   6.144   0.893   0.510 -0.0845  0.6057  0.1187
 1696TIP3   OH2 5032   3.284   1.480   6.562  0.1302  0.0300  0.1386
 1696TIP3    H1 5033   3.369   1.439   6.546 -0.5344 -2.2934  2.0303
 1696TIP3    H2 5034   3.257   1.446   6.647 -2.5631  0.9512 -0.2734
 1697TIP3   OH2 5035   0.503   3.511   1.277 -0.0538  0.1132 -0.0686
 1697TIP3    H1 5036   0.436   3.447   1.303 -0.7466  1.2346  0.9772
 1697TIP3    H2 5037   0.546   3.470   1.201 -1.2200 -1.0900 -0.1250
 1698TIP3   OH2 5038   2.838   4.862   5.515 -0.1750  0.0086  0.3759
 1698TIP3    H1 5039   2.806   4.922   5.582 -0.6697  1.8314 -1.4084
 1698TIP3    H2 5040   2.763   4.847   5.457  1.0575  1.1390 -1.6167
 1699TIP3   OH2 5041   6.130   4.306   1.813  0.0663  0.0168  0.0098
 1699TIP3    H1 5042   6.041   4.273   1.817 -0.8502  2.2845 -0.2618
 1699TIP3    H2 5043   6.124   4.396   1.844  2.1705  0.4066 -0.5524
 1700TIP3   OH2 5044   4.089   5.457   4.471 -0.2106  0.0028  0.5054
 1700TIP3    H1 5045   4.168   5.402   4.469 -0.3740 -0.2297 -0.9977
 1700TIP3    H2 5046   4.022   5.401   4.510 -0.4749 -1.0651 -1.3602
 1701TIP3   OH2 5047   6.135   2.867   6.028  0.5423 -0.1217 -0.2349
 1701TIP3    H1 5048   6.208   2.808   6.010 -0.6328 -1.4864 -0.7870
 1701TIP3    H2 5049   6.076   2.856   5.953 -0.0050  1.3205 -0.0521
 1702TIP3   OH2 5050   3.543   0.474   4.014 -0.3330 -0.3517 -0.0277
 1702TIP3    H1 5051   3.547   0.382   3.986 -0.2517  0.2394 -2.1730
 1702TIP3    H2 5052   3.479   0.475   4.085 -1.1351 -1.9222 -0.6754
 1703TIP3   OH2 5053   1.619   3.970   1.210 -0.9454 -0.0450 -0.8873
 1703TIP3    H1 5054   1.684   3.937   1.148  0.3575 -0.3034  0.5394
 1703TIP3    H2 5055   1.634   4.064   1.213 -0.8450 -0.0625 -0.8112
 1704TIP3   OH2 5056   1.609   2.480   3.511 -0.4071  0.4270 -0.1348
 1704TIP3    H1 5057   1.678   2.449   3.570  0.5275 -0.0911 -1.4696
 1704TIP3    H2 5058   1.654   2.499   3.429 -1.1486  3.9062  0.0859
 1705TIP3   OH2 5059   2.915   5.397   1.876  0.1719  0.0141  0.2419
 1705TIP3    H1 5060   2.853   5.368   1.809  0.9254 -3.0513  0.7281
 1705TIP3    H2 5061   2.907   5.333   1.947  1.0025  1.8712  2.1462
 1706TIP3   OH2 5062   2.876   0.675   0.845  0.1045  0.2549  0.1508
 1706TIP3    H1 5063   2.898   0.733   0.918  0.3522 -1.6805  1.6956
 1706TIP3    H2 5064   2.943   0.607   0.846  0.7471  0.7069 -2.6101
 1707TIP3   OH2 5065   3.574   5.189   4.607 -0.3673 -0.5338 -0.6411
 1707TIP3    H1 5066   3.608   5.137   4.681  1.9242  0.0415 -1.2101
 1707TIP3    H2 5067   3.616   5.151   4.530 -0.2107  0.8928 -1.2883
 1708TIP3   OH2 5068   7.841   0.922   6.817  0.3075  0.0941  0.0295
 1708TIP3    H1 5069   7.761   0.960   6.780 -0.0892 -0.5058  0.2576
 1708TIP3    H2 5070   7.881   0.875   6.744  0.5639  0.5669 -0.1381
 1709TIP3   OH2 5071   3.798   7.646   6.141 -0.0009  0.0379  0.5677
 1709TIP3    H1 5072   3.874   7.664   6.085 -0.4390  0.9480  0.2339
 1709TIP3    H2 5073   3.835   7.631   6.228  0.5081  1.7931  0.6987
 1710TIP3   OH2 5074   7.181   6.910   4.733  0.1918 -0.0970 -0.2055
 1710TIP3    H1 5075   7.261   6.953   4.702 -0.0440  1.5254  1.3001
 1710TIP3    H2 5076   7.207   6.819   4.747  2.3184  0.7256  1.8769
 1711TIP3   OH2 5077   4.593   1.889   6.699  0.5888 -0.2253  0.2934
 1711TIP3    H1 5078   4.670   1.836   6.717 -0.4444 -1.9532 -0.2234
 1711TIP3    H2 5079   4.553   1.849   6.622 -0.9347  0.5191  0.6587
 1712TIP3   OH2 5080   7.587   1.965   5.922 -0.3848  0.2802  0.0761
 1712TIP3    H1 5081   7.576   2.059   5.940 -0.4897  0.3913 -0.5545
 1712TIP3    H2 5082   7.500   1.936   5.896 -0.5429 -0.1814  1.0924
 1713TIP3   OH2 5083   5.973   6.575   3.474  0.1429  0.0077 -0.0810
 1713TIP3    H1 5084   6.021   6.569   3.392  0.1196  1.4432 -0.2193
 1713TIP3    H2 5085   5.906   6.507   3.467  1.4540 -1.3091 -0.3253
 1714TIP3   OH2 5086   1.759   3.389   0.503  0.5856  0.1337  0.2120
 1714TIP3    H1 5087   1.685   3.445   0.524 -0.2994 -1.9425  3.2342
 1714TIP3    H2 5088   1.745   3.363   0.412 -2.5441 -0.3258  0.7250
 1715TIP3   OH2 5089   4.350   7.354   2.821 -0.5149 -0.1292 -0.0286
 1715TIP3    H1 5090   4.369   7.421   2.756  1.8057 -1.1884 -0.5284
 1715TIP3    H2 5091   4.418   7.365   2.887 -1.0711 -0.9757  0.7032
 1716TIP3   OH2 5092   6.462   2.052   5.304  0.1371 -0.3482 -0.0071
 1716TIP3    H1 5093   6.382   2.027   5.257  1.5386 -2.9765 -1.2189
 1716TIP3    H2 5094   6.483   1.976   5.357  1.4722  0.5876  0.8673
 1717TIP3   OH2 5095   6.071   4.836   3.667  0.4292 -0.7079 -0.7886
 1717TIP3    H1 5096   6.104   4.833   3.577 -0.7501  1.2002 -1.3314
 1717TIP3    H2 5097   5.982   4.870   3.659  0.6615  0.5237  1.1778
 1718TIP3   OH2 5098   6.950   7.230   4.317  0.1025 -0.1961  0.1983
 1718TIP3    H1 5099   6.869   7.266   4.353  0.2467  1.9202 -1.4273
 1718TIP3    H2 5100   7.019   7.268   4.371  0.1806  1.1077 -0.7630
 1719TIP3   OH2 5101   7.707   1.652   1.223 -0.5087  0.1768  0.2792
 1719TIP3    H1 5102   7.729   1.735   1.266  0.9180 -0.3240  0.5736
 1719TIP3    H2 5103   7.791   1.617   1.194 -0.9086 -1.7757  1.3074
 1720TIP3   OH2 5104   4.087   2.228   0.944  0.1517 -0.2161  0.3350
 1720TIP3    H1 5105   4.068   2.135   0.934 -0.0233 -0.0679 -0.8496
 1720TIP3    H2 5106   4.130   2.253   0.862  0.5379  0.6682  0.7869
 1721TIP3   OH2 5107   7.372   1.134   2.848  0.4260 -0.2033 -0.4485
 1721TIP3    H1 5108   7.460   1.116   2.881 -0.2337 -0.8352  1.0696
 1721TIP3    H2 5109   7.360   1.228   2.862  0.6598 -0.2160 -0.1396
 1722TIP3   OH2 5110   8.297   5.859   4.368 -0.2406  0.0284  0.2604
 1722TIP3    H1 5111   8.340   5.914   4.302  0.5101 -0.8808 -0.0242
 1722TIP3    H2 5112   8.276   5.920   4.439 -0.5995  0.9261 -0.5866
 1723TIP3   OH2 5113   3.297   1.698   0.466 -0.4912 -0.1791  0.1323
 1723TIP3    H1 5114   3.335   1.786   0.468  0.1324 -0.4246  2.5270
 1723TIP3    H2 5115   3.216   1.707   0.416 -1.0072  2.0375  1.2539
 1724TIP3   OH2 5116   1.046   1.097   4.358  0.2435  0.1073  0.5896
 1724TIP3    H1 5117   0.997   1.159   4.303  0.5736 -1.2536 -1.3203
 1724TIP3    H2 5118   0.996   1.016   4.353  1.4348 -0.6374  0.5483
 1725TIP3   OH2 5119   3.302   2.076   4.776  0.4682  0.1976  0.0620
 1725TIP3    H1 5120   3.293   2.021   4.854  0.4226  0.4392  0.2290
 1725TIP3    H2 5121   3.297   2.166   4.809 -2.5198  0.3520 -0.5087
 1726TIP3   OH2 5122   3.451   4.394   2.095  0.3560  0.1366  0.2800
 1726TIP3    H1 5123   3.459   4.302   2.124  1.3768 -0.0016 -0.4118
 1726TIP3    H2 5124   3.522   4.439   2.140 -0.2790  0.6604  0.7948
 1727TIP3   OH2 5125   4.458   2.712   1.079  0.0157  0.2818 -0.6485
 1727TIP3    H1 5126   4.478   2.722   0.986 -0.5154  2.2550 -0.5981
 1727TIP3    H2 5127   4.379   2.658   1.081  1.1004 -1.4086 -1.1974
 1728TIP3   OH2 5128   0.379   4.297   5.363  0.1374 -0.1397  0.1345
 1728TIP3    H1 5129   0.406   4.209   5.337 -1.3616 -0.5079 -0.3000
 1728TIP3    H2 5130   0.424   4.313   5.446 -0.8348 -2.0161  1.0938
 1729TIP3   OH2 5131   2.023   3.414   6.691 -0.3548  0.5025 -0.2670
 1729TIP3    H1 5132   1.943   3.400   6.641 -0.3551 -0.0184 -0.1315
 1729TIP3    H2 5133   2.092   3.423   6.625 -0.3836  0.0052 -0.3692
 1730TIP3   OH2 5134   4.630   4.423   0.197  0.2214  0.1466 -0.0994
 1730TIP3    H1 5135   4.705   4.371   0.169 -0.2812 -0.0108 -1.1848
 1730TIP3    H2 5136   4.620   4.490   0.130  1.1166  1.9617  1.4834
 1731TIP3   OH2 5137   0.323   1.783   6.205 -0.7588 -0.2939  0.2735
 1731TIP3    H1 5138   0.355   1.869   6.232 -0.4914 -0.1423 -0.5094
 1731TIP3    H2 5139   0.402   1.734   6.180 -0.9608 -0.5745  0.1745
 1732TIP3   OH2 5140   4.890   1.445   6.225  0.2599 -0.4117  0.2139
 1732TIP3    H1 5141   4.800   1.413   6.235  1.3967 -3.7741  1.2033
 1732TIP3    H2 5142   4.900   1.458   6.130 -1.7681  2.0302  0.2417
 1733TIP3   OH2 5143   0.750   0.761   1.018  0.1084  0.1287 -0.0024
 1733TIP3    H1 5144   0.752   0.688   0.956 -0.8110  0.1871 -0.1121
 1733TIP3    H2 5145   0.662   0.759   1.054 -0.2206  1.7224 -0.6629
 1734TIP3   OH2 5146   2.786   0.493   2.337 -0.7589  0.3479  0.1690
 1734TIP3    H1 5147   2.753   0.556   2.402  1.9566  3.4253 -1.1117
 1734TIP3    H2 5148   2.818   0.548   2.266 -0.7983 -2.7450 -2.4609
 1735TIP3   OH2 5149   0.990   7.280   0.695  0.3337 -0.4605 -0.4333
 1735TIP3    H1 5150   0.972   7.189   0.719  1.2564 -0.9200 -1.4154
 1735TIP3    H2 5151   0.924   7.301   0.629 -0.6362 -0.0056  0.6505
 1736TIP3   OH2 5152   7.549   4.939   3.223  0.4011 -0.0412  0.0268
 1736TIP3    H1 5153   7.523   4.941   3.131 -1.3920  1.3555  0.4872
 1736TIP3    H2 5154   7.480   4.888   3.266  0.1654  0.9200  0.8323
 1737TIP3   OH2 5155   2.879   4.727   4.155 -0.5105 -0.0179 -0.6200
 1737TIP3    H1 5156   2.841   4.801   4.203 -0.3084 -1.2596  1.5495
 1737TIP3    H2 5157   2.954   4.765   4.110 -0.7279  1.2220 -0.0052
 1738TIP3   OH2 5158   3.067   7.308   5.972 -0.0037  0.2681  0.2348
 1738TIP3    H1 5159   3.094   7.270   6.055 -2.4932 -1.4341  0.3611
 1738TIP3    H2 5160   3.145   7.352   5.939  0.8710  1.8189  3.8619
 1739TIP3   OH2 5161   4.033   2.397   4.981 -0.2418  0.3289 -0.0843
 1739TIP3    H1 5162   3.955   2.353   5.015  1.3183 -1.5813  1.3066
 1739TIP3    H2 5163   4.031   2.382   4.887 -0.2210 -2.1719  0.2289
 1740TIP3   OH2 5164   4.015   7.077   0.956  0.7243  0.0125  0.0370
 1740TIP3    H1 5165   4.054   7.008   1.010  1.4604 -0.4977 -1.1176
 1740TIP3    H2 5166   3.925   7.047   0.939  1.4099 -1.3145 -1.4873
 1741TIP3   OH2 5167   2.645   4.198   6.331 -0.0174  0.4425  0.4071
 1741TIP3    H1 5168   2.653   4.179   6.237 -1.3186 -2.3790  0.7352
 1741TIP3    H2 5169   2.581   4.268   6.336 -0.6219  0.0073 -0.7984
 1742TIP3   OH2 5170   1.727   6.837   5.788 -0.0088  0.3371  0.3193
 1742TIP3    H1 5171   1.670   6.766   5.818  2.0223 -0.8323  1.7339
 1742TIP3    H2 5172   1.674   6.888   5.727 -1.9978 -1.5892  0.3410
 1743TIP3   OH2 5173   5.928   5.654   0.796 -0.0423  0.3365  0.3215
 1743TIP3    H1 5174   5.963   5.742   0.781  1.1982 -0.0073  1.0645
 1743TIP3    H2 5175   5.994   5.611   0.850  0.5335 -1.8300 -1.9145
 1744TIP3   OH2 5176   3.593   2.609   6.435 -0.2552  0.1723  0.0294
 1744TIP3    H1 5177   3.541   2.632   6.358  0.8852  1.5621 -0.3732
 1744TIP3    H2 5178   3.605   2.514   6.428 -3.0376 -0.3037  0.3894
 1745TIP3   OH2 5179   0.903   6.703   6.671  0.2439  0.4328  0.0611
 1745TIP3    H1 5180   0.811   6.706   6.694  0.2307 -0.6245  0.2301
 1745TIP3    H2 5181   0.932   6.794   6.671 -0.5956  0.7063  0.8218
 1746TIP3   OH2 5182   6.708   2.286   5.653 -0.3423  0.5954 -0.2181
 1746TIP3    H1 5183   6.694   2.201   5.695  1.4234  0.5934  0.4524
 1746TIP3    H2 5184   6.666   2.349   5.711  0.3047  0.3775  0.5168
 1747TIP3   OH2 5185   6.705   5.895   1.349  0.0492 -0.2642  0.3440
 1747TIP3    H1 5186   6.728   5.928   1.262  1.9617  0.7450  1.1900
 1747TIP3    H2 5187   6.614   5.868   1.340 -0.2422  1.1260 -1.6085
 1748TIP3   OH2 5188   8.145   0.155   6.460 -0.0621 -0.6247 -0.1838
 1748TIP3    H1 5189   8.119   0.161   6.552  0.2549  1.0664 -0.1819
 1748TIP3    H2 5190   8.209   0.084   6.458 -0.8436 -1.3875  0.6995
 1749TIP3   OH2 5191   1.418   4.710   5.185 -0.0397  0.0700 -0.3815
 1749TIP3    H1 5192   1.448   4.748   5.102  0.2599 -0.0729 -0.3407
 1749TIP3    H2 5193   1.487   4.648   5.209 -0.0264  0.2535  0.0717
 1750TIP3   OH2 5194   6.970   4.427   5.406 -0.6379  0.0964 -0.3762
 1750TIP3    H1 5195   6.949   4.475   5.326 -1.0938 -0.0836 -0.3690
 1750TIP3    H2 5196   6.907   4.460   5.471 -0.4716  0.0219 -0.1766
 1751TIP3   OH2 5197   2.405   6.937   3.586 -0.6743 -0.7242 -0.0444
 1751TIP3    H1 5198   2.475   6.987   3.629 -0.5667 -1.5701  0.8230
 1751TIP3    H2 5199   2.329   6.949   3.643 -0.5100 -1.9191  0.4627
 1752TIP3   OH2 5200   3.491   3.948   5.754  0.3243  0.0874 -0.2694
 1752TIP3    H1 5201   3.450   4.034   5.740  0.4346  0.4003  1.1702
 1752TIP3    H2 5202   3.559   3.965   5.819  1.4024 -0.8129 -1.1224
 1753TIP3   OH2 5203   6.455   2.334   3.165  0.3711  0.6422  0.3054
 1753TIP3    H1 5204   6.536   2.324   3.114 -0.1806  0.4536 -0.5469
 1753TIP3    H2 5205   6.472   2.408   3.223  0.9675  0.9282 -0.2271
 1754TIP3   OH2 5206   6.855   3.814   2.825 -0.1825 -0.2092  0.0377
 1754TIP3    H1 5207   6.832   3.868   2.901 -1.2752  2.0579 -1.8023
 1754TIP3    H2 5208   6.941   3.848   2.797 -0.1559 -0.4866 -0.2211
 1755TIP3   OH2 5209   3.057   1.371   5.789 -0.4531  0.0534  0.2498
 1755TIP3    H1 5210   3.002   1.432   5.739  0.6315 -0.0522 -1.1087
 1755TIP3    H2 5211   3.146   1.392   5.763  0.2225  0.3293  2.5523
 1756TIP3   OH2 5212   3.542   6.853   5.191 -0.1322 -0.8638 -0.4946
 1756TIP3    H1 5213   3.544   6.849   5.287  3.5222 -0.5291 -0.4398
 1756TIP3    H2 5214   3.541   6.761   5.164  2.3335 -1.1060 -0.0069
 1757TIP3   OH2 5215   4.218   2.693   0.807 -0.3248  0.0504 -0.0258
 1757TIP3    H1 5216   4.166   2.647   0.873  2.1618 -1.9650  0.6363
 1757TIP3    H2 5217   4.308   2.664   0.821  1.1144  3.5051 -1.0073
 1758TIP3   OH2 5218   6.758   4.244   6.571 -0.1324  0.8359  0.0730
 1758TIP3    H1 5219   6.827   4.214   6.512 -0.0090  1.7718 -0.2775
 1758TIP3    H2 5220   6.696   4.290   6.514  0.3744  2.4107  0.7531
 1759TIP3   OH2 5221   4.474   2.410   2.399 -0.2200 -0.4401  0.2147
 1759TIP3    H1 5222   4.469   2.482   2.336 -0.9471 -1.0771 -0.4801
 1759TIP3    H2 5223   4.508   2.336   2.348  0.8518 -0.5205  0.9986
 1760TIP3   OH2 5224   6.681   7.067   6.693 -0.0769  0.1436 -0.0560
 1760TIP3    H1 5225   6.643   7.113   6.618  1.4405  1.4571 -0.0938
 1760TIP3    H2 5226   6.697   7.136   6.757  1.1566 -0.5208  0.3796
 1761TIP3   OH2 5227   6.464   7.177   3.310  0.0652  0.0987  0.1226
 1761TIP3    H1 5228   6.402   7.182   3.237  0.3650 -1.3525 -0.2631
 1761TIP3    H2 5229   6.450   7.090   3.347  0.3524  0.5804  1.4245
 1762TIP3   OH2 5230   0.413   7.570   6.260  0.5316 -0.1436  0.5066
 1762TIP3    H1 5231   0.472   7.592   6.332  2.7783  0.5968 -1.4568
 1762TIP3    H2 5232   0.402   7.475   6.265  1.2868 -0.1932  1.3366
 1763TIP3   OH2 5233   2.799   1.181   3.721  0.2547  0.2975 -0.9101
 1763TIP3    H1 5234   2.841   1.096   3.730 -0.7999 -0.2205 -0.7578
 1763TIP3    H2 5235   2.776   1.186   3.628 -1.1112 -0.2973 -0.6290
 1764TIP3   OH2 5236   1.417   7.507   4.950 -0.6554 -0.2204 -0.0642
 1764TIP3    H1 5237   1.372   7.591   4.939  0.1127  0.2093 -0.0212
 1764TIP3    H2 5238   1.347   7.445   4.970 -1.1178  0.6334  1.1064
 1765TIP3   OH2 5239   6.874   2.417   6.706 -0.0974 -0.7629 -0.0339
 1765TIP3    H1 5240   6.796   2.462   6.674  0.0992  0.5429  1.2212
 1765TIP3    H2 5241   6.881   2.339   6.651 -1.2673  0.0060 -1.3382
 1766TIP3   OH2 5242   1.302   3.629   5.493 -0.0577  0.6029  0.5200
 1766TIP3    H1 5243   1.363   3.702   5.501 -1.2457  1.5057  1.8765
 1766TIP3    H2 5244   1.223   3.667   5.454  0.6087 -0.8312 -2.5137
 1767TIP3   OH2 5245   1.546   4.284   5.603 -0.3710 -0.9348 -0.2775
 1767TIP3    H1 5246   1.472   4.224   5.598 -1.9926  0.9514  0.0144
 1767TIP3    H2 5247   1.537   4.327   5.687  0.5408 -0.0309 -0.6219
 1768TIP3   OH2 5248   3.086   3.087   2.154  0.4080  0.2924 -0.0805
 1768TIP3    H1 5249   3.164   3.036   2.178  0.5866  1.1550  1.3304
 1768TIP3    H2 5250   3.116   3.142   2.082  0.9185  0.1170 -0.0134
 1769TIP3   OH2 5251   4.904   0.275   4.530 -0.1150 -0.0104  0.2570
 1769TIP3    H1 5252   4.941   0.363   4.524  1.0825 -0.5899 -1.3901
 1769TIP3    H2 5253   4.924   0.234   4.446 -2.9319 -0.9981 -0.0559
 1770TIP3   OH2 5254   2.721   4.016   0.193 -0.0206 -0.4597 -0.4634
 1770TIP3    H1 5255   2.790   4.080   0.210 -0.6421  0.0437  0.2630
 1770TIP3    H2 5256   2.765   3.931   0.197  0.8870 -0.0785 -1.8019
 1771TIP3   OH2 5257   6.611   1.314   2.498  0.1165 -0.2056 -0.4309
 1771TIP3    H1 5258   6.620   1.388   2.558 -1.4750  0.0916 -0.5205
 1771TIP3    H2 5259   6.535   1.266   2.530  2.3732 -3.1464  0.9747
 1772TIP3   OH2 5260   1.997   0.387   2.023  0.6788  0.2367  0.3013
 1772TIP3    H1 5261   2.008   0.355   1.933  1.7294  1.4987 -0.0561
 1772TIP3    H2 5262   2.078   0.363   2.067 -0.6175 -2.1899  1.5630
 1773TIP3   OH2 5263   4.567   5.838   3.944  0.2620 -0.1194 -0.1901
 1773TIP3    H1 5264   4.478   5.802   3.942  0.3922 -0.4740 -3.0138
 1773TIP3    H2 5265   4.622   5.769   3.907  1.5525  0.5322  0.4525
 1774TIP3   OH2 5266   7.079   4.433   6.681 -0.2445  0.1679 -0.2073
 1774TIP3    H1 5267   7.077   4.337   6.677 -0.9586  0.1266  0.7532
 1774TIP3    H2 5268   7.021   4.455   6.754  0.7134  1.2841  0.2555
 1775TIP3   OH2 5269   8.065   4.756   2.408 -0.5519 -0.2670 -0.4523
 1775TIP3    H1 5270   8.013   4.688   2.450 -0.1559 -1.5780 -1.9941
 1775TIP3    H2 5271   8.004   4.829   2.397 -1.0306 -0.3998  1.0719
 1776TIP3   OH2 5272   2.227   3.378   0.335 -0.2325 -0.2925 -0.3883
 1776TIP3    H1 5273   2.150   3.435   0.347 -0.2865 -0.5934  0.8527
 1776TIP3    H2 5274   2.300   3.438   0.328 -0.6083  0.0178 -2.0183
 1777TIP3   OH2 5275   6.714   7.154   5.262 -0.2846  0.2773  0.1051
 1777TIP3    H1 5276   6.671   7.239   5.264 -1.4297 -0.2863  1.4685
 1777TIP3    H2 5277   6.802   7.171   5.296  0.1006  1.1826 -1.2619
 1778TIP3   OH2 5278   6.700   1.285   5.761 -0.4047 -0.4304 -0.1710
 1778TIP3    H1 5279   6.605   1.280   5.774 -0.0665 -1.3064  3.0354
 1778TIP3    H2 5280   6.728   1.194   5.756  0.3048 -0.1869 -0.7021
 1779TIP3   OH2 5281   8.175   0.732   4.825 -0.4635  0.0734 -0.1369
 1779TIP3    H1 5282   8.219   0.804   4.780 -1.5167  0.8297  0.0035
 1779TIP3    H2 5283   8.086   0.764   4.841 -0.7139 -0.9493  0.6612
 1780TIP3   OH2 5284   2.673   6.633   6.268 -0.4656  0.7532  0.2020
 1780TIP3    H1 5285   2.681   6.548   6.310  1.1200  0.9253  0.3124
 1780TIP3    H2 5286   2.724   6.625   6.188 -0.2992  1.5954  0.2129
 1781TIP3   OH2 5287   7.062   2.575   3.514  0.4099  0.1153 -0.2729
 1781TIP3    H1 5288   7.052   2.481   3.533  0.2711  0.0252 -0.7849
 1781TIP3    H2 5289   7.011   2.618   3.582  3.9277  0.0412  2.7357
 1782TIP3   OH2 5290   0.116   1.202   3.055  0.4978 -0.4995 -0.5420
 1782TIP3    H1 5291   0.208   1.228   3.050  0.2449  0.4280 -0.6532
 1782TIP3    H2 5292   0.118   1.107   3.061  1.5487 -0.3948  1.7239
 1783TIP3   OH2 5293   4.845   3.565   1.211 -0.8788  0.4027  0.1001
 1783TIP3    H1 5294   4.909   3.497   1.233 -0.9556  0.3566  0.1832
 1783TIP3    H2 5295   4.813   3.541   1.124 -0.2461  0.8316 -0.2606
 1784TIP3   OH2 5296   6.819   5.950   3.253 -0.2176  0.1631  0.1450
 1784TIP3    H1 5297   6.855   5.886   3.315  0.5003 -1.0423 -1.4283
 1784TIP3    H2 5298   6.863   6.032   3.274 -0.5051 -0.0475  1.6500
 1785TIP3   OH2 5299   0.765   7.768   4.075 -0.1895 -0.0220 -0.0103
 1785TIP3    H1 5300   0.831   7.731   4.015  0.4836  0.7562  0.2373
 1785TIP3    H2 5301   0.773   7.715   4.154 -0.5427 -0.5542 -0.3249
 1786TIP3   OH2 5302   7.674   5.438   1.065 -0.1340  0.2082 -0.0218
 1786TIP3    H1 5303   7.676   5.356   1.016 -1.1502 -0.1808  0.5605
 1786TIP3    H2 5304   7.754   5.437   1.118 -0.5625 -0.8347  0.6407
 1787TIP3   OH2 5305   7.446   7.516   6.398  0.1085  0.0815  0.3142
 1787TIP3    H1 5306   7.412   7.436   6.437  0.7639  0.1787  1.1136
 1787TIP3    H2 5307   7.369   7.571   6.383 -0.2300 -0.2773  0.7354
 1788TIP3   OH2 5308   2.220   1.669   2.795  0.7881  0.1695 -0.3170
 1788TIP3    H1 5309   2.166   1.682   2.873  0.9891  1.9760 -0.4352
 1788TIP3    H2 5310   2.238   1.575   2.794 -0.7370 -0.1875  0.7893
 1789TIP3   OH2 5311   5.611   3.454   1.022  0.0715 -0.4626 -0.0763
 1789TIP3    H1 5312   5.638   3.529   1.075 -0.1441 -0.1061 -0.4626
 1789TIP3    H2 5313   5.692   3.423   0.981  0.5804 -1.9018  1.8793
 1790TIP3   OH2 5314   2.195   5.412   4.225  0.2522 -0.3852 -0.1315
 1790TIP3    H1 5315   2.136   5.458   4.165 -1.8244 -1.8259  0.6925
 1790TIP3    H2 5316   2.245   5.482   4.268 -0.9934  0.9087 -0.7282
 1791TIP3   OH2 5317   4.592   0.999   1.163 -0.2471  0.5758  0.0148
 1791TIP3    H1 5318   4.676   1.033   1.193  0.2161 -0.5816  0.1090
 1791TIP3    H2 5319   4.556   1.068   1.107  0.5999  1.2276  0.2548
 1792TIP3   OH2 5320   6.627   6.800   6.543 -0.1924 -0.2646  0.1509
 1792TIP3    H1 5321   6.719   6.797   6.519  0.2056  0.8896  1.4514
 1792TIP3    H2 5322   6.604   6.893   6.542 -0.8453 -0.3777  1.5951
 1793TIP3   OH2 5323   0.989   4.887   2.856  0.0773 -0.1283 -0.0429
 1793TIP3    H1 5324   1.064   4.842   2.896 -1.4278 -2.1287  0.6825
 1793TIP3    H2 5325   1.014   4.898   2.765  1.3479 -0.5877  0.2274
 1794TIP3   OH2 5326   5.940   2.135   3.690  0.2975  0.3399  0.8427
 1794TIP3    H1 5327   6.016   2.088   3.724 -0.7865 -2.3150 -0.1592
 1794TIP3    H2 5328   5.874   2.128   3.759 -0.3072 -0.8644  0.1783
 1795TIP3   OH2 5329   6.274   5.321   1.683  1.1288 -0.5058  0.6348
 1795TIP3    H1 5330   6.274   5.322   1.778 -0.9177  0.4628  0.6691
 1795TIP3    H2 5331   6.259   5.230   1.659 -2.5250 -0.2160  1.3641
 1796TIP3   OH2 5332   1.892   1.702   5.705 -0.2138  0.1236 -0.2009
 1796TIP3    H1 5333   1.893   1.609   5.682 -0.6815  0.4397 -1.6311
 1796TIP3    H2 5334   1.960   1.712   5.772 -0.6226 -1.3531  0.4597
 1797TIP3   OH2 5335   7.289   0.209   0.136  0.1057  0.1633 -0.7505
 1797TIP3    H1 5336   7.383   0.191   0.130  0.0259 -0.2344 -0.8573
 1797TIP3    H2 5337   7.282   0.304   0.138  0.5673  0.1911  0.0897
 1798TIP3   OH2 5338   3.370   0.634   3.848  0.0438  0.3033 -0.5038
 1798TIP3    H1 5339   3.336   0.716   3.883 -0.6263  0.2782 -1.0688
 1798TIP3    H2 5340   3.453   0.620   3.895  1.1547  2.2690 -1.7404
 1799TIP3   OH2 5341   1.658   7.490   2.964 -0.8706  0.0728  0.7509
 1799TIP3    H1 5342   1.680   7.530   3.048  1.2884  0.6691 -0.0295
 1799TIP3    H2 5343   1.643   7.564   2.906  1.6270 -0.1757 -0.3237
 1800TIP3   OH2 5344   5.498   5.190   3.418  0.6425  0.0436 -0.1419
 1800TIP3    H1 5345   5.542   5.214   3.500  1.0040  0.4870 -0.4579
 1800TIP3    H2 5346   5.473   5.099   3.430  1.7899 -0.2751 -0.0054
 1801TIP3   OH2 5347   0.395   6.564   4.803 -0.3350  0.3988  0.6318
 1801TIP3    H1 5348   0.319   6.571   4.861 -0.3807  0.1684  0.5995
 1801TIP3    H2 5349   0.470   6.563   4.862 -0.4349 -1.0944  0.7745
 1802TIP3   OH2 5350   1.286   2.384   6.322 -0.1912 -0.2427  0.1432
 1802TIP3    H1 5351   1.193   2.384   6.347 -0.6055 -0.4956 -1.3264
 1802TIP3    H2 5352   1.332   2.354   6.400 -1.6718 -3.9311 -0.2071
 1803TIP3   OH2 5353   7.864   0.614   5.767 -0.2923  0.1467  0.3329
 1803TIP3    H1 5354   7.890   0.555   5.696  1.7211  0.2832  0.8734
 1803TIP3    H2 5355   7.769   0.618   5.763 -0.2499 -0.2530 -2.0112
 1804TIP3   OH2 5356   0.498   5.969   5.080  0.7588 -0.5543  0.0317
 1804TIP3    H1 5357   0.567   5.974   5.014  0.3428  0.7699 -0.3205
 1804TIP3    H2 5358   0.470   6.059   5.093  0.0232 -0.9298  1.1698
 1805TIP3   OH2 5359   7.755   7.753   5.195 -0.5531  0.4567  0.4242
 1805TIP3    H1 5360   7.712   7.708   5.267 -1.4082  0.6148  0.0173
 1805TIP3    H2 5361   7.689   7.812   5.159  0.3407  1.5257  0.4923
 1806TIP3   OH2 5362   1.862   6.333   0.442 -0.0474 -0.2520 -0.3289
 1806TIP3    H1 5363   1.816   6.249   0.432 -1.8924  0.6743 -0.0347
 1806TIP3    H2 5364   1.927   6.316   0.510 -1.5633 -1.0421  1.0273
 1807TIP3   OH2 5365   7.734   7.094   2.321  0.3137 -0.5918  0.3388
 1807TIP3    H1 5366   7.711   7.134   2.237  1.7470 -0.6348 -0.1047
 1807TIP3    H2 5367   7.659   7.111   2.378  0.3734  1.6989 -0.1860
 1808TIP3   OH2 5368   0.516   6.555   0.250  0.2581 -0.8780  0.0082
 1808TIP3    H1 5369   0.566   6.570   0.330  0.6991 -0.5462 -0.3252
 1808TIP3    H2 5370   0.429   6.526   0.280 -0.0354  0.5850  0.6314
 1809TIP3   OH2 5371   4.074   6.883   2.317  0.1066 -0.2566  0.0987
 1809TIP3    H1 5372   4.064   6.920   2.405 -1.4511 -0.6608  0.1169
 1809TIP3    H2 5373   3.992   6.905   2.273 -0.9640 -3.7329  0.1284
 1810TIP3   OH2 5374   1.686   1.142   1.842 -0.1777 -0.2769 -0.2647
 1810TIP3    H1 5375   1.632   1.063   1.852 -2.5429  1.0269 -1.8024
 1810TIP3    H2 5376   1.699   1.150   1.747 -0.2925  1.3475 -0.1741
 1811TIP3   OH2 5377   6.040   7.088   6.206  0.0875  0.0672 -0.6011
 1811TIP3    H1 5378   6.023   7.178   6.179  1.9342  0.2707 -1.2488
 1811TIP3    H2 5379   6.049   7.092   6.301  0.2499  0.5792 -0.6383
 1812TIP3   OH2 5380   4.349   7.660   6.673  0.7436  0.4145  0.1795
 1812TIP3    H1 5381   4.350   7.756   6.678 -0.2639  0.4543 -0.0833
 1812TIP3    H2 5382   4.258   7.636   6.693  0.7452 -0.4237 -0.7125
 1813TIP3   OH2 5383   3.650   3.092   1.660  0.5047  0.7681  0.1200
 1813TIP3    H1 5384   3.677   3.002   1.644 -0.7587  0.0406  1.8574
 1813TIP3    H2 5385   3.676   3.139   1.580  1.9903 -0.9177 -0.4535
 1814TIP3   OH2 5386   4.241   3.184   3.082 -0.1173 -0.2924 -0.2651
 1814TIP3    H1 5387   4.173   3.251   3.077 -1.2074 -1.4150 -1.6077
 1814TIP3    H2 5388   4.316   3.222   3.037 -0.4776  0.2817 -0.3870
 1815TIP3   OH2 5389   6.872   3.075   0.103 -0.2099 -0.2181  0.2332
 1815TIP3    H1 5390   6.937   3.127   0.150 -1.7617  1.7003  0.4019
 1815TIP3    H2 5391   6.817   3.038   0.172  0.1114 -1.0132  0.0649
 1816TIP3   OH2 5392   6.174   3.519   4.683 -0.9461  0.2284 -0.7956
 1816TIP3    H1 5393   6.182   3.439   4.736 -0.7070  1.6484  1.4117
 1816TIP3    H2 5394   6.264   3.542   4.661 -0.8802  0.8860  0.1426
 1817TIP3   OH2 5395   0.687   3.181   2.732 -0.0135 -0.1808 -0.1351
 1817TIP3    H1 5396   0.668   3.233   2.654  2.1375 -0.0979 -0.6885
 1817TIP3    H2 5397   0.740   3.240   2.787 -2.7406  0.3112  2.1873
 1818TIP3   OH2 5398   3.277   7.483   1.508 -0.1213 -0.1432 -0.1176
 1818TIP3    H1 5399   3.360   7.480   1.460  0.0938  0.9447  0.1551
 1818TIP3    H2 5400   3.302   7.505   1.597 -0.7687  1.2449 -0.2569
 1819TIP3   OH2 5401   5.601   0.175   4.123 -0.7014 -0.4769  0.3673
 1819TIP3    H1 5402   5.523   0.121   4.117 -0.5528 -0.6780  0.2393
 1819TIP3    H2 5403   5.667   0.129   4.071 -0.7178  0.0741 -0.1619
 1820TIP3   OH2 5404   4.297   6.763   2.682  0.5336  0.1652 -0.1273
 1820TIP3    H1 5405   4.244   6.828   2.635 -1.3432 -1.7010 -0.7453
 1820TIP3    H2 5406   4.383   6.769   2.642  0.0678  1.3970 -1.0266
 1821TIP3   OH2 5407   5.276   4.512   5.828  0.2570 -0.4460 -0.5463
 1821TIP3    H1 5408   5.277   4.430   5.877 -0.1884 -0.1908 -0.1022
 1821TIP3    H2 5409   5.365   4.521   5.794 -0.2216 -2.2603 -2.5432
 1822TIP3   OH2 5410   7.500   7.067   6.578 -0.4033  0.1012 -0.2269
 1822TIP3    H1 5411   7.442   7.039   6.649 -1.8749 -0.6702 -1.6768
 1822TIP3    H2 5412   7.582   7.022   6.596 -0.9183 -0.5021  0.7024
 1823TIP3   OH2 5413   3.284   5.675   2.679 -0.2424  0.0252  0.0372
 1823TIP3    H1 5414   3.194   5.668   2.648  0.1451 -3.9101 -0.6809
 1823TIP3    H2 5415   3.337   5.676   2.599  0.4628  1.3201  0.4750
 1824TIP3   OH2 5416   2.043   2.342   4.018 -0.1906 -0.3000 -0.3203
 1824TIP3    H1 5417   2.087   2.272   3.970 -0.7094 -0.3276 -0.7692
 1824TIP3    H2 5418   2.097   2.357   4.096 -0.4300 -1.6702  0.1325
 1825TIP3   OH2 5419   2.516   4.236   1.495  0.1472 -0.4270  0.8068
 1825TIP3    H1 5420   2.420   4.228   1.495  0.0629  0.3764  1.6727
 1825TIP3    H2 5421   2.547   4.150   1.525 -0.2085 -1.2740 -1.1251
 1826TIP3   OH2 5422   0.447   4.771   6.473  0.1381 -0.0359 -0.0018
 1826TIP3    H1 5423   0.418   4.862   6.472 -1.0441 -0.3845  0.7810
 1826TIP3    H2 5424   0.514   4.766   6.404  0.9598  1.6350  0.6308
 1827TIP3   OH2 5425   3.453   6.737   3.989 -0.4132  0.0851  0.0900
 1827TIP3    H1 5426   3.386   6.802   3.968  1.2006  1.6634 -0.3904
 1827TIP3    H2 5427   3.505   6.729   3.909 -0.1042 -1.2452  0.3974
 1828TIP3   OH2 5428   7.292   6.349   3.107  0.5069 -0.3827 -0.3889
 1828TIP3    H1 5429   7.227   6.400   3.059 -2.1866 -1.9660  1.3020
 1828TIP3    H2 5430   7.358   6.326   3.042 -1.1716  0.4336 -2.4843
 1829TIP3   OH2 5431   4.970   5.076   5.131 -0.2065  0.0846  0.2165
 1829TIP3    H1 5432   4.992   5.167   5.148  0.2838 -0.1868  1.0769
 1829TIP3    H2 5433   5.049   5.038   5.093  0.3978 -0.5384  2.0016
 1830TIP3   OH2 5434   0.932   4.208   0.649  0.1507  0.3701  0.1234
 1830TIP3    H1 5435   0.839   4.200   0.671  0.2423 -0.5376  0.2318
 1830TIP3    H2 5436   0.933   4.257   0.566 -0.4588 -0.0984 -0.1663
 1831TIP3   OH2 5437   1.312   0.862   1.442 -0.2036 -0.0653  0.3461
 1831TIP3    H1 5438   1.317   0.767   1.430  2.7115  0.0957 -0.4465
 1831TIP3    H2 5439   1.322   0.874   1.537  1.3572 -0.5183  0.2614
 1832TIP3   OH2 5440   8.043   6.733   3.084  0.1016 -0.6907  0.3763
 1832TIP3    H1 5441   8.020   6.641   3.096 -2.1172 -0.0447  1.5807
 1832TIP3    H2 5442   8.016   6.753   2.995 -0.4966 -0.9289  0.4985
 1833TIP3   OH2 5443   0.850   5.058   0.961 -0.8396  0.1861  0.5090
 1833TIP3    H1 5444   0.851   4.983   0.901 -1.6089 -0.7939  1.6833
 1833TIP3    H2 5445   0.766   5.052   1.006  0.1401  0.3050  2.4179
 1834TIP3   OH2 5446   5.854   5.213   0.493 -0.4163  0.1552  0.2628
 1834TIP3    H1 5447   5.929   5.154   0.490 -0.8884 -0.6533  2.3178
 1834TIP3    H2 5448   5.892   5.301   0.488  0.2487 -0.1794 -3.6113
 1835TIP3   OH2 5449   3.665   4.666   5.584 -0.1380 -0.4149 -0.5536
 1835TIP3    H1 5450   3.754   4.635   5.568 -0.6932 -1.0494 -2.7621
 1835TIP3    H2 5451   3.628   4.601   5.644  0.3181 -1.2344 -1.1296
 1836TIP3   OH2 5452   5.089   3.717   0.309  0.5479  0.4829  0.1862
 1836TIP3    H1 5453   5.166   3.691   0.258 -0.0635  2.3356 -1.8633
 1836TIP3    H2 5454   5.109   3.806   0.339 -0.6425  0.8865 -0.1351
 1837TIP3   OH2 5455   1.319   1.674   6.497  0.2147  0.0829 -0.1741
 1837TIP3    H1 5456   1.252   1.693   6.562 -0.4418 -1.0412 -0.4957
 1837TIP3    H2 5457   1.342   1.582   6.513  0.0567 -0.2091 -1.5027
 1838TIP3   OH2 5458   2.394   2.565   4.062 -0.3430  0.2943  0.5146
 1838TIP3    H1 5459   2.385   2.489   4.119 -0.9343  0.9708  1.3568
 1838TIP3    H2 5460   2.395   2.529   3.974 -1.3011 -0.6567  0.8633
 1839TIP3   OH2 5461   4.230   7.448   0.238  0.4669 -0.1152  0.4102
 1839TIP3    H1 5462   4.222   7.476   0.330  0.8558 -1.1880  0.7942
 1839TIP3    H2 5463   4.323   7.456   0.219  0.8048 -2.2197  0.9290
 1840TIP3   OH2 5464   3.361   0.098   1.381 -0.3993  0.4245  0.0856
 1840TIP3    H1 5465   3.439   0.138   1.343 -0.9458  0.4450 -1.0615
 1840TIP3    H2 5466   3.357   0.011   1.341 -0.5446  0.1266  0.7293
 1841TIP3   OH2 5467   7.724   4.364   6.507  0.0748  0.2977  0.0651
 1841TIP3    H1 5468   7.697   4.297   6.570  0.4447 -1.2049 -1.3062
 1841TIP3    H2 5469   7.793   4.413   6.553  0.0455 -0.4721  0.9703
 1842TIP3   OH2 5470   4.772   2.221   4.108 -0.0969 -0.8315  0.0145
 1842TIP3    H1 5471   4.846   2.185   4.060  2.9264  1.1373  2.7372
 1842TIP3    H2 5472   4.772   2.314   4.087 -0.3497 -0.4114  1.6890
 1843TIP3   OH2 5473   8.100   1.951   5.330 -0.2143 -0.5045  0.4265
 1843TIP3    H1 5474   8.091   1.940   5.424  1.7587 -0.9388  0.6131
 1843TIP3    H2 5475   8.109   1.863   5.296  2.4893 -0.2516  0.2999
 1844TIP3   OH2 5476   0.243   2.336   1.261 -0.4690 -0.4503 -0.3852
 1844TIP3    H1 5477   0.213   2.245   1.252  2.8035 -1.8150  0.7546
 1844TIP3    H2 5478   0.313   2.344   1.196 -0.7408  1.3037 -0.4928
 1845TIP3   OH2 5479   0.434   0.933   0.819  0.4096 -0.2378  0.4023
 1845TIP3    H1 5480   0.526   0.919   0.794  0.4202 -0.2571  0.4529
 1845TIP3    H2 5481   0.413   0.858   0.874  0.7290  0.3816  1.3932
 1846TIP3   OH2 5482   6.326   1.562   3.329  0.6727  0.3912 -0.2514
 1846TIP3    H1 5483   6.308   1.656   3.335  2.2789  0.7278 -0.1106
 1846TIP3    H2 5484   6.340   1.535   3.420 -2.2839 -0.5973  0.0233
 1847TIP3   OH2 5485   1.256   6.136   4.635 -0.3790 -0.0483 -0.7441
 1847TIP3    H1 5486   1.209   6.215   4.660 -0.8184 -1.0009  1.7398
 1847TIP3    H2 5487   1.199   6.064   4.662  1.3430 -1.2089  0.0419
 1848TIP3   OH2 5488   3.165   0.782   6.426  0.1566  0.5141  0.0228
 1848TIP3    H1 5489   3.119   0.699   6.436 -0.6431  0.9401 -0.0140
 1848TIP3    H2 5490   3.198   0.780   6.336 -0.6478  0.6071 -0.2888
 1849TIP3   OH2 5491   3.108   5.522   0.312  0.2004  0.0302 -0.5609
 1849TIP3    H1 5492   3.095   5.612   0.281 -1.9494  0.5562  1.5399
 1849TIP3    H2 5493   3.110   5.531   0.408 -0.8890 -2.2344 -0.2761
 1850TIP3   OH2 5494   6.990   4.580   6.292 -0.1239  0.4257  0.2699
 1850TIP3    H1 5495   6.979   4.672   6.315  1.3419  0.5239  0.6554
 1850TIP3    H2 5496   6.978   4.578   6.197  0.6117  1.1671  0.1417
 1851TIP3   OH2 5497   1.959   0.778   0.558 -0.0210 -0.0201 -0.2025
 1851TIP3    H1 5498   1.998   0.864   0.543 -0.3674  0.2265  0.2734
 1851TIP3    H2 5499   1.965   0.766   0.653 -1.6892  0.3172 -0.0219
 1852TIP3   OH2 5500   0.058   7.265   0.203 -0.4355 -0.0247  0.5362
 1852TIP3    H1 5501   0.068   7.229   0.115  1.0266  0.4671  0.4718
 1852TIP3    H2 5502  -0.009   7.211   0.243  0.5543 -1.8097 -0.0967
 1853TIP3   OH2 5503   3.914   3.303   6.134 -0.3969  0.2066 -0.6511
 1853TIP3    H1 5504   3.922   3.398   6.138 -1.5553  0.2766  0.5155
 1853TIP3    H2 5505   3.836   3.283   6.186  0.2232 -1.4388 -0.2989
 1854TIP3   OH2 5506   1.801   3.657   3.205  0.3767  0.4711 -0.0199
 1854TIP3    H1 5507   1.873   3.719   3.195  0.5942  0.5006  1.4588
 1854TIP3    H2 5508   1.824   3.584   3.147  0.7859  1.1741 -0.7641
 1855TIP3   OH2 5509   1.978   3.644   1.077 -0.0244 -0.1733 -0.4668
 1855TIP3    H1 5510   1.946   3.733   1.092 -0.6416 -0.1642 -1.6594
 1855TIP3    H2 5511   1.987   3.606   1.165  1.8566  1.5755  0.1543
 1856TIP3   OH2 5512   8.063   6.384   3.627 -0.1495 -0.7248  0.7536
 1856TIP3    H1 5513   8.019   6.454   3.675  0.1629  0.1117 -0.1317
 1856TIP3    H2 5514   7.993   6.325   3.601 -0.8457  0.7039 -0.8378
 1857TIP3   OH2 5515   0.286   1.353   4.881 -0.5292 -0.1015  0.1705
 1857TIP3    H1 5516   0.380   1.332   4.877 -0.6072 -0.5956  0.7380
 1857TIP3    H2 5517   0.243   1.267   4.876 -0.9996  0.1874 -1.2118
 1858TIP3   OH2 5518   0.653   4.615   6.044  0.0958  0.3390  0.2341
 1858TIP3    H1 5519   0.749   4.610   6.041  0.0783 -4.0368  0.3150
 1858TIP3    H2 5520   0.627   4.642   5.956  1.5147 -4.6709 -2.0740
 1859TIP3   OH2 5521   8.002   4.857   2.776  0.0795  0.5030  0.7829
 1859TIP3    H1 5522   8.039   4.839   2.862  0.2670  1.3652  0.8885
 1859TIP3    H2 5523   7.927   4.798   2.769  0.6295 -0.2577  1.1370
 1860TIP3   OH2 5524   6.862   0.891   5.288 -0.0883  0.0250  0.0629
 1860TIP3    H1 5525   6.931   0.831   5.257 -0.0103 -0.5526  1.2855
 1860TIP3    H2 5526   6.790   0.878   5.226  0.6312  0.1016 -0.8113
 1861TIP3   OH2 5527   5.930   3.890   6.184 -0.2518 -0.4402  0.6436
 1861TIP3    H1 5528   5.856   3.845   6.143 -0.0571 -1.7301  1.6517
 1861TIP3    H2 5529   5.931   3.858   6.274  2.4070 -1.5985  0.2817
 1862TIP3   OH2 5530   1.586   2.876   1.721  0.5783  0.2329  0.6831
 1862TIP3    H1 5531   1.609   2.784   1.730  0.2333 -0.3265 -2.7209
 1862TIP3    H2 5532   1.670   2.921   1.714  0.7351 -0.0113  0.9663
 1863TIP3   OH2 5533   1.949   6.705   2.064  0.2537 -0.2191  0.3315
 1863TIP3    H1 5534   1.964   6.794   2.034  0.1212 -0.0840  0.6695
 1863TIP3    H2 5535   1.978   6.650   1.990 -0.7371  0.1280 -0.3308
 1864TIP3   OH2 5536   4.000   4.146   5.458 -0.2303 -0.5176 -0.5387
 1864TIP3    H1 5537   3.921   4.175   5.504  1.0301  1.3662  0.5736
 1864TIP3    H2 5538   4.012   4.211   5.389  0.8611 -0.2069 -0.0758
 1865TIP3   OH2 5539   2.275   6.404   6.376  0.0966  0.5638  0.1834
 1865TIP3    H1 5540   2.238   6.490   6.394 -0.1318 -0.0849  3.4506
 1865TIP3    H2 5541   2.200   6.347   6.362 -0.3314 -0.2613  4.4413
 1866TIP3   OH2 5542   1.113   2.192   2.348  0.5253 -0.0605 -0.1272
 1866TIP3    H1 5543   1.159   2.198   2.431  1.0203  2.2441 -0.5159
 1866TIP3    H2 5544   1.078   2.279   2.333  0.1086 -0.5259 -2.1578
 1867TIP3   OH2 5545   3.829   5.304   5.568 -0.0162 -0.6094  0.6571
 1867TIP3    H1 5546   3.851   5.248   5.494  1.4530 -1.5461  1.7398
 1867TIP3    H2 5547   3.796   5.385   5.528  1.9412 -0.5781 -1.0403
 1868TIP3   OH2 5548   4.908   0.237   5.666 -0.0211 -0.5330 -0.4612
 1868TIP3    H1 5549   4.851   0.164   5.640 -0.3627 -0.7731  0.8718
 1868TIP3    H2 5550   4.951   0.264   5.585 -1.1462 -1.1256 -1.2818
 1869TIP3   OH2 5551   6.904   7.013   4.165  0.4120 -0.5589  0.3467
 1869TIP3    H1 5552   6.927   7.089   4.218  0.3805 -0.6903  0.5485
 1869TIP3    H2 5553   6.835   7.044   4.107  0.8352 -0.2600 -0.0076
 1870TIP3   OH2 5554   7.605   3.495   6.507  0.4725  0.3665  0.5008
 1870TIP3    H1 5555   7.530   3.476   6.564  1.1355 -0.3236  1.1630
 1870TIP3    H2 5556   7.618   3.589   6.515  1.4254  0.1045  2.6286
 1871TIP3   OH2 5557   5.121   2.293   4.071 -0.0365  0.1526 -0.2499
 1871TIP3    H1 5558   5.121   2.353   4.146  1.5724  1.2621 -1.0759
 1871TIP3    H2 5559   5.056   2.330   4.011 -0.9194 -0.4212  0.3314
 1872TIP3   OH2 5560   2.777   4.524   4.877 -1.0563 -0.0675 -0.6755
 1872TIP3    H1 5561   2.722   4.576   4.935 -1.0232  2.2251 -2.5615
 1872TIP3    H2 5562   2.714   4.480   4.819 -1.0003 -0.7246 -0.2585
 1873TIP3   OH2 5563   6.648   4.724   6.249  0.9060  0.4567 -0.0912
 1873TIP3    H1 5564   6.593   4.692   6.320  1.7114 -2.2199 -0.5557
 1873TIP3    H2 5565   6.713   4.780   6.293 -0.3343  1.2479  0.8219
 1874TIP3   OH2 5566   4.161   4.219   4.962 -0.1169  0.4671  0.3422
 1874TIP3    H1 5567   4.252   4.192   4.977 -0.8330 -1.8857  0.7995
 1874TIP3    H2 5568   4.130   4.249   5.047 -0.6084 -1.5456  0.9145
 1875TIP3   OH2 5569   5.846   4.085   0.030 -0.3292 -0.1842 -0.1658
 1875TIP3    H1 5570   5.878   4.025   0.097  0.9587  0.2220 -0.3901
 1875TIP3    H2 5571   5.912   4.082  -0.039 -1.0913  0.2231 -0.9400
 1876TIP3   OH2 5572   2.254   2.941   2.612 -0.0074 -0.4351 -0.0608
 1876TIP3    H1 5573   2.309   3.015   2.637 -3.3196  3.2393 -2.4832
 1876TIP3    H2 5574   2.209   2.916   2.693 -0.9112  2.2973  0.3996
 1877TIP3   OH2 5575   4.625   3.463   1.902 -0.0291  0.6728 -0.1480
 1877TIP3    H1 5576   4.632   3.368   1.908  2.0090  0.6601 -1.4632
 1877TIP3    H2 5577   4.677   3.496   1.975  0.7875  0.7186 -0.7257
 1878TIP3   OH2 5578   0.375   2.146   4.903 -0.1228  0.4061 -0.4267
 1878TIP3    H1 5579   0.291   2.137   4.859 -0.5377  0.3196  0.3640
 1878TIP3    H2 5580   0.354   2.187   4.987  0.5820  0.1020 -0.0911
 1879TIP3   OH2 5581   0.333   3.224   3.218 -0.0855  0.1782 -0.1563
 1879TIP3    H1 5582   0.379   3.306   3.238  0.5247  0.0092 -0.8036
 1879TIP3    H2 5583   0.241   3.249   3.212 -0.0944  0.5185  1.2195
 1880TIP3   OH2 5584   2.477   5.438   1.727  0.2619  0.3327 -0.4418
 1880TIP3    H1 5585   2.395   5.478   1.699 -0.1089  1.3382  1.8699
 1880TIP3    H2 5586   2.544   5.487   1.680 -0.3432  1.6999  0.0662
 1881TIP3   OH2 5587   8.322   1.858   2.231  0.4322 -0.0502 -0.0123
 1881TIP3    H1 5588   8.262   1.846   2.157 -0.1643  0.8858  0.2938
 1881TIP3    H2 5589   8.332   1.771   2.268  0.3125 -0.4406 -0.8756
 1882TIP3   OH2 5590   2.815   5.590   0.089  0.4255  0.6850 -0.8696
 1882TIP3    H1 5591   2.822   5.677   0.050  1.8968  0.6409 -0.7597
 1882TIP3    H2 5592   2.904   5.569   0.117 -0.2152 -0.1420  0.6771
 1883TIP3   OH2 5593   8.294   6.281   3.738  0.1364 -0.3483  0.1719
 1883TIP3    H1 5594   8.226   6.309   3.676  0.3487 -1.0237 -0.3723
 1883TIP3    H2 5595   8.275   6.330   3.818 -1.1116 -0.6620  0.0853
 1884TIP3   OH2 5596   3.224   6.579   2.585 -0.0567  0.0547  0.1335
 1884TIP3    H1 5597   3.310   6.612   2.611 -0.1479  0.7639 -0.4421
 1884TIP3    H2 5598   3.244   6.512   2.519  0.0108  1.3328 -1.1837
 1885TIP3   OH2 5599   4.549   0.540   2.583 -0.2208  0.3140 -0.2979
 1885TIP3    H1 5600   4.509   0.534   2.497  0.1461  1.4156 -0.5612
 1885TIP3    H2 5601   4.476   0.548   2.644 -0.4673 -0.1179 -0.5348
 1886TIP3   OH2 5602   0.606   1.574   2.187 -0.1164 -0.0009  0.0576
 1886TIP3    H1 5603   0.693   1.572   2.227  0.4799 -0.7006 -1.2042
 1886TIP3    H2 5604   0.553   1.626   2.248  1.3911  1.1727  0.4424
 1887TIP3   OH2 5605   3.744   2.727   1.449 -0.0071 -0.0215 -0.2338
 1887TIP3    H1 5606   3.708   2.645   1.484 -3.8989  0.9102 -1.6474
 1887TIP3    H2 5607   3.755   2.711   1.356 -0.3918  0.9327 -0.4515
 1888TIP3   OH2 5608   8.012   5.222   5.640  0.3358 -0.1995 -0.0696
 1888TIP3    H1 5609   8.022   5.139   5.687 -0.7994 -0.2484  0.1050
 1888TIP3    H2 5610   8.006   5.196   5.548 -0.1816 -0.3222 -0.0006
 1889TIP3   OH2 5611   3.748   7.375   2.869 -0.1379 -0.1301  0.3993
 1889TIP3    H1 5612   3.785   7.406   2.952 -0.1845  0.6066  0.1552
 1889TIP3    H2 5613   3.722   7.456   2.823 -1.5143 -0.5835  0.3229
 1890TIP3   OH2 5614   7.361   7.786   3.135  0.0432 -0.2913  0.3234
 1890TIP3    H1 5615   7.455   7.779   3.117 -0.1779 -1.2721 -0.5409
 1890TIP3    H2 5616   7.343   7.713   3.195  0.0143  0.5179  1.3191
 1891TIP3   OH2 5617   4.882   7.473   1.929  0.0280 -0.6055  0.7354
 1891TIP3    H1 5618   4.910   7.549   1.879 -0.7216 -1.3646 -0.9212
 1891TIP3    H2 5619   4.870   7.505   2.018  0.2244  1.0787  0.1808
 1892TIP3   OH2 5620   3.268   4.850   6.583 -0.2457 -0.4330 -0.2338
 1892TIP3    H1 5621   3.244   4.859   6.491 -2.3581  1.6100  0.4280
 1892TIP3    H2 5622   3.197   4.798   6.620  0.8376 -1.6553  0.2076
 1893TIP3   OH2 5623   7.775   2.994   6.476  0.1274  0.4906  0.8752
 1893TIP3    H1 5624   7.689   2.977   6.439  1.3394  0.0231 -2.0571
 1893TIP3    H2 5625   7.795   2.917   6.529 -0.5413 -0.2502  0.0777
 1894TIP3   OH2 5626   0.503   1.689   2.964  0.7688 -0.2110  0.0858
 1894TIP3    H1 5627   0.488   1.695   3.058  0.0700  1.3105 -0.0944
 1894TIP3    H2 5628   0.581   1.742   2.948  0.0204  0.7963 -0.3604
 1895TIP3   OH2 5629   4.171   2.760   1.306  0.0200  0.0266  0.2692
 1895TIP3    H1 5630   4.233   2.831   1.326 -0.1746  0.7717 -1.5442
 1895TIP3    H2 5631   4.092   2.805   1.276  0.2478 -0.9035 -1.9460
 1896TIP3   OH2 5632   1.557   3.375   3.894  0.0986  0.0784 -0.8901
 1896TIP3    H1 5633   1.467   3.355   3.922 -0.0305  0.8984 -0.6573
 1896TIP3    H2 5634   1.611   3.311   3.940 -0.4252 -0.9511 -1.6641
 1897TIP3   OH2 5635   5.594   7.043   3.555 -0.2765  0.4658  0.5852
 1897TIP3    H1 5636   5.607   6.949   3.550 -1.3393  0.2924  0.6867
 1897TIP3    H2 5637   5.536   7.063   3.481  2.8738  1.6538 -1.7541
 1898TIP3   OH2 5638   7.590   0.301   1.799  0.1671 -0.1559  0.0759
 1898TIP3    H1 5639   7.639   0.324   1.720  2.1476  0.4392  1.4115
 1898TIP3    H2 5640   7.504   0.274   1.767  1.3285 -1.2147 -2.3819
 1899TIP3   OH2 5641   0.084   7.560   6.474 -0.2683 -0.2156 -0.4741
 1899TIP3    H1 5642   0.140   7.636   6.491 -0.9954  0.7886 -2.2802
 1899TIP3    H2 5643   0.006   7.597   6.433 -1.6837 -1.7284  0.7067
 1900TIP3   OH2 5644   0.741   1.681   3.601  0.3192  0.5707  0.1897
 1900TIP3    H1 5645   0.721   1.641   3.686  0.2919 -2.2815 -1.0347
 1900TIP3    H2 5646   0.673   1.748   3.589 -0.4222  0.1712  1.8499
 1901TIP3   OH2 5647   6.237   4.243   6.146  0.6505  0.6067 -0.3495
 1901TIP3    H1 5648   6.294   4.228   6.071  0.3528 -1.5063 -0.2064
 1901TIP3    H2 5649   6.151   4.212   6.117 -0.0637  2.1113  0.0438
 1902TIP3   OH2 5650   1.147   7.114   4.770  0.3170 -0.1519 -0.0539
 1902TIP3    H1 5651   1.118   7.104   4.679 -0.1833 -0.3927  0.1281
 1902TIP3    H2 5652   1.206   7.039   4.784 -0.5316 -0.8009  0.1716
 1903TIP3   OH2 5653   3.056   0.220   1.100 -0.1636  0.1486 -0.0421
 1903TIP3    H1 5654   3.004   0.223   1.180 -1.6494  1.0986 -0.9837
 1903TIP3    H2 5655   3.104   0.138   1.105 -0.9066 -0.2322  1.3953
 1904TIP3   OH2 5656   2.557   2.865   3.612  0.7670  0.2374  0.3483
 1904TIP3    H1 5657   2.520   2.798   3.554  2.6912  0.3403 -1.1260
 1904TIP3    H2 5658   2.586   2.817   3.689 -0.7830 -0.0963  0.7500
 1905TIP3   OH2 5659   2.604   7.144   1.088  0.0418 -0.2510 -0.0547
 1905TIP3    H1 5660   2.651   7.100   1.016  0.5202 -0.5910  0.4544
 1905TIP3    H2 5661   2.529   7.086   1.106 -0.0622 -0.1803 -0.2603
 1906TIP3   OH2 5662   0.413   6.164   1.734  0.1261 -0.3057 -0.4800
 1906TIP3    H1 5663   0.341   6.133   1.678 -1.1528  1.7393 -0.0833
 1906TIP3    H2 5664   0.448   6.240   1.688  0.8306 -0.2004  0.2101
 1907TIP3   OH2 5665   1.693   2.342   6.214  0.7178 -0.5498  0.4386
 1907TIP3    H1 5666   1.665   2.431   6.233  0.3684 -0.7186  0.7214
 1907TIP3    H2 5667   1.614   2.298   6.185  1.3489 -0.0929 -2.2439
 1908TIP3   OH2 5668   3.198   1.749   2.019 -0.1276 -0.0587 -0.6513
 1908TIP3    H1 5669   3.290   1.752   1.993 -0.1421  0.1287 -0.6811
 1908TIP3    H2 5670   3.171   1.841   2.025  0.1954 -0.0605  1.1980
 1909TIP3   OH2 5671   1.059   4.864   4.473 -0.0660 -0.6907  0.0526
 1909TIP3    H1 5672   1.119   4.851   4.546  1.1081 -0.0820 -0.7775
 1909TIP3    H2 5673   0.996   4.929   4.504 -0.0809 -1.0563  0.8028
 1910TIP3   OH2 5674   0.655   1.915   5.361 -0.7880 -0.2031 -0.3521
 1910TIP3    H1 5675   0.663   1.856   5.436 -1.8008  0.9047  0.6551
 1910TIP3    H2 5676   0.573   1.962   5.375 -0.2272  1.1386 -1.3548
 1911TIP3   OH2 5677   3.933   2.453   4.038 -0.2396 -0.6825 -0.1596
 1911TIP3    H1 5678   3.894   2.401   4.108  1.1266  0.1201  1.2700
 1911TIP3    H2 5679   4.007   2.400   4.008 -1.4781 -1.5401 -1.8464
 1912TIP3   OH2 5680   1.341   1.261   3.137  0.8557 -0.2692 -0.0716
 1912TIP3    H1 5681   1.365   1.191   3.197  1.4366  0.7411  0.9077
 1912TIP3    H2 5682   1.388   1.240   3.056  1.1926 -0.8959  0.2774
 1913TIP3   OH2 5683   6.778   0.481   0.409 -0.1838 -0.6371 -0.3654
 1913TIP3    H1 5684   6.695   0.433   0.408 -1.5108  1.5054 -1.3231
 1913TIP3    H2 5685   6.778   0.527   0.493 -0.9475  0.8660 -1.1508
 1914TIP3   OH2 5686   6.130   0.602   6.329  0.0270 -0.0455 -0.1968
 1914TIP3    H1 5687   6.203   0.612   6.268 -0.5841 -3.0413 -1.6208
 1914TIP3    H2 5688   6.117   0.507   6.335 -1.4233  0.2201  2.8767
 1915TIP3   OH2 5689   2.649   6.378   2.211  0.0498 -0.1678 -0.1934
 1915TIP3    H1 5690   2.573   6.323   2.194 -0.9468  1.5899 -1.8374
 1915TIP3    H2 5691   2.721   6.316   2.224 -1.5509 -1.8676  1.0963
 1916TIP3   OH2 5692   0.635   2.706   5.450 -0.0481 -0.7176  0.2219
 1916TIP3    H1 5693   0.572   2.761   5.404 -1.0617 -0.3610  1.9775
 1916TIP3    H2 5694   0.670   2.762   5.519  0.0002 -1.8072  1.1065
 1917TIP3   OH2 5695   7.042   5.071   2.132 -0.2595 -0.5270 -0.0574
 1917TIP3    H1 5696   6.980   5.016   2.084  1.3480 -1.6188 -0.9904
 1917TIP3    H2 5697   7.058   5.146   2.074  1.0965 -1.4626 -0.9499
 1918TIP3   OH2 5698   1.101   3.197   3.554  0.1010 -0.6506  0.2971
 1918TIP3    H1 5699   1.162   3.236   3.616 -0.0115  0.1274 -0.0712
 1918TIP3    H2 5700   1.015   3.233   3.579 -0.0888 -1.1051  0.3080
 1919TIP3   OH2 5701   0.605   5.323   1.673  0.2644 -0.2609 -0.0394
 1919TIP3    H1 5702   0.607   5.289   1.584  3.0170 -2.2418  0.6600
 1919TIP3    H2 5703   0.560   5.407   1.666  0.3509 -0.3795 -3.2513
 1920TIP3   OH2 5704   6.643   6.091   4.602 -0.2274  0.2770 -0.1481
 1920TIP3    H1 5705   6.717   6.119   4.656  0.2423  1.9848 -1.5762
 1920TIP3    H2 5706   6.585   6.168   4.599 -0.6496 -0.0650 -1.3401
 1921TIP3   OH2 5707   1.349   3.142   4.390  0.3056 -0.4150 -0.2674
 1921TIP3    H1 5708   1.347   3.210   4.457 -0.7958  0.2192 -0.9055
 1921TIP3    H2 5709   1.430   3.157   4.342 -0.5037  1.2865 -1.1922
 1922TIP3   OH2 5710   1.009   0.186   4.328 -0.6012  0.0157  0.2934
 1922TIP3    H1 5711   0.979   0.116   4.270 -1.4980 -0.0883  0.8651
 1922TIP3    H2 5712   1.015   0.263   4.272  0.0868 -0.4342 -0.2728
 1923TIP3   OH2 5713   7.207   1.625   6.650  0.4929  0.2754  0.6114
 1923TIP3    H1 5714   7.256   1.698   6.690 -0.0607  0.4268  1.0279
 1923TIP3    H2 5715   7.122   1.663   6.628  0.3573 -0.1360  0.4232
 1924TIP3   OH2 5716   6.837   1.777   4.443 -0.2422  0.2767  0.0040
 1924TIP3    H1 5717   6.932   1.793   4.441  0.0294 -0.8468  2.1682
 1924TIP3    H2 5718   6.802   1.852   4.492 -0.1434 -0.5542  1.3900
 1925TIP3   OH2 5719   3.000   4.627   2.912  0.3865 -0.1600 -0.5444
 1925TIP3    H1 5720   2.974   4.629   2.819 -0.7967 -1.5582 -0.2689
 1925TIP3    H2 5721   3.085   4.582   2.912 -0.0954 -1.1002 -0.8706
 1926TIP3   OH2 5722   5.340   5.311   5.017 -0.2363 -0.5403  0.1571
 1926TIP3    H1 5723   5.251   5.336   4.991 -0.4356 -2.2918 -0.9955
 1926TIP3    H2 5724   5.332   5.287   5.109 -0.4709  1.3524  0.6876
 1927TIP3   OH2 5725   2.994   1.295   3.873 -0.4862 -0.3314  0.4209
 1927TIP3    H1 5726   2.996   1.234   3.947 -3.5806  1.0563  1.8509
 1927TIP3    H2 5727   2.922   1.265   3.819  0.2358  0.0580 -0.7994
 1928TIP3   OH2 5728   4.985   0.216   1.430 -0.0161  0.3726 -0.5358
 1928TIP3    H1 5729   4.947   0.225   1.518 -1.7143 -0.2164 -1.1699
 1928TIP3    H2 5730   5.008   0.124   1.423  1.9478  0.7869 -0.0348
 1929TIP3   OH2 5731   4.702   0.772   2.713  0.4394 -0.3172  0.2507
 1929TIP3    H1 5732   4.777   0.720   2.741  1.3325  0.0647 -1.3111
 1929TIP3    H2 5733   4.657   0.716   2.649  0.9871  0.5057 -0.8826
 1930TIP3   OH2 5734   4.020   7.543   0.843 -0.0042  0.0967  0.2485
 1930TIP3    H1 5735   4.065   7.617   0.802 -1.5053 -0.0517 -1.8702
 1930TIP3    H2 5736   3.933   7.576   0.864 -0.5389 -0.9065 -0.2844
 1931TIP3   OH2 5737   1.824   2.048   1.130  0.2992 -0.2915  0.0543
 1931TIP3    H1 5738   1.820   1.953   1.117  0.3843 -0.1365 -1.2463
 1931TIP3    H2 5739   1.917   2.067   1.139  0.6526  0.0419 -3.2108
 1932TIP3   OH2 5740   1.818   2.082   2.922  0.0280  0.9093 -0.0015
 1932TIP3    H1 5741   1.758   2.156   2.930 -0.5421  0.5534 -0.7856
 1932TIP3    H2 5742   1.843   2.082   2.830 -1.4078 -0.9208 -0.4672
 1933TIP3   OH2 5743   6.073   1.371   5.736  0.2960 -0.1895 -0.3011
 1933TIP3    H1 5744   6.122   1.428   5.676  0.4434 -0.2552 -0.2448
 1933TIP3    H2 5745   6.004   1.427   5.771  0.5538  0.0071 -0.1060
 1934TIP3   OH2 5746   6.533   3.550   1.807  0.6457  0.4842 -0.0612
 1934TIP3    H1 5747   6.573   3.500   1.736  0.6214  1.2039 -0.5812
 1934TIP3    H2 5748   6.498   3.628   1.765  0.9714  1.1061  0.8063
 1935TIP3   OH2 5749   5.416   3.718   4.963 -0.4163  0.3482  0.2916
 1935TIP3    H1 5750   5.332   3.730   5.007 -1.6977  0.3235 -2.0050
 1935TIP3    H2 5751   5.430   3.799   4.914  0.7209  0.1964  0.3444
 1936TIP3   OH2 5752   6.827   4.902   0.729  0.2719  0.3971  0.5071
 1936TIP3    H1 5753   6.822   4.997   0.741 -1.8692  0.5710 -1.0842
 1936TIP3    H2 5754   6.920   4.884   0.713  0.6525  2.2751  0.4072
 1937TIP3   OH2 5755   7.432   7.466   1.128  0.0037  0.2394  0.4404
 1937TIP3    H1 5756   7.451   7.449   1.036 -1.6535 -0.2355  0.1481
 1937TIP3    H2 5757   7.484   7.543   1.150 -1.3362  1.8200 -1.5578
 1938TIP3   OH2 5758   4.353   5.743   3.498  0.2204  0.0925  0.0188
 1938TIP3    H1 5759   4.334   5.680   3.429  0.9409  0.0980 -0.1989
 1938TIP3    H2 5760   4.440   5.717   3.531 -0.0431  0.1818  0.8189
 1939TIP3   OH2 5761   7.373   3.238   6.525 -0.1935  0.0539  0.2082
 1939TIP3    H1 5762   7.289   3.234   6.570  0.4341  0.5287  1.4731
 1939TIP3    H2 5763   7.425   3.168   6.565 -0.1326 -0.5711 -0.9171
 1940TIP3   OH2 5764   6.448   4.735   5.795 -0.5311  0.0103 -0.0559
 1940TIP3    H1 5765   6.462   4.792   5.870  0.3606 -0.3119  0.0277
 1940TIP3    H2 5766   6.373   4.680   5.820 -0.4794  0.1620  0.4427
 1941TIP3   OH2 5767   5.814   3.315   2.458  0.2232 -0.4672  0.4379
 1941TIP3    H1 5768   5.731   3.349   2.425  0.1748 -0.2657  0.7559
 1941TIP3    H2 5769   5.794   3.228   2.490 -0.7772  0.9175  4.0391
 1942TIP3   OH2 5770   3.343   7.392   5.859  0.4786 -0.3385  0.5117
 1942TIP3    H1 5771   3.402   7.459   5.892 -0.7950  0.7864  0.5728
 1942TIP3    H2 5772   3.396   7.342   5.796  1.3677  0.9085  0.2427
 1943TIP3   OH2 5773   3.367   4.984   4.979  0.4078  0.5930 -0.0104
 1943TIP3    H1 5774   3.339   4.976   4.888 -0.1342  1.1493  0.0996
 1943TIP3    H2 5775   3.398   5.074   4.986  0.9687  0.3840  0.2180
 1944TIP3   OH2 5776   2.359   5.836   2.705  0.5066  0.1908 -0.4055
 1944TIP3    H1 5777   2.276   5.860   2.665  1.2013  0.8384 -1.5150
 1944TIP3    H2 5778   2.335   5.780   2.779 -0.9301  0.8879 -0.3211
 1945TIP3   OH2 5779   1.720   6.309   6.296  0.4726  0.0165  0.1492
 1945TIP3    H1 5780   1.770   6.390   6.287  0.9622 -0.3501 -0.4942
 1945TIP3    H2 5781   1.723   6.290   6.390 -1.2775  1.7462  0.6194
 1946TIP3   OH2 5782   6.141   1.008   6.036  0.1435 -0.1194 -0.1380
 1946TIP3    H1 5783   6.200   1.030   6.108 -0.2641 -0.8810  0.4448
 1946TIP3    H2 5784   6.133   1.089   5.985  0.4328  0.4235  0.6675
 1947TIP3   OH2 5785   0.788   1.040   0.265  0.0651 -0.2319  0.3648
 1947TIP3    H1 5786   0.749   1.041   0.177 -0.2257  0.0924  0.4943
 1947TIP3    H2 5787   0.818   1.129   0.279 -3.2790  0.7939  2.0691
 1948TIP3   OH2 5788   2.536   1.447   1.469  0.1296  0.2035 -0.1631
 1948TIP3    H1 5789   2.605   1.447   1.403 -0.1859  0.5486 -0.4971
 1948TIP3    H2 5790   2.573   1.398   1.543  0.2551 -0.7334 -0.8350
 1949TIP3   OH2 5791   3.501   1.974   5.079  0.0352 -0.1207 -0.3343
 1949TIP3    H1 5792   3.541   1.970   4.992 -0.3442  0.8169 -0.5704
 1949TIP3    H2 5793   3.407   1.973   5.062 -0.0867  1.9935 -0.1083
 1950TIP3   OH2 5794   1.891   2.701   1.774  0.2845  0.2210 -0.2031
 1950TIP3    H1 5795   1.914   2.765   1.707 -0.3885 -0.0676 -0.7174
 1950TIP3    H2 5796   1.917   2.617   1.736  1.3756  0.1912  0.5575
 1951TIP3   OH2 5797   3.499   7.450   4.784 -0.1930 -0.1940  0.4564
 1951TIP3    H1 5798   3.534   7.404   4.860  0.3137  1.0325  0.9867
 1951TIP3    H2 5799   3.539   7.537   4.788 -0.7365  0.1363 -0.7990
 1952TIP3   OH2 5800   7.938   6.961   3.297 -0.9402 -0.3925  0.2817
 1952TIP3    H1 5801   7.923   6.965   3.391  0.2427 -0.3641  0.4875
 1952TIP3    H2 5802   7.972   6.873   3.282 -0.4044 -0.1423  0.0017
 1953TIP3   OH2 5803   1.688   1.398   3.267 -0.3685 -0.0428 -0.2669
 1953TIP3    H1 5804   1.739   1.466   3.223  0.4913  0.8265  1.9624
 1953TIP3    H2 5805   1.641   1.444   3.336 -1.2940 -1.4323  0.0592
 1954TIP3   OH2 5806   1.315   6.922   1.919 -0.1130 -0.2254  0.4488
 1954TIP3    H1 5807   1.254   6.902   1.848  1.2944 -1.5449 -0.4586
 1954TIP3    H2 5808   1.386   6.858   1.908  1.7868  1.6471  1.0166
 1955TIP3   OH2 5809   7.251   1.869   0.800  0.3817  0.3220 -0.0848
 1955TIP3    H1 5810   7.159   1.853   0.777  0.6057 -0.1403 -0.7154
 1955TIP3    H2 5811   7.253   1.959   0.832 -0.4130  0.0963  0.6251
 1956TIP3   OH2 5812   7.908   0.852   5.446  0.3086  0.0543 -0.0926
 1956TIP3    H1 5813   7.812   0.859   5.445  0.1880 -1.3210  0.7439
 1956TIP3    H2 5814   7.938   0.942   5.430 -1.1116  0.6208  0.2802
 1957TIP3   OH2 5815   0.626   0.305   0.321 -0.0709 -0.0049 -0.0597
 1957TIP3    H1 5816   0.602   0.354   0.400 -0.3519  1.3371 -0.9416
 1957TIP3    H2 5817   0.690   0.361   0.277  1.4274 -1.5338  0.0604
 1958TIP3   OH2 5818   7.738   2.122   2.131  0.0378 -0.7370 -0.1660
 1958TIP3    H1 5819   7.769   2.183   2.198  0.3646  0.2409 -1.1796
 1958TIP3    H2 5820   7.643   2.130   2.134  0.0965  0.4224 -0.8044
 1959TIP3   OH2 5821   5.741   1.788   2.272 -0.3250  0.9471  0.2247
 1959TIP3    H1 5822   5.707   1.872   2.303  0.6112  0.7463  1.8828
 1959TIP3    H2 5823   5.836   1.795   2.283 -0.2235 -0.2631  0.2227
 1960TIP3   OH2 5824   4.530   4.232   2.517  1.0140  0.0870  0.1533
 1960TIP3    H1 5825   4.456   4.170   2.520 -0.5442  1.8821  2.9414
 1960TIP3    H2 5826   4.522   4.273   2.431 -1.0845  0.0134  0.2497
 1961TIP3   OH2 5827   1.243   3.862   5.931  0.4001 -0.1198 -0.2686
 1961TIP3    H1 5828   1.184   3.812   5.875 -0.4945 -1.1434  1.5065
 1961TIP3    H2 5829   1.186   3.899   5.998  1.5079  0.6221  0.2922
 1962TIP3   OH2 5830   3.586   3.256   0.833  0.1250  0.3392  0.0559
 1962TIP3    H1 5831   3.492   3.236   0.833  0.3511 -0.8373 -0.8562
 1962TIP3    H2 5832   3.593   3.337   0.783 -0.3064 -0.1697 -0.8482
 1963TIP3   OH2 5833   8.182   3.070   2.438 -0.1460 -0.3996 -0.0177
 1963TIP3    H1 5834   8.099   3.027   2.416 -0.4779  0.2985 -0.1668
 1963TIP3    H2 5835   8.184   3.071   2.534 -1.7414  2.1640  0.0974
 1964TIP3   OH2 5836   8.246   6.267   3.172 -0.0797  0.8825 -0.1199
 1964TIP3    H1 5837   8.240   6.186   3.122  0.1523  2.2936 -2.5744
 1964TIP3    H2 5838   8.224   6.241   3.262 -0.5022 -1.7772 -0.9026
 1965TIP3   OH2 5839   7.581   1.955   3.027  0.4434 -0.7964  0.7194
 1965TIP3    H1 5840   7.486   1.957   3.037  0.3567  1.0108  0.0210
 1965TIP3    H2 5841   7.596   1.917   2.940  0.2430  0.3234  0.1705
 1966TIP3   OH2 5842   7.492   5.358   6.590 -0.7201 -0.0159  0.4577
 1966TIP3    H1 5843   7.540   5.429   6.633 -1.0973  2.5988 -2.9735
 1966TIP3    H2 5844   7.406   5.359   6.632 -0.5774  1.3136  0.7710
 1967TIP3   OH2 5845   6.714   6.570   1.499  0.4700 -0.5283  0.1022
 1967TIP3    H1 5846   6.689   6.530   1.582 -0.0986  2.7410  1.6649
 1967TIP3    H2 5847   6.738   6.496   1.443 -0.9429 -3.0045  2.5204
 1968TIP3   OH2 5848   2.540   1.089   5.851  0.0896 -0.3161 -0.4782
 1968TIP3    H1 5849   2.596   1.165   5.866  1.2758 -1.3526  0.5979
 1968TIP3    H2 5850   2.575   1.048   5.772  1.4110 -1.3880  0.6112
 1969TIP3   OH2 5851   3.215   7.229   0.908  0.2038  0.1658  0.2509
 1969TIP3    H1 5852   3.243   7.216   0.817  1.4868 -0.9976  0.7835
 1969TIP3    H2 5853   3.264   7.163   0.958 -0.1790  1.0413  1.8407
 1970TIP3   OH2 5854   1.365  -0.002   5.984  0.0005  0.0401 -0.2587
 1970TIP3    H1 5855   1.286   0.050   5.974 -0.1040  0.2150  1.2724
 1970TIP3    H2 5856   1.389  -0.027   5.894 -2.1660 -0.6309 -0.7076
 1971TIP3   OH2 5857   4.812   1.788   4.716 -0.4835  0.0013 -0.6060
 1971TIP3    H1 5858   4.746   1.807   4.784 -1.1858 -1.1087 -0.9619
 1971TIP3    H2 5859   4.867   1.867   4.714  0.4609 -0.4814  2.2534
 1972TIP3   OH2 5860   5.135   0.611   4.936 -0.1380 -0.0456  0.1236
 1972TIP3    H1 5861   5.144   0.688   4.879  1.4633  1.9012  2.7468
 1972TIP3    H2 5862   5.041   0.592   4.935 -0.8928  2.9789  0.4673
 1973TIP3   OH2 5863   1.927   7.690   0.152  0.3332 -1.0042 -0.0328
 1973TIP3    H1 5864   1.859   7.724   0.211  1.2263 -0.4811  0.7322
 1973TIP3    H2 5865   1.954   7.607   0.192  1.2442 -0.4396  0.5669
 1974TIP3   OH2 5866   1.047   0.432   4.601  0.0457 -0.3566 -0.4881
 1974TIP3    H1 5867   1.077   0.341   4.594  2.1859  0.3009 -0.6398
 1974TIP3    H2 5868   1.127   0.482   4.618 -1.3144  1.2801  1.7385
 1975TIP3   OH2 5869   2.612   2.611   0.277  0.0215  0.1708 -0.0752
 1975TIP3    H1 5870   2.699   2.586   0.248  0.2367  1.9170 -1.0968
 1975TIP3    H2 5871   2.574   2.531   0.313  2.2970 -0.4481  1.1071
 1976TIP3   OH2 5872   4.135   1.571   1.906  0.5363 -0.4904  0.8115
 1976TIP3    H1 5873   4.082   1.588   1.984 -0.3697  1.4426 -0.1543
 1976TIP3    H2 5874   4.088   1.501   1.860 -1.4708  1.3969 -0.1815
 1977TIP3   OH2 5875   3.486   7.730   0.839 -0.3504 -0.0701  0.0558
 1977TIP3    H1 5876   3.456   7.661   0.779  0.7017 -0.7662  0.2999
 1977TIP3    H2 5877   3.421   7.799   0.830 -1.8643 -1.3909  0.3424
 1978TIP3   OH2 5878   3.884   1.210   4.098 -0.7712 -0.1417 -0.2917
 1978TIP3    H1 5879   3.859   1.302   4.108  0.2394 -0.0076  1.2508
 1978TIP3    H2 5880   3.834   1.163   4.164  1.0931 -0.2108  1.1420
 1979TIP3   OH2 5881   5.017   5.133   5.423 -1.0677 -0.6868  0.4774
 1979TIP3    H1 5882   5.090   5.077   5.398  0.0367  0.4404  1.0712
 1979TIP3    H2 5883   5.021   5.206   5.362 -0.2218  0.5490  1.9358
 1980TIP3   OH2 5884   1.533   6.123   4.604  0.4212 -0.1763  0.0087
 1980TIP3    H1 5885   1.441   6.147   4.611 -0.2325 -2.7447  1.2403
 1980TIP3    H2 5886   1.536   6.058   4.533  1.3198  0.0209 -0.1481
 1981TIP3   OH2 5887   6.885   3.416   6.416 -0.0512 -0.5216 -0.0960
 1981TIP3    H1 5888   6.792   3.399   6.430 -0.0364 -0.7244 -0.2412
 1981TIP3    H2 5889   6.887   3.489   6.354 -0.1320  1.2628  1.8737
 1982TIP3   OH2 5890   7.473   2.135   2.128  0.3160  0.3823  0.3308
 1982TIP3    H1 5891   7.440   2.109   2.214  0.0956  0.4964  0.2816
 1982TIP3    H2 5892   7.428   2.217   2.109  1.4358  1.1216  0.7504
 1983TIP3   OH2 5893   6.110   0.629   0.616  0.3662 -0.0298  0.0479
 1983TIP3    H1 5894   6.048   0.592   0.679 -1.0745 -1.8349 -2.2791
 1983TIP3    H2 5895   6.165   0.688   0.669  1.0253 -3.3453  3.5116
 1984TIP3   OH2 5896   4.656   7.112   2.432  0.0410 -0.2554 -0.2653
 1984TIP3    H1 5897   4.599   7.165   2.488  0.0743  0.5558 -0.9714
 1984TIP3    H2 5898   4.652   7.025   2.470 -1.9007 -0.2948 -0.4238
 1985TIP3   OH2 5899   7.316   4.830   3.381  0.3675  0.4971  0.0661
 1985TIP3    H1 5900   7.239   4.865   3.336 -0.5020  0.5855  1.5411
 1985TIP3    H2 5901   7.292   4.832   3.474  1.5170 -1.0420  0.4376
 1986TIP3   OH2 5902   6.153   5.251   4.373 -0.3376  0.5347 -0.2014
 1986TIP3    H1 5903   6.225   5.305   4.406 -1.4723  0.4676  2.5998
 1986TIP3    H2 5904   6.189   5.209   4.295  1.8386  2.3445 -0.2730
 1987TIP3   OH2 5905   1.420   5.248   3.783 -0.6685 -0.0254  0.2141
 1987TIP3    H1 5906   1.453   5.228   3.695 -0.6486 -0.9090  0.4131
 1987TIP3    H2 5907   1.377   5.167   3.811 -2.2298  0.7955  0.3144
 1988TIP3   OH2 5908   0.537   5.393   6.098  0.3733 -0.2499 -0.0781
 1988TIP3    H1 5909   0.632   5.399   6.111  0.1129  1.1083  1.3503
 1988TIP3    H2 5910   0.505   5.350   6.177 -0.2629 -0.3038 -0.3631
 1989TIP3   OH2 5911   3.039   0.998   0.534  0.2210  0.0263 -0.6186
 1989TIP3    H1 5912   3.082   0.936   0.594 -0.5207 -0.5614 -0.6830
 1989TIP3    H2 5913   3.092   0.994   0.455 -0.8055 -1.9048 -1.2814
 1990TIP3   OH2 5914   4.245   3.899   3.791  0.1409  0.2548 -0.4938
 1990TIP3    H1 5915   4.272   3.888   3.700 -0.9048  2.6860 -1.1783
 1990TIP3    H2 5916   4.259   3.992   3.809  2.1873 -0.4954  2.5154
 1991TIP3   OH2 5917   4.025   3.002   6.745  0.2234 -0.7597  0.0989
 1991TIP3    H1 5918   3.959   2.946   6.786 -0.1278 -0.5483 -0.1675
 1991TIP3    H2 5919   4.023   2.977   6.652 -1.2937  0.9605 -0.4074
 1992TIP3   OH2 5920   8.111   5.406   3.030  0.2332 -0.1395  0.4465
 1992TIP3    H1 5921   8.161   5.413   2.949 -0.0416 -0.9318  0.1975
 1992TIP3    H2 5922   8.043   5.341   3.011 -0.2080  0.1128  1.1228
 1993TIP3   OH2 5923   6.015   2.032   4.925 -0.5186 -0.9911  0.2066
 1993TIP3    H1 5924   5.957   2.091   4.974  0.0788 -0.1390 -0.0879
 1993TIP3    H2 5925   5.958   1.990   4.861 -0.5078  1.3471 -1.4621
 1994TIP3   OH2 5926   7.853   1.070   2.668  0.2239  0.4786  0.7639
 1994TIP3    H1 5927   7.938   1.067   2.712  1.2591  0.0403 -1.1059
 1994TIP3    H2 5928   7.809   0.989   2.696  1.6212 -0.7362 -0.3405
 1995TIP3   OH2 5929   6.887   7.475   2.857  0.5878  0.0536 -0.1980
 1995TIP3    H1 5930   6.897   7.492   2.951  0.1226 -1.3365  0.1293
 1995TIP3    H2 5931   6.935   7.393   2.843  2.0336  1.0820 -1.5111
 1996TIP3   OH2 5932   1.272   4.090   4.526  0.5317 -0.1292 -0.2321
 1996TIP3    H1 5933   1.286   4.061   4.436  0.0038 -1.3015  0.0476
 1996TIP3    H2 5934   1.218   4.022   4.565 -1.5649  1.6827  0.2186
 1997TIP3   OH2 5935   5.976   7.174   4.316  0.0081 -0.3194  0.1930
 1997TIP3    H1 5936   6.026   7.093   4.312  0.5547  0.0688 -1.3257
 1997TIP3    H2 5937   6.014   7.222   4.390 -0.3864 -1.4519  1.1671
 1998TIP3   OH2 5938   4.447   6.715   6.529 -0.3599  0.2245  0.0827
 1998TIP3    H1 5939   4.354   6.736   6.534 -0.4126  0.4326 -1.3010
 1998TIP3    H2 5940   4.491   6.799   6.539 -0.3798  0.3050 -0.4576
 1999TIP3   OH2 5941   4.488   1.371   3.728  0.3964 -0.3221  0.0258
 1999TIP3    H1 5942   4.487   1.408   3.639  0.1378  0.7084  0.4389
 1999TIP3    H2 5943   4.396   1.371   3.754  0.4455 -0.8624  0.1997
 2000TIP3   OH2 5944   1.259   7.553   5.573  0.4912  0.7559 -0.0152
 2000TIP3    H1 5945   1.327   7.620   5.568 -1.2990  2.6282 -1.0769
 2000TIP3    H2 5946   1.210   7.563   5.491 -0.3148 -1.3477  0.1594
 2001TIP3   OH2 5947   6.486   3.437   6.026 -0.8598 -0.2004 -0.4589
 2001TIP3    H1 5948   6.459   3.356   5.982  0.1490 -2.1649  2.2181
 2001TIP3    H2 5949   6.581   3.428   6.036 -0.8883  0.7486  0.9227
 2002TIP3   OH2 5950   6.951   6.344   0.799  0.4846  0.1185  0.4109
 2002TIP3    H1 5951   6.876   6.393   0.833 -0.4237 -0.7674 -0.2619
 2002TIP3    H2 5952   6.961   6.271   0.860  0.4539 -0.0706  0.1894
 2003TIP3   OH2 5953   3.032   4.068   0.843  0.3660 -0.0104  0.1939
 2003TIP3    H1 5954   3.044   4.160   0.866 -1.3148 -0.3737  3.0343
 2003TIP3    H2 5955   3.008   4.069   0.750  0.1213  2.4261  0.2278
 2004TIP3   OH2 5956   2.551   6.691   3.468  0.5921  0.2475  0.2416
 2004TIP3    H1 5957   2.539   6.729   3.381  0.1300  1.2529  0.7335
 2004TIP3    H2 5958   2.464   6.689   3.506  0.2933 -2.7687 -0.2990
 2005TIP3   OH2 5959   1.036   2.002   6.658 -0.4611 -0.4207 -0.4192
 2005TIP3    H1 5960   0.960   2.034   6.609  2.1135  2.2904 -2.9939
 2005TIP3    H2 5961   1.043   2.062   6.733 -1.5201 -1.4903  0.5788
 2006TIP3   OH2 5962   7.712   4.489   0.491  0.0072  0.5412  0.6324
 2006TIP3    H1 5963   7.712   4.467   0.398 -0.4040  1.5321  0.3875
 2006TIP3    H2 5964   7.655   4.566   0.498 -0.6460 -0.0288  1.8327
 2007TIP3   OH2 5965   4.882   4.667   2.664 -0.3203 -0.6198  0.3985
 2007TIP3    H1 5966   4.859   4.623   2.582  0.8873 -1.3913  0.4439
 2007TIP3    H2 5967   4.799   4.697   2.700 -0.9488 -0.9934 -0.7029
 2008TIP3   OH2 5968   7.735   0.366   0.870  1.0183 -0.2455 -0.7938
 2008TIP3    H1 5969   7.828   0.348   0.856  1.5600  1.4960  0.1565
 2008TIP3    H2 5970   7.733   0.455   0.906 -0.9198 -0.6720  0.3528
 2009TIP3   OH2 5971   2.015   5.900   6.025 -0.4185  0.0671  0.1208
 2009TIP3    H1 5972   2.073   5.962   6.069  1.0324 -1.5761  0.6655
 2009TIP3    H2 5973   1.962   5.863   6.096 -1.2754  0.6592 -0.1991
 2010TIP3   OH2 5974   6.469   3.987   6.089  0.1244 -0.2226 -0.2461
 2010TIP3    H1 5975   6.378   4.009   6.106 -0.3518 -2.5761  0.5943
 2010TIP3    H2 5976   6.465   3.915   6.026  1.3763 -0.7996  0.3017
 2011TIP3   OH2 5977   7.797   5.542   1.550 -0.0194  0.3293 -0.0912
 2011TIP3    H1 5978   7.712   5.558   1.591 -1.0516 -0.3318 -1.8763
 2011TIP3    H2 5979   7.839   5.628   1.548 -0.8859  0.7746  0.2675
 2012TIP3   OH2 5980   7.734   5.923   3.473  0.1046  0.3943  0.3321
 2012TIP3    H1 5981   7.735   5.844   3.420 -1.1660 -1.6896  3.1898
 2012TIP3    H2 5982   7.642   5.949   3.475  0.3799  1.4386  0.1842
 2013TIP3   OH2 5983   4.803   3.425   2.608  0.2610 -0.1914  0.3244
 2013TIP3    H1 5984   4.824   3.334   2.629  1.5240 -0.2195 -0.9139
 2013TIP3    H2 5985   4.809   3.471   2.692  2.6537 -0.7414  0.5198
 2014TIP3   OH2 5986   5.586   6.623   6.570  0.0335  0.0415  0.3047
 2014TIP3    H1 5987   5.652   6.616   6.502 -0.8697 -1.5533 -0.4803
 2014TIP3    H2 5988   5.506   6.648   6.524  0.0022  1.7791  1.2088
 2015TIP3   OH2 5989   0.471   7.767   2.553  0.2370 -0.3592  0.4454
 2015TIP3    H1 5990   0.477   7.850   2.508 -1.8285 -0.6679 -0.5374
 2015TIP3    H2 5991   0.529   7.708   2.505 -1.4935 -0.5330 -1.5700
 2016TIP3   OH2 5992   1.648   6.580   4.802  0.6393 -0.5150 -0.5937
 2016TIP3    H1 5993   1.613   6.626   4.726  2.0871  0.4143 -0.7434
 2016TIP3    H2 5994   1.586   6.509   4.818 -0.8705  0.5804 -1.2917
 2017TIP3   OH2 5995   2.219   3.671   3.118  0.0197 -0.1663  0.0808
 2017TIP3    H1 5996   2.204   3.603   3.184 -1.3006 -0.2784 -0.3016
 2017TIP3    H2 5997   2.132   3.707   3.102  0.3871  0.1559 -1.2878
 2018TIP3   OH2 5998   3.610   2.191   6.221  0.3133  0.1134 -0.4694
 2018TIP3    H1 5999   3.558   2.152   6.151  0.5071  1.8644 -1.6604
 2018TIP3    H2 6000   3.683   2.234   6.176  0.7514  0.8095  0.8434
 2019TIP3   OH2 6001   3.963   6.363   6.228  1.0736  0.4691 -0.3921
 2019TIP3    H1 6002   4.047   6.386   6.189  2.1679 -0.8551  1.0381
 2019TIP3    H2 6003   3.986   6.313   6.306 -1.0727 -0.9584 -0.5979
 2020TIP3   OH2 6004   5.848   5.897   2.532 -0.8195  0.0976 -0.3194
 2020TIP3    H1 6005   5.789   5.967   2.507  1.5895  1.8258 -1.6199
 2020TIP3    H2 6006   5.906   5.886   2.455  1.1390 -0.7798  1.1823
 2021TIP3   OH2 6007   3.756   7.342   2.451 -0.3568 -0.0545 -0.6149
 2021TIP3    H1 6008   3.760   7.312   2.542 -0.3248 -0.5202 -0.7683
 2021TIP3    H2 6009   3.684   7.292   2.412 -1.1174  0.9608 -0.5519
 2022TIP3   OH2 6010   5.894   3.250   1.386  0.4593  0.4283 -0.1005
 2022TIP3    H1 6011   5.877   3.173   1.440 -3.1603 -0.3812 -2.0520
 2022TIP3    H2 6012   5.938   3.312   1.445 -0.4343 -1.5198  2.8203
 2023TIP3   OH2 6013   4.663   6.407   3.922  0.6212 -0.2287  0.0122
 2023TIP3    H1 6014   4.611   6.484   3.947 -0.0596 -1.0773  1.2998
 2023TIP3    H2 6015   4.598   6.339   3.902  1.1570 -1.6389  2.6895
 2024TIP3   OH2 6016   6.747   7.000   2.268 -0.0690  0.2624  0.5191
 2024TIP3    H1 6017   6.803   6.956   2.205  0.9724  1.6942  0.3928
 2024TIP3    H2 6018   6.808   7.042   2.329 -1.0381  0.0743  1.6532
 2025TIP3   OH2 6019   7.852  -0.010   3.905 -0.1355  0.6824 -0.2849
 2025TIP3    H1 6020   7.819   0.026   3.823 -1.5342  0.7579  0.2808
 2025TIP3    H2 6021   7.861   0.066   3.963 -0.6222  0.4575  0.0977
 2026TIP3   OH2 6022   7.043   7.332   6.349  0.0632 -0.1787 -0.4789
 2026TIP3    H1 6023   7.058   7.261   6.412 -0.9942 -0.6514 -0.7343
 2026TIP3    H2 6024   6.951   7.322   6.323 -0.4355  1.9327  0.2790
 2027TIP3   OH2 6025   1.655   1.211   2.963  0.4740 -0.0868 -0.1545
 2027TIP3    H1 6026   1.679   1.165   3.043  1.2283 -0.1843 -0.4252
 2027TIP3    H2 6027   1.566   1.181   2.944  0.2096  0.1143  0.7599
 2028TIP3   OH2 6028   7.476   1.435   0.595  0.2952 -0.2493 -0.6173
 2028TIP3    H1 6029   7.558   1.480   0.615  0.1041 -0.5264  0.9777
 2028TIP3    H2 6030   7.423   1.445   0.675 -0.8744 -0.8296 -1.2841
 2029TIP3   OH2 6031   4.491   6.163   5.842 -0.1236 -0.0111  0.5335
 2029TIP3    H1 6032   4.446   6.240   5.876 -1.3141 -0.3311 -0.2543
 2029TIP3    H2 6033   4.517   6.114   5.920  0.9303  1.3229  1.0515
 2030TIP3   OH2 6034   6.101   2.739   2.290 -0.0707  0.0520  0.5816
 2030TIP3    H1 6035   6.179   2.771   2.245  1.1772  0.3092  2.8195
 2030TIP3    H2 6036   6.039   2.722   2.219  2.4153 -1.4494 -1.4353
 2031TIP3   OH2 6037   3.126   3.677   1.219 -0.6104  0.7463 -0.5666
 2031TIP3    H1 6038   3.215   3.691   1.251 -1.1861  1.0499  1.0175
 2031TIP3    H2 6039   3.126   3.587   1.186  0.0587  0.4067  0.3028
 2032TIP3   OH2 6040   6.376   7.521   5.620  0.3259 -0.0107 -0.0001
 2032TIP3    H1 6041   6.399   7.429   5.637 -0.5423 -0.7213 -2.3132
 2032TIP3    H2 6042   6.285   7.528   5.651  0.5321  0.2151  0.5743
 2033TIP3   OH2 6043   4.704   1.663   4.126 -0.1337  0.1646 -0.2347
 2033TIP3    H1 6044   4.664   1.709   4.052 -1.3929 -0.8144 -0.2011
 2033TIP3    H2 6045   4.721   1.575   4.093  0.7500  0.1587  0.1923
 2034TIP3   OH2 6046   0.817   5.387   0.073 -0.3579 -0.2608 -0.2722
 2034TIP3    H1 6047   0.849   5.452   0.011 -2.1991 -1.3199 -2.4651
 2034TIP3    H2 6048   0.863   5.306   0.051 -2.1226 -1.0287 -1.4263
 2035TIP3   OH2 6049   2.650   6.719   3.761  0.0189 -0.2695  0.1065
 2035TIP3    H1 6050   2.624   6.686   3.847 -1.9115  0.4455 -0.1578
 2035TIP3    H2 6051   2.695   6.801   3.780  0.0572 -0.3689  0.4585
 2036TIP3   OH2 6052   6.415   1.971   4.169 -0.5130  0.3088  0.4093
 2036TIP3    H1 6053   6.353   2.012   4.109  1.4140 -0.8268 -2.6356
 2036TIP3    H2 6054   6.401   2.015   4.253 -1.6994  3.8796 -1.4361
 2037TIP3   OH2 6055   4.088   1.141   1.662 -0.9868  0.0651 -0.1697
 2037TIP3    H1 6056   4.034   1.068   1.631 -0.4743 -0.6920  0.6671
 2037TIP3    H2 6057   4.148   1.159   1.589 -0.5168 -0.9627 -0.0574
 2038TIP3   OH2 6058   2.480   2.786   1.821  0.4662  0.3024 -0.2175
 2038TIP3    H1 6059   2.574   2.787   1.804  0.6559  0.9383  0.7754
 2038TIP3    H2 6060   2.449   2.871   1.791  0.3373  0.3691  0.1034
 2039TIP3   OH2 6061   0.416   1.635   0.360 -0.1219 -0.1400  0.0027
 2039TIP3    H1 6062   0.338   1.678   0.397  0.1115  0.1567  0.1575
 2039TIP3    H2 6063   0.474   1.708   0.336  0.6313 -0.3714  1.0281
 2040TIP3   OH2 6064   6.467   4.994   3.591 -0.1525  0.0030 -0.2285
 2040TIP3    H1 6065   6.460   4.913   3.541  0.0026 -0.2179  0.1038
 2040TIP3    H2 6066   6.391   4.993   3.649 -1.3542  1.1362 -1.7093
 2041TIP3   OH2 6067   1.906   4.287   4.962  0.3787  0.1520  0.0123
 2041TIP3    H1 6068   1.976   4.291   5.027  1.2878 -0.9527 -0.8681
 2041TIP3    H2 6069   1.915   4.201   4.922 -1.9321 -0.3074  0.3454
 2042TIP3   OH2 6070   6.888   4.852   6.624  0.1564  0.4769  0.5072
 2042TIP3    H1 6071   6.809   4.906   6.620 -0.7083 -0.7278  0.7463
 2042TIP3    H2 6072   6.874   4.795   6.699  0.3656 -1.0676 -0.5931
 2043TIP3   OH2 6073   7.358   4.384   5.028  0.0535  0.0751 -0.4472
 2043TIP3    H1 6074   7.358   4.445   5.102  2.3721 -2.2224  1.6671
 2043TIP3    H2 6075   7.270   4.347   5.028  0.0319  0.0434  1.2755
 2044TIP3   OH2 6076   6.912   1.362   4.906  0.5352  0.7301 -0.4243
 2044TIP3    H1 6077   6.831   1.412   4.918  0.2174 -0.0627  0.9105
 2044TIP3    H2 6078   6.981   1.428   4.908  0.0204  1.2723 -0.1446
 2045TIP3   OH2 6079   6.820   7.482   1.536  0.3097  0.2623 -0.0085
 2045TIP3    H1 6080   6.766   7.443   1.468 -1.9224  1.4709  0.9723
 2045TIP3    H2 6081   6.853   7.563   1.497 -0.0210  0.3806 -0.0471
 2046TIP3   OH2 6082   3.194   3.982   5.924 -0.0026 -0.4839  0.8888
 2046TIP3    H1 6083   3.119   3.922   5.929 -2.0106  1.5622 -1.5087
 2046TIP3    H2 6084   3.206   3.997   5.830  2.3765  0.5663  1.2849
 2047TIP3   OH2 6085   4.455   6.951   0.755 -0.7293 -0.1434 -0.0698
 2047TIP3    H1 6086   4.398   6.874   0.763  0.3988 -0.7999  2.5518
 2047TIP3    H2 6087   4.401   7.024   0.786 -0.5117 -0.6138  1.5066
 2048TIP3   OH2 6088   3.530   5.134   5.663  0.6525 -0.5052 -0.2152
 2048TIP3    H1 6089   3.465   5.186   5.710 -0.0571  0.0326 -1.7312
 2048TIP3    H2 6090   3.491   5.047   5.656 -0.1647 -0.0486 -1.5736
 2049TIP3   OH2 6091   2.109   0.861   4.338  0.0171 -0.0384 -0.5712
 2049TIP3    H1 6092   2.116   0.863   4.242 -1.7181 -1.9067 -0.7972
 2049TIP3    H2 6093   2.029   0.812   4.355 -0.7574  1.8995  1.8513
 2050TIP3   OH2 6094   3.186   4.004   5.630  0.5822 -0.9026 -0.2563
 2050TIP3    H1 6095   3.251   4.033   5.566  0.9526 -2.8278 -0.8473
 2050TIP3    H2 6096   3.168   3.913   5.605 -1.2939 -0.8551  0.7596
 2051TIP3   OH2 6097   5.538   6.022   4.818 -0.0451  0.1381 -0.3594
 2051TIP3    H1 6098   5.520   6.116   4.823 -0.7661 -0.0011 -0.2469
 2051TIP3    H2 6099   5.453   5.983   4.800  0.3233 -0.4634 -0.8016
 2052TIP3   OH2 6100   6.730   1.679   1.848  0.6425  0.0258  0.4416
 2052TIP3    H1 6101   6.642   1.664   1.883  0.8484 -0.7101  0.6738
 2052TIP3    H2 6102   6.726   1.765   1.807 -0.3316 -0.2278 -0.0141
 2053TIP3   OH2 6103   6.057   5.037   5.192  0.1997  0.1243  0.0574
 2053TIP3    H1 6104   5.969   4.998   5.189 -0.4637  1.5052  0.4563
 2053TIP3    H2 6105   6.089   5.017   5.280 -0.6102  1.3730  0.6752
 2054TIP3   OH2 6106   5.152   1.455   5.451  0.0294  0.7197 -0.3940
 2054TIP3    H1 6107   5.221   1.408   5.404  1.0588  1.2544  0.5203
 2054TIP3    H2 6108   5.117   1.391   5.513  2.5249  1.4517  1.9860
 2055TIP3   OH2 6109   2.638   5.694   4.530 -0.1060  0.0558  0.4276
 2055TIP3    H1 6110   2.603   5.769   4.578 -2.1863 -0.5063 -0.0697
 2055TIP3    H2 6111   2.619   5.619   4.585 -0.5587 -0.3615 -0.2710
 2056TIP3   OH2 6112   1.855   3.901   3.711 -0.1635 -0.0627  0.0556
 2056TIP3    H1 6113   1.793   3.933   3.777  0.2629  0.2990  0.2903
 2056TIP3    H2 6114   1.834   3.809   3.700 -2.5621  0.6181 -1.8838
 2057TIP3   OH2 6115   6.527   7.799   4.166  0.2072 -0.2860  0.8675
 2057TIP3    H1 6116   6.439   7.772   4.193 -0.5821 -1.3314 -2.3324
 2057TIP3    H2 6117   6.585   7.743   4.217 -1.0698 -1.2955  1.2854
 2058TIP3   OH2 6118   6.410   6.298   5.336  0.3079  0.0901  0.6042
 2058TIP3    H1 6119   6.446   6.379   5.299  1.7223 -0.7610  0.0532
 2058TIP3    H2 6120   6.337   6.328   5.391 -1.1673  1.4937 -1.9045
 2059TIP3   OH2 6121   2.145   1.629   6.597 -0.8728 -0.0017  0.5506
 2059TIP3    H1 6122   2.133   1.549   6.648 -1.1192  0.1778  0.7771
 2059TIP3    H2 6123   2.103   1.610   6.513  1.5059 -1.1406 -0.4842
 2060TIP3   OH2 6124   6.673   4.497   6.116  0.1929  0.0338  0.7329
 2060TIP3    H1 6125   6.680   4.580   6.162 -0.1619 -0.5167  1.8067
 2060TIP3    H2 6126   6.582   4.470   6.127 -0.7601  1.2611 -2.7876
 2061TIP3   OH2 6127   6.250   5.362   3.155  0.0634  0.4178 -0.4811
 2061TIP3    H1 6128   6.178   5.308   3.190 -1.3983  1.0027 -2.4055
 2061TIP3    H2 6129   6.329   5.324   3.193 -1.1419 -1.2289  0.5205
 2062TIP3   OH2 6130   7.053   5.471   1.323  0.5497 -0.1748  0.2703
 2062TIP3    H1 6131   7.112   5.531   1.278  0.2309 -0.1852 -0.1662
 2062TIP3    H2 6132   6.969   5.518   1.326 -0.1064 -1.1619 -1.3726
 2063TIP3   OH2 6133   5.152   6.464   2.071  0.6174  0.2586  0.0250
 2063TIP3    H1 6134   5.186   6.506   1.991  1.6119  0.2437  0.4344
 2063TIP3    H2 6135   5.070   6.423   2.043  1.3281 -0.4018 -1.1813
 2064TIP3   OH2 6136   2.087   7.464   5.683  0.3230  0.2408  0.0132
 2064TIP3    H1 6137   2.051   7.434   5.600  0.7073  2.5638 -1.0675
 2064TIP3    H2 6138   2.161   7.406   5.700 -0.3625 -0.8928 -0.7023
 2065TIP3   OH2 6139   3.608   6.302   3.713  0.5694  0.5697 -0.5996
 2065TIP3    H1 6140   3.615   6.265   3.626  0.0002 -0.7915 -0.0985
 2065TIP3    H2 6141   3.699   6.315   3.742  0.7601  0.5859 -1.2017
 2066TIP3   OH2 6142   6.673   5.111   5.451 -0.1507  0.2084 -0.4911
 2066TIP3    H1 6143   6.619   5.035   5.429 -0.8303  0.4005  0.4631
 2066TIP3    H2 6144   6.661   5.122   5.545  0.9237  0.7504 -0.4100
 2067TIP3   OH2 6145   6.263   6.929   0.490  0.4180 -0.2555  0.1648
 2067TIP3    H1 6146   6.302   6.950   0.575 -0.0872  0.5337  0.2164
 2067TIP3    H2 6147   6.198   6.998   0.476 -0.0237 -0.7965 -0.5262
 2068TIP3   OH2 6148   3.127   2.326   3.807 -0.3776  0.5665 -0.0172
 2068TIP3    H1 6149   3.055   2.264   3.822 -0.0866  0.2540  0.0924
 2068TIP3    H2 6150   3.201   2.271   3.781  0.1163  0.7940  0.8903
 2069TIP3   OH2 6151   7.957   0.871   5.715  0.5565  0.2281  0.5331
 2069TIP3    H1 6152   7.921   0.887   5.628  0.7497  1.2404  0.6246
 2069TIP3    H2 6153   7.928   0.783   5.738  3.1879 -1.4560 -1.9111
 2070TIP3   OH2 6154   0.843   5.538   6.631 -0.5642 -0.0392  0.3078
 2070TIP3    H1 6155   0.925   5.587   6.628 -1.2530  1.1090 -1.6510
 2070TIP3    H2 6156   0.869   5.450   6.657  1.3302  0.2260 -0.4888
 2071TIP3   OH2 6157   5.858   5.112   3.125 -0.0745  0.4225 -0.4676
 2071TIP3    H1 6158   5.802   5.057   3.181 -0.1536 -1.3828 -2.2071
 2071TIP3    H2 6159   5.928   5.141   3.184 -1.2569  0.3267  1.0603
 2072TIP3   OH2 6160   3.871   3.752   3.308  0.9648 -0.1406 -0.6815
 2072TIP3    H1 6161   3.897   3.691   3.238  0.5760 -2.9665  1.4580
 2072TIP3    H2 6162   3.941   3.745   3.372 -0.4395 -0.5458  0.8753
 2073TIP3   OH2 6163   6.567   2.706   4.812 -0.2484 -0.0662 -0.3429
 2073TIP3    H1 6164   6.627   2.651   4.761 -0.1415 -1.1123  0.8688
 2073TIP3    H2 6165   6.605   2.794   4.807  2.0231 -0.8594  1.2278
 2074TIP3   OH2 6166   4.307   0.777   3.490 -0.4293  0.3195  0.2033
 2074TIP3    H1 6167   4.377   0.786   3.425 -0.5002 -1.3888 -0.1500
 2074TIP3    H2 6168   4.310   0.859   3.540 -0.1547  1.5610 -1.7180
 2075TIP3   OH2 6169   3.754   7.371   1.173 -0.0854  0.4567 -0.7050
 2075TIP3    H1 6170   3.701   7.396   1.098  1.5268 -0.7710 -2.3580
 2075TIP3    H2 6171   3.711   7.294   1.208  1.4330 -1.7156 -3.2115
 2076TIP3   OH2 6172   1.003   0.738   1.125 -0.0902  0.1454 -0.9188
 2076TIP3    H1 6173   0.921   0.759   1.080 -0.5049  1.8086  0.5160
 2076TIP3    H2 6174   1.057   0.816   1.115  0.5773 -0.2181 -0.2334
 2077TIP3   OH2 6175   7.258   3.817   0.887  0.3089 -0.2183  0.1562
 2077TIP3    H1 6176   7.192   3.882   0.863 -0.5526 -0.5818  1.4564
 2077TIP3    H2 6177   7.260   3.818   0.983  0.9561 -1.4318  0.1813
 2078TIP3   OH2 6178   0.696   1.164   2.839  0.0817 -0.3735 -0.4093
 2078TIP3    H1 6179   0.711   1.088   2.895 -2.8804 -1.2614 -0.5977
 2078TIP3    H2 6180   0.647   1.129   2.765 -1.6235  1.7171 -0.3720
 2079TIP3   OH2 6181   5.185   3.521   3.582  0.2705 -0.5963 -1.0960
 2079TIP3    H1 6182   5.177   3.614   3.561 -0.8693 -0.8459 -1.9047
 2079TIP3    H2 6183   5.239   3.519   3.661  1.8598  0.6205 -2.0908
 2080TIP3   OH2 6184   6.320   1.073   6.229 -0.1092 -0.1544 -0.4050
 2080TIP3    H1 6185   6.298   1.131   6.301 -0.7112  0.5533 -1.1455
 2080TIP3    H2 6186   6.381   1.124   6.175  1.2549 -1.0915  0.1749
 2081TIP3   OH2 6187   1.776   4.150   6.068 -0.2803 -0.2633  0.1539
 2081TIP3    H1 6188   1.791   4.057   6.050 -1.9837 -0.4457 -0.5443
 2081TIP3    H2 6189   1.713   4.151   6.139  0.5261  0.3897  0.8740
 2082TIP3   OH2 6190   6.828   6.903   0.551  0.2412 -0.2341 -0.1700
 2082TIP3    H1 6191   6.847   6.892   0.458  0.3845 -2.1347  0.0438
 2082TIP3    H2 6192   6.886   6.974   0.579  3.8714 -2.7701 -0.5457
 2083TIP3   OH2 6193   6.155   7.787   4.061  0.4003  0.1151  0.1609
 2083TIP3    H1 6194   6.195   7.770   4.147 -1.2259  0.4028  1.0163
 2083TIP3    H2 6195   6.189   7.718   4.005  0.9811 -0.4888  1.2239
 2084TIP3   OH2 6196   2.656   3.171   1.474  0.0916  0.1637  0.6793
 2084TIP3    H1 6197   2.636   3.156   1.567  0.7578  0.5245  0.8861
 2084TIP3    H2 6198   2.570   3.179   1.433 -0.2136  0.7494  1.4002
 2085TIP3   OH2 6199   2.447   6.288   2.545 -0.6755 -0.0437 -0.3664
 2085TIP3    H1 6200   2.369   6.263   2.494  0.7819 -1.9397 -1.8227
 2085TIP3    H2 6201   2.452   6.221   2.614  0.3387 -0.7426 -1.0826
 2086TIP3   OH2 6202   1.188   0.232   0.655 -0.3318  0.5006 -0.1286
 2086TIP3    H1 6203   1.219   0.146   0.681  2.4071  1.5123  0.2598
 2086TIP3    H2 6204   1.188   0.230   0.559 -0.2842  0.0885 -0.1218
 2087TIP3   OH2 6205   0.006   2.462   1.208  0.8282  0.2814 -0.1511
 2087TIP3    H1 6206   0.013   2.374   1.170  1.1436  0.6558 -0.9578
 2087TIP3    H2 6207   0.096   2.487   1.228  0.6015 -0.3455  1.8759
 2088TIP3   OH2 6208   0.543   6.263   1.046  0.4480 -0.2647 -0.3929
 2088TIP3    H1 6209   0.516   6.351   1.072 -1.7598 -0.8035 -0.6282
 2088TIP3    H2 6210   0.605   6.236   1.114  1.0360  1.3686 -0.2223
 2089TIP3   OH2 6211   2.096   5.186   4.413  0.2455  0.3544  0.2799
 2089TIP3    H1 6212   2.093   5.242   4.490  1.7584  1.2062 -0.2297
 2089TIP3    H2 6213   2.141   5.239   4.347 -1.3455 -0.2174 -1.3191
 2090TIP3   OH2 6214   0.683   1.170   5.848  0.0236 -0.2347  0.2149
 2090TIP3    H1 6215   0.656   1.082   5.821 -0.3768  0.4870 -1.9770
 2090TIP3    H2 6216   0.758   1.155   5.905 -0.7256 -2.0343  0.8207
 2091TIP3   OH2 6217   4.880   4.080   5.439 -0.0801 -0.4955 -0.0276
 2091TIP3    H1 6218   4.915   4.165   5.466  0.5513 -0.2243 -1.5834
 2091TIP3    H2 6219   4.913   4.068   5.350  0.0584 -2.5018  0.2477
 2092TIP3   OH2 6220   0.291   3.785   6.083 -0.3313  0.2366  0.2137
 2092TIP3    H1 6221   0.268   3.822   5.998 -1.9384 -1.1455  0.0002
 2092TIP3    H2 6222   0.226   3.820   6.144 -1.4966 -1.6547  0.1232
 2093TIP3   OH2 6223   6.597   2.394   0.246  0.2439 -0.3211 -0.1307
 2093TIP3    H1 6224   6.565   2.425   0.161  0.5760 -0.0207 -0.1464
 2093TIP3    H2 6225   6.682   2.356   0.227 -0.0034 -0.9225 -0.0504
 2094TIP3   OH2 6226   5.649   7.688   3.583 -0.4772 -0.2952 -0.1467
 2094TIP3    H1 6227   5.707   7.742   3.530  1.3208  1.5028  3.2956
 2094TIP3    H2 6228   5.696   7.605   3.592 -0.1823 -0.1479 -0.3072
 2095TIP3   OH2 6229   2.555   2.893   2.753  0.1888 -0.3951 -0.4911
 2095TIP3    H1 6230   2.546   2.971   2.699 -1.9354 -0.5602 -0.4531
 2095TIP3    H2 6231   2.535   2.924   2.842  2.3494 -0.3980  0.0528
 2096TIP3   OH2 6232   5.491   1.479   3.461  0.4309 -0.2989  0.6581
 2096TIP3    H1 6233   5.526   1.390   3.464  0.1843 -0.3747  2.1308
 2096TIP3    H2 6234   5.510   1.515   3.547 -1.2385  0.3789  0.7904
 2097TIP3   OH2 6235   3.168   3.287   3.133  0.1220  0.1605  0.4441
 2097TIP3    H1 6236   3.157   3.237   3.052  1.3670  0.6901 -0.0629
 2097TIP3    H2 6237   3.204   3.224   3.195 -0.4396 -0.1380  0.4777
 2098TIP3   OH2 6238   4.164   5.615   6.167  0.0089  0.4602 -0.1838
 2098TIP3    H1 6239   4.082   5.584   6.127 -0.1920  1.2153 -0.3649
 2098TIP3    H2 6240   4.160   5.583   6.257 -0.4309  0.3929 -0.2262
 2099TIP3   OH2 6241   3.149   6.542   4.894 -0.9168 -0.3283  0.7420
 2099TIP3    H1 6242   3.185   6.502   4.815 -2.9889  0.4602 -0.6989
 2099TIP3    H2 6243   3.100   6.471   4.937  0.4829 -0.8446  1.5646
 2100TIP3   OH2 6244   5.802   3.660   3.986  0.0845  0.1502  0.1167
 2100TIP3    H1 6245   5.842   3.679   4.071 -1.7703  0.4521  0.9729
 2100TIP3    H2 6246   5.745   3.735   3.969 -1.5093 -1.0679 -0.1384
 2101TIP3   OH2 6247   1.709   3.436   1.352  0.2959  0.6686 -0.4194
 2101TIP3    H1 6248   1.725   3.359   1.297 -0.7685  1.2019 -1.5261
 2101TIP3    H2 6249   1.733   3.408   1.440  0.6634 -0.6791 -0.9227
 2102TIP3   OH2 6250   3.372   6.190   4.523 -0.3255 -0.8043 -0.1244
 2102TIP3    H1 6251   3.412   6.126   4.464 -1.7371 -1.3577 -0.5322
 2102TIP3    H2 6252   3.326   6.250   4.465 -1.1069 -0.9077  0.3743
 2103TIP3   OH2 6253   4.253   1.233   4.031 -0.1270  0.1660  0.4596
 2103TIP3    H1 6254   4.302   1.315   4.037 -0.5871  0.5155 -0.4268
 2103TIP3    H2 6255   4.190   1.238   4.103 -1.6789  1.6399 -0.9421
 2104TIP3   OH2 6256   1.334   6.133   4.973 -0.2915  0.1732  0.2269
 2104TIP3    H1 6257   1.338   6.198   5.042  0.2570 -1.0697  1.4032
 2104TIP3    H2 6258   1.244   6.099   4.978 -0.0560 -0.3697  0.7558
 2105TIP3   OH2 6259   5.628   7.031   2.128  0.2806 -0.6678  0.1115
 2105TIP3    H1 6260   5.605   7.042   2.036  0.8187 -0.3038  0.0146
 2105TIP3    H2 6261   5.656   6.939   2.134  3.2516  0.0605 -0.8060
 2106TIP3   OH2 6262   4.135   2.376   0.660 -0.0963  0.0697 -0.2419
 2106TIP3    H1 6263   4.215   2.417   0.628 -0.4837  1.1229  0.0781
 2106TIP3    H2 6264   4.078   2.372   0.582 -0.0933  0.2553 -0.2556
 2107TIP3   OH2 6265   4.661   7.253   3.611  0.0909  0.1274  0.2332
 2107TIP3    H1 6266   4.687   7.278   3.522  0.9598  1.9468  0.9635
 2107TIP3    H2 6267   4.566   7.257   3.610 -0.0784 -2.0923 -1.1964
 2108TIP3   OH2 6268   3.109   5.808   2.263  0.7534 -0.3162  0.6682
 2108TIP3    H1 6269   3.066   5.730   2.228  0.7376 -0.7108  1.5586
 2108TIP3    H2 6270   3.037   5.868   2.285  0.6440 -0.9381  2.0675
 2109TIP3   OH2 6271   3.795   3.420   4.310 -0.5700 -0.5647  0.2522
 2109TIP3    H1 6272   3.707   3.412   4.273 -1.7478 -2.0270  3.1348
 2109TIP3    H2 6273   3.794   3.503   4.357  1.1525  1.6445 -3.1166
 2110TIP3   OH2 6274   0.522   2.880   2.174 -0.3695 -0.1886 -0.3025
 2110TIP3    H1 6275   0.514   2.788   2.150  0.5173 -0.9679  2.1042
 2110TIP3    H2 6276   0.558   2.879   2.262  0.2660  2.5004 -0.4406
 2111TIP3   OH2 6277   0.927   2.678   0.795 -0.2919  0.6542  0.2509
 2111TIP3    H1 6278   0.886   2.681   0.881 -0.9092  1.6160 -0.0627
 2111TIP3    H2 6279   0.937   2.585   0.777 -1.1444  0.4254  0.8981
 2112TIP3   OH2 6280   4.575   7.817   6.236 -0.3640 -0.1750 -0.3593
 2112TIP3    H1 6281   4.546   7.891   6.288  1.3588  0.0423  0.3495
 2112TIP3    H2 6282   4.572   7.742   6.296  0.6537 -0.1094 -0.1954
 2113TIP3   OH2 6283   3.302   7.483   1.003 -0.3592 -0.0850 -0.5025
 2113TIP3    H1 6284   3.263   7.403   0.969 -1.0416  0.0472 -0.0463
 2113TIP3    H2 6285   3.230   7.547   1.002 -0.6082 -0.2705  1.8974
 2114TIP3   OH2 6286   2.129   0.703   2.478  0.1609  0.1808 -0.5835
 2114TIP3    H1 6287   2.202   0.659   2.521  0.7657  1.7601  0.0527
 2114TIP3    H2 6288   2.053   0.648   2.498  0.6282  0.2249  1.5110
 2115TIP3   OH2 6289   4.448   2.953   2.252 -0.4338  0.0158  0.0933
 2115TIP3    H1 6290   4.363   2.982   2.284 -1.0061 -1.1090 -0.3669
 2115TIP3    H2 6291   4.438   2.859   2.237  1.0920 -0.2722  0.6706
 2116TIP3   OH2 6292   3.896   4.638   1.411  0.0838 -0.8696 -0.5365
 2116TIP3    H1 6293   3.858   4.726   1.405  1.8157 -0.1115 -1.1828
 2116TIP3    H2 6294   3.823   4.581   1.436 -1.5027  0.4512 -1.9583
 2117TIP3   OH2 6295   8.282   1.839  -0.031 -1.0182 -0.1510 -0.2119
 2117TIP3    H1 6296   8.230   1.874   0.041 -1.1750  0.5866 -0.6735
 2117TIP3    H2 6297   8.320   1.759   0.004 -3.3420 -1.3454 -0.1804
 2118TIP3   OH2 6298   7.048   6.619   1.186  0.3776  0.4518 -0.3300
 2118TIP3    H1 6299   7.046   6.650   1.276 -1.2814 -0.8266  0.1139
 2118TIP3    H2 6300   7.021   6.528   1.190 -0.5961  0.5967 -2.1983
 2119TIP3   OH2 6301   2.066   6.923   5.815  0.0092 -0.0646 -0.1840
 2119TIP3    H1 6302   2.061   7.010   5.775 -2.0855 -0.9709 -2.0446
 2119TIP3    H2 6303   2.134   6.932   5.883 -0.3293  3.0588 -0.1297
 2120TIP3   OH2 6304   2.066   4.440   2.552  0.0224  0.4065  0.2026
 2120TIP3    H1 6305   2.058   4.383   2.475  2.2150  0.3188 -0.0194
 2120TIP3    H2 6306   2.079   4.528   2.515  1.5962  0.2916  0.4266
 2121TIP3   OH2 6307   5.876   6.177   1.031 -0.2746 -0.6113 -0.1266
 2121TIP3    H1 6308   5.842   6.189   0.942  1.5581 -0.0280 -0.7907
 2121TIP3    H2 6309   5.862   6.084   1.050 -0.6107 -0.7568 -1.0477
 2122TIP3   OH2 6310   3.845   6.384   4.879  0.5351 -0.0802  0.4473
 2122TIP3    H1 6311   3.827   6.365   4.971 -1.9523  1.2034  0.3229
 2122TIP3    H2 6312   3.791   6.321   4.831  0.0934  0.6809 -0.0748
 2123TIP3   OH2 6313   3.124   5.593   4.659 -0.1231  0.6645  0.1938
 2123TIP3    H1 6314   3.135   5.656   4.588  0.6999 -0.5998 -0.8392
 2123TIP3    H2 6315   3.091   5.514   4.616 -1.3921  0.4431  1.4999
 2124TIP3   OH2 6316   5.293   2.750   6.547 -0.7382  0.3031  0.0845
 2124TIP3    H1 6317   5.308   2.696   6.470  1.4142  2.1405 -0.9164
 2124TIP3    H2 6318   5.219   2.806   6.523 -0.4346  0.4834 -0.4505
 2125TIP3   OH2 6319   5.414   0.993   6.378  0.7205 -0.0978  0.2789
 2125TIP3    H1 6320   5.406   1.031   6.290  0.2098  1.4369  0.9573
 2125TIP3    H2 6321   5.406   1.068   6.437 -0.6910 -1.3041  1.6995
 2126TIP3   OH2 6322   3.090   5.742   5.456 -0.0424 -0.5469  0.7052
 2126TIP3    H1 6323   3.016   5.790   5.418 -0.5904 -0.5486  1.7276
 2126TIP3    H2 6324   3.121   5.686   5.385 -0.4719  0.0848 -0.0006
 2127TIP3   OH2 6325   6.210   5.396   1.954  0.3460 -0.1227 -0.1129
 2127TIP3    H1 6326   6.219   5.383   2.049  1.1020  2.1767  0.1968
 2127TIP3    H2 6327   6.117   5.414   1.941  0.1119 -1.1315  0.0677
 2128TIP3   OH2 6328   4.361   2.227   2.183  0.3461 -0.4197 -0.3403
 2128TIP3    H1 6329   4.283   2.274   2.155  0.5647 -0.2148 -0.6235
 2128TIP3    H2 6330   4.329   2.145   2.220 -0.1573  0.5931  1.5956
 2129TIP3   OH2 6331   3.807   2.939   3.097  0.7902  0.7595 -0.0916
 2129TIP3    H1 6332   3.774   3.002   3.033 -0.8454 -0.5699 -0.6320
 2129TIP3    H2 6333   3.738   2.932   3.162 -0.5455 -2.5974 -1.6023
 2130TIP3   OH2 6334   5.582   5.644   4.802  0.3209 -0.2934 -0.0936
 2130TIP3    H1 6335   5.675   5.631   4.820  0.0585 -2.0712  0.1709
 2130TIP3    H2 6336   5.571   5.615   4.711 -0.2453 -1.6471  0.3901
 2131TIP3   OH2 6337  -0.006   0.190   2.683 -0.1588  0.2615 -0.3593
 2131TIP3    H1 6338  -0.002   0.117   2.744  1.6425 -1.3015 -2.1756
 2131TIP3    H2 6339   0.066   0.248   2.709 -0.2333  0.2891 -0.2144
 2132TIP3   OH2 6340   7.260   0.045   5.333 -0.1479  0.7057  0.1525
 2132TIP3    H1 6341   7.187   0.008   5.382 -0.2636 -0.1223 -0.6320
 2132TIP3    H2 6342   7.304  -0.030   5.294  1.3050  1.1684  0.8329
 2133TIP3   OH2 6343   5.319   0.708   2.647 -0.3679 -0.1785 -0.3549
 2133TIP3    H1 6344   5.243   0.732   2.594  0.8485  1.7486 -1.3577
 2133TIP3    H2 6345   5.388   0.690   2.583  0.5877  0.2013  0.5333
 2134TIP3   OH2 6346   5.166   5.175   0.599  0.2544  0.2577  0.0374
 2134TIP3    H1 6347   5.070   5.169   0.590  0.1421  1.9751 -0.2185
 2134TIP3    H2 6348   5.180   5.227   0.678  1.0740 -2.2157  1.6433
 2135TIP3   OH2 6349   2.991   2.371   0.769 -0.0982 -0.1480 -0.0703
 2135TIP3    H1 6350   2.985   2.390   0.675 -1.0818  1.1631  0.2291
 2135TIP3    H2 6351   2.970   2.278   0.775  4.8331 -1.6777 -1.5839
 2136TIP3   OH2 6352   3.721   7.296   5.773  0.3147  0.5081 -0.2644
 2136TIP3    H1 6353   3.726   7.383   5.734 -0.1628  1.1689  1.0753
 2136TIP3    H2 6354   3.638   7.260   5.740  0.0922  0.9127 -0.1535
 2137TIP3   OH2 6355   0.808   5.812   1.739  0.2104 -0.7360  0.1295
 2137TIP3    H1 6356   0.807   5.896   1.691 -1.0694 -1.9640 -2.1794
 2137TIP3    H2 6357   0.796   5.837   1.831  3.6298  1.8259  0.1015
 2138TIP3   OH2 6358   0.966   1.502   6.566  0.2932 -0.2525  0.7702
 2138TIP3    H1 6359   1.046   1.452   6.582  0.2426 -0.3876  0.6087
 2138TIP3    H2 6360   0.911   1.444   6.513  1.5919  1.1383 -2.3610
 2139TIP3   OH2 6361   1.381   4.140   1.914 -0.0900 -0.4786  0.0850
 2139TIP3    H1 6362   1.449   4.104   1.857  0.6032 -0.5470  0.9292
 2139TIP3    H2 6363   1.321   4.184   1.855 -0.1070 -1.6651 -0.8261
 2140TIP3   OH2 6364   6.666   1.283   0.069 -0.6388  0.2581  0.2084
 2140TIP3    H1 6365   6.736   1.345   0.091 -1.7208  1.0817  1.5106
 2140TIP3    H2 6366   6.704   1.197   0.085  0.4892  0.6223 -0.4052
 2141TIP3   OH2 6367   5.540   5.996   4.485  0.2304  0.1196 -0.2455
 2141TIP3    H1 6368   5.534   5.942   4.406  2.4723  0.2644 -0.5803
 2141TIP3    H2 6369   5.475   5.958   4.544 -1.6072  0.0819 -2.1508
 2142TIP3   OH2 6370   5.553   0.177   0.152  0.6358  0.3192 -0.4993
 2142TIP3    H1 6371   5.550   0.085   0.179 -1.1029  0.8786  1.5678
 2142TIP3    H2 6372   5.610   0.179   0.076  1.9408 -2.2357  0.3239
 2143TIP3   OH2 6373   4.986   4.498   1.820  0.4505  0.4326  0.1390
 2143TIP3    H1 6374   4.908   4.447   1.843  0.1573  0.1624 -1.3412
 2143TIP3    H2 6375   5.052   4.472   1.885 -0.3513 -0.1851  0.7246
 2144TIP3   OH2 6376   5.458   5.140   3.003  0.1635  0.2013 -0.2413
 2144TIP3    H1 6377   5.478   5.120   2.912 -0.4850 -0.6370 -0.2198
 2144TIP3    H2 6378   5.427   5.056   3.039  0.8257  0.4076  0.8629
 2145TIP3   OH2 6379   0.365   5.209   2.849  0.2954  0.8254 -1.0064
 2145TIP3    H1 6380   0.340   5.197   2.757 -2.2221  0.8355 -0.4074
 2145TIP3    H2 6381   0.367   5.120   2.885  0.2616  0.8911 -0.8418
 2146TIP3   OH2 6382   4.733   3.883   4.675  0.5395  0.0859 -0.4025
 2146TIP3    H1 6383   4.691   3.928   4.602  0.2002  1.7688  0.7692
 2146TIP3    H2 6384   4.667   3.822   4.708 -0.9734  2.3866  1.1382
 2147TIP3   OH2 6385   0.174   6.843   6.562  0.5260 -0.1490  0.3740
 2147TIP3    H1 6386   0.184   6.936   6.582 -0.9843  0.2985 -0.7390
 2147TIP3    H2 6387   0.087   6.821   6.598  0.6267 -0.9770  0.1181
 2148TIP3   OH2 6388   7.657   4.432   3.151 -0.2522  0.1022  0.8137
 2148TIP3    H1 6389   7.700   4.482   3.221  1.2295 -1.4461  1.0771
 2148TIP3    H2 6390   7.565   4.431   3.174 -0.0794  1.3533  1.6299
 2149TIP3   OH2 6391   5.565   6.206   6.489 -0.6660  0.2195 -0.5056
 2149TIP3    H1 6392   5.477   6.186   6.519 -1.4548  1.5002 -1.8416
 2149TIP3    H2 6393   5.558   6.294   6.452  1.1067  0.2272 -0.9113
 2150TIP3   OH2 6394   1.765   5.352   2.535  0.5829  0.0469  0.3124
 2150TIP3    H1 6395   1.726   5.316   2.614  1.2818  0.9410  1.0907
 2150TIP3    H2 6396   1.778   5.277   2.477  0.1355 -0.6251  1.0762
 2151TIP3   OH2 6397   0.859   6.207   1.122 -0.9622 -0.0717  0.3576
 2151TIP3    H1 6398   0.862   6.130   1.066 -1.6778  0.3667 -0.3060
 2151TIP3    H2 6399   0.950   6.222   1.148 -0.4005  0.4756 -1.7501
 2152TIP3   OH2 6400   6.888   3.393   6.052  0.1186  0.2438  0.7708
 2152TIP3    H1 6401   6.825   3.453   6.091  2.5909  1.6131  2.9799
 2152TIP3    H2 6402   6.897   3.423   5.962 -1.2026  0.9884  0.8639
 2153TIP3   OH2 6403   3.271   3.081   1.143 -0.2193 -0.1741 -0.1766
 2153TIP3    H1 6404   3.293   3.020   1.073 -0.4832  0.7329 -1.0725
 2153TIP3    H2 6405   3.350   3.085   1.197  0.3380 -0.1455 -0.9803
 2154TIP3   OH2 6406   4.131   1.003   3.826 -0.2001  0.3994 -0.5008
 2154TIP3    H1 6407   4.093   0.918   3.802 -0.6515  0.5894 -0.4733
 2154TIP3    H2 6408   4.160   0.991   3.917  0.4527  0.0384 -0.7477
 2155TIP3   OH2 6409   7.372   3.286   1.240  0.2642  0.0717 -0.2724
 2155TIP3    H1 6410   7.292   3.235   1.250  0.3205 -0.0932 -0.6182
 2155TIP3    H2 6411   7.352   3.348   1.170  0.8746 -0.9067 -1.3761
 2156TIP3   OH2 6412   8.184   3.599   2.365 -0.0640 -0.3735  0.2779
 2156TIP3    H1 6413   8.200   3.642   2.449  0.1146  0.6049 -0.2462
 2156TIP3    H2 6414   8.208   3.507   2.380  0.3748 -0.1202  1.1722
 2157TIP3   OH2 6415   1.658   6.080   3.019 -0.0343  0.8917 -0.0602
 2157TIP3    H1 6416   1.705   6.013   2.969 -0.2270  1.4896 -1.0538
 2157TIP3    H2 6417   1.570   6.044   3.031 -0.2086  1.0601 -0.7991
 2158TIP3   OH2 6418   1.527   0.645   2.663  0.1190 -0.0617  0.1557
 2158TIP3    H1 6419   1.500   0.736   2.674  0.5207  0.3444 -1.8686
 2158TIP3    H2 6420   1.446   0.596   2.658 -0.1057  0.2123  0.9327
 2159TIP3   OH2 6421   7.761   6.508   1.946  0.1413  0.2091  0.3378
 2159TIP3    H1 6422   7.750   6.468   2.033 -0.6088 -1.5382 -0.5009
 2159TIP3    H2 6423   7.855   6.497   1.928 -0.1055 -1.6135 -0.0251
 2160TIP3   OH2 6424   6.162   4.112   3.774 -0.1999 -0.4376 -0.5200
 2160TIP3    H1 6425   6.148   4.019   3.792 -0.2081  0.0792  2.8169
 2160TIP3    H2 6426   6.210   4.114   3.692  0.8278 -3.4582 -0.1165
 2161TIP3   OH2 6427   4.215   3.727   5.564  0.5395  0.3280 -0.7784
 2161TIP3    H1 6428   4.180   3.664   5.627  1.0843  0.1448 -0.6519
 2161TIP3    H2 6429   4.200   3.686   5.479 -1.4119  1.1642 -0.8929
 2162TIP3   OH2 6430   7.006   7.229   1.331 -0.5176 -0.5160 -0.7702
 2162TIP3    H1 6431   7.015   7.319   1.362  1.6771 -0.9135 -0.1120
 2162TIP3    H2 6432   6.913   7.208   1.346 -0.8608  1.2980 -0.0594
 2163TIP3   OH2 6433   8.000   1.977   6.452 -0.2859 -0.0935 -0.0414
 2163TIP3    H1 6434   8.012   2.031   6.374 -0.3484  0.1279  0.1005
 2163TIP3    H2 6435   7.908   1.988   6.475  0.0465  1.0049  0.8996
 2164TIP3   OH2 6436   6.944   3.847   0.582  0.4217  0.2010  0.2567
 2164TIP3    H1 6437   7.039   3.861   0.587  0.5692  0.1679 -1.6375
 2164TIP3    H2 6438   6.906   3.923   0.626  1.3102  0.5657  0.4212
 2165TIP3   OH2 6439   5.358   3.504   5.312 -0.4446 -0.6300  0.0915
 2165TIP3    H1 6440   5.422   3.455   5.364 -0.9591 -1.9340 -0.4570
 2165TIP3    H2 6441   5.311   3.557   5.376 -1.3119 -2.4669  1.0863
 2166TIP3   OH2 6442   4.236   5.960   3.628  0.2388 -0.2946 -0.2500
 2166TIP3    H1 6443   4.264   5.904   3.556  0.6570  0.0903 -0.3892
 2166TIP3    H2 6444   4.314   6.012   3.650 -0.0580  0.0200  0.0766
 2167TIP3   OH2 6445   0.934   2.334   5.886  0.1637 -0.2280  0.1189
 2167TIP3    H1 6446   0.945   2.426   5.864 -0.9707 -0.4941 -1.8062
 2167TIP3    H2 6447   1.013   2.311   5.933  0.7841  1.5522  0.0336
 2168TIP3   OH2 6448   5.002   5.661   5.551 -0.0048  0.2137  0.3913
 2168TIP3    H1 6449   4.962   5.720   5.487 -3.2528 -1.2602  0.8583
 2168TIP3    H2 6450   5.050   5.597   5.498 -2.1639 -0.6489 -0.6810
 2169TIP3   OH2 6451   5.685   7.725   1.542 -0.0049 -0.2432 -0.1136
 2169TIP3    H1 6452   5.761   7.782   1.554  0.3300 -0.4055 -1.2924
 2169TIP3    H2 6453   5.679   7.675   1.623  0.9776 -0.0171  0.1088
 2170TIP3   OH2 6454   3.755   6.649   3.363  0.0112  0.0024 -0.1093
 2170TIP3    H1 6455   3.812   6.581   3.398 -0.9061 -1.2188 -0.8843
 2170TIP3    H2 6456   3.674   6.640   3.413  0.6004  2.0277  1.3067
 2171TIP3   OH2 6457   4.807   6.759   2.393  0.1156 -0.1715  0.0923
 2171TIP3    H1 6458   4.831   6.835   2.447 -0.4121 -0.3003  0.5095
 2171TIP3    H2 6459   4.738   6.715   2.442  0.4209 -0.9351 -0.1451
 2172TIP3   OH2 6460   7.307   5.158   1.212 -0.5694 -0.1980  0.1062
 2172TIP3    H1 6461   7.349   5.239   1.240 -1.0483  0.4562 -0.9941
 2172TIP3    H2 6462   7.216   5.166   1.241  0.0142 -1.6727  2.6119
 2173TIP3   OH2 6463   5.921   7.594   4.251  0.2063  0.5274 -0.0920
 2173TIP3    H1 6464   5.860   7.593   4.178  1.2992  2.6198 -1.1332
 2173TIP3    H2 6465   5.885   7.658   4.312 -0.0581 -0.2990  0.6363
 2174TIP3   OH2 6466   2.662   6.434   1.208 -0.6521 -0.1649  0.4752
 2174TIP3    H1 6467   2.624   6.516   1.239  1.3215  0.7694  0.5556
 2174TIP3    H2 6468   2.736   6.418   1.266  0.7107 -0.4690 -1.2637
 2175TIP3   OH2 6469   3.483   1.930   3.976  0.4986  0.3318  0.6532
 2175TIP3    H1 6470   3.449   1.895   4.058  1.0526 -0.6588  0.4769
 2175TIP3    H2 6471   3.469   1.859   3.912  1.1851  0.6180  0.1727
 2176TIP3   OH2 6472   2.565   6.899   2.453  0.4308 -0.8321  0.4916
 2176TIP3    H1 6473   2.618   6.846   2.513 -0.2259 -1.5335  0.4665
 2176TIP3    H2 6474   2.488   6.924   2.504  0.8200  0.2839  0.5631
 2177TIP3   OH2 6475   7.700   1.860   0.780  0.9013 -0.3775 -0.4188
 2177TIP3    H1 6476   7.773   1.835   0.837  0.3131 -0.7540  0.1801
 2177TIP3    H2 6477   7.709   1.955   0.770  1.7010 -0.4679 -0.6818
 2178TIP3   OH2 6478   0.344   4.446   3.856 -0.2052  0.1327 -0.0319
 2178TIP3    H1 6479   0.416   4.464   3.916  0.4627 -2.8369  0.2512
 2178TIP3    H2 6480   0.266   4.477   3.901  0.3677 -1.2695  2.0816
 2179TIP3   OH2 6481   3.955   3.004   3.724 -0.9271  0.5373  0.3103
 2179TIP3    H1 6482   3.940   2.977   3.634 -0.2698 -1.1204  0.6519
 2179TIP3    H2 6483   3.904   3.084   3.734 -2.9324 -0.5075 -0.8295
 2180TIP3   OH2 6484   6.513   3.792   1.729  0.3426 -0.2171 -0.0617
 2180TIP3    H1 6485   6.536   3.874   1.773 -1.8593 -1.1720  3.1995
 2180TIP3    H2 6486   6.453   3.818   1.659  1.4810  1.1112 -0.5767
 2181TIP3   OH2 6487   4.819   1.742   5.182  0.3910  0.1318 -0.3472
 2181TIP3    H1 6488   4.890   1.761   5.243 -1.3220  1.9565  1.2452
 2181TIP3    H2 6489   4.856   1.758   5.096  2.1801 -0.0094  0.3462
 2182TIP3   OH2 6490   2.432   6.476   6.614  0.4482 -0.6341 -0.0162
 2182TIP3    H1 6491   2.388   6.452   6.532  0.1595  1.8842 -0.7173
 2182TIP3    H2 6492   2.370   6.452   6.682  0.1448 -1.6386 -0.6303
 2183TIP3   OH2 6493   2.900   0.261   5.404  0.9176 -0.5313  0.1719
 2183TIP3    H1 6494   2.962   0.333   5.391 -3.2866  3.1389 -2.7078
 2183TIP3    H2 6495   2.888   0.224   5.317 -2.3292  0.4344  0.0716
 2184TIP3   OH2 6496   3.547   0.601   1.644 -0.4295  0.1086 -0.3314
 2184TIP3    H1 6497   3.469   0.623   1.695  0.5227  1.6471  0.5566
 2184TIP3    H2 6498   3.543   0.659   1.568  1.1165  2.2147  1.0535
 2185TIP3   OH2 6499   4.374   3.022   6.155 -0.0561 -0.1130  0.0611
 2185TIP3    H1 6500   4.299   3.026   6.214 -0.3008  0.2706 -0.2744
 2185TIP3    H2 6501   4.338   2.991   6.072 -0.0331  1.0962 -0.4101
 2186TIP3   OH2 6502   4.153   0.011   5.691 -0.1640  0.0557  0.2425
 2186TIP3    H1 6503   4.130   0.095   5.730 -0.5461 -0.0703  0.2899
 2186TIP3    H2 6504   4.084  -0.005   5.627  0.1954  0.0288 -0.1409
 2187TIP3   OH2 6505   5.463   3.915   4.675 -0.4766 -0.4341 -0.1765
 2187TIP3    H1 6506   5.486   3.842   4.618  1.6988 -1.2544  1.6021
 2187TIP3    H2 6507   5.547   3.953   4.700 -1.3689  0.3414  1.8687
 2188TIP3   OH2 6508   5.828   2.780   5.517  0.0538  0.6000  0.7833
 2188TIP3    H1 6509   5.751   2.738   5.554  0.9103 -1.0347  0.8288
 2188TIP3    H2 6510   5.794   2.854   5.468 -1.5495 -0.1040  0.7680
 2189TIP3   OH2 6511   7.195   5.856   3.384  0.3206  0.2065  0.0745
 2189TIP3    H1 6512   7.146   5.853   3.467  0.3573 -2.6992  0.1066
 2189TIP3    H2 6513   7.169   5.938   3.344 -2.9556 -0.1801  1.0839
 2190TIP3   OH2 6514   7.033   5.493   5.036 -0.6200  0.7841  0.0611
 2190TIP3    H1 6515   7.014   5.584   5.059  0.8198  0.8990  0.9417
 2190TIP3    H2 6516   6.955   5.445   5.062 -0.5310  1.4756  1.7350
 2191TIP3   OH2 6517   3.356   4.024   3.045 -0.9738  0.1611  0.1076
 2191TIP3    H1 6518   3.396   3.951   2.999 -2.1800 -0.1982 -0.4182
 2191TIP3    H2 6519   3.428   4.066   3.092 -0.1956 -1.0887  0.0588
 2192TIP3   OH2 6520   7.867   3.369   2.498  0.3026  0.3530 -0.0889
 2192TIP3    H1 6521   7.836   3.301   2.438 -1.3191  0.4891  0.5379
 2192TIP3    H2 6522   7.882   3.445   2.442 -1.3201  0.5231 -0.3547
 2193TIP3   OH2 6523   0.933   5.843   3.270 -0.0377  0.2815 -0.6775
 2193TIP3    H1 6524   1.018   5.838   3.226  0.7037  0.7871  0.6351
 2193TIP3    H2 6525   0.949   5.805   3.357 -1.4032 -0.5047 -0.7454
 2194TIP3   OH2 6526   1.739   0.193   5.217  0.3285 -0.2945 -0.2562
 2194TIP3    H1 6527   1.656   0.232   5.244 -0.2050 -2.1051  0.9713
 2194TIP3    H2 6528   1.776   0.158   5.299  2.6641  1.0685 -0.6514
 2195TIP3   OH2 6529   1.325   7.180   1.876 -0.7368 -0.2820 -0.0085
 2195TIP3    H1 6530   1.308   7.177   1.782 -0.4024 -0.9465 -0.0502
 2195TIP3    H2 6531   1.349   7.091   1.900 -0.4978 -0.0518  0.6521
 2196TIP3   OH2 6532   5.293   6.880   2.754 -0.3260  0.0772  0.1822
 2196TIP3    H1 6533   5.208   6.862   2.795  0.9469 -2.8605  1.9065
 2196TIP3    H2 6534   5.346   6.917   2.824  0.1154  0.9912 -0.6133
 2197TIP3   OH2 6535   0.190   6.569   4.985  0.2630 -0.0432  0.5786
 2197TIP3    H1 6536   0.096   6.588   4.977  0.2355 -0.1302  0.6978
 2197TIP3    H2 6537   0.216   6.612   5.067  0.0798 -0.9892  1.1392
 2198TIP3   OH2 6538   6.537   4.060   1.774 -0.2246 -0.1657  0.1959
 2198TIP3    H1 6539   6.474   4.088   1.840 -0.1804  1.1347 -0.2949
 2198TIP3    H2 6540   6.555   4.139   1.722  0.8129 -0.8248 -0.4840
 2199TIP3   OH2 6541   0.050   0.535   3.363  0.1386 -0.2145 -0.1232
 2199TIP3    H1 6542   0.095   0.541   3.448 -0.0394  0.5842 -0.0761
 2199TIP3    H2 6543   0.095   0.463   3.317  2.1589  1.1906 -0.4847
 2200TIP3   OH2 6544   7.821   4.475   4.568  0.1170  0.3265  0.0237
 2200TIP3    H1 6545   7.830   4.435   4.655 -1.2243 -0.1712 -0.0400
 2200TIP3    H2 6546   7.903   4.523   4.555  0.2116  0.6757  1.6915
 2201TIP3   OH2 6547   7.941   1.033   1.063  0.0087 -0.5496  0.3854
 2201TIP3    H1 6548   8.021   0.994   1.029  0.1548  0.5891 -0.6638
 2201TIP3    H2 6549   7.871   0.988   1.017  0.2219  1.6701 -2.4044
 2202TIP3   OH2 6550   1.943   2.246   0.368 -0.1692 -0.1164  0.3839
 2202TIP3    H1 6551   1.993   2.261   0.449 -1.1926 -0.2765  1.0626
 2202TIP3    H2 6552   1.925   2.334   0.335 -0.1564 -0.0395  0.5815
 2203TIP3   OH2 6553   6.956   5.403   2.993  0.3456 -0.3250 -0.2882
 2203TIP3    H1 6554   7.029   5.458   3.021 -1.0461  1.9533 -0.8973
 2203TIP3    H2 6555   6.969   5.391   2.899 -1.1945  2.0590 -0.8827
 2204TIP3   OH2 6556   3.816   7.574   1.595  0.2154 -0.3086  0.1802
 2204TIP3    H1 6557   3.799   7.537   1.508 -1.2189 -0.2061  0.3957
 2204TIP3    H2 6558   3.910   7.595   1.594  0.2015 -0.2031 -1.3852
 2205TIP3   OH2 6559   3.390   7.721   0.298 -0.3891 -0.7180 -0.5773
 2205TIP3    H1 6560   3.332   7.741   0.224 -1.0634 -1.4808 -0.2711
 2205TIP3    H2 6561   3.341   7.658   0.351 -0.0182 -0.0307  0.6415
 2206TIP3   OH2 6562   2.934   2.891   2.482 -0.4754 -0.3486 -0.3501
 2206TIP3    H1 6563   2.999   2.821   2.490  0.2926  0.5227  1.7975
 2206TIP3    H2 6564   2.855   2.847   2.449 -0.1479 -2.3307  1.3073
 2207TIP3   OH2 6565   6.937   7.422   1.955  0.2116 -0.1345 -0.3834
 2207TIP3    H1 6566   6.868   7.452   1.896  1.0826  1.9527 -0.4234
 2207TIP3    H2 6567   6.900   7.435   2.043  0.0768 -0.2537 -0.4219
 2208TIP3   OH2 6568   7.696   3.554   0.784 -0.0002  0.1799  0.5997
 2208TIP3    H1 6569   7.622   3.558   0.845  0.1002 -0.3097  0.7573
 2208TIP3    H2 6570   7.741   3.638   0.795 -2.2350  1.8174 -1.6847
 2209TIP3   OH2 6571   6.932   0.136   4.530  0.2539 -0.4548  0.2629
 2209TIP3    H1 6572   6.887   0.080   4.467  1.2402 -1.5480  0.4856
 2209TIP3    H2 6573   6.902   0.105   4.616 -0.5457  0.5584  0.3667
 2210TIP3   OH2 6574   6.460   5.410   0.521  0.4725  0.7472  0.2342
 2210TIP3    H1 6575   6.423   5.473   0.459 -1.8693 -0.4276  0.3233
 2210TIP3    H2 6576   6.532   5.369   0.473  0.8172  2.1560 -0.4904
 2211TIP3   OH2 6577   5.804   2.266   1.176  0.1254  1.2869  0.0662
 2211TIP3    H1 6578   5.781   2.283   1.085  1.7033 -1.7381 -1.0535
 2211TIP3    H2 6579   5.721   2.243   1.218 -0.7064  3.2419 -0.4038
 2212TIP3   OH2 6580   6.123   4.830   4.114  0.6216 -0.2317 -0.2329
 2212TIP3    H1 6581   6.094   4.844   4.024 -0.0358  0.3398  0.0546
 2212TIP3    H2 6582   6.192   4.764   4.108 -0.9389 -1.8768 -0.9407
 2213TIP3   OH2 6583   1.303   7.104   0.323 -0.3532 -0.1750  0.0652
 2213TIP3    H1 6584   1.313   7.159   0.245 -0.2667 -0.3324 -0.0359
 2213TIP3    H2 6585   1.307   7.014   0.290 -0.6954 -0.2457  0.2024
 2214TIP3   OH2 6586   2.415   5.021   0.925  0.4101  0.8044  0.2553
 2214TIP3    H1 6587   2.417   5.115   0.904  1.0970  0.9926  1.1349
 2214TIP3    H2 6588   2.356   5.014   0.999  0.7174  0.6009  0.4825
 2215TIP3   OH2 6589   7.006   1.812   6.600 -0.1665 -0.0921  0.1226
 2215TIP3    H1 6590   6.945   1.787   6.531  0.4984 -1.1365 -0.1136
 2215TIP3    H2 6591   6.965   1.780   6.681 -0.7972  0.8571  0.1927
 2216TIP3   OH2 6592   3.439   0.289   5.023  0.3449  0.3509  0.0760
 2216TIP3    H1 6593   3.494   0.243   4.960  0.7749  1.1031 -0.1126
 2216TIP3    H2 6594   3.416   0.222   5.088  2.0919  0.1640  0.5581
 2217TIP3   OH2 6595   4.647   0.368   5.263  0.0581 -0.2072 -0.2585
 2217TIP3    H1 6596   4.596   0.319   5.328 -0.2161 -1.0139 -1.0554
 2217TIP3    H2 6597   4.727   0.316   5.252  0.3324  0.1961 -0.2041
 2218TIP3   OH2 6598   4.826   0.148   6.124  0.1219  0.7008 -0.4005
 2218TIP3    H1 6599   4.895   0.157   6.058  0.7000 -2.4553 -0.3750
 2218TIP3    H2 6600   4.854   0.073   6.177 -2.1275  0.9020  1.1820
 2219TIP3   OH2 6601   2.696   4.660   0.832  0.0752 -0.0654  0.4375
 2219TIP3    H1 6602   2.683   4.566   0.816 -0.5367 -0.3043  2.1406
 2219TIP3    H2 6603   2.608   4.694   0.843  0.3343  0.6069  0.4296
 2220TIP3   OH2 6604   4.289   3.686   0.124  0.6581  0.4990  0.3012
 2220TIP3    H1 6605   4.309   3.659   0.035 -0.3965 -0.0405  0.2092
 2220TIP3    H2 6606   4.247   3.772   0.115  0.3660  0.3530  0.2541
 2221TIP3   OH2 6607   2.899   3.332   0.573  0.2946 -0.4972 -0.4282
 2221TIP3    H1 6608   2.869   3.272   0.641  0.5315 -1.6404 -1.2930
 2221TIP3    H2 6609   2.848   3.308   0.495  0.4157  0.4166 -0.8057
 2222TIP3   OH2 6610   2.373   6.415   4.656  0.5145 -0.3137 -0.3023
 2222TIP3    H1 6611   2.304   6.473   4.624 -1.6000 -2.2021  0.6139
 2222TIP3    H2 6612   2.411   6.462   4.730 -0.5016  0.3067 -0.1597
 2223TIP3   OH2 6613   6.192   2.305   0.168 -0.1893  0.0072 -0.4152
 2223TIP3    H1 6614   6.186   2.220   0.126  0.0915 -0.7521  1.0026
 2223TIP3    H2 6615   6.207   2.367   0.097  2.7791 -1.4898 -1.2209
 2224TIP3   OH2 6616   6.653   2.320   4.963 -0.0562  0.2286 -0.0951
 2224TIP3    H1 6617   6.623   2.396   5.013  1.2030  0.8641 -0.2742
 2224TIP3    H2 6618   6.617   2.245   5.010  0.4512  0.8414  1.3210
 2225TIP3   OH2 6619   3.551   4.033   0.743 -0.0580 -0.3047  0.3889
 2225TIP3    H1 6620   3.569   4.120   0.707  0.4490 -0.3638  0.4920
 2225TIP3    H2 6621   3.465   4.010   0.708  0.7387 -0.6999 -1.4280
 2226TIP3   OH2 6622   1.466   2.041   5.857  0.3775 -0.2931 -0.1161
 2226TIP3    H1 6623   1.518   2.114   5.824  1.1171 -0.3677  0.8600
 2226TIP3    H2 6624   1.432   2.071   5.941  2.4515 -1.7940  1.3478
 2227TIP3   OH2 6625   7.550   3.632   4.392 -0.2337  0.6522  0.2264
 2227TIP3    H1 6626   7.544   3.664   4.482  1.5390  1.7126  0.0233
 2227TIP3    H2 6627   7.590   3.704   4.344 -0.2358 -0.2703 -1.2199
 2228TIP3   OH2 6628   0.750   4.954   4.321 -0.0460  0.4309 -0.8853
 2228TIP3    H1 6629   0.745   5.049   4.321 -0.9685  0.3975  0.3733
 2228TIP3    H2 6630   0.693   4.926   4.392 -0.3330 -1.0948 -1.6610
 2229TIP3   OH2 6631   3.206   2.923   0.844 -0.0153 -0.1701 -0.1435
 2229TIP3    H1 6632   3.245   2.896   0.761 -0.4359 -1.3915  0.0431
 2229TIP3    H2 6633   3.169   3.010   0.825  0.9861  0.1139 -0.8733
 2230TIP3   OH2 6634   2.411   4.525   2.298 -0.0495 -0.4958 -0.3478
 2230TIP3    H1 6635   2.411   4.436   2.263 -1.2740 -0.1061 -1.4258
 2230TIP3    H2 6636   2.468   4.521   2.375 -0.0776 -2.2013 -0.3835
 2231TIP3   OH2 6637   7.528   2.252   1.788  0.2943 -0.1256  0.0618
 2231TIP3    H1 6638   7.433   2.254   1.803  0.3733 -0.3135  0.6094
 2231TIP3    H2 6639   7.549   2.340   1.758  0.2356  0.5210  1.8064
 2232TIP3   OH2 6640   5.539   1.521   2.164 -0.5833  0.4652 -0.0610
 2232TIP3    H1 6641   5.593   1.527   2.243  2.7293 -1.1491 -1.9663
 2232TIP3    H2 6642   5.457   1.483   2.194 -0.2949  1.8484  2.8738
 2233TIP3   OH2 6643   1.044   4.582   4.749 -0.6148 -0.3256 -0.4608
 2233TIP3    H1 6644   1.039   4.676   4.736  0.9603  0.1421  1.6274
 2233TIP3    H2 6645   0.956   4.556   4.775 -0.8902  0.7226 -0.3103
 2234TIP3   OH2 6646   3.235   6.425   6.691  0.3736  0.4788 -0.5144
 2234TIP3    H1 6647   3.277   6.492   6.637  1.7839  0.5492  0.5967
 2234TIP3    H2 6648   3.301   6.355   6.697 -0.3969 -0.2386 -0.2170
 2235TIP3   OH2 6649   6.358   5.444   1.432 -0.0153 -0.2783 -0.0818
 2235TIP3    H1 6650   6.338   5.404   1.517  1.3802 -0.5650  0.1374
 2235TIP3    H2 6651   6.450   5.469   1.439  0.2074 -0.5873 -1.6159
 2236TIP3   OH2 6652   6.760   0.482   5.515 -0.1656  0.0109 -0.5951
 2236TIP3    H1 6653   6.822   0.417   5.549 -0.4451 -0.8002 -1.5592
 2236TIP3    H2 6654   6.814   0.554   5.485  0.2814 -0.4844 -0.9891
 2237TIP3   OH2 6655   3.885   4.465   5.747 -0.1701  0.6505  0.3803
 2237TIP3    H1 6656   3.863   4.448   5.655  0.7431 -0.6684  0.3734
 2237TIP3    H2 6657   3.858   4.385   5.793  1.3930  0.3725  0.8859
 2238TIP3   OH2 6658   2.144   1.538   0.643  0.2900 -0.2321  0.2592
 2238TIP3    H1 6659   2.121   1.525   0.551 -1.5204 -1.3840  0.8442
 2238TIP3    H2 6660   2.085   1.607   0.673  0.5308 -0.2198  0.7102
 2239TIP3   OH2 6661   3.116   1.841   0.861  0.0702  0.6105  0.4231
 2239TIP3    H1 6662   3.052   1.875   0.923 -1.7462 -0.2879 -0.8617
 2239TIP3    H2 6663   3.067   1.781   0.805  2.0752 -0.2357 -0.5664
 2240TIP3   OH2 6664   3.210   0.153   4.132  0.6539 -0.3644  0.0974
 2240TIP3    H1 6665   3.200   0.179   4.041  2.3462  0.4909  0.1144
 2240TIP3    H2 6666   3.182   0.062   4.135 -0.1597 -0.1732 -1.1111
 2241TIP3   OH2 6667   2.108   6.154   0.120  0.2713  0.0774 -0.1634
 2241TIP3    H1 6668   2.076   6.145   0.031  1.4067  0.5971 -0.6384
 2241TIP3    H2 6669   2.092   6.245   0.143 -0.8549 -0.2791  0.5071
 2242TIP3   OH2 6670   6.297   1.850   1.915  0.3555 -0.5513  0.3108
 2242TIP3    H1 6671   6.335   1.763   1.910 -0.7670 -1.0015 -0.7366
 2242TIP3    H2 6672   6.297   1.882   1.825  1.2224  0.7528  0.7463
 2243TIP3   OH2 6673   6.235   6.330   6.368 -0.5134 -0.3216 -0.5060
 2243TIP3    H1 6674   6.213   6.240   6.346 -3.3227 -0.5248  2.3059
 2243TIP3    H2 6675   6.184   6.383   6.306 -1.3205 -0.7321 -0.2026
 2244TIP3   OH2 6676   8.013   0.159   3.741 -0.3693  0.2406  0.3885
 2244TIP3    H1 6677   8.078   0.161   3.671  0.8962 -1.5595  1.4443
 2244TIP3    H2 6678   7.936   0.120   3.700  0.5334 -1.3003  0.0938
 2245TIP3   OH2 6679   5.718   0.710   2.752 -0.0277 -0.2596 -0.8994
 2245TIP3    H1 6680   5.755   0.793   2.781  2.4541 -1.7239  0.5137
 2245TIP3    H2 6681   5.756   0.697   2.665  0.2579 -0.2705 -0.7767
 2246TIP3   OH2 6682   1.466   5.005   5.907  0.3343 -0.1332  0.2770
 2246TIP3    H1 6683   1.539   5.049   5.952 -0.8881  0.2864  1.9569
 2246TIP3    H2 6684   1.451   4.925   5.957 -0.5162 -0.0790  0.1292
 2247TIP3   OH2 6685   5.407   2.971   4.603 -0.2125  0.0949  0.2585
 2247TIP3    H1 6686   5.356   3.039   4.559  0.5482 -0.1619 -1.0739
 2247TIP3    H2 6687   5.363   2.889   4.579 -0.3975  0.0205  0.8362
 2248TIP3   OH2 6688   0.649   0.751   6.085  0.5121 -0.9216  0.1520
 2248TIP3    H1 6689   0.634   0.845   6.074  4.0975 -0.4468 -2.7048
 2248TIP3    H2 6690   0.583   0.709   6.030  0.3817  0.0679 -0.4607
 2249TIP3   OH2 6691   4.552   3.809   6.797 -0.3011  0.3317  0.3424
 2249TIP3    H1 6692   4.604   3.885   6.769  1.7748 -0.7533  1.0613
 2249TIP3    H2 6693   4.494   3.792   6.723  0.7832  1.2483 -0.7668
 2250TIP3   OH2 6694   6.188   1.383   0.108  0.2506 -0.2955  0.0338
 2250TIP3    H1 6695   6.101   1.379   0.068 -0.3594  1.4674  1.0434
 2250TIP3    H2 6696   6.181   1.328   0.186 -0.7155  1.5408  1.3172
 2251TIP3   OH2 6697   7.597   6.921   3.775 -0.0277 -0.1013 -0.5068
 2251TIP3    H1 6698   7.593   6.825   3.773 -1.0605 -0.0568 -1.2507
 2251TIP3    H2 6699   7.538   6.949   3.705 -1.0603  1.1059  0.7967
 2252TIP3   OH2 6700   6.277   1.809   3.358  0.2324  0.3091  0.4305
 2252TIP3    H1 6701   6.203   1.777   3.308  0.0736 -0.6796  1.2617
 2252TIP3    H2 6702   6.244   1.887   3.404 -0.0218  0.3917  0.1042
 2253TIP3   OH2 6703   1.134   1.271   6.598  0.1446 -0.6098 -0.3179
 2253TIP3    H1 6704   1.113   1.183   6.631 -1.2131 -0.1311  0.1694
 2253TIP3    H2 6705   1.169   1.255   6.511 -0.0889 -1.6490 -0.2442
 2254TIP3   OH2 6706   2.971   0.382   4.739 -0.7960  0.4204  0.2555
 2254TIP3    H1 6707   2.927   0.450   4.687 -0.5244  1.3357  1.1812
 2254TIP3    H2 6708   3.064   0.400   4.728 -0.7342  0.9479  1.4144
 2255TIP3   OH2 6709   4.089   1.739   6.555 -0.1753  0.5393 -0.0429
 2255TIP3    H1 6710   4.145   1.755   6.631  0.2429  0.9745 -0.4337
 2255TIP3    H2 6711   4.098   1.819   6.503  2.2469 -1.0344 -2.2691
 2256TIP3   OH2 6712   6.297   2.882   0.307 -0.5369 -0.2945 -0.3170
 2256TIP3    H1 6713   6.355   2.942   0.353 -1.3396  0.2446  0.0138
 2256TIP3    H2 6714   6.333   2.795   0.325 -0.4138 -0.0408  0.7331
 2257TIP3   OH2 6715   6.182   6.147   6.012 -0.2681  0.4912  0.6406
 2257TIP3    H1 6716   6.272   6.117   6.025 -0.5047  0.3330  2.1598
 2257TIP3    H2 6717   6.149   6.095   5.939 -0.1192 -1.8171  2.0864
 2258TIP3   OH2 6718   5.727   3.517   1.641 -0.4329 -0.8125  0.1818
 2258TIP3    H1 6719   5.659   3.469   1.688 -0.1922  0.1816  1.6556
 2258TIP3    H2 6720   5.692   3.606   1.634 -0.2007 -0.8129 -1.0308
 2259TIP3   OH2 6721   8.136   3.055   2.934 -0.3813 -0.1042 -0.3810
 2259TIP3    H1 6722   8.083   2.993   2.884  0.2864 -1.6686  0.7956
 2259TIP3    H2 6723   8.222   3.014   2.940  0.3650  1.3866 -0.3701
 2260TIP3   OH2 6724   7.443   0.602   0.940 -0.1277  0.1084  0.2664
 2260TIP3    H1 6725   7.417   0.519   0.899  1.1480  0.2780 -0.9321
 2260TIP3    H2 6726   7.519   0.631   0.890 -0.2720  1.7822  0.9636
 2261TIP3   OH2 6727   0.460   5.441   3.221  0.2421 -0.5161 -0.0271
 2261TIP3    H1 6728   0.395   5.399   3.278 -2.7306  1.7269 -1.4690
 2261TIP3    H2 6729   0.515   5.492   3.282 -0.1444 -1.4567  1.1516
 2262TIP3   OH2 6730   2.992   4.619   4.705 -0.3029 -0.2048  0.4723
 2262TIP3    H1 6731   3.005   4.538   4.657 -0.1987 -0.6854  1.2895
 2262TIP3    H2 6732   2.916   4.602   4.760 -0.5625  0.4146  0.3096
 2263TIP3   OH2 6733   1.363   5.125   4.949 -0.1432  0.2774 -0.0670
 2263TIP3    H1 6734   1.430   5.160   5.008 -0.1360  1.6961 -0.8693
 2263TIP3    H2 6735   1.348   5.196   4.886 -0.6310 -0.9433 -1.3639
 2264TIP3   OH2 6736   6.793   1.393   3.751 -0.0888 -0.3427  0.5881
 2264TIP3    H1 6737   6.734   1.456   3.792 -0.3167 -0.2944  0.1808
 2264TIP3    H2 6738   6.861   1.446   3.709  2.4609 -0.3558  4.1671
 2265TIP3   OH2 6739   4.477   0.053   3.278  0.2000 -0.2171 -0.2100
 2265TIP3    H1 6740   4.483   0.147   3.295  1.3554 -0.2726 -0.2300
 2265TIP3    H2 6741   4.498   0.045   3.185  1.8512 -0.6410  0.1735
 2266TIP3   OH2 6742   4.997   1.053   5.302 -0.2782  0.8713  0.2768
 2266TIP3    H1 6743   4.926   1.112   5.327  1.0639  2.4577  0.5333
 2266TIP3    H2 6744   5.048   1.102   5.238 -1.8039 -1.8719 -3.3654
 2267TIP3   OH2 6745   2.079   1.621   4.990 -0.3426  0.0593 -0.0439
 2267TIP3    H1 6746   2.115   1.691   4.935  0.8315  0.5871  1.3274
 2267TIP3    H2 6747   2.030   1.667   5.058 -2.3282 -0.6045 -0.9353
 2268TIP3   OH2 6748   4.421   0.780   0.127 -0.5434  0.5840 -0.4716
 2268TIP3    H1 6749   4.341   0.733   0.102 -1.0364  0.8153  0.6378
 2268TIP3    H2 6750   4.491   0.716   0.112 -1.1002 -0.1625  0.0319
 2269TIP3   OH2 6751   8.318   2.825   6.585 -0.0031 -0.4213  0.3429
 2269TIP3    H1 6752   8.297   2.804   6.494  0.0966  0.3620  0.1356
 2269TIP3    H2 6753   8.284   2.750   6.635  0.4165 -1.1154 -0.3796
 2270TIP3   OH2 6754   2.832   1.868   4.033  0.0781 -0.0144  0.0565
 2270TIP3    H1 6755   2.744   1.834   4.013  0.2976  0.0954 -1.1241
 2270TIP3    H2 6756   2.891   1.795   4.016  0.3482  0.3264 -0.4925
 2271TIP3   OH2 6757   6.932   7.368   5.127 -0.3638  0.1226  0.2034
 2271TIP3    H1 6758   6.962   7.350   5.038 -0.8669 -2.0872  0.4305
 2271TIP3    H2 6759   7.004   7.339   5.183  0.2802  2.2173  0.5680
 2272TIP3   OH2 6760   8.245   5.356   5.531 -0.4308  0.0894 -0.3125
 2272TIP3    H1 6761   8.201   5.272   5.545  0.5032 -0.2297  0.7667
 2272TIP3    H2 6762   8.216   5.411   5.603  0.0479  0.2380 -0.2288
 2273TIP3   OH2 6763   8.035   2.465   5.183  0.1518 -0.0202 -0.0005
 2273TIP3    H1 6764   7.968   2.487   5.248 -1.8392  1.1549 -2.2878
 2273TIP3    H2 6765   8.047   2.370   5.193 -1.5907 -0.2055  0.7380
 2274TIP3   OH2 6766   0.434   4.091   3.217  0.4558  0.2686  0.4840
 2274TIP3    H1 6767   0.509   4.060   3.267  0.2526  0.5507  0.9625
 2274TIP3    H2 6768   0.467   4.166   3.168  0.2002  1.0920  1.5605
 2275TIP3   OH2 6769   7.220   4.980   0.958 -0.8218  0.5010  0.4890
 2275TIP3    H1 6770   7.299   5.033   0.954 -0.7958  0.4037 -1.1514
 2275TIP3    H2 6771   7.238   4.915   1.026  0.7818  0.0607 -0.3077
 2276TIP3   OH2 6772   5.872   0.475   0.412 -0.5076 -0.4454  0.4326
 2276TIP3    H1 6773   5.782   0.464   0.442 -0.5593 -1.7873 -0.1496
 2276TIP3    H2 6774   5.919   0.507   0.489 -1.2673 -0.8069  1.0594
 2277TIP3   OH2 6775   7.547   0.309   0.680 -0.0170 -0.0120 -0.1995
 2277TIP3    H1 6776   7.632   0.330   0.721 -0.5452  2.1629 -0.0572
 2277TIP3    H2 6777   7.483   0.357   0.733 -1.1254 -0.1226 -1.3952
 2278TIP3   OH2 6778   6.614   0.964   6.694  0.4126  0.2750 -0.2387
 2278TIP3    H1 6779   6.705   0.966   6.663  0.4436  1.3557 -0.1388
 2278TIP3    H2 6780   6.618   0.922   6.779  0.9871  1.2381  0.2242
 2279TIP3   OH2 6781   7.121   3.791   3.851  0.1933 -0.2726 -0.7823
 2279TIP3    H1 6782   7.114   3.756   3.941  2.2976 -0.2756 -0.5645
 2279TIP3    H2 6783   7.196   3.744   3.814  0.5335  1.0963 -1.8926
 2280TIP3   OH2 6784   6.927   5.907   1.526 -0.1003 -0.1688 -0.6316
 2280TIP3    H1 6785   6.843   5.922   1.484 -0.0807  0.3195 -0.5038
 2280TIP3    H2 6786   6.909   5.910   1.619 -0.0788 -0.8752 -0.6016
 2281TIP3   OH2 6787   3.015   2.311   6.728  1.0674 -0.0527 -0.5485
 2281TIP3    H1 6788   3.054   2.357   6.654  0.8715  1.1927  0.1103
 2281TIP3    H2 6789   2.949   2.253   6.688  1.2096  0.3458 -1.3730
 2282TIP3   OH2 6790   5.211   2.801   4.450 -0.3135 -0.6641  0.0592
 2282TIP3    H1 6791   5.277   2.810   4.382  2.7041  1.9680  3.0026
 2282TIP3    H2 6792   5.142   2.863   4.424  0.7883  0.3355 -0.6021
 2283TIP3   OH2 6793   2.679   7.591   5.348  0.4486 -0.3167 -0.3543
 2283TIP3    H1 6794   2.669   7.496   5.339  0.0063 -0.3226  0.1651
 2283TIP3    H2 6795   2.758   7.611   5.297 -1.6413 -0.3636 -3.9343
 2284TIP3   OH2 6796   4.813   0.183   1.641  0.1234  0.0769  0.0380
 2284TIP3    H1 6797   4.756   0.245   1.595 -1.2345 -0.1321  1.3445
 2284TIP3    H2 6798   4.782   0.097   1.615 -0.8380 -0.0489  1.4590
 2285TIP3   OH2 6799   2.238   2.124   2.726 -0.2808  0.3450 -0.7610
 2285TIP3    H1 6800   2.248   2.202   2.672  1.1317  0.9048  0.2447
 2285TIP3    H2 6801   2.328   2.096   2.745 -0.7625 -0.9965 -0.3554
 2286TIP3   OH2 6802   5.899   2.581   4.206  0.3154  0.1818 -0.0821
 2286TIP3    H1 6803   5.855   2.515   4.152 -2.9607  1.4401  0.8011
 2286TIP3    H2 6804   5.958   2.626   4.145  1.2697 -2.2576 -1.1179
 2287TIP3   OH2 6805   7.009   6.589   5.093 -0.3196 -0.0555  0.2187
 2287TIP3    H1 6806   7.091   6.552   5.126 -1.0148 -0.1889  1.8532
 2287TIP3    H2 6807   7.033   6.628   5.009  1.0096 -1.7887 -0.2615
 2288TIP3   OH2 6808   5.113   2.138   3.356 -0.3052 -0.5285 -0.2651
 2288TIP3    H1 6809   5.181   2.096   3.409  1.5655 -0.1900 -2.2642
 2288TIP3    H2 6810   5.032   2.092   3.380  0.9588 -2.3811  0.6886
 2289TIP3   OH2 6811   5.646   2.577   1.706 -0.1043  0.0779 -0.1134
 2289TIP3    H1 6812   5.585   2.576   1.632 -0.6849  0.2088  0.3532
 2289TIP3    H2 6813   5.592   2.605   1.780 -0.3809 -3.2403  1.0953
 2290TIP3   OH2 6814   0.529   5.970   2.555 -0.1422 -0.3676 -0.1742
 2290TIP3    H1 6815   0.530   5.944   2.648  0.6511  0.2182 -0.0105
 2290TIP3    H2 6816   0.438   5.994   2.538 -0.1596  0.1977  0.6458
 2291TIP3   OH2 6817   5.406   3.786   2.166  0.3437 -0.4573  0.2752
 2291TIP3    H1 6818   5.397   3.714   2.104 -2.0232 -0.7545  0.8873
 2291TIP3    H2 6819   5.332   3.843   2.148 -0.4347 -0.5665  2.8032
 2292TIP3   OH2 6820   7.637   3.517   5.253  0.0131  0.0497  0.1347
 2292TIP3    H1 6821   7.585   3.439   5.270 -0.9429  0.6912  0.1886
 2292TIP3    H2 6822   7.722   3.483   5.224 -0.2405 -1.0051  0.5960
 2293TIP3   OH2 6823   6.993   6.840   4.926 -0.3996  0.0842 -0.0689
 2293TIP3    H1 6824   7.043   6.895   4.866  0.6187  0.4642  1.0910
 2293TIP3    H2 6825   7.018   6.870   5.013 -1.3139 -0.9229  0.5710
 2294TIP3   OH2 6826   8.112   3.354   0.400 -0.1284  0.3450 -0.3102
 2294TIP3    H1 6827   8.063   3.426   0.440 -0.0700  0.8857 -1.1983
 2294TIP3    H2 6828   8.167   3.321   0.471  0.5765  1.8252 -0.1380
 2295TIP3   OH2 6829   0.032   6.019   4.159  0.5295 -0.0467 -0.3940
 2295TIP3    H1 6830  -0.012   6.088   4.109  1.0628 -0.1165 -0.9844
 2295TIP3    H2 6831   0.121   6.016   4.122  0.3027 -1.5594 -0.9206
 2296TIP3   OH2 6832   5.597   0.984   6.698  0.7156 -0.0054  0.2619
 2296TIP3    H1 6833   5.534   0.912   6.700  0.6007 -0.0221 -1.6557
 2296TIP3    H2 6834   5.682   0.942   6.698  0.6556 -0.1378 -0.3091
 2297TIP3   OH2 6835   6.087   4.352   5.628 -0.0619  0.3676  0.2084
 2297TIP3    H1 6836   6.024   4.379   5.695  0.6554  0.8383  0.7032
 2297TIP3    H2 6837   6.071   4.258   5.617  0.1674  0.1582  1.4474
 2298TIP3   OH2 6838   3.714   0.957   1.826 -0.3315  0.3771 -0.4588
 2298TIP3    H1 6839   3.730   0.893   1.895 -1.2748  1.2149  0.5739
 2298TIP3    H2 6840   3.765   0.925   1.751 -0.7401 -1.5449  0.0295
 2299TIP3   OH2 6841   5.428   3.531   2.862 -0.0071 -0.0070 -0.0533
 2299TIP3    H1 6842   5.353   3.537   2.803  1.2183 -0.4215 -1.7485
 2299TIP3    H2 6843   5.474   3.615   2.851  1.1463 -0.7271 -1.0643
 2300TIP3   OH2 6844   5.613   5.720   1.434 -0.6629 -0.0928  0.1118
 2300TIP3    H1 6845   5.609   5.803   1.387  1.1350 -0.4195 -0.7209
 2300TIP3    H2 6846   5.524   5.687   1.434 -0.8281  0.1537 -2.7075
 2301TIP3   OH2 6847   8.069   5.861   5.243  0.2854 -0.2793 -0.4138
 2301TIP3    H1 6848   8.119   5.920   5.186 -0.7767  1.5782  0.4813
 2301TIP3    H2 6849   8.001   5.824   5.186  0.6100 -0.1915 -0.8594
 2302TIP3   OH2 6850   0.507   3.149   5.682  0.4596  0.0475  0.4225
 2302TIP3    H1 6851   0.442   3.142   5.613  1.1896 -4.1778 -0.1040
 2302TIP3    H2 6852   0.457   3.174   5.760 -1.2858 -0.3375 -0.5388
 2303TIP3   OH2 6853   3.614   5.698   1.427  0.3029 -0.6404  0.2054
 2303TIP3    H1 6854   3.641   5.606   1.438 -0.3871 -0.6677  1.9652
 2303TIP3    H2 6855   3.557   5.697   1.350 -1.2285 -2.0759  1.2813
 2304TIP3   OH2 6856   3.481   6.631   2.149  0.0547  0.4560  0.5217
 2304TIP3    H1 6857   3.532   6.678   2.084  0.3653 -0.4145  0.1157
 2304TIP3    H2 6858   3.390   6.651   2.128  0.1201 -0.3277 -0.6100
 2305TIP3   OH2 6859   0.151   3.804   2.384 -0.2315  0.0002  0.1561
 2305TIP3    H1 6860   0.123   3.848   2.304  3.0141  0.4306 -0.9191
 2305TIP3    H2 6861   0.171   3.714   2.356  0.6865  0.0814  0.5115
 2306TIP3   OH2 6862   5.047   1.771   1.630  0.2785  0.4150 -0.3182
 2306TIP3    H1 6863   5.027   1.697   1.688  1.9778  1.0919  1.2364
 2306TIP3    H2 6864   5.039   1.735   1.542  0.9047 -1.6076  0.3917
 2307TIP3   OH2 6865   0.213   1.584   2.532  0.2605 -0.8163  0.1284
 2307TIP3    H1 6866   0.275   1.619   2.596 -0.4044  0.3079  0.1798
 2307TIP3    H2 6867   0.243   1.619   2.448 -0.4614 -0.0252  0.1912
 2308TIP3   OH2 6868   1.886   1.732   3.702  0.1114  0.6435 -0.4986
 2308TIP3    H1 6869   1.934   1.809   3.732 -1.7431  0.9678  1.9018
 2308TIP3    H2 6870   1.918   1.661   3.757  1.8685 -0.4731 -2.7456
 2309TIP3   OH2 6871   6.306   3.474   1.965 -0.2258 -0.3829  0.0132
 2309TIP3    H1 6872   6.221   3.464   2.007  0.0333 -1.5249  0.3022
 2309TIP3    H2 6873   6.286   3.501   1.876 -0.8080  1.2963  0.6221
 2310TIP3   OH2 6874   2.555   0.248   2.487  0.1866  0.3055  0.2207
 2310TIP3    H1 6875   2.569   0.298   2.567 -0.1064 -0.9915  1.1033
 2310TIP3    H2 6876   2.469   0.278   2.456 -1.1364 -1.3455  2.0794
 2311TIP3   OH2 6877   6.866   7.193   1.766  0.2304  0.2386 -0.5444
 2311TIP3    H1 6878   6.936   7.258   1.777  0.5711  0.4724 -3.5098
 2311TIP3    H2 6879   6.788   7.238   1.798  1.0264  0.7586  0.7921
 2312TIP3   OH2 6880   5.170   4.155   2.058 -0.5581 -0.2760  0.5350
 2312TIP3    H1 6881   5.224   4.121   2.129 -1.5553 -0.9763  0.9715
 2312TIP3    H2 6882   5.155   4.080   2.001 -0.6415  0.0382  0.1417
 2313TIP3   OH2 6883   7.589   3.287   2.673  0.8218  0.0550  0.5149
 2313TIP3    H1 6884   7.495   3.285   2.658  0.6921  2.3386  0.6879
 2313TIP3    H2 6885   7.624   3.218   2.617 -0.8813 -0.4718  0.0413
 2314TIP3   OH2 6886   0.465   2.516   4.120 -0.1294  0.3348 -0.0022
 2314TIP3    H1 6887   0.373   2.537   4.136 -0.3549 -1.0146  0.7006
 2314TIP3    H2 6888   0.510   2.545   4.199 -0.0693  0.3516 -0.0427
 2315TIP3   OH2 6889   8.198   4.346   5.555  0.5624  0.3588 -0.1383
 2315TIP3    H1 6890   8.127   4.307   5.504  0.6370 -1.5310  1.0919
 2315TIP3    H2 6891   8.269   4.358   5.493  0.9446 -2.6568 -0.4509
 2316TIP3   OH2 6892   0.244   4.819   1.166 -0.1275 -0.0661 -0.1391
 2316TIP3    H1 6893   0.206   4.812   1.254 -2.4377 -0.0426 -1.0833
 2316TIP3    H2 6894   0.190   4.763   1.111  0.2222  1.2136 -1.8854
 2317TIP3   OH2 6895   5.227   3.322   2.967  0.1979 -0.1038  0.0848
 2317TIP3    H1 6896   5.197   3.310   2.876 -0.9608  1.0072  0.2930
 2317TIP3    H2 6897   5.288   3.395   2.962  0.0064  0.0653  0.2287
 2318TIP3   OH2 6898   7.409   3.519   6.690  0.1287  0.0196 -0.6928
 2318TIP3    H1 6899   7.383   3.586   6.754 -1.1473  0.1047 -1.2596
 2318TIP3    H2 6900   7.407   3.437   6.739 -0.7710  0.0924 -0.5840
 2319TIP3   OH2 6901   0.974   0.792   6.298 -0.0610  0.4207 -0.5439
 2319TIP3    H1 6902   1.009   0.832   6.219  0.9023  2.0692  0.6498
 2319TIP3    H2 6903   0.941   0.866   6.350  0.1257 -0.4977  0.9584
 2320TIP3   OH2 6904   7.836   0.724   6.025 -0.3740  0.1259  0.1375
 2320TIP3    H1 6905   7.743   0.706   6.041 -0.3361  0.0547  0.2817
 2320TIP3    H2 6906   7.854   0.684   5.941 -0.7422  1.0797 -0.4192
 2321TIP3   OH2 6907   4.762   3.826   0.614  0.1077 -0.2586  0.0736
 2321TIP3    H1 6908   4.823   3.888   0.575  2.0351 -1.2577  1.3446
 2321TIP3    H2 6909   4.773   3.745   0.563 -1.1611 -0.0775 -0.5232
 2322TIP3   OH2 6910   0.252   5.168   2.601 -0.5275 -0.5179 -0.1181
 2322TIP3    H1 6911   0.311   5.235   2.566 -2.8283  0.6360 -2.1138
 2322TIP3    H2 6912   0.230   5.114   2.525 -0.0609 -2.5180  1.1247
 2323TIP3   OH2 6913   4.128   2.370   5.746 -1.0918 -0.4529 -0.5559
 2323TIP3    H1 6914   4.191   2.327   5.803 -0.5820  0.3660 -0.4923
 2323TIP3    H2 6915   4.173   2.379   5.662 -1.9163 -1.8572 -1.1928
 2324TIP3   OH2 6916   0.352   5.851   1.572  0.0078  0.4632  0.1118
 2324TIP3    H1 6917   0.437   5.808   1.562 -1.0314 -1.6865 -0.0675
 2324TIP3    H2 6918   0.355   5.890   1.659  1.6741  1.6678 -0.4457
 2325TIP3   OH2 6919   4.673   4.318   4.173 -0.0647 -0.6602  0.0243
 2325TIP3    H1 6920   4.666   4.401   4.220  1.0725 -0.5188 -0.0386
 2325TIP3    H2 6921   4.585   4.279   4.179 -0.8155  0.8624 -0.5555
 2326TIP3   OH2 6922   4.855   6.051   4.922 -0.0687 -0.0252 -0.5690
 2326TIP3    H1 6923   4.883   6.122   4.980  0.1038  0.4486 -1.2203
 2326TIP3    H2 6924   4.904   5.975   4.952  0.5526  0.3819 -0.5435
 2327TIP3   OH2 6925   5.742   5.911   0.211 -0.2269 -0.1588  0.6513
 2327TIP3    H1 6926   5.706   5.827   0.239  0.0832 -0.4427  0.2155
 2327TIP3    H2 6927   5.780   5.894   0.125 -0.8593  0.6163  0.2029
 2328TIP3   OH2 6928   2.162   4.591   1.803  0.1073 -0.3509 -0.2748
 2328TIP3    H1 6929   2.132   4.681   1.786 -1.0424 -0.0233  2.8535
 2328TIP3    H2 6930   2.255   4.601   1.824  0.1016  0.0625 -0.4263
 2329TIP3   OH2 6931   5.950   4.553   5.434 -0.6796 -0.3391  0.3193
 2329TIP3    H1 6932   5.995   4.603   5.502  0.5396 -1.5033  0.4162
 2329TIP3    H2 6933   5.975   4.596   5.353  0.2292 -0.6833  0.4103
 2330TIP3   OH2 6934   4.926   4.622   0.153 -0.7648 -0.2117  0.4065
 2330TIP3    H1 6935   4.921   4.528   0.139 -0.7697 -0.0976 -0.3896
 2330TIP3    H2 6936   4.871   4.660   0.085  0.4038  0.4352 -0.2149
 2331TIP3   OH2 6937   1.516   4.335   6.491 -0.1320  0.3638 -0.3548
 2331TIP3    H1 6938   1.602   4.372   6.512  1.1665 -2.0919 -0.9327
 2331TIP3    H2 6939   1.518   4.321   6.396 -1.6550  1.2850 -0.5677
 2332TIP3   OH2 6940   4.586   3.629   1.533  0.4147  0.1618 -0.6652
 2332TIP3    H1 6941   4.640   3.683   1.475 -0.8441 -1.2358 -3.3217
 2332TIP3    H2 6942   4.496   3.651   1.510 -0.1230 -0.9964  0.2376
 2333TIP3   OH2 6943   5.590   2.796   3.950 -0.4805  0.0299  0.0761
 2333TIP3    H1 6944   5.670   2.787   3.897  0.7353  0.6456  1.7044
 2333TIP3    H2 6945   5.558   2.884   3.932  0.2891  0.4753  0.7625
 2334TIP3   OH2 6946   5.277   3.407   2.446 -0.1761  0.2665  0.3236
 2334TIP3    H1 6947   5.243   3.380   2.361  0.8686 -0.9141  0.2629
 2334TIP3    H2 6948   5.370   3.425   2.431 -0.1571  0.8449  1.0556
 2335TIP3   OH2 6949   3.328   6.814   1.588  0.4173 -0.3626 -0.1081
 2335TIP3    H1 6950   3.238   6.833   1.560  0.1514 -0.3251  0.7442
 2335TIP3    H2 6951   3.351   6.886   1.645  1.3324  0.0911 -1.0185
 2336TIP3   OH2 6952   2.350   5.728   1.364 -0.5189  0.0463 -0.1937
 2336TIP3    H1 6953   2.321   5.818   1.349 -1.1845 -0.1821 -0.3124
 2336TIP3    H2 6954   2.437   5.724   1.324 -1.4613 -0.0302 -2.3484
 2337TIP3   OH2 6955   4.748   3.652   5.208 -0.3177  0.0138 -0.1530
 2337TIP3    H1 6956   4.728   3.644   5.115  1.5886  0.0573 -0.6169
 2337TIP3    H2 6957   4.665   3.676   5.249 -0.9534  1.1381 -1.9843
 2338TIP3   OH2 6958   3.923   2.202   2.786 -0.5443  0.3653  0.1753
 2338TIP3    H1 6959   3.905   2.150   2.708 -3.1114 -0.4639  1.2052
 2338TIP3    H2 6960   4.014   2.181   2.809 -0.9740 -2.5011 -0.3663
 2339TIP3   OH2 6961   0.908   1.636   3.359 -0.0201 -0.2336 -0.0499
 2339TIP3    H1 6962   0.851   1.629   3.436 -0.0428  1.9404  0.1925
 2339TIP3    H2 6963   0.880   1.564   3.302 -1.4998 -0.5523  1.0180
 2340TIP3   OH2 6964   5.017   0.686   5.559 -0.7967  0.0551  0.0277
 2340TIP3    H1 6965   4.938   0.716   5.603 -0.3392  0.2025  0.7572
 2340TIP3    H2 6966   4.996   0.598   5.529 -0.9489 -0.2438  0.9881
 2341TIP3   OH2 6967   2.838   5.875   5.379 -0.2190  0.2887  0.5533
 2341TIP3    H1 6968   2.775   5.923   5.326  1.2355  1.0967 -0.5323
 2341TIP3    H2 6969   2.823   5.783   5.357  0.1431  0.5816 -1.0764
 2342TIP3   OH2 6970   8.233   7.597   0.230  0.0156  0.2438 -0.1905
 2342TIP3    H1 6971   8.234   7.630   0.320  0.3310  0.1706 -0.1640
 2342TIP3    H2 6972   8.324   7.572   0.213 -0.5878 -3.1364  0.7396
 2343TIP3   OH2 6973   6.981   6.356   6.407  0.2047 -0.0900 -0.6747
 2343TIP3    H1 6974   7.044   6.295   6.446 -0.0368  0.1654  0.1519
 2343TIP3    H2 6975   6.897   6.310   6.412 -0.4645  1.1988  2.3095
 2344TIP3   OH2 6976   5.406   0.604   0.179  0.1541 -0.1812  0.4220
 2344TIP3    H1 6977   5.393   0.617   0.085  1.8274  0.9228  0.3073
 2344TIP3    H2 6978   5.349   0.670   0.220 -0.7027 -0.7719  0.2108
 2345TIP3   OH2 6979   0.069   4.787   0.208 -0.0837  0.0298  0.4276
 2345TIP3    H1 6980   0.148   4.832   0.177  0.4131 -0.6313  0.7157
 2345TIP3    H2 6981   0.100   4.701   0.238 -0.9203 -0.2590  0.4944
 2346TIP3   OH2 6982   5.761   6.184   4.553  0.2270  0.4823 -0.0034
 2346TIP3    H1 6983   5.801   6.197   4.467 -1.3734  1.1844 -0.6876
 2346TIP3    H2 6984   5.690   6.121   4.537  1.5531 -1.4543  1.3446
 2347TIP3   OH2 6985   1.247   7.470   1.541  0.4524  0.5724  0.0570
 2347TIP3    H1 6986   1.275   7.524   1.615  2.2636  0.5959 -0.6021
 2347TIP3    H2 6987   1.314   7.402   1.534 -1.6503 -1.7148  0.7478
 2348TIP3   OH2 6988   0.235   3.388   1.314 -0.2398 -0.0173  0.3179
 2348TIP3    H1 6989   0.232   3.402   1.409  1.6499  1.4401  0.2293
 2348TIP3    H2 6990   0.193   3.465   1.277  2.1444  1.2179 -0.0258
 2349TIP3   OH2 6991   0.947   2.822   4.926 -0.5157  0.6789  1.0504
 2349TIP3    H1 6992   1.037   2.838   4.955 -0.3329  0.8973  0.3742
 2349TIP3    H2 6993   0.924   2.738   4.965  0.2903  0.1964  0.5143
 2350TIP3   OH2 6994   4.393   6.013   1.708  0.1408 -0.4969 -0.2066
 2350TIP3    H1 6995   4.453   5.941   1.685 -0.9963 -1.0060 -1.8093
 2350TIP3    H2 6996   4.306   5.976   1.695 -0.4825  1.0875 -0.7948
 2351TIP3   OH2 6997   5.759   6.737   2.309  0.4366  0.1895 -0.1996
 2351TIP3    H1 6998   5.768   6.824   2.348  1.2915  0.1492 -0.2727
 2351TIP3    H2 6999   5.697   6.749   2.237 -0.4890  0.4422  0.6305
 2352TIP3   OH2 7000   1.054   1.005   2.289  0.5896 -0.1205  0.5448
 2352TIP3    H1 7001   1.017   0.961   2.213  1.7708 -0.0301 -0.0967
 2352TIP3    H2 7002   1.082   0.934   2.347 -0.7040 -0.1936  1.1310
 2353TIP3   OH2 7003   2.129   6.926   0.935  0.1246  0.3237 -0.0109
 2353TIP3    H1 7004   2.110   6.911   0.842 -1.4818 -1.6510  0.5621
 2353TIP3    H2 7005   2.122   7.021   0.946 -0.3103  0.5356 -1.7600
 2354TIP3   OH2 7006   3.248   6.904   3.719 -0.5721  0.0437 -0.3167
 2354TIP3    H1 7007   3.167   6.903   3.771 -0.5025  1.8222 -0.1087
 2354TIP3    H2 7008   3.226   6.957   3.642 -0.4237 -1.8673 -1.7570
 2355TIP3   OH2 7009   8.095   3.648   1.682  0.5383 -0.3922  0.3069
 2355TIP3    H1 7010   8.104   3.654   1.587 -2.7439  2.7755  0.0063
 2355TIP3    H2 7011   8.136   3.729   1.715 -3.0188  1.3381  0.9312
 2356TIP3   OH2 7012   2.864   3.604   1.431 -0.1527 -0.2463  0.2596
 2356TIP3    H1 7013   2.857   3.663   1.356 -0.1258  0.8723  1.1093
 2356TIP3    H2 7014   2.774   3.579   1.451 -0.3108  0.7024  0.7973
 2357TIP3   OH2 7015   3.470   3.161   3.094 -0.5119  0.6993 -1.0598
 2357TIP3    H1 7016   3.388   3.114   3.108 -0.5957  0.9199 -0.7944
 2357TIP3    H2 7017   3.521   3.104   3.036 -1.1719  0.9344 -1.8928
 2358TIP3   OH2 7018   8.028   0.805   2.720  0.1619  0.5889 -0.0752
 2358TIP3    H1 7019   8.041   0.809   2.625 -0.7167  2.6101 -0.1637
 2358TIP3    H2 7020   7.960   0.739   2.732 -0.4521  1.0438 -0.9578
 2359TIP3   OH2 7021   4.163   1.244   0.284 -0.4733  0.8811  0.0191
 2359TIP3    H1 7022   4.129   1.220   0.197  2.5835 -0.4065 -0.9382
 2359TIP3    H2 7023   4.219   1.319   0.267  0.7889  0.1206  0.6958
 2360TIP3   OH2 7024   3.476   7.066   3.765  0.6153  0.0172 -0.1129
 2360TIP3    H1 7025   3.404   7.003   3.752  1.2772 -0.7762 -0.0139
 2360TIP3    H2 7026   3.531   7.026   3.832  0.7784  0.9650  0.3355
 2361TIP3   OH2 7027   7.871   7.769   4.232 -0.3489  0.4460 -0.8983
 2361TIP3    H1 7028   7.866   7.851   4.182  1.5539 -0.0678 -2.0589
 2361TIP3    H2 7029   7.810   7.710   4.189 -2.1509  1.3633  0.2854
 2362TIP3   OH2 7030   7.255   4.686   4.567  1.0802  0.0042 -0.0268
 2362TIP3    H1 7031   7.281   4.660   4.655  1.1018 -0.4317 -0.1569
 2362TIP3    H2 7032   7.282   4.613   4.512 -0.0420 -0.2844 -0.2218
 2363TIP3   OH2 7033   4.238   5.921   4.818  0.6850  0.7083 -0.0126
 2363TIP3    H1 7034   4.294   5.891   4.889  3.1885  2.1569 -1.2441
 2363TIP3    H2 7035   4.274   5.879   4.740 -1.3857 -0.0511 -0.6502
 2364TIP3   OH2 7036   4.327   4.809   4.286 -0.1138  0.0646 -0.2549
 2364TIP3    H1 7037   4.390   4.862   4.334  1.2040 -1.6204 -0.0192
 2364TIP3    H2 7038   4.307   4.860   4.207  0.4588  1.2394  0.3351
 2365TIP3   OH2 7039   2.344   7.126   4.666  0.3990  0.1907  0.0097
 2365TIP3    H1 7040   2.270   7.185   4.673 -0.8553 -1.4866  1.5908
 2365TIP3    H2 7041   2.421   7.183   4.667 -0.8054  1.8707 -0.3385
 2366TIP3   OH2 7042   4.100   4.986   1.166  0.1261  0.2308 -0.2510
 2366TIP3    H1 7043   4.051   4.997   1.247  1.8092 -0.1419  0.8724
 2366TIP3    H2 7044   4.133   4.896   1.169  1.3538  0.6407 -0.6457
 2367TIP3   OH2 7045   1.490   3.450   1.098 -0.4424 -0.3337 -0.1409
 2367TIP3    H1 7046   1.585   3.455   1.090 -0.2786 -1.6965  0.6861
 2367TIP3    H2 7047   1.462   3.542   1.103  0.9022  0.0698  0.5569
 2368TIP3   OH2 7048   0.694   0.761   1.840 -0.3899  0.0934  0.3508
 2368TIP3    H1 7049   0.734   0.845   1.817  2.7567 -0.7310  2.1439
 2368TIP3    H2 7050   0.701   0.708   1.761 -0.8539  0.9901 -0.2971
 2369TIP3   OH2 7051   7.040   4.636   1.016  0.0452  0.0404  0.0926
 2369TIP3    H1 7052   6.951   4.648   0.983  0.2077  1.1183  0.0196
 2369TIP3    H2 7053   7.050   4.700   1.086  0.7657 -0.0604  0.0959
 2370TIP3   OH2 7054   6.559   1.874   4.727  0.0401  0.0338  0.8012
 2370TIP3    H1 7055   6.609   1.792   4.723  2.4400  1.3052  2.4860
 2370TIP3    H2 7056   6.521   1.874   4.814 -3.2973 -0.9806 -0.4896
 2371TIP3   OH2 7057   2.213   1.977   4.112  0.0336  0.3139  0.4409
 2371TIP3    H1 7058   2.223   1.882   4.106 -0.4588  0.2287  0.8985
 2371TIP3    H2 7059   2.276   2.012   4.049 -0.5635 -0.3334 -0.5280
 2372TIP3   OH2 7060   3.638   2.077   3.613 -0.1252  0.1878  0.0056
 2372TIP3    H1 7061   3.637   1.982   3.615 -2.0212  0.1699  1.7545
 2372TIP3    H2 7062   3.565   2.100   3.555  0.7646  0.6294 -0.9884
 2373TIP3   OH2 7063   1.485   1.367   0.622 -0.4222  0.3974  0.0789
 2373TIP3    H1 7064   1.528   1.452   0.639  1.2887 -0.5794  0.9286
 2373TIP3    H2 7065   1.517   1.310   0.691 -1.7991 -0.8902 -0.2984
 2374TIP3   OH2 7066   4.146   1.997   0.621  0.0854  0.1386  0.1560
 2374TIP3    H1 7067   4.144   2.083   0.579  0.2818  0.1451  0.1595
 2374TIP3    H2 7068   4.104   1.938   0.558  1.4894 -0.0928 -0.6039
 2375TIP3   OH2 7069   6.173   3.415   2.558  0.1611 -0.5511 -0.2334
 2375TIP3    H1 7070   6.149   3.427   2.466  2.5581  1.4134 -0.7025
 2375TIP3    H2 7071   6.090   3.397   2.602 -1.0176 -2.1327 -2.8135
 2376TIP3   OH2 7072   0.770   7.436   5.257 -0.2469  0.3218 -0.0507
 2376TIP3    H1 7073   0.789   7.527   5.281  0.2980 -0.3396  2.2584
 2376TIP3    H2 7074   0.730   7.443   5.170  1.1927  2.6272 -0.6518
 2377TIP3   OH2 7075   2.259   0.148   2.927 -0.1393  0.2007 -0.5545
 2377TIP3    H1 7076   2.324   0.141   2.996 -1.0943  1.8805  0.5958
 2377TIP3    H2 7077   2.202   0.072   2.940  0.4491 -0.2092 -0.3375
 2378TIP3   OH2 7078   0.374   5.134   5.693 -0.2346 -0.3433 -0.2565
 2378TIP3    H1 7079   0.361   5.118   5.787  2.3701 -0.8586  0.1025
 2378TIP3    H2 7080   0.385   5.229   5.687 -2.1276 -0.0939 -0.3459
 2379TIP3   OH2 7081   6.689   5.903   1.064 -0.8603  0.6235 -0.5203
 2379TIP3    H1 7082   6.725   5.833   1.010 -0.4677 -0.4578  1.0713
 2379TIP3    H2 7083   6.603   5.871   1.091 -0.8490  0.9237 -0.1084
 2380TIP3   OH2 7084   4.559   1.133   0.512 -0.1217 -0.0605  0.0411
 2380TIP3    H1 7085   4.538   1.074   0.439  1.1852 -1.1499  0.4882
 2380TIP3    H2 7086   4.561   1.076   0.589 -0.4216  0.8764  0.7526
 2381TIP3   OH2 7087   7.045   6.542   4.815  0.6541  0.1162 -0.0082
 2381TIP3    H1 7088   7.037   6.563   4.722  2.7652  1.1184 -0.0230
 2381TIP3    H2 7089   7.101   6.464   4.818  1.4727  0.7014  0.4309
 2382TIP3   OH2 7090   6.437   0.008   0.370  0.2116 -0.1042  0.0999
 2382TIP3    H1 7091   6.500   0.036   0.303 -0.8222  1.3673 -0.3005
 2382TIP3    H2 7092   6.458   0.060   0.446  0.1656 -0.4019  0.3192
 2383TIP3   OH2 7093   6.998   0.748   1.880  0.4229 -0.0709  0.3877
 2383TIP3    H1 7094   6.916   0.795   1.865  0.8839 -0.0432 -2.5627
 2383TIP3    H2 7095   6.971   0.658   1.898 -0.2872  0.3263  1.3983
 2384TIP3   OH2 7096   4.759   3.317   3.011  0.2068  0.0847  0.3944
 2384TIP3    H1 7097   4.777   3.225   2.992 -2.1475 -0.7579  1.7484
 2384TIP3    H2 7098   4.829   3.344   3.070  1.1904 -0.6681 -0.3950
 2385TIP3   OH2 7099   7.692   6.848   5.719  0.1505  0.3533  0.1641
 2385TIP3    H1 7100   7.699   6.934   5.677 -0.0521  0.1256 -0.3359
 2385TIP3    H2 7101   7.601   6.844   5.749 -0.1065 -0.0688 -0.6490
 2386TIP3   OH2 7102   4.921   6.670   4.793  0.4986  0.1732  0.3596
 2386TIP3    H1 7103   4.915   6.716   4.877  2.2068 -0.5311  0.9013
 2386TIP3    H2 7104   5.006   6.697   4.757 -0.1450  0.3566 -1.1025
 2387TIP3   OH2 7105   6.454   6.713   2.715  0.4632  0.2262  0.3718
 2387TIP3    H1 7106   6.436   6.685   2.626 -1.0034  1.8559  0.1011
 2387TIP3    H2 7107   6.368   6.717   2.757  0.9112  1.3738  1.2467
 2388TIP3   OH2 7108   3.122   0.254   1.404  0.1483 -0.3675 -0.1091
 2388TIP3    H1 7109   3.184   0.323   1.385 -0.1450 -0.5113 -1.7467
 2388TIP3    H2 7110   3.175   0.174   1.408  0.5465 -0.0363  2.2133
 2389TIP3   OH2 7111   0.685   1.364   2.455 -0.5215  0.6581 -0.2663
 2389TIP3    H1 7112   0.731   1.440   2.420  1.3780 -0.6440 -0.8032
 2389TIP3    H2 7113   0.755   1.300   2.473 -1.8759 -0.4009  1.6407
 2390TIP3   OH2 7114   6.046   2.123   1.886  0.3419  0.1805 -0.3393
 2390TIP3    H1 7115   6.094   2.130   1.803  1.9371  0.0431  0.5306
 2390TIP3    H2 7116   6.011   2.034   1.886  1.0255 -0.0899 -0.5171
 2391TIP3   OH2 7117   5.401   7.500   4.015 -0.1132 -0.6835  0.2048
 2391TIP3    H1 7118   5.317   7.457   4.001 -0.2048 -0.2715 -0.5316
 2391TIP3    H2 7119   5.392   7.586   3.975  0.1983 -0.0950  1.3443
 2392TIP3   OH2 7120   2.295   4.538   5.072  0.6177  0.1835 -0.5481
 2392TIP3    H1 7121   2.209   4.564   5.103 -0.2888 -0.1181 -2.6582
 2392TIP3    H2 7122   2.335   4.618   5.040  0.8742  0.2116 -0.1687
 2393TIP3   OH2 7123   4.176   6.401   2.163 -0.4346 -0.4116 -0.3589
 2393TIP3    H1 7124   4.150   6.471   2.223 -1.5173 -0.3510 -0.8783
 2393TIP3    H2 7125   4.258   6.367   2.200  0.9561  2.1117 -0.9250
 2394TIP3   OH2 7126   6.999   4.004   5.044  0.0065  0.3018 -0.1495
 2394TIP3    H1 7127   6.981   4.043   5.129  3.0052  1.7971 -0.0757
 2394TIP3    H2 7128   7.067   3.939   5.061  2.2274  2.0900 -1.5585
 2395TIP3   OH2 7129   1.543   6.328   6.075  0.0939  0.1207  0.2828
 2395TIP3    H1 7130   1.464   6.275   6.062 -2.0024  2.9521  0.6953
 2395TIP3    H2 7131   1.580   6.296   6.157 -0.5799 -1.2752  0.0714
 2396TIP3   OH2 7132   5.354   4.280   4.091  0.7454 -0.5953  0.2315
 2396TIP3    H1 7133   5.355   4.200   4.144 -0.4170 -0.3368  0.6699
 2396TIP3    H2 7134   5.294   4.339   4.137  0.2490 -0.0997 -0.9984
 2397TIP3   OH2 7135   2.642   7.293   2.696 -0.6151  0.3494 -0.2815
 2397TIP3    H1 7136   2.734   7.287   2.674 -0.5474 -0.8162  0.2462
 2397TIP3    H2 7137   2.596   7.291   2.612 -0.2085 -0.1619 -0.4887
 2398TIP3   OH2 7138   2.389   4.700   5.744  0.0098  0.4463  0.1764
 2398TIP3    H1 7139   2.321   4.732   5.803 -2.3547 -1.5063 -1.2957
 2398TIP3    H2 7140   2.387   4.605   5.755  0.4742  0.1296 -2.0087
 2399TIP3   OH2 7141   0.741   3.176   6.198 -0.0210  0.4849 -0.3018
 2399TIP3    H1 7142   0.708   3.198   6.285 -0.4398 -0.5359 -0.1781
 2399TIP3    H2 7143   0.737   3.257   6.149 -2.0298  0.5876 -0.0520
 2400TIP3   OH2 7144   8.246   2.497   1.858 -0.0892  0.4433 -0.4161
 2400TIP3    H1 7145   8.256   2.529   1.768  1.2246 -2.3546 -1.3768
 2400TIP3    H2 7146   8.243   2.402   1.850 -0.5233  0.1066  2.4864
 2401TIP3   OH2 7147   3.507   2.706   6.708  0.4018  0.1894  0.1915
 2401TIP3    H1 7148   3.523   2.619   6.745 -0.1540  0.1907  0.4313
 2401TIP3    H2 7149   3.543   2.700   6.619 -1.4795 -0.9523 -0.5532
 2402TIP3   OH2 7150   4.436   2.202   1.308 -0.1342 -0.5057 -0.2252
 2402TIP3    H1 7151   4.359   2.235   1.355 -0.7216 -0.1494 -1.3906
 2402TIP3    H2 7152   4.498   2.179   1.377 -0.5812  0.9028  0.7047
 2403TIP3   OH2 7153   6.177   2.853   3.322  0.3604  0.3378 -0.3102
 2403TIP3    H1 7154   6.198   2.764   3.293  2.1177  1.0407 -1.3314
 2403TIP3    H2 7155   6.194   2.853   3.416  0.5263 -0.3515 -0.3362
 2404TIP3   OH2 7156   1.475   6.570   2.029 -0.3099  0.1097  0.4445
 2404TIP3    H1 7157   1.382   6.590   2.044 -0.6350 -1.4233  0.5922
 2404TIP3    H2 7158   1.505   6.640   1.971 -1.7534  0.2366 -0.1891
 2405TIP3   OH2 7159   7.427   3.019   4.919  0.1444  0.1529 -0.4908
 2405TIP3    H1 7160   7.396   3.083   4.983 -1.4236  0.3542 -1.4110
 2405TIP3    H2 7161   7.514   3.050   4.895  0.5822  0.3198  1.1747
 2406TIP3   OH2 7162   1.705   3.198   4.057  0.2681  0.0469 -0.2301
 2406TIP3    H1 7163   1.662   3.115   4.038  1.2337 -0.4488 -0.3443
 2406TIP3    H2 7164   1.765   3.178   4.129  0.0773  0.7919  0.1449
 2407TIP3   OH2 7165   7.460   0.293   4.051  0.4080  0.3854 -0.0884
 2407TIP3    H1 7166   7.463   0.387   4.030 -0.6096  0.3014 -0.6927
 2407TIP3    H2 7167   7.385   0.260   4.001  1.2346 -0.9182 -0.5245
 2408TIP3   OH2 7168   0.101   1.577   1.279 -0.4381  0.6732 -0.3871
 2408TIP3    H1 7169   0.037   1.538   1.219  1.9820 -1.3670 -1.8466
 2408TIP3    H2 7170   0.096   1.522   1.358 -0.7177  0.7231 -0.3708
 2409TIP3   OH2 7171   5.297   1.087   2.891  0.1451  0.1856  0.2981
 2409TIP3    H1 7172   5.314   1.178   2.865 -0.4741  0.7679  1.8002
 2409TIP3    H2 7173   5.278   1.042   2.809  0.8413  1.3258 -0.5223
 2410TIP3   OH2 7174   3.428   2.889   5.658  0.2124  0.0292 -0.0714
 2410TIP3    H1 7175   3.520   2.868   5.641 -0.4160 -2.4039 -0.9287
 2410TIP3    H2 7176   3.430   2.973   5.703  2.9425 -0.5480  1.0898
 2411TIP3   OH2 7177   6.940   1.600   3.543 -0.5814  0.4318 -0.1459
 2411TIP3    H1 7178   6.850   1.628   3.558 -0.8989  0.2329 -1.5664
 2411TIP3    H2 7179   6.941   1.566   3.454  0.6614 -0.5984  0.2297
 2412TIP3   OH2 7180   0.593   6.995   4.560 -0.1437 -0.6895 -0.3064
 2412TIP3    H1 7181   0.529   7.022   4.494  0.5446 -0.6942 -0.9924
 2412TIP3    H2 7182   0.540   6.966   4.634 -0.9183  0.5831 -0.3291
 2413TIP3   OH2 7183   3.804   1.421   0.047 -0.6871  0.2091 -0.3273
 2413TIP3    H1 7184   3.816   1.473  -0.032  2.5512 -1.4197 -1.0352
 2413TIP3    H2 7185   3.830   1.480   0.118 -0.4835  0.6638 -0.7711
 2414TIP3   OH2 7186   0.131   5.784   2.598 -0.7257  0.3148 -0.1883
 2414TIP3    H1 7187   0.194   5.765   2.667  1.1775 -0.6650 -2.0958
 2414TIP3    H2 7188   0.077   5.705   2.592  0.4586 -0.4787 -1.1238
 2415TIP3   OH2 7189   1.771   7.127   1.855 -0.1359 -0.2865  0.3215
 2415TIP3    H1 7190   1.751   7.204   1.908  0.0023  0.6352 -0.9258
 2415TIP3    H2 7191   1.843   7.154   1.798 -0.3221 -1.2153 -0.3916
 2416TIP3   OH2 7192   0.611   6.518   4.973  0.0390 -0.6321  0.9308
 2416TIP3    H1 7193   0.655   6.538   5.056  0.6721 -1.1662  0.7336
 2416TIP3    H2 7194   0.673   6.544   4.905 -0.9218  0.8484  0.5725
 2417TIP3   OH2 7195   3.583   5.634   5.678  0.2612 -0.4993  0.3167
 2417TIP3    H1 7196   3.530   5.708   5.707 -1.5389 -1.1852 -1.0000
 2417TIP3    H2 7197   3.623   5.600   5.758  0.4764  1.3747  1.0464
 2418TIP3   OH2 7198   2.464   3.283   0.493  0.0023 -0.6657 -0.2743
 2418TIP3    H1 7199   2.479   3.363   0.442 -0.1154 -0.2231  0.3777
 2418TIP3    H2 7200   2.488   3.212   0.433 -1.3767 -0.2193 -1.4019
 2419TIP3   OH2 7201   0.863   2.218   2.987 -0.2853 -0.9043  0.5023
 2419TIP3    H1 7202   0.801   2.184   3.051 -0.3460 -1.2957  0.2394
 2419TIP3    H2 7203   0.910   2.140   2.956 -1.0642 -0.8764 -0.7945
 2420TIP3   OH2 7204   0.616   4.070   6.534 -0.0771 -0.0536  0.4298
 2420TIP3    H1 7205   0.681   4.003   6.514 -0.0283 -0.2701  1.2649
 2420TIP3    H2 7206   0.647   4.109   6.615  0.4956  1.7698 -0.6116
 2421TIP3   OH2 7207   5.634   3.814   3.605  0.2359 -0.1181  0.1749
 2421TIP3    H1 7208   5.729   3.822   3.595  0.5236 -0.6883  2.0396
 2421TIP3    H2 7209   5.607   3.900   3.640  0.0198  0.1091 -0.5319
 2422TIP3   OH2 7210   7.998   4.194   5.441  0.3543  0.1969  0.0728
 2422TIP3    H1 7211   7.913   4.151   5.431  0.0788  0.4938  1.0108
 2422TIP3    H2 7212   8.005   4.252   5.365 -1.4627  2.1027  1.2400
 2423TIP3   OH2 7213   4.802   5.506   0.186  0.1359 -0.0824 -0.8094
 2423TIP3    H1 7214   4.878   5.497   0.245 -0.1010 -0.3927 -0.5482
 2423TIP3    H2 7215   4.819   5.443   0.116 -1.6416 -2.9626  1.1460
 2424TIP3   OH2 7216   5.360   4.398   6.460  0.4940  0.7053  0.0673
 2424TIP3    H1 7217   5.453   4.420   6.464  0.7036 -0.1114 -0.0462
 2424TIP3    H2 7218   5.338   4.373   6.550 -0.2470  3.2248  0.6646
 2425TIP3   OH2 7219   4.345   3.217   0.814  0.1968  0.3640 -0.0372
 2425TIP3    H1 7220   4.405   3.216   0.739  0.8467 -0.5289  0.4782
 2425TIP3    H2 7221   4.260   3.190   0.777  0.5819 -0.3815 -0.3960
 2426TIP3   OH2 7222   8.259   4.564   2.126 -0.4366  0.3175  0.1041
 2426TIP3    H1 7223   8.270   4.656   2.148  0.8748  0.5919 -1.5119
 2426TIP3    H2 7224   8.237   4.564   2.032 -1.8670 -0.9462  0.4072
 2427TIP3   OH2 7225   1.023   4.521   0.918 -0.2815  0.1958  0.4095
 2427TIP3    H1 7226   0.933   4.487   0.913 -0.5729  0.6437  1.9434
 2427TIP3    H2 7227   1.070   4.456   0.971  0.3160 -0.0345 -0.3856
 2428TIP3   OH2 7228   4.127   4.475   6.286  0.1844 -0.0078  0.6482
 2428TIP3    H1 7229   4.200   4.423   6.252 -0.1994 -0.0482 -0.1283
 2428TIP3    H2 7230   4.110   4.439   6.373 -1.6588 -2.8594 -0.7463
 2429TIP3   OH2 7231   4.500   5.389   5.005 -0.6397  0.2068  0.2311
 2429TIP3    H1 7232   4.475   5.415   4.916  1.1335 -0.3562 -0.4772
 2429TIP3    H2 7233   4.594   5.408   5.010 -0.3513 -1.3575  1.4090
 2430TIP3   OH2 7234   5.719   2.970   1.957 -0.0816 -0.4145 -0.1389
 2430TIP3    H1 7235   5.708   2.954   2.051  0.3046  0.1310  0.0036
 2430TIP3    H2 7236   5.636   3.010   1.930 -0.4266 -1.1321 -0.1630
 2431TIP3   OH2 7237   2.157   0.402   5.903 -0.7816  0.0919 -0.0407
 2431TIP3    H1 7238   2.173   0.402   5.809 -0.3190  2.3483 -0.0237
 2431TIP3    H2 7239   2.130   0.492   5.923  0.3484  0.0187  2.1559
 2432TIP3   OH2 7240   0.084   0.261   0.551  0.7606 -0.0726  0.4621
 2432TIP3    H1 7241   0.063   0.271   0.458  1.7037  0.2618  0.2709
 2432TIP3    H2 7242   0.009   0.214   0.588 -0.4320  1.2540 -0.1261
 2433TIP3   OH2 7243   7.789   3.128   2.091  0.4356 -0.2192 -0.8866
 2433TIP3    H1 7244   7.790   3.089   2.004 -3.5191  0.4120 -1.4226
 2433TIP3    H2 7245   7.763   3.057   2.149 -0.5924  0.1537 -0.8678
 2434TIP3   OH2 7246   0.799   3.069   1.503 -0.2819 -0.1604 -0.3983
 2434TIP3    H1 7247   0.803   3.122   1.423 -0.9549 -0.9688 -0.9900
 2434TIP3    H2 7248   0.856   2.994   1.485  1.7913  1.0028  0.9659
 2435TIP3   OH2 7249   2.451   7.760   1.782  0.4160  0.1858  0.3264
 2435TIP3    H1 7250   2.484   7.850   1.790 -0.6897  0.8598 -1.8554
 2435TIP3    H2 7251   2.452   7.726   1.872  1.8847  1.9820  1.0645
 2436TIP3   OH2 7252   5.036   2.756   0.076  0.0654 -0.0787 -0.3081
 2436TIP3    H1 7253   5.005   2.673   0.038 -0.4078 -0.6204  1.2023
 2436TIP3    H2 7254   5.026   2.820   0.005 -0.0389 -1.2044 -1.3415
 2437TIP3   OH2 7255   2.792   0.501   1.703  0.0184  0.3398  0.5253
 2437TIP3    H1 7256   2.735   0.490   1.626 -1.1862 -0.4573  1.4927
 2437TIP3    H2 7257   2.747   0.454   1.773  1.7271 -0.0304  1.4308
 2438TIP3   OH2 7258   6.009   7.415   1.685  0.4702  0.1742  0.7619
 2438TIP3    H1 7259   6.039   7.342   1.739 -1.2079 -0.0825  1.4084
 2438TIP3    H2 7260   5.945   7.376   1.626 -1.5218  1.2887  2.0627
 2439TIP3   OH2 7261   2.569   6.816   4.933 -0.3977 -0.3835 -0.1630
 2439TIP3    H1 7262   2.616   6.733   4.927  1.6552  0.4974  1.9847
 2439TIP3    H2 7263   2.634   6.881   4.904 -1.4520  0.6126 -0.3434
 2440TIP3   OH2 7264   7.472   2.929   2.451 -0.5267 -0.0610 -0.2534
 2440TIP3    H1 7265   7.420   2.874   2.391  1.7986 -2.8541  0.0640
 2440TIP3    H2 7266   7.458   2.890   2.537 -0.9601  1.6501  0.4872
 2441TIP3   OH2 7267   6.945   3.224   6.778 -0.2605  0.1566  0.7746
 2441TIP3    H1 7268   6.852   3.242   6.762 -0.4392 -0.4095  1.1719
 2441TIP3    H2 7269   6.991   3.288   6.724 -0.8835  0.6446  0.8058
 2442TIP3   OH2 7270   5.430   3.810   5.358  0.3565 -0.2143 -0.8713
 2442TIP3    H1 7271   5.363   3.788   5.423 -1.1760  1.8159 -1.6653
 2442TIP3    H2 7272   5.512   3.785   5.400 -0.6655 -0.1936  1.3022
 2443TIP3   OH2 7273   3.368   4.500   1.467  0.4740 -0.4374  0.2609
 2443TIP3    H1 7274   3.342   4.515   1.376  0.9655  0.0327  0.1927
 2443TIP3    H2 7275   3.346   4.409   1.484 -2.1536  0.1487  0.5080
 2444TIP3   OH2 7276   4.580   2.914   3.317  0.3873 -0.0053 -0.0227
 2444TIP3    H1 7277   4.581   2.885   3.226 -0.2288  0.4478 -0.1773
 2444TIP3    H2 7278   4.529   2.994   3.317  1.1673  0.5158  0.5747
 2445TIP3   OH2 7279   0.035   7.173   0.700 -0.4122 -0.3985  0.4522
 2445TIP3    H1 7280   0.084   7.091   0.700  0.4367  0.0797  1.6104
 2445TIP3    H2 7281  -0.048   7.151   0.742 -0.6714 -0.9167 -0.3087
 2446TIP3   OH2 7282   3.819   2.170   0.626 -0.3526 -0.2399 -0.6350
 2446TIP3    H1 7283   3.807   2.115   0.702  0.1780 -0.1735 -0.4948
 2446TIP3    H2 7284   3.746   2.231   0.628  0.2612  0.4989  0.4665
 2447TIP3   OH2 7285   0.790   4.560   6.569 -0.0362  0.0358 -0.2052
 2447TIP3    H1 7286   0.769   4.653   6.578 -0.0242  0.1286 -1.1074
 2447TIP3    H2 7287   0.857   4.544   6.636 -0.4631  0.5300  0.3584
 2448TIP3   OH2 7288   8.078   7.658   3.806 -0.4444 -0.5133 -0.2335
 2448TIP3    H1 7289   8.163   7.686   3.772 -0.8896  0.8524 -0.2600
 2448TIP3    H2 7290   8.037   7.611   3.733 -0.2766  0.0245 -0.6753
 2449TIP3   OH2 7291   4.133   6.783   5.057 -0.1684 -0.0331 -0.6593
 2449TIP3    H1 7292   4.115   6.689   5.051 -0.5382  0.0899 -1.7558
 2449TIP3    H2 7293   4.097   6.819   4.976 -0.3166  1.1044 -0.1027
 2450TIP3   OH2 7294   1.476   3.836   5.545  0.8228 -0.1072 -0.0045
 2450TIP3    H1 7295   1.490   3.819   5.638 -2.4981  0.8573  0.8107
 2450TIP3    H2 7296   1.450   3.928   5.541 -1.4302 -0.7233 -1.4842
 2451TIP3   OH2 7297   3.201   4.915   6.318 -0.7287  0.3436 -0.0933
 2451TIP3    H1 7298   3.177   4.860   6.244  1.2430  0.9543 -1.2729
 2451TIP3    H2 7299   3.280   4.961   6.289  1.1938 -0.6808  2.9889
 2452TIP3   OH2 7300   6.829   1.986   2.469 -0.3144 -0.0389  0.0741
 2452TIP3    H1 7301   6.856   2.057   2.410 -1.6883  0.4308 -0.0279
 2452TIP3    H2 7302   6.898   1.921   2.461 -0.1695  0.2686 -1.6410
 2453TIP3   OH2 7303   6.781   2.986   5.154  0.1763  0.3922  0.0581
 2453TIP3    H1 7304   6.846   2.951   5.215 -0.5137  0.0419  0.6127
 2453TIP3    H2 7305   6.698   2.981   5.202 -0.4000  0.0335 -0.9325
 2454TIP3   OH2 7306   3.890   1.701   6.773 -0.0079 -0.2360 -0.0978
 2454TIP3    H1 7307   3.832   1.697   6.697 -1.2591  0.3290  0.7926
 2454TIP3    H2 7308   3.978   1.713   6.736 -0.7204  1.2204 -1.4275
 2455TIP3   OH2 7309   0.531   3.688   1.745  0.3001  0.5534  0.0231
 2455TIP3    H1 7310   0.612   3.736   1.762  0.0572  0.9387  0.1274
 2455TIP3    H2 7311   0.520   3.632   1.822  1.5179 -1.0365 -0.8880
 2456TIP3   OH2 7312   1.271   0.768   3.771  0.0541  0.4363 -0.3014
 2456TIP3    H1 7313   1.294   0.821   3.694 -0.2223 -2.4036 -2.5114
 2456TIP3    H2 7314   1.184   0.735   3.751  0.7607 -1.9140  0.2738
 2457TIP3   OH2 7315   2.016   3.416   0.138  0.2815  0.3139 -0.1186
 2457TIP3    H1 7316   2.024   3.435   0.232 -2.4150  2.0671 -0.1052
 2457TIP3    H2 7317   1.999   3.322   0.134  2.8350 -0.2681  0.8677
 2458TIP3   OH2 7318   1.526   5.507   1.226  0.6284  0.2120 -0.4785
 2458TIP3    H1 7319   1.431   5.493   1.222  0.7805 -1.3622  0.6575
 2458TIP3    H2 7320   1.535   5.596   1.261 -0.4198  0.3213 -0.4506
 2459TIP3   OH2 7321   0.257   0.824   1.486 -0.2939  0.1057  0.0347
 2459TIP3    H1 7322   0.326   0.815   1.551  0.5063  0.4814 -0.7415
 2459TIP3    H2 7323   0.219   0.910   1.502  1.1244  0.9926 -1.1144
 2460TIP3   OH2 7324   1.289   7.473   6.465 -0.4366  0.8260 -0.0068
 2460TIP3    H1 7325   1.308   7.567   6.456  1.0618  0.5850  0.3120
 2460TIP3    H2 7326   1.281   7.442   6.375  0.8271  0.9597 -0.1950
 2461TIP3   OH2 7327   6.161   0.536   2.385  0.1512 -0.0527  0.5429
 2461TIP3    H1 7328   6.229   0.472   2.408  0.8623  0.8390  0.9850
 2461TIP3    H2 7329   6.164   0.541   2.290  2.1676  1.4660  0.6168
 2462TIP3   OH2 7330   7.403   1.430   5.185  0.0831  0.2830  0.7491
 2462TIP3    H1 7331   7.423   1.497   5.250 -1.9504  0.1931  1.5174
 2462TIP3    H2 7332   7.317   1.396   5.210  0.3499 -1.5058 -0.5472
 2463TIP3   OH2 7333   0.492   2.897   2.534 -0.1912 -0.1518  0.1902
 2463TIP3    H1 7334   0.423   2.839   2.502 -0.7320 -0.2611  1.5020
 2463TIP3    H2 7335   0.524   2.854   2.614  2.3361 -0.8050 -1.0571
 2464TIP3   OH2 7336   6.788   3.241   1.360  0.0465 -0.5106 -0.1185
 2464TIP3    H1 7337   6.845   3.299   1.411 -0.7762 -0.1727  0.4298
 2464TIP3    H2 7338   6.840   3.161   1.348  0.4893 -0.3591  0.7177
 2465TIP3   OH2 7339   5.062   1.675   6.052  0.2495 -0.1855 -0.3665
 2465TIP3    H1 7340   5.117   1.753   6.053  0.4336 -0.3067 -0.7900
 2465TIP3    H2 7341   4.972   1.709   6.059  0.3693  0.0112  0.2807
 2466TIP3   OH2 7342   5.990   6.956   2.089  0.7490  0.7886  0.1807
 2466TIP3    H1 7343   6.073   6.993   2.058  0.3077  1.4212 -0.2734
 2466TIP3    H2 7344   5.923   7.007   2.043  0.1180 -0.0383  0.1704
 2467TIP3   OH2 7345   6.141   3.860   5.272 -0.3521  0.4505  0.1533
 2467TIP3    H1 7346   6.168   3.880   5.361 -0.2536  1.0249 -0.0015
 2467TIP3    H2 7347   6.175   3.933   5.220 -3.6437  2.1615  0.1818
 2468TIP3   OH2 7348   6.240   3.268   0.143 -0.6638  0.4546  0.0883
 2468TIP3    H1 7349   6.255   3.317   0.063  0.5292  2.2925  1.3725
 2468TIP3    H2 7350   6.314   3.207   0.148 -0.5512  0.5844 -0.0048
 2469TIP3   OH2 7351   6.710   2.281   2.503  0.1069  0.0469 -0.2145
 2469TIP3    H1 7352   6.635   2.314   2.455 -0.0250 -1.4923 -1.1104
 2469TIP3    H2 7353   6.782   2.282   2.440 -0.0538 -1.9368 -0.4727
 2470TIP3   OH2 7354   8.208   1.208   4.648  1.1300  0.6179 -0.5518
 2470TIP3    H1 7355   8.252   1.233   4.567  0.8200  1.6362 -0.4181
 2470TIP3    H2 7356   8.162   1.127   4.626  0.3414  1.3311 -1.6472
 2471TIP3   OH2 7357   2.091   7.022   2.851 -0.5807 -0.2509  0.6491
 2471TIP3    H1 7358   2.173   6.984   2.882 -0.0301 -0.1086 -0.5715
 2471TIP3    H2 7359   2.024   6.980   2.904  0.1290 -1.8479  0.3567
 2472TIP3   OH2 7360   0.082   2.900   5.513 -0.1523 -0.3604 -0.0688
 2472TIP3    H1 7361   0.117   2.811   5.521  1.0467  0.1395  0.6466
 2472TIP3    H2 7362   0.132   2.939   5.442 -0.0260  0.0210  0.2258
 2473TIP3   OH2 7363   0.176   7.499   4.497 -0.7336 -0.5026 -0.3747
 2473TIP3    H1 7364   0.081   7.489   4.505 -0.6450 -0.9358  0.1809
 2473TIP3    H2 7365   0.213   7.424   4.543 -0.1174 -0.2008 -0.3569
 2474TIP3   OH2 7366   3.959   7.828   4.411  0.0097  0.8432  0.3916
 2474TIP3    H1 7367   3.922   7.742   4.428 -1.3615  0.2952 -3.9428
 2474TIP3    H2 7368   3.891   7.890   4.437  0.0641  0.4940  1.3939
 2475TIP3   OH2 7369   4.608   2.128   2.084 -0.3297  0.5905  0.0841
 2475TIP3    H1 7370   4.537   2.192   2.093 -1.3714 -0.4755 -0.3000
 2475TIP3    H2 7371   4.563   2.043   2.083  0.9718 -0.1118 -0.0370
 2476TIP3   OH2 7372   3.245   7.457   4.676  0.0832 -0.4342 -0.4047
 2476TIP3    H1 7373   3.233   7.419   4.589  1.0369 -0.2552 -0.6239
 2476TIP3    H2 7374   3.334   7.432   4.701 -0.3007 -0.7846  0.6801
 2477TIP3   OH2 7375   6.447   0.875   6.077  0.3542 -0.1726 -0.2432
 2477TIP3    H1 7376   6.495   0.957   6.068  0.4718 -0.2029  0.0804
 2477TIP3    H2 7377   6.385   0.891   6.148  3.0023 -1.5302  2.6294
 2478TIP3   OH2 7378   4.664   0.229   0.262 -0.4347  0.4194 -0.1197
 2478TIP3    H1 7379   4.603   0.187   0.202  0.1061  1.1805 -1.2369
 2478TIP3    H2 7380   4.747   0.182   0.249 -0.3154  0.5891  0.0257
 2479TIP3   OH2 7381   6.505   6.713   2.140  0.2394  0.5009  0.1413
 2479TIP3    H1 7382   6.560   6.758   2.204  0.4353 -0.8481  0.9546
 2479TIP3    H2 7383   6.444   6.780   2.110  1.6367  1.7724 -0.0122
 2480TIP3   OH2 7384   6.212   5.851   3.516  0.1806  0.4565  0.4330
 2480TIP3    H1 7385   6.202   5.855   3.611 -1.2289  1.0686  0.2764
 2480TIP3    H2 7386   6.307   5.858   3.502  0.4340  0.0149  1.7943
 2481TIP3   OH2 7387   7.417   1.663   1.176  0.2863  0.3075 -0.0232
 2481TIP3    H1 7388   7.397   1.738   1.120  0.9985 -0.9793 -2.0953
 2481TIP3    H2 7389   7.512   1.655   1.171  0.1900 -0.9403 -0.1376
 2482TIP3   OH2 7390   2.081   2.173   4.303  0.7137 -0.0328  0.1231
 2482TIP3    H1 7391   2.143   2.164   4.376  1.7553  0.4768 -0.6765
 2482TIP3    H2 7392   2.100   2.099   4.246  1.2788  0.6712 -0.6191
 2483TIP3   OH2 7393   5.555   5.703   2.446  0.0558  0.2031 -0.3762
 2483TIP3    H1 7394   5.637   5.655   2.463  0.4011  0.4230 -1.3444
 2483TIP3    H2 7395   5.536   5.747   2.529  0.3515 -0.6832  0.1795
 2484TIP3   OH2 7396   1.413   5.947   6.108  0.2285  0.0851  0.8061
 2484TIP3    H1 7397   1.425   5.884   6.038 -1.1765 -0.2689  0.8493
 2484TIP3    H2 7398   1.392   6.030   6.063  0.2068  0.0685  0.7860
 2485TIP3   OH2 7399   0.472   3.701   5.776 -0.4119 -0.3335  0.1846
 2485TIP3    H1 7400   0.503   3.638   5.840 -0.6751 -1.6629 -0.9384
 2485TIP3    H2 7401   0.481   3.656   5.692 -1.6977  0.6865 -0.5503
 2486TIP3   OH2 7402   7.479   4.879   1.908 -0.3088 -0.0706 -0.7621
 2486TIP3    H1 7403   7.486   4.845   1.997  0.1736 -1.2931 -1.2453
 2486TIP3    H2 7404   7.569   4.878   1.875 -0.7735 -2.0722 -2.1148
 2487TIP3   OH2 7405   0.508   0.679   0.353 -0.4637  0.0120 -0.1418
 2487TIP3    H1 7406   0.499   0.741   0.281  0.0531 -0.0031 -0.2224
 2487TIP3    H2 7407   0.453   0.715   0.423 -1.0286 -0.0151 -0.5655
 2488TIP3   OH2 7408   5.856   2.955   4.017  0.3356  0.2991 -0.1649
 2488TIP3    H1 7409   5.876   3.049   4.025  0.0895  0.2120  3.7422
 2488TIP3    H2 7410   5.762   2.952   3.997  0.3042  0.8951 -0.1367
 2489TIP3   OH2 7411   6.361   7.518   5.167  0.0639  0.0891 -0.4018
 2489TIP3    H1 7412   6.291   7.454   5.181  0.5605 -0.1048  1.5853
 2489TIP3    H2 7413   6.442   7.468   5.174  0.4342  0.7319  0.0687
 2490TIP3   OH2 7414   3.072   1.905   3.769 -0.6388  0.1777 -0.4077
 2490TIP3    H1 7415   3.104   1.967   3.705 -0.8350  0.7666  0.0564
 2490TIP3    H2 7416   3.148   1.850   3.790 -0.3115  0.6369 -0.3800
 2491TIP3   OH2 7417   2.796   6.292   5.874  0.1447 -0.4551 -0.1995
 2491TIP3    H1 7418   2.734   6.321   5.806  0.2304 -0.3154 -0.2185
 2491TIP3    H2 7419   2.741   6.276   5.950  0.0247 -0.7866 -0.3540
 2492TIP3   OH2 7420   4.814   7.799   0.690  0.1221 -0.1632  0.3381
 2492TIP3    H1 7421   4.791   7.888   0.665 -0.7963 -0.2606  0.7923
 2492TIP3    H2 7422   4.737   7.766   0.736  0.6676 -0.9947  0.6837
 2493TIP3   OH2 7423   3.503   7.560   5.434  0.3825  0.1720 -0.2894
 2493TIP3    H1 7424   3.422   7.530   5.476  0.9042  0.2094  0.7558
 2493TIP3    H2 7425   3.573   7.511   5.478  1.0972  1.6150  0.2190
 2494TIP3   OH2 7426   7.378   4.979   6.572 -0.2040 -0.4510 -0.4588
 2494TIP3    H1 7427   7.399   4.886   6.582  2.3028  0.1144  0.3061
 2494TIP3    H2 7428   7.292   4.988   6.612  0.1446 -2.2000  0.8160
 2495TIP3   OH2 7429   2.267   1.835   1.459  0.3512 -0.3247 -0.4266
 2495TIP3    H1 7430   2.215   1.807   1.384  0.4340  0.2642 -0.7132
 2495TIP3    H2 7431   2.351   1.864   1.421  0.2325  0.3993 -0.1674
 2496TIP3   OH2 7432   4.458   2.889   4.604 -0.0979  0.3748  0.3111
 2496TIP3    H1 7433   4.487   2.806   4.643  0.7492  0.8052  0.6192
 2496TIP3    H2 7434   4.378   2.910   4.652 -1.0651 -0.9079 -0.6620
 2497TIP3   OH2 7435   1.634   1.120   2.278 -0.2790  0.1564 -0.4045
 2497TIP3    H1 7436   1.628   1.215   2.270 -0.4421  0.1331 -0.5575
 2497TIP3    H2 7437   1.598   1.086   2.196  0.7723 -0.0155 -0.8200
 2498TIP3   OH2 7438   1.977   3.883   2.435  0.2086 -0.1751  0.1033
 2498TIP3    H1 7439   2.066   3.893   2.400 -0.4691  1.4707 -1.3073
 2498TIP3    H2 7440   1.977   3.795   2.474  2.8088  0.2518  1.3327
 2499TIP3   OH2 7441   7.597   7.455   1.840 -0.1040 -0.2129  0.3204
 2499TIP3    H1 7442   7.523   7.395   1.852 -1.1434  0.7425 -1.0442
 2499TIP3    H2 7443   7.668   7.400   1.809 -1.2558 -0.6742 -1.6442
 2500TIP3   OH2 7444   3.530   0.432   1.210  0.4243  0.0413 -0.1748
 2500TIP3    H1 7445   3.459   0.397   1.155  1.9192 -1.4279 -1.2504
 2500TIP3    H2 7446   3.514   0.394   1.296 -0.0444 -0.3561 -0.4327
 2501TIP3   OH2 7447   3.928   3.628   2.922  0.3997 -0.1793  0.2422
 2501TIP3    H1 7448   3.904   3.716   2.953 -2.9157 -0.3968 -1.2523
 2501TIP3    H2 7449   3.950   3.641   2.830  1.9167 -0.7042  0.4987
 2502TIP3   OH2 7450   3.845   0.638   0.208 -0.6279  0.3714  0.1035
 2502TIP3    H1 7451   3.869   0.546   0.198 -0.8132  0.0863  1.9307
 2502TIP3    H2 7452   3.862   0.657   0.300 -2.6148  1.5628  0.2780
 2503TIP3   OH2 7453   0.580   6.798   5.044 -0.1588 -0.3162 -0.5023
 2503TIP3    H1 7454   0.557   6.853   5.120  0.6757 -1.4251  0.5829
 2503TIP3    H2 7455   0.522   6.722   5.051 -0.6494 -0.0544 -1.4695
 2504TIP3   OH2 7456   1.163   2.660   1.366  0.4203  0.2710 -0.6553
 2504TIP3    H1 7457   1.170   2.752   1.339  1.3777  0.1403 -0.9077
 2504TIP3    H2 7458   1.192   2.611   1.290  2.1176 -0.1485  0.2075
 2505TIP3   OH2 7459   2.651   1.664   5.661  0.3896  0.2197  0.3847
 2505TIP3    H1 7460   2.587   1.627   5.723 -1.1461 -0.8084 -1.7039
 2505TIP3    H2 7461   2.605   1.736   5.619  0.3077 -0.8737 -1.5329
 2506TIP3   OH2 7462   0.616   2.439   2.019 -0.1386 -0.3166  0.3022
 2506TIP3    H1 7463   0.575   2.524   2.001  0.8765  0.1263 -0.0013
 2506TIP3    H2 7464   0.709   2.459   2.028  0.5213 -1.7051 -2.3367
 2507TIP3   OH2 7465   1.909   0.501   6.059 -0.0975  0.0766 -0.1471
 2507TIP3    H1 7466   1.969   0.460   6.121  1.3476  0.7667 -1.0210
 2507TIP3    H2 7467   1.963   0.566   6.014 -1.0720 -0.4030 -2.1096
 2508TIP3   OH2 7468   7.279   0.657   2.326 -0.6185 -0.8230  0.0703
 2508TIP3    H1 7469   7.251   0.699   2.244 -0.3475  0.3506  0.5549
 2508TIP3    H2 7470   7.359   0.610   2.303 -1.8744 -2.6469 -0.8996
 2509TIP3   OH2 7471   6.986   0.122   5.418  0.5432  0.2423 -0.1582
 2509TIP3    H1 7472   6.988   0.038   5.371 -0.4613 -0.6900  1.3605
 2509TIP3    H2 7473   6.957   0.185   5.353 -2.6197 -1.3042 -0.4637
 2510TIP3   OH2 7474   7.202   0.366   6.774 -0.0886 -0.2201  0.5569
 2510TIP3    H1 7475   7.267   0.364   6.704 -0.9580  0.4995 -0.2814
 2510TIP3    H2 7476   7.241   0.313   6.844  1.2896 -0.0085 -0.0215
 2511TIP3   OH2 7477   3.545   2.931   5.127  0.1571  0.9722 -0.1077
 2511TIP3    H1 7478   3.578   2.943   5.038  1.2958 -0.4775  0.0907
 2511TIP3    H2 7479   3.584   2.849   5.156 -2.2242  0.0863  0.8150
 2512TIP3   OH2 7480   7.795   3.353   3.878 -1.2829  0.5418 -0.4869
 2512TIP3    H1 7481   7.854   3.283   3.907  0.7736  0.2954 -4.5010
 2512TIP3    H2 7482   7.721   3.349   3.939  0.9758 -1.8280  2.4178
 2513TIP3   OH2 7483   5.081   1.380   1.848 -0.4717 -0.3932  0.1684
 2513TIP3    H1 7484   5.079   1.303   1.906 -0.7348 -1.1408 -0.8062
 2513TIP3    H2 7485   5.151   1.361   1.786  0.1162  0.6142  0.5065
 2514TIP3   OH2 7486   7.227   2.794   1.418 -0.6100 -0.2531  0.1457
 2514TIP3    H1 7487   7.147   2.801   1.366  0.1632 -2.1243 -1.4279
 2514TIP3    H2 7488   7.233   2.701   1.441  0.2655  0.1450  1.6673
 2515TIP3   OH2 7489   4.339   4.063   6.518  0.1577  0.2235 -0.2840
 2515TIP3    H1 7490   4.336   4.043   6.611  0.4985  0.3175 -0.2506
 2515TIP3    H2 7491   4.309   4.153   6.511  1.5428  0.7130 -0.1011
 2516TIP3   OH2 7492   3.753   7.434   0.029  0.0457 -0.2656 -0.7327
 2516TIP3    H1 7493   3.664   7.435   0.063  0.6098 -1.7263  0.9823
 2516TIP3    H2 7494   3.807   7.465   0.102  1.2201 -2.5604 -0.5158
 2517TIP3   OH2 7495   5.740   6.867   5.305 -0.0995  0.5579 -0.6485
 2517TIP3    H1 7496   5.749   6.935   5.371  0.5704 -0.6185  0.5103
 2517TIP3    H2 7497   5.646   6.847   5.303 -0.1921  0.9782 -0.4455
 2518TIP3   OH2 7498   0.292   4.634   3.632  0.3846  0.6939 -0.6895
 2518TIP3    H1 7499   0.302   4.569   3.701 -0.2098  0.2624 -1.0027
 2518TIP3    H2 7500   0.363   4.696   3.648  1.8354 -0.7560 -1.2103
 2519TIP3   OH2 7501   0.591   7.637   6.479 -0.3882 -0.4088  0.1391
 2519TIP3    H1 7502   0.645   7.596   6.546 -1.7117 -0.5276  1.1651
 2519TIP3    H2 7503   0.648   7.703   6.439  1.1402 -1.8498 -0.1944
 2520TIP3   OH2 7504   1.640   4.066   3.276 -0.3355  0.4823  0.5847
 2520TIP3    H1 7505   1.684   4.014   3.342  2.0966 -0.4404 -1.5782
 2520TIP3    H2 7506   1.684   4.151   3.279 -1.7177  1.1872  1.5770
 2521TIP3   OH2 7507   3.792   7.273   5.302  0.3243  0.4025 -0.0505
 2521TIP3    H1 7508   3.829   7.285   5.214  0.6034  0.3578  0.0586
 2521TIP3    H2 7509   3.706   7.235   5.287  0.6472 -0.2474 -0.2862
 2522TIP3   OH2 7510   5.547   4.027   6.427  0.3216 -0.1554  0.0489
 2522TIP3    H1 7511   5.523   4.097   6.487  1.4126  0.3210 -0.0423
 2522TIP3    H2 7512   5.567   3.952   6.483 -3.3012 -1.3089  0.0912
 2523TIP3   OH2 7513   6.672   4.975   4.200 -0.1055  0.0490  0.1830
 2523TIP3    H1 7514   6.613   5.010   4.267  2.3245  0.3062  2.3268
 2523TIP3    H2 7515   6.663   5.036   4.127 -0.3267  1.7928  1.5886
 2524TIP3   OH2 7516   1.207   2.943   0.590  0.4355 -0.0856  0.5561
 2524TIP3    H1 7517   1.176   2.919   0.677 -0.6327  0.4893  0.3565
 2524TIP3    H2 7518   1.173   2.875   0.533 -0.8578  0.7573  0.2790
 2525TIP3   OH2 7519   5.431   0.669   1.955 -0.0018  0.2359  0.3900
 2525TIP3    H1 7520   5.517   0.710   1.962 -0.1983  0.5565  1.0505
 2525TIP3    H2 7521   5.370   0.739   1.981 -0.3757 -0.3234  1.0485
 2526TIP3   OH2 7522   5.320   2.286   2.165 -0.4107  0.0228  0.3057
 2526TIP3    H1 7523   5.329   2.200   2.206 -1.0008  0.1725  0.7666
 2526TIP3    H2 7524   5.226   2.293   2.144 -0.9336  1.6345  2.7302
 2527TIP3   OH2 7525   5.921   3.632   2.774  0.3984  0.2934 -0.2505
 2527TIP3    H1 7526   5.948   3.541   2.768  0.1789  0.0168  2.0076
 2527TIP3    H2 7527   5.851   3.632   2.840  0.0303  2.0144 -0.5867
 2528TIP3   OH2 7528   2.813   4.571   6.428  0.0044  0.0413  0.5732
 2528TIP3    H1 7529   2.736   4.575   6.372  0.3051 -0.5844  0.1061
 2528TIP3    H2 7530   2.777   4.571   6.517 -0.4393  1.8190  0.4296
 2529TIP3   OH2 7531   4.278   0.664   5.407  0.5344 -0.2183 -0.3338
 2529TIP3    H1 7532   4.329   0.674   5.487 -0.8206  0.3727  0.4869
 2529TIP3    H2 7533   4.300   0.576   5.375  1.3302 -0.3364  0.5016
 2530TIP3   OH2 7534   1.455   4.343   3.100 -0.5345 -0.5743 -0.4502
 2530TIP3    H1 7535   1.448   4.366   3.007  0.5721  1.1362 -0.1635
 2530TIP3    H2 7536   1.544   4.310   3.110 -0.2959  0.2094  0.1623
 2531TIP3   OH2 7537   0.601   1.511   5.574  0.0156 -0.3003  0.4105
 2531TIP3    H1 7538   0.593   1.415   5.579 -1.9603 -0.2072 -0.0644
 2531TIP3    H2 7539   0.685   1.526   5.531  1.1626 -1.7650  2.0125
 2532TIP3   OH2 7540   4.772   7.580   1.452  0.5313  0.0587  0.4463
 2532TIP3    H1 7541   4.790   7.649   1.389  0.4785  1.2635  1.7062
 2532TIP3    H2 7542   4.735   7.508   1.400  0.2616  1.0996 -0.8345
 2533TIP3   OH2 7543   4.277   1.531   6.613 -0.3549  1.4366 -0.2747
 2533TIP3    H1 7544   4.220   1.493   6.546  1.1867 -1.4379 -0.0880
 2533TIP3    H2 7545   4.250   1.490   6.695 -0.4881  2.9481  0.4757
 2534TIP3   OH2 7546   1.887   2.824   3.068 -0.4458 -0.2466  0.3905
 2534TIP3    H1 7547   1.878   2.919   3.060 -0.7605 -0.3676 -0.8146
 2534TIP3    H2 7548   1.797   2.792   3.075 -0.3670 -0.4973  0.2647
 2535TIP3   OH2 7549   1.913   1.529   4.769 -0.2381 -0.1542  0.6531
 2535TIP3    H1 7550   1.991   1.550   4.820 -0.3000 -0.6304  0.9477
 2535TIP3    H2 7551   1.948   1.485   4.690 -0.0332  1.9029 -0.4593
 2536TIP3   OH2 7552   2.656   0.980   3.545 -0.0502  0.6219  0.0960
 2536TIP3    H1 7553   2.652   0.953   3.453 -0.6474 -2.0597  0.8182
 2536TIP3    H2 7554   2.719   0.919   3.585 -0.4789  1.1541  1.6573
 2537TIP3   OH2 7555   6.871   4.521   2.654  0.2777  0.4323 -0.1621
 2537TIP3    H1 7556   6.895   4.450   2.595  0.3978 -0.0276  0.4257
 2537TIP3    H2 7557   6.792   4.559   2.616 -0.2716 -0.5644 -0.0332
 2538TIP3   OH2 7558   6.118   1.495   1.742  0.1173  0.5113  0.1354
 2538TIP3    H1 7559   6.121   1.578   1.694 -0.7660  0.1274 -0.6324
 2538TIP3    H2 7560   6.038   1.502   1.795 -0.6296 -0.3043 -0.8468
 2539TIP3   OH2 7561   2.227   1.190   5.355  0.4466 -0.6099 -0.2659
 2539TIP3    H1 7562   2.297   1.125   5.357  0.3098 -0.7930 -0.9741
 2539TIP3    H2 7563   2.183   1.175   5.271  1.3110  1.3287 -1.1258
 2540TIP3   OH2 7564   7.865   4.240   2.403 -0.0758  0.3513  0.2307
 2540TIP3    H1 7565   7.863   4.331   2.432 -1.8535  0.3475  0.2467
 2540TIP3    H2 7566   7.774   4.219   2.384  0.2669 -1.4854  0.3933
 2541TIP3   OH2 7567   0.691   3.207   3.922  0.5117  0.2621  0.1479
 2541TIP3    H1 7568   0.663   3.259   3.998  0.8983 -2.1089  2.0559
 2541TIP3    H2 7569   0.614   3.202   3.866  0.5654  3.1078 -0.3311
 2542TIP3   OH2 7570   5.388   4.469   4.614 -0.2949  0.1988  0.0853
 2542TIP3    H1 7571   5.441   4.399   4.654  0.3445  1.4743  1.5833
 2542TIP3    H2 7572   5.439   4.497   4.538 -0.0424 -0.2378  0.0880
 2543TIP3   OH2 7573   7.465   7.119   2.427  0.3190  0.0978 -0.9070
 2543TIP3    H1 7574   7.412   7.041   2.444 -0.2482  0.7853  0.7199
 2543TIP3    H2 7575   7.412   7.172   2.368  0.0215 -0.0445 -0.7692
 2544TIP3   OH2 7576   4.444   4.053   2.759 -0.7319 -0.0166 -0.0475
 2544TIP3    H1 7577   4.391   4.039   2.681 -0.9815 -1.8352  0.4050
 2544TIP3    H2 7578   4.529   4.015   2.739  0.0601  1.7657 -0.3065
 2545TIP3   OH2 7579   3.343   3.156   1.506 -0.7705 -0.0274 -0.4316
 2545TIP3    H1 7580   3.409   3.088   1.516  0.4817  1.1825 -0.2781
 2545TIP3    H2 7581   3.385   3.223   1.452 -2.0802  0.5056 -0.8312
 2546TIP3   OH2 7582   5.750   4.341   0.095  0.0499  0.7070 -0.7707
 2546TIP3    H1 7583   5.798   4.400   0.037  0.6426  0.8091 -0.1815
 2546TIP3    H2 7584   5.797   4.258   0.090 -0.7711  0.2702 -1.5851
 2547TIP3   OH2 7585   0.425   0.485   5.599 -0.0720 -0.2079 -0.3960
 2547TIP3    H1 7586   0.345   0.509   5.551 -1.2941 -1.4273  0.9215
 2547TIP3    H2 7587   0.442   0.395   5.574 -0.9567 -1.0090  1.6251
 2548TIP3   OH2 7588   7.977   3.273   2.220  0.0869  0.9479  0.1363
 2548TIP3    H1 7589   8.038   3.289   2.148  1.6053 -0.1953  1.1095
 2548TIP3    H2 7590   7.904   3.226   2.179  1.6330 -1.0690 -0.4624
 2549TIP3   OH2 7591   6.049   3.246   6.616 -0.0071 -0.5468 -0.0499
 2549TIP3    H1 7592   6.139   3.276   6.626 -0.2109 -0.4134  1.6376
 2549TIP3    H2 7593   6.017   3.290   6.537  1.4626 -0.8047 -0.8335
 2550TIP3   OH2 7594   6.171   5.951   5.435  0.9432  0.2564  0.5882
 2550TIP3    H1 7595   6.119   6.031   5.435  0.8016  0.1715 -0.1129
 2550TIP3    H2 7596   6.117   5.888   5.387  1.7217  0.1996 -0.2464
 2551TIP3   OH2 7597   4.564   5.169   1.386 -0.2848 -0.5423  0.8033
 2551TIP3    H1 7598   4.600   5.081   1.376  0.1229 -0.5279  2.0749
 2551TIP3    H2 7599   4.598   5.217   1.310  0.3279 -1.1965  0.6509
 2552TIP3   OH2 7600   1.423   6.579   2.310  1.0653 -0.5945  0.0825
 2552TIP3    H1 7601   1.470   6.562   2.392  1.3425 -1.8777 -0.3212
 2552TIP3    H2 7602   1.442   6.671   2.291  0.3912 -0.0408  1.8277
 2553TIP3   OH2 7603   1.535   6.305   0.167 -0.1555  0.1500 -0.0826
 2553TIP3    H1 7604   1.614   6.297   0.113 -0.4590  0.3232 -0.5609
 2553TIP3    H2 7605   1.475   6.240   0.131  0.3114 -1.0835  1.2741
 2554TIP3   OH2 7606   2.200   1.849   4.895 -0.9701 -0.4756  0.5868
 2554TIP3    H1 7607   2.292   1.821   4.889 -1.1232 -0.8706 -0.0025
 2554TIP3    H2 7608   2.204   1.934   4.940 -0.2279 -0.0581 -0.2398
 2555TIP3   OH2 7609   6.677   1.587   3.149  0.0544  0.1999  0.1635
 2555TIP3    H1 7610   6.607   1.608   3.087  1.2535 -0.0228 -1.3321
 2555TIP3    H2 7611   6.651   1.629   3.230 -1.3837  0.8422 -0.5960
 2556TIP3   OH2 7612   7.554   5.883   1.149 -0.0247 -0.2399 -0.1150
 2556TIP3    H1 7613   7.617   5.940   1.194  0.2737 -0.5241 -0.1675
 2556TIP3    H2 7614   7.469   5.919   1.172 -0.0013 -1.6241  2.4377
 2557TIP3   OH2 7615   2.100   5.658   2.094  0.4026 -0.0152 -0.1153
 2557TIP3    H1 7616   2.133   5.746   2.076  1.5326 -0.3074  0.4195
 2557TIP3    H2 7617   2.019   5.652   2.043 -0.3179  1.7268  0.7270
 2558TIP3   OH2 7618   5.865   4.422   1.292  0.3626 -0.3252 -0.5521
 2558TIP3    H1 7619   5.871   4.448   1.200  4.2560  0.8626 -0.1660
 2558TIP3    H2 7620   5.932   4.354   1.301 -1.7235 -2.3009  0.9538
 2559TIP3   OH2 7621   6.714   5.550   3.527  0.3231  0.1385 -0.2216
 2559TIP3    H1 7622   6.648   5.576   3.591 -0.3116  0.2124 -0.8829
 2559TIP3    H2 7623   6.665   5.498   3.463  0.4845  1.7855 -1.7643
 2560TIP3   OH2 7624   2.483   2.179   6.536  0.0321  0.2577  0.4057
 2560TIP3    H1 7625   2.533   2.260   6.547 -1.2875  0.8804  2.4196
 2560TIP3    H2 7626   2.401   2.207   6.496  0.3913 -0.4198 -0.8230
 2561TIP3   OH2 7627   0.986   5.471   5.125 -0.0229  0.3686  0.0058
 2561TIP3    H1 7628   1.051   5.523   5.172 -0.3740  0.5290  0.3185
 2561TIP3    H2 7629   1.027   5.453   5.040  0.5520  0.2142  0.3061
 2562TIP3   OH2 7630   3.486   0.198   3.518  0.4416  0.1063  0.3174
 2562TIP3    H1 7631   3.506   0.244   3.599  0.1901  0.6897  0.0584
 2562TIP3    H2 7632   3.514   0.108   3.533 -1.3797 -0.2824  1.7556
 2563TIP3   OH2 7633   6.642   1.418   2.782 -0.0613 -0.4083  0.0311
 2563TIP3    H1 7634   6.627   1.386   2.870  1.3313 -0.4383  0.2825
 2563TIP3    H2 7635   6.735   1.443   2.781 -0.4728  1.2183 -0.9072
 2564TIP3   OH2 7636   5.973   0.193   1.428 -0.9831 -0.0004 -0.1544
 2564TIP3    H1 7637   5.895   0.204   1.482 -1.6300 -2.4093 -0.4576
 2564TIP3    H2 7638   5.989   0.098   1.428  0.8389  0.2368 -1.6399
 2565TIP3   OH2 7639   0.924   3.286   4.509 -0.0496  0.1744  0.1562
 2565TIP3    H1 7640   0.850   3.313   4.565  1.1786  1.0181  1.4363
 2565TIP3    H2 7641   1.001   3.318   4.555  1.0040  1.4122 -2.3262
 2566TIP3   OH2 7642   5.197   7.561   0.871  0.3434  0.5521 -0.2806
 2566TIP3    H1 7643   5.272   7.594   0.922 -0.9699 -0.4023  2.4830
 2566TIP3    H2 7644   5.180   7.475   0.908 -1.9698  0.6398 -1.0093
 2567TIP3   OH2 7645   1.846   7.213   0.088  0.5312  0.3866 -0.5774
 2567TIP3    H1 7646   1.926   7.192   0.136  0.9052 -0.3640 -1.4990
 2567TIP3    H2 7647   1.798   7.130   0.086 -0.1156  0.7468 -0.3422
 2568TIP3   OH2 7648   0.764   4.697   3.481  0.2172  0.0316  0.1982
 2568TIP3    H1 7649   0.818   4.773   3.504  1.0882 -0.5741  0.1946
 2568TIP3    H2 7650   0.739   4.712   3.390  3.1120 -1.2021 -0.9293
 2569TIP3   OH2 7651   2.750   5.291   1.687  0.1650  0.0805 -0.1997
 2569TIP3    H1 7652   2.719   5.313   1.599  1.7606 -1.0339 -1.0883
 2569TIP3    H2 7653   2.741   5.196   1.692 -1.1905  0.2307  1.3998
 2570TIP3   OH2 7654   5.490   6.440   5.008 -0.4060  0.1277  0.1525
 2570TIP3    H1 7655   5.562   6.499   4.985  1.2197 -1.3686  1.1250
 2570TIP3    H2 7656   5.533   6.366   5.051 -2.3949 -1.5595 -0.6010
 2571TIP3   OH2 7657   7.348   7.289   1.940 -0.4940  0.1780  0.0319
 2571TIP3    H1 7658   7.386   7.209   1.975 -2.0406 -0.3315  0.6401
 2571TIP3    H2 7659   7.337   7.272   1.846 -1.5646 -0.6776  0.2861
 2572TIP3   OH2 7660   6.455   1.458   4.349  0.1233  0.4648 -0.2860
 2572TIP3    H1 7661   6.466   1.437   4.442 -2.9063  2.0303  0.5365
 2572TIP3    H2 7662   6.524   1.521   4.330  1.7650 -1.0467  0.4082
 2573TIP3   OH2 7663   2.085   0.680   5.893 -0.3437  0.6447 -0.2386
 2573TIP3    H1 7664   2.149   0.688   5.823  3.2260 -1.2847  2.4620
 2573TIP3    H2 7665   2.090   0.763   5.940 -0.1069  0.6621 -0.2934
 2574TIP3   OH2 7666   6.704   3.592   2.319  0.2702 -0.0764 -1.0236
 2574TIP3    H1 7667   6.636   3.557   2.377 -0.0767 -0.5418 -1.6989
 2574TIP3    H2 7668   6.781   3.539   2.337  0.2198 -0.0930 -0.8537
 2575TIP3   OH2 7669   2.762   4.994   1.684 -0.2310 -1.5274 -0.8592
 2575TIP3    H1 7670   2.751   4.993   1.779  0.1893  1.1081 -0.7112
 2575TIP3    H2 7671   2.720   4.914   1.654 -2.1162 -1.4751  1.3828
 2576TIP3   OH2 7672   3.568   1.418   3.124 -0.1347 -0.0069 -0.0393
 2576TIP3    H1 7673   3.624   1.431   3.201  0.8570 -2.6381 -0.1880
 2576TIP3    H2 7674   3.489   1.377   3.158 -0.2120 -0.0735 -0.2960
 2577TIP3   OH2 7675   8.270   6.773   4.778  0.2671  0.2471  0.0722
 2577TIP3    H1 7676   8.267   6.817   4.693  1.6495 -0.3175 -0.2954
 2577TIP3    H2 7677   8.334   6.823   4.829  0.4918 -0.2393  0.2804
 2578TIP3   OH2 7678   4.656   3.308   4.269  0.6867  0.0494 -0.4220
 2578TIP3    H1 7679   4.567   3.280   4.292  0.5684  1.2636  0.6756
 2578TIP3    H2 7680   4.665   3.284   4.176 -0.0813 -1.7920 -0.0564
 2579TIP3   OH2 7681   0.300   6.753   0.765 -0.3564  0.6748 -0.7832
 2579TIP3    H1 7682   0.345   6.729   0.684 -0.1014  1.8879 -1.0206
 2579TIP3    H2 7683   0.261   6.671   0.796  0.7409 -0.0968 -1.3724
 2580TIP3   OH2 7684   7.695   1.442   2.661  0.3375  0.4109  0.0938
 2580TIP3    H1 7685   7.693   1.350   2.687 -0.3441  0.6034  0.7523
 2580TIP3    H2 7686   7.603   1.469   2.659  0.5242  1.0547 -0.1585
 2581TIP3   OH2 7687   4.240   0.998   0.428  0.6681  0.2252 -0.3371
 2581TIP3    H1 7688   4.230   1.079   0.377  0.0446 -0.6053 -1.6035
 2581TIP3    H2 7689   4.297   0.943   0.374  0.8979 -0.2754  0.4016
 2582TIP3   OH2 7690   0.727   1.862   0.015  0.2552  0.7067  0.1082
 2582TIP3    H1 7691   0.720   1.898  -0.074  1.7404  1.1722  0.1666
 2582TIP3    H2 7692   0.677   1.923   0.069 -0.0784  0.7999 -0.2978
 2583TIP3   OH2 7693   2.700   2.913   3.225 -0.7651  0.0396 -0.2091
 2583TIP3    H1 7694   2.661   2.971   3.291 -0.5528  1.1479 -1.0348
 2583TIP3    H2 7695   2.733   2.838   3.276 -1.1725  0.5607  0.8584
 2584TIP3   OH2 7696   4.025   2.097   5.996 -0.2155  0.6655  0.1063
 2584TIP3    H1 7697   4.052   2.026   6.055  2.2775  0.8980 -0.6181
 2584TIP3    H2 7698   3.943   2.067   5.957  0.3098 -1.4208  0.5078
 2585TIP3   OH2 7699   6.374   1.452   6.423 -0.4511 -0.2467  0.2749
 2585TIP3    H1 7700   6.396   1.366   6.459 -0.8395 -0.3594  0.2407
 2585TIP3    H2 7701   6.282   1.465   6.446 -0.3364  0.2479  0.4579
 2586TIP3   OH2 7702   7.917   0.316   6.441  0.1159 -0.0463  0.0587
 2586TIP3    H1 7703   8.005   0.283   6.458  0.0048 -0.6596 -0.4961
 2586TIP3    H2 7704   7.920   0.408   6.467  0.0484 -0.7831  2.9416
 2587TIP3   OH2 7705   2.412   5.388   4.022 -0.1355  0.1549 -0.3196
 2587TIP3    H1 7706   2.369   5.439   3.953 -1.1373 -0.5708 -0.2598
 2587TIP3    H2 7707   2.350   5.317   4.041 -0.4612  1.0082  2.1568
 2588TIP3   OH2 7708   1.109   6.584   4.636  0.0949 -0.4332  0.1999
 2588TIP3    H1 7709   1.142   6.592   4.547  0.9517 -0.5545  0.5010
 2588TIP3    H2 7710   1.072   6.670   4.656 -1.3316 -0.7951 -0.7394
 2589TIP3   OH2 7711   3.427   1.425   0.094  0.0797  0.0532 -0.2976
 2589TIP3    H1 7712   3.477   1.420   0.175 -1.7148 -1.3556  0.7721
 2589TIP3    H2 7713   3.492   1.407   0.025  1.3375 -0.1483  0.8936
 2590TIP3   OH2 7714   7.934   4.052   3.547  0.3320  0.5720 -0.0587
 2590TIP3    H1 7715   7.847   4.014   3.534  0.4795  0.9918 -2.7125
 2590TIP3    H2 7716   7.958   4.026   3.636 -2.4807  0.4521  0.7509
 2591TIP3   OH2 7717   7.891   4.598   6.238  0.1021  0.0652 -0.8362
 2591TIP3    H1 7718   7.911   4.520   6.187 -0.0068 -0.4350 -0.1403
 2591TIP3    H2 7719   7.967   4.608   6.297 -1.1416 -1.2602  1.1214
 2592TIP3   OH2 7720   1.866   7.067   5.490 -0.4315  0.0202 -0.6249
 2592TIP3    H1 7721   1.846   6.980   5.457  0.4904 -0.4497  0.0191
 2592TIP3    H2 7722   1.787   7.118   5.473 -1.0926 -1.0204 -0.7387
 2593TIP3   OH2 7723   3.556   3.176   6.128  0.3937  0.2851 -0.2030
 2593TIP3    H1 7724   3.470   3.211   6.154  0.8266  0.7217  0.6929
 2593TIP3    H2 7725   3.617   3.212   6.193  1.2367 -0.1287 -0.7512
 2594TIP3   OH2 7726   5.712   0.929   1.144  0.0771  0.1073 -0.4355
 2594TIP3    H1 7727   5.636   0.975   1.181 -0.8784  0.3356 -2.5449
 2594TIP3    H2 7728   5.685   0.837   1.142  0.1729  0.0809 -0.4746
 2595TIP3   OH2 7729   1.740   0.248   0.246 -0.4058 -0.3291  0.1533
 2595TIP3    H1 7730   1.772   0.277   0.160  0.6746  0.5224  0.8170
 2595TIP3    H2 7731   1.680   0.176   0.226  0.0176 -0.3130 -1.3008
 2596TIP3   OH2 7732   6.496   2.454   2.827  0.2555 -0.1328  0.3095
 2596TIP3    H1 7733   6.534   2.392   2.889  1.4508  1.3372  1.1275
 2596TIP3    H2 7734   6.561   2.525   2.822 -1.3233  1.3373 -0.1009
 2597TIP3   OH2 7735   4.411   6.982   6.002  0.0997 -0.1053  0.1651
 2597TIP3    H1 7736   4.391   6.900   6.046 -1.2292 -0.0015 -0.2209
 2597TIP3    H2 7737   4.380   6.971   5.912  0.5053  0.5881 -0.0764
 2598TIP3   OH2 7738   8.161   7.159   6.088 -0.1384 -0.3865  0.2036
 2598TIP3    H1 7739   8.068   7.146   6.105  0.0568 -1.2053  0.7026
 2598TIP3    H2 7740   8.195   7.197   6.169 -0.5562  2.7628 -0.9766
 2599TIP3   OH2 7741   2.484   7.313   5.436 -0.0909 -0.4251  0.8979
 2599TIP3    H1 7742   2.494   7.223   5.404 -0.1552  0.3790 -1.5820
 2599TIP3    H2 7743   2.395   7.338   5.409  0.1821  0.6022  0.8969
 2600TIP3   OH2 7744   4.568   5.881   4.833  0.8792  0.6212  0.5103
 2600TIP3    H1 7745   4.645   5.826   4.819  1.1339  0.9913  0.4406
 2600TIP3    H2 7746   4.549   5.918   4.747  1.4369  1.5839  0.7779
 2601TIP3   OH2 7747   2.250   6.477   5.089 -0.0003  0.2385 -0.1330
 2601TIP3    H1 7748   2.249   6.519   5.175 -0.7160  0.8647 -0.4377
 2601TIP3    H2 7749   2.202   6.395   5.101 -1.6288  1.1230 -0.3059
 2602TIP3   OH2 7750   5.936   7.323   4.795 -0.2119 -0.5292 -0.0589
 2602TIP3    H1 7751   5.856   7.308   4.744  0.5314  0.3533 -1.5535
 2602TIP3    H2 7752   5.918   7.401   4.847 -0.6065 -0.8379  0.2800
 2603TIP3   OH2 7753   1.035   0.721   1.654 -0.3440  0.3605 -0.1800
 2603TIP3    H1 7754   0.998   0.805   1.680  1.6340  2.4996 -3.5040
 2603TIP3    H2 7755   1.030   0.721   1.558  1.1946 -2.6182 -0.3753
 2604TIP3   OH2 7756   6.594   2.267   3.661  0.2362  0.7042  0.0733
 2604TIP3    H1 7757   6.605   2.290   3.568  0.0380  1.3155  0.1974
 2604TIP3    H2 7758   6.521   2.206   3.661 -1.0085  2.1328  0.0081
 2605TIP3   OH2 7759   7.181   0.819   6.531 -0.3444  0.0600  0.5635
 2605TIP3    H1 7760   7.126   0.800   6.455  0.3990 -2.0743  0.5045
 2605TIP3    H2 7761   7.165   0.912   6.548 -3.1144 -0.1916 -0.1040
 2606TIP3   OH2 7762   7.850   2.513   2.174 -0.0378  0.3054 -0.4163
 2606TIP3    H1 7763   7.832   2.429   2.216  1.7182  0.1063  0.0318
 2606TIP3    H2 7764   7.908   2.491   2.100  2.3013  1.2630  1.0054
 2607TIP3   OH2 7765   0.085   3.381   0.966  0.7279  0.0551  0.2183
 2607TIP3    H1 7766   0.128   3.309   1.012 -0.6524  0.7522  2.7798
 2607TIP3    H2 7767   0.010   3.340   0.923  0.5636 -0.2281  0.7602
 2608TIP3   OH2 7768   2.249   5.521   5.827  0.1609 -0.0326 -0.0530
 2608TIP3    H1 7769   2.228   5.480   5.911 -0.6458  0.7373  0.1324
 2608TIP3    H2 7770   2.241   5.615   5.844 -2.3387  0.1148 -1.5686
 2609TIP3   OH2 7771   5.168   6.879   5.038 -0.1142  0.6071  0.5134
 2609TIP3    H1 7772   5.078   6.849   5.026  0.0727  0.2382 -0.0103
 2609TIP3    H2 7773   5.219   6.798   5.041  0.4754  0.8535 -1.4924
 2610TIP3   OH2 7774   6.077   5.252   2.697  0.4449 -0.4868 -0.1589
 2610TIP3    H1 7775   6.102   5.304   2.774 -1.6204 -0.4754  0.5523
 2610TIP3    H2 7776   6.067   5.316   2.627 -0.9272 -0.0481  0.4160
 2611TIP3   OH2 7777   7.274   7.134   3.479  0.0875 -0.7238  0.0961
 2611TIP3    H1 7778   7.349   7.116   3.423 -0.3892  0.9362 -1.1507
 2611TIP3    H2 7779   7.205   7.078   3.445  0.3689 -1.2315  0.3536
 2612TIP3   OH2 7780   6.000   0.889   1.577 -0.2466 -0.2197 -0.6985
 2612TIP3    H1 7781   5.983   0.983   1.588  0.5326  0.0796 -1.8220
 2612TIP3    H2 7782   5.935   0.860   1.514 -0.8482 -0.5667  0.0772
 2613TIP3   OH2 7783   2.223   1.364   4.769  0.4515 -0.1849 -0.5673
 2613TIP3    H1 7784   2.251   1.312   4.693  0.0481  1.6924 -2.0688
 2613TIP3    H2 7785   2.254   1.453   4.750  1.6127  0.1001  2.1681
 2614TIP3   OH2 7786   7.593   0.580   5.659  0.4984  0.3861 -0.2388
 2614TIP3    H1 7787   7.622   0.585   5.568  1.7618 -2.8663 -0.1544
 2614TIP3    H2 7788   7.539   0.501   5.663 -1.2772  1.5824  1.4754
 2615TIP3   OH2 7789   1.801   7.009   3.425  0.1888 -0.4815 -0.0389
 2615TIP3    H1 7790   1.894   7.009   3.446  0.2002 -2.9633  0.2321
 2615TIP3    H2 7791   1.757   7.009   3.510  0.0484 -2.0080 -0.0793
 2616TIP3   OH2 7792   3.126   6.618   4.210  0.0224 -0.6586 -0.3600
 2616TIP3    H1 7793   3.179   6.570   4.147 -0.6384 -0.8160 -0.8051
 2616TIP3    H2 7794   3.067   6.672   4.157  0.2477  0.0914  0.1298
 2617TIP3   OH2 7795   2.813   3.690   3.111 -0.4041 -0.3387 -0.1980
 2617TIP3    H1 7796   2.727   3.649   3.115 -0.5481  0.0828  1.7533
 2617TIP3    H2 7797   2.876   3.619   3.125 -0.6273 -0.0817  2.4976
 2618TIP3   OH2 7798   6.692   1.918   1.752 -0.0806 -0.9321  0.5658
 2618TIP3    H1 7799   6.654   1.937   1.666 -0.5579 -1.2788  0.6944
 2618TIP3    H2 7800   6.656   1.986   1.809  0.0373 -0.8535  0.5479
 2619TIP3   OH2 7801   3.470   5.699   4.072  0.3674 -0.3120  0.3206
 2619TIP3    H1 7802   3.426   5.706   3.987  0.4636  1.1027  0.3575
 2619TIP3    H2 7803   3.405   5.658   4.129 -0.2928  0.1822 -0.0602
 2620TIP3   OH2 7804   0.770   2.903   6.107 -0.1927  0.3286  0.3170
 2620TIP3    H1 7805   0.725   2.879   6.025 -1.4977 -0.3900  1.2043
 2620TIP3    H2 7806   0.742   2.993   6.124 -0.5045  0.2324  0.3308
 2621TIP3   OH2 7807   6.578   0.421   4.107  0.3238 -0.0953  0.4082
 2621TIP3    H1 7808   6.512   0.472   4.155  1.5456  3.1735 -1.0747
 2621TIP3    H2 7809   6.577   0.457   4.019  2.5769 -1.4718 -0.2635
 2622TIP3   OH2 7810   6.826   2.205   0.770  0.0479  0.5769  0.0167
 2622TIP3    H1 7811   6.805   2.141   0.838 -0.8383  0.7143 -0.1158
 2622TIP3    H2 7812   6.907   2.245   0.799  0.8961 -0.9407 -0.1300
 2623TIP3   OH2 7813   1.447   0.395   4.644 -0.2308 -0.1694 -0.4911
 2623TIP3    H1 7814   1.378   0.432   4.698  1.8701  0.9681  1.5775
 2623TIP3    H2 7815   1.457   0.305   4.675 -0.7310 -0.3332 -0.7892
 2624TIP3   OH2 7816   7.487   2.254   4.437  0.2452  0.4260  0.4921
 2624TIP3    H1 7817   7.395   2.275   4.456 -0.0974 -1.9812  2.0608
 2624TIP3    H2 7818   7.489   2.240   4.342 -1.1470  0.0582  0.4855
 2625TIP3   OH2 7819   4.618   3.713   2.580  0.0589  0.3345  0.3217
 2625TIP3    H1 7820   4.539   3.660   2.565 -0.0379  0.6768 -0.3723
 2625TIP3    H2 7821   4.685   3.671   2.527  0.8995 -1.1576  2.3987
 2626TIP3   OH2 7822   2.484   5.619   2.840 -0.0055 -0.1667 -0.4108
 2626TIP3    H1 7823   2.548   5.689   2.849  0.8258 -0.9018 -0.5532
 2626TIP3    H2 7824   2.505   5.578   2.756 -0.3497 -0.7290 -0.2296
 2627TIP3   OH2 7825   3.919   0.377   4.027 -0.0077  0.1476 -0.4006
 2627TIP3    H1 7826   3.874   0.461   4.019 -1.3780 -0.3103  1.7373
 2627TIP3    H2 7827   4.011   0.397   4.008 -0.5970  1.7303 -1.8040
 2628TIP3   OH2 7828   5.085   4.170   0.689 -0.2174 -0.5335 -0.0552
 2628TIP3    H1 7829   5.175   4.193   0.664 -0.6012 -0.7273 -1.7120
 2628TIP3    H2 7830   5.036   4.252   0.681 -0.3235 -0.5759  0.1675
 2629TIP3   OH2 7831   0.353   7.110   3.556 -0.0743 -0.2279  0.9355
 2629TIP3    H1 7832   0.405   7.108   3.476 -1.0528  1.6735  0.2006
 2629TIP3    H2 7833   0.264   7.087   3.527 -0.8769  2.4439  1.0199
 2630TIP3   OH2 7834   4.859   6.834   1.673  0.3092 -0.3400 -0.3046
 2630TIP3    H1 7835   4.944   6.861   1.638  0.3913  0.0593  0.1776
 2630TIP3    H2 7836   4.869   6.843   1.768 -0.4859  0.3877 -0.2692
 2631TIP3   OH2 7837   0.341   1.720   6.679  0.6436  0.4539  0.6248
 2631TIP3    H1 7838   0.423   1.713   6.729  0.0034  0.3344  1.6927
 2631TIP3    H2 7839   0.320   1.630   6.655  0.8167  0.4829  0.3638
 2632TIP3   OH2 7840   5.995   5.247   5.430 -0.3394 -0.0270  0.2074
 2632TIP3    H1 7841   5.937   5.188   5.479 -0.2088  1.9078  2.9524
 2632TIP3    H2 7842   6.081   5.232   5.468 -0.3408  1.9596  1.1570
 2633TIP3   OH2 7843   6.097   2.843   2.777 -0.5504 -0.2324 -0.0818
 2633TIP3    H1 7844   6.038   2.867   2.848 -0.8698  1.3529 -0.8342
 2633TIP3    H2 7845   6.185   2.853   2.815 -0.7125  0.7921  0.0581
 2634TIP3   OH2 7846   4.024   3.491   1.204 -0.4377 -0.0093 -0.5786
 2634TIP3    H1 7847   3.941   3.450   1.183  0.1242 -2.1604  1.0901
 2634TIP3    H2 7848   4.069   3.499   1.120 -0.4344 -3.2649 -1.0075
 2635TIP3   OH2 7849   0.309   7.376   2.540  0.4414  0.5661 -0.0263
 2635TIP3    H1 7850   0.368   7.405   2.610  1.7550 -1.3041 -0.2918
 2635TIP3    H2 7851   0.240   7.327   2.585  0.8104  0.1000  0.0338
 2636TIP3   OH2 7852   4.728   3.185   4.611  0.3457 -0.3573  0.8119
 2636TIP3    H1 7853   4.744   3.276   4.634  1.6358 -0.1708 -0.6685
 2636TIP3    H2 7854   4.752   3.179   4.519 -1.2651 -1.8370  0.4369
 2637TIP3   OH2 7855   7.466   7.406   3.076 -0.0694  0.2377 -0.3569
 2637TIP3    H1 7856   7.456   7.482   3.019  0.1863  0.4212 -0.1632
 2637TIP3    H2 7857   7.416   7.337   3.033  0.7666  0.1503 -1.2160
 2638TIP3   OH2 7858   3.853   1.867   2.851  0.4906  0.6934  0.0227
 2638TIP3    H1 7859   3.812   1.793   2.896  0.1342  0.8888  0.0248
 2638TIP3    H2 7860   3.812   1.944   2.891 -0.2753  0.8641 -1.0422
 2639TIP3   OH2 7861   2.512   0.835   3.846 -0.0848  0.1333  0.3575
 2639TIP3    H1 7862   2.439   0.775   3.830 -0.2408  0.6479 -0.9409
 2639TIP3    H2 7863   2.528   0.827   3.940 -1.0706 -0.8319  0.4724
 2640TIP3   OH2 7864   6.583   1.837   0.075 -0.0707  0.3270  0.1197
 2640TIP3    H1 7865   6.543   1.848   0.161  0.6208  1.6545  0.2976
 2640TIP3    H2 7866   6.575   1.744   0.056  2.1586 -0.5533  2.8122
 2641TIP3   OH2 7867   3.988   7.324   5.882 -0.5937 -0.2488 -0.0274
 2641TIP3    H1 7868   3.995   7.386   5.809 -1.0897  0.7480  0.7520
 2641TIP3    H2 7869   3.909   7.273   5.862  0.9835 -2.2085 -1.8002
 2642TIP3   OH2 7870   4.361   4.213   4.101  0.4672  0.4147  0.3949
 2642TIP3    H1 7871   4.283   4.267   4.108  0.4475  0.4532 -0.0969
 2642TIP3    H2 7872   4.358   4.157   4.179 -0.6716 -0.3982 -0.1940
 2643TIP3   OH2 7873   6.015   5.671   3.825  0.1109 -0.3166  0.8837
 2643TIP3    H1 7874   5.957   5.670   3.749  0.9781  1.1982  0.1590
 2643TIP3    H2 7875   6.001   5.757   3.865 -0.2659 -1.0523  2.4219
 2644TIP3   OH2 7876   1.166   5.451   4.870  0.0865  0.5974 -0.9600
 2644TIP3    H1 7877   1.221   5.400   4.810 -1.0933 -0.6860 -1.0020
 2644TIP3    H2 7878   1.183   5.542   4.846  0.7530  0.1633 -2.2514
 2645TIP3   OH2 7879   6.508   1.208   0.355 -0.7195  0.0353 -0.6304
 2645TIP3    H1 7880   6.509   1.204   0.450 -0.8836  1.3387 -0.5541
 2645TIP3    H2 7881   6.596   1.240   0.332 -0.6402 -0.3862 -0.9310
 2646TIP3   OH2 7882   6.242   0.927   4.366 -0.3151  0.2855 -0.6680
 2646TIP3    H1 7883   6.223   1.020   4.379  0.3105  0.4660 -0.9453
 2646TIP3    H2 7884   6.325   0.913   4.411  1.2146  0.6207 -3.1378
 2647TIP3   OH2 7885   7.696   6.413   3.336 -0.0333  0.1715 -0.3238
 2647TIP3    H1 7886   7.685   6.390   3.243 -1.0556 -0.7543  0.0100
 2647TIP3    H2 7887   7.617   6.380   3.378  1.6466 -1.9381  1.3560
 2648TIP3   OH2 7888   0.302   7.124   4.706 -0.7585  0.6265 -1.0192
 2648TIP3    H1 7889   0.387   7.157   4.737 -0.1219 -0.1482 -1.9010
 2648TIP3    H2 7890   0.239   7.159   4.769  0.5647 -1.6366  1.8059
 2649TIP3   OH2 7891   5.940   0.003   4.857 -0.5347  0.1937  0.1008
 2649TIP3    H1 7892   5.913   0.078   4.910 -0.2314  2.5083 -2.8015
 2649TIP3    H2 7893   6.017  -0.032   4.903 -1.4996  0.7038  2.2566
 2650TIP3   OH2 7894   1.448   7.445   5.948  0.2385  0.4872  0.2108
 2650TIP3    H1 7895   1.540   7.444   5.975  1.0224  0.9639 -2.2550
 2650TIP3    H2 7896   1.436   7.363   5.900 -0.3449  0.9144 -0.3842
 2651TIP3   OH2 7897   2.494   5.955   0.181 -0.3673  0.0102 -0.0852
 2651TIP3    H1 7898   2.554   5.952   0.256  0.0520  1.1468 -0.3541
 2651TIP3    H2 7899   2.530   5.891   0.120 -0.5436 -0.7120  0.5534
 2652TIP3   OH2 7900   7.077   6.077   4.971 -0.4253  0.2296  0.7953
 2652TIP3    H1 7901   7.159   6.043   4.935 -0.8370  0.0321  0.0153
 2652TIP3    H2 7902   7.104   6.149   5.028  0.2687  0.4116  0.2524
 2653TIP3   OH2 7903   1.450   6.217   0.965  0.4156  0.3245  0.3725
 2653TIP3    H1 7904   1.436   6.294   1.019  1.2806  0.2135  0.7675
 2653TIP3    H2 7905   1.371   6.164   0.977 -0.5543  1.5042 -0.5433
 2654TIP3   OH2 7906   3.404   6.854   2.362  0.1908  0.2903  0.2515
 2654TIP3    H1 7907   3.453   6.780   2.399 -0.6581 -0.4652 -0.0981
 2654TIP3    H2 7908   3.345   6.881   2.432 -0.5526 -0.3490 -0.1088
 2655TIP3   OH2 7909   3.484   3.644   2.814 -0.1881  0.1303 -0.0705
 2655TIP3    H1 7910   3.477   3.730   2.855  0.2871  0.0965  0.0848
 2655TIP3    H2 7911   3.476   3.582   2.886  1.9739  0.0840  0.2112
 2656TIP3   OH2 7912   5.710   1.181   0.061  0.2453  0.1907 -0.3903
 2656TIP3    H1 7913   5.645   1.142   0.120  0.1943  2.5410  1.2723
 2656TIP3    H2 7914   5.794   1.149   0.094  0.1432  0.6113  0.3132
 2657TIP3   OH2 7915   4.147   1.217   5.241 -0.4805 -0.2943  0.0414
 2657TIP3    H1 7916   4.154   1.197   5.335 -1.2145 -0.3523  0.0910
 2657TIP3    H2 7917   4.130   1.133   5.200 -1.1853 -0.1228 -0.0247
 2658TIP3   OH2 7918   6.615   3.708   0.727 -0.4684  0.2090 -0.3362
 2658TIP3    H1 7919   6.655   3.773   0.785 -0.3719  1.7057 -1.9911
 2658TIP3    H2 7920   6.688   3.652   0.701 -0.2809  0.2788  0.0255
 2659TIP3   OH2 7921   6.714   4.328   0.239  0.6354 -0.2279  0.2126
 2659TIP3    H1 7922   6.693   4.368   0.155  1.2756 -0.6689 -0.1700
 2659TIP3    H2 7923   6.788   4.269   0.220  1.0971  0.0156  1.1644
 2660TIP3   OH2 7924   7.235   4.344   4.420 -0.4286 -0.3770  0.2998
 2660TIP3    H1 7925   7.290   4.412   4.382 -1.3299  0.4286  0.3919
 2660TIP3    H2 7926   7.240   4.359   4.515  1.2498 -1.9380  0.5124
 2661TIP3   OH2 7927   1.678   7.013   6.118 -0.3079 -0.5667 -0.0872
 2661TIP3    H1 7928   1.745   6.945   6.107  1.4911  1.2824 -1.4169
 2661TIP3    H2 7929   1.724   7.095   6.098 -1.7248  1.3992  3.6400
 2662TIP3   OH2 7930   5.084   6.522   1.067  0.0845  0.4731 -0.3225
 2662TIP3    H1 7931   5.037   6.598   1.034 -1.8151 -0.6749 -0.4609
 2662TIP3    H2 7932   5.026   6.486   1.135  1.8532  0.2628  1.1420
 2663TIP3   OH2 7933   1.055   3.787   6.681 -0.2388 -0.4294  0.7650
 2663TIP3    H1 7934   1.095   3.700   6.687  2.5452  0.6555 -0.3085
 2663TIP3    H2 7935   1.105   3.841   6.743 -0.0580  0.9649 -0.5200
 2664TIP3   OH2 7936   3.794   4.050   1.321 -0.3565  0.5373 -0.6105
 2664TIP3    H1 7937   3.870   4.086   1.367  0.7377 -1.3255 -0.8499
 2664TIP3    H2 7938   3.807   4.075   1.230  0.2843 -0.2706 -0.7433
 2665TIP3   OH2 7939   1.556   1.190   4.305 -0.2284 -0.2571 -1.2234
 2665TIP3    H1 7940   1.603   1.212   4.225  0.3988  1.2851 -0.4699
 2665TIP3    H2 7941   1.560   1.270   4.358 -0.2120 -1.3892  0.5533
 2666TIP3   OH2 7942   7.650   7.317   4.233  0.2908  0.2367  0.3907
 2666TIP3    H1 7943   7.601   7.359   4.304  2.0315 -1.2749  2.5970
 2666TIP3    H2 7944   7.582   7.284   4.174 -1.2400  1.2755  1.4935
 2667TIP3   OH2 7945   0.388   1.629   3.480  0.2332  0.1226 -0.9658
 2667TIP3    H1 7946   0.306   1.581   3.497 -0.9981  2.3938 -0.0454
 2667TIP3    H2 7947   0.430   1.636   3.565  1.7408 -1.4696 -1.5089
 2668TIP3   OH2 7948   1.360   0.648   3.104  0.2386 -0.2046  0.0088
 2668TIP3    H1 7949   1.360   0.739   3.075 -0.8977  0.1669  1.0372
 2668TIP3    H2 7950   1.392   0.652   3.194 -0.9755 -0.6343  0.4839
 2669TIP3   OH2 7951   5.240   0.170   5.128 -0.2153  0.2223 -0.5693
 2669TIP3    H1 7952   5.283   0.213   5.202 -0.7517  0.8123 -0.5947
 2669TIP3    H2 7953   5.172   0.231   5.100  0.3034  0.2553 -1.8810
 2670TIP3   OH2 7954   1.952   2.646   2.865 -0.1283 -0.0190  0.0947
 2670TIP3    H1 7955   1.924   2.723   2.915 -1.8833 -0.6874  0.1996
 2670TIP3    H2 7956   1.997   2.591   2.930  0.9737  0.7990  0.0572
 2671TIP3   OH2 7957   3.821   2.661   1.189  0.4674 -0.1421 -0.6571
 2671TIP3    H1 7958   3.789   2.677   1.101  1.2790  0.6570 -0.8223
 2671TIP3    H2 7959   3.859   2.573   1.186  0.3827 -0.1630 -1.0669
 2672TIP3   OH2 7960   3.188   2.466   0.111  0.3529  0.2168 -0.3161
 2672TIP3    H1 7961   3.112   2.506   0.153  0.9409  0.4543  0.5416
 2672TIP3    H2 7962   3.182   2.494   0.020 -1.5594 -1.2191 -0.6989
 2673TIP3   OH2 7963   0.386   4.123   5.955  0.1683 -0.1945 -0.0475
 2673TIP3    H1 7964   0.304   4.086   5.987  0.0604  1.0911  1.2994
 2673TIP3    H2 7965   0.415   4.064   5.886 -0.1496 -2.5437  1.7342
 2674TIP3   OH2 7966   7.244   6.669   6.597 -0.2494 -0.0017 -0.3108
 2674TIP3    H1 7967   7.268   6.589   6.644  1.9482  0.7833  0.0431
 2674TIP3    H2 7968   7.285   6.659   6.511 -0.3742  0.5359 -0.4333
 2675TIP3   OH2 7969   2.514   0.505   5.311  0.1432  0.2836 -0.8732
 2675TIP3    H1 7970   2.479   0.417   5.299  0.9584 -0.2834  0.6295
 2675TIP3    H2 7971   2.439   0.562   5.295 -0.7456 -0.7569 -0.5843
 2676TIP3   OH2 7972   2.130   7.074   5.473 -0.0246 -0.0818  0.2673
 2676TIP3    H1 7973   2.035   7.066   5.470 -0.1447  0.8592  1.0281
 2676TIP3    H2 7974   2.161   7.024   5.397 -0.8125 -4.0450  2.3175
 2677TIP3   OH2 7975   0.578   0.706   4.961 -0.2070 -0.3919  0.0232
 2677TIP3    H1 7976   0.528   0.738   4.887 -0.5523 -0.5761  0.1730
 2677TIP3    H2 7977   0.551   0.614   4.971 -0.9183 -0.1022  0.9830
 2678TIP3   OH2 7978   5.801   6.192   0.265 -0.0737  0.0662  0.4773
 2678TIP3    H1 7979   5.796   6.099   0.243 -0.8255  0.6183 -2.0013
 2678TIP3    H2 7980   5.883   6.201   0.313  0.4735 -1.7389 -0.0424
 2679TIP3   OH2 7981   5.270   3.821   2.885 -0.4999  0.2722 -0.1313
 2679TIP3    H1 7982   5.259   3.730   2.913 -0.5672  0.9919  2.4951
 2679TIP3    H2 7983   5.181   3.857   2.884 -0.4165  0.4721 -0.5747
 2680TIP3   OH2 7984   3.288   2.190   2.827  0.3610  0.4306  0.5967
 2680TIP3    H1 7985   3.199   2.181   2.792  0.8920  0.8610 -0.9214
 2680TIP3    H2 7986   3.294   2.121   2.894 -1.1322  0.4523  0.7880
 2681TIP3   OH2 7987   6.400   4.383   1.471 -0.5027  0.4328 -0.0658
 2681TIP3    H1 7988   6.388   4.476   1.492  2.0636  0.8310 -0.1323
 2681TIP3    H2 7989   6.491   4.364   1.493 -1.5451 -2.7309  2.1979
 2682TIP3   OH2 7990   7.114   1.397   3.640 -0.2022  1.1788 -0.0753
 2682TIP3    H1 7991   7.144   1.357   3.559 -1.2223  0.9006 -0.3324
 2682TIP3    H2 7992   7.077   1.480   3.613 -3.2631 -0.1470 -0.3841
 2683TIP3   OH2 7993   7.411   0.975   0.131 -0.0124 -0.1989  0.6474
 2683TIP3    H1 7994   7.479   1.028   0.088 -0.6948 -1.1207 -1.7747
 2683TIP3    H2 7995   7.341   1.037   0.150 -1.1894 -0.1584 -3.0001
 2684TIP3   OH2 7996   5.292   0.950   5.358  0.3934 -0.4138  0.2250
 2684TIP3    H1 7997   5.280   0.857   5.341 -0.5783 -0.3387  0.4567
 2684TIP3    H2 7998   5.239   0.994   5.291 -1.8999 -0.0852  2.1584
 2685TIP3   OH2 7999   5.851   6.177   4.289  0.6799 -0.4890 -0.5149
 2685TIP3    H1 8000   5.886   6.090   4.271  1.6287 -0.1140 -0.5133
 2685TIP3    H2 8001   5.793   6.195   4.215  1.2905 -0.6947 -1.0530
 2686TIP3   OH2 8002   6.537   3.044   6.648  0.8637  0.2796 -0.3531
 2686TIP3    H1 8003   6.520   2.976   6.582  2.2487  0.5651 -1.0463
 2686TIP3    H2 8004   6.452   3.084   6.664  0.3587 -0.3644 -1.3524
 2687TIP3   OH2 8005   4.855   3.282   5.130  0.1596 -0.1894  1.0016
 2687TIP3    H1 8006   4.767   3.287   5.091 -0.8868 -0.6920  3.1808
 2687TIP3    H2 8007   4.891   3.370   5.118 -0.1342 -0.2921 -0.9596
 2688TIP3   OH2 8008   5.047   5.721   3.827  0.2049  0.2026  0.2999
 2688TIP3    H1 8009   5.099   5.649   3.864 -1.7209 -1.0088  0.7928
 2688TIP3    H2 8010   4.988   5.746   3.898 -0.1110  1.3250 -0.3396
 2689TIP3   OH2 8011   6.210   0.215   0.013  0.1963 -0.0862 -0.0682
 2689TIP3    H1 8012   6.198   0.136   0.065  0.1984  0.0498  0.1402
 2689TIP3    H2 8013   6.304   0.222   0.001  0.2877  0.5034  0.8858
 2690TIP3   OH2 8014   7.688   1.589   4.323  0.1470  0.1780  0.0223
 2690TIP3    H1 8015   7.634   1.510   4.316 -1.4359  1.3278 -1.1347
 2690TIP3    H2 8016   7.637   1.649   4.378 -0.1481  1.5537 -1.6779
 2691TIP3   OH2 8017   7.476   5.738   4.100  0.1174 -0.1992  0.0291
 2691TIP3    H1 8018   7.515   5.806   4.046  0.2290 -1.6241 -1.7941
 2691TIP3    H2 8019   7.507   5.656   4.062 -1.1611 -1.3033  1.2327
 2692TIP3   OH2 8020   6.834   4.492   1.663 -0.3178 -0.0365 -0.2037
 2692TIP3    H1 8021   6.895   4.558   1.630 -1.0149  0.7003 -0.0619
 2692TIP3    H2 8022   6.858   4.483   1.755 -1.2980  1.3088  0.2224
 2693TIP3   OH2 8023   4.065   3.507   4.236  0.1347  0.2613  0.0545
 2693TIP3    H1 8024   4.035   3.572   4.172 -0.5675 -0.1563 -0.0571
 2693TIP3    H2 8025   3.988   3.452   4.251  0.7299 -0.5478  0.1455
 2694TIP3   OH2 8026   6.601   1.967   3.549  0.5105 -0.0684  0.5095
 2694TIP3    H1 8027   6.523   2.017   3.574 -0.6537 -0.9593 -1.1533
 2694TIP3    H2 8028   6.616   1.907   3.622 -2.6289 -2.4335 -0.5632
 2695TIP3   OH2 8029   4.510   1.628   2.136  0.3916  0.7585 -0.6321
 2695TIP3    H1 8030   4.569   1.588   2.201 -2.0575 -1.1263  0.6081
 2695TIP3    H2 8031   4.469   1.553   2.093  0.3629  2.0100 -2.8904
 2696TIP3   OH2 8032   8.134   4.861   5.074 -0.2361  0.6064 -0.0020
 2696TIP3    H1 8033   8.149   4.952   5.098 -0.8083  0.7032  0.0168
 2696TIP3    H2 8034   8.056   4.863   5.018  0.5011  0.2675 -1.0603
 2697TIP3   OH2 8035   6.557   0.067   4.891  0.2043 -0.0095  0.4590
 2697TIP3    H1 8036   6.529   0.153   4.862  0.1978 -0.3384 -0.5707
 2697TIP3    H2 8037   6.559   0.072   4.986 -1.5023  0.5865  0.4898
 2698TIP3   OH2 8038   2.414   0.833   2.455 -0.4760  0.6799 -0.3486
 2698TIP3    H1 8039   2.343   0.881   2.412 -2.3977 -0.8290  0.9775
 2698TIP3    H2 8040   2.388   0.829   2.547  1.0379 -0.4775  0.0718
 2699TIP3   OH2 8041   1.509   5.019   6.569  0.0165 -0.3242  0.2687
 2699TIP3    H1 8042   1.495   4.966   6.647  0.7391  0.1095  0.6987
 2699TIP3    H2 8043   1.487   5.108   6.596 -0.1916 -0.2411 -0.1601
 2700TIP3   OH2 8044   2.178   2.099   1.769  0.0739 -0.3377 -0.3893
 2700TIP3    H1 8045   2.085   2.122   1.760  0.1576  0.4983  0.7384
 2700TIP3    H2 8046   2.178   2.016   1.817 -0.0634  0.4097  0.9364
 2701TIP3   OH2 8047   4.233   7.249   5.861  0.0731 -0.1879 -0.0869
 2701TIP3    H1 8048   4.288   7.323   5.884  0.5818 -0.6015  0.0602
 2701TIP3    H2 8049   4.144   7.279   5.878  0.2325  0.5437 -0.4829
 2702TIP3   OH2 8050   8.008   5.605   1.225  1.1633  0.1318 -0.2939
 2702TIP3    H1 8051   8.046   5.620   1.312 -0.1851 -0.1704  0.3721
 2702TIP3    H2 8052   7.999   5.693   1.187  0.0928  0.4493  0.6247
 2703TIP3   OH2 8053   2.492   6.276   0.546 -0.1964 -0.1350  0.0249
 2703TIP3    H1 8054   2.476   6.215   0.618  0.7741  0.9206  1.1864
 2703TIP3    H2 8055   2.494   6.362   0.588  0.0573  0.5450 -1.3316
 2704TIP3   OH2 8056   7.301   3.774   1.165 -0.5840 -0.1640 -0.0699
 2704TIP3    H1 8057   7.364   3.729   1.222 -0.1887  0.0479 -0.3361
 2704TIP3    H2 8058   7.239   3.705   1.139 -1.3579 -0.0705  1.3919
 2705TIP3   OH2 8059   5.075   2.031   2.916  0.2462 -0.1047  0.0805
 2705TIP3    H1 8060   5.019   1.972   2.966 -0.4206  0.2076 -0.2948
 2705TIP3    H2 8061   5.018   2.102   2.888  0.5791 -0.3185 -1.2120
 2706TIP3   OH2 8062   8.136   5.171   6.081  0.1779  0.7302  0.6388
 2706TIP3    H1 8063   8.133   5.258   6.042  0.1357  0.2830 -0.3702
 2706TIP3    H2 8064   8.044   5.150   6.099 -0.0784 -0.0757 -1.3544
 2707TIP3   OH2 8065   8.286   4.716   0.531 -0.6124 -0.0627  0.0849
 2707TIP3    H1 8066   8.345   4.789   0.512 -0.2293 -0.6602 -1.1748
 2707TIP3    H2 8067   8.232   4.708   0.452 -1.8677 -0.0156  0.9206
 2708TIP3   OH2 8068   7.130   7.593   3.346 -0.3259  0.0021 -0.4488
 2708TIP3    H1 8069   7.193   7.656   3.383 -0.0745 -0.9997  0.9023
 2708TIP3    H2 8070   7.173   7.508   3.355 -1.9551 -0.7464  0.7410
 2709TIP3   OH2 8071   1.478   0.721   5.209 -0.3635  0.3793 -0.3406
 2709TIP3    H1 8072   1.414   0.689   5.145 -1.1508  0.2735  0.4772
 2709TIP3    H2 8073   1.510   0.803   5.172  1.5789 -1.1778 -2.4124
 2710TIP3   OH2 8074   0.611   4.172   2.424  0.1694 -0.4092  0.0486
 2710TIP3    H1 8075   0.687   4.127   2.387  0.9632  1.3334 -0.5801
 2710TIP3    H2 8076   0.536   4.118   2.399  1.0896 -1.5109 -0.4098
 2711TIP3   OH2 8077   1.849   1.025   4.693  0.0354  0.3269  0.1962
 2711TIP3    H1 8078   1.772   0.969   4.686  1.3217 -1.5606  0.3560
 2711TIP3    H2 8079   1.852   1.073   4.610 -2.0046  1.4524  0.7058
 2712TIP3   OH2 8080   1.861   6.403   6.553  0.5954  0.0033  0.3043
 2712TIP3    H1 8081   1.876   6.445   6.638 -0.6042  1.5831 -0.2250
 2712TIP3    H2 8082   1.849   6.311   6.574 -0.1129  0.4220  1.9048
 2713TIP3   OH2 8083   4.024   5.862   3.126  0.3312  0.2566  0.5558
 2713TIP3    H1 8084   4.028   5.835   3.218 -0.5193  0.5011  0.6657
 2713TIP3    H2 8085   3.963   5.935   3.125 -0.4190 -0.3723 -0.3537
 2714TIP3   OH2 8086   4.163   6.240   3.600  0.1175  0.7821 -0.1725
 2714TIP3    H1 8087   4.182   6.231   3.693 -0.1463  1.9078  0.0004
 2714TIP3    H2 8088   4.154   6.150   3.568 -2.3493  0.3802  1.4180
 2715TIP3   OH2 8089   3.278   3.515   2.345 -0.2502  0.2782  0.6470
 2715TIP3    H1 8090   3.291   3.533   2.439 -0.6795  1.2700  0.5273
 2715TIP3    H2 8091   3.280   3.420   2.339 -0.1273  0.2004  1.6570
 2716TIP3   OH2 8092   0.031   5.585   2.038 -0.3202  0.2285 -0.7072
 2716TIP3    H1 8093   0.015   5.493   2.059 -1.2172  0.4354 -0.4435
 2716TIP3    H2 8094   0.107   5.608   2.091  1.0468 -0.8261 -2.1033
 2717TIP3   OH2 8095   4.780   1.032   5.788  0.1796  0.5206 -0.5639
 2717TIP3    H1 8096   4.759   0.949   5.743 -0.2658  1.6253 -2.5209
 2717TIP3    H2 8097   4.695   1.066   5.816  0.4808 -0.3390  1.5880
 2718TIP3   OH2 8098   5.805   4.629   2.445  0.1786 -0.3889 -0.0585
 2718TIP3    H1 8099   5.887   4.645   2.493  1.3431  3.0886 -2.7398
 2718TIP3    H2 8100   5.820   4.548   2.397  1.1249 -0.9614  1.1388
 2719TIP3   OH2 8101   7.560   3.317   4.021 -0.5408  0.4462 -0.1751
 2719TIP3    H1 8102   7.556   3.267   4.102 -0.5276  0.2791 -0.2759
 2719TIP3    H2 8103   7.494   3.277   3.965 -0.1931  0.2248 -0.4328
 2720TIP3   OH2 8104   7.741   0.508   0.551 -0.5453  0.7706  0.2626
 2720TIP3    H1 8105   7.777   0.455   0.479 -1.2841  0.1699  0.3255
 2720TIP3    H2 8106   7.813   0.516   0.613  0.3522  1.9275 -0.8718
 2721TIP3   OH2 8107   5.986   0.472   5.883 -0.0632  0.0308 -0.4376
 2721TIP3    H1 8108   6.034   0.447   5.804  0.1454  0.1622 -0.3528
 2721TIP3    H2 8109   6.022   0.557   5.907 -1.7456  1.1272 -1.5305
 2722TIP3   OH2 8110   5.658   3.445   5.893 -0.3511  0.6071  0.3866
 2722TIP3    H1 8111   5.605   3.367   5.875 -0.5220  1.0631 -1.2966
 2722TIP3    H2 8112   5.671   3.444   5.988 -0.6916 -1.2333  0.4553
 2723TIP3   OH2 8113   5.470   1.635   5.043  0.1100 -0.1233  0.5950
 2723TIP3    H1 8114   5.379   1.643   5.012 -0.3481 -1.7827  1.3922
 2723TIP3    H2 8115   5.476   1.695   5.118 -0.1948  0.2898  0.2952
 2724TIP3   OH2 8116   4.421   2.137   2.677  0.0886 -0.1073  0.7032
 2724TIP3    H1 8117   4.480   2.089   2.735  0.5646 -0.9508 -0.4426
 2724TIP3    H2 8118   4.379   2.069   2.624  0.2404  0.6925 -0.4701
 2725TIP3   OH2 8119   6.115   6.165   5.247 -0.5965  0.4831  0.8894
 2725TIP3    H1 8120   6.198   6.190   5.206 -0.9436 -1.4589 -1.1709
 2725TIP3    H2 8121   6.066   6.121   5.178 -2.6164 -0.0548  2.5521
 2726TIP3   OH2 8122   0.407   3.780   0.131  0.2946 -0.6528  0.2058
 2726TIP3    H1 8123   0.368   3.867   0.137  0.8081 -0.3378 -0.8344
 2726TIP3    H2 8124   0.499   3.796   0.110  0.5338 -1.4318  0.6307
 2727TIP3   OH2 8125   3.854   6.626   3.699 -0.0309 -0.5600 -0.3042
 2727TIP3    H1 8126   3.766   6.629   3.736  1.0868 -0.6967  2.5914
 2727TIP3    H2 8127   3.862   6.538   3.663 -0.4763 -1.2092  1.1093
 2728TIP3   OH2 8128   2.893   6.333   6.777  0.3204  0.9347  0.7612
 2728TIP3    H1 8129   2.845   6.262   6.734 -1.2536  1.9095  0.8204
 2728TIP3    H2 8130   2.958   6.360   6.713 -0.6426  1.0048 -0.2090
 2729TIP3   OH2 8131   7.673   1.368   3.083 -0.1082 -0.9498 -0.6770
 2729TIP3    H1 8132   7.640   1.279   3.066 -1.0676 -0.6016 -0.6709
 2729TIP3    H2 8133   7.605   1.409   3.136  0.6199 -0.4054 -0.1457
 2730TIP3   OH2 8134   3.207   1.116   3.593  0.1381  0.3886 -0.0970
 2730TIP3    H1 8135   3.206   1.037   3.647  0.4456  1.0952  0.9679
 2730TIP3    H2 8136   3.141   1.099   3.525 -0.0443 -0.6415  0.3218
 2731TIP3   OH2 8137   4.374   4.770   0.301  0.2515 -0.5790 -0.3987
 2731TIP3    H1 8138   4.329   4.854   0.310  0.6589 -0.2776 -1.1447
 2731TIP3    H2 8139   4.346   4.736   0.216  1.9575 -0.0491 -1.2165
 2732TIP3   OH2 8140   3.493   5.270   0.033  0.3323 -0.1352 -0.5076
 2732TIP3    H1 8141   3.481   5.205   0.102  0.8777  0.1881 -0.1051
 2732TIP3    H2 8142   3.582   5.303   0.046 -0.8179  2.6903  1.0140
 2733TIP3   OH2 8143   4.448   0.791   2.418 -0.1179  0.4868  0.0108
 2733TIP3    H1 8144   4.415   0.771   2.506  1.0343  0.5794  0.4849
 2733TIP3    H2 8145   4.470   0.884   2.421 -0.2348  0.5278 -0.4285
 2734TIP3   OH2 8146   2.454   7.652   1.530  1.0524 -0.4152  0.3454
 2734TIP3    H1 8147   2.439   7.559   1.548  0.6463 -0.2462  0.8809
 2734TIP3    H2 8148   2.455   7.694   1.616 -1.4753  0.4801  0.0328
 2735TIP3   OH2 8149   0.178   3.577   3.631 -0.0779 -0.2041  0.5661
 2735TIP3    H1 8150   0.205   3.486   3.619  0.3233 -0.2504  1.7852
 2735TIP3    H2 8151   0.230   3.625   3.567 -0.9583 -0.9148 -0.7430
 2736TIP3   OH2 8152   2.546   4.944   2.598 -0.2263 -0.1703 -0.0002
 2736TIP3    H1 8153   2.565   4.880   2.530  0.0179  0.1052 -0.1883
 2736TIP3    H2 8154   2.484   5.005   2.558 -1.6433 -1.1208  0.6346
 2737TIP3   OH2 8155   0.384   6.555   2.133 -0.0373  0.3404  0.3214
 2737TIP3    H1 8156   0.303   6.605   2.142 -0.0343  1.2672 -3.2386
 2737TIP3    H2 8157   0.451   6.612   2.170 -0.5697  1.2855 -0.1168
 2738TIP3   OH2 8158   0.270   4.221   3.694 -0.8152 -0.3025  0.0173
 2738TIP3    H1 8159   0.304   4.280   3.761  1.7405 -1.9471  0.3082
 2738TIP3    H2 8160   0.291   4.263   3.611 -0.0431 -0.2523  0.2331
 2739TIP3   OH2 8161   0.257   0.154   1.147 -0.1443  0.1043 -0.4965
 2739TIP3    H1 8162   0.237   0.165   1.240 -1.7025  2.6138 -1.0341
 2739TIP3    H2 8163   0.215   0.228   1.105 -0.2947 -1.4740 -3.3515
 2740TIP3   OH2 8164   2.935   4.358   2.307 -0.1956  0.2846 -0.5605
 2740TIP3    H1 8165   2.883   4.278   2.305  0.0215  0.1117  0.2458
 2740TIP3    H2 8166   2.999   4.347   2.236 -1.6942  0.8391 -2.0704
 2741TIP3   OH2 8167   7.516   0.660   6.058 -0.2379  0.2952 -0.4530
 2741TIP3    H1 8168   7.467   0.612   5.992  0.4004 -0.9087 -0.0835
 2741TIP3    H2 8169   7.483   0.627   6.142  1.4415 -0.8600 -0.1961
 2742TIP3   OH2 8170   1.690   6.670   4.303 -0.1687  0.8765 -0.1283
 2742TIP3    H1 8171   1.600   6.663   4.271 -0.3666 -0.4365  0.6539
 2742TIP3    H2 8172   1.690   6.750   4.355 -0.8723  0.9154 -0.1753
 2743TIP3   OH2 8173   4.056   1.923   4.694 -0.0509  0.3298  0.3883
 2743TIP3    H1 8174   4.047   1.829   4.683  1.2735  0.2289 -0.0523
 2743TIP3    H2 8175   4.150   1.939   4.692 -0.2514  1.6835  0.3181
 2744TIP3   OH2 8176   3.589   5.347   3.254  0.0502 -0.6924  0.2563
 2744TIP3    H1 8177   3.665   5.403   3.241  1.0192 -1.4632  2.1781
 2744TIP3    H2 8178   3.516   5.408   3.269  1.2686  0.1931  3.3586
 2745TIP3   OH2 8179   2.888   1.909   1.018 -0.3483 -0.4311 -0.0726
 2745TIP3    H1 8180   2.821   1.843   1.035 -0.0148 -1.0509 -1.0289
 2745TIP3    H2 8181   2.840   1.987   0.993 -0.7205 -0.7816 -0.4588
 2746TIP3   OH2 8182   4.347   6.905   6.296  0.3068 -0.1706 -0.2648
 2746TIP3    H1 8183   4.441   6.922   6.293 -0.1475  2.8082 -0.2331
 2746TIP3    H2 8184   4.311   6.976   6.348 -2.1195 -0.5462 -1.2906
 2747TIP3   OH2 8185   2.388   3.631   0.826  0.1136  0.5232  0.7000
 2747TIP3    H1 8186   2.295   3.654   0.825 -0.1426 -0.4931 -0.0568
 2747TIP3    H2 8187   2.391   3.542   0.792  1.4888  0.9839 -0.4639
 2748TIP3   OH2 8188   2.349   1.211   3.677  0.4572 -0.2544 -0.1315
 2748TIP3    H1 8189   2.374   1.249   3.592 -0.0696 -0.4439 -0.3771
 2748TIP3    H2 8190   2.431   1.177   3.713  0.5672 -0.8640 -0.9166
 2749TIP3   OH2 8191   4.387   0.415   0.760  0.7896 -0.5619  0.1925
 2749TIP3    H1 8192   4.298   0.386   0.778 -0.4269  1.7040 -1.5848
 2749TIP3    H2 8193   4.380   0.467   0.680  3.4942  0.7620  0.6786
 2750TIP3   OH2 8194   3.345   6.778   4.433  0.3020  0.7049 -0.7383
 2750TIP3    H1 8195   3.405   6.798   4.361  1.5432 -2.3138 -0.6727
 2750TIP3    H2 8196   3.288   6.709   4.398  1.1667 -1.0845  1.1950
 2751TIP3   OH2 8197   6.297   0.355   6.605  0.0415  0.1160 -0.2900
 2751TIP3    H1 8198   6.269   0.423   6.666 -1.2108 -1.0337  0.4693
 2751TIP3    H2 8199   6.217   0.333   6.557  0.1150 -1.7177  0.3772
 2752TIP3   OH2 8200   7.727   7.308   3.083 -0.0420  0.0750  0.2507
 2752TIP3    H1 8201   7.694   7.226   3.047 -1.0995  0.6928 -0.2113
 2752TIP3    H2 8202   7.653   7.368   3.079  0.9192  1.2764 -0.1098
 2753TIP3   OH2 8203   5.396   1.761   2.165 -0.0472 -0.0706 -0.3576
 2753TIP3    H1 8204   5.421   1.775   2.257  0.0853  0.0032 -0.4044
 2753TIP3    H2 8205   5.435   1.677   2.142 -0.1734 -0.1417 -0.3139
 2754TIP3   OH2 8206   7.208   2.988   3.231 -0.2283 -0.1601  0.5448
 2754TIP3    H1 8207   7.140   3.055   3.229  2.2558  2.5642 -0.7589
 2754TIP3    H2 8208   7.191   2.934   3.154 -1.2306  0.0691  0.5917
 2755TIP3   OH2 8209   4.050   5.321   1.677  0.1098  0.1917  0.1041
 2755TIP3    H1 8210   4.125   5.378   1.659  1.1700 -0.9592  0.7568
 2755TIP3    H2 8211   3.974   5.375   1.656  1.0863  1.7115  0.2941
 2756TIP3   OH2 8212   0.539   2.672   1.526 -0.2810  0.7551  0.4929
 2756TIP3    H1 8213   0.527   2.765   1.543 -0.1759  0.8074  0.2846
 2756TIP3    H2 8214   0.520   2.629   1.610  0.0449  0.9930  0.6930
 2757TIP3   OH2 8215   5.399   0.762   4.419  0.3874 -0.2637 -0.1608
 2757TIP3    H1 8216   5.469   0.810   4.374 -2.1553  3.7392 -0.3585
 2757TIP3    H2 8217   5.424   0.764   4.511 -0.2483  3.0263  0.0641
 2758TIP3   OH2 8218   7.965   2.748   3.755  0.0261 -0.0518  0.1597
 2758TIP3    H1 8219   8.057   2.726   3.765  0.1853  0.8719  0.8485
 2758TIP3    H2 8220   7.935   2.767   3.844 -0.9121 -0.6284 -0.0168
 2759TIP3   OH2 8221   0.137   7.723   0.534 -0.0215  0.2980 -0.1130
 2759TIP3    H1 8222   0.158   7.808   0.497 -0.9221 -0.1079 -1.6233
 2759TIP3    H2 8223   0.215   7.699   0.585  0.2420  1.9953  0.3403
 2760TIP3   OH2 8224   4.748   7.685   5.484 -0.1497 -0.3358  0.4076
 2760TIP3    H1 8225   4.710   7.624   5.548 -0.1486 -0.1210  0.6140
 2760TIP3    H2 8226   4.707   7.662   5.401 -0.2315 -0.5457  0.5055
 2761TIP3   OH2 8227   0.721   1.854   2.858  0.0529 -0.4552  0.5211
 2761TIP3    H1 8228   0.811   1.858   2.891 -0.2891  0.0940  1.4155
 2761TIP3    H2 8229   0.730   1.846   2.763  1.0562 -1.3666  0.6803
 2762TIP3   OH2 8230   3.631   6.458   1.111  0.0429 -0.1769  0.3695
 2762TIP3    H1 8231   3.561   6.393   1.101 -0.9899  0.8798  0.4280
 2762TIP3    H2 8232   3.707   6.420   1.067 -0.5580 -1.3766  0.3422
 2763TIP3   OH2 8233   1.056   4.630   1.411 -0.1268  0.4081 -0.2295
 2763TIP3    H1 8234   0.978   4.634   1.355  0.3788  1.2026 -0.9086
 2763TIP3    H2 8235   1.123   4.678   1.361  0.1713  1.6762  1.3267
 2764TIP3   OH2 8236   0.581   5.994   1.381  0.2041  0.0608 -0.0889
 2764TIP3    H1 8237   0.634   5.930   1.428  0.1671  1.7738  2.5121
 2764TIP3    H2 8238   0.492   5.959   1.384  0.1543  0.2268  1.4682
 2765TIP3   OH2 8239   2.301   5.596   5.438 -0.1031 -0.0661 -0.2082
 2765TIP3    H1 8240   2.220   5.549   5.416  0.0405 -0.8149  0.7847
 2765TIP3    H2 8241   2.361   5.527   5.467  0.2592  0.6639  0.8394
 2766TIP3   OH2 8242   3.735   1.794   0.183 -0.3653  0.6436  0.0053
 2766TIP3    H1 8243   3.659   1.736   0.176 -1.6009  2.2310 -0.5111
 2766TIP3    H2 8244   3.769   1.799   0.094  0.7679 -0.5490  0.3440
 2767TIP3   OH2 8245   4.468   6.211   4.516  0.1705  0.4119  0.2815
 2767TIP3    H1 8246   4.390   6.158   4.534 -2.4382  1.6065 -5.0791
 2767TIP3    H2 8247   4.535   6.148   4.491  0.2704 -0.5560  2.7571
 2768TIP3   OH2 8248   0.057   1.342   2.597  0.3009 -0.2450 -0.2831
 2768TIP3    H1 8249   0.131   1.385   2.554 -0.9850  0.9792 -1.3587
 2768TIP3    H2 8250   0.025   1.406   2.661 -2.4532  1.1254 -2.8058
 2769TIP3   OH2 8251   6.242   6.564   0.669 -0.4031 -0.4781  0.0368
 2769TIP3    H1 8252   6.203   6.515   0.741 -0.9089 -0.7965 -0.4394
 2769TIP3    H2 8253   6.219   6.656   0.687 -1.2665 -0.6478 -0.1617
 2770TIP3   OH2 8254   3.051   2.102   2.694  0.0327  0.5759  0.3346
 2770TIP3    H1 8255   3.059   2.149   2.610  0.8446  1.1064  0.6999
 2770TIP3    H2 8256   2.957   2.103   2.712  0.1161  3.4239  1.0706
 2771TIP3   OH2 8257   6.772   6.287   1.418  0.0739  0.4478  0.1108
 2771TIP3    H1 8258   6.841   6.298   1.483 -0.7324  1.0175  0.8921
 2771TIP3    H2 8259   6.695   6.259   1.469 -0.3576  0.1251 -0.7001
 2772TIP3   OH2 8260   0.241   2.470   2.337  0.0240 -0.0461  0.2501
 2772TIP3    H1 8261   0.278   2.527   2.270 -1.0265 -0.1568 -0.4318
 2772TIP3    H2 8262   0.237   2.384   2.297  0.7636 -0.4327  0.9706
 2773TIP3   OH2 8263   0.502   1.256   3.212 -0.3441  0.3537 -0.5971
 2773TIP3    H1 8264   0.455   1.225   3.290  0.9673 -0.2989 -0.0377
 2773TIP3    H2 8265   0.510   1.178   3.157  1.8052 -0.0647  0.2182
 2774TIP3   OH2 8266   8.103   2.861   2.724 -0.5775  0.0817  0.2908
 2774TIP3    H1 8267   8.192   2.873   2.691 -1.2761  1.1367 -1.3246
 2774TIP3    H2 8268   8.061   2.804   2.659 -0.8691 -1.1243  1.4907
 2775TIP3   OH2 8269   6.114   4.444   6.635 -0.4634  0.3791 -0.7532
 2775TIP3    H1 8270   6.171   4.461   6.560 -0.7649 -0.3103 -1.1392
 2775TIP3    H2 8271   6.163   4.478   6.710 -0.2233  1.2067 -1.2719
 2776TIP3   OH2 8272   1.927   3.402   4.918  0.4424  0.2009  0.2214
 2776TIP3    H1 8273   2.020   3.390   4.901  0.2693 -0.0337 -0.6166
 2776TIP3    H2 8274   1.922   3.432   5.009  1.1089 -3.1723  1.4946
 2777TIP3   OH2 8275   5.629   3.146   3.429  0.6396  0.3604  0.5950
 2777TIP3    H1 8276   5.710   3.177   3.472  0.6639 -0.9642  1.5841
 2777TIP3    H2 8277   5.559   3.195   3.473  0.8098  0.5751  0.6339
 2778TIP3   OH2 8278   7.620   6.577   5.295  0.0927  0.1760  0.2347
 2778TIP3    H1 8279   7.580   6.522   5.363 -0.4360 -0.4285 -0.5507
 2778TIP3    H2 8280   7.659   6.650   5.343 -0.1989 -0.2880  1.1971
 2779TIP3   OH2 8281   7.544   3.401   4.981 -0.4096  0.2123 -0.1825
 2779TIP3    H1 8282   7.606   3.471   5.004 -0.5859  0.3875 -0.2392
 2779TIP3    H2 8283   7.571   3.374   4.893 -0.7605  0.6709 -0.4305
 2780TIP3   OH2 8284   3.967   0.060   6.087 -0.2480 -0.1027  0.0987
 2780TIP3    H1 8285   3.967  -0.027   6.047 -2.0265  1.1367 -2.8746
 2780TIP3    H2 8286   4.044   0.059   6.145  0.4908 -3.2092 -0.7236
 2781TIP3   OH2 8287   5.582   1.279   1.410 -0.4211  1.1368 -0.2001
 2781TIP3    H1 8288   5.609   1.187   1.408  0.8935  1.4774  0.5325
 2781TIP3    H2 8289   5.595   1.306   1.501 -2.7507  1.5358  0.0799
 2782TIP3   OH2 8290   3.287   5.563   0.943  0.3863 -0.0614 -0.1206
 2782TIP3    H1 8291   3.209   5.581   0.890  0.1981  0.2960  0.2605
 2782TIP3    H2 8292   3.344   5.638   0.927 -1.5482  2.5698  3.5946
 2783TIP3   OH2 8293   6.265   3.654   2.280 -0.0997 -0.6888  0.0812
 2783TIP3    H1 8294   6.290   3.723   2.342 -0.4181 -1.0028  0.5670
 2783TIP3    H2 8295   6.184   3.686   2.240 -0.7613 -1.2002  0.9965
 2784TIP3   OH2 8296   2.980   5.742   3.363 -0.1072  0.4557 -0.3141
 2784TIP3    H1 8297   2.958   5.662   3.411  0.4754  0.1544 -0.5501
 2784TIP3    H2 8298   3.057   5.720   3.311  0.1579  1.2158 -0.2625
 2785TIP3   OH2 8299   4.449   6.491   2.717 -0.1832  0.3118  0.0705
 2785TIP3    H1 8300   4.354   6.485   2.715 -0.3225  2.0757 -1.9656
 2785TIP3    H2 8301   4.478   6.451   2.635  0.7943  0.3729  0.3679
 2786TIP3   OH2 8302   1.968   1.110   5.944 -0.2476 -0.0784  0.0933
 2786TIP3    H1 8303   2.040   1.151   5.894 -1.5468 -0.7844 -2.5267
 2786TIP3    H2 8304   1.915   1.067   5.878 -1.7772 -1.6631  2.2319
 2787TIP3   OH2 8305   8.178   4.303   2.876  0.2442 -0.2442 -0.4037
 2787TIP3    H1 8306   8.132   4.330   2.796 -0.5083  2.5751  0.8427
 2787TIP3    H2 8307   8.124   4.338   2.947  1.5874 -1.5024  1.3145
 2788TIP3   OH2 8308   4.108   7.196   0.169 -0.5506  0.0477 -0.1390
 2788TIP3    H1 8309   4.168   7.268   0.190  0.1720 -0.4935 -0.3132
 2788TIP3    H2 8310   4.117   7.135   0.242  0.4782 -0.8920 -1.0246
 2789TIP3   OH2 8311   8.296   0.607   4.447 -0.3908 -0.1890 -0.1246
 2789TIP3    H1 8312   8.221   0.617   4.389  0.4261  0.0168 -1.1733
 2789TIP3    H2 8313   8.320   0.514   4.439 -0.7381 -0.3320  0.4722
 2790TIP3   OH2 8314   4.895   7.570   2.608  0.4963  0.0841  0.0745
 2790TIP3    H1 8315   4.882   7.640   2.543 -0.5817 -1.0266 -0.9648
 2790TIP3    H2 8316   4.988   7.577   2.632  0.7668  0.9413 -1.0981
 2791TIP3   OH2 8317   7.388   6.142   4.514 -0.5032 -0.7292  0.3567
 2791TIP3    H1 8318   7.371   6.111   4.425 -1.5126 -1.1178  0.6726
 2791TIP3    H2 8319   7.350   6.229   4.516 -1.5065 -1.1604  0.7291
 2792TIP3   OH2 8320   7.765   2.742   0.251  0.1792 -0.2580 -0.2203
 2792TIP3    H1 8321   7.679   2.777   0.274  0.1249 -0.2309 -0.4676
 2792TIP3    H2 8322   7.750   2.649   0.234 -0.1751  0.1338 -2.2478
 2793TIP3   OH2 8323   4.449   6.065   6.096 -0.1690  0.4428 -0.9326
 2793TIP3    H1 8324   4.355   6.078   6.085 -0.8052 -2.6336 -0.0783
 2793TIP3    H2 8325   4.457   6.007   6.171  2.4153  0.4013 -1.1323
 2794TIP3   OH2 8326   4.669   0.633   0.166 -0.1715 -0.2277 -0.1245
 2794TIP3    H1 8327   4.690   0.675   0.250 -1.1212  0.0132  0.0089
 2794TIP3    H2 8328   4.753   0.619   0.125  0.3142 -0.3414  0.8729
 2795TIP3   OH2 8329   7.103   4.176   3.479 -0.0550  0.5435 -0.5073
 2795TIP3    H1 8330   7.151   4.116   3.536  1.4620  1.8150 -0.3825
 2795TIP3    H2 8331   7.098   4.131   3.395  1.4430  0.3997 -0.5427
 2796TIP3   OH2 8332   1.492   0.908   3.171  0.0579  0.3370  0.3482
 2796TIP3    H1 8333   1.507   0.939   3.260  0.0625  0.8910  0.1592
 2796TIP3    H2 8334   1.565   0.945   3.121 -0.1445  0.3321  0.0481
 2797TIP3   OH2 8335   7.098   5.163   4.949  0.1445 -0.2068  0.3281
 2797TIP3    H1 8336   7.007   5.162   4.979 -0.8776 -0.2140 -2.4865
 2797TIP3    H2 8337   7.143   5.101   5.006 -1.7173 -0.5659  1.4884
 2798TIP3   OH2 8338   5.718   6.065   6.058  0.4280  0.0250  0.6269
 2798TIP3    H1 8339   5.707   6.149   6.014  0.3133  0.4093  1.3864
 2798TIP3    H2 8340   5.729   6.002   5.986  0.3829  0.6621  0.0530
 2799TIP3   OH2 8341   3.415   6.902   4.814 -0.7077  0.6137 -0.2765
 2799TIP3    H1 8342   3.338   6.944   4.775 -3.1300 -2.2250  0.9569
 2799TIP3    H2 8343   3.388   6.884   4.904  1.6981  0.0632  0.3823
 2800TIP3   OH2 8344   6.884   6.782   5.886  0.1821  0.2909 -0.1219
 2800TIP3    H1 8345   6.871   6.855   5.948 -1.1966  0.9733 -1.1401
 2800TIP3    H2 8346   6.807   6.786   5.830  1.0911 -0.7030 -1.4886
 2801TIP3   OH2 8347   6.738   1.632   5.272 -0.3980  0.0681  0.5037
 2801TIP3    H1 8348   6.772   1.542   5.270 -0.8896 -0.1011 -1.2470
 2801TIP3    H2 8349   6.733   1.658   5.181  0.6810  2.2769  1.0165
 2802TIP3   OH2 8350   1.322   1.595   3.560  0.3606 -0.2068 -0.1412
 2802TIP3    H1 8351   1.248   1.577   3.617  0.6021 -0.9672 -0.0660
 2802TIP3    H2 8352   1.394   1.542   3.595  0.4751 -0.7823 -1.2199
 2803TIP3   OH2 8353   3.031   5.955   1.852 -0.1029  0.0812  0.2985
 2803TIP3    H1 8354   2.970   5.894   1.809 -0.9366  0.8434  0.3775
 2803TIP3    H2 8355   3.117   5.913   1.843 -0.7121 -1.3232  0.7500
 2804TIP3   OH2 8356   1.629   3.028   2.104 -0.6119 -0.3891  0.2724
 2804TIP3    H1 8357   1.548   3.078   2.114  0.2636  1.5517 -1.4212
 2804TIP3    H2 8358   1.603   2.952   2.051 -1.3006  0.3757 -0.5328
 2805TIP3   OH2 8359   6.381   0.572   3.495  0.4237  0.2551 -0.1997
 2805TIP3    H1 8360   6.439   0.499   3.516 -0.4945 -0.7425 -1.0067
 2805TIP3    H2 8361   6.435   0.632   3.445  0.9097 -0.3874 -0.4596
 2806TIP3   OH2 8362   5.266   5.221   5.697 -0.0159 -0.3714  0.2501
 2806TIP3    H1 8363   5.323   5.278   5.644 -1.7464  0.3760 -0.8690
 2806TIP3    H2 8364   5.285   5.133   5.666  0.7094 -0.1625  0.0748
 2807TIP3   OH2 8365   7.918   5.403   4.273  0.5925 -0.1696  0.4562
 2807TIP3    H1 8366   7.995   5.452   4.246  1.0059 -1.1746 -0.2063
 2807TIP3    H2 8367   7.900   5.434   4.362  2.4764 -0.7776  1.0922
 2808TIP3   OH2 8368   4.206   2.580   1.071  0.2835 -0.3596  0.5897
 2808TIP3    H1 8369   4.175   2.645   1.134 -0.5183 -0.7218  0.5729
 2808TIP3    H2 8370   4.204   2.497   1.119 -0.8008 -0.7168 -0.0508
 2809TIP3   OH2 8371   8.280   5.939   3.044 -0.2224 -0.2105 -0.2858
 2809TIP3    H1 8372   8.194   5.976   3.023  0.1821  0.3232 -1.0544
 2809TIP3    H2 8373   8.334   5.958   2.967  0.9926  0.7821  0.7606
 2810TIP3   OH2 8374   4.445   1.819   0.812 -0.5561  0.2327 -0.6896
 2810TIP3    H1 8375   4.477   1.745   0.761 -2.3592  0.7609 -2.7106
 2810TIP3    H2 8376   4.363   1.789   0.850 -1.0879  1.0449 -1.1776
 2811TIP3   OH2 8377   4.269   2.660   6.670 -0.0307 -0.5416  0.2251
 2811TIP3    H1 8378   4.176   2.660   6.694 -0.1052 -0.7498 -0.0565
 2811TIP3    H2 8379   4.287   2.570   6.645  0.0653 -0.3577 -0.3979
 2812TIP3   OH2 8380   0.650   7.393   3.906 -0.2632  0.5170  0.0321
 2812TIP3    H1 8381   0.701   7.315   3.929 -0.6308  0.8437  2.0979
 2812TIP3    H2 8382   0.559   7.367   3.917 -0.4081  1.0532  0.1369
 2813TIP3   OH2 8383   2.170   7.725   2.691 -0.1812  0.2680  0.2460
 2813TIP3    H1 8384   2.240   7.779   2.728  0.1184 -0.2030  0.3732
 2813TIP3    H2 8385   2.093   7.748   2.743  0.4957 -1.3216  2.0983
 2814TIP3   OH2 8386   2.419   3.346   6.028 -0.2307  0.3356  0.3297
 2814TIP3    H1 8387   2.354   3.280   6.052 -0.5214 -0.2575 -1.8184
 2814TIP3    H2 8388   2.381   3.429   6.056 -2.3144  0.0829 -1.4905
 2815TIP3   OH2 8389   1.148   1.752   3.416  0.4467 -0.2510  0.3560
 2815TIP3    H1 8390   1.071   1.694   3.414  0.7276 -0.7480  2.0316
 2815TIP3    H2 8391   1.220   1.694   3.442  0.6727  0.8723  2.4352
 2816TIP3   OH2 8392   5.483   6.618   1.296 -0.3569  0.2334  0.3501
 2816TIP3    H1 8393   5.507   6.562   1.222  0.6193 -0.6149  1.2760
 2816TIP3    H2 8394   5.547   6.688   1.294  0.8256 -0.7665  1.4283
 2817TIP3   OH2 8395   1.197   4.124   3.095 -0.0275 -0.0889  0.3290
 2817TIP3    H1 8396   1.271   4.099   3.039 -0.3141 -1.3614  0.4909
 2817TIP3    H2 8397   1.236   4.134   3.182 -0.3755 -3.2642  0.9684
 2818TIP3   OH2 8398   4.138   7.005   3.413  0.0290  0.2509 -0.2908
 2818TIP3    H1 8399   4.186   6.993   3.331 -2.1165 -1.2484 -1.4089
 2818TIP3    H2 8400   4.203   6.989   3.481  0.8128 -3.4683 -1.7087
 2819TIP3   OH2 8401   7.814   1.838   2.069  0.1126 -0.1532  0.0847
 2819TIP3    H1 8402   7.795   1.930   2.052 -1.7082 -0.7186 -1.3013
 2819TIP3    H2 8403   7.751   1.790   2.015 -0.1863 -2.2121  2.1073
 2820TIP3   OH2 8404   3.807   4.929   3.625  0.2058 -0.5404  1.0149
 2820TIP3    H1 8405   3.853   5.011   3.643 -1.0731  0.1254  1.3903
 2820TIP3    H2 8406   3.752   4.949   3.549  1.0314 -1.5304  0.1252
 2821TIP3   OH2 8407   1.373   6.009   3.084  0.9922 -0.7992  0.5222
 2821TIP3    H1 8408   1.329   6.085   3.121 -0.1726 -1.5012  0.6117
 2821TIP3    H2 8409   1.402   5.958   3.159  0.4721 -1.1764  0.4704
 2822TIP3   OH2 8410   7.511   5.480   2.900 -0.3516  0.7200  0.1555
 2822TIP3    H1 8411   7.510   5.480   2.995  1.0310 -0.1998  0.2016
 2822TIP3    H2 8412   7.557   5.561   2.877  1.7037 -0.3141  0.3871
 2823TIP3   OH2 8413   5.817   6.534   2.501  0.2073  0.1726 -0.0591
 2823TIP3    H1 8414   5.912   6.534   2.489  0.2508  1.2180  0.2190
 2823TIP3    H2 8415   5.783   6.585   2.428 -0.0136  1.0911  0.6668
 2824TIP3   OH2 8416   3.400   0.855   1.424  0.6799  0.0434  0.1222
 2824TIP3    H1 8417   3.308   0.829   1.424  0.2900  1.3405 -0.3732
 2824TIP3    H2 8418   3.407   0.919   1.354  1.9844 -0.0672  0.1251
 2825TIP3   OH2 8419   6.784   4.764   2.464  0.3959  0.5396  0.4661
 2825TIP3    H1 8420   6.863   4.813   2.441  1.8064 -1.4399  0.9032
 2825TIP3    H2 8421   6.812   4.673   2.469 -1.8525 -0.1920  0.9895
 2826TIP3   OH2 8422   0.796   5.575   6.229 -0.5675  0.0290 -0.6561
 2826TIP3    H1 8423   0.888   5.591   6.211 -1.0465  1.8449 -1.8032
 2826TIP3    H2 8424   0.795   5.497   6.284  1.7494  0.9301  0.8071
 2827TIP3   OH2 8425   1.991   1.309   4.969  0.1928  0.0430  0.2887
 2827TIP3    H1 8426   2.058   1.259   4.922  0.5555 -0.1918  1.0430
 2827TIP3    H2 8427   2.035   1.389   4.997  0.8618 -1.0902  2.7458
 2828TIP3   OH2 8428   6.531   4.349   6.445  0.0140  0.2629  0.1950
 2828TIP3    H1 8429   6.465   4.416   6.432  1.2087  1.8458  1.7532
 2828TIP3    H2 8430   6.555   4.321   6.357 -1.5171  0.8324 -0.4336
 2829TIP3   OH2 8431   6.449   1.936   0.660 -0.6474  0.5184  0.1073
 2829TIP3    H1 8432   6.368   1.986   0.662 -0.8391  0.2314 -0.3651
 2829TIP3    H2 8433   6.436   1.865   0.723 -2.4699 -2.1035 -2.9522
 2830TIP3   OH2 8434   7.664   4.156   0.295 -0.2114  0.7741 -0.0807
 2830TIP3    H1 8435   7.717   4.104   0.354 -0.3373  1.9775  1.1443
 2830TIP3    H2 8436   7.647   4.098   0.220 -0.4317 -0.9435  1.2440
 2831TIP3   OH2 8437   5.683   1.145   0.931  0.2963  0.0555 -0.1399
 2831TIP3    H1 8438   5.636   1.086   0.990 -0.1804 -0.0858 -0.6497
 2831TIP3    H2 8439   5.679   1.101   0.846  0.4840  0.5264 -0.3918
 2832TIP3   OH2 8440   6.137   3.563   1.189 -0.0485 -0.2239  0.0096
 2832TIP3    H1 8441   6.177   3.482   1.159  1.1191  0.4625 -0.3893
 2832TIP3    H2 8442   6.158   3.566   1.283  1.7017  0.5408 -0.3504
 2833TIP3   OH2 8443   6.574   7.030   2.032 -0.7011  0.5053  0.6330
 2833TIP3    H1 8444   6.645   7.043   2.095  0.9705 -0.2413 -0.9986
 2833TIP3    H2 8445   6.558   7.117   1.994  2.1521  0.1435 -1.7574
 2834TIP3   OH2 8446   2.050   7.726   4.520  0.6125  0.1765  0.0435
 2834TIP3    H1 8447   2.112   7.741   4.449  3.1452  2.0022  2.4105
 2834TIP3    H2 8448   2.035   7.631   4.519  2.1285 -0.0985 -1.6912
 2835TIP3   OH2 8449   0.124   6.772   3.214 -0.0246  0.2280 -0.6502
 2835TIP3    H1 8450   0.093   6.683   3.231 -0.3460  0.3382 -0.6435
 2835TIP3    H2 8451   0.217   6.762   3.196  0.4717  0.1521  1.6708
 2836TIP3   OH2 8452   4.787   1.610   2.027  0.2501 -0.0618  0.3676
 2836TIP3    H1 8453   4.862   1.585   2.081 -0.7058 -1.4755  1.0934
 2836TIP3    H2 8454   4.734   1.666   2.082  0.0841 -0.1869  0.3365
 2837TIP3   OH2 8455   8.295   1.008   4.219  0.2934  0.0900  0.1132
 2837TIP3    H1 8456   8.348   0.935   4.252 -0.2338  0.4690  1.8813
 2837TIP3    H2 8457   8.209   0.969   4.201  0.3195  0.0597  0.0556
 2838TIP3   OH2 8458   5.052   3.479   5.614 -0.2872  0.3144  0.4532
 2838TIP3    H1 8459   5.113   3.545   5.582  0.9635 -1.2460 -0.5155
 2838TIP3    H2 8460   4.974   3.490   5.560 -0.1832  1.1230  0.4530
 2839TIP3   OH2 8461   5.734   5.171   3.580  0.1929  0.4554 -0.1451
 2839TIP3    H1 8462   5.696   5.218   3.654 -0.4442 -0.1599 -0.0597
 2839TIP3    H2 8463   5.751   5.238   3.514  0.9785  1.0462  0.6344
 2840TIP3   OH2 8464   6.748   4.771   1.273 -0.0173  0.3177 -0.4352
 2840TIP3    H1 8465   6.699   4.757   1.192  0.4568 -0.6580 -0.5781
 2840TIP3    H2 8466   6.694   4.831   1.324 -0.5800  0.5225 -1.2490
 2841TIP3   OH2 8467   6.676   5.334   4.212 -0.1494  0.2602 -0.0284
 2841TIP3    H1 8468   6.743   5.272   4.243 -0.7631 -0.2627  0.2728
 2841TIP3    H2 8469   6.656   5.305   4.123 -1.2458 -0.6774  0.5080
 2842TIP3   OH2 8470   4.991   6.132   4.681  0.6141 -0.7963  0.2836
 2842TIP3    H1 8471   4.915   6.148   4.736 -0.0086 -0.0368 -0.7734
 2842TIP3    H2 8472   5.042   6.213   4.684  2.2362 -1.7733  2.1926
 2843TIP3   OH2 8473   4.443   0.173   0.059 -0.5877  0.0914 -0.4725
 2843TIP3    H1 8474   4.400   0.148  -0.023 -0.4169 -3.4223  0.3757
 2843TIP3    H2 8475   4.373   0.211   0.112 -1.4797 -0.7372 -1.0268
 2844TIP3   OH2 8476   4.716   6.815   0.570  0.2167 -0.3394  0.8407
 2844TIP3    H1 8477   4.766   6.896   0.581  1.1472 -0.6929 -0.5124
 2844TIP3    H2 8478   4.739   6.762   0.646  0.4935  0.2115  1.1473
 2845TIP3   OH2 8479   7.129   7.301   4.543 -0.8071  0.2305  0.3037
 2845TIP3    H1 8480   7.184   7.261   4.611  0.7788 -0.2361 -1.1639
 2845TIP3    H2 8481   7.103   7.385   4.580  1.4309  0.7531  0.8807
 2846TIP3   OH2 8482   4.970   7.620   4.061  0.2660  0.3043  0.2798
 2846TIP3    H1 8483   4.960   7.692   4.122 -1.5660 -0.0360  0.4475
 2846TIP3    H2 8484   5.005   7.660   3.981 -1.6944  1.6060  0.0074
 2847TIP3   OH2 8485   5.450   4.858   3.713  0.1368  0.3892 -0.3378
 2847TIP3    H1 8486   5.457   4.872   3.619  0.4363 -1.2670 -0.5806
 2847TIP3    H2 8487   5.502   4.929   3.752  0.5705  0.6922 -1.4371
 2848TIP3   OH2 8488   0.521   7.022   5.255 -0.0123 -0.0889  0.2550
 2848TIP3    H1 8489   0.614   7.034   5.235 -0.1178 -0.9982 -0.8880
 2848TIP3    H2 8490   0.510   7.059   5.343  1.3961  0.1485  0.3481
 2849TIP3   OH2 8491   5.264   5.752   0.287  0.0635  0.3929  0.0765
 2849TIP3    H1 8492   5.209   5.815   0.240  2.9103  2.0619 -1.2757
 2849TIP3    H2 8493   5.350   5.760   0.246  1.5097 -1.6640  2.4337
 2850TIP3   OH2 8494   7.942   3.679   2.269  0.0231  0.2860  0.0397
 2850TIP3    H1 8495   7.951   3.687   2.364 -2.4506 -1.9814  0.5901
 2850TIP3    H2 8496   8.021   3.633   2.241  0.0767 -0.3917  1.2480
 2851TIP3   OH2 8497   3.124   1.975   1.173 -0.2070 -0.4816  0.5684
 2851TIP3    H1 8498   3.053   1.915   1.151  0.4950 -0.7135 -1.2974
 2851TIP3    H2 8499   3.168   1.935   1.248 -1.2730 -0.9702  0.9506
 2852TIP3   OH2 8500   1.910   4.861   2.281  0.7471  0.2578  0.0975
 2852TIP3    H1 8501   1.913   4.866   2.186 -0.9510 -0.4812 -0.0397
 2852TIP3    H2 8502   1.855   4.934   2.308  0.9459  0.2694  0.4835
 2853TIP3   OH2 8503   5.772   1.109   6.166  0.1637 -0.1310 -0.0545
 2853TIP3    H1 8504   5.792   1.081   6.255 -0.9363 -0.6744  0.0379
 2853TIP3    H2 8505   5.690   1.159   6.175 -0.3526 -0.8093 -0.8443
 2854TIP3   OH2 8506   3.357   1.725   5.316 -0.3550  0.1124 -0.3059
 2854TIP3    H1 8507   3.397   1.812   5.316  0.6826 -0.3495 -0.9455
 2854TIP3    H2 8508   3.276   1.736   5.266  0.5368  0.3984 -1.7375
 2855TIP3   OH2 8509   6.315   3.387   6.593  0.3542 -0.0548  0.1700
 2855TIP3    H1 8510   6.351   3.339   6.519 -0.5289  1.7100 -1.4993
 2855TIP3    H2 8511   6.342   3.478   6.578 -1.3449  0.6395  1.0336
 2856TIP3   OH2 8512   6.275   6.372   0.045  0.3969 -0.1891 -0.0644
 2856TIP3    H1 8513   6.207   6.306   0.057  0.0562  0.2175  0.2778
 2856TIP3    H2 8514   6.357   6.325   0.057  0.1354 -0.1115  2.5776
 2857TIP3   OH2 8515   4.263   6.712   3.908 -0.1416  0.6266 -0.5777
 2857TIP3    H1 8516   4.353   6.691   3.882 -0.5673 -0.4189 -1.3193
 2857TIP3    H2 8517   4.211   6.686   3.833 -1.2183 -0.3630  0.4713
 2858TIP3   OH2 8518   5.111   4.688   2.047 -0.7102 -0.3239  0.0836
 2858TIP3    H1 8519   5.123   4.718   1.957 -0.4839  0.7877  0.4763
 2858TIP3    H2 8520   5.159   4.605   2.050  0.3446  0.2363 -0.4958
 2859TIP3   OH2 8521   2.113   5.157   1.385  0.2964 -0.0494  0.1434
 2859TIP3    H1 8522   2.088   5.239   1.429  0.5547 -0.0417  0.2813
 2859TIP3    H2 8523   2.085   5.169   1.294 -0.8173 -0.3180  0.4388
 2860TIP3   OH2 8524   5.655   1.589   4.028 -0.2936 -0.2675 -1.0577
 2860TIP3    H1 8525   5.562   1.580   4.005 -0.2072 -2.2186 -0.8179
 2860TIP3    H2 8526   5.679   1.504   4.064  1.0613  0.8811  0.9170
 2861TIP3   OH2 8527   4.386   2.731   2.729 -0.0548  0.3418  0.2160
 2861TIP3    H1 8528   4.317   2.678   2.768  0.5917  0.3374  1.3808
 2861TIP3    H2 8529   4.467   2.693   2.762  0.4368  1.8703  0.8520
 2862TIP3   OH2 8530   3.677   0.147   2.586  0.6111  0.4887  0.3081
 2862TIP3    H1 8531   3.714   0.221   2.538 -0.4081  0.5647 -0.3946
 2862TIP3    H2 8532   3.622   0.187   2.653  0.7120  0.3682  0.4642
 2863TIP3   OH2 8533   3.065   3.626   5.262 -0.5337 -0.2203 -0.0371
 2863TIP3    H1 8534   3.136   3.660   5.207  0.2551  1.0167  1.6519
 2863TIP3    H2 8535   3.001   3.592   5.199  0.4652  0.8054 -1.7132
 2864TIP3   OH2 8536   7.928   7.387   5.824 -0.0290  0.2665  0.1665
 2864TIP3    H1 8537   7.880   7.455   5.776 -0.7491 -1.0087 -0.9752
 2864TIP3    H2 8538   7.902   7.400   5.916  1.1422  2.5564  0.2431
 2865TIP3   OH2 8539   1.683   5.743   1.760  0.3211 -0.0776  0.0116
 2865TIP3    H1 8540   1.778   5.742   1.749  0.1969  0.1507 -1.1878
 2865TIP3    H2 8541   1.648   5.696   1.684 -0.5908  1.3555 -0.4986
 2866TIP3   OH2 8542   0.816   3.993   2.335 -0.3596 -0.2624  0.3812
 2866TIP3    H1 8543   0.855   4.013   2.250 -0.3246  1.0514  0.6946
 2866TIP3    H2 8544   0.887   4.005   2.398 -0.5291 -0.6982  0.6666
 2867TIP3   OH2 8545   5.986   1.004   4.162 -0.4968  0.1522 -0.1828
 2867TIP3    H1 8546   5.976   0.923   4.113  0.0969 -0.4706  0.7083
 2867TIP3    H2 8547   6.078   1.027   4.153 -0.6586  0.7356 -0.4233
 2868TIP3   OH2 8548   1.584   1.155   0.778 -0.5076  0.5034 -0.0427
 2868TIP3    H1 8549   1.546   1.082   0.827  1.5722 -0.7400 -0.1186
 2868TIP3    H2 8550   1.571   1.132   0.686  0.1883  0.1900 -0.0673
 2869TIP3   OH2 8551   0.511   0.848   5.283 -0.5367  1.0567  0.7219
 2869TIP3    H1 8552   0.506   0.904   5.360  0.5740 -1.2335  2.5534
 2869TIP3    H2 8553   0.466   0.768   5.308  1.2312 -0.3598 -0.3823
 2870TIP3   OH2 8554   7.442   0.808   6.609 -0.2180  0.6316  0.1211
 2870TIP3    H1 8555   7.374   0.816   6.542  1.5426  0.6635 -1.7825
 2870TIP3    H2 8556   7.462   0.715   6.612  0.3492  0.7400 -0.1058
 2871TIP3   OH2 8557   2.807   2.171   3.501 -0.0215  0.2379 -0.2611
 2871TIP3    H1 8558   2.870   2.226   3.455 -1.1780  0.0845 -2.1611
 2871TIP3    H2 8559   2.823   2.083   3.469 -0.5486  0.0411 -0.0002
 2872TIP3   OH2 8560   1.608   4.356   0.500  0.4435  0.0554 -0.5000
 2872TIP3    H1 8561   1.601   4.373   0.406  1.3649 -0.3433 -0.6524
 2872TIP3    H2 8562   1.554   4.278   0.515  1.5855 -0.8559 -1.0020
 2873TIP3   OH2 8563   4.029   0.875   5.785 -0.0026 -0.1606 -0.5939
 2873TIP3    H1 8564   3.980   0.853   5.864  0.7849 -0.5663 -0.2111
 2873TIP3    H2 8565   3.962   0.902   5.722 -0.7751 -1.2911 -0.2818
 2874TIP3   OH2 8566   8.174   2.829   5.352 -0.8870  0.2704 -0.0487
 2874TIP3    H1 8567   8.236   2.836   5.424 -0.4048  0.6274 -0.4898
 2874TIP3    H2 8568   8.215   2.767   5.291 -0.2513  1.6326 -1.0435
 2875TIP3   OH2 8569   6.828   6.883   0.836 -0.3156  0.1588 -0.6333
 2875TIP3    H1 8570   6.736   6.911   0.835  0.2730  2.2935 -1.2138
 2875TIP3    H2 8571   6.832   6.810   0.775 -1.5206  0.4306 -1.0759
 2876TIP3   OH2 8572   6.023   0.074   2.163  0.1125 -0.1161  0.1626
 2876TIP3    H1 8573   6.043   0.125   2.084 -1.3872 -0.4824 -0.4901
 2876TIP3    H2 8574   5.985  -0.008   2.130  0.4896 -0.7527  1.2454
 2877TIP3   OH2 8575   2.484   5.139   1.727 -0.5192 -0.2638 -0.1842
 2877TIP3    H1 8576   2.517   5.229   1.728 -0.8695 -0.1372  0.5839
 2877TIP3    H2 8577   2.428   5.134   1.649  0.7437 -0.2820 -1.1171
 2878TIP3   OH2 8578   6.506   6.798   5.000 -0.0897  0.1363  0.1765
 2878TIP3    H1 8579   6.588   6.814   4.955  0.5726 -0.8004  1.0167
 2878TIP3    H2 8580   6.457   6.739   4.941 -0.2610  0.8639 -0.4187
 2879TIP3   OH2 8581   5.023   3.843   4.975 -0.2281 -0.1645 -0.1377
 2879TIP3    H1 8582   5.075   3.863   4.897  0.0651  0.3357  0.1797
 2879TIP3    H2 8583   5.088   3.828   5.044 -0.4371 -1.9716 -0.2900
 2880TIP3   OH2 8584   4.438   3.305   0.575 -0.0431  0.3958  0.2047
 2880TIP3    H1 8585   4.501   3.357   0.526  2.3778 -2.3796  0.0989
 2880TIP3    H2 8586   4.376   3.273   0.509  0.1684  0.8010 -0.1906
 2881TIP3   OH2 8587   4.583   4.924   6.418  0.3055 -0.3958  0.4319
 2881TIP3    H1 8588   4.498   4.927   6.375  0.7120  0.3684 -0.3581
 2881TIP3    H2 8589   4.646   4.920   6.346  0.9521 -0.5880  0.9938
 2882TIP3   OH2 8590   3.667   0.615   3.014 -0.1501 -0.0847  1.0109
 2882TIP3    H1 8591   3.725   0.642   3.085 -0.2440 -1.4694  1.6531
 2882TIP3    H2 8592   3.670   0.687   2.951  1.0241  0.5526  1.7680
 2883TIP3   OH2 8593   1.944   2.849   5.200 -0.3394  0.3120 -0.6823
 2883TIP3    H1 8594   1.947   2.766   5.153 -0.3478 -0.0834  0.0031
 2883TIP3    H2 8595   1.928   2.825   5.291  0.9762  0.9878 -0.2454
 2884TIP3   OH2 8596   1.892   4.512   1.749 -0.0864  0.3359  0.3332
 2884TIP3    H1 8597   1.862   4.504   1.840  0.2068 -0.0870  0.3944
 2884TIP3    H2 8598   1.981   4.547   1.756  0.7725 -1.7317  0.3233
 2885TIP3   OH2 8599   0.485   0.704   1.046 -0.6646 -0.0533  0.6602
 2885TIP3    H1 8600   0.394   0.735   1.041 -0.6508  0.1700  1.6413
 2885TIP3    H2 8601   0.477   0.612   1.071 -0.6587 -0.5425 -0.9755
 2886TIP3   OH2 8602   0.093   7.355   6.125 -0.1550  0.0543 -0.6750
 2886TIP3    H1 8603   0.130   7.291   6.186  0.7865  0.0488 -1.2254
 2886TIP3    H2 8604   0.080   7.305   6.044 -0.0159  0.4063 -0.9161
 2887TIP3   OH2 8605   4.199   5.462   1.111 -0.8287 -0.0253  0.2721
 2887TIP3    H1 8606   4.269   5.522   1.088  0.9340 -0.6240  3.4297
 2887TIP3    H2 8607   4.179   5.416   1.029  2.5364  0.1442 -0.8241
 2888TIP3   OH2 8608   2.242   1.573   6.137  0.3072  0.3115 -0.2109
 2888TIP3    H1 8609   2.334   1.599   6.140  0.4938 -0.3828  0.4303
 2888TIP3    H2 8610   2.240   1.500   6.075  0.5218 -0.8710  1.1238
 2889TIP3   OH2 8611   1.622   3.109   2.952 -0.0645 -0.5329 -0.2548
 2889TIP3    H1 8612   1.692   3.067   2.902  0.4436  0.7423 -0.6460
 2889TIP3    H2 8613   1.611   3.054   3.029  1.7931 -0.4226  0.1135
 2890TIP3   OH2 8614   6.613   0.351   0.142  0.1697  0.1631  0.0000
 2890TIP3    H1 8615   6.576   0.364   0.230  0.8675  1.7632  0.0789
 2890TIP3    H2 8616   6.545   0.305   0.094 -0.8243  0.6086  0.9509
 2891TIP3   OH2 8617   5.930   7.840   0.690 -0.7296 -0.3743 -0.0143
 2891TIP3    H1 8618   5.939   7.763   0.746  0.4355 -0.6572 -0.5764
 2891TIP3    H2 8619   5.970   7.815   0.607 -0.3541  0.8258 -0.2119
 2892TIP3   OH2 8620   5.280   3.311   1.206 -0.1900 -0.7235 -0.0148
 2892TIP3    H1 8621   5.359   3.258   1.196 -0.7313 -1.8184  1.1861
 2892TIP3    H2 8622   5.255   3.335   1.117  0.0232 -2.5897 -0.6176
 2893TIP3   OH2 8623   2.727   0.950   4.181  0.6238 -0.7337  0.2273
 2893TIP3    H1 8624   2.763   0.882   4.239  1.9677  1.6907  2.4891
 2893TIP3    H2 8625   2.668   1.001   4.238 -3.2801 -1.9918 -2.3043
 2894TIP3   OH2 8626   0.485   7.279   0.141  0.2225 -0.0227  0.4173
 2894TIP3    H1 8627   0.492   7.248   0.231  1.2602  0.3693  0.4861
 2894TIP3    H2 8628   0.462   7.201   0.090  1.2935 -0.6026  0.7973
 2895TIP3   OH2 8629   0.249   2.444   3.188  0.3769 -0.5814 -0.1898
 2895TIP3    H1 8630   0.234   2.355   3.157  0.0668 -0.3890 -0.6037
 2895TIP3    H2 8631   0.324   2.437   3.247  0.2580 -1.1381 -0.1044
 2896TIP3   OH2 8632   4.288   1.511   6.290  0.1890 -0.3423 -0.3666
 2896TIP3    H1 8633   4.349   1.556   6.232  0.0959  0.0358 -0.1729
 2896TIP3    H2 8634   4.278   1.424   6.251  0.1738 -0.1140 -0.8851
 2897TIP3   OH2 8635   2.030   2.740   0.026  0.5055  0.0135  0.3482
 2897TIP3    H1 8636   1.944   2.727  -0.014 -0.3151  1.3631  1.5756
 2897TIP3    H2 8637   2.077   2.658   0.009 -0.8085 -0.5405 -0.8296
 2898TIP3   OH2 8638   4.152   6.992   2.566  0.1843  0.2781  0.3261
 2898TIP3    H1 8639   4.123   7.052   2.635  0.0701 -0.8186  1.2657
 2898TIP3    H2 8640   4.212   7.044   2.513  0.1879  1.1894  1.1841
 2899TIP3   OH2 8641   6.281   7.468   4.288 -0.2596 -0.0799  0.1162
 2899TIP3    H1 8642   6.258   7.376   4.275  1.7792 -0.7709  1.0288
 2899TIP3    H2 8643   6.294   7.502   4.199 -2.8604 -0.0998 -0.3357
 2900TIP3   OH2 8644   2.402   4.328   5.386  0.1699  0.2884  0.1998
 2900TIP3    H1 8645   2.440   4.304   5.470 -2.5914  0.7636  1.7091
 2900TIP3    H2 8646   2.355   4.250   5.357 -1.1240  0.9275  0.4925
 2901TIP3   OH2 8647   6.855   6.188   0.572 -0.7561 -0.4143  0.3703
 2901TIP3    H1 8648   6.768   6.226   0.587 -0.0188  0.7987  2.0409
 2901TIP3    H2 8649   6.915   6.248   0.618  0.8946 -1.5829 -0.1578
 2902TIP3   OH2 8650   6.728   7.462   1.808  0.0154  0.0983  0.4033
 2902TIP3    H1 8651   6.729   7.459   1.712 -2.1705 -1.9803  0.3434
 2902TIP3    H2 8652   6.673   7.537   1.829 -0.8163 -0.3607 -0.0553
 2903TIP3   OH2 8653   8.043   4.180   2.585 -0.3078  0.2145 -0.1034
 2903TIP3    H1 8654   8.063   4.268   2.617  0.0583 -0.3975  1.4029
 2903TIP3    H2 8655   7.968   4.193   2.526  1.9272  2.0360 -2.8585
 2904TIP3   OH2 8656   2.127   4.594   0.421 -0.2139 -0.5732  0.4354
 2904TIP3    H1 8657   2.094   4.655   0.355  0.4225  0.0131  0.6474
 2904TIP3    H2 8658   2.181   4.532   0.372  0.5999  0.1073  0.4326
 2905TIP3   OH2 8659   2.134   1.419   0.230  0.2409 -0.1438  0.4270
 2905TIP3    H1 8660   2.172   1.467   0.303  1.0344 -0.5579  0.2974
 2905TIP3    H2 8661   2.039   1.430   0.241  0.2877 -1.0830  2.1229
 2906TIP3   OH2 8662   7.481   2.205   5.839  0.4557 -0.0312  0.6980
 2906TIP3    H1 8663   7.450   2.166   5.757  0.3532  1.7816 -0.1882
 2906TIP3    H2 8664   7.556   2.258   5.813 -1.1792  2.7807  1.1946
 2907TIP3   OH2 8665   8.127   4.727   4.198  0.1586  0.2659  0.3007
 2907TIP3    H1 8666   8.140   4.706   4.106 -0.3008 -0.6051  0.4249
 2907TIP3    H2 8667   8.204   4.692   4.242  1.6999  2.9965 -0.0398
 2908TIP3   OH2 8668   3.193   7.680   2.025 -0.1857  0.3318  0.1408
 2908TIP3    H1 8669   3.257   7.618   2.060 -0.4585 -0.0996 -0.1156
 2908TIP3    H2 8670   3.149   7.632   1.956  0.4920  1.2450 -0.9583
 2909TIP3   OH2 8671   7.960   0.142   4.233  0.4890 -0.1230 -0.7797
 2909TIP3    H1 8672   7.961   0.047   4.238  1.0099 -0.0632  2.3270
 2909TIP3    H2 8673   8.050   0.165   4.208  0.7862 -0.4357 -0.0287
 2910TIP3   OH2 8674   3.037   5.644   0.836 -0.5524 -0.1776  0.2056
 2910TIP3    H1 8675   2.970   5.712   0.826 -1.4516 -0.9002  1.0296
 2910TIP3    H2 8676   2.994   5.576   0.888  0.4304 -1.2308 -0.3048
 2911TIP3   OH2 8677   6.319   2.813   5.375 -0.6582 -0.0720 -0.3455
 2911TIP3    H1 8678   6.239   2.863   5.362 -1.0415 -1.0255 -1.9750
 2911TIP3    H2 8679   6.299   2.756   5.450 -1.4214 -0.1345 -0.5848
 2912TIP3   OH2 8680   2.125   3.022   3.099 -0.8342  0.1376 -0.8668
 2912TIP3    H1 8681   2.043   3.049   3.142 -0.4416 -0.3490  0.2447
 2912TIP3    H2 8682   2.157   3.101   3.057 -0.1330  1.2922  1.6090
 2913TIP3   OH2 8683   7.249   2.591   2.521 -0.3280 -0.4772 -0.4071
 2913TIP3    H1 8684   7.171   2.538   2.502  0.4891 -2.2375  0.8251
 2913TIP3    H2 8685   7.322   2.537   2.489  0.4500  0.7158 -0.6894
 2914TIP3   OH2 8686   1.848   1.466   0.148 -0.4628 -0.3031 -0.1618
 2914TIP3    H1 8687   1.803   1.382   0.146 -1.8721  0.4322 -0.1471
 2914TIP3    H2 8688   1.779   1.531   0.137  0.4432  0.9082  0.9595
 2915TIP3   OH2 8689   5.904   2.968   3.020  0.3004 -0.1883 -0.0749
 2915TIP3    H1 8690   5.837   2.955   3.088 -0.1876  0.2299 -0.4723
 2915TIP3    H2 8691   5.875   3.045   2.972  2.2290  1.3789  1.1245
 2916TIP3   OH2 8692   3.294   3.707   3.811 -0.3298  0.0864  0.0821
 2916TIP3    H1 8693   3.256   3.733   3.727 -1.8225 -1.1170  0.3436
 2916TIP3    H2 8694   3.231   3.737   3.877 -0.0475 -0.5207  0.6399
 2917TIP3   OH2 8695   5.708   5.303   3.820 -0.1184  0.3051 -0.1145
 2917TIP3    H1 8696   5.687   5.331   3.909  1.2798  0.0282  0.3279
 2917TIP3    H2 8697   5.769   5.370   3.788 -0.2923  0.1801 -0.7183
 2918TIP3   OH2 8698   2.380   3.093   4.472  0.2838 -0.3653 -0.3597
 2918TIP3    H1 8699   2.338   3.077   4.557  1.1898 -0.3344  0.1089
 2918TIP3    H2 8700   2.458   3.143   4.494 -0.8233  1.9877 -1.4815
 2919TIP3   OH2 8701   7.582   6.842   3.460  0.9000 -0.1326  0.6829
 2919TIP3    H1 8702   7.546   6.887   3.383  1.0927  0.8197  1.1368
 2919TIP3    H2 8703   7.520   6.772   3.478  0.6921 -0.1806 -0.1548
 2920TIP3   OH2 8704   6.763   1.081   5.444  0.4950  0.7366  0.0940
 2920TIP3    H1 8705   6.698   1.104   5.377 -0.4095 -1.2750  0.2026
 2920TIP3    H2 8706   6.797   0.996   5.416  0.4919  0.1005  1.8761
 2921TIP3   OH2 8707   7.389   6.866   2.327 -0.1443 -0.1493  0.1770
 2921TIP3    H1 8708   7.472   6.826   2.301  0.6410  1.6390 -0.1810
 2921TIP3    H2 8709   7.360   6.913   2.249  0.8167  2.9334  1.5293
 2922TIP3   OH2 8710   6.087   7.300   0.093 -0.0595  0.0749  0.2246
 2922TIP3    H1 8711   6.131   7.272   0.013  0.2521  1.2541 -0.0273
 2922TIP3    H2 8712   5.994   7.289   0.074  0.0521 -0.9170  0.1934
 2923TIP3   OH2 8713   7.268   6.076   1.869 -0.8930 -0.0583 -0.2336
 2923TIP3    H1 8714   7.293   6.090   1.778 -3.1414  1.4237 -0.7110
 2923TIP3    H2 8715   7.296   5.987   1.889 -1.0647 -0.7100 -2.6290
 2924TIP3   OH2 8716   3.262   2.531   1.159 -0.1339  0.2823  0.1648
 2924TIP3    H1 8717   3.260   2.487   1.074  1.6774 -1.6122  1.0298
 2924TIP3    H2 8718   3.264   2.625   1.137 -0.3295 -0.1348 -1.8426
 2925TIP3   OH2 8719   7.881   2.484   4.948  0.5377  0.1512 -0.7654
 2925TIP3    H1 8720   7.948   2.501   5.015 -1.5167  1.5704  1.0619
 2925TIP3    H2 8721   7.882   2.389   4.937 -0.2939 -0.4278  2.7882
 2926TIP3   OH2 8722   1.675   7.405   6.094  0.5458 -0.3505  0.0360
 2926TIP3    H1 8723   1.722   7.335   6.049  1.9553 -0.4072  1.5048
 2926TIP3    H2 8724   1.661   7.371   6.183  3.5372  2.0801  1.6178
 2927TIP3   OH2 8725   1.618   7.461   4.801  0.3804  0.1974  0.2277
 2927TIP3    H1 8726   1.694   7.444   4.856  0.3462 -0.4085  0.0947
 2927TIP3    H2 8727   1.547   7.480   4.863  0.6495  0.8226  0.3487
 2928TIP3   OH2 8728   7.602   6.222   1.965 -0.3853  0.0161  0.0480
 2928TIP3    H1 8729   7.598   6.222   2.061 -1.1712  0.6669  0.0235
 2928TIP3    H2 8730   7.695   6.212   1.945  0.2508  3.0937  0.9170
 2929TIP3   OH2 8731   2.893   2.527   3.125 -0.0376  0.9796  0.3410
 2929TIP3    H1 8732   2.873   2.507   3.034 -0.1220  1.2843  0.2922
 2929TIP3    H2 8733   2.984   2.556   3.124  0.0510  0.7086  0.3964
 2930TIP3   OH2 8734   4.213   1.707   2.804  0.0569 -0.0568 -0.1936
 2930TIP3    H1 8735   4.134   1.661   2.834  0.4608 -1.3642 -1.0941
 2930TIP3    H2 8736   4.264   1.721   2.884 -0.0475 -1.2326  0.0904
 2931TIP3   OH2 8737   3.430   7.525   2.094 -0.0745 -0.0467  1.0025
 2931TIP3    H1 8738   3.516   7.519   2.051  0.5223  1.1038  1.9854
 2931TIP3    H2 8739   3.380   7.453   2.055  0.1979  1.2552 -2.0701
 2932TIP3   OH2 8740   6.796   6.199   1.933  0.3237 -0.0026  0.2057
 2932TIP3    H1 8741   6.856   6.221   2.005  2.1646 -0.4719 -1.0984
 2932TIP3    H2 8742   6.815   6.265   1.866  0.5305 -1.1090 -0.8410
 2933TIP3   OH2 8743   1.917   6.524   6.236 -0.7715 -0.6563  0.3812
 2933TIP3    H1 8744   1.945   6.446   6.190  0.4277  1.2191 -2.3117
 2933TIP3    H2 8745   1.886   6.583   6.167 -0.0503  1.8883  2.0963
 2934TIP3   OH2 8746   3.784   4.010   3.322  0.0142  0.2747  0.4239
 2934TIP3    H1 8747   3.870   4.039   3.351 -0.6119  1.7295  0.8922
 2934TIP3    H2 8748   3.793   3.915   3.311  1.7666  0.4511  0.0818
 2935TIP3   OH2 8749   7.925   1.493   2.989  0.0318 -0.2215  0.5726
 2935TIP3    H1 8750   7.834   1.465   2.993  0.4736 -1.9090 -0.3422
 2935TIP3    H2 8751   7.967   1.450   3.064  0.8633 -2.7351 -1.2329
 2936TIP3   OH2 8752   1.575   6.675   3.613  0.3348  0.5695 -0.0931
 2936TIP3    H1 8753   1.641   6.684   3.544 -0.4530  1.2550 -0.7680
 2936TIP3    H2 8754   1.624   6.688   3.695  1.0423  1.0253 -0.5794
 2937TIP3   OH2 8755   1.595   0.973   4.538  0.2246 -0.4749 -0.6915
 2937TIP3    H1 8756   1.592   1.026   4.458  3.5393 -0.5616 -0.9942
 2937TIP3    H2 8757   1.576   1.036   4.608 -0.8189  0.0135 -1.3894
 2938TIP3   OH2 8758   1.790   6.141   4.960 -0.0780 -0.7160  0.2740
 2938TIP3    H1 8759   1.712   6.091   4.937 -1.8236  2.0497 -0.2564
 2938TIP3    H2 8760   1.809   6.115   5.050 -2.7486 -0.1636  1.0919
 2939TIP3   OH2 8761   1.570   4.967   3.512 -0.6321  0.3747 -0.3241
 2939TIP3    H1 8762   1.597   4.892   3.460  0.0548  0.1184  0.3694
 2939TIP3    H2 8763   1.637   4.974   3.580 -0.3852  1.9538 -0.7034
 2940TIP3   OH2 8764   2.513   7.364   3.437 -0.3910 -0.3655 -0.5181
 2940TIP3    H1 8765   2.484   7.414   3.360  0.1624 -1.1249 -1.2386
 2940TIP3    H2 8766   2.463   7.282   3.433 -1.1862  0.0397  0.5735
 2941TIP3   OH2 8767   0.564   7.204   2.302 -0.4748  0.2320 -0.3265
 2941TIP3    H1 8768   0.621   7.269   2.343 -1.0485 -0.1288  1.1006
 2941TIP3    H2 8769   0.623   7.137   2.269 -0.0164  0.1728  0.5842
 2942TIP3   OH2 8770   6.368   6.891   4.625  0.0503  0.1504 -0.1067
 2942TIP3    H1 8771   6.355   6.847   4.709  0.4825 -1.7240 -0.9728
 2942TIP3    H2 8772   6.452   6.858   4.593 -0.2311  0.6089 -1.3899
 2943TIP3   OH2 8773   7.149   0.569   2.789  0.3225 -0.5545  0.0583
 2943TIP3    H1 8774   7.182   0.652   2.756 -1.4906  0.2812  0.1824
 2943TIP3    H2 8775   7.127   0.586   2.881 -0.4042 -1.0533 -0.0104
 2944TIP3   OH2 8776   6.716   2.684   2.093 -0.1661  0.1654  0.0586
 2944TIP3    H1 8777   6.746   2.721   2.176 -0.3187 -0.2262  0.2907
 2944TIP3    H2 8778   6.662   2.609   2.118 -0.0533 -0.0742 -0.3995
 2945TIP3   OH2 8779   7.034   3.208   3.275 -0.4051  0.2482 -0.5880
 2945TIP3    H1 8780   7.030   3.285   3.220 -0.4093 -0.5036 -1.6643
 2945TIP3    H2 8781   6.966   3.222   3.342 -0.2834  1.2366 -0.6616
 2946TIP3   OH2 8782   2.736   6.071   4.095  0.0337 -0.5838 -0.6283
 2946TIP3    H1 8783   2.670   6.009   4.066  0.5206 -0.8461 -1.1732
 2946TIP3    H2 8784   2.819   6.038   4.060  0.1863  0.8594 -1.7254
 2947TIP3   OH2 8785   6.190   6.232   2.970  0.5223  0.1115 -0.1129
 2947TIP3    H1 8786   6.166   6.140   2.959 -2.2808  0.8662 -1.1953
 2947TIP3    H2 8787   6.198   6.244   3.064  0.6763 -1.1952  0.0496
 2948TIP3   OH2 8788   2.300   5.886   1.631 -0.6233 -0.5885 -0.5599
 2948TIP3    H1 8789   2.284   5.966   1.580  0.3831 -0.5956 -0.9108
 2948TIP3    H2 8790   2.356   5.833   1.575 -0.1209 -0.9257  0.2477
 2949TIP3   OH2 8791   1.164   0.856   4.059 -0.0340  0.2138  0.3813
 2949TIP3    H1 8792   1.185   0.832   3.969 -0.4861  3.3088 -0.6545
 2949TIP3    H2 8793   1.234   0.916   4.085  0.1965 -0.7685  2.2175
 2950TIP3   OH2 8794   1.198   6.369   0.159  0.4357  0.0352  0.3421
 2950TIP3    H1 8795   1.104   6.388   0.162  0.3776 -0.3282  1.2364
 2950TIP3    H2 8796   1.220   6.370   0.066 -0.0858  1.8820  0.1970
 2951TIP3   OH2 8797   1.479   6.465   1.431  0.0498  0.2186 -0.4243
 2951TIP3    H1 8798   1.490   6.558   1.412 -0.5926  0.3161 -0.3595
 2951TIP3    H2 8799   1.557   6.441   1.481  1.7049  0.0061 -2.9183
 2952TIP3   OH2 8800   2.128   0.726   6.202 -0.1486  0.1911 -0.4087
 2952TIP3    H1 8801   2.096   0.814   6.181  0.1827  1.0795  2.4262
 2952TIP3    H2 8802   2.204   0.714   6.145  0.7565  2.4319  0.1984
 2953TIP3   OH2 8803   0.935   5.965   4.106 -0.1223 -0.2704  0.2138
 2953TIP3    H1 8804   1.004   6.003   4.051  2.3189 -1.7548  2.0220
 2953TIP3    H2 8805   0.969   5.975   4.195 -3.3780  1.0148  1.4411
 2954TIP3   OH2 8806   1.564   3.554   0.223  0.7154 -0.1725  0.0967
 2954TIP3    H1 8807   1.637   3.499   0.197  1.2025  0.1057  0.8192
 2954TIP3    H2 8808   1.528   3.511   0.301  0.3461 -0.1056 -0.0336
 2955TIP3   OH2 8809   1.751   6.410   1.302  0.6287 -0.3819 -0.6343
 2955TIP3    H1 8810   1.727   6.318   1.310  0.9757 -0.4661 -0.5568
 2955TIP3    H2 8811   1.788   6.434   1.387  0.2228 -0.0728 -0.5371
 2956TIP3   OH2 8812   1.047   7.227   1.890  0.0484 -0.3593 -0.1073
 2956TIP3    H1 8813   0.980   7.166   1.920 -0.6381  0.8583  0.9548
 2956TIP3    H2 8814   1.107   7.174   1.838 -1.0184 -1.7360  0.0278
 2957TIP3   OH2 8815   3.039   4.020   3.984 -0.2380 -0.1674  0.2968
 2957TIP3    H1 8816   2.945   4.013   3.968 -0.5229  2.0997  0.7086
 2957TIP3    H2 8817   3.050   4.104   4.027  1.9365 -0.6381  0.7751
 2958TIP3   OH2 8818   3.930   6.095   2.812  0.2348 -0.0900  0.4333
 2958TIP3    H1 8819   3.870   6.042   2.865  1.6412 -0.7339  1.4609
 2958TIP3    H2 8820   4.012   6.094   2.862  0.8734  1.4068 -0.5382
 2959TIP3   OH2 8821   7.097   5.804   2.172  0.0113 -0.4080  0.0772
 2959TIP3    H1 8822   7.020   5.858   2.153  0.7915  0.4397 -0.7170
 2959TIP3    H2 8823   7.070   5.715   2.148 -1.3502 -0.4502  1.5846
 2960TIP3   OH2 8824   2.084   6.333   5.390  0.5217  0.0097 -0.4413
 2960TIP3    H1 8825   2.107   6.287   5.471  1.3068 -1.9293 -1.6719
 2960TIP3    H2 8826   2.013   6.392   5.415  0.5772 -0.7037  1.6035
 2961TIP3   OH2 8827   2.734   3.332   0.350 -0.9636  0.2514  0.1191
 2961TIP3    H1 8828   2.690   3.267   0.295 -1.1751  1.1459 -0.7862
 2961TIP3    H2 8829   2.777   3.391   0.288 -0.7313  0.9442  0.9279
 2962TIP3   OH2 8830   2.422   3.404   5.404 -0.4567  0.3401  0.0801
 2962TIP3    H1 8831   2.328   3.403   5.425 -0.7252 -1.1394 -1.0002
 2962TIP3    H2 8832   2.426   3.371   5.314  1.0985  0.5434  0.0609
 2963TIP3   OH2 8833   1.282   2.991   3.503  0.2750 -0.2229 -0.0951
 2963TIP3    H1 8834   1.239   2.908   3.481  0.1161 -0.5386  1.2858
 2963TIP3    H2 8835   1.210   3.046   3.535  0.7942 -0.6941  2.0653
 2964TIP3   OH2 8836   1.338   6.373   2.636 -0.1680  0.2269  0.5895
 2964TIP3    H1 8837   1.370   6.314   2.704  3.4293  1.1422 -0.0660
 2964TIP3    H2 8838   1.396   6.449   2.641 -2.8939  2.5456 -0.3521
 2965TIP3   OH2 8839   4.110   3.470   5.288 -0.2371  0.3536 -0.1269
 2965TIP3    H1 8840   4.034   3.481   5.345 -0.5270 -0.1846 -0.4064
 2965TIP3    H2 8841   4.080   3.412   5.218 -0.4225  2.4058 -1.8387
 2966TIP3   OH2 8842   3.784   5.145   2.182 -1.0464 -0.5532  0.0032
 2966TIP3    H1 8843   3.755   5.235   2.194 -1.9544 -0.6924 -0.9616
 2966TIP3    H2 8844   3.878   5.152   2.165 -1.1472  0.2373 -0.2850
 2967TIP3   OH2 8845   3.864   4.056   0.816 -0.3910 -0.6386  0.0309
 2967TIP3    H1 8846   3.938   4.039   0.759  0.4733 -0.7041  1.1410
 2967TIP3    H2 8847   3.790   4.069   0.756  0.7136  0.5410 -1.1474
 2968TIP3   OH2 8848   4.864   3.294   0.857  0.4892  0.0758 -0.2925
 2968TIP3    H1 8849   4.946   3.324   0.896  0.5007  0.7273 -0.7919
 2968TIP3    H2 8850   4.889   3.259   0.772  0.4133 -0.9733  0.1052
 2969TIP3   OH2 8851   6.244   5.550   1.168  0.2919 -0.1960 -0.4023
 2969TIP3    H1 8852   6.285   5.466   1.189 -1.0059 -0.5406  0.9471
 2969TIP3    H2 8853   6.194   5.532   1.088  2.2997  0.1093 -1.7969
 2970TIP3   OH2 8854   4.378   0.618   4.710  0.1969 -0.2924  0.4741
 2970TIP3    H1 8855   4.376   0.706   4.670  0.5586 -0.1100  0.8506
 2970TIP3    H2 8856   4.347   0.632   4.799 -0.6614 -0.7114  0.2467
 2971TIP3   OH2 8857   7.665   0.402   4.768 -0.1418 -0.6543 -0.2437
 2971TIP3    H1 8858   7.571   0.389   4.774 -0.1345 -0.5085  0.2435
 2971TIP3    H2 8859   7.678   0.451   4.686 -0.6276  0.5995  0.4104
 2972TIP3   OH2 8860   5.299   5.462   0.506 -0.2789  0.0133  0.2119
 2972TIP3    H1 8861   5.281   5.556   0.506  0.0416  0.0909 -0.6392
 2972TIP3    H2 8862   5.274   5.432   0.593 -0.8855  0.7938  0.3177
 2973TIP3   OH2 8863   5.904   5.928   2.224  0.4032 -0.1102 -0.0021
 2973TIP3    H1 8864   5.887   5.848   2.173  0.2847  0.4829 -0.9086
 2973TIP3    H2 8865   5.999   5.940   2.219  0.3061  0.3900 -0.7741
 2974TIP3   OH2 8866   3.535   2.346   2.652  0.5088 -0.1549 -0.1272
 2974TIP3    H1 8867   3.539   2.337   2.748 -1.0450 -0.4586 -0.0566
 2974TIP3    H2 8868   3.604   2.288   2.619  1.0615 -0.0473  0.8054
 2975TIP3   OH2 8869   2.694   1.682   4.678  0.0146 -0.5301 -0.0317
 2975TIP3    H1 8870   2.736   1.728   4.605 -0.0842 -0.8772 -0.3129
 2975TIP3    H2 8871   2.650   1.608   4.637 -1.6597  0.3197  0.1203
 2976TIP3   OH2 8872   6.060   0.716   2.860  0.3843  0.5426 -0.0574
 2976TIP3    H1 8873   6.062   0.769   2.781  0.4813 -0.4909 -0.7715
 2976TIP3    H2 8874   6.070   0.779   2.932 -1.4128  1.7060 -0.7427
 2977TIP3   OH2 8875   1.361   3.075   5.849 -0.5438  0.7092  0.6214
 2977TIP3    H1 8876   1.354   3.159   5.894 -2.0051  1.2423 -0.5267
 2977TIP3    H2 8877   1.393   3.015   5.916  0.0238  2.0590  1.6030
 2978TIP3   OH2 8878   8.242   4.815   2.196 -0.1486 -0.1351 -0.2972
 2978TIP3    H1 8879   8.205   4.897   2.165  1.5724  1.3639  1.3446
 2978TIP3    H2 8880   8.195   4.797   2.278  0.4399 -0.0210  0.0677
 2979TIP3   OH2 8881   0.915   3.782   4.355 -0.0027 -0.0637  0.5530
 2979TIP3    H1 8882   0.829   3.819   4.375 -0.4492  0.0737 -1.4734
 2979TIP3    H2 8883   0.897   3.699   4.312  0.8806 -0.1781  0.3718
 2980TIP3   OH2 8884   6.613   6.067   5.077  0.2721 -0.1543  0.4595
 2980TIP3    H1 8885   6.693   6.014   5.082  1.5561  1.7862  1.6105
 2980TIP3    H2 8886   6.643   6.157   5.086 -2.0026  0.6921  0.1823
 2981TIP3   OH2 8887   0.242   1.109   2.675  0.7442 -0.3279 -0.0796
 2981TIP3    H1 8888   0.220   1.032   2.623  0.7908  1.4547 -2.9637
 2981TIP3    H2 8889   0.170   1.171   2.658  2.1723  1.3495 -0.2768
 2982TIP3   OH2 8890   3.006   2.626   4.638  0.3057 -0.3336 -0.0446
 2982TIP3    H1 8891   3.094   2.634   4.603  1.4365 -3.8930  1.5129
 2982TIP3    H2 8892   2.993   2.705   4.690  3.0049 -0.1759  0.5283
 2983TIP3   OH2 8893   4.745   7.714   5.996 -0.4652 -0.3160  0.0807
 2983TIP3    H1 8894   4.795   7.632   6.006  2.0127  1.3186  3.4024
 2983TIP3    H2 8895   4.696   7.721   6.078 -0.9781  1.3202 -0.3444
 2984TIP3   OH2 8896   2.884   3.196   1.858  0.4594  0.6277 -1.0633
 2984TIP3    H1 8897   2.883   3.279   1.905  1.0951  0.2735 -0.3899
 2984TIP3    H2 8898   2.934   3.214   1.778  2.5199  0.4112  0.0983
 2985TIP3   OH2 8899   0.743   4.802   4.101 -0.2754 -0.0977  0.6712
 2985TIP3    H1 8900   0.800   4.729   4.124 -0.5540 -0.8072 -0.7832
 2985TIP3    H2 8901   0.741   4.857   4.180  1.8014 -0.4373  1.0090
 2986TIP3   OH2 8902   4.635   7.331   2.973 -0.3455 -0.0883 -0.4732
 2986TIP3    H1 8903   4.640   7.260   2.910  1.5801  0.9403 -1.5500
 2986TIP3    H2 8904   4.705   7.313   3.035 -0.4979  0.3457 -0.1703
 2987TIP3   OH2 8905   0.480   2.902   1.041  0.1744 -0.0847  0.1196
 2987TIP3    H1 8906   0.521   2.903   1.128  1.8280  0.3277 -0.6300
 2987TIP3    H2 8907   0.403   2.847   1.052  0.9427 -0.9389  1.5926
 2988TIP3   OH2 8908   3.478   1.429   0.579  0.5248 -0.3299  0.3986
 2988TIP3    H1 8909   3.472   1.391   0.492  0.7869  1.7288 -0.5751
 2988TIP3    H2 8910   3.564   1.401   0.612  1.7294  1.1915 -1.2407
 2989TIP3   OH2 8911   1.101   0.196   6.758  0.3977 -0.5364 -0.1826
 2989TIP3    H1 8912   1.068   0.205   6.668 -0.6334  1.2514  0.3283
 2989TIP3    H2 8913   1.091   0.103   6.778 -3.0766 -0.3907 -0.6008
 2990TIP3   OH2 8914   6.949   3.963   1.868  0.1672 -0.5999 -0.3386
 2990TIP3    H1 8915   7.034   3.951   1.911  0.9231  0.7717 -1.3684
 2990TIP3    H2 8916   6.952   3.904   1.793  0.7545  0.3204 -1.0717
 2991TIP3   OH2 8917   2.469   0.427   4.789  0.3536  0.0561  0.5687
 2991TIP3    H1 8918   2.414   0.501   4.816  0.2629 -0.3149  1.4455
 2991TIP3    H2 8919   2.428   0.351   4.830  1.4777 -0.2400  1.1833
 2992TIP3   OH2 8920   6.556   5.465   3.323 -0.2880  0.5723  0.1288
 2992TIP3    H1 8921   6.603   5.478   3.240 -1.2258 -0.3865 -0.5670
 2992TIP3    H2 8922   6.529   5.373   3.322 -1.0326  0.7621  1.1309
 2993TIP3   OH2 8923   7.165   6.195   6.095  0.0269  0.1642  0.6733
 2993TIP3    H1 8924   7.100   6.208   6.026  1.8644  0.2674 -1.1430
 2993TIP3    H2 8925   7.197   6.283   6.115  1.5459 -0.0903 -0.4842
 2994TIP3   OH2 8926   2.063   1.010   0.507  0.2410 -0.2626  0.4718
 2994TIP3    H1 8927   2.124   1.064   0.558 -1.3963  1.8344  0.3803
 2994TIP3    H2 8928   2.078   1.037   0.416 -0.1815 -0.4025  0.3603
 2995TIP3   OH2 8929   6.966   2.715   0.097 -0.0529 -0.2376  0.0843
 2995TIP3    H1 8930   6.957   2.759   0.013 -1.2678 -0.5061  0.0605
 2995TIP3    H2 8931   6.878   2.715   0.134  0.2205 -1.2355  0.7849
 2996TIP3   OH2 8932   6.197   6.818   0.099  0.3246  0.4177 -0.8195
 2996TIP3    H1 8933   6.239   6.749   0.047 -1.0770 -0.4217 -0.8687
 2996TIP3    H2 8934   6.171   6.775   0.180  1.4526  1.4539  0.1392
 2997TIP3   OH2 8935   6.832   3.751   4.604 -0.4378 -0.3935  0.4020
 2997TIP3    H1 8936   6.810   3.745   4.511  1.1764 -2.0412  0.0675
 2997TIP3    H2 8937   6.921   3.785   4.605 -0.4032 -0.5026  1.3464
 2998TIP3   OH2 8938   6.305   1.224   5.237  0.6431 -0.2827  0.3428
 2998TIP3    H1 8939   6.316   1.129   5.229  1.5559 -0.1349 -0.4649
 2998TIP3    H2 8940   6.223   1.235   5.284  0.5911 -1.4774  0.5712
 2999TIP3   OH2 8941   5.248   3.029   0.598  0.0192  0.3337 -0.3147
 2999TIP3    H1 8942   5.300   2.949   0.593 -0.0404  0.3027 -0.4343
 2999TIP3    H2 8943   5.161   3.003   0.568  0.3179  0.7218 -1.5725
 3000TIP3   OH2 8944   3.430   7.786   1.117  0.3605 -0.2393 -0.3666
 3000TIP3    H1 8945   3.477   7.739   1.187  0.8482  0.8855  0.0915
 3000TIP3    H2 8946   3.436   7.728   1.041  0.4757 -1.1546  0.3250
 3001TIP3   OH2 8947   3.930   1.496   4.895  0.3801  0.8274  1.3911
 3001TIP3    H1 8948   4.006   1.506   4.953  1.8172 -0.8309 -0.0715
 3001TIP3    H2 8949   3.897   1.408   4.915 -1.6583  1.7624  2.4782
 3002TIP3   OH2 8950   6.967   3.485   2.397 -0.0035  0.1651  0.4901
 3002TIP3    H1 8951   7.004   3.412   2.347  0.2350 -0.1325  1.0862
 3002TIP3    H2 8952   7.039   3.548   2.403  0.2586 -0.1852  1.1997
 3003TIP3   OH2 8953   8.148   6.093   1.604  0.5482 -0.4030  0.6011
 3003TIP3    H1 8954   8.152   6.044   1.522 -0.7300 -2.1097  1.4943
 3003TIP3    H2 8955   8.205   6.044   1.663  1.5938  0.9119  0.7097
 3004TIP3   OH2 8956   1.350   3.415   6.547 -0.0052  0.3774  0.0379
 3004TIP3    H1 8957   1.407   3.362   6.492 -1.5022 -1.1025 -0.1402
 3004TIP3    H2 8958   1.386   3.405   6.635 -0.4039 -1.1606  0.0462
 3005TIP3   OH2 8959   7.795   3.424   0.567 -0.7971 -0.0396 -0.8054
 3005TIP3    H1 8960   7.873   3.475   0.545 -0.3296 -0.3901  0.0120
 3005TIP3    H2 8961   7.765   3.459   0.651 -1.3394 -0.1215 -0.9578
 3006TIP3   OH2 8962   4.316   3.312   5.998 -0.5020  0.6712 -0.0259
 3006TIP3    H1 8963   4.293   3.219   5.989 -1.8066  0.8961  0.6856
 3006TIP3    H2 8964   4.307   3.330   6.091  1.6290  1.0783  0.1496
 3007TIP3   OH2 8965   5.288   7.760   1.065  0.0995 -0.2555 -0.1112
 3007TIP3    H1 8966   5.293   7.846   1.106  0.3980 -0.2395 -0.1786
 3007TIP3    H2 8967   5.352   7.707   1.112  0.6288 -0.1683 -0.7088
 3008TIP3   OH2 8968   5.978   5.919   6.146  0.0915 -0.3123  0.1849
 3008TIP3    H1 8969   6.008   5.933   6.056  0.9206 -1.2436  0.2939
 3008TIP3    H2 8970   5.925   5.839   6.141  0.4141 -0.5531  0.5681
 3009TIP3   OH2 8971   1.354   2.146   1.880  0.0349  0.1453 -0.4746
 3009TIP3    H1 8972   1.412   2.149   1.804  0.6013 -1.1202 -0.1138
 3009TIP3    H2 8973   1.364   2.232   1.922  1.0239  0.2315 -0.8709
 3010TIP3   OH2 8974   8.025   1.024   3.898 -0.3736 -0.2667  0.4369
 3010TIP3    H1 8975   8.083   1.056   3.829 -0.5655 -2.3859 -0.7664
 3010TIP3    H2 8976   7.959   1.093   3.908  0.0487  0.3707 -1.0071
 3011TIP3   OH2 8977   5.697   7.524   6.005  0.5637 -0.0157  0.3831
 3011TIP3    H1 8978   5.628   7.511   5.940 -2.0203  0.5615  2.8077
 3011TIP3    H2 8979   5.689   7.449   6.064  2.8484 -0.5402  0.1083
 3012TIP3   OH2 8980   0.311   3.257   5.863 -0.2031 -0.0140  0.1049
 3012TIP3    H1 8981   0.345   3.332   5.911 -0.5224  1.4524 -1.8316
 3012TIP3    H2 8982   0.233   3.230   5.912 -1.1520  2.1241 -0.1175
 3013TIP3   OH2 8983   2.003   0.531   5.211  0.6237  0.3799 -0.0171
 3013TIP3    H1 8984   1.914   0.527   5.176  1.4260  2.2250 -2.5680
 3013TIP3    H2 8985   2.000   0.477   5.290 -3.1502  1.6829  0.9379
 3014TIP3   OH2 8986   3.485   6.455   0.288  0.8641  0.4229  0.1873
 3014TIP3    H1 8987   3.420   6.407   0.237 -1.4869  1.2236  2.2160
 3014TIP3    H2 8988   3.496   6.538   0.242  1.1196 -0.0480 -0.6223
 3015TIP3   OH2 8989   2.037   6.268   6.393  0.0889 -0.2257 -0.1373
 3015TIP3    H1 8990   1.971   6.311   6.448 -1.1469 -0.4605 -1.3593
 3015TIP3    H2 8991   2.076   6.202   6.450  1.9972  2.3804  1.7568
 3016TIP3   OH2 8992   1.027   2.321   4.332  0.3463  0.2133  0.2863
 3016TIP3    H1 8993   0.957   2.341   4.395  1.1571 -1.2279  1.6907
 3016TIP3    H2 8994   1.108   2.343   4.378  0.9271 -0.3032 -0.4734
 3017TIP3   OH2 8995   7.078   7.062   1.667  0.3988 -0.1077  0.1420
 3017TIP3    H1 8996   7.109   6.996   1.729  1.6301  1.2568  1.0405
 3017TIP3    H2 8997   6.999   7.098   1.707  0.5590 -0.0194  0.3814
 3018TIP3   OH2 8998   8.208   2.553   6.181 -0.3266  0.5396 -0.1345
 3018TIP3    H1 8999   8.203   2.499   6.260 -0.3514 -1.0848 -1.2011
 3018TIP3    H2 9000   8.294   2.533   6.143 -0.5726  0.8080 -0.8616
 3019TIP3   OH2 9001   1.987   7.487   6.273  0.1125  0.4723 -0.0670
 3019TIP3    H1 9002   2.028   7.428   6.210  1.8523  0.7166  0.7780
 3019TIP3    H2 9003   2.030   7.572   6.259  0.1451  0.6642  1.0621
 3020TIP3   OH2 9004   3.843   7.002   5.339 -0.3066 -0.2591 -0.1919
 3020TIP3    H1 9005   3.832   7.097   5.340 -2.0965 -0.3605 -2.0177
 3020TIP3    H2 9006   3.852   6.980   5.246  1.2249 -1.7939  0.2689
 3021TIP3   OH2 9007   2.664   1.215   2.900  0.1296  0.4493 -0.2592
 3021TIP3    H1 9008   2.675   1.188   2.991 -2.3532  0.2694  0.0429
 3021TIP3    H2 9009   2.748   1.254   2.877  1.5431 -1.3485  1.4331
 3022TIP3   OH2 9010   0.120   3.819   2.904  0.1881 -0.2735 -0.0431
 3022TIP3    H1 9011   0.056   3.794   2.838  0.6097  0.2910 -0.6803
 3022TIP3    H2 9012   0.090   3.904   2.937  0.1929 -0.3693  0.2156
 3023TIP3   OH2 9013   4.068   2.795   2.533  0.2656 -0.6302 -0.0666
 3023TIP3    H1 9014   4.066   2.725   2.467 -1.3284  0.4345 -1.2352
 3023TIP3    H2 9015   4.100   2.871   2.485 -3.0203  0.7509 -0.3689
 3024TIP3   OH2 9016   6.511   2.294   6.263 -0.4560  0.2072 -0.1521
 3024TIP3    H1 9017   6.449   2.290   6.336 -0.5808 -0.1515 -0.2788
 3024TIP3    H2 9018   6.597   2.297   6.306 -0.4940 -0.7020  0.0077
 3025TIP3   OH2 9019   4.663   6.962   1.524 -0.2428  0.1733  0.4517
 3025TIP3    H1 9020   4.747   6.934   1.562  0.4875 -0.1549 -1.3020
 3025TIP3    H2 9021   4.599   6.939   1.590  1.0894  0.8449  2.0446
 3026TIP3   OH2 9022   1.528   7.174   5.931  0.1020 -0.1816 -0.8524
 3026TIP3    H1 9023   1.457   7.151   5.991 -0.1033  0.0949 -0.9892
 3026TIP3    H2 9024   1.605   7.128   5.966 -0.1180 -0.3913 -0.6413
 3027TIP3   OH2 9025   3.793   2.397   1.355 -0.1681 -0.0227  0.9647
 3027TIP3    H1 9026   3.877   2.432   1.383 -0.4573  0.2351  1.5177
 3027TIP3    H2 9027   3.807   2.372   1.264  0.1643  1.1386  0.6861
 3028TIP3   OH2 9028   3.492   1.469   1.434  0.0693 -0.2100  0.5922
 3028TIP3    H1 9029   3.476   1.484   1.340 -0.3919  0.2672  0.7414
 3028TIP3    H2 9030   3.539   1.547   1.463  0.5915 -0.5528  0.6670
 3029TIP3   OH2 9031   2.871   4.230   2.938  0.6805  0.2362  0.6029
 3029TIP3    H1 9032   2.800   4.167   2.928  0.4734  0.2521  1.8842
 3029TIP3    H2 9033   2.950   4.176   2.944  0.8282  0.2235 -0.9621
 3030TIP3   OH2 9034   3.148   6.006   3.186 -0.1038 -0.1565  0.5992
 3030TIP3    H1 9035   3.169   6.032   3.275  1.5112 -0.1546  0.2538
 3030TIP3    H2 9036   3.096   6.078   3.151 -1.3579 -0.4716  1.7297
 3031TIP3   OH2 9037   5.288   4.001   5.924 -0.1225 -0.0152 -0.6113
 3031TIP3    H1 9038   5.317   4.038   5.840  1.3540 -0.2762 -0.2322
 3031TIP3    H2 9039   5.232   4.070   5.961  2.5047  1.9412  0.0520
 3032TIP3   OH2 9040   6.701   6.862   1.257  0.3135 -0.1396 -0.5740
 3032TIP3    H1 9041   6.779   6.869   1.202  1.0977 -1.3113  0.3359
 3032TIP3    H2 9042   6.733   6.876   1.346 -0.8329  1.1073 -0.3209
 3033TIP3   OH2 9043   2.765  -0.016   1.259  0.7568 -0.0812  0.1157
 3033TIP3    H1 9044   2.780   0.056   1.321 -0.2100  1.4682 -1.3680
 3033TIP3    H2 9045   2.697   0.017   1.200  0.1451 -2.3084 -0.5140
 3034TIP3   OH2 9046   1.523   6.579   2.596  0.0144 -0.2837  0.4859
 3034TIP3    H1 9047   1.581   6.536   2.660  0.8058  0.6932  0.4542
 3034TIP3    H2 9048   1.570   6.658   2.571 -0.3199 -0.5926 -1.2615
 3035TIP3   OH2 9049   1.353   6.867   5.242  0.3489 -0.2555 -0.7111
 3035TIP3    H1 9050   1.287   6.798   5.235 -0.2819  0.1962  0.5167
 3035TIP3    H2 9051   1.304   6.944   5.271  1.5983 -0.2869  1.7187
 3036TIP3   OH2 9052   7.707   3.876   0.105  0.2094  0.1734 -0.6103
 3036TIP3    H1 9053   7.710   3.780   0.108 -0.1781  0.1838  1.0373
 3036TIP3    H2 9054   7.753   3.904   0.184  3.2503  1.4926 -2.6357
 3037TIP3   OH2 9055   3.709   1.262   1.000  0.2942 -0.3000  0.3482
 3037TIP3    H1 9056   3.725   1.169   0.983  0.1386 -0.4784  1.1202
 3037TIP3    H2 9057   3.795   1.299   1.020  0.0946 -0.8260  2.4886
 3038TIP3   OH2 9058   4.950   4.263   5.984 -0.5625  0.3156  0.2244
 3038TIP3    H1 9059   4.994   4.276   5.900 -2.0858  0.7547 -0.5329
 3038TIP3    H2 9060   5.020   4.234   6.043  0.3195 -1.1853 -1.4665
 3039TIP3   OH2 9061   0.148   7.678   5.045  0.2413  0.0703  0.3241
 3039TIP3    H1 9062   0.186   7.592   5.026  0.8487  0.4704 -0.3337
 3039TIP3    H2 9063   0.082   7.690   4.976  1.8696  1.1673 -1.1245
 3040TIP3   OH2 9064   7.046   7.544   4.677 -0.4547 -0.2454  0.1502
 3040TIP3    H1 9065   6.968   7.582   4.718  0.0646  1.0838 -0.0471
 3040TIP3    H2 9066   7.076   7.610   4.616  0.0471 -1.3178 -0.8049
 3041TIP3   OH2 9067   5.436   4.943   4.964  0.0023 -0.0677  0.0887
 3041TIP3    H1 9068   5.391   4.860   4.983 -0.7784  0.4854  0.6778
 3041TIP3    H2 9069   5.393   5.007   5.020  0.9055  0.6615 -0.0329
 3042TIP3   OH2 9070   7.731   5.456  -0.015  0.0391 -0.1019 -0.1960
 3042TIP3    H1 9071   7.823   5.430  -0.003  0.0686 -0.0427 -0.2927
 3042TIP3    H2 9072   7.694   5.455   0.074 -0.1330 -1.1172 -0.2703
 3043TIP3   OH2 9073   4.185   3.132   3.816  0.3605 -0.4345 -0.0748
 3043TIP3    H1 9074   4.247   3.109   3.746 -0.7367 -2.4988 -0.4399
 3043TIP3    H2 9075   4.102   3.093   3.788 -1.3980  2.9544 -0.0142
 3044TIP3   OH2 9076   1.784   4.439   6.039 -0.0956  0.1788 -0.6776
 3044TIP3    H1 9077   1.717   4.492   5.996 -1.0142 -0.4902 -0.1226
 3044TIP3    H2 9078   1.739   4.357   6.060  0.8069 -0.1523  0.0174
 3045TIP3   OH2 9079   8.153   4.693   1.153 -0.1345  0.8019 -0.0711
 3045TIP3    H1 9080   8.179   4.764   1.095 -0.5222  1.3702  0.4272
 3045TIP3    H2 9081   8.230   4.638   1.161 -0.2277  0.4091 -1.5412
 3046TIP3   OH2 9082   4.373   4.522   2.539  0.7417 -0.0255  0.0109
 3046TIP3    H1 9083   4.422   4.488   2.464  2.5687  1.5610  0.3900
 3046TIP3    H2 9084   4.311   4.585   2.501 -0.0879 -1.0441 -0.3551
 3047TIP3   OH2 9085   1.591   7.410   1.881  0.4679 -0.5108  0.5524
 3047TIP3    H1 9086   1.580   7.368   1.796  2.1663  0.5026 -0.2193
 3047TIP3    H2 9087   1.531   7.363   1.939 -0.3542 -1.5580 -1.0768
 3048TIP3   OH2 9088   2.119   6.593   2.344 -0.1870  0.5096 -0.3098
 3048TIP3    H1 9089   2.098   6.671   2.394  0.2097  1.5706 -1.7468
 3048TIP3    H2 9090   2.042   6.578   2.288  0.3045  0.7428 -1.0713
 3049TIP3   OH2 9091   7.557   4.005   0.780  0.5371 -0.0387 -0.2146
 3049TIP3    H1 9092   7.485   3.943   0.762  0.0050  0.3180  0.6104
 3049TIP3    H2 9093   7.513   4.089   0.792  1.0522  0.1041  0.7159
 3050TIP3   OH2 9094   3.516   4.865   1.534 -0.1746 -0.0372  0.5889
 3050TIP3    H1 9095   3.525   4.863   1.439 -0.6405 -0.0303  0.5387
 3050TIP3    H2 9096   3.564   4.942   1.562  2.6091 -1.6858  0.6834
 3051TIP3   OH2 9097   7.106   0.423   4.524 -0.5362  0.5963 -0.1231
 3051TIP3    H1 9098   7.044   0.358   4.491  2.2392 -1.4443 -1.7234
 3051TIP3    H2 9099   7.107   0.409   4.619 -0.8707 -0.9183 -0.3233
 3052TIP3   OH2 9100   4.216   1.139   1.929 -0.1006 -0.0885  0.1314
 3052TIP3    H1 9101   4.167   1.220   1.941  0.0150  0.2631 -1.5454
 3052TIP3    H2 9102   4.224   1.129   1.834  0.5931 -1.6413  0.3164
 3053TIP3   OH2 9103   7.334   7.483   2.239  0.2844 -0.4985 -0.1192
 3053TIP3    H1 9104   7.333   7.512   2.148  1.3585  0.0512  0.0285
 3053TIP3    H2 9105   7.307   7.392   2.236  1.7739 -0.9392 -1.1723
 3054TIP3   OH2 9106   3.003   5.292   4.986 -0.0283 -0.5667  0.5556
 3054TIP3    H1 9107   2.981   5.250   4.904 -0.3944  1.6716 -0.5813
 3054TIP3    H2 9108   3.092   5.326   4.973  0.0983 -0.5953  1.2717
 3055TIP3   OH2 9109   7.050   7.235   2.837 -0.7879 -0.2854  0.1291
 3055TIP3    H1 9110   7.140   7.216   2.809 -0.7313 -2.2013  1.4182
 3055TIP3    H2 9111   6.995   7.184   2.776 -1.0834  1.3945 -1.0725
 3056TIP3   OH2 9112   0.555   2.014   0.167 -0.3292 -0.2229  0.3132
 3056TIP3    H1 9113   0.530   2.106   0.178  1.1576  0.1048  1.1817
 3056TIP3    H2 9114   0.472   1.968   0.156 -1.1706  1.0802  0.9835
 3057TIP3   OH2 9115   3.538   7.228   2.312 -0.6886 -0.3635  0.1294
 3057TIP3    H1 9116   3.486   7.214   2.391 -1.1406 -1.3871 -0.3144
 3057TIP3    H2 9117   3.475   7.216   2.240  0.2095 -2.1085 -0.4392
 3058TIP3   OH2 9118   0.924   1.261   2.034  0.0090  0.2255  0.0633
 3058TIP3    H1 9119   0.887   1.327   1.976 -1.2144  0.1425  0.7173
 3058TIP3    H2 9120   0.983   1.310   2.092 -0.8826  0.7575  0.5344
 3059TIP3   OH2 9121   6.780   4.849   5.374  0.0195 -0.5456  0.0000
 3059TIP3    H1 9122   6.704   4.816   5.421 -0.6803  0.9786  0.0007
 3059TIP3    H2 9123   6.743   4.893   5.297  0.8061  0.9390  0.4234
 3060TIP3   OH2 9124   5.245   6.104   5.145  0.3215 -0.2712  0.4574
 3060TIP3    H1 9125   5.176   6.072   5.204 -0.2279 -0.1347 -0.0994
 3060TIP3    H2 9126   5.326   6.076   5.186 -0.0986 -1.3075  0.6253
 3061TIP3   OH2 9127   1.200   6.434   2.275  0.0508  0.1421  0.2034
 3061TIP3    H1 9128   1.136   6.489   2.229  1.4185  0.5861 -1.2493
 3061TIP3    H2 9129   1.281   6.485   2.274  0.7902 -0.9810  0.7897
 3062TIP3   OH2 9130   3.806   5.269   2.892  0.8983  0.3369 -0.5715
 3062TIP3    H1 9131   3.720   5.311   2.887  0.3227 -0.5182  1.4006
 3062TIP3    H2 9132   3.867   5.343   2.896  0.1824  0.9569 -0.6750
 3063TIP3   OH2 9133   5.645   2.058   4.945  0.0695  0.2290 -0.0387
 3063TIP3    H1 9134   5.710   2.048   4.876  1.7041  1.7223  1.1550
 3063TIP3    H2 9135   5.683   2.126   5.002 -2.0955  0.4207  1.2610
 3064TIP3   OH2 9136   4.721   0.375   3.184  0.4757 -0.1782  0.0574
 3064TIP3    H1 9137   4.748   0.320   3.258  0.6331  0.9220  0.8527
 3064TIP3    H2 9138   4.669   0.445   3.225  1.4703  1.0647 -0.7180
 3065TIP3   OH2 9139   2.231   1.721   5.348  0.0677  0.5364  0.6246
 3065TIP3    H1 9140   2.263   1.730   5.437  3.6951 -0.4103 -0.4208
 3065TIP3    H2 9141   2.265   1.636   5.318 -2.5596 -0.0328 -1.1574
 3066TIP3   OH2 9142   6.915   0.801   5.757 -0.3076 -0.5013 -0.2707
 3066TIP3    H1 9143   6.995   0.854   5.759 -1.1292  0.7571  0.4828
 3066TIP3    H2 9144   6.930   0.738   5.687  0.6103  0.8910 -1.3766
 3067TIP3   OH2 9145   8.156   7.178   1.376  0.1440  0.0720 -0.1956
 3067TIP3    H1 9146   8.114   7.202   1.458  0.0075 -0.6859 -0.0310
 3067TIP3    H2 9147   8.084   7.175   1.312 -0.0814 -1.2561  0.0930
 3068TIP3   OH2 9148   1.208   2.909   5.358  0.5258 -0.5272 -0.5092
 3068TIP3    H1 9149   1.188   2.815   5.355 -0.9662 -0.4324  2.4876
 3068TIP3    H2 9150   1.129   2.952   5.325  0.3396 -0.3170  0.1937
 3069TIP3   OH2 9151   7.027   0.353   3.905  0.4303 -0.5146  0.0289
 3069TIP3    H1 9152   6.954   0.338   3.965 -0.8635  2.8874 -0.4841
 3069TIP3    H2 9153   7.090   0.285   3.927 -1.4568 -1.5500  2.8143
 3070TIP3   OH2 9154   6.882   5.321   3.616  0.6302  0.2667  0.5482
 3070TIP3    H1 9155   6.825   5.250   3.645  1.4389 -1.8069 -2.4105
 3070TIP3    H2 9156   6.823   5.393   3.594 -0.3986 -0.2120  1.6849
 3071TIP3   OH2 9157   6.899   1.506   3.301  0.1932  0.0844 -0.7706
 3071TIP3    H1 9158   6.949   1.441   3.250  1.8997  0.8872 -0.2137
 3071TIP3    H2 9159   6.838   1.544   3.239  0.6763 -0.5466 -1.6554
 3072TIP3   OH2 9160   5.558   4.802   0.706 -0.8977 -0.1978 -0.0690
 3072TIP3    H1 9161   5.539   4.709   0.694 -1.0101 -0.1640 -0.1506
 3072TIP3    H2 9162   5.472   4.845   0.705 -0.8938 -0.1644  0.6106
 3073TIP3   OH2 9163   5.325   0.955   0.716  0.0459 -0.1258 -0.0852
 3073TIP3    H1 9164   5.308   0.929   0.625 -1.6994 -0.6541  0.3555
 3073TIP3    H2 9165   5.383   0.887   0.750  0.4008 -0.1346 -0.6975
 3074TIP3   OH2 9166   7.552   4.209   6.264 -0.7636 -0.0446 -0.5579
 3074TIP3    H1 9167   7.643   4.181   6.279 -0.7415  0.3865  0.1544
 3074TIP3    H2 9168   7.558   4.304   6.255 -1.1135 -0.0431 -0.7534
 3075TIP3   OH2 9169   7.061   5.656   5.347 -0.3218  0.0328 -0.0393
 3075TIP3    H1 9170   6.978   5.671   5.302  0.0833 -1.5655 -1.3866
 3075TIP3    H2 9171   7.036   5.622   5.433 -1.0864 -1.5210 -0.8371
 3076TIP3   OH2 9172   7.588   6.635   3.829  0.4800  0.1339 -0.6661
 3076TIP3    H1 9173   7.611   6.644   3.922  2.4528 -0.0049 -1.1063
 3076TIP3    H2 9174   7.505   6.587   3.830 -0.5012  1.6985  1.0673
 3077TIP3   OH2 9175   2.049   7.826   5.588  0.3500  0.6306  0.2924
 3077TIP3    H1 9176   2.082   7.759   5.647 -2.4372  0.6721  2.0565
 3077TIP3    H2 9177   1.972   7.787   5.547 -0.7930  2.3756  0.6667
 3078TIP3   OH2 9178   2.307   5.173   4.999 -0.3700 -0.1989 -0.0250
 3078TIP3    H1 9179   2.338   5.162   4.909  2.3295  2.3359  0.4347
 3078TIP3    H2 9180   2.260   5.257   4.999  0.2697  0.1837  1.0202
 3079TIP3   OH2 9181   4.041   3.186   5.834 -0.0381 -0.0066 -0.2105
 3079TIP3    H1 9182   4.038   3.107   5.887  1.1712 -0.4810 -0.7957
 3079TIP3    H2 9183   4.123   3.229   5.859 -0.5699  0.9496 -0.0593
 3080TIP3   OH2 9184   7.377   7.282   1.669 -0.2400 -0.3023 -0.6247
 3080TIP3    H1 9185   7.439   7.330   1.614  0.5706 -1.3625 -0.6616
 3080TIP3    H2 9186   7.297   7.278   1.616  0.0910 -0.1264 -1.1544
 3081TIP3   OH2 9187   1.753   5.291   0.750 -0.2354 -0.2160  0.4765
 3081TIP3    H1 9188   1.802   5.359   0.796  1.8611 -1.0433 -0.4484
 3081TIP3    H2 9189   1.717   5.335   0.673  0.3094  0.0651  0.3807
 3082TIP3   OH2 9190   0.980   2.383   0.794  0.0572 -0.2319  0.2948
 3082TIP3    H1 9191   0.975   2.385   0.889 -2.3905  0.3034  0.2187
 3082TIP3    H2 9192   0.994   2.291   0.772 -1.4329 -0.6867  1.1371
 3083TIP3   OH2 9193   3.798   2.602   3.835 -0.0904  0.3051  0.5124
 3083TIP3    H1 9194   3.836   2.539   3.896 -0.4222 -0.6680 -0.2501
 3083TIP3    H2 9195   3.708   2.614   3.864 -0.0619  0.3411  0.5868
 3084TIP3   OH2 9196   3.776   5.065   0.926 -0.3102 -0.2975 -0.2981
 3084TIP3    H1 9197   3.794   5.157   0.949 -0.8772 -0.3434  0.3810
 3084TIP3    H2 9198   3.761   5.023   1.011 -1.9188 -0.6093 -0.7085
 3085TIP3   OH2 9199   7.168   2.601   6.159  0.2294 -0.3781 -0.1201
 3085TIP3    H1 9200   7.257   2.624   6.185 -0.0170 -0.4483  0.7959
 3085TIP3    H2 9201   7.171   2.601   6.063  0.8949  0.8569 -0.1148
 3086TIP3   OH2 9202   4.893   5.034   4.606  0.2523  0.1265  0.5390
 3086TIP3    H1 9203   4.834   4.958   4.603 -0.0615  0.3758  0.1804
 3086TIP3    H2 9204   4.867   5.086   4.530  1.7030 -0.3120 -0.2771
 3087TIP3   OH2 9205   6.472   7.218   1.875  0.4281  0.3794 -0.2353
 3087TIP3    H1 9206   6.504   7.202   1.786 -0.2933 -0.2463 -0.3915
 3087TIP3    H2 9207   6.433   7.306   1.871 -0.2582  0.0630 -0.7377
 3088TIP3   OH2 9208   7.263   0.016   2.592 -0.2749 -0.0423  0.4883
 3088TIP3    H1 9209   7.284   0.109   2.597 -0.0072 -0.1327  1.1763
 3088TIP3    H2 9210   7.215   0.006   2.510  1.5702  0.3387 -0.6746
 3089TIP3   OH2 9211   0.447   1.090   1.953 -0.6911  0.1573  0.0406
 3089TIP3    H1 9212   0.516   1.059   1.894 -1.8147  0.6598 -1.6056
 3089TIP3    H2 9213   0.492   1.151   2.011  0.7502 -1.4866  0.7405
 3090TIP3   OH2 9214   4.627   4.631   5.070 -0.0889  0.1940  0.3542
 3090TIP3    H1 9215   4.690   4.572   5.111  0.0770 -0.5422 -0.9244
 3090TIP3    H2 9216   4.678   4.678   5.004 -0.6886  0.2405 -0.0803
 3091TIP3   OH2 9217   6.850   0.316   4.114 -0.0684  0.1103 -0.0514
 3091TIP3    H1 9218   6.839   0.224   4.092 -0.0270  0.4193 -1.4188
 3091TIP3    H2 9219   6.761   0.351   4.116 -0.1200 -0.0313  0.9030
 3092TIP3   OH2 9220   0.474   4.968   3.482 -0.7454 -0.1240  0.2670
 3092TIP3    H1 9221   0.495   4.881   3.447 -0.5151 -0.3832  1.0269
 3092TIP3    H2 9222   0.550   5.021   3.459 -1.4559  0.2333 -1.3622
 3093TIP3   OH2 9223   4.027   0.667   3.955  0.7461 -0.7043  0.2543
 3093TIP3    H1 9224   4.090   0.659   4.027  2.0729 -1.2994 -0.9258
 3093TIP3    H2 9225   3.970   0.740   3.981  2.1147  0.0657  1.2162
 3094TIP3   OH2 9226   3.502   1.799   4.593  0.2885  0.3858 -0.4400
 3094TIP3    H1 9227   3.579   1.751   4.563 -0.1881 -1.6634  1.3526
 3094TIP3    H2 9228   3.532   1.843   4.673 -0.2430 -0.0571  0.0126
 3095TIP3   OH2 9229   3.463   3.351   5.321  0.6131 -0.0948  0.4368
 3095TIP3    H1 9230   3.454   3.255   5.326 -0.1137 -0.0620 -0.1759
 3095TIP3    H2 9231   3.465   3.379   5.413 -0.5331 -0.5838  0.6315
 3096TIP3   OH2 9232   6.253   1.258   1.706  0.2002  0.4423  0.0470
 3096TIP3    H1 9233   6.221   1.241   1.617  0.5271 -0.4026  0.0819
 3096TIP3    H2 9234   6.201   1.332   1.737 -1.0206 -0.2706 -0.2674
 3097TIP3   OH2 9235   1.473   6.231   2.424 -0.6345 -0.5100  0.4732
 3097TIP3    H1 9236   1.445   6.276   2.503 -0.4789 -1.9295  1.3717
 3097TIP3    H2 9237   1.406   6.164   2.409 -0.9769  0.1208 -0.9501
 3098TIP3   OH2 9238   2.923   6.438   2.027 -0.2929 -0.0724  0.1337
 3098TIP3    H1 9239   2.956   6.396   2.107 -1.8496  0.0866  0.9044
 3098TIP3    H2 9240   2.909   6.366   1.966 -2.3257 -0.6746  1.2245
 3099TIP3   OH2 9241   2.632   6.130   4.343 -0.9480  0.7011  0.0717
 3099TIP3    H1 9242   2.693   6.110   4.414 -1.8994  1.4118  1.1251
 3099TIP3    H2 9243   2.678   6.103   4.264 -0.3636 -1.3390  1.0408
 3100TIP3   OH2 9244   0.202   6.023   2.096  0.2398  0.1214 -0.2282
 3100TIP3    H1 9245   0.242   6.058   2.176 -1.9881  1.8764  0.1995
 3100TIP3    H2 9246   0.267   5.960   2.064  1.4140 -0.3765  2.7120
 3101TIP3   OH2 9247   2.931   6.807   5.493 -0.2747 -0.0454 -0.2562
 3101TIP3    H1 9248   2.869   6.804   5.566  0.4870  0.0341  0.4075
 3101TIP3    H2 9249   2.979   6.725   5.498  0.1484  0.1921 -0.3336
 3102TIP3   OH2 9250   4.572   1.272   4.153  0.3455  0.2868 -0.2706
 3102TIP3    H1 9251   4.580   1.180   4.127  1.1219  0.5686 -1.0894
 3102TIP3    H2 9252   4.651   1.314   4.118  0.2008  1.1902  0.4454
 3103TIP3   OH2 9253   5.964   6.486   4.164 -0.0079  0.3772  0.3328
 3103TIP3    H1 9254   6.014   6.416   4.206  0.6272 -0.4414 -1.6416
 3103TIP3    H2 9255   5.887   6.442   4.128 -0.2412  0.9342  0.1387
 3104TIP3   OH2 9256   1.316   1.041   0.087  0.1476  0.0212 -0.0759
 3104TIP3    H1 9257   1.335   1.123   0.042  1.5412 -0.0784  0.2749
 3104TIP3    H2 9258   1.398   0.992   0.083 -0.9878 -1.8824 -1.3405
 3105TIP3   OH2 9259   0.589   4.837   4.514 -0.6307 -0.1790  0.0577
 3105TIP3    H1 9260   0.618   4.746   4.523 -3.0666 -1.2941 -1.9565
 3105TIP3    H2 9261   0.520   4.846   4.580  0.4812  0.6810  1.1393
 3106TIP3   OH2 9262   1.508   4.325   2.075  0.1718  0.4368 -0.1754
 3106TIP3    H1 9263   1.453   4.284   2.009 -1.4248 -0.0653  1.4011
 3106TIP3    H2 9264   1.597   4.295   2.054 -0.3801 -0.2930 -1.6082
 3107TIP3   OH2 9265   0.078   3.301   5.705 -0.5743 -0.6247 -0.3348
 3107TIP3    H1 9266   0.163   3.278   5.742  0.4297  1.0288 -1.4968
 3107TIP3    H2 9267   0.018   3.298   5.779  1.0279  0.8310  1.0977
 3108TIP3   OH2 9268   1.171   7.067   2.636  0.2399 -0.1155  0.1636
 3108TIP3    H1 9269   1.231   7.091   2.707  2.0486 -0.1781 -1.2532
 3108TIP3    H2 9270   1.085   7.094   2.667  1.3337  2.4703  1.2394
 3109TIP3   OH2 9271   3.373   0.854   0.129 -0.3921 -0.2687  0.4864
 3109TIP3    H1 9272   3.327   0.771   0.132 -0.7578 -0.0556  1.6342
 3109TIP3    H2 9273   3.456   0.837   0.174 -0.3460 -0.0906  0.4694
 3110TIP3   OH2 9274   3.979   0.694   4.851  0.6123  0.1407  0.3116
 3110TIP3    H1 9275   3.950   0.748   4.778  0.2961  0.6299  0.7907
 3110TIP3    H2 9276   3.908   0.631   4.864  1.1882 -0.7197 -0.5519
 3111TIP3   OH2 9277   6.318   2.778   6.682 -0.2805  0.0324 -0.0180
 3111TIP3    H1 9278   6.383   2.807   6.617 -0.0428  0.7546  0.5260
 3111TIP3    H2 9279   6.237   2.767   6.632 -0.0970  0.5640 -0.4441
 3112TIP3   OH2 9280   1.337   5.431   3.167  0.4624  0.1343 -0.8180
 3112TIP3    H1 9281   1.405   5.377   3.126 -0.7338 -3.3864  1.3947
 3112TIP3    H2 9282   1.326   5.393   3.254 -0.0555  4.5344  1.3326
 3113TIP3   OH2 9283   3.542   1.511   5.811 -0.2924  0.0649  0.4397
 3113TIP3    H1 9284   3.624   1.559   5.823  0.3732 -1.4003  2.2169
 3113TIP3    H2 9285   3.570   1.423   5.784 -1.3195 -0.2510  0.3764
 3114TIP3   OH2 9286   3.008   3.456   1.599  0.0055 -0.2236  0.1393
 3114TIP3    H1 9287   2.951   3.513   1.547 -0.5463  0.4343  1.4168
 3114TIP3    H2 9288   2.979   3.367   1.576  0.8193 -0.0295 -1.8054
 3115TIP3   OH2 9289   4.938   4.197   1.622  0.1729  0.0886  0.5812
 3115TIP3    H1 9290   4.951   4.166   1.533 -1.1557 -0.4846  0.5503
 3115TIP3    H2 9291   5.012   4.254   1.640 -0.6377  1.9909 -1.6719
 3116TIP3   OH2 9292   4.008   3.593   6.138  0.1867  0.1395 -0.2057
 3116TIP3    H1 9293   4.092   3.638   6.133  0.7128 -0.7893  0.0385
 3116TIP3    H2 9294   3.992   3.581   6.231 -1.4569  2.5010 -0.0767
 3117TIP3   OH2 9295   7.604   2.497   0.260 -0.5246 -0.6068  0.2541
 3117TIP3    H1 9296   7.552   2.577   0.259  0.5521  0.1375  0.6952
 3117TIP3    H2 9297   7.610   2.471   0.168 -2.7853 -1.5065  0.3057
 3118TIP3   OH2 9298   7.786   1.825   5.433  0.0306  0.0502 -0.2573
 3118TIP3    H1 9299   7.881   1.840   5.429  0.3960 -2.0091 -0.2592
 3118TIP3    H2 9300   7.770   1.803   5.525 -0.4613  0.4155 -0.2548
 3119TIP3   OH2 9301   0.507   0.241   4.730 -0.0444  0.0172 -0.4889
 3119TIP3    H1 9302   0.593   0.213   4.762 -0.0571  0.7364  0.2179
 3119TIP3    H2 9303   0.525   0.317   4.675 -0.2425  0.4148 -0.0228
 3120TIP3   OH2 9304   6.290   2.573   5.178 -0.2071  0.2734  0.1026
 3120TIP3    H1 9305   6.315   2.633   5.249 -0.2337 -0.6553  0.9158
 3120TIP3    H2 9306   6.300   2.625   5.099  1.0788  0.9673  0.6730
 3121TIP3   OH2 9307   5.242   0.418   3.228  1.0116 -0.1042  0.5410
 3121TIP3    H1 9308   5.295   0.480   3.178  0.7163  0.1691  0.5643
 3121TIP3    H2 9309   5.152   0.450   3.219  0.6596 -1.3294 -0.6448
 3122TIP3   OH2 9310   6.537   4.954   0.801 -0.1833 -0.4250 -0.3457
 3122TIP3    H1 9311   6.629   4.940   0.776  0.0055 -1.2730  0.7762
 3122TIP3    H2 9312   6.504   5.015   0.735  2.0062  2.3368  0.9010
 3123TIP3   OH2 9313   6.199   3.873   6.402 -0.4970  0.2504  0.2620
 3123TIP3    H1 9314   6.135   3.938   6.428  0.5753  1.3151  0.3223
 3123TIP3    H2 9315   6.207   3.884   6.307 -0.8812 -0.3400  0.1548
 3124TIP3   OH2 9316   1.143   6.754   2.850 -0.1637 -0.3389 -0.0790
 3124TIP3    H1 9317   1.078   6.763   2.781  0.6071 -2.1973 -1.1270
 3124TIP3    H2 9318   1.225   6.782   2.810 -0.1278  1.2009  0.9759
 3125TIP3   OH2 9319   7.971   7.287   2.138  0.3222  0.0460  0.1390
 3125TIP3    H1 9320   8.010   7.368   2.171  1.2536 -0.6021  0.6722
 3125TIP3    H2 9321   7.951   7.236   2.216 -0.6847 -0.0616 -0.1752
 3126TIP3   OH2 9322   1.790   3.133   0.619  0.3277 -0.1131  0.7256
 3126TIP3    H1 9323   1.738   3.115   0.697  1.3149  1.0692  1.6841
 3126TIP3    H2 9324   1.760   3.219   0.589  0.5427 -0.1876  0.2782
 3127TIP3   OH2 9325   4.081   4.058   6.373  0.0784  0.1376 -0.2180
 3127TIP3    H1 9326   4.171   4.025   6.369 -0.3098 -1.2156  1.0686
 3127TIP3    H2 9327   4.087   4.137   6.426  0.5064 -0.0143 -0.0296
 3128TIP3   OH2 9328   7.700   1.479   3.989  0.0190  0.8215  0.1982
 3128TIP3    H1 9329   7.717   1.512   3.900 -0.2864  0.3298 -0.0485
 3128TIP3    H2 9330   7.604   1.479   3.996  0.0534  1.2352  0.6726
 3129TIP3   OH2 9331   1.149   1.627   5.409  0.2682  0.2626 -0.1971
 3129TIP3    H1 9332   1.178   1.640   5.319  0.3533  0.7654 -0.0979
 3129TIP3    H2 9333   1.223   1.585   5.452  1.4142  2.7444  0.3977
 3130TIP3   OH2 9334   2.624   5.168   2.752 -0.0456 -0.2216 -0.3685
 3130TIP3    H1 9335   2.601   5.080   2.724 -1.9923 -0.0166  0.4104
 3130TIP3    H2 9336   2.601   5.224   2.677 -2.0064 -0.0497  0.3077
 3131TIP3   OH2 9337   0.265   1.997   0.574  0.2391 -0.0331  0.8509
 3131TIP3    H1 9338   0.292   1.914   0.535  0.3699  0.7444 -0.8228
 3131TIP3    H2 9339   0.272   2.060   0.502  0.0163  1.4005  2.0424
 3132TIP3   OH2 9340   5.476   1.394   2.991  0.1763  0.2120  0.1019
 3132TIP3    H1 9341   5.533   1.466   3.018 -0.0214  1.0584 -1.6389
 3132TIP3    H2 9342   5.527   1.347   2.925  0.4466 -1.5071  1.4524
 3133TIP3   OH2 9343   1.183   0.552   0.420 -0.3061  0.1356  0.4935
 3133TIP3    H1 9344   1.201   0.632   0.470 -0.6980  0.5033  0.0519
 3133TIP3    H2 9345   1.092   0.561   0.390  0.6926  1.2223 -2.5977
 3134TIP3   OH2 9346   2.371   0.170   1.624 -0.5653  0.1877 -0.4694
 3134TIP3    H1 9347   2.449   0.151   1.676  0.6114  2.5933 -1.1949
 3134TIP3    H2 9348   2.299   0.172   1.687  0.1961 -0.5376  0.4508
 3135TIP3   OH2 9349   7.419   4.192   6.506 -0.2741  0.0133  0.2483
 3135TIP3    H1 9350   7.466   4.198   6.423 -0.4689 -1.8583 -0.0542
 3135TIP3    H2 9351   7.481   4.151   6.566 -0.9751 -1.1039  0.2542
 3136TIP3   OH2 9352   3.764   0.127   3.418 -0.1399 -0.2484 -0.2863
 3136TIP3    H1 9353   3.818   0.056   3.451  0.1872  0.7505  1.4587
 3136TIP3    H2 9354   3.685   0.084   3.386 -0.4877 -1.3584  1.8658
 3137TIP3   OH2 9355   2.201   6.645   0.642 -0.0746 -0.0467  0.1439
 3137TIP3    H1 9356   2.245   6.728   0.662  1.8878 -0.6731 -1.2405
 3137TIP3    H2 9357   2.136   6.635   0.712  1.6866  1.1875  2.0983
 3138TIP3   OH2 9358   7.196   2.596   0.234 -0.2340 -0.3725 -0.3084
 3138TIP3    H1 9359   7.159   2.517   0.274  1.0496 -0.4709  0.7234
 3138TIP3    H2 9360   7.121   2.637   0.190 -1.9099  0.1123  2.7372
 3139TIP3   OH2 9361   7.854   2.823   4.227 -0.2648  0.1190  0.4081
 3139TIP3    H1 9362   7.925   2.871   4.269 -1.7667  2.1436  0.7546
 3139TIP3    H2 9363   7.814   2.773   4.299  0.5169 -0.6904  0.2934
 3140TIP3   OH2 9364   4.076   0.752   4.441  0.3943  0.2985  0.4107
 3140TIP3    H1 9365   4.109   0.672   4.483  0.2811  0.4083  0.7147
 3140TIP3    H2 9366   4.002   0.722   4.388 -0.2669  0.3233  1.2766
 3141TIP3   OH2 9367   0.943   0.107   5.009 -0.4626 -0.1408  0.0614
 3141TIP3    H1 9368   0.974   0.119   5.098  0.5649  0.6113 -0.3678
 3141TIP3    H2 9369   0.890   0.028   5.012  0.1122 -0.5071  1.1995
 3142TIP3   OH2 9370   6.946   6.293   2.708 -0.4740  0.7363 -0.3281
 3142TIP3    H1 9371   6.956   6.299   2.613 -1.4105 -2.4809 -0.7461
 3142TIP3    H2 9372   6.867   6.242   2.721  1.4288 -1.9599  2.0343
 3143TIP3   OH2 9373   5.132   6.255   1.041 -0.1801 -0.2232 -0.0125
 3143TIP3    H1 9374   5.220   6.269   1.006 -0.3137 -0.2459 -0.3630
 3143TIP3    H2 9375   5.089   6.340   1.033 -0.2234 -0.2372  0.0639
 3144TIP3   OH2 9376   1.440   6.393   4.795 -0.3747 -0.2074  0.3211
 3144TIP3    H1 9377   1.429   6.321   4.856 -4.2456 -0.0943  0.0103
 3144TIP3    H2 9378   1.474   6.352   4.715 -0.8726 -1.3940  0.6960
 3145TIP3   OH2 9379   6.054   1.401   0.449  0.2582 -0.1631 -0.4406
 3145TIP3    H1 9380   5.985   1.423   0.387  1.4012  0.1407 -1.6439
 3145TIP3    H2 9381   6.026   1.318   0.487 -0.3053 -0.5302 -1.6114
 3146TIP3   OH2 9382   4.323   2.817   3.761 -0.0025 -0.7071  0.1191
 3146TIP3    H1 9383   4.339   2.906   3.727  3.1376 -1.0822  0.3605
 3146TIP3    H2 9384   4.298   2.767   3.684 -0.7660  0.1397 -0.2065
 3147TIP3   OH2 9385   5.682   0.796   2.080  0.2272  0.2533  0.4254
 3147TIP3    H1 9386   5.737   0.746   2.140 -1.1563 -2.4828 -0.3797
 3147TIP3    H2 9387   5.698   0.757   1.994 -0.4414  1.7016 -0.4047
 3148TIP3   OH2 9388   3.847   2.018   3.227  0.1030  0.7476  0.0899
 3148TIP3    H1 9389   3.929   2.021   3.277  0.7372 -0.2587 -0.8441
 3148TIP3    H2 9390   3.812   1.931   3.244 -0.7139  1.1158  0.3512
 3149TIP3   OH2 9391   7.987   3.983   6.736  0.7863  0.2442  0.3634
 3149TIP3    H1 9392   7.989   4.078   6.732  0.3909  0.2172 -1.0937
 3149TIP3    H2 9393   7.963   3.963   6.827  2.4945  1.4762  1.1302
 3150TIP3   OH2 9394   5.640   4.477   5.297  1.0748  0.2385  0.7124
 3150TIP3    H1 9395   5.646   4.388   5.262 -1.4464 -0.0722  0.8781
 3150TIP3    H2 9396   5.651   4.534   5.221 -1.7051 -0.3702 -0.2596
 3151TIP3   OH2 9397   6.346   7.683   6.104  0.0905 -0.2499  0.0355
 3151TIP3    H1 9398   6.338   7.639   6.019 -1.5525  0.6283 -0.3029
 3151TIP3    H2 9399   6.441   7.691   6.117  0.5020  2.0534 -3.0872
 3152TIP3   OH2 9400   1.588   1.766   0.813  0.4207  0.4874 -0.2455
 3152TIP3    H1 9401   1.517   1.778   0.876 -0.3715  2.3747 -1.4207
 3152TIP3    H2 9402   1.648   1.838   0.831  3.3314 -2.2344  2.1726
 3153TIP3   OH2 9403   7.147   2.958   6.375 -0.5668  0.3515  0.3297
 3153TIP3    H1 9404   7.088   3.023   6.337 -0.2496  0.4311 -0.0229
 3153TIP3    H2 9405   7.203   2.931   6.303 -3.0913 -3.1232 -0.6112
 3154TIP3   OH2 9406   0.677   5.828   1.122 -0.0153  0.1916 -0.6529
 3154TIP3    H1 9407   0.645   5.900   1.176 -0.6500 -0.8179  0.3766
 3154TIP3    H2 9408   0.616   5.823   1.049 -0.3513  0.3088 -0.3855
 3155TIP3   OH2 9409   6.822   2.885   6.177  0.6269 -0.0303  0.3210
 3155TIP3    H1 9410   6.798   2.893   6.269  0.7906  0.0522  0.3552
 3155TIP3    H2 9411   6.834   2.791   6.164 -3.4422 -0.6043 -0.6169
 3156TIP3   OH2 9412   7.898   0.344   3.235 -0.1713  0.3165  0.2645
 3156TIP3    H1 9413   7.912   0.422   3.288 -0.0364  0.3927  0.1184
 3156TIP3    H2 9414   7.968   0.284   3.261  0.9482  0.9931 -1.0233
 3157TIP3   OH2 9415   1.136   6.933   6.297 -0.0877  0.6735 -0.0200
 3157TIP3    H1 9416   1.100   6.853   6.337 -3.4050  2.4526  0.9505
 3157TIP3    H2 9417   1.122   6.921   6.203  0.0548 -0.1392  0.0534
 3158TIP3   OH2 9418   5.433   5.919   3.945  0.1071 -0.2152 -0.0055
 3158TIP3    H1 9419   5.433   5.826   3.968 -0.7224 -0.9476 -2.6584
 3158TIP3    H2 9420   5.344   5.948   3.965  0.2327 -0.0802  0.3799
 3159TIP3   OH2 9421   2.868   5.488   4.467 -0.0351  0.0593 -0.1376
 3159TIP3    H1 9422   2.803   5.557   4.458 -0.3903  0.0428  1.7788
 3159TIP3    H2 9423   2.817   5.411   4.494  0.5010 -0.6322 -1.0374
 3160TIP3   OH2 9424   3.363   6.190   3.272 -0.6951  0.5469  0.2809
 3160TIP3    H1 9425   3.383   6.241   3.194 -0.1504  0.9144  0.6533
 3160TIP3    H2 9426   3.442   6.195   3.325 -0.5971 -0.7876  0.2812
 3161TIP3   OH2 9427   1.275   7.418   2.552  0.1349  0.1223  0.1632
 3161TIP3    H1 9428   1.301   7.343   2.499  3.1953  0.7036  0.6608
 3161TIP3    H2 9429   1.310   7.399   2.639 -0.6372  1.3359  0.7721
 3162TIP3   OH2 9430   3.717   5.569   4.067  0.0621 -0.1581  0.2255
 3162TIP3    H1 9431   3.635   5.618   4.060 -0.4763 -1.1054 -0.2795
 3162TIP3    H2 9432   3.690   5.479   4.084  0.9376 -0.7084 -1.0923
 3163TIP3   OH2 9433   7.719   5.165   1.858 -0.0985  0.4888 -0.4850
 3163TIP3    H1 9434   7.724   5.125   1.945  1.1598  0.3401 -0.6171
 3163TIP3    H2 9435   7.704   5.092   1.798 -0.3127  0.5168 -0.4676
 3164TIP3   OH2 9436   4.502   4.813   6.151  0.0656 -0.8994 -0.5440
 3164TIP3    H1 9437   4.522   4.897   6.108  2.6537 -0.3620  1.4658
 3164TIP3    H2 9438   4.414   4.825   6.186  0.4329  1.0848 -0.1651
 3165TIP3   OH2 9439   5.413   2.404   3.299  0.1531 -0.3245 -0.4191
 3165TIP3    H1 9440   5.455   2.322   3.326 -1.9956 -1.2563  0.2941
 3165TIP3    H2 9441   5.336   2.411   3.355 -2.1409 -0.0887 -3.3701
 3166TIP3   OH2 9442   2.559   5.988   1.485  0.5106  0.0673  0.3535
 3166TIP3    H1 9443   2.538   6.019   1.397 -0.1989 -0.8601  0.1784
 3166TIP3    H2 9444   2.602   5.904   1.472 -1.2860 -1.0070  0.9123
 3167TIP3   OH2 9445   4.439   0.767   3.089 -0.0222  0.3238 -0.6675
 3167TIP3    H1 9446   4.359   0.813   3.116 -0.3511 -0.7230  0.1888
 3167TIP3    H2 9447   4.485   0.831   3.034 -0.7520  1.4678 -0.0055
 3168TIP3   OH2 9448   5.625   4.045   6.000  0.3758 -0.1073  0.4214
 3168TIP3    H1 9449   5.583   4.085   6.076  0.9459  0.2078  0.5772
 3168TIP3    H2 9450   5.552   4.025   5.941  0.0741  1.4590  0.2051
 3169TIP3   OH2 9451   6.537   0.086   2.163 -0.1782 -0.2848 -0.8530
 3169TIP3    H1 9452   6.443   0.074   2.149 -0.6587 -0.4092  1.8630
 3169TIP3    H2 9453   6.547   0.181   2.176  0.4222 -0.0188 -2.8784
 3170TIP3   OH2 9454   1.664   0.581   4.214  0.2155  0.1873  0.0714
 3170TIP3    H1 9455   1.633   0.646   4.277  0.7744 -2.2102  3.1069
 3170TIP3    H2 9456   1.585   0.548   4.172 -0.4798  0.1710  1.3549
 3171TIP3   OH2 9457   4.395   4.598   4.488  0.3303 -0.0697  0.3413
 3171TIP3    H1 9458   4.368   4.525   4.544 -1.7543  0.4312  0.0825
 3171TIP3    H2 9459   4.313   4.635   4.456  1.2932  2.5568  0.6493
 3172TIP3   OH2 9460   8.136   7.612   2.485  1.1395 -0.2667  0.4806
 3172TIP3    H1 9461   8.163   7.526   2.517  0.6941 -0.3742  0.5751
 3172TIP3    H2 9462   8.118   7.663   2.564  1.3311 -0.1115  0.4242
 3173TIP3   OH2 9463   0.276   0.937   2.302  0.5840  0.2049 -0.1684
 3173TIP3    H1 9464   0.245   0.927   2.392  0.6484  0.1408 -0.1539
 3173TIP3    H2 9465   0.212   0.996   2.262  0.5147  0.1756 -0.1017
 3174TIP3   OH2 9466   5.068   7.179   5.599 -0.5917  0.1589 -0.8488
 3174TIP3    H1 9467   5.124   7.189   5.677 -0.9674 -0.5842 -0.4818
 3174TIP3    H2 9468   4.981   7.204   5.629 -0.9962 -1.3682 -0.6671
 3175TIP3   OH2 9469   7.068   6.927   1.913 -0.2288 -0.2156 -0.5684
 3175TIP3    H1 9470   6.999   6.886   1.965  1.3674 -0.8070  1.2245
 3175TIP3    H2 9471   7.062   7.020   1.934 -1.1301 -0.1073 -1.2607
 3176TIP3   OH2 9472   3.060   7.469   0.075 -0.0807 -0.0111 -0.7996
 3176TIP3    H1 9473   3.054   7.382   0.035 -0.1108  0.4562 -1.8445
 3176TIP3    H2 9474   2.972   7.506   0.066 -0.1468  0.0212 -0.0893
 3177TIP3   OH2 9475   7.651   6.700   1.599 -0.1903  0.3739  0.1602
 3177TIP3    H1 9476   7.680   6.762   1.666  0.3126  0.6716 -0.3282
 3177TIP3    H2 9477   7.731   6.657   1.570 -0.3804  0.3811 -0.3859
 3178TIP3   OH2 9478   7.592   5.737   4.754 -0.3095  0.2359  0.3447
 3178TIP3    H1 9479   7.557   5.822   4.726 -0.6215 -0.3051 -0.9341
 3178TIP3    H2 9480   7.549   5.673   4.698 -0.0197 -0.7800  1.2457
 3179TIP3   OH2 9481   2.214   5.901   4.060  0.2204  0.0780 -0.7540
 3179TIP3    H1 9482   2.134   5.952   4.069  0.7470  0.8168 -0.1276
 3179TIP3    H2 9483   2.205   5.858   3.975 -1.0041 -0.1546 -0.5222
 3180TIP3   OH2 9484   1.505  -0.003   4.994  0.3013 -0.4342 -0.1334
 3180TIP3    H1 9485   1.472   0.028   4.909  0.3591  0.1177  0.0469
 3180TIP3    H2 9486   1.490   0.069   5.054  1.0234 -0.5093  0.1488
 3181TIP3   OH2 9487   5.826   4.469   1.032 -0.0679 -0.3711 -0.5146
 3181TIP3    H1 9488   5.864   4.468   0.944  0.5852  0.1155 -0.2492
 3181TIP3    H2 9489   5.732   4.480   1.017  0.1642  1.0420 -1.1282
 3182TIP3   OH2 9490   6.648   1.195   1.845 -0.2319 -0.1945 -0.0468
 3182TIP3    H1 9491   6.716   1.260   1.860 -0.1204 -0.4269  0.4606
 3182TIP3    H2 9492   6.598   1.192   1.927 -0.6962 -0.2064 -0.3260
 3183TIP3   OH2 9493   2.125   7.189   3.259 -0.0915  0.2495 -0.4652
 3183TIP3    H1 9494   2.178   7.191   3.179 -0.4174  0.2755 -0.6808
 3183TIP3    H2 9495   2.035   7.199   3.229 -0.4732 -2.2087 -0.3241
 3184TIP3   OH2 9496   8.304   2.788   0.795 -0.2162  0.1908 -0.0162
 3184TIP3    H1 9497   8.295   2.875   0.755  0.0503  0.0856 -0.3029
 3184TIP3    H2 9498   8.237   2.735   0.752 -1.0644  0.5007  0.8638
 3185TIP3   OH2 9499   0.381   7.640   2.959 -0.3369  0.3556 -0.6719
 3185TIP3    H1 9500   0.385   7.548   2.985 -0.6829 -0.1080 -2.1657
 3185TIP3    H2 9501   0.425   7.687   3.031  0.8524 -1.0813 -0.4010
 3186TIP3   OH2 9502   3.333   2.878   0.612  0.6855  0.0993  0.0426
 3186TIP3    H1 9503   3.350   2.790   0.579  0.9631 -0.5069  1.7066
 3186TIP3    H2 9504   3.420   2.914   0.630  0.5269 -0.0077  1.1086
 3187TIP3   OH2 9505   1.266   0.826   2.242  0.4918 -0.2330 -0.0730
 3187TIP3    H1 9506   1.212   0.759   2.200 -0.1437 -0.3127  0.8662
 3187TIP3    H2 9507   1.237   0.829   2.333  0.5631  1.2627 -0.0677
 3188TIP3   OH2 9508   6.702   6.833   3.887  0.3303 -0.5700 -0.5638
 3188TIP3    H1 9509   6.695   6.903   3.952 -0.0041  0.0598 -1.2703
 3188TIP3    H2 9510   6.681   6.875   3.804  0.7115 -1.3802 -1.0785
 3189TIP3   OH2 9511   5.128   7.333   2.834 -0.2114  0.7708  0.4601
 3189TIP3    H1 9512   5.220   7.312   2.853  0.1525  1.4729 -0.4451
 3189TIP3    H2 9513   5.131   7.423   2.801 -0.8590 -0.1384 -2.3325
 3190TIP3   OH2 9514   3.976   3.572   0.365  0.3283  0.0738  0.2132
 3190TIP3    H1 9515   4.014   3.496   0.409  1.7320  0.1948 -0.7004
 3190TIP3    H2 9516   4.032   3.586   0.289 -0.1933  1.7186  0.0798
 3191TIP3   OH2 9517   5.346   6.979   4.731  0.4068  0.4225  0.1020
 3191TIP3    H1 9518   5.299   6.910   4.778 -0.8544  2.6288  2.3012
 3191TIP3    H2 9519   5.411   7.010   4.792  0.3907  1.7396 -0.5247
 3192TIP3   OH2 9520   5.880   6.501   1.859  0.0182 -0.4680 -0.2779
 3192TIP3    H1 9521   5.888   6.534   1.948 -2.1620 -1.7780  0.4816
 3192TIP3    H2 9522   5.969   6.480   1.832  0.5820 -1.4412  2.1701
 3193TIP3   OH2 9523   3.914   1.357   2.190  0.0980 -0.0406  0.0225
 3193TIP3    H1 9524   3.862   1.304   2.129 -0.0556  0.8919 -0.6722
 3193TIP3    H2 9525   3.985   1.299   2.218 -1.0526 -1.2047  0.6599
 3194TIP3   OH2 9526   5.976   2.994   0.781 -0.3868 -0.2029 -0.4314
 3194TIP3    H1 9527   6.015   3.067   0.829  0.5514 -0.0022 -1.4523
 3194TIP3    H2 9528   5.976   3.022   0.690  0.9872 -1.8607 -1.0005
 3195TIP3   OH2 9529   7.468   0.720   1.880  0.5385  0.1194 -0.0843
 3195TIP3    H1 9530   7.544   0.769   1.848  2.4585 -1.4515  1.7738
 3195TIP3    H2 9531   7.505   0.654   1.939 -2.2041 -1.4416  0.0502
 3196TIP3   OH2 9532   4.055   5.378   4.159 -0.3210  0.0135 -0.0395
 3196TIP3    H1 9533   4.139   5.424   4.151 -0.2611 -0.4204 -2.5401
 3196TIP3    H2 9534   4.078   5.288   4.178 -0.1530 -0.3054 -1.6826
 3197TIP3   OH2 9535   1.535   6.982   1.646  0.1632  0.3084  0.1583
 3197TIP3    H1 9536   1.510   6.890   1.648  0.0424  0.3280 -0.2752
 3197TIP3    H2 9537   1.631   6.981   1.649  0.1382  0.2094  1.1627
 3198TIP3   OH2 9538   8.070   5.600   4.097 -0.1696 -0.5093 -0.2860
 3198TIP3    H1 9539   8.024   5.684   4.091  0.4722 -0.1841 -0.6160
 3198TIP3    H2 9540   8.162   5.623   4.100 -0.0274 -1.1482  0.7564
 3199TIP3   OH2 9541   7.564   5.694   0.151 -0.4111 -0.2568 -0.0248
 3199TIP3    H1 9542   7.490   5.691   0.212  0.3582  1.1434  1.0195
 3199TIP3    H2 9543   7.608   5.609   0.163 -1.2679 -0.6987  0.0667
 3200TIP3   OH2 9544   5.578   1.662   5.544 -0.3606 -0.4538 -0.4551
 3200TIP3    H1 9545   5.500   1.684   5.493  0.5853 -0.7962 -2.1570
 3200TIP3    H2 9546   5.644   1.642   5.477  1.2961  0.2189  0.9137
 3201TIP3   OH2 9547   4.198   7.363   0.737  0.1190  0.3528  0.5818
 3201TIP3    H1 9548   4.287   7.363   0.773  0.8905  0.6771 -1.2093
 3201TIP3    H2 9549   4.150   7.425   0.792  0.5681 -0.8883  2.4772
 3202TIP3   OH2 9550   6.013   2.709   3.054  0.0363  0.0159 -0.0973
 3202TIP3    H1 9551   5.970   2.783   3.097 -0.3523 -1.7205  2.7797
 3202TIP3    H2 9552   5.943   2.664   3.008  0.0308  0.6679 -0.7475
 3203TIP3   OH2 9553   3.726   0.156   5.927  0.3355  0.1725 -0.1343
 3203TIP3    H1 9554   3.804   0.170   5.981 -0.0307  1.7617  0.0358
 3203TIP3    H2 9555   3.748   0.195   5.843 -0.6263  1.6021  0.2420
 3204TIP3   OH2 9556   8.284   2.613   2.639  0.1092  0.2535 -0.0027
 3204TIP3    H1 9557   8.294   2.708   2.632  2.0085  0.0366 -0.7969
 3204TIP3    H2 9558   8.190   2.599   2.631 -0.1649  2.0339 -0.4049
 3205TIP3   OH2 9559   2.530   6.660   0.200 -0.1507 -0.5166 -0.0986
 3205TIP3    H1 9560   2.596   6.725   0.177 -2.4686  1.5832 -1.4898
 3205TIP3    H2 9561   2.475   6.654   0.121 -2.8260 -0.4434  1.6216
 3206TIP3   OH2 9562   3.878   1.519   1.094  0.2491  0.1746 -0.0903
 3206TIP3    H1 9563   3.923   1.594   1.134  3.5969 -1.4659 -0.4913
 3206TIP3    H2 9564   3.820   1.487   1.164  0.0382  2.0455  0.6629
 3207TIP3   OH2 9565   5.179   5.141   2.374  0.2589  0.4307 -0.7173
 3207TIP3    H1 9566   5.187   5.046   2.363 -0.5578  0.3586 -0.7089
 3207TIP3    H2 9567   5.110   5.152   2.439 -0.2687  1.0514 -1.3685
 3208TIP3   OH2 9568   4.666   5.363   2.432 -0.5021 -0.7739  0.1130
 3208TIP3    H1 9569   4.727   5.433   2.455 -1.5657 -0.0600  0.8811
 3208TIP3    H2 9570   4.692   5.337   2.344  0.3611  0.0951  0.0839
 3209TIP3   OH2 9571   7.659   4.938   6.786 -0.8211 -0.2553 -0.0501
 3209TIP3    H1 9572   7.640   4.863   6.729 -0.8821  0.4040 -0.9243
 3209TIP3    H2 9573   7.651   5.014   6.728 -1.0743  0.4537  0.8903
 3210TIP3   OH2 9574   5.470   3.136   3.143  0.0846 -0.4274  0.0329
 3210TIP3    H1 9575   5.468   3.114   3.050  2.2098 -1.8320  0.2378
 3210TIP3    H2 9576   5.524   3.067   3.182  0.9397  1.2602  1.9656
 3211TIP3   OH2 9577   7.138   4.589   0.655  0.1185  0.0207 -0.0644
 3211TIP3    H1 9578   7.060   4.539   0.633 -0.3202  0.6965 -0.0695
 3211TIP3    H2 9579   7.176   4.613   0.571  0.1831 -0.0776 -0.0634
 3212TIP3   OH2 9580   7.327   4.463   6.526  0.3650  0.1305 -0.2530
 3212TIP3    H1 9581   7.253   4.449   6.585  1.0020  0.0067  0.5415
 3212TIP3    H2 9582   7.381   4.384   6.537  1.1738  0.7111  0.0380
 3213TIP3   OH2 9583   1.295   1.118   4.503  0.3380 -0.0059 -0.2405
 3213TIP3    H1 9584   1.219   1.113   4.445  0.3860  0.0303 -0.3074
 3213TIP3    H2 9585   1.294   1.208   4.537 -0.2848 -0.3391  0.6333
 3214TIP3   OH2 9586   2.178   5.623   2.811 -0.0093  0.3628  0.5539
 3214TIP3    H1 9587   2.099   5.635   2.863 -0.4115 -0.0568  0.0471
 3214TIP3    H2 9588   2.202   5.531   2.826  0.1640  0.3844  0.4073
 3215TIP3   OH2 9589   3.667   0.423   5.156  0.0449  0.0294 -0.3926
 3215TIP3    H1 9590   3.616   0.364   5.100 -0.6649  0.1177  0.1472
 3215TIP3    H2 9591   3.615   0.430   5.236  0.0408  1.5192 -0.5080
 3216TIP3   OH2 9592   3.819   2.237   4.188  0.5242 -0.6334 -0.4324
 3216TIP3    H1 9593   3.826   2.154   4.142  0.5955 -0.6348 -0.4195
 3216TIP3    H2 9594   3.753   2.222   4.255  1.2491 -0.9745  0.2144
 3217TIP3   OH2 9595   0.942   4.507   0.204  0.0048  0.3394  0.2499
 3217TIP3    H1 9596   0.873   4.566   0.175  1.5287  1.1491 -2.0225
 3217TIP3    H2 9597   0.968   4.459   0.125  3.2910  1.4368  0.4825
 3218TIP3   OH2 9598   3.653   0.050   5.010 -0.2454 -0.2075 -0.0763
 3218TIP3    H1 9599   3.619  -0.038   4.998  0.1618 -0.2683 -0.8336
 3218TIP3    H2 9600   3.620   0.077   5.095 -0.1324 -1.2017  0.2949
 3219TIP3   OH2 9601   5.353   5.384   6.354 -0.2232  0.1504 -0.5102
 3219TIP3    H1 9602   5.268   5.355   6.322 -0.7467  0.2791  0.7015
 3219TIP3    H2 9603   5.365   5.337   6.437 -0.8728  2.8969  1.2771
 3220TIP3   OH2 9604   7.485   3.106   3.354  0.3465 -0.0694  0.1312
 3220TIP3    H1 9605   7.556   3.148   3.404  1.3926  0.2795 -1.5439
 3220TIP3    H2 9606   7.490   3.148   3.267 -2.0943  0.1400  0.0350
 3221TIP3   OH2 9607   7.729   4.812   5.427  0.7795 -0.9624  0.1131
 3221TIP3    H1 9608   7.821   4.795   5.409  0.3503 -0.9761 -2.5388
 3221TIP3    H2 9609   7.712   4.899   5.390 -0.8267 -2.1177 -2.1378
 3222TIP3   OH2 9610   5.649   0.460   2.283 -0.0181 -0.1009  0.2218
 3222TIP3    H1 9611   5.719   0.514   2.247 -1.3763 -0.1424 -2.8174
 3222TIP3    H2 9612   5.683   0.370   2.277 -0.8382 -0.3504 -3.1485
 3223TIP3   OH2 9613   2.382   1.414   3.311 -0.1198 -0.1700  1.0022
 3223TIP3    H1 9614   2.473   1.433   3.286 -0.1179 -0.0120  1.1288
 3223TIP3    H2 9615   2.372   1.320   3.294 -1.3764  0.5463 -3.6800
 3224TIP3   OH2 9616   7.221   1.097   4.713  0.3603 -0.4130  0.1014
 3224TIP3    H1 9617   7.281   1.108   4.787 -0.7314 -0.6490  1.0482
 3224TIP3    H2 9618   7.263   1.030   4.658  1.5357  0.2826  0.1106
 3225TIP3   OH2 9619   0.082   4.832   3.648 -0.4907 -0.3001  0.6143
 3225TIP3    H1 9620   0.138   4.755   3.639  0.4281  0.0510  2.7215
 3225TIP3    H2 9621   0.108   4.889   3.575 -0.4260 -1.4953 -0.3325
 3226TIP3   OH2 9622   5.223   6.134   4.240 -0.0857 -0.1474  0.1792
 3226TIP3    H1 9623   5.163   6.208   4.230  0.4412  0.1512 -0.8738
 3226TIP3    H2 9624   5.275   6.155   4.317 -0.9836 -0.1720  0.8039
 3227TIP3   OH2 9625   0.531   3.499   5.563 -0.1911 -0.8269  0.0734
 3227TIP3    H1 9626   0.437   3.486   5.571 -0.1657 -0.1009  2.0495
 3227TIP3    H2 9627   0.569   3.412   5.575 -0.5384 -0.8328  1.2477
 3228TIP3   OH2 9628   7.784   7.088   3.585 -0.4560 -0.0165  0.4073
 3228TIP3    H1 9629   7.729   7.095   3.507 -0.4479 -0.6782  0.3347
 3228TIP3    H2 9630   7.754   7.008   3.628 -0.1345  0.0887  0.8269
 3229TIP3   OH2 9631   1.019   3.446   0.901  0.7521  0.0875  0.1814
 3229TIP3    H1 9632   0.991   3.355   0.896 -3.0312  1.0217  0.8406
 3229TIP3    H2 9633   1.015   3.477   0.810 -1.4202  0.3754  0.3236
 3230TIP3   OH2 9634   4.151   7.513   4.439 -0.5875  0.2818 -1.0234
 3230TIP3    H1 9635   4.227   7.478   4.392 -0.2216  0.6913 -0.7347
 3230TIP3    H2 9636   4.083   7.519   4.371 -0.6670 -0.9797 -1.0860
 3231TIP3   OH2 9637   4.336   1.564   5.565 -0.1875 -0.4070  0.2414
 3231TIP3    H1 9638   4.241   1.568   5.577 -0.3331 -0.7747 -0.6951
 3231TIP3    H2 9639   4.348   1.510   5.487  0.7318  1.0211 -0.6541
 3232TIP3   OH2 9640   6.933   4.099   4.813 -0.8810  0.7680  0.1846
 3232TIP3    H1 9641   6.960   4.061   4.897  0.2330  2.4110  0.6278
 3232TIP3    H2 9642   6.838   4.089   4.811 -0.6266 -3.7903 -0.6746
 3233TIP3   OH2 9643   4.688   7.419   1.752 -0.4110 -0.1684 -0.1024
 3233TIP3    H1 9644   4.760   7.411   1.814  0.6701 -1.4604 -1.4479
 3233TIP3    H2 9645   4.718   7.372   1.674 -3.0688 -1.4958 -0.4229
 3234TIP3   OH2 9646   1.964   1.969   3.884 -0.1006  0.3390  0.2581
 3234TIP3    H1 9647   2.012   2.047   3.857 -0.6009  0.1445 -1.3357
 3234TIP3    H2 9648   2.029   1.912   3.924  0.4815  1.1041  0.4169
 3235TIP3   OH2 9649   1.905   5.729   0.370 -0.1950  0.1365  0.1640
 3235TIP3    H1 9650   1.866   5.791   0.432 -0.8714  1.8614 -1.8664
 3235TIP3    H2 9651   1.830   5.683   0.332  0.0107  0.6952 -0.9608
 3236TIP3   OH2 9652   2.768   2.711   2.718 -0.4991 -0.0908  0.2038
 3236TIP3    H1 9653   2.722   2.793   2.735 -1.4720 -0.6334  0.2279
 3236TIP3    H2 9654   2.728   2.678   2.638 -0.8908 -1.0900  0.7991
 3237TIP3   OH2 9655   2.635   0.416   6.142  0.2350 -0.7644  0.0478
 3237TIP3    H1 9656   2.665   0.480   6.078 -1.6806  1.0419  0.8407
 3237TIP3    H2 9657   2.709   0.405   6.202  0.8621  0.1145 -0.5569
 3238TIP3   OH2 9658   3.964   6.285   0.316 -0.8086 -0.0494 -0.6596
 3238TIP3    H1 9659   3.941   6.262   0.406 -0.4571  2.6656  0.1997
 3238TIP3    H2 9660   4.059   6.293   0.317 -0.8478  0.5133 -1.1273
 3239TIP3   OH2 9661   6.662   4.077   4.872 -0.3311  0.2739  0.3019
 3239TIP3    H1 9662   6.579   4.036   4.896 -0.1914 -0.5996 -0.6284
 3239TIP3    H2 9663   6.640   4.135   4.799 -0.0860 -0.2052 -0.1629
 3240TIP3   OH2 9664   2.454   7.267   6.440 -0.1723 -0.0831 -0.4160
 3240TIP3    H1 9665   2.532   7.218   6.415 -0.1954 -1.0427  1.3167
 3240TIP3    H2 9666   2.436   7.241   6.530 -1.1680  1.8561 -0.0031
 3241TIP3   OH2 9667   7.282   4.015   4.598 -0.7814  0.2911 -0.1443
 3241TIP3    H1 9668   7.271   4.056   4.512  1.2525  1.0503 -0.0947
 3241TIP3    H2 9669   7.370   4.041   4.626 -0.2141 -2.4110  0.8392
 3242TIP3   OH2 9670   5.452   3.636   1.711 -0.2567 -0.0807  0.0678
 3242TIP3    H1 9671   5.394   3.633   1.787 -1.6122  0.2961 -0.9296
 3242TIP3    H2 9672   5.462   3.545   1.685  1.1270 -0.3381  1.3251
 3243TIP3   OH2 9673   1.648   1.370   6.691 -0.1761  0.2700  0.2114
 3243TIP3    H1 9674   1.678   1.313   6.620  1.9271  0.5477  0.8063
 3243TIP3    H2 9675   1.728   1.397   6.735 -1.1747  2.8266  0.6345
 3244TIP3   OH2 9676   0.303   0.196   0.202  0.0936 -0.5328  0.7572
 3244TIP3    H1 9677   0.220   0.210   0.248  0.5582  0.8600  1.1915
 3244TIP3    H2 9678   0.344   0.123   0.248 -0.9717 -1.3870  0.4001
 3245TIP3   OH2 9679   1.182   7.796   3.510  0.2018  0.3233 -0.3108
 3245TIP3    H1 9680   1.109   7.751   3.469 -1.5867  1.2722  1.6493
 3245TIP3    H2 9681   1.214   7.735   3.577 -0.9171  1.0810  0.9753
 3246TIP3   OH2 9682   3.018   5.702   5.844  0.3709  0.3775  0.1054
 3246TIP3    H1 9683   2.955   5.773   5.854 -1.3128 -1.1640  1.2394
 3246TIP3    H2 9684   3.083   5.736   5.783 -1.4793  2.1429 -1.0220
 3247TIP3   OH2 9685   4.016   0.905   2.066 -0.8656  0.2820  0.1616
 3247TIP3    H1 9686   4.044   0.896   1.976  1.6972 -0.5933  0.9724
 3247TIP3    H2 9687   4.033   0.997   2.089  1.6413 -0.2597  0.6729
 3248TIP3   OH2 9688   5.471   6.466   3.337 -0.0345  0.3759 -0.2194
 3248TIP3    H1 9689   5.556   6.509   3.327  0.2166  0.2898  1.2820
 3248TIP3    H2 9690   5.488   6.375   3.316  0.4095  0.2403  0.6619
 3249TIP3   OH2 9691   6.541   0.844   6.445  0.0087 -0.3042  0.0404
 3249TIP3    H1 9692   6.501   0.764   6.481 -1.8913  0.3047 -0.5708
 3249TIP3    H2 9693   6.476   0.912   6.462  1.5928  1.1342  0.5357
 3250TIP3   OH2 9694   3.101   7.192   0.377  0.1179  0.0493 -0.5222
 3250TIP3    H1 9695   3.076   7.263   0.437 -2.3292 -0.3700 -0.9139
 3250TIP3    H2 9696   3.087   7.229   0.289  1.5362 -0.0475 -0.8056
 3251TIP3   OH2 9697   4.820   7.087   1.306  0.4693 -0.2825 -0.0145
 3251TIP3    H1 9698   4.897   7.128   1.267  0.3000  0.9406  0.8691
 3251TIP3    H2 9699   4.835   6.993   1.296  2.3991 -0.1032  0.7116
 3252TIP3   OH2 9700   5.135   0.060   4.638  0.2723 -0.0299 -0.3922
 3252TIP3    H1 9701   5.118   0.033   4.548 -1.0474  0.7852 -0.4114
 3252TIP3    H2 9702   5.192  -0.008   4.673 -0.6370 -1.2976 -1.2969
 3253TIP3   OH2 9703   5.011   5.335   5.206 -0.0917 -0.2460  0.6322
 3253TIP3    H1 9704   5.046   5.377   5.128 -0.3959  0.6024  0.9402
 3253TIP3    H2 9705   4.966   5.406   5.253 -1.8290 -1.1872  0.4660
 3254TIP3   OH2 9706   7.714   4.924   1.717 -0.1943  0.5243 -0.1152
 3254TIP3    H1 9707   7.697   4.831   1.706  0.7829  0.0420  1.9216
 3254TIP3    H2 9708   7.809   4.932   1.715 -0.2224  1.3028  0.7408
 3255TIP3   OH2 9709   0.536   4.971   2.973 -0.3137 -0.5459 -0.5893
 3255TIP3    H1 9710   0.580   5.056   2.980 -0.1541 -0.7040  0.5197
 3255TIP3    H2 9711   0.594   4.918   2.920  0.8458 -0.7325  0.7887
 3256TIP3   OH2 9712   0.353   0.582   1.374 -0.3570 -0.1142 -0.0119
 3256TIP3    H1 9713   0.304   0.663   1.387 -0.0435 -0.2615  2.4466
 3256TIP3    H2 9714   0.444   0.611   1.364 -0.3454 -0.1279  0.0573
 3257TIP3   OH2 9715   0.420   5.336   2.001  0.7825 -0.8416  0.1976
 3257TIP3    H1 9716   0.373   5.400   2.055 -0.7948 -0.8702 -1.0921
 3257TIP3    H2 9717   0.498   5.383   1.971  0.0749  0.2098 -0.0321
 3258TIP3   OH2 9718   3.129   7.457   4.408 -0.1710  0.2342 -0.4428
 3258TIP3    H1 9719   3.050   7.433   4.456 -1.2043  0.5299 -1.9337
 3258TIP3    H2 9720   3.110   7.545   4.374  0.1814 -0.2805 -2.0496
 3259TIP3   OH2 9721   0.482   6.543   4.147  0.0943  0.1392 -0.2061
 3259TIP3    H1 9722   0.465   6.448   4.142  1.0422 -0.0228 -0.6062
 3259TIP3    H2 9723   0.500   6.559   4.239 -1.0609  0.1256  0.0454
 3260TIP3   OH2 9724   5.342   6.908   3.158 -0.5850  0.7436 -0.2382
 3260TIP3    H1 9725   5.281   6.869   3.221 -0.1086  2.4229  1.3622
 3260TIP3    H2 9726   5.396   6.836   3.128 -1.4130 -0.2537  0.5990
 3261TIP3   OH2 9727   1.111   2.715   1.878  0.3095 -0.2640 -0.0648
 3261TIP3    H1 9728   1.206   2.703   1.870  0.6690  0.0558  2.7157
 3261TIP3    H2 9729   1.095   2.805   1.852  0.7023 -0.4236 -0.8820
 3262TIP3   OH2 9730   1.061   5.001   4.221  0.3682 -0.2332 -0.4942
 3262TIP3    H1 9731   1.071   4.972   4.312  0.9950  1.5186  0.0191
 3262TIP3    H2 9732   0.971   5.033   4.216  0.4776  0.0891 -0.3748
 3263TIP3   OH2 9733   3.057   4.397   6.467  0.3681 -0.0943 -0.1362
 3263TIP3    H1 9734   2.967   4.428   6.456  0.5324 -0.2598 -2.7477
 3263TIP3    H2 9735   3.080   4.418   6.557 -1.8374  1.1657  0.1873
 3264TIP3   OH2 9736   3.239   5.040   5.626  0.1799 -0.5119  0.1998
 3264TIP3    H1 9737   3.161   5.039   5.571  0.0283  0.8618  0.3519
 3264TIP3    H2 9738   3.295   4.971   5.590 -0.1676 -0.0402 -1.3191
 3265TIP3   OH2 9739   6.940   6.621   5.672 -0.2691 -0.0679  0.1125
 3265TIP3    H1 9740   6.911   6.551   5.731  1.0970 -0.9796 -0.2505
 3265TIP3    H2 9741   6.932   6.701   5.724 -1.1754 -0.5766  0.7772
 3266TIP3   OH2 9742   1.092   3.868   3.157  0.1621  0.4630  0.4105
 3266TIP3    H1 9743   1.153   3.860   3.231 -0.8843  0.7571  1.3262
 3266TIP3    H2 9744   1.057   3.957   3.164 -0.4494  0.2633 -0.0523
 3267TIP3   OH2 9745   2.912   4.248   4.299 -0.2888  0.2781  0.1423
 3267TIP3    H1 9746   2.973   4.281   4.234  0.0972  0.1188  0.4242
 3267TIP3    H2 9747   2.953   4.169   4.334  0.4569  1.4047  1.9718
 3268TIP3   OH2 9748   4.935   4.301   2.106  0.0909  0.2565 -0.8398
 3268TIP3    H1 9749   4.891   4.271   2.027 -1.1137 -1.8986  0.5750
 3268TIP3    H2 9750   5.019   4.256   2.106 -1.0132 -1.9520  0.4007
 3269TIP3   OH2 9751   7.094   5.656   1.917  0.0155  0.0556  0.9686
 3269TIP3    H1 9752   7.103   5.729   1.856 -1.7471 -1.1499 -0.8545
 3269TIP3    H2 9753   7.172   5.602   1.902 -0.8258 -0.7254 -1.0423
 3270TIP3   OH2 9754   7.090   5.185   6.812 -0.1352 -0.1378 -0.4691
 3270TIP3    H1 9755   7.065   5.222   6.727 -0.2775 -0.2637 -0.4825
 3270TIP3    H2 9756   7.122   5.098   6.792 -1.9779 -0.9247 -0.2040
 3271TIP3   OH2 9757   0.824   6.888   4.943  0.0707 -0.5682  0.4197
 3271TIP3    H1 9758   0.735   6.860   4.966 -0.6993  0.7651 -0.7838
 3271TIP3    H2 9759   0.869   6.806   4.921 -1.4699 -1.1319 -0.9268
 3272TIP3   OH2 9760   3.717   7.151   0.695 -0.4353  0.0351  0.1062
 3272TIP3    H1 9761   3.767   7.073   0.674  0.6854  0.3643  1.4542
 3272TIP3    H2 9762   3.775   7.204   0.749 -1.7071  1.1236  0.4754
 3273TIP3   OH2 9763   5.720   2.726   4.482  0.5358  0.2384  0.0830
 3273TIP3    H1 9764   5.769   2.746   4.402 -0.7982  1.0310 -0.5702
 3273TIP3    H2 9765   5.750   2.791   4.546  0.1459  0.9043 -0.4004
 3274TIP3   OH2 9766   7.623   1.287   2.341 -0.6902 -0.1838 -0.0425
 3274TIP3    H1 9767   7.580   1.252   2.419 -0.9581  1.2036  0.4545
 3274TIP3    H2 9768   7.714   1.257   2.348 -1.0126 -1.1585  0.1113
 3275TIP3   OH2 9769   0.543   4.995   5.548  0.1707 -0.0216 -0.0120
 3275TIP3    H1 9770   0.484   4.935   5.502  0.5739 -1.7488  1.5881
 3275TIP3    H2 9771   0.485   5.057   5.592 -0.3134 -0.0512 -0.5990
 3276TIP3   OH2 9772   0.762   0.242   2.586 -0.2388  0.2287  0.0173
 3276TIP3    H1 9773   0.790   0.205   2.670  2.5224  0.5580 -0.6618
 3276TIP3    H2 9774   0.734   0.166   2.534 -2.1375  0.0373  1.2158
 3277TIP3   OH2 9775   4.078   1.060   6.529 -0.0135  0.0776  0.1086
 3277TIP3    H1 9776   4.164   1.100   6.530  1.3137 -2.5427  0.2295
 3277TIP3    H2 9777   4.057   1.043   6.621  0.8370 -2.0810 -0.0350
 3278TIP3   OH2 9778   5.146   7.651   2.846 -0.6540 -0.1520 -0.4073
 3278TIP3    H1 9779   5.148   7.731   2.793  2.9792  1.4277  1.7119
 3278TIP3    H2 9780   5.068   7.660   2.901 -1.2662  1.0438 -1.4090
 3279TIP3   OH2 9781   5.953   4.961   2.914  0.0264  0.1664 -0.5787
 3279TIP3    H1 9782   5.907   5.019   2.975 -0.4788  0.0529 -0.8458
 3279TIP3    H2 9783   6.005   4.903   2.970 -0.1769  0.2817 -0.2690
 3280TIP3   OH2 9784   3.473   5.906   6.565 -0.0789  0.1490 -0.4114
 3280TIP3    H1 9785   3.481   5.850   6.488  1.5767 -0.3762  0.0998
 3280TIP3    H2 9786   3.441   5.990   6.531 -2.7282 -1.0789 -1.1710
 3281TIP3   OH2 9787   5.504   0.306   3.892  0.6989  0.1047 -0.1711
 3281TIP3    H1 9788   5.418   0.277   3.861 -1.1484  3.9179  0.7840
 3281TIP3    H2 9789   5.507   0.280   3.984  0.7363 -0.3276 -0.2929
 3282TIP3   OH2 9790   4.764   4.898   1.814 -0.7472 -0.1367  0.1054
 3282TIP3    H1 9791   4.681   4.850   1.815 -1.3377  0.8291 -0.4808
 3282TIP3    H2 9792   4.739   4.988   1.792  0.5615 -0.0279 -1.0859
 3283TIP3   OH2 9793   6.720   3.397   3.183  0.0157  0.1600 -0.2266
 3283TIP3    H1 9794   6.711   3.468   3.119 -1.4960  0.5020  0.3303
 3283TIP3    H2 9795   6.631   3.363   3.194  0.5939 -1.3450  0.0746
 3284TIP3   OH2 9796   5.311  -0.002   0.452 -0.0905  0.2077 -0.1004
 3284TIP3    H1 9797   5.356   0.054   0.517 -1.2044  0.0958  0.7975
 3284TIP3    H2 9798   5.241  -0.044   0.502 -1.7099  0.9975 -1.6429
 3285TIP3   OH2 9799   6.813   7.298   4.595  0.5104  0.5619 -0.1182
 3285TIP3    H1 9800   6.835   7.382   4.554 -0.9571  0.9703 -0.0971
 3285TIP3    H2 9801   6.719   7.288   4.580  0.4216 -0.4546  1.0262
 3286TIP3   OH2 9802   5.663   2.052   5.866  0.5355 -0.0940 -0.4709
 3286TIP3    H1 9803   5.597   1.999   5.822 -0.0158 -1.1265  1.4598
 3286TIP3    H2 9804   5.724   1.988   5.904  2.3555  0.8116 -1.6968
 3287TIP3   OH2 9805   5.317   2.688   0.056  0.2082  0.2218 -0.0844
 3287TIP3    H1 9806   5.288   2.599   0.075 -0.0931  0.2478 -0.4120
 3287TIP3    H2 9807   5.240   2.742   0.070  0.6380  0.5649  1.0520
 3288TIP3   OH2 9808   2.219   2.440   0.282  0.3048 -0.0616  0.2733
 3288TIP3    H1 9809   2.235   2.385   0.359 -0.5030 -2.1267 -0.9361
 3288TIP3    H2 9810   2.129   2.470   0.293  0.8541  1.4036  1.1024
 3289TIP3   OH2 9811   0.891   7.737   6.727 -0.3158 -0.3454 -0.4133
 3289TIP3    H1 9812   0.852   7.652   6.708  1.5045 -1.5520  0.8611
 3289TIP3    H2 9813   0.877   7.750   6.821  1.5267 -0.4491 -0.0767
 3290TIP3   OH2 9814   7.566   4.940   6.358 -0.4618 -0.2464  0.0412
 3290TIP3    H1 9815   7.491   4.922   6.415 -0.7858 -0.3108 -0.4031
 3290TIP3    H2 9816   7.589   5.031   6.377 -0.2850 -0.4005  0.5949
 3291TIP3   OH2 9817   1.336   2.325   2.095  0.2328  0.2236  0.0596
 3291TIP3    H1 9818   1.362   2.293   2.181  2.9620 -0.9754 -1.1050
 3291TIP3    H2 9819   1.314   2.417   2.109  1.7887  0.3753  1.8750
 3292TIP3   OH2 9820   2.228   5.292   3.380 -0.1804  0.6948 -0.0766
 3292TIP3    H1 9821   2.289   5.261   3.313 -0.2698  0.1397  0.0947
 3292TIP3    H2 9822   2.208   5.382   3.355  1.1042  1.0689  0.1355
 3293TIP3   OH2 9823   3.404   6.879   1.341 -0.4494 -0.3049 -0.3876
 3293TIP3    H1 9824   3.414   6.847   1.431  1.9057  0.1145 -0.4297
 3293TIP3    H2 9825   3.331   6.828   1.305 -1.1532 -0.7903  1.6106
 3294TIP3   OH2 9826   5.665   0.923   2.375 -0.5648 -0.3099 -0.4180
 3294TIP3    H1 9827   5.712   0.993   2.420  1.3224 -2.3519  0.9703
 3294TIP3    H2 9828   5.577   0.925   2.412  0.2328 -0.3468  1.5868
 3295TIP3   OH2 9829   4.125   2.281   3.343  0.1294 -0.2466  0.4021
 3295TIP3    H1 9830   4.082   2.366   3.330  0.0336 -0.0053  2.1578
 3295TIP3    H2 9831   4.063   2.229   3.394  0.5957 -1.0327  0.1853
 3296TIP3   OH2 9832   2.994   4.905   5.016 -0.4038  0.2324  0.0343
 3296TIP3    H1 9833   2.986   4.814   5.044 -1.2888  0.3908  0.3259
 3296TIP3    H2 9834   3.019   4.900   4.924 -0.7731 -0.3112 -0.0415
 3297TIP3   OH2 9835   0.937   6.254   6.342 -0.2347  0.2353 -0.1071
 3297TIP3    H1 9836   0.995   6.288   6.273 -0.5212  0.9374 -0.0062
 3297TIP3    H2 9837   0.925   6.327   6.402  0.0001 -0.3757  0.6875
 3298TIP3   OH2 9838   3.358   5.098   2.778 -0.2354  0.3198  0.2032
 3298TIP3    H1 9839   3.321   5.151   2.707  1.2533  0.5433 -0.4544
 3298TIP3    H2 9840   3.298   5.110   2.851 -0.7358  1.7122 -0.4028
 3299TIP3   OH2 9841   1.093   7.767   2.611  0.3615 -0.3736  0.0667
 3299TIP3    H1 9842   1.029   7.838   2.619  0.2118 -0.5251  0.2165
 3299TIP3    H2 9843   1.048   7.691   2.647  0.7163 -0.4263  0.4020
 3300TIP3   OH2 9844   1.456   0.201   4.040 -0.1896  0.6515 -0.1078
 3300TIP3    H1 9845   1.502   0.235   3.964 -0.3348  2.3195  0.4995
 3300TIP3    H2 9846   1.364   0.197   4.013  0.1286 -1.9513 -1.0680
 3301TIP3   OH2 9847   6.990   2.109   1.987  0.2557 -0.4225 -0.0304
 3301TIP3    H1 9848   7.085   2.120   1.990  0.2070 -0.1909  1.7150
 3301TIP3    H2 9849   6.957   2.163   2.059 -0.9831 -2.2682  0.8885
 3302TIP3   OH2 9850   6.590   1.136   4.703  0.1742 -0.6715 -0.3365
 3302TIP3    H1 9851   6.646   1.103   4.634 -0.4674 -1.8180 -0.3323
 3302TIP3    H2 9852   6.628   1.101   4.784  0.4558 -0.0054 -0.1754
 3303TIP3   OH2 9853   1.393   1.401   5.268 -0.1908  0.3089  0.6658
 3303TIP3    H1 9854   1.345   1.483   5.260 -0.2056  0.2365 -0.1037
 3303TIP3    H2 9855   1.345   1.340   5.212  0.5161  0.1110  0.2600
 3304TIP3   OH2 9856   0.817   2.387   6.607  0.0544  0.0789  0.7780
 3304TIP3    H1 9857   0.740   2.432   6.571  0.3073 -0.7974 -0.9686
 3304TIP3    H2 9858   0.890   2.421   6.555  0.1805 -2.6941 -1.0278
 3305TIP3   OH2 9859   8.299   0.201   0.282 -0.3310  0.2331 -0.2074
 3305TIP3    H1 9860   8.242   0.264   0.239  0.3063  0.5957 -0.5246
 3305TIP3    H2 9861   8.283   0.118   0.236 -2.9580 -0.4800  1.7128
 3306TIP3   OH2 9862   4.616   2.393   6.202  0.4865 -0.2324  0.3698
 3306TIP3    H1 9863   4.562   2.407   6.125  1.3674 -1.1916 -0.4586
 3306TIP3    H2 9864   4.635   2.481   6.234  1.8138  0.3302 -1.7556
 3307TIP3   OH2 9865   1.644   5.483   3.184  0.1251  0.6041 -0.2764
 3307TIP3    H1 9866   1.591   5.527   3.250  1.4735 -0.6350  1.7491
 3307TIP3    H2 9867   1.734   5.507   3.205  0.7223 -1.2389 -0.4991
 3308TIP3   OH2 9868   2.317   2.253   3.123 -0.1130  0.7560  0.2785
 3308TIP3    H1 9869   2.277   2.166   3.133  0.1964  0.6327  0.4734
 3308TIP3    H2 9870   2.256   2.301   3.067  1.2408 -0.6248 -2.6267
 3309TIP3   OH2 9871   1.724   5.692   0.649 -0.3997  0.4438  0.2412
 3309TIP3    H1 9872   1.635   5.728   0.648 -0.7377 -0.3549 -0.8100
 3309TIP3    H2 9873   1.719   5.615   0.592  0.7935 -0.0463  0.7617
 3310TIP3   OH2 9874   2.805   6.356   0.983 -0.2951 -0.4704 -0.4697
 3310TIP3    H1 9875   2.880   6.331   1.038  1.4561  0.0282 -2.4972
 3310TIP3    H2 9876   2.747   6.403   1.043  1.3035 -0.3379  1.0733
 3311TIP3   OH2 9877   5.277   0.441   1.100 -0.4611 -0.1351  0.9368
 3311TIP3    H1 9878   5.209   0.490   1.147 -0.0096  1.7227 -0.2615
 3311TIP3    H2 9879   5.247   0.439   1.009  0.9161  0.4364  0.4489
 3312TIP3   OH2 9880   6.670   6.353   0.048  0.0496  0.4001  0.4076
 3312TIP3    H1 9881   6.723   6.291   0.098 -0.7634  0.2430  1.0949
 3312TIP3    H2 9882   6.598   6.301   0.014  1.0401  0.3121 -1.7183
 3313TIP3   OH2 9883   2.835   5.151   5.490 -0.0357  0.0851 -0.3718
 3313TIP3    H1 9884   2.909   5.176   5.545 -0.8669  1.5772  0.1283
 3313TIP3    H2 9885   2.872   5.087   5.428  0.8348 -2.0157  2.1290
 3314TIP3   OH2 9886   6.927   6.905   1.106  0.1273 -0.4568 -0.3279
 3314TIP3    H1 9887   6.901   6.893   1.014 -0.0883  0.1349 -0.3456
 3314TIP3    H2 9888   7.019   6.877   1.108  0.4512  0.5015 -0.9501
 3315TIP3   OH2 9889   7.948   2.773   3.462  0.8048 -0.4249 -0.2008
 3315TIP3    H1 9890   7.921   2.758   3.552  0.3377 -1.6511 -0.5376
 3315TIP3    H2 9891   7.894   2.846   3.432 -2.1523 -2.6987 -0.8141
 3316TIP3   OH2 9892   7.407   4.649   0.767 -0.5562  0.3346 -0.0478
 3316TIP3    H1 9893   7.327   4.650   0.715  0.1543  0.8460 -1.1801
 3316TIP3    H2 9894   7.380   4.678   0.854 -1.8829 -1.1868  0.0672
 3317TIP3   OH2 9895   1.600   0.099   3.246  0.1131 -0.0189  0.6067
 3317TIP3    H1 9896   1.651   0.054   3.179  0.1688 -0.7603  1.1324
 3317TIP3    H2 9897   1.570   0.179   3.204 -1.1702 -1.1859 -0.8355
 3318TIP3   OH2 9898   7.120   1.140   3.759  0.2373  0.3472 -0.3147
 3318TIP3    H1 9899   7.039   1.089   3.761  0.7957 -0.6851  3.5634
 3318TIP3    H2 9900   7.094   1.226   3.726 -2.7680  0.4149  1.8637
 3319TIP3   OH2 9901   6.004   3.876   3.292 -0.3783  0.2908  0.6809
 3319TIP3    H1 9902   6.073   3.814   3.313 -0.4338  0.9732  3.2321
 3319TIP3    H2 9903   5.951   3.832   3.225  0.0385 -2.0358  1.7933
 3320TIP3   OH2 9904   5.058   0.346   0.121  0.1320  0.2820  0.0693
 3320TIP3    H1 9905   5.154   0.337   0.123  0.0345 -1.0152 -0.2821
 3320TIP3    H2 9906   5.034   0.365   0.212  0.7846  1.6732 -0.0043
 3321TIP3   OH2 9907   5.527   3.272   0.664 -0.4190  0.0937 -0.1033
 3321TIP3    H1 9908   5.584   3.203   0.630 -1.5926 -0.6048 -0.6848
 3321TIP3    H2 9909   5.474   3.229   0.731  1.3886  1.2903  2.2827
 3322TIP3   OH2 9910   3.864   3.015   3.455  0.3431  0.3242 -0.1858
 3322TIP3    H1 9911   3.823   2.940   3.412  0.0158 -0.4914  1.4687
 3322TIP3    H2 9912   3.794   3.081   3.460  0.6919  0.8722 -1.8373
 3323TIP3   OH2 9913   3.223   5.052   5.276 -0.1218 -0.0883  0.0515
 3323TIP3    H1 9914   3.267   5.134   5.302  0.0156  0.1311 -0.8266
 3323TIP3    H2 9915   3.137   5.080   5.246 -0.5873 -0.4336  1.0253
 3324TIP3   OH2 9916   6.398   7.201   2.814  0.5621 -0.1632  0.2659
 3324TIP3    H1 9917   6.467   7.260   2.785  1.0036 -1.5403 -1.7181
 3324TIP3    H2 9918   6.321   7.228   2.765  0.1456  0.2234  1.1162
 3325TIP3   OH2 9919   6.232   5.773   6.405 -0.0627 -0.7242  0.2268
 3325TIP3    H1 9920   6.300   5.721   6.361  0.3170 -0.1929  0.1793
 3325TIP3    H2 9921   6.157   5.714   6.411  0.6643 -1.5903  1.0177
 3326TIP3   OH2 9922   1.232   5.807   2.184  0.1091 -1.3100 -0.0280
 3326TIP3    H1 9923   1.202   5.729   2.229 -0.6643 -0.4260  1.0542
 3326TIP3    H2 9924   1.151   5.855   2.163  0.4501 -1.6102 -2.2358
 3327TIP3   OH2 9925   6.397   1.553   5.087 -0.0832  0.2968  0.0278
 3327TIP3    H1 9926   6.489   1.550   5.059 -0.0491 -0.3021  0.2019
 3327TIP3    H2 9927   6.357   1.477   5.046  0.0595 -0.8488  1.8939
 3328TIP3   OH2 9928   3.522   6.268   1.703 -0.0894  0.7745 -0.0218
 3328TIP3    H1 9929   3.593   6.316   1.659  1.9507 -1.9078  0.0329
 3328TIP3    H2 9930   3.512   6.312   1.787  0.2263  2.3135 -0.7542
 3329TIP3   OH2 9931   1.197   1.147   3.500 -0.0131 -0.0129 -0.3297
 3329TIP3    H1 9932   1.219   1.070   3.447 -0.0492  0.6086 -1.2700
 3329TIP3    H2 9933   1.280   1.195   3.507  0.3490 -0.8074  1.4336
 3330TIP3   OH2 9934   8.131   5.257   4.884 -0.3994 -0.0977 -0.4871
 3330TIP3    H1 9935   8.158   5.324   4.822  4.0505 -1.3308 -0.2315
 3330TIP3    H2 9936   8.076   5.198   4.833  1.6492 -0.0949 -2.8650
 3331TIP3   OH2 9937   0.636   0.058   4.498  0.6240 -0.0332  0.6452
 3331TIP3    H1 9938   0.554   0.103   4.519  1.3343  0.0807  3.6664
 3331TIP3    H2 9939   0.704   0.123   4.515  1.4356 -0.4491 -0.8053
 3332TIP3   OH2 9940   4.778   2.321   1.966  0.0054 -1.0820 -0.4665
 3332TIP3    H1 9941   4.747   2.355   1.882 -1.0065 -0.9819 -0.0647
 3332TIP3    H2 9942   4.725   2.243   1.982  1.1364 -1.9023 -0.5594
 3333TIP3   OH2 9943   2.799   3.897   1.852  0.0968  0.1672  0.1364
 3333TIP3    H1 9944   2.824   3.977   1.806 -0.1430  0.6139  0.7749
 3333TIP3    H2 9945   2.863   3.888   1.922 -1.3990  1.2540  1.7090
 3334TIP3   OH2 9946   6.526   1.263   2.097 -0.3537  0.6184 -0.1668
 3334TIP3    H1 9947   6.513   1.214   2.178  0.0885  1.5743  0.5017
 3334TIP3    H2 9948   6.472   1.341   2.107  1.1823  1.7059  0.0923
 3335TIP3   OH2 9949   3.182   2.929   3.041 -0.1413 -0.2659  0.3932
 3335TIP3    H1 9950   3.167   2.837   3.062  2.6750 -1.1618 -1.0540
 3335TIP3    H2 9951   3.121   2.947   2.969 -0.8978 -0.8836  0.8568
 3336TIP3   OH2 9952   6.037   2.140   1.207  0.6103 -0.1070 -0.0097
 3336TIP3    H1 9953   6.091   2.215   1.184  0.2283  0.0575 -0.3835
 3336TIP3    H2 9954   5.947   2.173   1.203  0.3719 -0.8306 -1.1778
 3337TIP3   OH2 9955   5.033   0.220   6.713  0.5132 -0.6334  0.1324
 3337TIP3    H1 9956   4.946   0.181   6.703  0.1774  0.3026 -0.7136
 3337TIP3    H2 9957   5.016   0.309   6.741  1.0801  0.2299 -2.0414
 3338TIP3   OH2 9958   5.544   7.428   5.766  0.4270  0.2786  0.0458
 3338TIP3    H1 9959   5.496   7.368   5.708  0.6826  0.0532  0.0656
 3338TIP3    H2 9960   5.476   7.481   5.808  0.0683 -1.1291  1.3041
 3339TIP3   OH2 9961   4.712   0.718   4.690 -0.1625  0.6782 -0.2857
 3339TIP3    H1 9962   4.692   0.625   4.681 -0.7387  0.5435  1.8329
 3339TIP3    H2 9963   4.807   0.722   4.690 -0.1046 -0.1394  1.2558
 3340TIP3   OH2 9964   0.413   3.685   5.241 -0.2055 -0.5505  0.2622
 3340TIP3    H1 9965   0.351   3.648   5.178 -0.9656  0.7942  0.1765
 3340TIP3    H2 9966   0.365   3.689   5.323  0.2588 -0.8402  0.5527
 3341TIP3   OH2 9967   5.616   2.556   4.165 -0.0947 -0.1832  1.0303
 3341TIP3    H1 9968   5.695   2.583   4.214  0.4848  0.2222 -0.0956
 3341TIP3    H2 9969   5.609   2.621   4.095 -0.8362 -0.8387  0.4926
 3342TIP3   OH2 9970   5.589   2.317   2.244  0.1609 -0.5994 -0.5417
 3342TIP3    H1 9971   5.497   2.298   2.261 -0.3634  2.4522  0.7798
 3342TIP3    H2 9972   5.599   2.307   2.150 -0.9907 -2.7934 -0.4892
 3343TIP3   OH2 9973   5.663   4.332   3.409 -0.7045 -0.1390  0.5117
 3343TIP3    H1 9974   5.646   4.297   3.497 -1.8696 -0.2415  0.2608
 3343TIP3    H2 9975   5.579   4.325   3.364 -0.5180  1.3642 -0.1221
 3344TIP3   OH2 9976   5.640   7.652   0.973 -0.4074 -0.3793 -0.5730
 3344TIP3    H1 9977   5.642   7.661   1.068 -0.7270 -2.2536 -0.3514
 3344TIP3    H2 9978   5.654   7.741   0.940 -0.2369  0.2933  1.2115
 3345TIP3   OH2 9979   3.367   3.975   6.441  0.0069  0.4772  0.2698
 3345TIP3    H1 9980   3.314   4.045   6.402  1.9380  1.9624  0.1183
 3345TIP3    H2 9981   3.415   4.018   6.512 -1.4513 -1.5865  2.6470
 3346TIP3   OH2 9982   5.781   0.364   6.088 -0.4102  0.0264  0.4078
 3346TIP3    H1 9983   5.789   0.420   6.164 -2.3749  3.3728 -1.6129
 3346TIP3    H2 9984   5.854   0.391   6.031  0.2849 -1.5407  0.5041
 3347TIP3   OH2 9985   5.444   3.990   3.020 -0.5365 -0.3046  0.1063
 3347TIP3    H1 9986   5.391   3.939   2.959  2.6252 -2.8352 -0.8145
 3347TIP3    H2 9987   5.410   3.968   3.107 -1.9626 -0.5329 -0.4807
 3348TIP3   OH2 9988   6.038   7.083   1.411 -0.0127 -0.1486 -0.0826
 3348TIP3    H1 9989   6.122   7.055   1.447  0.0610 -1.4071 -1.1692
 3348TIP3    H2 9990   6.057   7.106   1.321 -1.2644 -3.2056 -1.2603
 3349TIP3   OH2 9991   4.024   4.645   3.150 -0.1788  0.3499 -0.3173
 3349TIP3    H1 9992   3.996   4.557   3.125  1.6050 -0.3451 -0.0396
 3349TIP3    H2 9993   3.942   4.693   3.166 -1.2197 -0.8694 -1.6872
 3350TIP3   OH2 9994   3.857   6.050   5.704 -0.4455 -0.5061  0.2064
 3350TIP3    H1 9995   3.800   6.028   5.630 -0.5545 -0.8153  0.3755
 3350TIP3    H2 9996   3.906   6.127   5.676  0.4524 -1.3749 -0.6829
 3351TIP3   OH2 9997   4.814   4.778   3.267 -0.0104 -0.3091  0.4640
 3351TIP3    H1 9998   4.755   4.819   3.204 -0.3077 -2.6363 -0.8754
 3351TIP3    H2 9999   4.898   4.773   3.221 -0.2171 -1.9839  0.2127
 3352TIP3   OH210000   4.334   4.040   2.518 -0.2648 -0.6453  0.1281
 3352TIP3    H110001   4.381   3.998   2.446 -0.2437  1.6766 -1.3459
 3352TIP3    H210002   4.244   4.008   2.509 -0.1310 -0.8661 -0.5611
 3353TIP3   OH210003   7.785   6.221   4.583  0.0719  0.0417  0.5166
 3353TIP3    H110004   7.784   6.167   4.504 -0.2204 -0.3340  0.7717
 3353TIP3    H210005   7.877   6.244   4.596  0.1722 -0.2398  0.3010
 3354TIP3   OH210006   4.318   6.751   1.471  0.5384 -0.0319  0.1345
 3354TIP3    H110007   4.376   6.810   1.520  1.1173 -0.6846  0.2553
 3354TIP3    H210008   4.375   6.712   1.404  0.3305 -0.9377  0.4726
 3355TIP3   OH210009   5.381   5.552   3.004  0.3694 -0.2665 -0.7598
 3355TIP3    H110010   5.314   5.489   2.977 -1.0582  0.3167  1.1686
 3355TIP3    H210011   5.435   5.503   3.067  0.4534 -0.1274 -0.7242
 3356TIP3   OH210012   3.074   1.690   4.089  0.0088  0.0364 -0.0053
 3356TIP3    H110013   3.133   1.669   4.162 -0.1970 -0.0224  0.1437
 3356TIP3    H210014   3.133   1.722   4.020  0.5043 -2.2340 -0.7191
 3357TIP3   OH210015   3.830   4.854   3.046 -0.5168  0.3865 -0.0109
 3357TIP3    H110016   3.843   4.823   2.956 -3.7024 -3.0499  0.4548
 3357TIP3    H210017   3.802   4.945   3.036  0.8339  0.6519 -2.2935
 3358TIP3   OH210018   4.399   4.357   2.760 -0.0372 -0.5674  0.1265
 3358TIP3    H110019   4.439   4.412   2.692 -1.5847  0.2047 -0.1938
 3358TIP3    H210020   4.417   4.267   2.731 -1.5728 -0.2892 -1.9302
 3359TIP3   OH210021   4.380   2.908   4.331  0.1064 -0.6279 -0.2340
 3359TIP3    H110022   4.414   2.922   4.419 -0.9635 -2.0091  0.4430
 3359TIP3    H210023   4.425   2.972   4.277 -1.0139  1.9745  1.7101
 3360TIP3   OH210024   5.237   5.322   3.061  0.2720 -0.1187  0.9201
 3360TIP3    H110025   5.205   5.313   3.151  0.4813 -0.2325  0.9839
 3360TIP3    H210026   5.315   5.267   3.058  1.0607  0.9648  1.0575
 3361TIP3   OH210027   7.632   6.211   6.616 -0.3975  0.5001 -0.1840
 3361TIP3    H110028   7.708   6.158   6.593 -0.9517 -1.6140  2.3628
 3361TIP3    H210029   7.561   6.174   6.563 -0.1299  1.0198 -0.9284
 3362TIP3   OH210030   1.251   1.227   0.675  0.3616 -0.0422  0.2020
 3362TIP3    H110031   1.316   1.290   0.643  0.8335 -1.8941 -2.8938
 3362TIP3    H210032   1.187   1.219   0.603 -1.3790 -0.8451  1.7540
 3363TIP3   OH210033   0.923   0.630   6.515 -0.2547 -0.3272 -0.1870
 3363TIP3    H110034   0.936   0.704   6.456  0.4105 -1.6354 -1.7632
 3363TIP3    H210035   1.000   0.629   6.571 -1.1486  1.2568  1.1566
 3364TIP3   OH210036   2.848   6.875   2.255 -0.3537 -0.6371  0.2605
 3364TIP3    H110037   2.817   6.883   2.165  0.6411  0.7490  0.0051
 3364TIP3    H210038   2.847   6.781   2.272 -0.9832 -0.8933 -1.0362
 3365TIP3   OH210039   3.186   4.503   2.594  0.6087  0.2388 -0.6973
 3365TIP3    H110040   3.122   4.565   2.558  0.1745 -0.1701 -0.6367
 3365TIP3    H210041   3.133   4.431   2.628  0.9752  0.7681  1.0765
 3366TIP3   OH210042   4.953   2.824   5.397  0.0991  0.5895 -0.1158
 3366TIP3    H110043   4.910   2.903   5.364  0.8884  0.9688 -0.2750
 3366TIP3    H210044   4.885   2.778   5.446 -0.3352  1.4487  0.1131
 3367TIP3   OH210045   5.530   0.447   1.029  0.0711 -0.1785 -0.1770
 3367TIP3    H110046   5.506   0.435   0.937 -0.6168  2.1547 -0.3724
 3367TIP3    H210047   5.447   0.437   1.077 -0.3619  2.2563 -0.2661
 3368TIP3   OH210048   6.331   4.097   3.549 -0.4791 -0.3996  0.0672
 3368TIP3    H110049   6.322   4.192   3.536  2.0562  0.2068  1.8801
 3368TIP3    H210050   6.347   4.062   3.461  3.6517  1.6930 -0.2712
 3369TIP3   OH210051   5.942   7.755   5.262 -0.1436 -0.1409 -0.1920
 3369TIP3    H110052   5.849   7.736   5.249 -0.5608  2.4114 -1.4826
 3369TIP3    H210053   5.974   7.778   5.175  1.9572 -1.6874  0.0755
 3370TIP3   OH210054   7.716   3.868   4.706  0.3164  0.1449  0.0224
 3370TIP3    H110055   7.782   3.814   4.751  0.0554 -0.0752  0.1438
 3370TIP3    H210056   7.715   3.950   4.755  1.5184  0.7061 -0.8243
 3371TIP3   OH210057   6.941   1.220   4.079 -0.0043 -0.0741 -0.2455
 3371TIP3    H110058   6.932   1.134   4.037 -0.0610 -0.8141  1.1999
 3371TIP3    H210059   6.853   1.241   4.109 -0.0562  0.6696 -0.9199
 3372TIP3   OH210060   4.616   4.421   3.860  0.8702  0.4646 -0.5246
 3372TIP3    H110061   4.569   4.435   3.943 -1.3253  0.3591 -1.6618
 3372TIP3    H210062   4.674   4.496   3.853 -0.1767  1.4056  0.3240
 3373TIP3   OH210063   3.043   3.805   0.471  0.1777  0.4355  0.2530
 3373TIP3    H110064   3.096   3.738   0.514 -0.3013  0.8253  1.5040
 3373TIP3    H210065   3.100   3.843   0.404  0.9158 -0.2690  0.4755
 3374TIP3   OH210066   5.129   4.876   2.273  0.5096 -0.0831 -0.3808
 3374TIP3    H110067   5.100   4.817   2.204  2.9779 -0.8909 -0.8208
 3374TIP3    H210068   5.208   4.918   2.238  0.3026  1.5270  0.9274
 3375TIP3   OH210069   7.795   3.806   6.036  0.8183  0.3432  0.0011
 3375TIP3    H110070   7.891   3.802   6.037  0.8102 -0.0079  1.2670
 3375TIP3    H210071   7.769   3.739   5.972  1.4219  1.1074 -1.0746
 3376TIP3   OH210072   0.408   4.548   5.246  0.5691  0.1082 -0.1238
 3376TIP3    H110073   0.455   4.580   5.322  2.2473 -0.1246 -1.0050
 3376TIP3    H210074   0.399   4.454   5.261  1.4814 -0.0511 -0.4659
 3377TIP3   OH210075   0.946   3.494   3.674 -0.1671 -0.6551  0.6510
 3377TIP3    H110076   0.940   3.413   3.724 -1.9373 -0.3987  0.9523
 3377TIP3    H210077   0.943   3.466   3.582  1.8509 -1.0490  0.6585
 3378TIP3   OH210078   3.366   0.064   5.153 -0.3310 -0.0378  0.2717
 3378TIP3    H110079   3.370   0.028   5.242  2.6486  1.6501  0.9403
 3378TIP3    H210080   3.332  -0.007   5.100 -1.6316 -1.3031  2.6492
 3379TIP3   OH210081   6.945   2.571   4.586 -0.3744 -0.4605  0.5595
 3379TIP3    H110082   6.856   2.579   4.553 -0.4581  0.4843  0.9893
 3379TIP3    H210083   6.935   2.548   4.679 -0.2922  2.8637  1.5199
 3380TIP3   OH210084   2.493   3.842   3.491  0.3230 -0.5667  0.0524
 3380TIP3    H110085   2.547   3.844   3.411  0.1812  0.7641 -0.0390
 3380TIP3    H210086   2.403   3.848   3.458  0.2196 -0.9367  0.2752
 3381TIP3   OH210087   7.408   6.278   0.464  0.7371  0.1307  0.5313
 3381TIP3    H110088   7.415   6.260   0.370  1.7833  1.6112  0.2911
 3381TIP3    H210089   7.324   6.323   0.474 -0.6315 -2.2527  0.7553
 3382TIP3   OH210090   2.431   6.168   6.344  0.1140  0.2734  0.3097
 3382TIP3    H110091   2.512   6.213   6.319 -1.1124  1.7065 -1.3545
 3382TIP3    H210092   2.379   6.234   6.389  0.0447 -0.7988  1.8915
 3383TIP3   OH210093   3.084   1.644  -0.030  0.0586 -0.1394 -0.0681
 3383TIP3    H110094   3.046   1.719   0.016 -0.9090 -0.5517 -0.1792
 3383TIP3    H210095   3.140   1.602   0.036  0.5518  0.6180  0.0163
 3384TIP3   OH210096   4.600   3.184   5.970  0.2942  0.4280  0.3207
 3384TIP3    H110097   4.534   3.133   6.018  1.1108 -0.9654  0.0363
 3384TIP3    H210098   4.681   3.170   6.019  0.6708  0.8797 -0.1695
 3385TIP3   OH210099   6.261   7.380   0.841  0.0041 -0.0689 -0.6764
 3385TIP3    H110100   6.221   7.336   0.766  0.5027 -0.5782 -0.6401
 3385TIP3    H210101   6.244   7.323   0.916  0.1986  0.0538 -0.5360
 3386TIP3   OH210102   4.882   3.854   5.732 -0.4664  0.7513 -0.6473
 3386TIP3    H110103   4.958   3.911   5.716 -0.4128  0.3478 -1.9832
 3386TIP3    H210104   4.807   3.910   5.713 -0.5448  1.2381  0.9581
 3387TIP3   OH210105   3.437   1.532   1.950 -0.1454 -0.0749  0.4661
 3387TIP3    H110106   3.487   1.536   1.869 -1.5683  2.6783 -0.3949
 3387TIP3    H210107   3.460   1.612   1.997 -2.1606  0.2799  0.9644
 3388TIP3   OH210108   4.713   1.781   5.789  0.0469  0.6888  0.0910
 3388TIP3    H110109   4.763   1.708   5.753 -0.3517  0.4587 -0.0044
 3388TIP3    H210110   4.689   1.752   5.877  1.0528  1.2653  0.5738
 3389TIP3   OH210111   6.047   1.268   2.439  0.4811  0.3373  0.4635
 3389TIP3    H110112   6.101   1.231   2.508  0.3071  2.8137  2.0651
 3389TIP3    H210113   6.019   1.353   2.474 -1.5733  0.6573 -1.7195
 3390TIP3   OH210114   4.802   2.028   0.695 -0.2343 -0.3165 -0.2785
 3390TIP3    H110115   4.770   1.987   0.775  0.7827  3.0111  2.0135
 3390TIP3    H210116   4.726   2.073   0.658 -0.1149  0.4191  0.3623
 3391TIP3   OH210117   2.841   6.294   1.353 -0.1454  0.3020 -0.2720
 3391TIP3    H110118   2.915   6.300   1.414  0.1812 -0.1730 -0.6176
 3391TIP3    H210119   2.783   6.229   1.393 -0.4511  0.7806  0.0723
 3392TIP3   OH210120   7.525   2.599   2.096  0.4728 -0.3583 -0.5170
 3392TIP3    H110121   7.512   2.685   2.058  0.7875  1.4721  3.0838
 3392TIP3    H210122   7.618   2.579   2.082  0.0075 -1.0970 -2.9987
 3393TIP3   OH210123   3.952   6.969   0.538  0.1160  0.8000  0.7706
 3393TIP3    H110124   3.936   6.930   0.625 -2.0314 -1.6891 -0.5870
 3393TIP3    H210125   4.038   6.936   0.514 -0.3356 -0.6440  0.9802
 3394TIP3   OH210126   6.733   3.871   5.251  0.1236 -0.2212 -0.0442
 3394TIP3    H110127   6.669   3.941   5.239  0.6215  0.1743 -0.4402
 3394TIP3    H210128   6.817   3.916   5.264  1.0528 -0.6407 -3.4459
 3395TIP3   OH210129   5.761   7.178   4.059 -0.3124 -0.0171 -1.0214
 3395TIP3    H110130   5.798   7.266   4.067  1.0127 -0.7455  2.7395
 3395TIP3    H210131   5.834   7.124   4.027 -0.2732 -0.2088 -0.6164
 3396TIP3   OH210132   7.211   6.017   1.566 -0.5453  0.1601  0.2741
 3396TIP3    H110133   7.246   6.085   1.509  0.4439  0.8289  1.6238
 3396TIP3    H210134   7.131   6.056   1.603 -0.0181  0.5998  0.9906
 3397TIP3   OH210135   6.000   5.690   2.625 -0.1483 -0.0042  0.5100
 3397TIP3    H110136   6.011   5.672   2.719  1.3486 -0.2127  0.3239
 3397TIP3    H210137   5.911   5.725   2.618 -0.3160 -0.0430  1.9971
 3398TIP3   OH210138   2.547   4.623   1.135  0.4514  0.1848  0.2170
 3398TIP3    H110139   2.554   4.558   1.065  2.4265 -0.4851  0.9774
 3398TIP3    H210140   2.496   4.695   1.096  0.6022 -0.6209 -1.5458
 3399TIP3   OH210141   6.792   3.601   1.371 -0.7243  0.2123  0.1559
 3399TIP3    H110142   6.729   3.647   1.426 -0.4454 -0.0917  0.7398
 3399TIP3    H210143   6.800   3.655   1.293 -0.0372  1.4076  1.0319
 3400TIP3   OH210144   0.913   2.299   5.046 -0.0014  0.9708 -0.2598
 3400TIP3    H110145   0.937   2.378   5.093  3.0129  0.0598 -0.0339
 3400TIP3    H210146   0.986   2.284   4.986 -1.0593 -0.9833 -1.1624
 3401TIP3   OH210147   0.439   5.268   0.390  0.3022  0.8881  0.4861
 3401TIP3    H110148   0.499   5.249   0.319 -1.7345  0.2596 -1.1722
 3401TIP3    H210149   0.481   5.340   0.438  1.5342  1.7002 -1.6528
 3402TIP3   OH210150   0.539   1.435   2.846  0.2182 -0.2440  0.6211
 3402TIP3    H110151   0.516   1.506   2.907  2.1236  0.0784  1.0246
 3402TIP3    H210152   0.630   1.415   2.867  0.4738 -1.1183 -1.1825
 3403TIP3   OH210153   2.987   6.006   0.015  0.5241 -0.1058 -0.1190
 3403TIP3    H110154   2.932   6.041   0.085  0.1968 -1.7974  0.4970
 3403TIP3    H210155   3.009   6.083  -0.038 -1.0788  0.8683  0.5419
 3404TIP3   OH210156   3.098   6.755   4.707  0.6562  0.3366 -0.4845
 3404TIP3    H110157   3.134   6.684   4.759 -0.4117 -0.4772 -0.8347
 3404TIP3    H210158   3.101   6.723   4.617 -0.6084  0.3771 -0.5565
 3405TIP3   OH210159   0.293   3.358   0.236 -0.1820  0.6291 -0.4778
 3405TIP3    H110160   0.268   3.413   0.162  1.5074  1.4289 -0.4885
 3405TIP3    H210161   0.272   3.411   0.313  0.4634  0.8659 -0.4609
 3406TIP3   OH210162   6.464   5.383   1.101 -0.4631 -0.2892  0.3434
 3406TIP3    H110163   6.530   5.343   1.044 -0.9820 -1.4004  0.4876
 3406TIP3    H210164   6.480   5.477   1.095  0.7492 -0.5093 -0.0801
 3407TIP3   OH210165   3.834   4.375   4.201  0.3651  0.2798 -0.3036
 3407TIP3    H110166   3.860   4.359   4.292  0.4399  0.3862 -0.3067
 3407TIP3    H210167   3.817   4.288   4.166 -0.0455  0.2637 -0.0720
 3408TIP3   OH210168   7.081   6.899   2.549  0.3872 -0.4800  0.2014
 3408TIP3    H110169   7.009   6.937   2.599 -1.3161 -1.3499 -1.4822
 3408TIP3    H210170   7.156   6.955   2.570 -0.4453 -0.1920  2.8629
 3409TIP3   OH210171   1.170   4.829   5.273 -0.0720 -0.2393 -0.3506
 3409TIP3    H110172   1.163   4.852   5.366 -2.7360 -0.2669 -0.4808
 3409TIP3    H210173   1.257   4.791   5.265  0.6872  0.8212  1.8869
 3410TIP3   OH210174   5.727   2.232   3.522 -0.1095  0.0165  0.2281
 3410TIP3    H110175   5.729   2.328   3.526 -0.4669  0.0322  0.1334
 3410TIP3    H210176   5.807   2.204   3.566  1.0292  0.3979 -1.4880
 3411TIP3   OH210177   1.630   6.035   1.927  0.2700 -0.5789  0.4249
 3411TIP3    H110178   1.613   5.941   1.931  3.1071 -1.3203 -1.8058
 3411TIP3    H210179   1.610   6.060   1.837  1.4883  0.4778  0.4092
 3412TIP3   OH210180   2.610   1.934   1.713 -0.6602  0.6536  0.2578
 3412TIP3    H110181   2.671   1.916   1.641 -1.8636  0.3729 -0.7289
 3412TIP3    H210182   2.665   1.937   1.791  0.5045 -0.3878 -0.4908
 3413TIP3   OH210183   6.385   5.732   2.797  0.0889  0.0300 -0.3892
 3413TIP3    H110184   6.329   5.763   2.726  0.0323  2.4046  0.5868
 3413TIP3    H210185   6.454   5.682   2.754 -0.9776 -0.1817 -1.9149
 3414TIP3   OH210186   5.759   1.850   5.249  0.2287  0.1746 -0.1161
 3414TIP3    H110187   5.745   1.837   5.155  1.3643  0.7082 -0.3757
 3414TIP3    H210188   5.795   1.766   5.279 -0.5965 -0.1640 -0.0471
 3415TIP3   OH210189   7.153   3.651   3.355  0.5513  0.1348  0.0252
 3415TIP3    H110190   7.095   3.629   3.282  0.8744 -1.1034  0.1220
 3415TIP3    H210191   7.101   3.636   3.433 -0.2969  2.8951  0.0923
 3416TIP3   OH210192   3.896   4.145   3.051 -0.1828  0.1458 -0.6087
 3416TIP3    H110193   3.822   4.156   2.991 -0.8200 -2.0857 -0.3183
 3416TIP3    H210194   3.855   4.126   3.135  0.7226  0.3433 -0.1160
 3417TIP3   OH210195   4.988   3.815   1.322 -0.0955  0.2477 -0.1405
 3417TIP3    H110196   4.968   3.725   1.296 -1.4544 -0.0919  1.8373
 3417TIP3    H210197   5.058   3.842   1.262 -1.6965 -1.0353 -2.7974
 3418TIP3   OH210198   7.052   6.324   1.207  0.3439 -0.6411  0.0734
 3418TIP3    H110199   6.994   6.249   1.193 -1.0200  0.7670 -2.7305
 3418TIP3    H210200   7.129   6.305   1.154  0.4653 -0.5306  0.2092
 3419TIP3   OH210201   6.558   4.434   4.809 -0.1585 -0.3501 -0.1178
 3419TIP3    H110202   6.639   4.448   4.760  0.6499 -1.5403  0.8199
 3419TIP3    H210203   6.495   4.403   4.744  0.8010 -1.5740 -0.4925
 3420TIP3   OH210204   1.591   6.189   2.747  0.2787  0.1789 -0.2800
 3420TIP3    H110205   1.528   6.214   2.814 -0.0611  0.2579 -0.6292
 3420TIP3    H210206   1.629   6.107   2.780 -1.6232 -1.1136 -1.0985
 3421TIP3   OH210207   3.826   0.753   0.744 -0.0015 -0.4488 -0.0437
 3421TIP3    H110208   3.816   0.766   0.838 -2.3205  1.7356 -0.4841
 3421TIP3    H210209   3.913   0.787   0.724  1.1006 -2.2110  1.4367
 3422TIP3   OH210210   4.712   5.925   1.242  0.5052 -0.1091  0.6242
 3422TIP3    H110211   4.692   5.859   1.175 -0.0251 -0.0361  0.7090
 3422TIP3    H210212   4.737   5.874   1.319  1.1400 -0.1931  0.3728
 3423TIP3   OH210213   3.779   5.049   5.090 -0.3416 -0.1252  0.2013
 3423TIP3    H110214   3.750   4.967   5.050 -0.0343 -1.2033  2.0542
 3423TIP3    H210215   3.855   5.024   5.143 -0.3593  1.3182  0.9657
 3424TIP3   OH210216   0.717   7.508   6.690 -0.5553  0.0112  0.9042
 3424TIP3    H110217   0.780   7.438   6.671 -1.0331 -0.9894  2.7857
 3424TIP3    H210218   0.638   7.462   6.719 -1.7623  1.2886 -0.1915
 3425TIP3   OH210219   7.129   7.833   0.269 -0.7526 -0.3523 -0.1267
 3425TIP3    H110220   7.221   7.835   0.297 -0.7096 -0.8455 -0.2192
 3425TIP3    H210221   7.087   7.771   0.329 -0.4972 -2.0399 -1.6059
 3426TIP3   OH210222   4.597   3.784   5.972  0.3102 -0.1142  0.0335
 3426TIP3    H110223   4.586   3.842   5.896 -3.9606  0.0059  0.5033
 3426TIP3    H210224   4.593   3.695   5.935  0.1921 -0.0582 -0.0894
 3427TIP3   OH210225   0.921   2.345   0.276  0.0655 -0.0647  0.8718
 3427TIP3    H110226   0.958   2.427   0.306 -0.3413 -0.1872  1.7374
 3427TIP3    H210227   0.850   2.371   0.216  0.4589  0.1910  0.5112
 3428TIP3   OH210228   6.077   5.181   3.303  0.2237 -0.7143 -0.1210
 3428TIP3    H110229   6.086   5.199   3.397  0.1266 -0.8083 -0.0937
 3428TIP3    H210230   6.147   5.119   3.284  1.7529  1.0410 -0.5941
 3429TIP3   OH210231   0.066   6.571   0.463 -0.1236 -0.0181  0.6949
 3429TIP3    H110232  -0.000   6.639   0.475 -0.0581  0.1587  0.0691
 3429TIP3    H210233   0.138   6.616   0.419  0.7492 -0.0155  2.0626
 3430TIP3   OH210234   0.333   0.911   4.373  0.4084  0.2362 -0.3879
 3430TIP3    H110235   0.417   0.868   4.390  0.8048  0.6558 -1.2173
 3430TIP3    H210236   0.283   0.848   4.322  0.8285  0.5819 -1.2425
 3431TIP3   OH210237   1.770   4.609   0.414 -0.3787 -0.2499  0.6940
 3431TIP3    H110238   1.677   4.588   0.413 -0.3622 -0.3506 -0.1814
 3431TIP3    H210239   1.802   4.580   0.328  0.0622  1.4604  0.2386
 3432TIP3   OH210240   6.514   1.748   5.421  0.3765  0.0448 -0.3786
 3432TIP3    H110241   6.446   1.683   5.437 -1.5481  1.8144 -0.8881
 3432TIP3    H210242   6.565   1.711   5.349 -0.3167 -1.1382 -0.2970
 3433TIP3   OH210243   7.727   4.752   4.111 -0.0547  0.1370 -0.2761
 3433TIP3    H110244   7.732   4.665   4.150  0.5525  0.4295  0.2985
 3433TIP3    H210245   7.633   4.766   4.095 -0.2459 -0.2440  0.4851
 3434TIP3   OH210246   3.331   1.211   1.881 -0.1012  0.0428  0.1732
 3434TIP3    H110247   3.387   1.135   1.896  1.1252  0.9046  0.0967
 3434TIP3    H210248   3.242   1.179   1.898  0.2869 -1.6310 -0.6836
 3435TIP3   OH210249   1.076   2.505   1.110 -0.0467  0.3712 -0.0525
 3435TIP3    H110250   1.047   2.474   1.195 -1.3349  0.5085 -0.4126
 3435TIP3    H210251   1.135   2.438   1.078  0.2744  0.2175  0.8545
 3436TIP3   OH210252   1.206   2.443   3.695 -0.0368  0.8312 -0.7081
 3436TIP3    H110253   1.271   2.379   3.666 -0.0927  1.2863 -1.9234
 3436TIP3    H210254   1.123   2.394   3.696  0.2036  0.4156  0.2247
 3437TIP3   OH210255   4.678   5.808   4.232 -0.2627  0.1975  0.3180
 3437TIP3    H110256   4.616   5.800   4.159 -2.1253  2.1574  1.5644
 3437TIP3    H210257   4.712   5.720   4.244 -1.5904 -0.6285 -1.4767
 3438TIP3   OH210258   3.615   6.712   1.882  0.0376 -0.5458 -0.6214
 3438TIP3    H110259   3.596   6.763   1.804 -0.5994 -2.9734 -2.1369
 3438TIP3    H210260   3.691   6.756   1.921  0.1757  0.9085 -2.3920
 3439TIP3   OH210261   2.602   7.716   6.346 -0.2028  0.0332  0.3496
 3439TIP3    H110262   2.561   7.666   6.417 -1.5359  0.0441 -0.3825
 3439TIP3    H210263   2.594   7.660   6.269  1.5558 -0.1301  0.2398
 3440TIP3   OH210264   6.783   7.233   5.962  0.2262 -0.1092  0.1522
 3440TIP3    H110265   6.753   7.314   5.920 -0.4875 -0.3807  0.1195
 3440TIP3    H210266   6.871   7.218   5.927  0.3492  0.6321  0.1342
 3441TIP3   OH210267   5.211   4.039   5.245  0.2605  0.1335 -0.4444
 3441TIP3    H110268   5.239   3.953   5.215  0.4314  0.5393 -1.5104
 3441TIP3    H210269   5.267   4.100   5.197  0.4734  0.8276  0.6664
 3442TIP3   OH210270   6.196   1.025   5.063  0.6514 -0.0576  0.0065
 3442TIP3    H110271   6.219   1.017   4.970  0.7464  0.6128 -0.0304
 3442TIP3    H210272   6.249   0.959   5.106  1.5898  0.5061 -0.2604
 3443TIP3   OH210273   7.070   0.508   5.731  0.7232 -0.0002  0.4101
 3443TIP3    H110274   7.039   0.417   5.724  0.0342  0.1282  1.5803
 3443TIP3    H210275   7.130   0.518   5.657 -0.0373 -1.0665 -0.3893
 3444TIP3   OH210276   7.720   5.123   5.412 -0.2269 -0.2779 -0.6466
 3444TIP3    H110277   7.707   5.218   5.414 -0.2483 -0.2694 -1.0530
 3444TIP3    H210278   7.806   5.111   5.373 -0.1715 -0.4203 -0.4803
 3445TIP3   OH210279   4.756   3.918   2.012 -0.1428  0.3253 -0.2504
 3445TIP3    H110280   4.842   3.905   1.973  0.0151 -0.3138  0.2918
 3445TIP3    H210281   4.765   3.997   2.065 -0.5611  1.6241 -2.0399
 3446TIP3   OH210282   1.944   6.168   2.280  0.4935  0.5208  0.2776
 3446TIP3    H110283   1.927   6.260   2.258 -0.5574 -0.1554 -2.1136
 3446TIP3    H210284   2.000   6.137   2.210 -1.3976 -1.3100 -0.5302
 3447TIP3   OH210285   8.110   2.982   0.408  0.7157  0.1540  0.1358
 3447TIP3    H110286   8.048   3.036   0.457  0.1314 -0.7489  0.4324
 3447TIP3    H210287   8.186   2.974   0.465  0.3281 -0.3002  0.5947
 3448TIP3   OH210288   6.890   5.785   6.665 -0.2813  0.5495 -0.4032
 3448TIP3    H110289   6.934   5.714   6.710 -2.3527  0.1070  1.0845
 3448TIP3    H210290   6.812   5.745   6.626 -1.0030  1.7978 -0.3274
 3449TIP3   OH210291   0.184   3.799   6.613 -0.6148 -0.3294 -0.1443
 3449TIP3    H110292   0.137   3.761   6.539 -1.4771  0.6630 -0.1202
 3449TIP3    H210293   0.253   3.852   6.573 -2.4307  2.0046 -0.3729
 3450TIP3   OH210294   1.451   5.936   1.580  0.3782 -0.2121 -0.3012
 3450TIP3    H110295   1.371   5.910   1.625 -1.3607  0.5159 -2.7859
 3450TIP3    H210296   1.480   5.856   1.536  0.2070 -0.1204 -0.5775
 3451TIP3   OH210297   0.146   2.378   5.575  0.0141  0.1792 -0.5291
 3451TIP3    H110298   0.130   2.362   5.668  0.8581 -0.0730 -0.4224
 3451TIP3    H210299   0.081   2.323   5.530  0.4760 -0.7425 -0.1042
 3452TIP3   OH210300   7.120   5.019   4.081 -0.0693 -0.0984 -0.0149
 3452TIP3    H110301   7.132   4.928   4.055  1.0563  0.0718 -0.1401
 3452TIP3    H210302   7.072   5.015   4.164  0.5199 -0.8233  0.2886
 3453TIP3   OH210303   3.877   2.383   1.082  0.0023  0.8149  0.1349
 3453TIP3    H110304   3.783   2.374   1.067 -0.2380  3.1260 -0.1630
 3453TIP3    H210305   3.916   2.304   1.044 -1.6989  0.4811 -1.0095
 3454TIP3   OH210306   6.501   3.711   5.986 -0.6432 -0.9988 -0.2684
 3454TIP3    H110307   6.512   3.629   6.035 -1.1835 -0.6100  0.5203
 3454TIP3    H210308   6.414   3.705   5.948 -0.4276 -1.0701 -0.7558
 3455TIP3   OH210309   5.930   3.490   2.085  0.2467  0.5766 -0.5819
 3455TIP3    H110310   6.004   3.437   2.114  0.2591 -0.1341 -1.8562
 3455TIP3    H210311   5.878   3.504   2.164  1.0142 -0.0950  0.0520
 3456TIP3   OH210312   0.877   0.167   2.205 -0.7724  0.4921  0.1948
 3456TIP3    H110313   0.786   0.182   2.232 -0.5644  0.4377  0.9339
 3456TIP3    H210314   0.929   0.223   2.262 -0.4795  2.3309 -1.7800
 3457TIP3   OH210315   4.064   0.693   5.109  0.1465 -0.5836 -0.2061
 3457TIP3    H110316   4.002   0.638   5.157 -1.2643  3.1029  2.6306
 3457TIP3    H210317   4.023   0.705   5.023 -0.4765 -2.2461 -0.1813
 3458TIP3   OH210318   2.099   7.541   5.190 -0.4679 -0.5477 -0.8765
 3458TIP3    H110319   2.159   7.467   5.184 -1.1770 -1.2840  0.6351
 3458TIP3    H210320   2.149   7.610   5.233 -0.4386 -0.8757 -0.3797
 3459TIP3   OH210321   7.454   7.750   5.103  0.5473 -0.1647  0.2092
 3459TIP3    H110322   7.480   7.693   5.031 -1.1636 -1.0542  0.2685
 3459TIP3    H210323   7.399   7.817   5.062  0.0673 -0.3210  0.5933
 3460TIP3   OH210324   1.805   4.836   0.090 -0.4635  0.6978  0.0258
 3460TIP3    H110325   1.715   4.805   0.087  0.6523 -2.9228 -0.5241
 3460TIP3    H210326   1.833   4.837  -0.002  0.5440  0.0994  0.3112
 3461TIP3   OH210327   2.150   3.445   6.175 -0.0124  0.0685  0.2745
 3461TIP3    H110328   2.170   3.519   6.117 -0.2460 -0.5362 -0.5940
 3461TIP3    H210329   2.070   3.407   6.139 -0.6766  0.2183  1.5318
 3462TIP3   OH210330   0.076   7.547   4.179 -0.0570 -0.8143 -0.2814
 3462TIP3    H110331  -0.009   7.588   4.165  0.2399  0.1088  0.5140
 3462TIP3    H210332   0.059   7.479   4.244  0.0839  0.4728  1.1566
 3463TIP3   OH210333   3.039   2.677   2.791  0.1368 -0.2692  0.7622
 3463TIP3    H110334   2.950   2.673   2.757 -0.2573 -1.1195  1.8575
 3463TIP3    H210335   3.085   2.607   2.745  0.4655  0.6106 -0.3252
 3464TIP3   OH210336   7.477   6.790   5.926  0.0972  0.0604  0.3890
 3464TIP3    H110337   7.405   6.729   5.907 -0.4619  0.8830 -0.2090
 3464TIP3    H210338   7.450   6.872   5.886  0.2654  1.0682  2.2122
 3465TIP3   OH210339   7.563   4.687   4.960  0.6569 -0.8679 -0.4608
 3465TIP3    H110340   7.632   4.663   5.023 -0.0180  0.5265  0.8931
 3465TIP3    H210341   7.575   4.781   4.948 -0.2012 -0.8515 -1.2388
 3466TIP3   OH210342   4.609   4.367   1.078  0.8292 -0.1775 -0.0630
 3466TIP3    H110343   4.666   4.404   1.010 -1.5767 -1.0113 -2.7307
 3466TIP3    H210344   4.622   4.273   1.071  0.4292 -0.2777  0.5452
 3467TIP3   OH210345   0.713   5.802   4.181 -0.0549  0.5389 -0.4163
 3467TIP3    H110346   0.637   5.854   4.205 -1.1021  0.5210 -3.3183
 3467TIP3    H210347   0.777   5.866   4.150 -1.1458  0.2840 -3.4829
 3468TIP3   OH210348   6.360   5.975   1.411 -0.3645 -0.2923 -0.5253
 3468TIP3    H110349   6.441   5.968   1.463  0.6906  1.3046 -1.8508
 3468TIP3    H210350   6.291   5.989   1.476  0.6182 -0.3248  0.5607
 3469TIP3   OH210351   2.150   5.361   5.371 -0.0267  0.0128 -0.0130
 3469TIP3    H110352   2.214   5.322   5.312 -0.0948 -0.8294  0.4612
 3469TIP3    H210353   2.185   5.347   5.459  0.1157  1.3243  0.1689
 3470TIP3   OH210354   3.275   3.256   4.851  0.1869 -0.4599  0.2030
 3470TIP3    H110355   3.294   3.303   4.933  1.4461 -1.5704  0.5770
 3470TIP3    H210356   3.358   3.256   4.804 -0.1286 -1.2302 -0.3639
 3471TIP3   OH210357   6.946   2.617   0.998 -0.0397 -0.2754 -0.1797
 3471TIP3    H110358   6.892   2.538   1.002  0.8018 -0.8179  1.4449
 3471TIP3    H210359   6.921   2.658   0.916 -1.0801 -1.8152 -0.6956
 3472TIP3   OH210360   1.199   3.791   1.467 -0.1622  0.4565 -0.5585
 3472TIP3    H110361   1.148   3.827   1.395 -0.5019 -0.7521 -0.9518
 3472TIP3    H210362   1.290   3.794   1.437 -0.2139  0.7381 -0.6852
 3473TIP3   OH210363   4.210   3.685   2.257 -0.1965 -0.7696  0.2628
 3473TIP3    H110364   4.210   3.679   2.353 -2.0961 -0.2051  0.3433
 3473TIP3    H210365   4.255   3.605   2.228  0.7071 -0.7785  1.6130
 3474TIP3   OH210366   6.051   5.542   3.184 -0.1130  0.2906  0.2417
 3474TIP3    H110367   6.123   5.479   3.172  0.3473  0.9202 -0.4327
 3474TIP3    H210368   6.062   5.573   3.274 -0.8891 -1.2300  0.8946
 3475TIP3   OH210369   4.375   1.244   1.181 -0.3815 -0.0427 -0.5919
 3475TIP3    H110370   4.402   1.335   1.198  1.8101 -0.7043 -0.2941
 3475TIP3    H210371   4.425   1.218   1.104  0.7979 -1.6922  0.6642
 3476TIP3   OH210372   0.882   7.399   6.393  0.6159 -0.5591  0.2735
 3476TIP3    H110373   0.942   7.337   6.351  0.0230  0.2436 -1.8816
 3476TIP3    H210374   0.800   7.351   6.401  0.7875 -0.7817  0.7498
 3477TIP3   OH210375   6.753   3.862   6.041 -0.9673  0.6829 -0.1773
 3477TIP3    H110376   6.666   3.900   6.028 -1.2059 -0.3321 -1.7607
 3477TIP3    H210377   6.812   3.937   6.041 -1.6076  1.2106 -1.3720
 3478TIP3   OH210378   1.986   3.660   4.080  0.0653  0.2308 -0.4124
 3478TIP3    H110379   1.890   3.652   4.087  0.1709 -1.1282 -0.2605
 3478TIP3    H210380   2.013   3.687   4.168 -0.2546  1.7102 -0.7409
 3479TIP3   OH210381   7.431   1.552   3.133  0.1783 -0.3166 -0.3254
 3479TIP3    H110382   7.344   1.582   3.159 -0.5030 -2.1178 -0.3961
 3479TIP3    H210383   7.490   1.595   3.195 -0.7910  0.6501 -0.0448
 3480TIP3   OH210384   5.025   3.311   3.515 -0.0415  0.3024  0.1573
 3480TIP3    H110385   5.064   3.383   3.565  1.3853 -0.7474  0.6372
 3480TIP3    H210386   5.057   3.323   3.426 -0.7441  0.8965 -0.0231
 3481TIP3   OH210387   7.579   7.235   0.504  0.1217  0.0346  0.4987
 3481TIP3    H110388   7.511   7.206   0.566 -1.2457  1.8763 -0.0531
 3481TIP3    H210389   7.577   7.330   0.510  1.0266  0.1939 -1.2902
 3482TIP3   OH210390   6.613   3.947   0.487 -0.1838 -0.1224 -0.2628
 3482TIP3    H110391   6.654   4.033   0.484  1.8256 -1.0247 -0.0087
 3482TIP3    H210392   6.668   3.896   0.546 -2.4349 -1.0718  1.1454
 3483TIP3   OH210393   3.337   0.499   0.515 -0.2300 -0.3727  0.1116
 3483TIP3    H110394   3.245   0.477   0.531 -1.0036  0.4711 -2.5142
 3483TIP3    H210395   3.342   0.593   0.530  0.4360 -0.5557  1.0819
 3484TIP3   OH210396   4.768   0.595   2.953  0.7331 -0.4124  0.2815
 3484TIP3    H110397   4.682   0.591   2.993  1.2876 -0.9666  1.4770
 3484TIP3    H210398   4.807   0.675   2.989  0.7556 -0.2173 -0.1746
 3485TIP3   OH210399   8.207   2.690   1.654  0.2854 -0.4730 -0.1984
 3485TIP3    H110400   8.286   2.724   1.613  1.1162  0.2091  1.8357
 3485TIP3    H210401   8.155   2.768   1.674 -0.7190 -0.8841 -1.0961
 3486TIP3   OH210402   6.784   4.423   1.041 -0.5590 -0.6979  0.2132
 3486TIP3    H110403   6.760   4.506   0.999  0.1436 -0.2588  0.6500
 3486TIP3    H210404   6.773   4.440   1.134  0.6128 -0.7447  0.3733
 3487TIP3   OH210405   0.628   4.111   3.702 -0.0909 -0.3392  0.4494
 3487TIP3    H110406   0.675   4.141   3.780  1.1447 -2.9998  0.8204
 3487TIP3    H210407   0.596   4.024   3.725  0.8426 -1.4771 -2.1637
 3488TIP3   OH210408   0.443   2.594   2.993  0.2389 -0.2632 -0.3996
 3488TIP3    H110409   0.380   2.586   3.065  1.2535  1.5414  0.7712
 3488TIP3    H210410   0.452   2.505   2.959 -2.1986 -0.7261 -0.0047
 3489TIP3   OH210411   8.143   3.586   3.884  0.3635  0.1454  0.3282
 3489TIP3    H110412   8.226   3.633   3.876  1.0341 -1.0985 -0.2004
 3489TIP3    H210413   8.120   3.563   3.794  1.2480 -2.5498  0.7257
 3490TIP3   OH210414   7.185   2.135   1.010  0.7944 -0.2772  0.1393
 3490TIP3    H110415   7.118   2.200   0.986 -0.7795 -0.4838  3.3460
 3490TIP3    H210416   7.135   2.057   1.032  2.2439 -0.9769  1.0629
 3491TIP3   OH210417   1.623   2.776   3.358 -0.1141  0.3503  0.1376
 3491TIP3    H110418   1.592   2.724   3.284 -2.9254 -1.0444  2.1162
 3491TIP3    H210419   1.619   2.866   3.327 -1.0430 -0.2053 -1.4689
 3492TIP3   OH210420   5.946   6.604   2.811 -0.1581  0.1076  0.1251
 3492TIP3    H110421   5.925   6.546   2.884 -0.1737  1.0469  0.8813
 3492TIP3    H210422   5.904   6.563   2.735 -0.3850 -0.7276  0.6947
 3493TIP3   OH210423   1.647   7.831   4.232  0.9591 -0.2964 -0.0297
 3493TIP3    H110424   1.694   7.790   4.304  1.2677  1.9631  1.1597
 3493TIP3    H210425   1.556   7.807   4.246  1.3876 -2.6331 -0.8929
 3494TIP3   OH210426   4.649   1.000   1.467 -0.2852 -0.4928 -0.1084
 3494TIP3    H110427   4.727   0.991   1.522  0.6452 -1.2584 -1.4874
 3494TIP3    H210428   4.683   1.031   1.383 -1.7992  1.7744  0.0324
 3495TIP3   OH210429   4.994   4.224   4.396 -0.0570 -0.3029  0.5135
 3495TIP3    H110430   4.969   4.132   4.383  0.2307 -0.2396 -0.5682
 3495TIP3    H210431   5.088   4.220   4.414 -0.3553 -0.3461  2.2481
 3496TIP3   OH210432   4.518   7.406   0.904  0.0572  0.1450 -0.3055
 3496TIP3    H110433   4.482   7.342   0.965 -0.8770 -0.9267 -1.8975
 3496TIP3    H210434   4.450   7.472   0.896 -0.4367 -0.4503 -1.2185
 3497TIP3   OH210435   3.366   4.017   1.141  0.1046 -0.3467 -0.1945
 3497TIP3    H110436   3.371   3.947   1.206 -0.3011  0.1758  0.4115
 3497TIP3    H210437   3.456   4.031   1.113  0.4344  0.1960  1.0938
 3498TIP3   OH210438   5.808   4.068   5.469 -0.7560  0.7107 -0.1173
 3498TIP3    H110439   5.735   4.130   5.472 -0.3851  1.1986 -0.7526
 3498TIP3    H210440   5.878   4.117   5.427 -0.3491 -0.0462 -0.3333
 3499TIP3   OH210441  -0.028   4.132   6.547 -0.4955 -0.3907 -0.1087
 3499TIP3    H110442   0.036   4.061   6.550 -0.4934 -0.4786 -1.5443
 3499TIP3    H210443   0.019   4.209   6.579 -0.6391 -1.0922  1.9377
 3500TIP3   OH210444   2.732   6.169   1.618  0.0732  0.2146  0.3763
 3500TIP3    H110445   2.808   6.115   1.598  0.5675  1.6653 -2.0581
 3500TIP3    H210446   2.657   6.112   1.602  0.5854  0.0470 -1.6941
 3501TIP3   OH210447   3.790   1.407   6.178 -0.1323  0.0532  0.1435
 3501TIP3    H110448   3.751   1.485   6.139 -1.0295  0.1162  1.1071
 3501TIP3    H210449   3.806   1.431   6.269 -1.4792 -1.2217  0.7645
 3502TIP3   OH210450   2.919   4.473   0.704 -0.2722 -0.0001  0.8722
 3502TIP3    H110451   2.863   4.549   0.695  1.2308  0.9141 -2.3652
 3502TIP3    H210452   2.932   4.463   0.799 -3.8045  1.1494  1.6149
 3503TIP3   OH210453   7.060   2.079   4.711 -0.1005  0.2216 -0.5440
 3503TIP3    H110454   7.073   2.168   4.678 -1.5139  1.2103  1.3517
 3503TIP3    H210455   7.130   2.067   4.775 -0.0845  0.0878 -0.5868
 3504TIP3   OH210456   6.671   1.510   1.570 -0.8071  0.3204  0.0896
 3504TIP3    H110457   6.686   1.550   1.655 -1.8988 -1.8934  1.4237
 3504TIP3    H210458   6.708   1.422   1.577 -0.1659  0.3532 -2.0383
 3505TIP3   OH210459   6.860   7.600   6.106 -0.3589 -0.1440 -0.0452
 3505TIP3    H110460   6.856   7.685   6.062  1.5027  1.0476  1.9090
 3505TIP3    H210461   6.829   7.617   6.195  0.3091 -1.4543  0.4724
 3506TIP3   OH210462   7.828   5.426   1.303  0.6700  0.4384  0.5528
 3506TIP3    H110463   7.909   5.466   1.272  1.8689 -0.2326  2.5826
 3506TIP3    H210464   7.805   5.475   1.382 -0.6819  0.3319  0.2556
 3507TIP3   OH210465   3.439   4.281   2.830 -0.0039 -0.0984 -0.2946
 3507TIP3    H110466   3.434   4.300   2.737 -0.2196 -1.0760 -0.4947
 3507TIP3    H210467   3.417   4.188   2.837  0.4275 -0.1418  0.6845
 3508TIP3   OH210468   3.475   5.699   2.468 -0.0714  0.2954  0.2430
 3508TIP3    H110469   3.467   5.693   2.373 -1.7663  0.2072  0.3753
 3508TIP3    H210470   3.491   5.792   2.484 -2.2181  0.7603 -0.0112
 3509TIP3   OH210471   1.141   0.474   3.674  0.4917 -0.4617 -0.5878
 3509TIP3    H110472   1.055   0.517   3.681 -0.3107 -1.9163 -1.0549
 3509TIP3    H210473   1.124   0.382   3.697  2.1927 -0.5230  0.6067
 3510TIP3   OH210474   1.946   0.444   1.687  0.6226 -0.5397  0.0506
 3510TIP3    H110475   1.925   0.536   1.669 -0.6170 -0.8569 -0.2346
 3510TIP3    H210476   2.026   0.428   1.637  0.1358  0.0475 -0.9616
 3511TIP3   OH210477   4.455   7.739   4.745  0.0866  0.5258  0.4126
 3511TIP3    H110478   4.371   7.695   4.734  0.1501  0.4414  0.2653
 3511TIP3    H210479   4.497   7.733   4.659  0.5402 -0.0517  0.6642
 3512TIP3   OH210480   3.466   6.688   4.670 -0.2264 -0.4642 -0.5869
 3512TIP3    H110481   3.468   6.770   4.718 -1.1206 -0.1375 -1.0920
 3512TIP3    H210482   3.436   6.711   4.582  2.1676 -0.9200 -1.6199
 3513TIP3   OH210483   2.868   7.346   0.829  1.1014  0.1013 -0.4228
 3513TIP3    H110484   2.777   7.376   0.834  1.6663  2.0134 -0.7192
 3513TIP3    H210485   2.904   7.364   0.917  1.1203 -0.9208 -0.2156
 3514TIP3   OH210486   0.891   7.015   1.979 -0.1185 -0.5107 -0.0150
 3514TIP3    H110487   0.855   6.994   2.065  0.9018 -1.0154  0.3032
 3514TIP3    H210488   0.848   6.954   1.919 -2.0870  0.9354 -0.1702
 3515TIP3   OH210489   5.120   6.793   5.579  0.2671 -0.4923 -0.3841
 3515TIP3    H110490   5.034   6.791   5.620  1.1179 -1.7487  1.4919
 3515TIP3    H210491   5.174   6.844   5.639  0.4435  2.1388 -2.5692
 3516TIP3   OH210492   4.768   2.215   1.019  0.2954 -0.0254  0.5361
 3516TIP3    H110493   4.742   2.124   1.004  1.1782 -0.5868  2.1653
 3516TIP3    H210494   4.754   2.258   0.934  0.3349 -1.7823 -0.4114
 3517TIP3   OH210495   1.893   5.650   1.231 -0.3569  0.0159  0.6316
 3517TIP3    H110496   1.894   5.554   1.238 -1.8649 -0.1171 -0.4607
 3517TIP3    H210497   1.806   5.675   1.261 -0.8577  0.7920 -1.2807
 3518TIP3   OH210498   2.269   7.117   0.732 -0.2432 -0.7015 -0.4399
 3518TIP3    H110499   2.183   7.075   0.744 -0.5345  0.2789  1.2644
 3518TIP3    H210500   2.262   7.199   0.780  2.2187 -1.3811  1.2505
 3519TIP3   OH210501   6.961   5.298   1.566  0.5810  0.5213 -0.1041
 3519TIP3    H110502   6.903   5.370   1.592  1.1883  0.1427  2.4869
 3519TIP3    H210503   7.014   5.336   1.495 -1.0449  1.6613 -0.7927
 3520TIP3   OH210504   0.346   1.532   5.460 -0.5785 -0.1036  0.0152
 3520TIP3    H110505   0.384   1.526   5.372  1.0495 -2.1110  0.7803
 3520TIP3    H210506   0.422   1.538   5.518 -1.6147  3.9834  1.2393
 3521TIP3   OH210507   7.052   5.282   2.462 -0.4719 -0.3412 -0.4839
 3521TIP3    H110508   7.070   5.207   2.518 -1.0497  0.1763  0.4133
 3521TIP3    H210509   6.958   5.276   2.444 -0.7991  0.8737  0.6702
 3522TIP3   OH210510   0.838   1.070   4.619 -0.2501 -0.3083 -0.2130
 3522TIP3    H110511   0.778   0.997   4.635 -0.8909  0.3927  0.6894
 3522TIP3    H210512   0.871   1.055   4.530 -1.7002 -0.7582 -0.7051
 3523TIP3   OH210513   1.054   6.752   3.114 -0.2184  0.6904 -0.2993
 3523TIP3    H110514   1.013   6.679   3.161  0.6966 -0.3122 -0.9994
 3523TIP3    H210515   1.060   6.721   3.023  1.6474  0.9676 -0.3103
 3524TIP3   OH210516   5.618   5.427   0.460 -0.0144  0.2954  0.2904
 3524TIP3    H110517   5.530   5.444   0.494 -0.7098  0.3944 -1.4811
 3524TIP3    H210518   5.676   5.474   0.521 -1.0119 -1.0578  2.4091
 3525TIP3   OH210519   2.581   2.805   4.092  0.3692 -0.2537 -0.0002
 3525TIP3    H110520   2.608   2.813   4.001  2.2833 -1.7139  0.3772
 3525TIP3    H210521   2.520   2.732   4.093 -1.2363  1.0256 -0.3649
 3526TIP3   OH210522   5.595   2.720   6.590  0.6925 -0.7366 -0.0354
 3526TIP3    H110523   5.645   2.679   6.520  0.2894 -0.5280 -0.4537
 3526TIP3    H210524   5.508   2.733   6.552  1.4655  2.9643 -0.9092
 3527TIP3   OH210525   5.568   0.381   3.593  0.0537  0.3363  0.4024
 3527TIP3    H110526   5.486   0.334   3.578 -0.0378  0.2244  1.2095
 3527TIP3    H210527   5.605   0.393   3.505 -0.8829  0.5022  0.0178
 3528TIP3   OH210528   3.133   4.877   3.700  0.0697 -0.0412  0.9226
 3528TIP3    H110529   3.227   4.872   3.682  0.1790 -0.2286  1.5289
 3528TIP3    H210530   3.092   4.852   3.618  0.5135  2.1734 -0.0581
 3529TIP3   OH210531   7.719   5.025   2.872 -0.0964  0.6666  0.2499
 3529TIP3    H110532   7.695   4.934   2.859  0.7296  0.5144 -0.2749
 3529TIP3    H210533   7.660   5.074   2.815  1.3355  0.2325 -1.7046
 3530TIP3   OH210534   2.701   6.439   1.728 -0.1024  0.4561  0.1318
 3530TIP3    H110535   2.776   6.496   1.709  0.3427  0.6224  2.2173
 3530TIP3    H210536   2.732   6.351   1.706 -0.5720  0.8400 -2.4687
 3531TIP3   OH210537   4.492   6.086   5.543 -0.1300 -0.4546 -1.0161
 3531TIP3    H110538   4.517   6.107   5.633 -0.3194 -0.3126 -0.9990
 3531TIP3    H210539   4.419   6.024   5.552  1.5075 -2.5274 -1.0271
 3532TIP3   OH210540   6.542   3.451   3.504  0.3220  0.3545 -0.1447
 3532TIP3    H110541   6.622   3.504   3.495  0.5798 -0.1716 -1.2109
 3532TIP3    H210542   6.574   3.366   3.535  0.0329  0.4995  0.5536
 3533TIP3   OH210543   4.450   5.795   0.702  0.1473  0.5210 -0.0319
 3533TIP3    H110544   4.375   5.828   0.751 -0.0967  1.1208 -0.7809
 3533TIP3    H210545   4.522   5.852   0.727  0.8108 -1.1045  2.0000
 3534TIP3   OH210546   2.433   5.595   4.339  0.2900  0.3608  0.1035
 3534TIP3    H110547   2.356   5.649   4.357 -0.8080 -1.4454  1.1322
 3534TIP3    H210548   2.501   5.633   4.394 -0.2568  1.1267  0.2737
 3535TIP3   OH210549   6.437   6.996   0.704 -0.0454 -0.0831  0.3486
 3535TIP3    H110550   6.496   6.941   0.653 -0.7711 -0.5220 -0.0371
 3535TIP3    H210551   6.397   6.937   0.768  1.2945  0.5687  1.8680
 3536TIP3   OH210552   5.044   7.806   0.567  0.3713  0.3346  0.4000
 3536TIP3    H110553   4.950   7.802   0.586  0.2571 -3.0874 -0.2034
 3536TIP3    H210554   5.087   7.785   0.650  0.4853 -0.3759  0.1667
 3537TIP3   OH210555   8.219   1.816   6.434  0.2600  0.0370  0.0921
 3537TIP3    H110556   8.289   1.881   6.438 -0.4960  0.9303 -0.5324
 3537TIP3    H210557   8.138   1.867   6.444 -0.3469 -0.8149 -0.2950
 3538TIP3   OH210558   5.560   0.066   4.974 -0.6243  0.2676 -0.2246
 3538TIP3    H110559   5.572   0.144   5.028  0.5715  0.9137 -1.3778
 3538TIP3    H210560   5.602  -0.005   5.023 -1.5735  0.3514  0.7516
 3539TIP3   OH210561   7.242   0.168   3.901 -0.0711 -0.2263  0.3317
 3539TIP3    H110562   7.268   0.086   3.943 -1.5381 -0.1230  1.5367
 3539TIP3    H210563   7.219   0.142   3.812  1.8805 -0.6662 -0.1033
 3540TIP3   OH210564   0.565   2.581   6.093 -0.8734  0.2544  0.3242
 3540TIP3    H110565   0.529   2.493   6.079  1.8794 -1.5772  3.2486
 3540TIP3    H210566   0.602   2.606   6.009 -3.0042 -0.6417 -0.9709
 3541TIP3   OH210567   5.007   3.172   0.359 -0.5804 -0.5646  0.0110
 3541TIP3    H110568   5.056   3.252   0.344 -0.6141 -0.5109  0.1784
 3541TIP3    H210569   5.060   3.103   0.320  0.0890 -0.6325  0.9971
 3542TIP3   OH210570   5.622   7.525   0.163 -0.0285 -0.6255  0.2479
 3542TIP3    H110571   5.685   7.592   0.136 -0.8373 -0.2543 -0.7880
 3542TIP3    H210572   5.675   7.461   0.211  1.4740 -1.2020 -2.0050
 3543TIP3   OH210573   3.840   4.986   5.547 -0.0111 -0.1868  0.1720
 3543TIP3    H110574   3.822   4.893   5.529  1.0696 -0.2994 -0.4621
 3543TIP3    H210575   3.798   5.033   5.475  0.5033 -0.2907 -0.2018
 3544TIP3   OH210576   3.104   3.601   0.816  0.7194  0.4023 -0.3738
 3544TIP3    H110577   3.037   3.574   0.879  0.2330 -0.7527 -1.3403
 3544TIP3    H210578   3.148   3.674   0.858  0.2715 -0.1954  1.2129
 3545TIP3   OH210579   7.516   7.139   1.063 -0.0205  0.2569  0.1027
 3545TIP3    H110580   7.430   7.172   1.088 -0.5507  0.4682 -1.7879
 3545TIP3    H210581   7.578   7.189   1.115 -0.9590  1.9706 -0.3709
 3546TIP3   OH210582   3.038   6.320   1.137 -0.0801  0.7810  0.0104
 3546TIP3    H110583   3.060   6.235   1.097 -0.2062  1.1931 -0.9512
 3546TIP3    H210584   2.993   6.296   1.219 -1.1055 -0.1021 -0.7766
 3547TIP3   OH210585   7.447   5.743   5.736 -0.2165  0.0511  0.6503
 3547TIP3    H110586   7.394   5.679   5.689  1.0400  0.0149 -0.7880
 3547TIP3    H210587   7.409   5.828   5.712 -2.3013 -0.0706  3.0773
 3548TIP3   OH210588   6.944   0.966   1.180 -0.0344  0.0425 -0.2517
 3548TIP3    H110589   7.029   1.008   1.172 -1.1437  2.6099  0.5452
 3548TIP3    H210590   6.884   1.022   1.132 -1.7804  0.0383  1.7521
 3549TIP3   OH210591   3.599   1.524   1.710  0.3262  0.2332 -0.0771
 3549TIP3    H110592   3.541   1.509   1.635 -1.5844 -0.9651  1.5239
 3549TIP3    H210593   3.684   1.489   1.682  0.3511  1.9699 -2.4775
 3550TIP3   OH210594   2.797   5.727   4.067 -0.2606  0.4632 -0.4190
 3550TIP3    H110595   2.883   5.744   4.029  0.9132 -1.2709  1.2742
 3550TIP3    H210596   2.756   5.665   4.006  1.3694 -1.8418  0.7081
 3551TIP3   OH210597   3.324   1.210   2.267 -0.2503  0.2476 -0.5126
 3551TIP3    H110598   3.253   1.183   2.210 -0.4873  2.0942 -1.1745
 3551TIP3    H210599   3.384   1.135   2.269 -1.4424 -0.7532 -1.1740
 3552TIP3   OH210600   1.192   6.657   1.986 -0.2923  0.2995 -0.0474
 3552TIP3    H110601   1.108   6.701   1.975 -0.9686 -1.2396 -1.3364
 3552TIP3    H210602   1.192   6.586   1.921  1.4034 -0.6356  0.8870
 3553TIP3   OH210603   2.877   1.128   1.268 -0.0802 -0.1646 -0.7272
 3553TIP3    H110604   2.963   1.100   1.237 -0.7482 -1.1369 -1.8352
 3553TIP3    H210605   2.845   1.188   1.200 -0.5429 -0.3599 -0.6898
 3554TIP3   OH210606   3.807   6.683   2.886  0.1404 -0.5141 -0.1980
 3554TIP3    H110607   3.723   6.671   2.932  0.2211 -2.4597 -0.4524
 3554TIP3    H210608   3.782   6.720   2.802 -0.2972  0.3680  0.3011
 3555TIP3   OH210609   2.149   7.530   0.533  0.4009  0.6685 -0.2722
 3555TIP3    H110610   2.118   7.620   0.541  0.6485  0.7229  0.1322
 3555TIP3    H210611   2.138   7.494   0.621  0.0917  0.2322 -0.4891
 3556TIP3   OH210612   4.841   2.930   0.388  0.2790 -0.5783  0.5484
 3556TIP3    H110613   4.875   3.019   0.390  0.5014 -0.6627  2.3000
 3556TIP3    H210614   4.919   2.875   0.382  0.1788 -0.6865  0.1790
 3557TIP3   OH210615   1.309   0.503   2.603  0.0657  0.2866  0.1037
 3557TIP3    H110616   1.279   0.505   2.513  1.0416  2.2881 -0.2383
 3557TIP3    H210617   1.230   0.492   2.655 -0.6049 -0.0033 -0.9558
 3558TIP3   OH210618   5.331   0.178   1.242 -0.6265 -0.4496  0.2455
 3558TIP3    H110619   5.323   0.272   1.223 -1.1351 -0.3265  1.0344
 3558TIP3    H210620   5.407   0.150   1.191 -0.0996  0.5123  0.4788
 3559TIP3   OH210621   0.989   2.055   1.774 -0.3040  0.0326  0.4254
 3559TIP3    H110622   0.987   2.112   1.850 -0.1237 -1.5628  1.6811
 3559TIP3    H210623   1.063   1.996   1.790 -0.4040 -0.4792 -0.8658
 3560TIP3   OH210624   0.720   6.256   1.342 -0.2184 -0.1221 -0.5556
 3560TIP3    H110625   0.673   6.173   1.356  1.0833 -0.9274 -0.8303
 3560TIP3    H210626   0.778   6.239   1.268  0.5367  0.8363 -0.2038
 3561TIP3   OH210627   5.553   5.550   6.489  0.3010  0.5616 -0.0176
 3561TIP3    H110628   5.647   5.533   6.476  0.0049 -0.8834 -0.4862
 3561TIP3    H210629   5.510   5.479   6.441 -1.0308  1.0478  0.4357
 3562TIP3   OH210630   7.114   2.555   4.902 -0.2671 -0.2784  0.1446
 3562TIP3    H110631   7.109   2.537   4.996  2.4635 -1.2677  0.1631
 3562TIP3    H210632   7.168   2.633   4.896 -1.0642  0.2370 -0.6204
 3563TIP3   OH210633   7.891   6.526   1.655 -0.2922  0.2159  0.6294
 3563TIP3    H110634   7.817   6.467   1.644  0.7663 -0.9964 -0.3324
 3563TIP3    H210635   7.968   6.471   1.643  0.7510  1.7900 -0.2728
 3564TIP3   OH210636   1.285   3.649   1.964  0.3638  0.3133  0.0126
 3564TIP3    H110637   1.240   3.630   1.881 -0.9206  0.1053  0.7349
 3564TIP3    H210638   1.220   3.695   2.016  0.8579 -0.3486  1.2480
 3565TIP3   OH210639   5.822   1.280   4.386 -0.9112  0.5077 -0.0009
 3565TIP3    H110640   5.847   1.244   4.301 -0.3097  3.1323 -1.0238
 3565TIP3    H210641   5.886   1.243   4.447 -0.4204 -0.2458 -0.9361
 3566TIP3   OH210642   8.201   0.302   6.744 -0.2847 -0.3616  0.2532
 3566TIP3    H110643   8.289   0.266   6.738 -0.4257 -0.7146  0.2849
 3566TIP3    H210644   8.149   0.232   6.783 -0.9092 -0.7215 -1.1654
 3567TIP3   OH210645   2.862   2.107   1.793 -0.2963  0.1545  0.3286
 3567TIP3    H110646   2.877   2.023   1.749 -2.3101  0.1961 -0.5647
 3567TIP3    H210647   2.871   2.171   1.723 -0.1301  0.5529  0.7167
 3568TIP3   OH210648   8.339   4.999   6.531  0.2478  0.4560  0.0684
 3568TIP3    H110649   8.272   5.041   6.477  0.3794  0.7752  0.1498
 3568TIP3    H210650   8.294   4.924   6.569 -0.2086  0.9268  0.4927
 3569TIP3   OH210651   6.767   0.402   3.119 -0.1534 -0.1736 -0.3227
 3569TIP3    H110652   6.785   0.496   3.110  0.1527 -0.1030  0.8434
 3569TIP3    H210653   6.845   0.359   3.084  0.5898  0.0610  0.9790
 3570TIP3   OH210654   8.150   3.287   5.925 -0.4034 -0.5669 -0.6224
 3570TIP3    H110655   8.170   3.320   6.012  1.2021 -3.4301  0.2434
 3570TIP3    H210656   8.055   3.274   5.925 -0.6606  1.1191  0.0126
 3571TIP3   OH210657   1.010   5.320   1.503  0.2361  0.7536  0.1467
 3571TIP3    H110658   0.998   5.264   1.579 -1.5068 -1.7264 -1.8109
 3571TIP3    H210659   0.922   5.347   1.478  0.5448 -0.0010 -1.9888
 3572TIP3   OH210660   7.191   7.704   1.449 -0.8328 -0.1074  0.4720
 3572TIP3    H110661   7.193   7.684   1.542  1.3288 -0.6533  0.3525
 3572TIP3    H210662   7.121   7.650   1.414  0.2337 -2.1241  1.3301
 3573TIP3   OH210663   5.419   5.963   0.877 -0.1683  0.3149 -0.0177
 3573TIP3    H110664   5.345   5.906   0.896  0.4571 -0.5773 -0.1648
 3573TIP3    H210665   5.494   5.919   0.919  0.3584  0.9265 -0.3030
 3574TIP3   OH210666   8.214   6.484   4.819 -0.0427  0.0093  0.0942
 3574TIP3    H110667   8.120   6.490   4.840 -0.1115  0.0877 -0.2446
 3574TIP3    H210668   8.228   6.547   4.750  0.0722 -0.6637 -0.5088
 3575TIP3   OH210669   2.946   2.361   4.098 -1.0639  0.0200 -0.0504
 3575TIP3    H110670   2.957   2.406   4.182 -2.7778  1.7081 -0.6645
 3575TIP3    H210671   3.036   2.348   4.066 -0.4406  1.4296  1.0056
 3576TIP3   OH210672   3.603   6.986   2.801 -0.0722 -0.2871  0.1202
 3576TIP3    H110673   3.684   7.022   2.767 -0.7605  0.5184 -0.7181
 3576TIP3    H210674   3.539   6.998   2.730 -0.7901 -1.4267  0.5372
 3577TIP3   OH210675   6.193   4.121  -0.023  0.0444  0.1484 -0.1546
 3577TIP3    H110676   6.168   4.087   0.063  0.8175 -0.5229 -0.1913
 3577TIP3    H210677   6.250   4.195  -0.003 -0.9057  0.8936 -0.0897
 3578TIP3   OH210678   1.662   2.816   5.515 -0.1245 -0.1747 -0.1293
 3578TIP3    H110679   1.687   2.891   5.568  0.6854 -0.5718  0.0639
 3578TIP3    H210680   1.575   2.792   5.547 -0.4344  0.7292 -0.2602
 3579TIP3   OH210681   6.378   6.533   3.009  0.6880 -0.2832  0.2303
 3579TIP3    H110682   6.305   6.580   2.967  0.2535 -0.8746  0.3137
 3579TIP3    H210683   6.402   6.465   2.946  1.4030  0.1199  0.0523
 3580TIP3   OH210684   0.361   3.293   0.668  0.2410  0.7405  0.0924
 3580TIP3    H110685   0.403   3.235   0.733  0.4074  0.0281 -0.6396
 3580TIP3    H210686   0.360   3.242   0.587 -0.3783  1.4535 -0.3618
 3581TIP3   OH210687   2.211   2.368   2.589 -0.0823 -0.2231  0.2593
 3581TIP3    H110688   2.147   2.350   2.520  0.3630 -0.3331 -0.1333
 3581TIP3    H210689   2.240   2.457   2.571  1.0133 -0.7101 -0.5130
 3582TIP3   OH210690   7.395   2.195   1.445  0.2484  0.4727  0.5029
 3582TIP3    H110691   7.364   2.105   1.439 -0.5194  0.5366  2.7043
 3582TIP3    H210692   7.368   2.235   1.362  0.0717 -1.1327 -0.2655
 3583TIP3   OH210693   7.788   0.693   1.524 -0.3402 -0.1473 -0.2295
 3583TIP3    H110694   7.784   0.598   1.534 -1.8331 -0.0687  0.1113
 3583TIP3    H210695   7.873   0.709   1.482 -1.1260 -1.8258 -2.6587
 3584TIP3   OH210696   0.309   5.571   1.231 -0.0093 -0.5357 -0.6477
 3584TIP3    H110697   0.356   5.497   1.193  1.7200 -0.6393  1.4808
 3584TIP3    H210698   0.336   5.646   1.180  1.3587 -0.8261 -0.3910
 3585TIP3   OH210699   2.573   5.508   5.639 -0.2831  0.1952 -0.0985
 3585TIP3    H110700   2.637   5.473   5.576 -1.5651 -0.7882 -0.8902
 3585TIP3    H210701   2.581   5.450   5.715 -0.3368 -0.0105 -0.2507
 3586TIP3   OH210702   4.329   3.181   0.107  0.1316  0.0759  0.4463
 3586TIP3    H110703   4.333   3.093   0.069  0.9264 -0.5444  1.9326
 3586TIP3    H210704   4.420   3.210   0.110 -0.1196  0.9440  0.0332
 3587TIP3   OH210705   0.066   3.899   1.170 -0.7011  0.0914 -0.3160
 3587TIP3    H110706   0.093   3.991   1.166 -1.7609  0.5091  1.2331
 3587TIP3    H210707   0.132   3.858   1.225 -1.2870  0.3673  0.6121
 3588TIP3   OH210708   0.321   4.324   6.263 -0.6104 -0.0453  0.0963
 3588TIP3    H110709   0.330   4.344   6.169  1.0672 -1.6069 -0.1378
 3588TIP3    H210710   0.406   4.348   6.300 -0.9133 -0.3786  1.0214
 3589TIP3   OH210711   3.783   7.266   4.355  0.3906 -0.5317 -0.0433
 3589TIP3    H110712   3.829   7.182   4.353  0.6988 -0.4292  1.7150
 3589TIP3    H210713   3.775   7.288   4.447  0.9560  1.7380 -0.4710
 3590TIP3   OH210714   7.129   4.164   5.440  0.0037  0.5988  0.3183
 3590TIP3    H110715   7.075   4.242   5.426  1.0638  1.5164  1.1488
 3590TIP3    H210716   7.207   4.196   5.485  1.1387 -0.7190 -0.5905
 3591TIP3   OH210717   6.977   4.607   1.894 -0.2317  0.0232 -0.4317
 3591TIP3    H110718   6.911   4.670   1.924 -0.7381 -0.1597 -1.1321
 3591TIP3    H210719   7.053   4.661   1.873 -0.7392  0.4492 -1.2535
 3592TIP3   OH210720   7.319   4.309   5.617  0.3097  0.9470  0.3027
 3592TIP3    H110721   7.379   4.321   5.543  1.0885 -0.5021  0.6614
 3592TIP3    H210722   7.296   4.398   5.644  0.4262  1.5128 -1.3357
 3593TIP3   OH210723   0.252   1.410   0.444  0.2971 -0.3347  0.0272
 3593TIP3    H110724   0.300   1.334   0.477 -1.5248 -1.5251  0.0757
 3593TIP3    H210725   0.291   1.427   0.358  1.0065 -1.0683  0.1926
 3594TIP3   OH210726   5.564   1.869   6.176  0.0157 -0.2399 -0.3109
 3594TIP3    H110727   5.646   1.915   6.190 -0.2584 -0.1448  1.1381
 3594TIP3    H210728   5.505   1.904   6.243 -1.4952  0.3435 -1.8836
 3595TIP3   OH210729   5.612   3.789   0.512  0.0824  0.4699 -0.4560
 3595TIP3    H110730   5.640   3.700   0.532  0.5022  0.4059 -1.2661
 3595TIP3    H210731   5.653   3.808   0.428  1.8377  2.2377  0.7115
 3596TIP3   OH210732   7.083   3.167   0.254  0.1699  0.2817 -0.2211
 3596TIP3    H110733   7.112   3.211   0.174 -0.9605  0.2220 -0.6771
 3596TIP3    H210734   7.033   3.233   0.301  1.4552  0.5446  0.8154
 3597TIP3   OH210735   6.325   6.808   6.223 -0.5341  0.1299 -0.7711
 3597TIP3    H110736   6.301   6.865   6.150 -1.9417 -0.7380 -1.0301
 3597TIP3    H210737   6.241   6.774   6.255  0.2474 -1.7123 -0.5759
 3598TIP3   OH210738   0.105   6.750   1.815 -0.3506  0.0448 -0.1999
 3598TIP3    H110739   0.184   6.801   1.836 -0.8053  0.3083  0.9328
 3598TIP3    H210740   0.032   6.808   1.838 -0.8824 -0.3761 -0.7912
 3599TIP3   OH210741   5.037   4.184   4.811 -0.2982  0.0976  0.3334
 3599TIP3    H110742   5.049   4.277   4.828 -1.2698  0.1875  0.5467
 3599TIP3    H210743   4.943   4.172   4.802 -0.0905 -0.5687 -1.4317
 3600TIP3   OH210744   6.904   2.992   1.455  0.2034  0.4869  0.3488
 3600TIP3    H110745   6.827   2.947   1.490 -1.3265  1.4617 -1.5967
 3600TIP3    H210746   6.908   2.966   1.363  2.5185  0.1061  0.5039
 3601TIP3   OH210747   7.463   2.717   3.079 -0.3277 -0.0334 -0.5275
 3601TIP3    H110748   7.542   2.768   3.100 -1.4990  0.9662  1.8786
 3601TIP3    H210749   7.460   2.650   3.148 -2.3604  0.9208  0.3761
 3602TIP3   OH210750   2.054   0.699   5.467 -0.4002 -0.5215 -0.4790
 3602TIP3    H110751   2.126   0.712   5.406 -1.1398 -1.5327 -1.6143
 3602TIP3    H210752   2.008   0.622   5.434 -3.5350  1.5181 -1.3552
 3603TIP3   OH210753   4.600   6.280   6.246  0.0667 -0.1216 -0.6478
 3603TIP3    H110754   4.581   6.214   6.180 -1.9288 -0.3162  0.0541
 3603TIP3    H210755   4.645   6.233   6.316 -0.3593 -0.5079 -0.6314
 3604TIP3   OH210756   4.117   7.122   1.242  0.0963 -0.3167  0.0794
 3604TIP3    H110757   4.138   7.085   1.328  0.4633  1.6122  0.8704
 3604TIP3    H210758   4.104   7.046   1.185  3.8878 -1.7295  0.8266
 3605TIP3   OH210759   1.899   7.378   3.756  0.2191 -0.2458  0.1256
 3605TIP3    H110760   1.881   7.287   3.781 -3.0717 -0.0381 -1.0596
 3605TIP3    H210761   1.839   7.430   3.810  2.6528  1.4177  1.4336
 3606TIP3   OH210762   7.913   7.308   0.322 -0.2088  0.1316  0.0618
 3606TIP3    H110763   7.845   7.372   0.297  1.0004  1.0599 -0.9924
 3606TIP3    H210764   7.896   7.291   0.414 -0.9728  1.4879  0.2025
 3607TIP3   OH210765   5.342   2.905   1.694 -0.0139 -0.0673  0.1375
 3607TIP3    H110766   5.369   2.827   1.744  0.7104 -0.9985 -1.6179
 3607TIP3    H210767   5.279   2.871   1.630  0.4670  0.7554 -0.7845
 3608TIP3   OH210768   2.728   1.498   5.458 -0.3421 -0.3491  0.1872
 3608TIP3    H110769   2.696   1.559   5.524 -0.0641  0.0324 -0.0240
 3608TIP3    H210770   2.738   1.415   5.504 -0.7855 -0.2510  0.4651
 3609TIP3   OH210771   4.204   3.183   2.515  0.3030  0.5679 -0.0104
 3609TIP3    H110772   4.179   3.274   2.499  1.9142  0.9967 -0.2221
 3609TIP3    H210773   4.243   3.184   2.602 -0.1593 -0.0288  0.2073
 3610TIP3   OH210774   2.050   6.423   0.139 -0.5834  0.0373 -0.2646
 3610TIP3    H110775   2.104   6.495   0.172 -1.9410  0.9917 -0.0633
 3610TIP3    H210776   2.011   6.456   0.058 -2.1786 -0.0043  0.4605
 3611TIP3   OH210777   6.416   5.812   1.188 -0.2073  0.1834 -0.2049
 3611TIP3    H110778   6.373   5.863   1.256  0.8198  0.5946  0.1570
 3611TIP3    H210779   6.352   5.745   1.163 -0.3824 -0.3793  1.6130
 3612TIP3   OH210780   5.706   6.795   4.003 -0.6163  0.4882  0.2520
 3612TIP3    H110781   5.753   6.794   3.919 -1.9203  0.5446 -0.5172
 3612TIP3    H210782   5.771   6.822   4.067  0.1837  1.4295 -0.9051
 3613TIP3   OH210783   5.015   1.561   0.501  0.3531  0.4395 -0.0273
 3613TIP3    H110784   5.106   1.573   0.472  0.2985  3.6445  0.6711
 3613TIP3    H210785   4.982   1.651   0.510 -2.8142 -0.6358  0.0289
 3614TIP3   OH210786   3.468   3.293   4.683  0.0737 -0.1408  0.4023
 3614TIP3    H110787   3.488   3.215   4.632 -0.5928  0.4745 -0.8593
 3614TIP3    H210788   3.484   3.366   4.623  0.7548  0.7083  1.5782
 3615TIP3   OH210789   6.572   7.157   6.461 -0.2495 -0.7188  0.2079
 3615TIP3    H110790   6.614   7.129   6.380 -0.1638 -0.3220  0.1123
 3615TIP3    H210791   6.482   7.179   6.435  0.4169  1.7930 -0.3067
 3616TIP3   OH210792   4.355   4.817   1.433  0.5423 -0.6495 -0.2496
 3616TIP3    H110793   4.328   4.909   1.440  1.8887 -0.1521 -1.1781
 3616TIP3    H210794   4.273   4.768   1.438 -0.0458  0.4631  2.1117
 3617TIP3   OH210795   6.055   0.075   0.779  1.2578 -1.0938  0.2412
 3617TIP3    H110796   5.964   0.068   0.751  0.8964  1.8247  0.3990
 3617TIP3    H210797   6.104   0.090   0.698  1.1089  0.6165  0.4328
 3618TIP3   OH210798   5.434   2.533   3.872  0.1195 -0.4564 -0.2116
 3618TIP3    H110799   5.517   2.579   3.858  0.2495 -0.7644 -0.4586
 3618TIP3    H210800   5.454   2.467   3.938 -0.6961  1.5591  2.2094
 3619TIP3   OH210801   3.627   1.021   6.397  0.4496  0.4833  0.0758
 3619TIP3    H110802   3.613   1.013   6.491  0.0424 -0.5962 -0.0616
 3619TIP3    H210803   3.561   1.083   6.367 -0.2979 -0.1881  0.3091
 3620TIP3   OH210804   5.645   0.039   5.379 -0.3638 -0.5902 -0.1872
 3620TIP3    H110805   5.685   0.070   5.298 -1.9007  2.2576  0.0215
 3620TIP3    H210806   5.719   0.025   5.438  0.5737  1.8556 -0.6593
 3621TIP3   OH210807   5.595   5.654   4.477 -0.3355 -0.7872  0.8356
 3621TIP3    H110808   5.540   5.713   4.529 -0.1589  0.2964 -0.1518
 3621TIP3    H210809   5.542   5.634   4.400  0.5259  0.0604 -0.0065
 3622TIP3   OH210810   0.573   7.659   4.994  0.1412  0.9247  1.0065
 3622TIP3    H110811   0.576   7.658   4.898 -0.0889  0.7519  1.0013
 3622TIP3    H210812   0.563   7.568   5.019  0.3824  0.9509  1.2043
 3623TIP3   OH210813   5.159   2.011   4.108  0.2302  0.2751 -0.0530
 3623TIP3    H110814   5.094   2.055   4.053  0.3580 -0.2271 -0.6182
 3623TIP3    H210815   5.188   2.078   4.169 -1.4570  0.2746  0.7890
 3624TIP3   OH210816   8.249   6.262   5.107 -0.2806  0.0451  0.0686
 3624TIP3    H110817   8.317   6.268   5.040 -1.0575  1.0666 -0.6621
 3624TIP3    H210818   8.168   6.279   5.060 -0.6763  3.2681  1.6031
 3625TIP3   OH210819   3.544   3.506   0.160 -0.1797  0.6558  0.0597
 3625TIP3    H110820   3.533   3.437   0.095 -0.3401  0.7694 -0.0324
 3625TIP3    H210821   3.475   3.490   0.225  0.2309  0.2992  0.4171
 3626TIP3   OH210822   5.255   3.848   4.415 -0.0600  0.1724  0.8572
 3626TIP3    H110823   5.172   3.846   4.464 -0.0060  1.7619  1.0775
 3626TIP3    H210824   5.306   3.775   4.450 -2.0468 -2.0603 -0.6108
 3627TIP3   OH210825   0.960   4.000   2.115 -0.3367  0.2657  0.0421
 3627TIP3    H110826   0.998   4.036   2.034 -1.9561 -1.7313 -1.7358
 3627TIP3    H210827   0.964   3.905   2.102  1.0453 -0.2166  3.2044
 3628TIP3   OH210828   3.717   2.830   6.319  0.9118 -0.5385  0.0221
 3628TIP3    H110829   3.685   2.797   6.402 -0.0053 -2.7053 -1.1229
 3628TIP3    H210830   3.778   2.763   6.288  0.3904 -0.3209 -1.5605
 3629TIP3   OH210831   7.747   1.558   5.354  0.1433  0.1815  0.3693
 3629TIP3    H110832   7.745   1.645   5.313  1.3155  0.1663  0.2504
 3629TIP3    H210833   7.798   1.504   5.293  0.2324 -0.3490  0.9024
 3630TIP3   OH210834   3.165   5.865   5.679 -0.1951  0.1356 -0.0762
 3630TIP3    H110835   3.212   5.943   5.650 -1.0786  0.2867 -1.1744
 3630TIP3    H210836   3.132   5.825   5.598 -1.3947 -0.3161  0.6114
 3631TIP3   OH210837   5.035   7.858   6.617  0.1129 -0.5195 -0.7106
 3631TIP3    H110838   4.943   7.833   6.608  0.1094 -0.8686  0.1811
 3631TIP3    H210839   5.070   7.798   6.682  1.6567 -2.1108 -2.8519
 3632TIP3   OH210840   8.295   5.353   4.268  0.1401  0.5365 -0.2442
 3632TIP3    H110841   8.271   5.271   4.310  0.1546 -0.0169 -1.2939
 3632TIP3    H210842   8.220   5.376   4.214  0.0713  1.3023  0.1623
 3633TIP3   OH210843   1.674   6.019   6.217  0.4494 -0.0152  0.3302
 3633TIP3    H110844   1.600   5.973   6.178  0.3016 -0.6157  1.2863
 3633TIP3    H210845   1.689   6.095   6.160 -0.6389 -0.1149 -0.0949
 3634TIP3   OH210846   2.737   2.727   2.390  0.0907  0.1975  0.3195
 3634TIP3    H110847   2.762   2.732   2.298  1.4542  1.2713  0.7090
 3634TIP3    H210848   2.663   2.666   2.392 -1.5480  1.9350 -1.8016
 3635TIP3   OH210849   0.886   2.677   6.315  0.5483  0.1529  0.0087
 3635TIP3    H110850   0.796   2.654   6.337  1.1263 -0.5537  1.8413
 3635TIP3    H210851   0.879   2.732   6.238 -1.3410 -1.2974 -0.9372
 3636TIP3   OH210852   4.173   1.199   2.706 -0.4078  0.1248  0.3599
 3636TIP3    H110853   4.094   1.198   2.759  0.2035  0.6205  1.3176
 3636TIP3    H210854   4.197   1.291   2.699  0.3559 -0.0464  0.5227
 3637TIP3   OH210855   1.682   2.502   0.167  0.0738 -0.6746 -0.0283
 3637TIP3    H110856   1.705   2.587   0.130  0.7720 -0.4519  0.8895
 3637TIP3    H210857   1.586   2.502   0.169  0.0670  0.1048  0.0112
 3638TIP3   OH210858   0.931   1.237   3.176  0.3599  0.3246 -0.5042
 3638TIP3    H110859   1.012   1.245   3.226  0.4908  0.9596 -0.7983
 3638TIP3    H210860   0.954   1.269   3.089 -0.1226  0.1997 -0.6804
 3639TIP3   OH210861   1.258   4.171   1.273  0.7424  0.3485 -0.8296
 3639TIP3    H110862   1.286   4.252   1.230  1.8386 -0.1231 -1.0140
 3639TIP3    H210863   1.219   4.201   1.355  1.3270  1.0579 -0.7986
 3640TIP3   OH210864   3.279   3.566   3.111 -0.2392 -0.3705 -0.1541
 3640TIP3    H110865   3.346   3.509   3.074  0.5742  0.0762  0.5974
 3640TIP3    H210866   3.209   3.566   3.046 -0.4334 -2.5119 -0.0126
 3641TIP3   OH210867   0.772   4.830   6.594  0.2251  0.2219  0.1909
 3641TIP3    H110868   0.709   4.881   6.645 -0.3085  0.9985 -1.1744
 3641TIP3    H210869   0.832   4.895   6.559  0.3482 -0.2435 -0.4770
 3642TIP3   OH210870   2.291   0.645   4.789 -0.2110 -0.0175  0.5491
 3642TIP3    H110871   2.198   0.640   4.812 -0.5087 -1.6724 -0.8280
 3642TIP3    H210872   2.292   0.671   4.697  0.6244 -1.1391  0.2169
 3643TIP3   OH210873   4.786   3.568   0.910 -0.0996  0.3301 -0.8250
 3643TIP3    H110874   4.789   3.474   0.890  1.5698 -0.2501  1.6560
 3643TIP3    H210875   4.878   3.594   0.916 -0.4829  1.4826  1.0127
 3644TIP3   OH210876   3.601   0.645   6.303  0.1736 -0.0370  0.4180
 3644TIP3    H110877   3.595   0.723   6.248  1.4820 -0.4238 -0.2932
 3644TIP3    H210878   3.604   0.679   6.393 -0.9770  0.6372  0.2237
 3645TIP3   OH210879   1.708   3.266   3.351 -0.1560  0.0787 -0.0184
 3645TIP3    H110880   1.614   3.262   3.372 -0.4497 -0.0139 -1.2972
 3645TIP3    H210881   1.721   3.355   3.319  0.3017  0.2338  0.5758
 3646TIP3   OH210882   3.986   0.610   2.098  0.2135  0.0581 -0.0569
 3646TIP3    H110883   3.975   0.696   2.057  2.1137  0.7618  0.7698
 3646TIP3    H210884   3.957   0.623   2.188  0.2501 -0.2329 -0.0024
 3647TIP3   OH210885   7.208   6.942   3.047 -0.0411  0.0305  0.1647
 3647TIP3    H110886   7.167   6.963   3.131 -2.1735  0.1645 -0.8608
 3647TIP3    H210887   7.155   6.871   3.011  1.2797 -0.5206 -0.7666
 3648TIP3   OH210888   8.245   3.188   2.684  0.3890 -0.8399 -0.4954
 3648TIP3    H110889   8.334   3.160   2.662  0.2349 -1.2068 -0.6533
 3648TIP3    H210890   8.241   3.184   2.779  0.6098 -0.6082 -0.4741
 3649TIP3   OH210891   0.396   0.587   5.252 -0.5339  0.0063 -0.5422
 3649TIP3    H110892   0.354   0.501   5.258 -1.9573  0.7146  0.0136
 3649TIP3    H210893   0.489   0.569   5.268 -1.1449 -1.1165  2.5797
 3650TIP3   OH210894   6.989   5.873   5.748  1.0970 -0.6454  0.2537
 3650TIP3    H110895   6.925   5.828   5.693 -0.3642 -0.0195  1.3791
 3650TIP3    H210896   7.050   5.804   5.774  1.1700 -1.1675 -1.2102
 3651TIP3   OH210897   8.170   3.147   0.221 -0.2631 -0.8007  0.6095
 3651TIP3    H110898   8.163   3.078   0.287 -0.4348 -0.3545  1.0630
 3651TIP3    H210899   8.130   3.223   0.262 -0.3036 -0.4983  0.0137
 3652TIP3   OH210900   2.314   6.202   5.530 -0.2181 -0.2244  0.3721
 3652TIP3    H110901   2.220   6.186   5.542 -0.3114 -0.0856 -0.1342
 3652TIP3    H210902   2.357   6.126   5.570 -0.4561  0.5601  2.2412
 3653TIP3   OH210903   2.682   2.894   0.274 -0.3189 -0.1966  0.3635
 3653TIP3    H110904   2.672   2.815   0.326  2.0499 -0.7182  0.1421
 3653TIP3    H210905   2.755   2.875   0.214 -2.6408  0.4926 -2.9771
 3654TIP3   OH210906   2.650   4.639   3.655  0.3099  0.8612 -0.6881
 3654TIP3    H110907   2.657   4.727   3.692  1.8858  0.1988  0.7355
 3654TIP3    H210908   2.579   4.597   3.703  1.8641  0.2531  1.2331
 3655TIP3   OH210909   5.969   6.532   6.656  0.1388 -0.2224 -0.7881
 3655TIP3    H110910   5.955   6.484   6.575  0.7223 -1.7935 -0.0081
 3655TIP3    H210911   6.063   6.552   6.656  0.2865 -0.8656 -0.1959
 3656TIP3   OH210912   4.059   0.003   4.063 -0.0269 -0.1848 -0.1302
 3656TIP3    H110913   3.972   0.037   4.041 -0.2571 -0.6094  0.1035
 3656TIP3    H210914   4.119   0.051   4.006 -0.4972 -0.4746 -0.8809
 3657TIP3   OH210915   8.010   1.959   5.005  0.1118 -0.2042  0.3891
 3657TIP3    H110916   8.027   1.872   5.041 -1.5332 -0.9089 -0.4385
 3657TIP3    H210917   7.936   1.992   5.056  0.2298  0.3961  0.1800
 3658TIP3   OH210918   2.866   2.940   6.272  0.7825  0.1584  0.9678
 3658TIP3    H110919   2.913   2.924   6.353 -0.8285 -1.6718  1.6171
 3658TIP3    H210920   2.775   2.953   6.299  0.3997  0.6243 -0.4646
 3659TIP3   OH210921   7.485   3.590   4.069 -0.4013 -0.0974  0.0139
 3659TIP3    H110922   7.546   3.636   4.127 -0.4063  0.0119 -0.0673
 3659TIP3    H210923   7.505   3.497   4.081  1.1084 -0.0026 -1.4709
 3660TIP3   OH210924   6.508   1.241   3.911 -0.4664  0.2390  0.0604
 3660TIP3    H110925   6.452   1.265   3.985  0.6483 -0.4939  1.1824
 3660TIP3    H210926   6.593   1.221   3.951 -0.0512 -0.9122 -1.3229
 3661TIP3   OH210927   0.276   2.555   6.426 -0.0523  0.2567  0.4952
 3661TIP3    H110928   0.273   2.538   6.520 -0.3111 -1.6124  0.2000
 3661TIP3    H210929   0.301   2.471   6.387  0.4096  1.0812 -1.0882
 3662TIP3   OH210930   7.672   4.311   5.013  0.1529  0.0587  0.2294
 3662TIP3    H110931   7.590   4.343   4.975  0.5950  0.7220 -0.1871
 3662TIP3    H210932   7.665   4.332   5.106 -0.3855 -0.3934  0.2933
 3663TIP3   OH210933   4.893   5.199   1.591  0.5259  0.4208  0.1359
 3663TIP3    H110934   4.864   5.200   1.682 -0.6631 -0.1106 -0.2208
 3663TIP3    H210935   4.875   5.287   1.559  1.7499  0.8764  0.6359
 3664TIP3   OH210936   4.808   2.375   0.561 -0.0295 -0.4386  0.3415
 3664TIP3    H110937   4.744   2.351   0.494  0.2825  0.5544 -0.3325
 3664TIP3    H210938   4.761   2.433   0.621  0.8313  2.5002 -1.6182
 3665TIP3   OH210939   2.041   3.167   4.592  0.5045  0.5201  0.2319
 3665TIP3    H110940   2.040   3.071   4.595  0.0688  0.5219  0.1519
 3665TIP3    H210941   1.959   3.191   4.549  1.4990  0.8614 -1.5880
 3666TIP3   OH210942   0.952   1.301   1.283 -0.3900  0.3551 -0.4326
 3666TIP3    H110943   0.931   1.264   1.369  1.2250 -1.4221 -0.7370
 3666TIP3    H210944   0.884   1.267   1.225 -1.0505  0.9507 -0.0280
 3667TIP3   OH210945   0.981   4.781   3.162 -0.2668 -0.4708 -0.5292
 3667TIP3    H110946   1.048   4.714   3.146  1.7670  0.6980  2.2747
 3667TIP3    H210947   0.996   4.847   3.094  0.9603 -0.5889 -0.3902
 3668TIP3   OH210948   3.776   4.228   5.829  0.0939  0.1152 -0.3997
 3668TIP3    H110949   3.827   4.164   5.878 -2.0298 -0.3298  1.4105
 3668TIP3    H210950   3.724   4.273   5.895 -0.9374  1.3757 -1.9980
 3669TIP3   OH210951   7.974   0.970   4.895  0.6046  0.6282 -0.7540
 3669TIP3    H110952   7.911   0.905   4.866  1.9427 -0.7440 -0.7485
 3669TIP3    H210953   8.010   0.935   4.977  1.7691  1.0588 -1.0500
 3670TIP3   OH210954   0.982   5.926   2.160  0.0973  0.0427  0.0230
 3670TIP3    H110955   0.913   5.897   2.101  1.2410 -0.2528 -1.2099
 3670TIP3    H210956   0.941   5.993   2.214 -1.0509  0.1249 -0.9220
 3671TIP3   OH210957   0.858   1.221   3.844  0.0424 -0.3257 -0.1483
 3671TIP3    H110958   0.949   1.195   3.828 -0.3025 -0.2848 -2.5733
 3671TIP3    H210959   0.814   1.140   3.869  0.5002 -0.5886 -0.1719
 3672TIP3   OH210960   4.321   5.520   4.167 -0.3646 -0.8413  0.6068
 3672TIP3    H110961   4.290   5.600   4.208  0.8307  0.4483 -0.8819
 3672TIP3    H210962   4.383   5.483   4.230 -1.2329 -0.8501  1.4819
 3673TIP3   OH210963   4.844   4.620   4.463  0.1101  0.0273 -0.4937
 3673TIP3    H110964   4.917   4.587   4.516 -0.4446  0.4406  0.5529
 3673TIP3    H210965   4.799   4.682   4.520  0.8888  2.3499 -2.2479
 3674TIP3   OH210966   2.468   2.620   6.748  0.7366  0.1464  0.6715
 3674TIP3    H110967   2.491   2.568   6.671  0.5557  0.3098  0.5074
 3674TIP3    H210968   2.539   2.683   6.757 -0.4739  1.8457 -0.8932
 3675TIP3   OH210969   4.466   0.201   4.446  0.6507 -0.1412 -0.3174
 3675TIP3    H110970   4.462   0.254   4.525  2.1261  0.3227 -0.5145
 3675TIP3    H210971   4.486   0.113   4.477 -0.8548 -0.4128 -0.0552
 3676TIP3   OH210972   5.641   0.577   5.742  0.1753  0.0723  0.7512
 3676TIP3    H110973   5.622   0.485   5.757 -3.0959  0.2865 -1.2873
 3676TIP3    H210974   5.658   0.584   5.648 -1.0364  1.7015  0.6002
 3677TIP3   OH210975   6.970   0.204   0.319  0.2617 -0.0349 -0.3395
 3677TIP3    H110976   7.058   0.168   0.309  0.6202  0.9652 -0.8862
 3677TIP3    H210977   6.983   0.298   0.329 -0.8079  0.2567 -1.4611
 3678TIP3   OH210978   2.375   1.730   4.058  0.3582 -0.0021  0.0695
 3678TIP3    H110979   2.370   1.668   4.131  0.0609  0.3202  0.3300
 3678TIP3    H210980   2.454   1.706   4.011  1.0631  0.3769  1.0389
 3679TIP3   OH210981   4.731   4.572   3.106  0.9228 -0.1817 -0.0621
 3679TIP3    H110982   4.683   4.655   3.103 -0.4007 -0.9176 -0.0613
 3679TIP3    H210983   4.719   4.540   3.195 -1.4998 -1.9714 -0.9099
 3680TIP3   OH210984   6.430   6.638   0.478 -0.2180  0.0961  0.1770
 3680TIP3    H110985   6.364   6.624   0.410  0.7841  2.6447 -1.4391
 3680TIP3    H210986   6.395   6.592   0.555 -1.9122 -1.9903 -1.7013
 3681TIP3   OH210987   6.086   3.063   2.629  0.0198 -0.1027 -0.6653
 3681TIP3    H110988   6.107   3.115   2.707 -1.0795  0.9964 -1.0740
 3681TIP3    H210989   6.091   2.972   2.659 -0.2124  0.2987  0.6484
 3682TIP3   OH210990   1.989   3.971   0.128 -0.1288 -0.4941 -0.3303
 3682TIP3    H110991   2.075   3.934   0.150  0.3705  0.0139 -1.3770
 3682TIP3    H210992   1.963   3.925   0.048 -0.3241  0.1498 -0.6396
 3683TIP3   OH210993   7.257   3.172   2.426  0.2111  0.1662 -0.4068
 3683TIP3    H110994   7.218   3.221   2.354 -0.3439 -1.3196 -1.1640
 3683TIP3    H210995   7.331   3.125   2.386 -0.3903 -1.0388 -0.1483
 3684TIP3   OH210996   2.517   6.898   4.647  0.6511  0.1214 -0.2601
 3684TIP3    H110997   2.445   6.955   4.673 -0.5120  0.0293 -2.9116
 3684TIP3    H210998   2.489   6.810   4.672  0.7057  0.2900  0.3982
 3685TIP3   OH210999   2.421   6.043   6.651  0.2429  0.1314  0.0708
 3685TIP3    H111000   2.332   6.059   6.683  0.6325 -0.2257  1.3685
 3685TIP3    H211001   2.447   6.126   6.610 -0.6095  0.2992 -0.1488
 3686TIP3   OH211002   2.789   2.018   6.340 -0.6027  0.0845 -0.0166
 3686TIP3    H111003   2.767   1.934   6.380  0.2876 -0.2466 -0.2006
 3686TIP3    H211004   2.874   2.003   6.297 -0.6822  0.9311 -0.4930
 3687TIP3   OH211005   2.456   5.082   3.722  0.0802 -0.4604 -0.4064
 3687TIP3    H111006   2.403   5.031   3.783  1.5025 -0.3386  0.9802
 3687TIP3    H211007   2.406   5.081   3.640 -2.7680  0.8347  1.1884
 3688TIP3   OH211008   3.910   6.145   0.979 -0.1039  0.5484 -0.1485
 3688TIP3    H111009   3.969   6.109   1.045 -0.4412  1.2458  0.5494
 3688TIP3    H211010   3.827   6.100   0.994 -0.2592  0.9143  0.0905
 3689TIP3   OH211011   1.594   2.941   5.272  0.1311  0.2886 -0.4259
 3689TIP3    H111012   1.612   2.878   5.342 -1.4400 -0.3398 -0.5551
 3689TIP3    H211013   1.527   2.998   5.309 -1.2539 -0.4930 -1.6408
 3690TIP3   OH211014   5.426   1.895   0.208  0.0227  0.5779 -0.7574
 3690TIP3    H111015   5.473   1.949   0.145  1.1434 -0.0857 -0.5159
 3690TIP3    H211016   5.345   1.870   0.163  1.5877 -1.3987 -2.7044
 3691TIP3   OH211017   7.613   2.273   4.746  0.5751 -0.0046 -0.0036
 3691TIP3    H111018   7.609   2.218   4.668 -0.5601  2.7950 -2.0740
 3691TIP3    H211019   7.521   2.284   4.772  0.9108 -0.5639  1.5467
 3692TIP3   OH211020   1.295   5.194   2.520  0.0914  0.0895  0.1215
 3692TIP3    H111021   1.205   5.186   2.550 -0.1123  1.3361 -0.1066
 3692TIP3    H211022   1.343   5.227   2.596 -0.1404  1.8237 -0.4546
 3693TIP3   OH211023   0.584   5.739   6.198 -0.0485 -0.3400  0.1559
 3693TIP3    H111024   0.524   5.732   6.272  1.7747  1.3557  1.9260
 3693TIP3    H211025   0.661   5.688   6.225  0.4311 -0.1585 -0.8193
 3694TIP3   OH211026   3.842   2.209   3.485 -0.1101 -0.3757  0.0789
 3694TIP3    H111027   3.809   2.158   3.558 -1.4461 -1.4459 -1.1988
 3694TIP3    H211028   3.805   2.297   3.498 -1.5365 -0.9388 -0.0567
 3695TIP3   OH211029   0.522   5.255   5.096 -0.2389  0.2354 -0.3100
 3695TIP3    H111030   0.462   5.286   5.028 -2.0407  1.4918  1.7204
 3695TIP3    H211031   0.466   5.241   5.173  1.9089  0.3839  1.3876
 3696TIP3   OH211032   7.750   3.553   2.751  0.0216  0.2490  0.2421
 3696TIP3    H111033   7.800   3.529   2.829 -0.4001 -0.9434  0.1572
 3696TIP3    H211034   7.750   3.474   2.697  0.6414  1.1683 -1.1655
 3697TIP3   OH211035   2.223   5.900   2.381 -0.9884 -0.2644  0.0060
 3697TIP3    H111036   2.288   5.830   2.383 -0.1514  0.4572 -0.9117
 3697TIP3    H211037   2.182   5.897   2.467  0.1623 -0.8372  0.5637
 3698TIP3   OH211038   5.698   0.824   4.824  0.4094 -0.0584 -0.6062
 3698TIP3    H111039   5.779   0.874   4.829  0.7715 -0.6641 -0.2337
 3698TIP3    H211040   5.678   0.803   4.916  0.9895 -1.7076 -0.8163
 3699TIP3   OH211041   5.145   5.993   6.225  0.3407  0.0033  0.6407
 3699TIP3    H111042   5.099   5.998   6.309  0.3958  1.0400  0.6254
 3699TIP3    H211043   5.234   5.965   6.248  0.4188  0.4972  0.9647
 3700TIP3   OH211044   1.203   1.707   1.335 -0.2810 -0.4849  0.3947
 3700TIP3    H111045   1.295   1.704   1.362  0.0710 -0.1341 -0.7330
 3700TIP3    H211046   1.187   1.621   1.296 -0.7098 -0.8879  1.4274
 3701TIP3   OH211047   6.815   2.382   1.026  0.1665  0.5833  0.3000
 3701TIP3    H111048   6.858   2.299   1.045  0.6569  1.1813  1.9534
 3701TIP3    H211049   6.724   2.370   1.055 -0.4964 -0.1885 -1.8530
 3702TIP3   OH211050   0.780   7.397   2.276  0.2227 -0.2309 -1.0898
 3702TIP3    H111051   0.755   7.487   2.292  1.6491 -0.2532  2.0333
 3702TIP3    H211052   0.875   7.396   2.287  0.1896 -2.1847 -0.5672
 3703TIP3   OH211053   4.972   5.194   3.265 -0.1791 -0.2803 -0.0129
 3703TIP3    H111054   5.027   5.271   3.278  0.7178 -0.7664 -0.8429
 3703TIP3    H211055   4.952   5.163   3.354 -0.2266  0.6675  0.3152
 3704TIP3   OH211056   3.458   5.601   4.426  0.1552 -0.1461  0.5668
 3704TIP3    H111057   3.417   5.544   4.490  0.3523 -2.5091 -1.2800
 3704TIP3    H211058   3.396   5.604   4.353  1.3709 -0.3249 -0.5245
 3705TIP3   OH211059   1.767   0.173   0.932 -0.2045 -0.2147  0.8758
 3705TIP3    H111060   1.836   0.193   0.995 -2.0680  2.8318  2.1753
 3705TIP3    H211061   1.796   0.214   0.850  0.5837 -1.0718  0.7100
 3706TIP3   OH211062   6.927   4.489   4.037  0.3952  0.3139 -0.4862
 3706TIP3    H111063   6.992   4.557   4.021 -0.0797  1.0420  0.5660
 3706TIP3    H211064   6.977   4.415   4.072  0.5880  1.1696  1.1434
 3707TIP3   OH211065   7.187   5.200   1.938  0.5403  0.3675  0.4374
 3707TIP3    H111066   7.264   5.241   1.899 -0.2726  1.6466  0.1360
 3707TIP3    H211067   7.159   5.135   1.873 -0.4323  2.0470 -0.8852
 3708TIP3   OH211068   2.247   2.474   1.530 -0.6122  0.1681  0.2288
 3708TIP3    H111069   2.246   2.421   1.610 -1.2038 -0.4140 -0.1557
 3708TIP3    H211070   2.295   2.553   1.555  0.5895 -0.6863  0.7281
 3709TIP3   OH211071   5.498   2.121   3.132  0.2085  0.0717  0.1354
 3709TIP3    H111072   5.479   2.138   3.225 -0.6543 -0.9898  0.1796
 3709TIP3    H211073   5.437   2.051   3.108  0.0995  0.6426 -1.3663
 3710TIP3   OH211074   5.649   3.237   6.725 -0.4480  0.6507 -0.3554
 3710TIP3    H111075   5.694   3.300   6.669  1.7479 -0.4554  0.0623
 3710TIP3    H211076   5.621   3.167   6.666  3.9697 -1.7121 -0.0107
 3711TIP3   OH211077   2.718   6.031   5.202  0.4667 -0.4844 -0.0110
 3711TIP3    H111078   2.739   6.094   5.271  0.3070 -0.5656  0.1126
 3711TIP3    H211079   2.742   6.075   5.121 -2.3395  0.9140 -0.2051
 3712TIP3   OH211080   1.749   2.317   3.993 -0.3364  0.3542 -0.1421
 3712TIP3    H111081   1.844   2.304   3.995 -0.3100  0.3528 -0.9788
 3712TIP3    H211082   1.738   2.411   3.982 -0.3936  0.1793 -1.7377
 3713TIP3   OH211083   6.809   0.606   0.936  0.4434 -0.3012  0.1947
 3713TIP3    H111084   6.751   0.549   0.885  1.4376 -1.9418  0.8496
 3713TIP3    H211085   6.897   0.578   0.912  1.0644  2.3427 -1.0038
 3714TIP3   OH211086   0.752   4.821   5.563  0.4552 -0.0197  0.1015
 3714TIP3    H111087   0.812   4.896   5.559 -0.6704  1.0369  1.6282
 3714TIP3    H211088   0.665   4.860   5.558 -0.1677 -1.2082  1.0761
 3715TIP3   OH211089   8.315   4.988   1.395  0.7501 -0.2729 -0.2077
 3715TIP3    H111090   8.316   5.082   1.416  0.4209 -0.1372 -0.7680
 3715TIP3    H211091   8.244   4.979   1.332  0.3263 -1.0172  0.3582
 3716TIP3   OH211092   3.034   0.599   3.369  0.0037 -0.2913 -0.0670
 3716TIP3    H111093   3.103   0.651   3.327 -1.7498  2.4386  0.1382
 3716TIP3    H211094   3.033   0.632   3.460 -0.2578 -1.7514  0.4828
 3717TIP3   OH211095   1.326   3.203   3.755  0.6306  0.0396  0.0222
 3717TIP3    H111096   1.353   3.120   3.794  0.2835  1.0091  2.4970
 3717TIP3    H211097   1.400   3.228   3.699  1.8511 -0.7180  1.2238
 3718TIP3   OH211098   3.398   2.701   2.169 -0.2865  0.0230 -0.1310
 3718TIP3    H111099   3.479   2.680   2.123 -0.2954  0.1346 -0.1992
 3718TIP3    H211100   3.344   2.623   2.160 -0.7999  0.5111 -1.4353
 3719TIP3   OH211101   4.513   3.445   6.240  0.2732  0.3733  0.2948
 3719TIP3    H111102   4.591   3.473   6.290  0.0984  0.3358  0.5910
 3719TIP3    H211103   4.536   3.463   6.149  0.5096  0.6606  0.4062
 3720TIP3   OH211104   0.136   4.817   6.236  0.1615 -0.3041  0.4835
 3720TIP3    H111105   0.183   4.790   6.157  0.5459 -0.3790  0.7382
 3720TIP3    H211106   0.127   4.912   6.226  0.8758 -0.2097  0.7062
 3721TIP3   OH211107   0.373   5.208   5.327  0.8339  0.4984 -0.1862
 3721TIP3    H111108   0.317   5.270   5.373  2.6860  1.3800  1.0185
 3721TIP3    H211109   0.372   5.129   5.381 -0.1248  0.0865 -0.7831
 3722TIP3   OH211110   5.696   2.292   1.565  0.0994  0.9674  0.2808
 3722TIP3    H111111   5.628   2.357   1.549  0.8323  1.1398 -3.0525
 3722TIP3    H211112   5.778   2.338   1.546  0.6280 -0.8222 -2.4081
 3723TIP3   OH211113   6.113   5.941   0.241  0.1404  0.0766 -0.2784
 3723TIP3    H111114   6.051   5.873   0.268  1.7770 -0.8291  1.4534
 3723TIP3    H211115   6.106   6.008   0.309 -0.8179  1.2678 -1.5022
 3724TIP3   OH211116   3.842   3.904   1.904  0.1702 -0.2824  0.4080
 3724TIP3    H111117   3.856   3.930   1.813 -2.9900  1.2677  0.2266
 3724TIP3    H211118   3.820   3.985   1.949 -0.5587 -1.3378  2.0493
 3725TIP3   OH211119   6.182   0.414   3.635 -0.0164  0.0745  0.3426
 3725TIP3    H111120   6.115   0.465   3.590 -1.4328  1.6507  3.9185
 3725TIP3    H211121   6.265   0.448   3.600 -0.9691  2.9049  0.5926
 3726TIP3   OH211122   2.179   4.430   3.123 -0.6495 -0.2034 -0.0883
 3726TIP3    H111123   2.261   4.380   3.114  0.2412  1.2874 -0.6503
 3726TIP3    H211124   2.194   4.485   3.200 -1.0880  0.1397 -0.2481
 3727TIP3   OH211125   0.933   0.648   5.806 -0.0393 -0.2503 -0.0099
 3727TIP3    H111126   0.942   0.740   5.782  1.5580 -0.1624  0.7922
 3727TIP3    H211127   0.970   0.600   5.732  1.6975 -0.1091  0.7193
 3728TIP3   OH211128   1.576   1.604   0.317  0.2161  0.0705  0.2015
 3728TIP3    H111129   1.554   1.511   0.310 -1.8759  0.5558 -0.6348
 3728TIP3    H211130   1.588   1.619   0.411  1.5534 -1.2175  0.2607
 3729TIP3   OH211131   7.612   2.259   0.436 -0.4305 -0.4743  0.3437
 3729TIP3    H111132   7.608   2.328   0.370  1.8987  0.3503  0.9563
 3729TIP3    H211133   7.607   2.177   0.387  0.2209  0.1344 -0.7761
 3730TIP3   OH211134   0.663   2.604   3.833  0.3004 -0.7389 -0.2169
 3730TIP3    H111135   0.581   2.566   3.802 -0.7189  0.6623  0.6614
 3730TIP3    H211136   0.713   2.621   3.753 -0.9904 -0.0248 -0.9029
 3731TIP3   OH211137   4.415   1.400   5.038 -0.3569 -0.3663 -0.4973
 3731TIP3    H111138   4.511   1.404   5.039 -0.2342 -1.1253  2.5888
 3731TIP3    H211139   4.395   1.307   5.047 -1.2357 -0.0323  1.8238
 3732TIP3   OH211140   1.984   5.190   2.056  0.1143 -0.3142  0.3586
 3732TIP3    H111141   1.912   5.127   2.051 -0.9160  0.7397  1.3352
 3732TIP3    H211142   2.053   5.151   2.002 -0.9599 -1.6358 -0.1374
 3733TIP3   OH211143   8.005   3.973   2.386  0.0384  0.3707 -1.0643
 3733TIP3    H111144   8.009   4.053   2.439  0.2338 -0.1511 -0.2751
 3733TIP3    H211145   8.073   3.917   2.423 -0.3286 -0.3004 -1.3974
 3734TIP3   OH211146   3.354   2.533   1.744  0.4518  0.4302  0.2424
 3734TIP3    H111147   3.292   2.601   1.718  0.8191  0.5769 -0.2900
 3734TIP3    H211148   3.383   2.495   1.661  0.8622  0.1781  0.4966
 3735TIP3   OH211149   1.333   1.264   6.393 -0.3142  0.1119 -0.2412
 3735TIP3    H111150   1.370   1.325   6.458 -0.2108 -1.3841  1.1509
 3735TIP3    H211151   1.407   1.209   6.367 -0.5728  0.0741 -0.9292
 3736TIP3   OH211152   1.559   4.634   4.567  0.2943  0.1198 -0.0788
 3736TIP3    H111153   1.654   4.646   4.565  0.3763 -0.5816 -1.7121
 3736TIP3    H211154   1.523   4.718   4.537  0.3857  0.3575  0.4614
 3737TIP3   OH211155   7.990   1.049   1.790 -0.0055  0.4039  0.4120
 3737TIP3    H111156   7.976   1.059   1.884  2.1537  0.8474  0.7327
 3737TIP3    H211157   7.912   1.005   1.759 -0.3555 -0.6205  2.5798
 3738TIP3   OH211158   6.888   1.130   3.208  0.0871 -0.0481 -0.6619
 3738TIP3    H111159   6.888   1.051   3.262 -0.1372 -0.0097 -0.6056
 3738TIP3    H211160   6.829   1.110   3.135  0.2930 -0.0551 -0.8281
 3739TIP3   OH211161   0.665   6.153   4.064 -0.3812 -0.0821  0.3365
 3739TIP3    H111162   0.629   6.165   4.152 -0.4345 -0.7712  0.4115
 3739TIP3    H211163   0.749   6.110   4.078 -1.0999 -1.6845 -0.0127
 3740TIP3   OH211164   3.835   5.141   4.167  0.2664  0.2080  0.0750
 3740TIP3    H111165   3.830   5.067   4.227 -1.1915  0.2078 -0.0136
 3740TIP3    H211166   3.767   5.201   4.196  0.0457  0.5602 -1.1005
 3741TIP3   OH211167   2.192   4.428   4.015 -0.0581 -0.3175  0.0987
 3741TIP3    H111168   2.264   4.395   3.961 -1.1459 -0.2129 -1.4893
 3741TIP3    H211169   2.225   4.424   4.105  1.6503 -0.9466 -0.5238
 3742TIP3   OH211170   2.179   1.247   6.273 -0.2807  0.3696 -0.4810
 3742TIP3    H111171   2.242   1.186   6.233  1.5363  1.2200  0.9494
 3742TIP3    H211172   2.231   1.299   6.334 -2.6224  0.1655  1.8840
 3743TIP3   OH211173   7.655   0.925   5.424 -0.3763  0.1984  0.2805
 3743TIP3    H111174   7.601   0.938   5.346 -0.3092  2.9266  0.5736
 3743TIP3    H211175   7.601   0.956   5.496 -0.6904 -2.9085  1.5142
 3744TIP3   OH211176   4.879   5.714   3.085  0.6367 -1.1002 -0.0278
 3744TIP3    H111177   4.935   5.780   3.125 -0.8870  0.9250 -1.0748
 3744TIP3    H211178   4.859   5.653   3.156  1.8901 -0.3163  1.0406
 3745TIP3   OH211179   4.912   6.339   5.329  0.1159 -0.5834  0.6301
 3745TIP3    H111180   4.871   6.425   5.324 -0.6048 -0.9364  0.4651
 3745TIP3    H211181   4.990   6.353   5.384  1.8218  0.8786 -1.9468
 3746TIP3   OH211182   4.147   4.972   3.141  0.4677  0.0826 -0.2022
 3746TIP3    H111183   4.081   4.986   3.208 -2.7678 -2.6283 -2.5053
 3746TIP3    H211184   4.196   4.895   3.171  0.7434  0.4228  0.2226
 3747TIP3   OH211185   3.738   5.425   5.800  0.3092  0.2146  0.2300
 3747TIP3    H111186   3.684   5.369   5.856  1.0613 -0.9900 -0.2048
 3747TIP3    H211187   3.759   5.371   5.725  0.1307  1.4868 -0.7733
 3748TIP3   OH211188   2.645   1.703   1.480 -0.1667  0.1100 -0.1823
 3748TIP3    H111189   2.708   1.701   1.551  0.8791 -0.9227 -1.0967
 3748TIP3    H211190   2.576   1.643   1.506 -1.4510  2.1386  1.3653
 3749TIP3   OH211191   6.697   2.017   1.241  0.2927 -0.2049 -0.8726
 3749TIP3    H111192   6.657   2.103   1.239  0.8242  0.0693 -0.1098
 3749TIP3    H211193   6.624   1.956   1.235 -0.3632  0.2756  1.3324
 3750TIP3   OH211194   2.058   0.793   0.845  0.3373  0.5949 -0.1228
 3750TIP3    H111195   2.130   0.857   0.842  0.3740  0.6544  1.3465
 3750TIP3    H211196   1.988   0.839   0.890 -0.0630 -0.0090 -0.1307
 3751TIP3   OH211197   7.536   4.048   1.906  0.8011  0.5948 -0.1833
 3751TIP3    H111198   7.497   3.979   1.853  2.2795  0.8720 -1.7052
 3751TIP3    H211199   7.630   4.030   1.905  1.0508  1.6585  0.8420
 3752TIP3   OH211200   1.887   3.087   1.974  0.0164  0.5214 -0.3399
 3752TIP3    H111201   1.948   3.028   2.020  0.0473  1.2172  0.5415
 3752TIP3    H211202   1.801   3.064   2.009  0.0088  0.8781 -0.1177
 3753TIP3   OH211203   1.032   4.193   4.383 -0.9361 -0.4323  0.0799
 3753TIP3    H111204   1.025   4.135   4.459  1.6378 -1.2954 -0.2618
 3753TIP3    H211205   1.116   4.237   4.394 -1.5904  1.2178 -1.1119
 3754TIP3   OH211206   4.292   5.987   2.281  0.1152  0.1057 -0.6187
 3754TIP3    H111207   4.329   5.918   2.337  0.7498 -0.3136 -1.5464
 3754TIP3    H211208   4.199   5.989   2.305  0.3521 -0.1401  0.3696
 3755TIP3   OH211209   3.357   0.846   1.034 -0.4241 -0.1785  0.9217
 3755TIP3    H111210   3.308   0.780   1.084 -0.3849 -0.5988  0.4179
 3755TIP3    H211211   3.371   0.917   1.096 -0.1673 -0.7889  1.5833
 3756TIP3   OH211212   1.295   0.301   0.396 -0.1255  0.5303  1.0232
 3756TIP3    H111213   1.388   0.325   0.395  0.0893 -0.3039  0.2571
 3756TIP3    H211214   1.249   0.385   0.395  0.6214  0.9503  0.2772
 3757TIP3   OH211215   3.819   0.188   0.161 -0.0751 -0.1708 -0.4595
 3757TIP3    H111216   3.772   0.205   0.079 -2.6175 -2.6013  0.3055
 3757TIP3    H211217   3.807   0.267   0.213 -0.3119  0.5750 -1.6040
 3758TIP3   OH211218   2.426   6.221   2.198 -0.0745 -0.6258  0.0482
 3758TIP3    H111219   2.369   6.298   2.199 -0.1757 -0.6288 -1.6559
 3758TIP3    H211220   2.407   6.176   2.280  0.4096  1.4460  1.3968
 3759TIP3   OH211221   7.273   6.411   6.691  0.8060  0.3202  0.1601
 3759TIP3    H111222   7.273   6.320   6.663  0.6749  0.6837 -1.0957
 3759TIP3    H211223   7.201   6.417   6.755  0.6520 -0.3950  0.0606
 3760TIP3   OH211224   3.864   0.367   6.061  0.1045 -0.0200  0.5084
 3760TIP3    H111225   3.891   0.441   6.116  1.0121 -0.6928  0.9895
 3760TIP3    H211226   3.770   0.361   6.074 -0.2186  1.8795 -0.5872
 3761TIP3   OH211227   5.137   1.828   1.220  0.7259  0.5274  0.6476
 3761TIP3    H111228   5.050   1.864   1.233  0.2660 -0.5412  0.6241
 3761TIP3    H211229   5.195   1.887   1.269 -0.2700 -0.0507  2.6261
 3762TIP3   OH211230   0.715   4.201   5.813 -0.3354  0.3236  0.5407
 3762TIP3    H111231   0.727   4.272   5.750 -0.0148 -0.0586  0.1654
 3762TIP3    H211232   0.641   4.151   5.777  0.4593 -0.4445 -0.0501
 3763TIP3   OH211233   6.868   6.828   6.422  0.1083 -0.2721  0.1349
 3763TIP3    H111234   6.889   6.737   6.443  1.0810  0.2435  1.5802
 3763TIP3    H211235   6.953   6.870   6.408 -0.2000  0.8111  1.3154
 3764TIP3   OH211236   0.481   4.857   3.962 -0.1392  0.1139  0.3053
 3764TIP3    H111237   0.525   4.800   3.898 -0.4238 -0.0036  0.2134
 3764TIP3    H211238   0.444   4.927   3.909  0.9693  0.8778  0.5105
 3765TIP3   OH211239   2.090   3.655   5.384  0.2719 -0.0087 -0.0172
 3765TIP3    H111240   2.156   3.632   5.319  0.2566  0.6214 -0.2635
 3765TIP3    H211241   2.137   3.705   5.451  0.7013 -2.3164  1.5250
 3766TIP3   OH211242   1.818   1.418   1.108  0.0156  0.4253  0.0367
 3766TIP3    H111243   1.897   1.468   1.126  1.1553 -1.3783  0.2654
 3766TIP3    H211244   1.838   1.370   1.027 -1.5026  1.1909 -0.8519
 3767TIP3   OH211245   1.589   5.649   2.789  0.2567 -0.0363  0.0666
 3767TIP3    H111246   1.498   5.671   2.810  0.7725  1.2857  1.0585
 3767TIP3    H211247   1.600   5.677   2.698 -0.2442  0.1303  0.0537
 3768TIP3   OH211248   4.262   0.381   5.390 -0.1345 -0.3638 -0.3410
 3768TIP3    H111249   4.174   0.367   5.423  0.0147  0.6093  0.4838
 3768TIP3    H211250   4.258   0.351   5.299 -0.5353 -3.1553  0.5030
 3769TIP3   OH211251   2.797   3.034   1.150  0.4500  0.6518  0.2343
 3769TIP3    H111252   2.882   3.063   1.182  1.8278 -1.4582 -1.2124
 3769TIP3    H211253   2.752   3.001   1.228  2.0251 -0.5664  0.6788
 3770TIP3   OH211254   4.836   2.887   5.873  0.0084 -0.4856  0.1325
 3770TIP3    H111255   4.898   2.816   5.858  1.1658  0.6475 -0.6566
 3770TIP3    H211256   4.755   2.857   5.831  0.7175 -1.0050 -0.9083
 3771TIP3   OH211257   1.081   0.721   4.740  0.0242 -0.3843 -0.0128
 3771TIP3    H111258   1.076   0.704   4.646  2.2067 -1.1665 -0.0471
 3771TIP3    H211259   1.045   0.642   4.781 -2.2605  0.5373 -0.1473
 3772TIP3   OH211260   3.055   3.438   4.942 -0.3204  0.1471  0.3337
 3772TIP3    H111261   3.072   3.368   4.879  0.2994 -0.3428  1.0337
 3772TIP3    H211262   2.959   3.442   4.950 -0.3744 -0.2197 -0.1460
 3773TIP3   OH211263   0.227   2.339   6.641 -0.0376  0.3403 -0.2174
 3773TIP3    H111264   0.165   2.308   6.574 -0.8943 -1.6473  1.3923
 3773TIP3    H211265   0.179   2.405   6.690  0.0016  0.5754 -0.4908
 3774TIP3   OH211266   4.863   0.814   5.257  0.0130 -0.1814 -0.1077
 3774TIP3    H111267   4.906   0.898   5.273  1.1022 -0.4612 -1.4075
 3774TIP3    H211268   4.870   0.801   5.163 -2.9345 -0.2666 -0.4004
 3775TIP3   OH211269   1.701   6.368   4.373  0.0857 -0.2718 -0.5181
 3775TIP3    H111270   1.677   6.302   4.309 -1.4872 -0.2032 -0.0383
 3775TIP3    H211271   1.735   6.441   4.321  0.2214 -0.7953 -1.1667
 3776TIP3   OH211272   3.811   6.720   4.040 -0.0529  0.3093 -0.6317
 3776TIP3    H111273   3.816   6.725   4.136  4.0655  3.7134 -0.7119
 3776TIP3    H211274   3.855   6.638   4.018 -2.7946 -1.5515  0.2083
 3777TIP3   OH211275   2.917   5.940   6.149 -0.3624 -0.2833  0.6684
 3777TIP3    H111276   2.898   5.914   6.059  0.1842  1.8373 -0.1337
 3777TIP3    H211277   2.878   6.027   6.157  1.5227  0.5317  1.7207
 3778TIP3   OH211278   5.596   7.314   6.146  0.0916 -0.4248  0.7679
 3778TIP3    H111279   5.586   7.266   6.064  1.6367  2.1443 -1.0681
 3778TIP3    H211280   5.556   7.257   6.212 -1.8447 -2.3151 -1.8135
 3779TIP3   OH211281   1.115   7.338   4.169 -0.0976  0.0222 -0.2909
 3779TIP3    H111282   1.052   7.268   4.151 -0.0663 -0.5115  1.4545
 3779TIP3    H211283   1.097   7.405   4.103 -2.2606 -0.2723 -0.0554
 3780TIP3   OH211284   2.777   2.143   2.708  0.5600 -0.0451 -0.2217
 3780TIP3    H111285   2.716   2.197   2.758 -0.7109  0.0217 -1.7549
 3780TIP3    H211286   2.753   2.053   2.730  0.4776 -0.0157 -0.1916
 3781TIP3   OH211287   0.936   7.009   5.494  0.3831  0.4504  0.3480
 3781TIP3    H111288   0.967   6.980   5.580 -0.2339 -0.3458  0.3127
 3781TIP3    H211289   0.949   7.104   5.494  3.5188  0.1462  0.0661
 3782TIP3   OH211290   3.928   7.543   2.631  0.3341  0.1569  0.1023
 3782TIP3    H111291   3.903   7.551   2.539 -3.3161 -1.5878  0.7494
 3782TIP3    H211292   3.858   7.588   2.678  0.6406 -1.3213  2.0712
 3783TIP3   OH211293   2.766   0.747   3.680 -0.5457  0.4475 -0.1584
 3783TIP3    H111294   2.754   0.805   3.756 -1.2525 -0.5138  0.4877
 3783TIP3    H211295   2.688   0.691   3.680  0.2089 -0.6379 -0.6465
 3784TIP3   OH211296   0.329   5.933   0.570  0.3916 -0.2477  0.1654
 3784TIP3    H111297   0.250   5.896   0.529  0.0622 -0.6018  1.1082
 3784TIP3    H211298   0.299   6.013   0.613  1.0033  0.8986 -1.4181
 3785TIP3   OH211299   4.497   5.767   0.021 -0.3660 -0.5669  0.1476
 3785TIP3    H111300   4.416   5.777   0.071 -1.3866  1.2235 -1.6980
 3785TIP3    H211301   4.525   5.856   0.002  0.7345 -1.1743 -1.2905
 3786TIP3   OH211302   7.474   2.389   5.010 -0.7149 -0.5388  0.1468
 3786TIP3    H111303   7.480   2.481   4.985  0.4027 -1.0475 -1.7189
 3786TIP3    H211304   7.415   2.350   4.945 -0.2258 -1.3424  0.1687
 3787TIP3   OH211305   7.635   0.274   6.448  0.6431 -0.2194  0.7026
 3787TIP3    H111306   7.730   0.264   6.460  0.5466  0.0307  1.7188
 3787TIP3    H211307   7.620   0.247   6.357  1.1509 -4.0559  1.6189
 3788TIP3   OH211308   1.988   3.809   0.526 -0.2487 -0.1785 -0.1658
 3788TIP3    H111309   2.032   3.871   0.468 -0.1632 -0.4133 -0.3541
 3788TIP3    H211310   1.966   3.859   0.604  0.9985 -0.2447  0.2390
 3789TIP3   OH211311   2.775   5.474   5.470  0.0512  0.5214  0.2841
 3789TIP3    H111312   2.822   5.422   5.535 -0.1395 -0.5679 -0.4026
 3789TIP3    H211313   2.813   5.448   5.386 -0.9003  0.5434 -0.1776
 3790TIP3   OH211314   1.986   0.104   0.714 -0.2986 -0.2697  0.6178
 3790TIP3    H111315   2.076   0.117   0.683 -0.0808 -2.0203  0.4112
 3790TIP3    H211316   1.931   0.134   0.642  0.1411 -0.1347  0.3338
 3791TIP3   OH211317   6.197   4.501   4.522  0.4219  0.6126  0.2816
 3791TIP3    H111318   6.134   4.549   4.575  2.0357  1.9367  1.0673
 3791TIP3    H211319   6.232   4.566   4.461  1.3274  0.0169  0.1442
 3792TIP3   OH211320   3.809   4.215   5.140 -0.7196 -0.1244  0.1478
 3792TIP3    H111321   3.747   4.284   5.120 -1.2025 -0.0782  1.7049
 3792TIP3    H211322   3.894   4.259   5.144 -1.0665  0.4523  1.4274
 3793TIP3   OH211323   0.960   4.176   5.036  0.0036  0.1510  0.0541
 3793TIP3    H111324   0.966   4.206   5.127  2.3104 -1.2277  0.4433
 3793TIP3    H211325   0.870   4.144   5.026 -0.9364  2.2917  1.1512
 3794TIP3   OH211326   7.154   0.107   6.055  0.1029 -0.0397 -0.4455
 3794TIP3    H111327   7.150   0.190   6.104 -0.8964  0.2872 -1.0473
 3794TIP3    H211328   7.247   0.092   6.041  0.4374 -0.1474  1.5421
 3795TIP3   OH211329   1.605   7.057   0.175 -0.1588 -0.1013  0.9667
 3795TIP3    H111330   1.620   7.145   0.208  1.3263 -0.0103  0.1427
 3795TIP3    H211331   1.535   7.068   0.110  1.5237  0.9247 -0.7870
 3796TIP3   OH211332   7.512   1.324   3.448 -0.1059  0.5711  0.2484
 3796TIP3    H111333   7.439   1.366   3.403 -1.8152 -2.4323 -0.0011
 3796TIP3    H211334   7.503   1.231   3.428  4.6080  0.1079 -0.8648
 3797TIP3   OH211335   4.552   7.022   1.214 -0.0097 -0.7898  0.3456
 3797TIP3    H111336   4.619   7.017   1.282  0.4495 -1.6634 -0.1526
 3797TIP3    H211337   4.518   7.112   1.220  1.2320 -0.3201  0.5721
 3798TIP3   OH211338   1.753   3.507   4.077  0.1161 -0.1084 -0.0588
 3798TIP3    H111339   1.783   3.418   4.060  0.5890  0.2575 -1.2030
 3798TIP3    H211340   1.658   3.501   4.080  0.1499 -0.6524 -0.1143
 3799TIP3   OH211341   4.984   1.537   0.149 -0.3495 -0.0876 -0.0131
 3799TIP3    H111342   4.994   1.572   0.060 -0.8698 -0.9224 -0.4183
 3799TIP3    H211343   5.071   1.544   0.188 -0.3338  1.1635 -0.2534
 3800TIP3   OH211344   6.106   3.489   0.876  0.1642  0.6589  0.3231
 3800TIP3    H111345   6.098   3.556   0.944  2.0728 -0.3534  1.6542
 3800TIP3    H211346   6.178   3.519   0.821  0.0978  0.3768  0.0804
 3801TIP3   OH211347   2.382   4.802   2.956 -0.2296  0.2136  0.3531
 3801TIP3    H111348   2.315   4.751   2.911 -0.0958  0.0587  0.3266
 3801TIP3    H211349   2.418   4.859   2.888 -1.0731  1.0746  0.6098
 3802TIP3   OH211350   6.318   1.634   6.096 -0.4935  0.0243  0.1786
 3802TIP3    H111351   6.369   1.713   6.078 -1.0978  0.2538 -0.6223
 3802TIP3    H211352   6.309   1.592   6.010 -1.8879  0.1456  0.2429
 3803TIP3   OH211353   2.281   6.472   2.680  0.2820 -0.2295 -0.7125
 3803TIP3    H111354   2.319   6.499   2.764 -0.0985  1.0559 -0.9250
 3803TIP3    H211355   2.353   6.429   2.634  1.7685  2.6532 -1.3340
 3804TIP3   OH211356   0.810   7.280   3.487  0.0207  0.1924  0.0412
 3804TIP3    H111357   0.778   7.190   3.478 -0.5278  0.0815  2.4197
 3804TIP3    H211358   0.906   7.272   3.484 -0.0245 -0.4844  0.2831
 3805TIP3   OH211359   5.748   0.068   0.460  0.4261  0.0135 -0.0293
 3805TIP3    H111360   5.711  -0.020   0.452  0.8843 -0.2607  0.7656
 3805TIP3    H211361   5.737   0.091   0.552 -3.5497  2.5443 -0.8972
 3806TIP3   OH211362   6.174   3.079   6.254 -0.1852 -0.4846  0.0352
 3806TIP3    H111363   6.172   3.016   6.182  1.2333  0.5421 -0.9711
 3806TIP3    H211364   6.117   3.150   6.225  1.1184  0.3618 -0.5476
 3807TIP3   OH211365   7.721   6.803   4.958  0.2007  0.8655 -0.1435
 3807TIP3    H111366   7.736   6.843   5.044  0.1952 -1.1449  0.8519
 3807TIP3    H211367   7.706   6.711   4.977  0.1008  0.3829 -2.3211
 3808TIP3   OH211368   1.514   6.522   5.282  0.3581  0.3839  0.0031
 3808TIP3    H111369   1.485   6.486   5.366  0.9985  0.8226  0.4220
 3808TIP3    H211370   1.606   6.544   5.296  1.4719 -2.5137 -1.7807
 3809TIP3   OH211371   6.774   7.073   5.731 -0.0021 -0.2402 -0.6666
 3809TIP3    H111372   6.705   7.064   5.796 -0.9658  1.9306 -1.3181
 3809TIP3    H211373   6.852   7.036   5.774 -1.2846 -1.7742  0.4674
 3810TIP3   OH211374   7.924   2.717   6.453  0.1498  0.2695  0.2266
 3810TIP3    H111375   7.890   2.676   6.374  0.2881 -0.2665  0.4440
 3810TIP3    H211376   8.009   2.753   6.427 -0.6942  1.9099 -0.4090
 3811TIP3   OH211377   5.207   1.098   6.597  0.5226  0.0840 -0.3289
 3811TIP3    H111378   5.259   1.133   6.669  2.0099  0.7695 -1.6697
 3811TIP3    H211379   5.229   1.154   6.522 -3.3345  1.4125 -0.6744
 3812TIP3   OH211380   2.719   7.159   2.362  0.4689  0.4760 -0.2404
 3812TIP3    H111381   2.785   7.185   2.298  1.2939  0.1602  0.4718
 3812TIP3    H211382   2.742   7.070   2.386 -2.2947 -1.0683 -2.6038
 3813TIP3   OH211383   6.815   7.317   4.075 -0.1862  0.1984  0.7141
 3813TIP3    H111384   6.862   7.336   3.994  0.4959  2.6057  1.6039
 3813TIP3    H211385   6.881   7.321   4.144 -1.2776  1.5737  1.7559
 3814TIP3   OH211386   7.879   1.510   3.426 -0.1311  0.1406  0.0848
 3814TIP3    H111387   7.833   1.440   3.472 -0.8368  0.4886 -0.0807
 3814TIP3    H211388   7.955   1.467   3.388  0.8154 -0.0311  2.0725
 3815TIP3   OH211389   2.359   5.565   2.103  0.1381 -0.2490  0.3012
 3815TIP3    H111390   2.279   5.576   2.051 -0.9760 -1.2607  1.7402
 3815TIP3    H211391   2.343   5.613   2.184  0.7647 -0.8965  0.8260
 3816TIP3   OH211392   5.323   0.317   3.515 -0.5486 -0.0818 -0.5815
 3816TIP3    H111393   5.302   0.346   3.427 -2.7758 -1.3416 -0.5446
 3816TIP3    H211394   5.239   0.318   3.561  0.9058  3.4947  2.5395
 3817TIP3   OH211395   3.639   5.649   3.443 -0.2923  0.8790 -0.1061
 3817TIP3    H111396   3.571   5.614   3.386 -0.2182  0.4166  0.0843
 3817TIP3    H211397   3.604   5.733   3.473 -0.4959  0.9481 -0.5227
 3818TIP3   OH211398   6.806   5.730   5.269 -0.4787  0.2817 -0.6421
 3818TIP3    H111399   6.829   5.822   5.255  0.6288 -0.1244 -1.6311
 3818TIP3    H211400   6.769   5.702   5.186 -0.5125 -0.2547 -0.4481
 3819TIP3   OH211401   7.822   3.733   3.663  0.2739 -0.2682  0.2708
 3819TIP3    H111402   7.794   3.675   3.734 -0.2986 -0.8651 -0.4211
 3819TIP3    H211403   7.830   3.819   3.704 -2.6235 -0.0335  0.5868
 3820TIP3   OH211404   1.573   2.343   1.691 -0.2957  0.3911  0.0628
 3820TIP3    H111405   1.539   2.356   1.602 -0.6297 -0.1886  0.1022
 3820TIP3    H211406   1.597   2.251   1.695 -0.5619  0.3387  0.6626
 3821TIP3   OH211407   8.094   4.689   0.323  0.1303 -0.2095  0.3118
 3821TIP3    H111408   8.147   4.756   0.281 -1.0997  0.4310 -0.2564
 3821TIP3    H211409   8.007   4.698   0.284 -0.8059 -0.2450  2.2530
 3822TIP3   OH211410   0.149   1.522   3.586  0.3542 -0.1675 -1.0181
 3822TIP3    H111411   0.155   1.471   3.667 -1.0500  1.7118  0.3513
 3822TIP3    H211412   0.056   1.524   3.566  0.5745  0.3849 -2.0251
 3823TIP3   OH211413   5.509   4.504   2.935  0.0739 -0.1272 -0.2023
 3823TIP3    H111414   5.416   4.523   2.920  0.0697 -0.5683 -0.7659
 3823TIP3    H211415   5.509   4.424   2.987  0.1418 -0.5408 -0.8248
 3824TIP3   OH211416   4.180   4.886   5.663  0.3943 -0.2671 -0.6588
 3824TIP3    H111417   4.233   4.965   5.675 -0.2469 -0.0680  1.1239
 3824TIP3    H211418   4.208   4.852   5.578 -0.0789  2.4696 -2.0433
 3825TIP3   OH211419   1.135   6.001   1.780  0.1141  0.1969 -0.6205
 3825TIP3    H111420   1.142   6.060   1.705  2.5735  1.7163  0.6597
 3825TIP3    H211421   1.065   6.037   1.833  1.1571  1.6625 -0.1806
 3826TIP3   OH211422   2.418   6.211   4.174  0.7968  0.4462 -0.1713
 3826TIP3    H111423   2.388   6.291   4.132 -0.4306 -0.0633 -0.3003
 3826TIP3    H211424   2.410   6.144   4.105  0.1518 -0.1120  0.4282
 3827TIP3   OH211425   4.297   3.610   1.088 -0.0908 -0.3202 -0.1009
 3827TIP3    H111426   4.382   3.646   1.062  0.3475 -1.6745 -0.6499
 3827TIP3    H211427   4.233   3.677   1.062  0.7276  0.3145 -0.5191
 3828TIP3   OH211428   3.091   3.219   2.854 -0.2941 -0.3010  0.3821
 3828TIP3    H111429   3.048   3.264   2.782  1.5090 -0.1994 -0.6830
 3828TIP3    H211430   3.084   3.126   2.832 -0.4323 -0.3099  0.4675
 3829TIP3   OH211431   3.010   7.062   6.398 -0.4829 -0.1178  0.0213
 3829TIP3    H111432   2.920   7.047   6.367 -0.3046  1.5820 -1.5404
 3829TIP3    H211433   3.015   7.016   6.482 -2.7955 -0.2950  0.1317
 3830TIP3   OH211434   6.254   6.423   5.969 -0.4404 -0.3631 -0.7295
 3830TIP3    H111435   6.270   6.464   5.883  1.3168 -0.5630 -0.5440
 3830TIP3    H211436   6.263   6.329   5.953  0.3693 -0.3736 -0.2467
 3831TIP3   OH211437   4.723   7.417   4.669  0.4186 -0.0735 -0.6250
 3831TIP3    H111438   4.635   7.378   4.666  1.0092 -1.5115 -0.1378
 3831TIP3    H211439   4.730   7.454   4.758  1.2149 -2.3054  0.3162
 3832TIP3   OH211440   6.704   5.288   4.862  0.0293 -0.1065  0.4800
 3832TIP3    H111441   6.727   5.216   4.804 -0.9281 -1.1909  1.4087
 3832TIP3    H211442   6.609   5.296   4.854  0.1982  1.6677 -0.2838
 3833TIP3   OH211443   7.726   0.994   4.600  0.3689 -0.3440  0.1006
 3833TIP3    H111444   7.670   0.986   4.678 -0.5683  0.4675 -0.4756
 3833TIP3    H211445   7.696   1.073   4.556  1.5929 -0.2134 -0.5456
 3834TIP3   OH211446   0.439   7.343   1.973 -0.1428  0.1925 -0.6247
 3834TIP3    H111447   0.385   7.332   2.052 -0.8033  1.1237 -0.9307
 3834TIP3    H211448   0.380   7.323   1.901  0.9346 -2.4743 -0.8727
 3835TIP3   OH211449   5.537   6.250   0.120  0.1474  0.1880 -0.3345
 3835TIP3    H111450   5.609   6.246   0.184 -1.6899 -1.3626  1.8075
 3835TIP3    H211451   5.566   6.313   0.055  2.0549  2.1268  2.2018
 3836TIP3   OH211452   4.483   6.463   4.402 -0.1650  0.2648  0.8124
 3836TIP3    H111453   4.396   6.503   4.395 -0.1163  0.6888  2.2727
 3836TIP3    H211454   4.467   6.372   4.425 -0.2299  0.0027 -0.2179
 3837TIP3   OH211455   1.999   4.329   0.095  0.1763 -0.8275 -0.1193
 3837TIP3    H111456   1.993   4.267   0.168 -1.3227 -0.5254  0.0446
 3837TIP3    H211457   1.948   4.405   0.124  0.6930 -0.1463 -0.9466
 3838TIP3   OH211458   2.254   7.511   2.472 -0.0382 -0.2833  0.2336
 3838TIP3    H111459   2.202   7.558   2.407 -2.4762 -0.6147  1.8110
 3838TIP3    H211460   2.235   7.556   2.554  1.9137 -0.6942  0.9598
 3839TIP3   OH211461   0.405   1.051   5.512 -0.5931 -0.0808  0.6229
 3839TIP3    H111462   0.319   1.013   5.493 -0.5838 -0.1873  0.7975
 3839TIP3    H211463   0.426   1.102   5.433 -1.0576  0.3956  0.8077
 3840TIP3   OH211464   0.466   0.174   3.957 -0.4754  0.0905  0.1420
 3840TIP3    H111465   0.522   0.121   4.014 -0.5860  0.9880  1.0978
 3840TIP3    H211466   0.430   0.111   3.895  1.6899 -0.5109 -0.6082
 3841TIP3   OH211467   0.859   6.378   5.965  0.5584  0.5084  0.3953
 3841TIP3    H111468   0.820   6.466   5.972  0.1582  0.4026 -0.3955
 3841TIP3    H211469   0.949   6.394   5.937  0.7928  0.7114  1.2524
 3842TIP3   OH211470   6.187   7.841   2.463  0.7074 -0.5311  0.2243
 3842TIP3    H111471   6.225   7.753   2.456  0.4390 -0.5504 -1.2934
 3842TIP3    H211472   6.139   7.839   2.547 -0.8422 -2.4910 -0.6047
 3843TIP3   OH211473   6.027   3.229   1.111  0.2518  0.0595 -0.3366
 3843TIP3    H111474   6.002   3.249   1.201  1.9081 -0.2653  0.2291
 3843TIP3    H211475   5.949   3.251   1.059 -1.7781 -2.3934  1.4219
 3844TIP3   OH211476   5.497   0.649   3.191 -0.0727 -0.3020  0.0749
 3844TIP3    H111477   5.445   0.723   3.223  1.5031  1.0379 -0.3496
 3844TIP3    H211478   5.515   0.670   3.100  2.8331  0.3051  0.6999
 3845TIP3   OH211479   0.208   5.520   4.665  0.1859  0.1338 -0.0853
 3845TIP3    H111480   0.223   5.445   4.607 -1.6398 -0.1587 -0.2512
 3845TIP3    H211481   0.151   5.486   4.734 -0.9025  1.4017 -0.3143
 3846TIP3   OH211482   0.152   4.093   3.141 -0.0060 -0.5008  0.1429
 3846TIP3    H111483   0.091   4.082   3.067 -0.8596 -0.0781  0.7625
 3846TIP3    H211484   0.216   4.157   3.110 -0.3639 -0.3203 -0.2392
 3847TIP3   OH211485   5.350   3.241   6.726  0.6122  0.4590 -0.0274
 3847TIP3    H111486   5.329   3.312   6.787 -0.4630  0.8145 -0.7875
 3847TIP3    H211487   5.376   3.286   6.645  1.1300 -0.0143 -0.1312
 3848TIP3   OH211488   0.577   1.449   6.609  0.2766  0.0851 -0.2348
 3848TIP3    H111489   0.578   1.544   6.595  0.7846  0.0569 -0.4250
 3848TIP3    H211490   0.639   1.435   6.681 -0.4563 -0.0197  0.3801
 3849TIP3   OH211491   2.848   2.272   6.479 -0.4455 -0.1530  0.3293
 3849TIP3    H111492   2.836   2.218   6.401  1.7859  1.6147 -1.3641
 3849TIP3    H211493   2.800   2.353   6.460  0.3031  0.3788  0.6878
 3850TIP3   OH211494   6.341   3.696   1.384 -0.2450  0.4806  0.2293
 3850TIP3    H111495   6.389   3.754   1.325 -2.2596 -1.9072 -4.2523
 3850TIP3    H211496   6.257   3.740   1.399 -0.2662  0.4725  0.1322
 3851TIP3   OH211497   4.167   1.460   5.909 -0.0071 -0.1941  0.5106
 3851TIP3    H111498   4.092   1.435   5.854  0.3995  0.0583 -0.1739
 3851TIP3    H211499   4.142   1.544   5.946  0.4446  0.5317 -0.7536
 3852TIP3   OH211500   7.066   5.683   4.011 -0.1339  0.2845  0.3325
 3852TIP3    H111501   7.043   5.746   3.942  0.7694 -1.2419 -1.4518
 3852TIP3    H211502   7.062   5.598   3.968  4.3791 -0.4882  0.9569
 3853TIP3   OH211503   3.209   1.016   6.189  0.2650  0.1494 -0.1237
 3853TIP3    H111504   3.195   1.069   6.267  1.0152  0.3207 -0.0985
 3853TIP3    H211505   3.123   0.977   6.170  0.3982 -1.1425  1.7000
 3854TIP3   OH211506   2.969   2.510   1.861 -0.3205  0.6699 -0.1684
 3854TIP3    H111507   3.032   2.573   1.827 -1.8921  1.1739 -2.3540
 3854TIP3    H211508   2.924   2.477   1.783 -1.1342 -1.4447  1.1150
 3855TIP3   OH211509   2.657   1.855   3.682 -0.0586  0.4270  0.0124
 3855TIP3    H111510   2.639   1.842   3.589 -2.9425  3.7842 -0.0999
 3855TIP3    H211511   2.737   1.805   3.698  0.1989 -0.8310 -4.0578
 3856TIP3   OH211512   0.933   6.443   6.812 -0.0829  0.0197 -0.0811
 3856TIP3    H111513   0.843   6.417   6.795  0.0086 -0.3636  0.0050
 3856TIP3    H211514   0.959   6.494   6.735  0.2326 -1.4349 -0.9909
 3857TIP3   OH211515   7.814   3.381   5.481 -0.7174  0.2398 -0.1745
 3857TIP3    H111516   7.847   3.335   5.558 -0.3395  0.9829  0.1159
 3857TIP3    H211517   7.793   3.469   5.513 -1.2454  0.3338 -0.7605
 3858TIP3   OH211518   1.044   0.789   3.596 -0.2011  0.0089 -0.1260
 3858TIP3    H111519   1.128   0.824   3.567  0.9510 -2.3352  0.2064
 3858TIP3    H211520   0.997   0.768   3.515  0.5912 -1.0148 -0.3386
 3859TIP3   OH211521   3.491   7.526   0.672  0.1196  0.5280 -0.3385
 3859TIP3    H111522   3.418   7.475   0.636  0.0388  1.2897 -1.2970
 3859TIP3    H211523   3.566   7.503   0.617  0.1631  1.1499 -0.5500
 3860TIP3   OH211524   5.595   1.466   4.744 -0.6182 -0.3384 -0.2564
 3860TIP3    H111525   5.566   1.423   4.824  0.2688 -1.8983 -0.7233
 3860TIP3    H211526   5.665   1.410   4.711  0.1916  1.1831 -1.2342
 3861TIP3   OH211527   7.667   6.092   4.973 -0.1035 -0.5035  0.1868
 3861TIP3    H111528   7.758   6.121   4.970  0.0578 -1.0130 -2.8919
 3861TIP3    H211529   7.625   6.138   4.901 -1.6522 -2.1350 -0.0209
 3862TIP3   OH211530   3.299   0.692   1.738 -0.1409 -0.0112  0.1063
 3862TIP3    H111531   3.278   0.756   1.806  1.3940  0.7871 -0.1296
 3862TIP3    H211532   3.224   0.632   1.737 -1.1101  1.1429  1.0865
 3863TIP3   OH211533   4.232   7.710   5.312 -0.5769 -0.0516 -0.6059
 3863TIP3    H111534   4.195   7.703   5.224 -1.0997  0.5418 -0.4320
 3863TIP3    H211535   4.219   7.623   5.350 -0.2458 -0.3470 -1.1477
 3864TIP3   OH211536   2.169   3.282   4.801 -0.1220  0.1756  0.3921
 3864TIP3    H111537   2.096   3.276   4.740  0.1187 -1.4324  0.2345
 3864TIP3    H211538   2.156   3.209   4.861  2.0324 -0.9430 -0.4069
 3865TIP3   OH211539   2.112   3.475   5.894  0.3288  0.5313  0.4319
 3865TIP3    H111540   2.173   3.451   5.824  1.5557  0.8091  1.3701
 3865TIP3    H211541   2.040   3.520   5.849  1.2707  1.0371 -0.6123
 3866TIP3   OH211542   3.624   2.038   5.718  0.0665  0.2038 -0.5146
 3866TIP3    H111543   3.642   2.041   5.624 -0.9310  0.8291 -0.7113
 3866TIP3    H211544   3.540   1.992   5.724  0.6231 -0.7548  0.1688
 3867TIP3   OH211545   3.007   4.154   6.723 -0.2689 -0.1099  0.4981
 3867TIP3    H111546   3.018   4.073   6.673 -3.4887 -0.3159 -0.0444
 3867TIP3    H211547   3.018   4.126   6.814  2.1653 -0.3820  0.2041
 3868TIP3   OH211548   5.711   1.581   3.119 -0.2179  0.2308  0.2766
 3868TIP3    H111549   5.738   1.631   3.043  1.8743 -0.6705  0.3729
 3868TIP3    H211550   5.792   1.544   3.154 -1.4026 -1.2748  1.5826
 3869TIP3   OH211551   0.483   5.695   5.262 -0.4752  0.1235  0.2398
 3869TIP3    H111552   0.488   5.789   5.247 -1.4212 -0.1211 -1.8624
 3869TIP3    H211553   0.572   5.663   5.248 -0.1193  0.6972  1.1176
 3870TIP3   OH211554   5.190   6.376   0.319  0.4058  0.2350 -0.0245
 3870TIP3    H111555   5.220   6.286   0.308 -1.0577 -0.5195  1.6540
 3870TIP3    H211556   5.096   6.372   0.304  0.5372  1.8346 -1.5633
 3871TIP3   OH211557   6.671   5.103   0.295 -0.5047  0.2545 -0.0948
 3871TIP3    H111558   6.742   5.040   0.288 -0.4128  0.1309  1.6130
 3871TIP3    H211559   6.714   5.186   0.317 -0.7188  0.6900 -1.2372
 3872TIP3   OH211560   0.814   3.586   0.101 -0.5154 -0.0584  0.4536
 3872TIP3    H111561   0.888   3.543   0.058 -0.7904 -0.1167  0.0369
 3872TIP3    H211562   0.777   3.643   0.034  0.0147  1.0545  1.0744
 3873TIP3   OH211563   5.619   7.629   5.542 -0.6631 -0.4483 -0.2598
 3873TIP3    H111564   5.605   7.565   5.612 -0.5804 -1.2089 -0.9104
 3873TIP3    H211565   5.695   7.596   5.495  0.8724  1.4439  0.8000
 3874TIP3   OH211566   7.157   2.037   4.972  0.1016 -0.6272 -0.0133
 3874TIP3    H111567   7.212   2.049   5.049 -0.3309  2.3174 -0.0499
 3874TIP3    H211568   7.075   2.081   4.994 -1.3761 -2.7506 -0.9013
 3875TIP3   OH211569   7.316   4.049   1.315  0.2952 -0.5038 -0.5088
 3875TIP3    H111570   7.235   4.057   1.365  1.3580  0.9436  1.0643
 3875TIP3    H211571   7.289   4.064   1.224 -1.0923  0.7121  0.0626
 3876TIP3   OH211572   6.349   4.483   4.995 -0.2110 -0.1911  0.4409
 3876TIP3    H111573   6.393   4.443   4.919  1.0009  0.4812  0.7517
 3876TIP3    H211574   6.400   4.454   5.070  0.6093  1.7352  0.6925
 3877TIP3   OH211575   2.081   2.785   4.896  0.0426 -0.0783  0.0318
 3877TIP3    H111576   2.176   2.774   4.899  0.2696  1.6618  2.6810
 3877TIP3    H211577   2.048   2.720   4.958 -0.0861  1.7579  2.0074
 3878TIP3   OH211578   6.417   6.473   1.598 -0.3587 -0.2807  0.3906
 3878TIP3    H111579   6.433   6.452   1.506 -0.1005 -0.3247  0.4448
 3878TIP3    H211580   6.323   6.465   1.608 -0.4136 -0.0373  0.0698
 3879TIP3   OH211581   2.454   4.673   1.826 -0.2479  0.0383  0.1477
 3879TIP3    H111582   2.495   4.662   1.912 -0.8641 -1.9137  0.2416
 3879TIP3    H211583   2.522   4.646   1.764 -0.2375  0.1730  0.1005
 3880TIP3   OH211584   3.652   0.875   2.897 -0.0797 -0.1950  0.0522
 3880TIP3    H111585   3.733   0.904   2.938 -0.6553  0.3648  0.8566
 3880TIP3    H211586   3.589   0.944   2.919 -0.7524 -0.5840 -0.6061
 3881TIP3   OH211587   6.520   4.276   0.697  0.4085  0.4909  0.6417
 3881TIP3    H111588   6.541   4.221   0.772  1.4680  0.6389  0.4700
 3881TIP3    H211589   6.430   4.251   0.673  0.1998  0.1729  1.7093
 3882TIP3   OH211590   0.640   3.000   3.541 -0.1534 -0.1229 -0.0756
 3882TIP3    H111591   0.693   2.966   3.469 -0.3151  0.2750 -0.3844
 3882TIP3    H211592   0.683   2.967   3.620 -1.2824 -2.5309 -0.3614
 3883TIP3   OH211593   0.527   3.671   6.748  0.1536 -0.0578 -0.0955
 3883TIP3    H111594   0.447   3.631   6.712 -0.3007  1.1836 -0.5082
 3883TIP3    H211595   0.498   3.756   6.781  0.8933 -0.4794  1.7275
 3884TIP3   OH211596   3.596   3.716   3.292  0.0018  0.0255 -0.2827
 3884TIP3    H111597   3.565   3.627   3.272 -1.8864 -0.0640  2.3819
 3884TIP3    H211598   3.688   3.705   3.316 -0.1520 -1.2091 -0.1813
 3885TIP3   OH211599   6.178   5.614   1.710  0.3585 -0.1907  0.0506
 3885TIP3    H111600   6.255   5.621   1.654 -0.9167  0.0890 -1.7452
 3885TIP3    H211601   6.173   5.521   1.733  2.2917  0.0744  1.8567
 3886TIP3   OH211602   3.547   7.548   5.964  0.1325 -0.3654  0.3604
 3886TIP3    H111603   3.624   7.532   6.017 -0.1327  0.9634  1.1805
 3886TIP3    H211604   3.582   7.577   5.879  0.6166  2.2880  1.3583
 3887TIP3   OH211605   6.021   5.002   1.117  0.1873 -0.1301  0.2275
 3887TIP3    H111606   6.004   5.058   1.041 -0.5868  0.9250  1.1603
 3887TIP3    H211607   6.055   4.920   1.079 -0.4175  0.2831 -1.2660
 3888TIP3   OH211608   0.846   5.379   1.803 -0.9152  0.2196  0.2811
 3888TIP3    H111609   0.900   5.448   1.763  0.3968 -1.5301 -1.1138
 3888TIP3    H211610   0.787   5.351   1.733 -0.3350 -1.1476  0.3077
 3889TIP3   OH211611   6.847   3.497   5.126 -0.5833 -0.7824 -0.2637
 3889TIP3    H111612   6.770   3.511   5.182 -1.1597 -0.2221 -1.1692
 3889TIP3    H211613   6.836   3.408   5.092 -0.7942 -0.7343 -0.3243
 3890TIP3   OH211614   1.872   2.806   4.162  0.8559 -0.6295 -0.7297
 3890TIP3    H111615   1.940   2.864   4.197 -0.8180  2.3332 -2.0799
 3890TIP3    H211616   1.810   2.795   4.234  0.3020  0.7703 -0.9615
 3891TIP3   OH211617   4.884   6.969   4.838 -0.1785 -0.3924 -0.2942
 3891TIP3    H111618   4.899   6.978   4.932  0.7135 -0.3620 -0.4247
 3891TIP3    H211619   4.813   7.030   4.819  0.9000  1.0406  0.0606
 3892TIP3   OH211620   7.710   1.883   4.800  0.3100  0.2090 -0.1378
 3892TIP3    H111621   7.696   1.902   4.707 -0.9335 -1.2018 -0.2806
 3892TIP3    H211622   7.805   1.877   4.810  0.5868  2.5168 -0.8338
 3893TIP3   OH211623   7.504   3.564   0.357 -0.2549 -0.6446  0.0663
 3893TIP3    H111624   7.490   3.538   0.447  3.0251 -0.2267  0.8107
 3893TIP3    H211625   7.447   3.641   0.345 -2.3402 -1.9605  1.0061
 3894TIP3   OH211626   5.448   7.104   3.334  0.4209  0.1319 -0.5953
 3894TIP3    H111627   5.518   7.126   3.272 -0.9747  0.2257 -2.2225
 3894TIP3    H211628   5.393   7.041   3.287  2.1852 -4.2981  2.5072
 3895TIP3   OH211629   4.570   0.988   5.423  0.2374  0.5358  0.2749
 3895TIP3    H111630   4.505   0.978   5.353 -1.6046  0.3833  1.9200
 3895TIP3    H211631   4.528   0.948   5.500  2.5124 -0.0292  1.2987
 3896TIP3   OH211632   5.973   5.729   4.584 -0.5032 -0.2205  0.4586
 3896TIP3    H111633   6.035   5.670   4.541 -1.1851  0.3267 -1.3488
 3896TIP3    H211634   6.027   5.778   4.647  0.9636  0.3281 -1.1333
 3897TIP3   OH211635   7.452   1.335   4.322  0.3413 -0.1405  0.0091
 3897TIP3    H111636   7.461   1.351   4.229  1.3964  0.0122  0.1203
 3897TIP3    H211637   7.358   1.335   4.338  0.1553 -0.0966 -1.0362
 3898TIP3   OH211638   1.094   7.212   0.005 -0.7758 -0.0967 -0.5698
 3898TIP3    H111639   1.036   7.249   0.072  0.0571  0.5529 -0.1998
 3898TIP3    H211640   1.050   7.131  -0.021 -1.0261 -0.4712  0.8948
 3899TIP3   OH211641   1.072   2.003   3.572 -0.0500  0.2296 -0.4132
 3899TIP3    H111642   0.987   2.001   3.615  1.2855 -0.0003  2.4414
 3899TIP3    H211643   1.094   1.911   3.558  0.6176  0.1754  0.8573
 3900TIP3   OH211644   5.454   6.303   1.805 -0.3708 -0.4749  0.4735
 3900TIP3    H111645   5.504   6.223   1.820 -0.0134 -0.4511 -0.4993
 3900TIP3    H211646   5.362   6.276   1.805 -0.2369 -1.6939 -3.6624
 3901TIP3   OH211647   0.853   6.699   5.855  0.5153  0.4709  0.0302
 3901TIP3    H111648   0.903   6.670   5.779  0.0833  2.7363 -1.2049
 3901TIP3    H211649   0.915   6.692   5.928  1.8129  0.7568 -1.0046
 3902TIP3   OH211650   7.470   6.235   0.187 -0.0147  0.6018 -0.2390
 3902TIP3    H111651   7.429   6.166   0.134 -0.0571  0.3475  0.1192
 3902TIP3    H211652   7.558   6.201   0.204 -0.0679  0.5937  0.0171
 3903TIP3   OH211653   5.787   7.708   0.060  0.0419  0.7021 -0.1005
 3903TIP3    H111654   5.817   7.747   0.143 -0.3671  0.3771  0.2056
 3903TIP3    H211655   5.859   7.725  -0.001  1.2953 -0.8815  0.8558
 3904TIP3   OH211656   6.339   2.133   0.957  0.5364  0.2915  0.5582
 3904TIP3    H111657   6.260   2.187   0.959 -0.3112 -0.8220 -0.9377
 3904TIP3    H211658   6.392   2.165   1.030 -2.0229 -0.0327  2.7079
 3905TIP3   OH211659   0.294   5.641   6.103 -0.2829  0.6970 -0.4126
 3905TIP3    H111660   0.260   5.668   6.018  0.7696  0.5137 -0.9125
 3905TIP3    H211661   0.388   5.660   6.098 -0.3164  1.3896  0.9918
 3906TIP3   OH211662   1.713   3.660   3.848  0.1397 -0.4877 -0.0075
 3906TIP3    H111663   1.717   3.591   3.915  1.8050 -0.8543 -0.4349
 3906TIP3    H211664   1.744   3.738   3.892  3.1267 -1.1394 -0.7586
 3907TIP3   OH211665   6.458   3.239   3.200 -0.2871 -0.5183 -0.0853
 3907TIP3    H111666   6.391   3.303   3.224  1.0152  0.5787  0.7764
 3907TIP3    H211667   6.457   3.237   3.104  0.8810  2.2196 -0.2410
 3908TIP3   OH211668   2.027   7.471   2.853  0.0348  0.1443 -0.4220
 3908TIP3    H111669   2.000   7.511   2.935 -0.5396  0.2670 -0.6666
 3908TIP3    H211670   1.984   7.524   2.785 -0.0889 -0.4006 -0.7741
 3909TIP3   OH211671   4.082   1.574   1.580  0.4803  0.0144 -0.2462
 3909TIP3    H111672   4.133   1.654   1.595  0.5333  0.0803 -0.7384
 3909TIP3    H211673   4.148   1.504   1.579  0.1512 -0.4924  3.2388
 3910TIP3   OH211674   0.988   7.677   6.435  0.0146  0.2008 -0.0462
 3910TIP3    H111675   1.038   7.683   6.354  0.5529 -0.2912  0.2445
 3910TIP3    H211676   0.930   7.602   6.422  0.8892 -0.5760  0.4420
 3911TIP3   OH211677   6.673   0.972   1.094  0.0741  0.4716 -0.3374
 3911TIP3    H111678   6.646   0.881   1.111 -1.8417  0.8593 -1.0114
 3911TIP3    H211679   6.691   1.008   1.180 -2.4771  0.3656  0.3261
 3912TIP3   OH211680   3.586   7.759   2.956 -0.0911  0.0802 -0.4031
 3912TIP3    H111681   3.553   7.845   2.981 -0.4026 -0.4586  1.2170
 3912TIP3    H211682   3.680   7.763   2.973 -0.0010  0.2944 -0.9431
 3913TIP3   OH211683   6.738   0.738   6.278 -0.1923 -0.3216 -0.1096
 3913TIP3    H111684   6.729   0.779   6.191 -2.0525 -1.8562 -0.7088
 3913TIP3    H211685   6.677   0.786   6.333  1.9344  1.5283  0.7847
 3914TIP3   OH211686   1.646   0.200   2.890 -0.6358 -0.5155  0.1643
 3914TIP3    H111687   1.597   0.140   2.833  0.2245 -2.4396  1.3316
 3914TIP3    H211688   1.737   0.170   2.884 -0.0574  1.1160  0.3098
 3915TIP3   OH211689   6.982   6.422   3.774 -0.0946 -0.2738 -0.0399
 3915TIP3    H111690   6.958   6.464   3.857  0.6439  0.1520 -0.0397
 3915TIP3    H211691   6.980   6.328   3.793 -3.4459 -0.4386 -0.4593
 3916TIP3   OH211692   4.135   5.070   4.417  0.0655  0.0829  0.4453
 3916TIP3    H111693   4.143   5.094   4.325 -0.8921  0.6298  0.4935
 3916TIP3    H211694   4.220   5.093   4.455  0.8785 -1.1921 -0.5080
 3917TIP3   OH211695   5.925   7.328   3.480 -0.0342 -0.3194  0.9238
 3917TIP3    H111696   6.011   7.324   3.439 -0.8118 -0.9269 -0.7118
 3917TIP3    H211697   5.864   7.305   3.411 -1.4172 -1.4336  2.4454
 3918TIP3   OH211698   5.924   0.515   5.211 -0.1360  0.0281  0.2620
 3918TIP3    H111699   5.999   0.573   5.195  0.9706 -1.3088  0.4676
 3918TIP3    H211700   5.933   0.488   5.302 -1.1925  0.2730  0.4571
 3919TIP3   OH211701   0.912   6.147   4.351 -0.2624  0.4865  0.0384
 3919TIP3    H111702   0.847   6.217   4.346  0.7813  1.7918  2.4962
 3919TIP3    H211703   0.996   6.192   4.336  0.2507 -0.8207 -1.2643
 3920TIP3   OH211704   5.281   3.501   3.200 -0.3983  1.1941  0.5807
 3920TIP3    H111705   5.235   3.582   3.222 -1.7024  0.6192  0.0692
 3920TIP3    H211706   5.215   3.447   3.157  0.2148 -0.4954  1.6674
 3921TIP3   OH211707   4.009   6.251   5.552 -0.0196  0.3668  0.3733
 3921TIP3    H111708   3.974   6.338   5.533  0.2722  0.5096  0.4830
 3921TIP3    H211709   4.021   6.210   5.466 -0.0465  0.4771  0.3177
 3922TIP3   OH211710   8.131   3.968   4.116 -0.2273  0.7147 -0.0031
 3922TIP3    H111711   8.215   3.995   4.078  0.0726  0.5243  0.5102
 3922TIP3    H211712   8.147   3.879   4.147 -1.1378  0.0013 -1.4871
 3923TIP3   OH211713   1.970   3.682   6.186 -0.1871  0.1407 -0.6723
 3923TIP3    H111714   1.934   3.755   6.237  0.3468 -0.3015  0.3520
 3923TIP3    H211715   2.032   3.724   6.126 -0.7208  0.6475 -0.8873
 3924TIP3   OH211716   6.033   3.520   3.543  0.0873  0.1097 -0.4280
 3924TIP3    H111717   6.112   3.476   3.509  0.8873  0.5793  0.7618
 3924TIP3    H211718   6.004   3.464   3.615  0.3501  0.8335  0.2504
 3925TIP3   OH211719   7.382   4.954   0.582  0.5597 -0.2380  0.0893
 3925TIP3    H111720   7.301   4.969   0.631 -0.3938 -1.0559 -1.1648
 3925TIP3    H211721   7.433   5.035   0.594 -1.8390  1.6999 -1.7049
 3926TIP3   OH211722   5.416   3.930   3.279  0.3063 -0.0002  0.7897
 3926TIP3    H111723   5.361   3.983   3.336 -1.4911 -0.2650 -0.5884
 3926TIP3    H211724   5.397   3.840   3.304 -0.1167 -0.1020  0.1184
 3927TIP3   OH211725   0.331   6.773   4.157 -0.3164  0.1286 -0.0249
 3927TIP3    H111726   0.285   6.801   4.078  0.3892  0.1687 -0.4199
 3927TIP3    H211727   0.358   6.683   4.139  0.4397  0.3650 -0.0987
 3928TIP3   OH211728   1.758   1.731   2.277 -0.0991  0.2923 -0.4498
 3928TIP3    H111729   1.799   1.777   2.350  1.6095  0.2316 -1.3266
 3928TIP3    H211730   1.821   1.662   2.253 -1.5677 -1.0437 -0.6441
 3929TIP3   OH211731   5.900   6.744   4.205  0.7204 -0.4196 -0.0101
 3929TIP3    H111732   5.979   6.794   4.220  0.2678  0.5176 -0.6770
 3929TIP3    H211733   5.930   6.653   4.197  1.9676  0.1088 -2.0575
 3930TIP3   OH211734   4.531   7.644   1.577 -0.1752  0.1969 -0.2040
 3930TIP3    H111735   4.620   7.622   1.549 -0.0999 -0.6730  0.6674
 3930TIP3    H211736   4.475   7.595   1.516 -0.0735  0.7921 -0.7901
 3931TIP3   OH211737   7.224   6.684   4.346  0.3578  0.1022  0.0933
 3931TIP3    H111738   7.288   6.690   4.417 -0.6040 -1.0410  1.0997
 3931TIP3    H211739   7.261   6.619   4.286  1.5719  1.6698 -0.9353
 3932TIP3   OH211740   6.053   0.744   1.136 -0.2349 -0.3807 -0.2258
 3932TIP3    H111741   6.051   0.785   1.050 -0.1063  0.7806  0.3091
 3932TIP3    H211742   6.097   0.660   1.122  1.0709  0.4060 -1.0349
 3933TIP3   OH211743   7.281   0.170   5.595 -0.1701 -0.9361  0.3200
 3933TIP3    H111744   7.262   0.141   5.506 -0.3903  1.0766 -0.3411
 3933TIP3    H211745   7.229   0.112   5.651 -2.1759 -0.5561 -1.0315
 3934TIP3   OH211746   3.823   1.418   3.301 -0.4784  0.2411  0.4065
 3934TIP3    H111747   3.843   1.327   3.278 -1.0724  0.3958 -0.7996
 3934TIP3    H211748   3.893   1.469   3.260 -1.1567  0.4618 -0.5143
 3935TIP3   OH211749   4.756   5.652   3.857 -0.8193 -0.0170  0.3413
 3935TIP3    H111750   4.754   5.624   3.949 -1.6145  0.5523  0.5066
 3935TIP3    H211751   4.818   5.592   3.815  0.2928  0.3125  1.4436
 3936TIP3   OH211752   7.582   7.430   6.179  0.3900 -0.4221 -0.0905
 3936TIP3    H111753   7.541   7.466   6.100  1.2770 -0.0386 -0.3787
 3936TIP3    H211754   7.533   7.469   6.252 -0.4136 -0.7573 -0.4433
 3937TIP3   OH211755   1.624   2.358   2.657 -0.0972 -0.4273  0.9223
 3937TIP3    H111756   1.685   2.300   2.611 -0.2142  1.4397 -1.8357
 3937TIP3    H211757   1.676   2.397   2.727  0.9281 -1.2695  0.6629
 3938TIP3   OH211758   2.366   4.274   4.976  0.1003  0.2392 -0.3686
 3938TIP3    H111759   2.366   4.319   5.060 -1.7889  2.4621 -1.4381
 3938TIP3    H211760   2.318   4.193   4.993 -0.9106  0.9974  0.5645
 3939TIP3   OH211761   5.677   0.550   3.878  0.3946 -0.0778  0.1511
 3939TIP3    H111762   5.649   0.640   3.891  0.0082 -0.1102 -0.4020
 3939TIP3    H211763   5.762   0.544   3.922  0.3179  0.4929  0.3810
 3940TIP3   OH211764   6.561   3.063   6.278 -0.1680 -0.4650 -0.2782
 3940TIP3    H111765   6.496   3.122   6.314 -0.6920 -0.1149 -1.7438
 3940TIP3    H211766   6.634   3.120   6.254 -0.1200 -0.5964 -0.4432
 3941TIP3   OH211767   0.003   3.071   4.028  0.6758 -0.5662 -0.2217
 3941TIP3    H111768   0.059   3.138   4.066 -1.9889  0.8724  1.4591
 3941TIP3    H211769   0.015   2.995   4.085  1.6666 -0.6630 -0.5324
 3942TIP3   OH211770   3.286   1.009   1.634  0.3697  0.0899 -0.5447
 3942TIP3    H111771   3.309   1.099   1.613 -1.6787  0.9412  0.6027
 3942TIP3    H211772   3.352   0.956   1.588  2.7387  2.1729  0.2742
 3943TIP3   OH211773   4.770   4.599   2.411  0.6322  0.3038  0.2221
 3943TIP3    H111774   4.678   4.580   2.429  1.0941 -0.0397  2.5042
 3943TIP3    H211775   4.775   4.603   2.315 -1.7283  0.3027  0.0382
 3944TIP3   OH211776   1.252   2.200   4.123  0.4325 -0.1011 -0.0009
 3944TIP3    H111777   1.346   2.197   4.136  0.6634 -0.8244 -1.6012
 3944TIP3    H211778   1.236   2.288   4.087  0.0407  1.1752  3.0171
 3945TIP3   OH211779   8.086   4.536   4.931 -0.3273  0.0880 -0.0524
 3945TIP3    H111780   8.128   4.540   4.845 -2.2734  0.9587 -1.0285
 3945TIP3    H211781   8.154   4.562   4.992  1.2759 -1.0783 -1.2406
 3946TIP3   OH211782   1.420   3.338   0.071  0.2226 -0.0732  0.1395
 3946TIP3    H111783   1.385   3.377  -0.009  0.0551  0.6151  0.5358
 3946TIP3    H211784   1.440   3.413   0.127  2.0875 -0.4552  0.0355
 3947TIP3   OH211785   7.603   5.075   4.737  0.1132 -0.5954  0.1355
 3947TIP3    H111786   7.661   5.144   4.769  0.2653 -0.6728  0.0271
 3947TIP3    H211787   7.652   4.994   4.750 -0.8204 -0.9088  2.1072
 3948TIP3   OH211788   4.889   5.707   5.999 -0.7433  0.0557  0.1525
 3948TIP3    H111789   4.858   5.797   6.010 -0.9781 -0.0121  0.0497
 3948TIP3    H211790   4.980   5.710   6.026 -0.6620  0.3904 -0.1506
 3949TIP3   OH211791   1.572   3.466   5.931  0.2146 -0.0464  0.2542
 3949TIP3    H111792   1.545   3.513   5.852 -0.3748  0.5641  0.8057
 3949TIP3    H211793   1.630   3.528   5.977  0.2334 -0.2428  0.4970
 3950TIP3   OH211794   1.669   6.796   2.546  0.3200 -0.3516  0.3765
 3950TIP3    H111795   1.681   6.882   2.505  0.7336 -0.4048  0.3834
 3950TIP3    H211796   1.690   6.810   2.638  1.0286 -0.6012  0.2577
 3951TIP3   OH211797   1.180   0.974   3.294 -0.5102 -0.5637  0.2814
 3951TIP3    H111798   1.165   0.921   3.216 -0.4708  0.0958 -0.1841
 3951TIP3    H211799   1.099   1.025   3.305  0.5861  1.6401 -1.1639
 3952TIP3   OH211800   5.065   7.117   1.124 -0.4130 -0.3906  0.4958
 3952TIP3    H111801   5.146   7.076   1.155  0.7864  2.0062  0.7442
 3952TIP3    H211802   5.094   7.195   1.076 -2.5795  1.0342  1.3328
 3953TIP3   OH211803   6.676   2.742   0.097  0.2703 -0.0310 -0.8196
 3953TIP3    H111804   6.605   2.678   0.094  0.4597 -0.2621 -0.5076
 3953TIP3    H211805   6.650   2.811   0.036 -0.3928  0.0592 -0.4483
 3954TIP3   OH211806   7.442   5.145   0.967 -0.1209 -0.1343  0.0858
 3954TIP3    H111807   7.392   5.141   1.048 -0.6302  0.1165 -0.2100
 3954TIP3    H211808   7.495   5.065   0.967  2.1209  1.2309  2.0599
 3955TIP3   OH211809   0.492   6.303   4.696 -0.5095  0.0591 -0.4211
 3955TIP3    H111810   0.469   6.383   4.743 -0.1122 -0.2282  0.2804
 3955TIP3    H211811   0.449   6.312   4.611 -0.2852  1.1216 -0.4412
 3956TIP3   OH211812   7.752   1.256   6.049  0.5191  0.0526  0.3124
 3956TIP3    H111813   7.708   1.178   6.083  1.1145 -0.0066  0.9543
 3956TIP3    H211814   7.709   1.272   5.965  1.0795 -1.5491 -0.3101
 3957TIP3   OH211815   0.139   6.472   4.198  0.1494 -0.0265  0.5556
 3957TIP3    H111816   0.132   6.512   4.112  0.6850 -0.4909  0.2922
 3957TIP3    H211817   0.207   6.405   4.188  0.4556  0.1462  1.4261
 3958TIP3   OH211818   0.395   6.286   5.546  0.1321 -0.2686 -0.5820
 3958TIP3    H111819   0.299   6.284   5.553  0.0866  0.8996 -0.6232
 3958TIP3    H211820   0.425   6.310   5.634  0.4246 -1.1202 -0.4398
 3959TIP3   OH211821   6.156   2.501   1.389  0.1295 -0.4569  0.4240
 3959TIP3    H111822   6.189   2.590   1.400 -0.8340 -0.2694  1.9324
 3959TIP3    H211823   6.101   2.505   1.311  0.7486  0.0648  0.0063
 3960TIP3   OH211824   4.310   4.039   1.721 -0.0152 -0.2405 -0.3704
 3960TIP3    H111825   4.232   3.995   1.755  0.0099 -1.0459 -1.3046
 3960TIP3    H211826   4.284   4.131   1.712  0.6911  0.5878  3.9580
 3961TIP3   OH211827   5.693   6.050   5.075 -0.3357 -0.1455 -0.0593
 3961TIP3    H111828   5.637   6.050   4.997 -2.1253  0.1955  1.1614
 3961TIP3    H211829   5.692   5.959   5.105  0.5439 -0.3223 -0.5630
 3962TIP3   OH211830   2.612   2.211   2.938 -0.1846 -0.8452 -0.1553
 3962TIP3    H111831   2.542   2.164   2.985  0.6507 -1.2843  0.6900
 3962TIP3    H211832   2.602   2.302   2.965 -0.2264 -0.9625  0.2367
 3963TIP3   OH211833   4.335   2.324   4.873 -0.4126  0.3411  0.1411
 3963TIP3    H111834   4.428   2.338   4.855 -0.2735  1.6332  1.5874
 3963TIP3    H211835   4.326   2.229   4.881  0.4782  0.0859 -1.3879
 3964TIP3   OH211836   3.255   7.182   0.641 -0.6366  0.2352  0.8495
 3964TIP3    H111837   3.170   7.149   0.612 -0.7247  0.4928  0.8166
 3964TIP3    H211838   3.287   7.236   0.569 -0.0987 -0.4649  0.5424
 3965TIP3   OH211839   3.866   1.610   2.106  0.1217  0.2505 -0.1394
 3965TIP3    H111840   3.884   1.523   2.142  1.3494  1.1382  1.4910
 3965TIP3    H211841   3.812   1.653   2.172 -1.0685  0.5479 -1.2459
 3966TIP3   OH211842   7.749   4.759   0.840 -0.1863  0.1925  0.1347
 3966TIP3    H111843   7.751   4.828   0.906 -0.8757  0.0761  0.2826
 3966TIP3    H211844   7.723   4.681   0.889 -1.1127  0.1891 -0.3513
 3967TIP3   OH211845   8.151   3.574   3.600  0.4178  0.1104  0.3476
 3967TIP3    H111846   8.139   3.666   3.575  0.4137 -0.4287 -1.8602
 3967TIP3    H211847   8.239   3.552   3.570 -0.3612 -1.1605 -1.1328
 3968TIP3   OH211848   7.976   6.291   0.262 -0.1655  0.2357  0.3575
 3968TIP3    H111849   8.012   6.206   0.287  0.5667  0.6407  0.6911
 3968TIP3    H211850   7.999   6.349   0.334 -0.9091  0.6595  0.2639
 3969TIP3   OH211851   7.176   1.705   3.214  0.2812  0.2295 -0.4695
 3969TIP3    H111852   7.154   1.764   3.287 -0.8300  0.6769 -1.1409
 3969TIP3    H211853   7.125   1.626   3.232  0.1466  0.2720 -0.6631
 3970TIP3   OH211854   2.332   6.332   1.186 -0.3213 -0.2797  0.3727
 3970TIP3    H111855   2.373   6.246   1.176 -1.0478 -0.8482  1.9019
 3970TIP3    H211856   2.368   6.366   1.268 -0.6758  0.5057  0.2065
 3971TIP3   OH211857   2.269   2.545   0.030 -0.1818 -0.3449 -0.4311
 3971TIP3    H111858   2.266   2.486   0.106 -0.4881 -1.1340 -1.0502
 3971TIP3    H211859   2.234   2.493  -0.042  1.0892  0.0382 -1.3508
 3972TIP3   OH211860   7.176   0.226   6.330 -0.5990  0.0395 -0.5199
 3972TIP3    H111861   7.106   0.183   6.378  0.6122 -0.4624  0.8794
 3972TIP3    H211862   7.144   0.314   6.314 -1.4109 -0.0691  0.4226
 3973TIP3   OH211863   3.181   2.097   1.703 -0.4871 -0.2612 -0.1661
 3973TIP3    H111864   3.179   2.142   1.787 -2.5501  0.1821 -0.4092
 3973TIP3    H211865   3.270   2.112   1.670 -1.0414  3.9467 -0.3481
 3974TIP3   OH211866   7.799   7.398   1.523 -0.2268  0.0817  0.3475
 3974TIP3    H111867   7.892   7.379   1.537  0.0226  1.8630  1.5062
 3974TIP3    H211868   7.753   7.338   1.581  0.3565  0.7181  1.5273
 3975TIP3   OH211869   0.778   0.841   5.484 -0.1044  0.0142  0.3173
 3975TIP3    H111870   0.817   0.916   5.529 -1.4010  0.3928  0.8522
 3975TIP3    H211871   0.737   0.789   5.553  0.2755 -0.8877 -0.1171
 3976TIP3   OH211872   6.350   6.367   2.790  0.1294 -0.2104  0.4125
 3976TIP3    H111873   6.301   6.312   2.852  0.3779 -1.5793 -0.5652
 3976TIP3    H211874   6.301   6.361   2.708  0.0690  1.1976  0.3206
 3977TIP3   OH211875   0.406   5.889   6.506 -0.1212 -0.8394 -0.1110
 3977TIP3    H111876   0.354   5.825   6.458 -0.3663 -0.9071  0.2420
 3977TIP3    H211877   0.485   5.842   6.532 -0.1910 -0.9300 -0.0624
 3978TIP3   OH211878   5.409   4.447   0.773  0.2106  0.0012  0.0509
 3978TIP3    H111879   5.406   4.503   0.696 -0.4693 -1.2621 -0.8868
 3978TIP3    H211880   5.428   4.360   0.739  3.0874 -0.1102  1.6220
 3979TIP3   OH211881   1.137   5.846   2.894 -0.2099  0.9342 -0.0217
 3979TIP3    H111882   1.144   5.776   2.829  0.5445  1.8470 -0.9391
 3979TIP3    H211883   1.177   5.810   2.973  0.6540  0.5222 -0.6453
 3980TIP3   OH211884   0.584   2.872   3.131  0.3802 -0.5040  0.2510
 3980TIP3    H111885   0.564   2.779   3.119 -1.0497 -0.4274  1.6107
 3980TIP3    H211886   0.568   2.912   3.046 -0.0224 -1.3613 -0.0846
 3981TIP3   OH211887   5.327   1.357   0.263  0.6227  0.2939  0.3501
 3981TIP3    H111888   5.311   1.358   0.169 -2.3030  2.2575  0.7385
 3981TIP3    H211889   5.312   1.266   0.289  0.3979 -0.0602 -0.9302
 3982TIP3   OH211890   7.928   7.320   2.401  0.1074  0.0928  0.2449
 3982TIP3    H111891   7.927   7.227   2.425  1.1482 -0.3949 -1.4193
 3982TIP3    H211892   7.985   7.361   2.467 -0.2307 -0.4732  0.9006
 3983TIP3   OH211893   1.686   2.720   3.797 -0.5402 -0.0741 -0.2937
 3983TIP3    H111894   1.757   2.733   3.734 -0.4459 -0.9447 -0.3802
 3983TIP3    H211895   1.611   2.694   3.743 -0.3469 -1.2407 -0.0344
 3984TIP3   OH211896   4.688   4.027   0.376  0.1111 -0.0749 -0.2055
 3984TIP3    H111897   4.595   4.048   0.361  0.8942  2.4470 -2.4044
 3984TIP3    H211898   4.704   3.949   0.323 -0.6666 -0.3177 -0.0952
 3985TIP3   OH211899   5.724   6.326   5.790  0.1721 -0.0597  0.6471
 3985TIP3    H111900   5.673   6.368   5.859 -0.4415 -0.7184  0.6040
 3985TIP3    H211901   5.671   6.336   5.711 -0.7028 -2.1379  0.9010
 3986TIP3   OH211902   7.309   4.938   2.652  0.5873 -0.6226  0.7003
 3986TIP3    H111903   7.361   4.993   2.711 -0.3639  1.7804 -0.5219
 3986TIP3    H211904   7.360   4.936   2.571  0.3561 -1.0943  0.5643
 3987TIP3   OH211905   2.219   0.465   4.083  0.0037 -0.4328 -0.7959
 3987TIP3    H111906   2.130   0.436   4.066 -1.0147 -0.6556  3.8049
 3987TIP3    H211907   2.271   0.385   4.084 -0.3328 -0.6455 -0.4607
 3988TIP3   OH211908   2.250   3.196   2.048 -0.3827  0.7090 -0.7837
 3988TIP3    H111909   2.268   3.102   2.041 -1.1573  0.5161 -0.3206
 3988TIP3    H211910   2.186   3.213   1.978 -1.4044  0.5657  0.0833
 3989TIP3   OH211911   4.125   3.222   2.152 -0.5529 -0.2321 -0.3504
 3989TIP3    H111912   4.061   3.249   2.086 -1.1732  1.0926  0.7530
 3989TIP3    H211913   4.203   3.198   2.101 -1.9181 -1.9917 -1.7279
 3990TIP3   OH211914   4.643   7.600   0.735 -0.1120 -0.1607  0.3245
 3990TIP3    H111915   4.641   7.510   0.768  0.7665 -1.0317 -1.7889
 3990TIP3    H211916   4.588   7.597   0.656 -0.2614  1.2219  0.3493
 3991TIP3   OH211917   5.092   3.432   0.940 -0.0685 -0.1087 -0.4934
 3991TIP3    H111918   5.117   3.524   0.948  1.9642 -0.6011 -0.7560
 3991TIP3    H211919   5.173   3.387   0.915 -0.5411 -2.2628  1.5266
 3992TIP3   OH211920   7.182   1.220   2.418  0.7803 -0.1696  0.0269
 3992TIP3    H111921   7.187   1.135   2.374  0.5058 -0.0751 -0.1878
 3992TIP3    H211922   7.273   1.246   2.430  0.8808 -0.9185  0.9195
 3993TIP3   OH211923   0.611   7.782   5.431 -0.1895 -0.5188  0.1378
 3993TIP3    H111924   0.521   7.812   5.425 -0.1874 -0.5906 -0.3164
 3993TIP3    H211925   0.634   7.790   5.523 -0.0539  1.2793 -0.0245
 3994TIP3   OH211926   6.301   3.536   2.801 -1.0401 -0.3492  0.8543
 3994TIP3    H111927   6.227   3.508   2.748 -0.9672 -1.9462  1.5573
 3994TIP3    H211928   6.263   3.594   2.867 -1.5411 -0.5436  0.7346
 3995TIP3   OH211929   2.391   3.308   3.782  0.5227  0.1054  0.1232
 3995TIP3    H111930   2.349   3.329   3.698 -0.5694 -1.8608  0.0999
 3995TIP3    H211931   2.483   3.293   3.759  0.0519 -1.4614 -0.9941
 3996TIP3   OH211932   5.261   0.772   0.336 -0.2153 -0.4909  0.1986
 3996TIP3    H111933   5.172   0.739   0.329 -0.4588  0.0186  0.8320
 3996TIP3    H211934   5.251   0.865   0.356  0.4510 -0.5233  0.7118
 3997TIP3   OH211935   3.685   5.406   2.282  0.2514 -0.2105  0.4053
 3997TIP3    H111936   3.675   5.406   2.377  0.3162 -1.1990  0.4204
 3997TIP3    H211937   3.778   5.428   2.268  0.5993 -1.4834  0.6304
 3998TIP3   OH211938   2.803   3.537   5.044 -0.1070  0.3827  0.1539
 3998TIP3    H111939   2.711   3.512   5.032 -0.2936  0.3124  1.5203
 3998TIP3    H211940   2.811   3.623   5.003 -0.6071  0.0851 -0.5787
 3999TIP3   OH211941   1.872   6.968   3.017 -0.2071 -0.0859  0.0015
 3999TIP3    H111942   1.799   7.009   3.063 -1.4456 -2.6449  0.5357
 3999TIP3    H211943   1.916   6.915   3.083  0.7066 -0.4239 -0.8365
 4000TIP3   OH211944   7.480   0.475   3.476  0.4619  0.1962 -0.1245
 4000TIP3    H111945   7.474   0.380   3.460  0.3947  0.3363 -1.0209
 4000TIP3    H211946   7.568   0.487   3.512  1.7480  0.1205 -2.9225
 4001TIP3   OH211947   6.192   0.432   3.051 -0.3332 -0.4717  0.3226
 4001TIP3    H111948   6.156   0.486   3.121  0.8859  1.2028 -0.2659
 4001TIP3    H211949   6.135   0.449   2.976  0.5276  0.7488 -0.0996
 4002TIP3   OH211950   5.183   2.995   2.521  0.3150 -0.5684 -0.0743
 4002TIP3    H111951   5.207   3.004   2.429 -2.3075 -0.0146 -0.7908
 4002TIP3    H211952   5.165   2.901   2.531 -0.0537 -0.5291 -0.3285
 4003TIP3   OH211953   2.210   5.465   0.581  0.7577  0.2156 -0.2827
 4003TIP3    H111954   2.160   5.519   0.642 -0.0621 -1.7115  0.8477
 4003TIP3    H211955   2.204   5.512   0.498 -4.0264 -0.3920 -0.5665
 4004TIP3   OH211956   2.202   7.592   0.041 -0.5186 -0.1586  0.1151
 4004TIP3    H111957   2.162   7.659  -0.015 -0.5037  0.4693  0.8323
 4004TIP3    H211958   2.136   7.574   0.107 -0.0645  0.0321  0.6302
 4005TIP3   OH211959   0.236   7.418   1.782  0.4994  0.1958 -0.1066
 4005TIP3    H111960   0.177   7.492   1.795  0.3790  0.5782 -2.4618
 4005TIP3    H211961   0.302   7.450   1.721  0.3457 -1.6381 -1.3240
 4006TIP3   OH211962   0.518   2.100   6.669 -0.3272 -0.7102 -0.7335
 4006TIP3    H111963   0.608   2.085   6.696 -0.0263 -0.5120 -1.5718
 4006TIP3    H211964   0.465   2.082   6.747  0.3898 -1.3794 -0.3919
 4007TIP3   OH211965   5.482   6.714  -0.004 -0.0049  0.1309 -0.3462
 4007TIP3    H111966   5.557   6.766  -0.028 -0.6169  1.2121  0.0175
 4007TIP3    H211967   5.420   6.776   0.035 -1.3688 -0.5953 -1.2526
 4008TIP3   OH211968   5.111   6.443   4.244 -0.2740 -0.4270 -0.1446
 4008TIP3    H111969   5.022   6.453   4.280  0.7621  0.3566  2.4645
 4008TIP3    H211970   5.128   6.526   4.199 -0.7134 -0.4159 -0.2951
 4009TIP3   OH211971   0.475   2.908   5.338  0.2786 -0.4667 -0.1201
 4009TIP3    H111972   0.550   2.966   5.331  0.7647 -0.8018  1.7003
 4009TIP3    H211973   0.402   2.966   5.362  0.1625 -0.2728 -0.9208
 4010TIP3   OH211974   2.577   3.227   4.605  0.3531  0.1763 -0.1504
 4010TIP3    H111975   2.662   3.245   4.645  0.4100 -0.4365  0.0006
 4010TIP3    H211976   2.537   3.314   4.596  0.1686  0.2969  1.6090
 4011TIP3   OH211977   0.694   6.993   6.545 -0.1644 -0.0208  0.6088
 4011TIP3    H111978   0.655   6.956   6.624  0.1269 -0.5264  0.5208
 4011TIP3    H211979   0.703   6.919   6.485  0.8638  0.0860  0.6022
 4012TIP3   OH211980   4.068   4.603   5.079 -0.8325  0.2204  0.3606
 4012TIP3    H111981   4.030   4.574   4.996 -3.6394  2.1197  0.8503
 4012TIP3    H211982   4.095   4.522   5.122 -3.3018 -1.2488 -0.6148
 4013TIP3   OH211983   4.337   7.167   6.416 -0.2444 -0.9725  0.7105
 4013TIP3    H111984   4.412   7.196   6.365 -0.3693 -1.7107  0.0788
 4013TIP3    H211985   4.262   7.185   6.359 -0.2949 -2.8846  0.0886
 4014TIP3   OH211986   5.109   1.416   3.166  0.2601  0.3969  0.2656
 4014TIP3    H111987   5.185   1.457   3.126 -0.3683  0.7767 -0.5475
 4014TIP3    H211988   5.147   1.352   3.227  1.2273  0.2785 -0.4301
 4015TIP3   OH211989   8.236   3.777   6.297  0.5732  0.0799  0.0722
 4015TIP3    H111990   8.320   3.816   6.321  1.1274 -0.8469 -0.3411
 4015TIP3    H211991   8.176   3.852   6.292  0.9839  0.5879  1.9213
 4016TIP3   OH211992   1.547   5.623   3.388  0.6141 -0.1501  0.1315
 4016TIP3    H111993   1.453   5.608   3.402  0.4430 -0.6830 -1.4351
 4016TIP3    H211994   1.574   5.677   3.463 -0.7329 -0.7665  1.0968
 4017TIP3   OH211995   3.701   2.228   4.810 -0.6743 -0.2901  0.3952
 4017TIP3    H111996   3.778   2.212   4.754 -0.9268 -0.2629  0.0350
 4017TIP3    H211997   3.738   2.243   4.897 -0.1801  0.8369  0.0184
 4018TIP3   OH211998   7.955   1.238   6.320 -0.3400  0.3475  0.4902
 4018TIP3    H111999   7.918   1.223   6.407  0.1269  0.7757  0.7701
 4018TIP3    H212000   8.026   1.300   6.335 -1.7040  2.2241 -0.5193
 4019TIP3   OH212001   5.558   4.054   2.445  0.5458 -0.4410 -0.3100
 4019TIP3    H112002   5.560   4.030   2.538  1.2403 -1.4173 -0.5494
 4019TIP3    H212003   5.578   4.148   2.444  3.6005 -0.9745  0.4037
 4020TIP3   OH212004   0.816   1.917   1.185  0.8224 -0.1491 -0.1034
 4020TIP3    H112005   0.764   1.866   1.247 -0.6741  1.6503  0.2026
 4020TIP3    H212006   0.890   1.948   1.237 -0.3169  1.1792  0.7958
 4021TIP3   OH212007   2.091   4.999   4.181 -0.0965  0.1553 -0.1400
 4021TIP3    H112008   2.046   5.023   4.262  0.2744 -0.2783  0.2000
 4021TIP3    H212009   2.163   4.944   4.209 -1.6499 -2.4826 -0.9478
 4022TIP3   OH212010   6.952   1.208   0.183  0.0943 -0.3752  0.3183
 4022TIP3    H112011   6.908   1.175   0.261  0.9818  0.8589  1.3971
 4022TIP3    H212012   6.925   1.300   0.178 -1.3514 -0.8342 -1.8859
 4023TIP3   OH212013   6.733   0.675   2.944 -0.0242 -0.9411 -0.3002
 4023TIP3    H112014   6.686   0.759   2.950  0.2351 -0.8653  0.8572
 4023TIP3    H212015   6.738   0.658   2.850  1.2013  1.0733 -0.6624
 4024TIP3   OH212016   0.748   0.144   1.926  0.0332  0.6546 -0.0985
 4024TIP3    H112017   0.795   0.202   1.987  0.0279  1.6388 -1.0062
 4024TIP3    H212018   0.703   0.203   1.867  0.3085 -0.2805 -1.2783
 4025TIP3   OH212019   2.898   4.190   1.750  0.7471  0.2512 -0.1614
 4025TIP3    H112020   2.917   4.247   1.675  1.3843 -0.1456 -0.3134
 4025TIP3    H212021   2.841   4.243   1.806  0.8627  0.8285 -0.5710
 4026TIP3   OH212022   1.138   3.637   4.441  0.8047 -0.0394 -0.5750
 4026TIP3    H112023   1.158   3.554   4.398  0.0152 -0.5725  0.0452
 4026TIP3    H212024   1.047   3.655   4.416  0.8794  0.4903 -0.4720
 4027TIP3   OH212025   7.415   5.978   5.343 -0.4019 -0.1078  0.4244
 4027TIP3    H112026   7.450   5.903   5.296 -2.5912 -2.2591  2.0277
 4027TIP3    H212027   7.325   5.987   5.311  0.0215  2.3820 -0.2809
 4028TIP3   OH212028   5.789   0.475   1.972  0.4344 -0.5335 -0.2266
 4028TIP3    H112029   5.837   0.495   2.052 -0.4037  0.2141  0.1107
 4028TIP3    H212030   5.810   0.384   1.952 -0.2656 -1.1102  1.5147
 4029TIP3   OH212031   4.624   5.708   6.625 -1.0901  0.3881 -0.5086
 4029TIP3    H112032   4.681   5.734   6.697  0.9873 -0.6157 -1.6919
 4029TIP3    H212033   4.586   5.791   6.593  2.5469  1.7256 -1.9089
 4030TIP3   OH212034   3.383   5.194   3.510 -0.1632 -0.1458  0.6766
 4030TIP3    H112035   3.316   5.194   3.578 -0.2552  0.6113  0.5869
 4030TIP3    H212036   3.380   5.105   3.474 -0.5127 -0.3757  1.2620
 4031TIP3   OH212037   3.748   3.150   5.439 -0.7215 -0.3522 -0.0446
 4031TIP3    H112038   3.785   3.065   5.465 -0.1499  0.3450  1.5983
 4031TIP3    H212039   3.665   3.129   5.396  0.3924 -1.8348 -1.5989
 4032TIP3   OH212040   5.113   6.938   2.211 -0.2830  0.5052  0.0626
 4032TIP3    H112041   5.089   7.029   2.230 -2.1558 -0.2035  1.3765
 4032TIP3    H212042   5.177   6.916   2.278 -0.2606  0.6733  0.0986
 4033TIP3   OH212043   0.076   3.967   3.740 -0.1119  0.0325  0.2110
 4033TIP3    H112044   0.081   4.000   3.650  1.0922 -2.6922 -0.8392
 4033TIP3    H212045   0.147   4.012   3.786  0.6521 -0.0867 -0.8072
 4034TIP3   OH212046   1.084   1.252   2.953 -0.1620  0.1153  0.1518
 4034TIP3    H112047   1.089   1.194   2.877 -0.0954 -0.5752  0.6649
 4034TIP3    H212048   1.175   1.268   2.977 -0.1893 -0.1095  0.4079
 4035TIP3   OH212049   2.630   2.283   4.607  0.1717  0.6160  0.2617
 4035TIP3    H112050   2.585   2.251   4.529 -0.4224  1.4486  0.2459
 4035TIP3    H212051   2.687   2.353   4.575 -0.0618  0.9494  0.5746
 4036TIP3   OH212052   5.015   5.004   6.142  0.4516 -0.1192  0.0466
 4036TIP3    H112053   5.048   4.977   6.056  1.1847  0.3642  0.1653
 4036TIP3    H212054   4.937   4.950   6.156  0.1906 -0.0283 -1.0191
 4037TIP3   OH212055   7.381   3.730   0.640 -0.4901 -0.4509 -0.0932
 4037TIP3    H112056   7.373   3.757   0.731  3.7710 -0.0746  0.3730
 4037TIP3    H212057   7.313   3.664   0.628 -0.7593 -1.0304  3.5626
 4038TIP3   OH212058   3.574   3.085   3.535 -0.1376  0.0042  0.1409
 4038TIP3    H112059   3.558   3.044   3.620 -0.7982  0.3878  0.2106
 4038TIP3    H212060   3.544   3.175   3.546 -2.5064 -0.5392 -1.2011
 4039TIP3   OH212061   2.828   6.017   5.627 -0.7136  0.0739  0.0028
 4039TIP3    H112062   2.824   5.976   5.541 -1.7894  0.8571 -0.3395
 4039TIP3    H212063   2.768   6.092   5.621 -0.0033  0.7575  1.1014
 4040TIP3   OH212064   0.623   0.680   1.324  0.5591 -0.3431 -0.1708
 4040TIP3    H112065   0.624   0.602   1.270 -0.2160 -1.0164  0.7568
 4040TIP3    H212066   0.618   0.753   1.262  1.9737 -0.9823 -1.0678
 4041TIP3   OH212067   6.507   3.017   2.316  0.5767 -0.3475  0.2880
 4041TIP3    H112068   6.509   2.928   2.352 -0.0673 -1.8238 -2.9178
 4041TIP3    H212069   6.441   3.062   2.367  0.2266 -2.0319  1.4128
 4042TIP3   OH212070   6.524   5.934   4.278 -0.0301 -0.1332  0.2988
 4042TIP3    H112071   6.614   5.961   4.294 -0.2712 -0.3295  2.2721
 4042TIP3    H212072   6.527   5.839   4.280 -0.2587 -0.1415  0.2613
 4043TIP3   OH212073   1.710   3.843   0.187  0.4203 -0.5888 -0.7764
 4043TIP3    H112074   1.632   3.788   0.176 -0.4037  0.7251 -1.8772
 4043TIP3    H212075   1.781   3.792   0.148  0.4574 -2.4061  1.4638
 4044TIP3   OH212076   2.643   7.263   5.985 -0.8320 -0.0656 -0.2645
 4044TIP3    H112077   2.651   7.308   6.069  2.3774  1.2197 -1.0848
 4044TIP3    H212078   2.607   7.329   5.926  0.9297  0.5099 -0.7664
 4045TIP3   OH212079   1.902   6.137   1.358 -0.3239 -0.5318  0.2868
 4045TIP3    H112080   1.886   6.099   1.272  0.1873 -2.4217  0.9650
 4045TIP3    H212081   1.936   6.225   1.340 -1.7374 -0.2774 -1.3639
 4046TIP3   OH212082   1.651   0.388   2.578 -0.1488  0.0103 -0.5643
 4046TIP3    H112083   1.609   0.395   2.664 -0.1974 -1.9914 -0.3789
 4046TIP3    H212084   1.592   0.435   2.518 -0.7137  0.4202  0.2945
 4047TIP3   OH212085   4.350   4.204   1.456  0.3744  0.0474 -0.1346
 4047TIP3    H112086   4.420   4.147   1.488 -0.1121 -0.2892  0.3353
 4047TIP3    H212087   4.395   4.268   1.401  1.1507  0.2916  0.7591
 4048TIP3   OH212088   7.512   7.500   0.539 -0.0049 -0.0967 -0.0934
 4048TIP3    H112089   7.565   7.521   0.616 -0.2613 -0.7079  0.2575
 4048TIP3    H212090   7.423   7.528   0.562 -0.4102 -1.7528  0.4967
 4049TIP3   OH212091   3.033   0.445   5.246 -0.3353 -0.1911 -0.8460
 4049TIP3    H112092   2.943   0.474   5.254 -0.3200 -0.1981 -0.6498
 4049TIP3    H212093   3.051   0.447   5.151 -0.6908 -0.6429 -0.9283
 4050TIP3   OH212094   5.760   5.547   2.502  0.2619 -0.1604  0.0117
 4050TIP3    H112095   5.805   5.491   2.438 -0.7029 -0.5189 -0.3658
 4050TIP3    H212096   5.748   5.490   2.578  1.2014  0.1971  0.4494
 4051TIP3   OH212097   2.765   4.371   5.576 -0.3568 -0.1753  0.0396
 4051TIP3    H112098   2.835   4.306   5.576 -1.0068 -0.9488  1.8132
 4051TIP3    H212099   2.810   4.455   5.583  0.4117 -0.7105  2.2126
 4052TIP3   OH212100   6.299   4.242   2.813 -0.4076 -0.0091 -0.0939
 4052TIP3    H112101   6.276   4.200   2.897 -1.6766 -0.7287 -0.7564
 4052TIP3    H212102   6.311   4.169   2.753  0.9456  0.4902 -0.4519
 4053TIP3   OH212103   1.447   5.478   0.821 -0.0668  0.6804 -0.1570
 4053TIP3    H112104   1.460   5.414   0.891 -1.0432 -1.2580 -1.6656
 4053TIP3    H212105   1.508   5.549   0.843  0.3375 -0.2653  2.1180
 4054TIP3   OH212106   2.334   6.092   4.473  0.1643 -0.0723  0.1576
 4054TIP3    H112107   2.330   5.997   4.491 -1.4009 -0.1524 -0.4300
 4054TIP3    H212108   2.252   6.126   4.509  0.6694  1.0631  0.2707
 4055TIP3   OH212109   3.055   5.586   2.570  0.3892 -0.0633  0.0403
 4055TIP3    H112110   2.970   5.576   2.529 -0.4986 -0.4581  1.8848
 4055TIP3    H212111   3.115   5.538   2.513 -0.5019  0.6030 -1.5224
 4056TIP3   OH212112   5.159   1.631   4.433 -0.1873  0.1720  0.5092
 4056TIP3    H112113   5.112   1.625   4.517 -0.6371 -3.8171  0.1828
 4056TIP3    H212114   5.247   1.600   4.454 -0.1485 -0.3260 -0.3809
 4057TIP3   OH212115   7.293   3.848   6.375 -0.2079 -0.0416 -0.2623
 4057TIP3    H112116   7.241   3.884   6.303 -0.7867  0.4595  0.3910
 4057TIP3    H212117   7.383   3.853   6.344 -0.2848  1.7743 -0.3118
 4058TIP3   OH212118   4.257   7.501   3.722 -0.2084  0.6553  0.2686
 4058TIP3    H112119   4.296   7.443   3.657 -1.9981  0.4061 -0.6309
 4058TIP3    H212120   4.234   7.444   3.795 -3.8421 -0.2741 -1.4309
 4059TIP3   OH212121   7.367   4.750   3.879  0.0853 -0.4750  0.7443
 4059TIP3    H112122   7.412   4.672   3.846 -2.1334 -0.8402 -1.7324
 4059TIP3    H212123   7.417   4.824   3.843  1.1541 -0.7295  1.6382
 4060TIP3   OH212124   5.155   5.543   5.867  0.1233 -0.3500  0.3769
 4060TIP3    H112125   5.196   5.614   5.817 -0.9531 -0.0332 -0.0826
 4060TIP3    H212126   5.142   5.580   5.954 -0.4430  0.0309  0.1366
 4061TIP3   OH212127   7.290   2.955  -0.024  0.2116  0.2899  0.0329
 4061TIP3    H112128   7.311   3.048  -0.036 -0.3740  0.5884  1.1174
 4061TIP3    H212129   7.297   2.941   0.071  0.2727 -0.7763 -0.1152
 4062TIP3   OH212130   4.946   4.378   4.089 -0.0635 -0.1820  0.2284
 4062TIP3    H112131   4.961   4.467   4.122  0.1734 -0.8143  1.9285
 4062TIP3    H212132   4.860   4.354   4.123 -0.6315 -0.2314 -1.1641
 4063TIP3   OH212133   0.624   2.229   3.446 -0.1716  0.1399 -0.4847
 4063TIP3    H112134   0.605   2.315   3.409 -1.4041  0.4401  0.7449
 4063TIP3    H212135   0.688   2.246   3.515 -0.2855  0.0577 -0.3570
 4064TIP3   OH212136   2.647   3.162   5.570  0.3301  0.5336 -0.1327
 4064TIP3    H112137   2.598   3.080   5.569  0.6260  0.1912  3.1482
 4064TIP3    H212138   2.585   3.227   5.539 -0.7416 -0.5432 -0.3204
 4065TIP3   OH212139   5.821   3.209   3.626 -0.1930  0.4691  0.2483
 4065TIP3    H112140   5.878   3.136   3.649  2.2725  0.0129 -5.5367
 4065TIP3    H212141   5.864   3.286   3.664 -0.1065 -0.5122  2.2867
 4066TIP3   OH212142   4.850   7.238   2.602 -0.1407 -0.3403 -0.2315
 4066TIP3    H112143   4.791   7.222   2.529 -2.2306  0.1671  1.2564
 4066TIP3    H212144   4.814   7.315   2.646  2.0023  0.3681  0.4117
 4067TIP3   OH212145   5.158   3.568   2.785  0.1782  0.3106 -0.5094
 4067TIP3    H112146   5.107   3.624   2.727  1.2245  2.2999  0.4261
 4067TIP3    H212147   5.098   3.545   2.856  0.1747  1.5970 -0.0707
 4068TIP3   OH212148   2.018   4.200   4.645 -0.3915 -0.0464 -0.0081
 4068TIP3    H112149   1.933   4.237   4.620  0.1994  1.4733  0.1306
 4068TIP3    H212150   1.996   4.123   4.697 -1.6618 -0.8409 -1.6241
 4069TIP3   OH212151   1.041   1.165   5.288 -0.1375 -0.3445  0.3901
 4069TIP3    H112152   1.059   1.219   5.365 -0.8665  0.1322  0.2301
 4069TIP3    H212153   1.100   1.199   5.220  0.3681 -0.6422  0.6731
 4070TIP3   OH212154   3.181   4.893   2.616  0.2432 -0.5219 -0.2552
 4070TIP3    H112155   3.244   4.936   2.673 -1.2205  0.2544  0.8341
 4070TIP3    H212156   3.142   4.964   2.565 -2.1157 -0.4536  1.4801
 4071TIP3   OH212157   0.674   4.323   5.581 -0.4313  0.2331  0.0610
 4071TIP3    H112158   0.733   4.380   5.532 -0.0310 -0.1696  0.0674
 4071TIP3    H212159   0.600   4.379   5.605 -0.1846  0.6681 -0.1919
 4072TIP3   OH212160   5.587   4.372   2.527 -0.2283  0.1426 -0.5131
 4072TIP3    H112161   5.621   4.373   2.616 -0.8870 -2.0987 -0.1759
 4072TIP3    H212162   5.492   4.380   2.538 -0.2108  1.5601 -1.1527
 4073TIP3   OH212163   3.757   6.712   0.404 -0.1664 -0.0894  0.2348
 4073TIP3    H112164   3.780   6.658   0.328 -0.8573 -1.7220  1.1270
 4073TIP3    H212165   3.686   6.768   0.373  1.6562  1.5793 -1.1764
 4074TIP3   OH212166   6.976   2.974   4.361  0.1799 -1.0923 -0.3332
 4074TIP3    H112167   6.957   2.966   4.454 -2.6606 -3.0026 -0.9355
 4074TIP3    H212168   7.043   2.907   4.344  0.6651 -0.7768  0.2965
 4075TIP3   OH212169   0.635   5.093   1.183  0.1497 -0.1591 -0.5723
 4075TIP3    H112170   0.558   5.147   1.199  1.3127  1.4100 -0.0543
 4075TIP3    H212171   0.618   5.011   1.230 -0.2123  1.0514  1.5014
 4076TIP3   OH212172   1.043   2.954   3.711  0.1795  0.1736 -0.3558
 4076TIP3    H112173   1.009   2.892   3.776  0.1494 -0.9629 -1.4150
 4076TIP3    H212174   1.035   2.908   3.628  1.5074  1.0604 -1.0057
 4077TIP3   OH212175   4.788   2.149   3.203 -0.0701 -0.0241 -0.2490
 4077TIP3    H112176   4.746   2.156   3.117  0.6943  2.9739 -0.4864
 4077TIP3    H212177   4.822   2.059   3.206 -1.1580 -0.5914 -2.5507
 4078TIP3   OH212178   3.825   6.886   0.780  0.0472  0.3627  0.4624
 4078TIP3    H112179   3.741   6.858   0.815  0.3251 -3.2553 -1.3047
 4078TIP3    H212180   3.890   6.831   0.823  1.0920  0.4694 -0.8789
 4079TIP3   OH212181   1.076   3.736   4.120  0.2397  0.1395 -0.2205
 4079TIP3    H112182   1.103   3.806   4.061  1.6542 -0.2821 -0.0963
 4079TIP3    H212183   1.081   3.775   4.207 -0.3004  0.2787 -0.2456
 4080TIP3   OH212184   1.959   0.685   6.485  0.0656 -0.3144 -0.0986
 4080TIP3    H112185   1.945   0.707   6.393 -0.0821 -0.1353 -0.0341
 4080TIP3    H212186   1.871   0.674   6.521  0.0081  1.7930  0.5503
 4081TIP3   OH212187   5.447   3.008   6.158  0.2557 -0.2657 -0.1049
 4081TIP3    H112188   5.381   3.072   6.186  1.0809  0.2551  0.6852
 4081TIP3    H212189   5.398   2.945   6.105 -0.5734  1.0198 -0.9080
 4082TIP3   OH212190   6.692   0.550   0.661 -0.8674 -0.6920 -0.0054
 4082TIP3    H112191   6.614   0.606   0.668  0.5961  1.2461  2.5659
 4082TIP3    H212192   6.765   0.610   0.673  0.9611 -2.7979 -0.0688
 4083TIP3   OH212193   0.861   3.569   0.544 -0.0003  0.4747 -0.3302
 4083TIP3    H112194   0.851   3.474   0.550 -0.5909  0.5457 -0.1059
 4083TIP3    H212195   0.912   3.583   0.464  3.5656 -0.2493  1.6192
 4084TIP3   OH212196   3.113   1.745   5.168 -0.7542 -0.4475  0.4855
 4084TIP3    H112197   3.062   1.668   5.147 -2.4472  0.0888  2.2851
 4084TIP3    H212198   3.049   1.815   5.180  0.7644  1.5235 -1.9203
 4085TIP3   OH212199   4.527   3.929   5.078 -1.1206  0.0695 -0.2275
 4085TIP3    H112200   4.622   3.938   5.076 -1.1124  0.6345  1.4104
 4085TIP3    H212201   4.508   3.859   5.015  0.3787 -0.1417 -0.4781
 4086TIP3   OH212202   5.359   2.972   5.114  0.4135 -0.2593  0.0062
 4086TIP3    H112203   5.308   3.039   5.161  0.1945 -0.7734  0.5107
 4086TIP3    H212204   5.294   2.923   5.064  0.0998 -2.1117  2.0823
 4087TIP3   OH212205   2.812   4.982   4.239 -0.4764 -0.0475 -0.3287
 4087TIP3    H112206   2.870   5.027   4.178 -0.3390  0.0904 -0.0966
 4087TIP3    H212207   2.724   5.005   4.210 -0.4064  0.3273 -0.2408
 4088TIP3   OH212208   6.204   0.615   4.995  0.4660  0.4309  0.2095
 4088TIP3    H112209   6.258   0.659   5.060  0.9308 -0.2330  0.2805
 4088TIP3    H212210   6.195   0.525   5.028  0.2741  0.2294 -0.3783
 4089TIP3   OH212211   0.996   6.099   0.067 -0.1230  0.0517 -0.2382
 4089TIP3    H112212   0.938   6.030   0.034  0.2295  0.1561 -1.1223
 4089TIP3    H212213   0.954   6.130   0.147 -0.2312 -1.2655  0.2386
 4090TIP3   OH212214   4.294   3.740   6.323 -0.3883 -0.6909  0.2730
 4090TIP3    H112215   4.372   3.699   6.361 -1.7397 -1.8373  1.9435
 4090TIP3    H212216   4.325   3.826   6.293  1.7510 -1.5587 -0.1921
 4091TIP3   OH212217   1.930   4.060   2.749  0.2792 -0.2290 -1.0310
 4091TIP3    H112218   2.019   4.070   2.781  0.5028 -1.8594 -1.0459
 4091TIP3    H212219   1.878   4.048   2.828  0.3503 -1.0617 -1.1057
 4092TIP3   OH212220   5.014   6.447   1.748 -0.6554 -0.3195 -0.3866
 4092TIP3    H112221   5.007   6.465   1.654  0.2543  0.4530 -0.3204
 4092TIP3    H212222   5.074   6.373   1.754 -2.1079 -1.5341 -0.4983
 4093TIP3   OH212223   4.864   6.924   6.460  0.3580 -0.2705 -0.2031
 4093TIP3    H112224   4.837   6.837   6.429  2.1665 -0.8530 -0.2551
 4093TIP3    H212225   4.860   6.917   6.556  1.3666 -0.7241 -0.1847
 4094TIP3   OH212226   7.281   3.619   2.171 -0.3516  0.1272  0.0658
 4094TIP3    H112227   7.247   3.563   2.101 -1.6905  0.1001  0.6958
 4094TIP3    H212228   7.351   3.568   2.211  0.2218  0.0178 -1.0356
 4095TIP3   OH212229   1.724   6.244   4.125 -0.0608  0.1391 -0.1037
 4095TIP3    H112230   1.688   6.284   4.046  0.1679 -1.5460 -1.1312
 4095TIP3    H212231   1.703   6.151   4.115  0.1800 -0.1418  1.7293
 4096TIP3   OH212232   4.554   6.155   1.057  0.1680 -0.1675  0.1733
 4096TIP3    H112233   4.598   6.209   1.122  0.2103 -0.6543  0.5556
 4096TIP3    H212234   4.624   6.125   0.999 -0.0163  1.2643 -0.8607
 4097TIP3   OH212235   8.058   7.011   3.940  0.2121 -0.0261  0.2870
 4097TIP3    H112236   8.084   6.990   3.851 -0.2541 -0.6495  0.2896
 4097TIP3    H212237   7.982   6.955   3.957  0.7849 -0.5116  1.3555
 4098TIP3   OH212238   0.510   0.421   1.663  0.1831  0.0280 -0.2281
 4098TIP3    H112239   0.448   0.491   1.642 -0.1022  0.5103  1.9710
 4098TIP3    H212240   0.537   0.386   1.578 -2.2792  0.5196 -1.3029
 4099TIP3   OH212241   2.349   0.749   0.654  0.2903  0.0014  0.0475
 4099TIP3    H112242   2.324   0.837   0.683  2.2974  0.4391  0.5949
 4099TIP3    H212243   2.415   0.720   0.718 -1.4218 -2.5772  0.8217
 4100TIP3   OH212244   8.097   0.953   0.849  0.0547  0.2832 -0.7665
 4100TIP3    H112245   8.050   0.870   0.844 -1.3392  0.8876  1.2755
 4100TIP3    H212246   8.041   1.016   0.804 -0.4574  0.7391  0.4884
 4101TIP3   OH212247   2.234   2.270   2.094 -0.0796 -0.5099  0.3006
 4101TIP3    H112248   2.313   2.262   2.040  0.5245 -0.0538  1.0977
 4101TIP3    H212249   2.231   2.189   2.144 -0.4812 -0.8081 -0.1995
 4102TIP3   OH212250   6.767   7.503   2.170  0.1332 -0.2133 -0.1961
 4102TIP3    H112251   6.773   7.597   2.152 -1.0824 -0.0951 -0.0953
 4102TIP3    H212252   6.673   7.485   2.171  0.0953 -0.6709  3.6568
 4103TIP3   OH212253   7.423   4.233   0.820 -0.2492 -0.0891  0.3098
 4103TIP3    H112254   7.351   4.245   0.882  0.0422  1.2021  0.4261
 4103TIP3    H212255   7.389   4.263   0.736 -0.6704 -1.9184 -0.2188
 4104TIP3   OH212256   2.413   3.606   2.064 -0.4150 -0.2668  0.3434
 4104TIP3    H112257   2.363   3.533   2.027  0.3387  0.0329 -1.3596
 4104TIP3    H212258   2.436   3.659   1.988 -1.6665  2.2419  1.6075
 4105TIP3   OH212259   0.410   5.562   1.743  0.4156 -0.1453 -0.1465
 4105TIP3    H112260   0.342   5.622   1.773  1.2250 -0.0419  1.6416
 4105TIP3    H212261   0.468   5.553   1.819  0.9227 -2.3221 -0.7342
 4106TIP3   OH212262   3.350   0.089   6.126 -0.6306  0.3878  0.6638
 4106TIP3    H112263   3.384   0.155   6.066 -1.0433  0.4108  0.4539
 4106TIP3    H212264   3.346   0.009   6.074 -0.1421  0.1935  0.9140
 4107TIP3   OH212265   1.978   3.844   4.652  0.0663  0.2336  0.5707
 4107TIP3    H112266   2.019   3.761   4.676 -0.8560 -1.3319 -2.7575
 4107TIP3    H212267   1.888   3.821   4.631 -0.9869  2.6107  2.0424
 4108TIP3   OH212268   3.815   5.761   3.828  0.4312  0.5366  0.3566
 4108TIP3    H112269   3.720   5.760   3.842  0.3976 -1.1623  0.1573
 4108TIP3    H212270   3.836   5.854   3.816 -0.7616  1.3132  3.2326
 4109TIP3   OH212271   2.336   3.078   0.668  1.1713 -0.0522  0.4143
 4109TIP3    H112272   2.348   2.983   0.669  1.1795 -0.0445  1.6349
 4109TIP3    H212273   2.424   3.114   0.657  1.0492 -0.1843 -1.2877
 4110TIP3   OH212274   5.335   1.474   5.669  0.0508  0.0016  0.3445
 4110TIP3    H112275   5.290   1.492   5.587 -1.4755  0.0479  1.1337
 4110TIP3    H212276   5.428   1.478   5.648 -0.3032  0.4980 -1.2570
 4111TIP3   OH212277   0.401   6.429   5.306  0.4844 -0.8120 -0.3010
 4111TIP3    H112278   0.410   6.381   5.388  1.0570 -0.6612 -0.2698
 4111TIP3    H212279   0.488   6.466   5.291  0.1363 -0.0696 -0.5020
 4112TIP3   OH212280   4.759   1.001   4.220 -0.1239 -0.0540  0.4590
 4112TIP3    H112281   4.737   1.044   4.137 -0.7035 -0.8757  0.1766
 4112TIP3    H212282   4.676   0.970   4.254  0.2034 -0.3647  0.9898
 4113TIP3   OH212283   0.348   0.714   3.129  0.0676 -0.1150 -0.0264
 4113TIP3    H112284   0.258   0.691   3.110  0.7870 -3.1424 -0.1774
 4113TIP3    H212285   0.347   0.744   3.220 -1.0511 -0.0861 -0.0376
 4114TIP3   OH212286   1.835   4.671   4.554 -0.2196  0.5643 -0.0938
 4114TIP3    H112287   1.912   4.648   4.605 -1.3784  0.5030  1.7304
 4114TIP3    H212288   1.859   4.652   4.463  1.7847  0.3011  0.4514
 4115TIP3   OH212289   3.240   0.729   3.288 -0.5182  0.2800 -0.0501
 4115TIP3    H112290   3.202   0.814   3.263 -0.6765  0.6126  1.2432
 4115TIP3    H212291   3.302   0.709   3.218 -1.7806  0.5872 -1.3000
 4116TIP3   OH212292   0.203   2.647   0.120  0.0873 -0.1697  0.0276
 4116TIP3    H112293   0.138   2.673   0.186  2.0434 -0.6086  2.2554
 4116TIP3    H212294   0.174   2.560   0.092 -0.9910  0.1841 -0.0381
 4117TIP3   OH212295   3.488   4.992   4.004  0.4585 -0.3368  0.3830
 4117TIP3    H112296   3.507   4.909   3.961  2.1833  0.8241 -1.2617
 4117TIP3    H212297   3.574   5.034   4.015 -0.1521  0.4275  2.9573
 4118TIP3   OH212298   6.982   5.722   0.683 -0.2075  0.1464 -0.6829
 4118TIP3    H112299   6.928   5.795   0.654 -0.0824  1.2793  1.6699
 4118TIP3    H212300   7.065   5.734   0.637 -0.2824  1.3477 -0.5354
 4119TIP3   OH212301   4.645   7.644   6.427  0.2559 -0.5133 -0.0881
 4119TIP3    H112302   4.577   7.600   6.478 -0.9729  0.2933 -0.9657
 4119TIP3    H212303   4.698   7.573   6.390 -1.9905 -1.3553 -1.9175
 4120TIP3   OH212304   4.669   3.770   1.294  0.4106  0.7037 -0.4945
 4120TIP3    H112305   4.715   3.854   1.286 -0.6817  1.4131  0.4056
 4120TIP3    H212306   4.739   3.704   1.292  2.1919  1.8428  5.1678
 4121TIP3   OH212307   4.582   6.602   0.821 -0.1652  0.1725 -0.4990
 4121TIP3    H112308   4.668   6.570   0.794 -0.6857 -2.0050  0.2371
 4121TIP3    H212309   4.528   6.596   0.742  0.2001  1.0079 -0.8199
 4122TIP3   OH212310   5.777   0.691   2.466  0.0661 -0.0660 -0.1968
 4122TIP3    H112311   5.864   0.694   2.424  0.5503  0.2659  0.7984
 4122TIP3    H212312   5.736   0.773   2.440  0.1040 -0.1543 -0.5484
 4123TIP3   OH212313   0.546   1.321   3.726 -0.2567 -0.1326 -0.0769
 4123TIP3    H112314   0.456   1.288   3.720  0.0374 -1.2527  1.0834
 4123TIP3    H212315   0.594   1.268   3.663  0.1208 -1.7045  1.4392
 4124TIP3   OH212316   1.809   7.495   4.623 -0.0204 -0.1941 -0.1934
 4124TIP3    H112317   1.745   7.473   4.691  1.0816 -0.5454  0.7698
 4124TIP3    H212318   1.767   7.470   4.541 -2.4337  2.5636  0.0600
 4125TIP3   OH212319   4.391   2.909   3.087 -0.1791 -0.2607  0.2274
 4125TIP3    H112320   4.322   2.903   3.153 -0.6708  1.2399 -0.1084
 4125TIP3    H212321   4.368   2.986   3.035 -0.3801 -1.8990 -2.3387
 4126TIP3   OH212322   1.986   1.844   2.457 -0.0451 -0.8037  0.5838
 4126TIP3    H112323   2.023   1.768   2.412 -1.1487 -0.7366 -0.4896
 4126TIP3    H212324   2.056   1.908   2.457 -0.0610 -0.7276 -1.2874
 4127TIP3   OH212325   7.194   3.271   4.220 -0.2627  0.5435  0.0757
 4127TIP3    H112326   7.279   3.307   4.246 -0.1016  0.9892 -1.0059
 4127TIP3    H212327   7.216   3.190   4.173 -0.4482  0.5812 -0.0778
 4128TIP3   OH212328   3.658   6.043   4.526 -0.2803 -0.2229 -0.7767
 4128TIP3    H112329   3.624   6.000   4.605 -0.8808 -0.5587 -1.2119
 4128TIP3    H212330   3.720   6.108   4.560 -0.0047 -0.8356 -0.0662
 4129TIP3   OH212331   0.647   1.793   5.590 -0.3348  0.1683 -0.4267
 4129TIP3    H112332   0.618   1.776   5.680 -0.8575 -2.6354 -1.0431
 4129TIP3    H212333   0.743   1.797   5.596 -0.1312 -2.9820 -0.0715
 4130TIP3   OH212334   6.485   5.888   3.495 -0.0425 -0.3471 -0.1526
 4130TIP3    H112335   6.549   5.830   3.453  1.8499  0.6110  1.2444
 4130TIP3    H212336   6.512   5.890   3.587  2.9276  6.0163 -0.6300
 4131TIP3   OH212337   0.923   1.711   3.957 -0.0567 -0.3656 -0.1985
 4131TIP3    H112338   0.841   1.692   4.004  0.0733  0.1366  0.2468
 4131TIP3    H212339   0.896   1.771   3.887 -0.0260  0.0214  0.1206
 4132TIP3   OH212340   6.899   2.068   4.951  0.6752  0.1083  0.2984
 4132TIP3    H112341   6.820   2.116   4.976  2.0270  1.9746  1.2244
 4132TIP3    H212342   6.911   2.089   4.858  1.2475  1.6122  0.6921
 4133TIP3   OH212343   1.173   2.185   0.293  0.2157 -0.4343  0.3015
 4133TIP3    H112344   1.143   2.107   0.340  0.5460 -1.7521 -1.5646
 4133TIP3    H212345   1.093   2.223   0.256  0.3237 -1.6100 -1.2391
 4134TIP3   OH212346   4.067   6.406   2.476 -0.0384  0.5660 -0.1850
 4134TIP3    H112347   4.090   6.402   2.569  2.5562 -1.0266 -0.7707
 4134TIP3    H212348   4.084   6.497   2.451  1.7541  0.4301  0.3958
 4135TIP3   OH212349   0.886   5.020   5.150 -0.0709 -0.4748  0.0152
 4135TIP3    H112350   0.845   5.061   5.227  1.7464 -0.4153  1.0238
 4135TIP3    H212351   0.977   5.051   5.153 -0.2344  0.5334 -2.9053
 4136TIP3   OH212352   5.529   3.125   4.229  0.5040  0.0822 -0.1116
 4136TIP3    H112353   5.445   3.158   4.261  0.4038  0.2600 -0.5495
 4136TIP3    H212354   5.521   3.129   4.133  0.8287 -0.3657 -0.1583
 4137TIP3   OH212355   7.174   4.177   6.591 -0.8904 -0.1939 -0.1505
 4137TIP3    H112356   7.123   4.201   6.514  0.1695  2.4577 -0.1200
 4137TIP3    H212357   7.261   4.156   6.556 -0.6036  0.3185  0.2496
 4138TIP3   OH212358   6.751   6.728   4.863  0.2161  0.0950  0.9880
 4138TIP3    H112359   6.833   6.773   4.885  0.8929 -1.0669  0.9208
 4138TIP3    H212360   6.777   6.638   4.846 -0.9703 -0.0977  0.0970
 4139TIP3   OH212361   1.759   1.142   3.191 -0.4444  0.4891  0.3482
 4139TIP3    H112362   1.749   1.117   3.283 -0.9768 -0.3509  0.0701
 4139TIP3    H212363   1.771   1.237   3.194  0.2456  0.3833  1.3289
 4140TIP3   OH212364   5.467   6.839   5.359 -0.0898  0.1642 -0.3353
 4140TIP3    H112365   5.483   6.851   5.453 -0.9241  0.2970 -0.1961
 4140TIP3    H212366   5.441   6.747   5.351 -1.3893  0.4978 -0.2093
 4141TIP3   OH212367   7.422   2.551   5.230 -0.1121 -0.4649 -0.7370
 4141TIP3    H112368   7.489   2.534   5.164  0.9516  1.9562 -0.3948
 4141TIP3    H212369   7.356   2.602   5.184 -0.4292 -0.6131 -0.4484
 4142TIP3   OH212370   0.457   0.140   5.904  0.0928 -0.1174 -0.7102
 4142TIP3    H112371   0.424   0.228   5.920  1.0746  0.2811 -0.7816
 4142TIP3    H212372   0.381   0.083   5.916 -0.7868  0.8199 -1.6524
 4143TIP3   OH212373   3.769   7.647   2.039 -0.6798  0.1030 -0.0213
 4143TIP3    H112374   3.820   7.573   2.074  0.6243 -0.9800 -3.7344
 4143TIP3    H212375   3.815   7.724   2.071  0.8963 -0.7893 -0.0070
 4144TIP3   OH212376   4.882   6.984   0.301 -0.5030  0.0881  0.2902
 4144TIP3    H112377   4.886   6.889   0.286  1.2966  0.3709 -1.4133
 4144TIP3    H212378   4.859   7.021   0.215  0.3832  1.2633  0.5272
 4145TIP3   OH212379   2.639   4.063   2.568 -0.2469 -0.0473  0.1314
 4145TIP3    H112380   2.729   4.042   2.593  0.2553 -1.1106 -2.2702
 4145TIP3    H212381   2.633   4.158   2.576  0.0357 -0.2086  3.3310
 4146TIP3   OH212382   2.218   1.625   0.385  0.1125 -0.3244 -0.4814
 4146TIP3    H112383   2.141   1.677   0.362  1.0218  0.9631 -0.7448
 4146TIP3    H212384   2.244   1.657   0.472  0.8457 -0.1266 -0.7652
 4147TIP3   OH212385   6.430   4.734   3.494  0.5617 -0.1824 -0.2009
 4147TIP3    H112386   6.473   4.652   3.470  1.3788 -1.2733  4.1517
 4147TIP3    H212387   6.336   4.716   3.484  0.6851 -1.9842  1.2419
 4148TIP3   OH212388   0.186   7.604   5.673 -0.5754  0.3202 -0.6185
 4148TIP3    H112389   0.247   7.643   5.735  2.3478 -2.5530 -1.4489
 4148TIP3    H212390   0.110   7.579   5.726  1.2989 -0.9263  1.6462
 4149TIP3   OH212391   6.117   7.255   4.564  0.0105 -0.3920 -0.3566
 4149TIP3    H112392   6.197   7.243   4.615 -0.0824  3.1457  0.8429
 4149TIP3    H212393   6.056   7.296   4.624 -1.7774 -0.4249 -2.0565
 4150TIP3   OH212394   4.286   5.880   5.624  0.2895  0.5025  0.5664
 4150TIP3    H112395   4.281   5.837   5.709 -1.3136 -1.6226 -0.5138
 4150TIP3    H212396   4.226   5.831   5.568  2.2079  1.0047 -2.1643
 4151TIP3   OH212397   6.831   2.283   0.170  0.1205 -0.7223  0.0533
 4151TIP3    H112398   6.811   2.341   0.096  0.1482 -0.3533  0.3338
 4151TIP3    H212399   6.771   2.210   0.159  1.5499 -1.7313 -1.5292
 4152TIP3   OH212400   7.694   7.725   1.916  0.0449  0.1546  0.1871
 4152TIP3    H112401   7.660   7.660   1.855  0.7793 -2.4405  2.3776
 4152TIP3    H212402   7.620   7.746   1.973 -0.0535  0.9243 -0.2059
 4153TIP3   OH212403   1.972   5.929   2.984  0.2405  0.1858 -0.0316
 4153TIP3    H112404   1.933   5.986   3.051 -0.9005  0.2225 -0.7024
 4153TIP3    H212405   1.989   5.988   2.910 -0.6474 -0.2688 -0.6130
 4154TIP3   OH212406   4.744   2.092   6.028 -0.3138 -0.2000 -0.3740
 4154TIP3    H112407   4.776   2.171   5.985  0.8009 -0.4556 -0.0643
 4154TIP3    H212408   4.677   2.123   6.089  1.2738  0.7509  0.9743
 4155TIP3   OH212409   3.713   3.645   5.713  0.1481 -0.2336  0.2578
 4155TIP3    H112410   3.732   3.600   5.795 -2.4029  1.7103  2.0931
 4155TIP3    H212411   3.780   3.713   5.707 -1.4177  1.6735  2.5649
 4156TIP3   OH212412   8.242   1.079   5.486  0.7262 -0.3920 -0.1495
 4156TIP3    H112413   8.262   1.161   5.532  0.3589 -0.1337 -0.4437
 4156TIP3    H212414   8.172   1.103   5.425  1.8928 -0.4887 -1.5775
 4157TIP3   OH212415   7.044   4.142   3.182 -0.5283  0.1380 -0.2677
 4157TIP3    H112416   7.139   4.150   3.167 -0.2318  1.7572  1.9752
 4157TIP3    H212417   7.030   4.048   3.196  1.1048  0.0750  1.2771
 4158TIP3   OH212418   5.252   2.865   5.789  0.6290  0.3936  0.0160
 4158TIP3    H112419   5.192   2.801   5.827  0.1270  0.0396 -1.2984
 4158TIP3    H212420   5.198   2.942   5.772  0.4685  0.0369 -1.2687
 4159TIP3   OH212421   0.590   2.941   2.857  0.4388  0.4265  0.6434
 4159TIP3    H112422   0.638   3.012   2.814  0.2607 -0.9056 -1.9211
 4159TIP3    H212423   0.638   2.861   2.833 -1.3600 -0.6474  0.4421
 4160TIP3   OH212424   4.782   4.004   2.974  0.7870  0.2793  0.1985
 4160TIP3    H112425   4.753   3.985   2.885  1.3767  2.1230 -0.4316
 4160TIP3    H212426   4.745   4.090   2.994  2.3683  0.8461  0.9135
 4161TIP3   OH212427   7.734   7.352   6.580 -0.1328  0.3422  0.1999
 4161TIP3    H112428   7.675   7.407   6.631 -0.2541  0.4178 -0.0203
 4161TIP3    H212429   7.732   7.267   6.624 -2.1330 -0.3356 -1.0622
 4162TIP3   OH212430   1.085   5.984   6.453 -0.9430 -0.7476  0.1154
 4162TIP3    H112431   1.180   5.994   6.442 -1.0986  2.8581  1.0082
 4162TIP3    H212432   1.051   5.988   6.364 -0.3912  0.6204 -0.0585
 4163TIP3   OH212433   0.293   5.591   0.492 -0.3260 -0.6714 -0.2929
 4163TIP3    H112434   0.237   5.647   0.439  0.9126  0.3833 -0.5610
 4163TIP3    H212435   0.245   5.510   0.502 -1.9527  0.2472 -0.3660
 4164TIP3   OH212436   5.096   3.174   6.069  0.1902 -0.2750  0.3526
 4164TIP3    H112437   5.012   3.142   6.036 -0.8177  0.1624  2.3414
 4164TIP3    H212438   5.102   3.137   6.157  2.0889 -0.2827  0.2431
 4165TIP3   OH212439   1.996   1.019   3.068 -0.4417 -0.1810 -0.2573
 4165TIP3    H112440   1.910   1.037   3.106  0.1650 -0.6698  1.4185
 4165TIP3    H212441   2.019   0.931   3.098 -0.6471 -1.3683 -3.2229
 4166TIP3   OH212442   7.938   4.531   1.022 -0.0339 -0.7366  0.2358
 4166TIP3    H112443   7.848   4.562   1.012  0.2073  0.3480  1.2608
 4166TIP3    H212444   7.970   4.575   1.101  1.5696 -0.7014 -0.4035
 4167TIP3   OH212445   3.642   1.715   1.460 -0.0850 -0.0208 -0.0049
 4167TIP3    H112446   3.720   1.757   1.497  0.8379 -1.1079 -0.6400
 4167TIP3    H212447   3.615   1.773   1.389  0.7366 -0.1060 -0.4021
 4168TIP3   OH212448   5.230   7.568   6.610 -0.0620  0.2643 -0.0603
 4168TIP3    H112449   5.197   7.551   6.522  0.8469 -0.2398 -0.3151
 4168TIP3    H212450   5.172   7.518   6.667  0.8397 -1.4578 -0.5840
 4169TIP3   OH212451   4.052   2.984   0.319 -0.2917  0.1242 -0.3173
 4169TIP3    H112452   4.046   3.022   0.406  2.3199  1.2156 -0.5118
 4169TIP3    H212453   4.131   2.930   0.322  0.3765  0.9137 -2.2274
 4170TIP3   OH212454   4.556   1.305   0.179 -0.0680 -0.0119  0.1498
 4170TIP3    H112455   4.616   1.236   0.208  0.7411 -0.4431 -2.3009
 4170TIP3    H212456   4.494   1.260   0.122 -0.0606  1.1304 -0.7985
 4171TIP3   OH212457   0.938   2.266   5.321  0.1119 -0.1481  0.1581
 4171TIP3    H112458   0.960   2.220   5.240  2.1855 -1.0672  1.1836
 4171TIP3    H212459   0.927   2.197   5.386 -2.0779  0.5445  0.5892
 4172TIP3   OH212460   4.296   6.520   0.308 -0.0281  0.4471  0.3774
 4172TIP3    H112461   4.247   6.599   0.286  1.1892  0.8874 -0.8818
 4172TIP3    H212462   4.339   6.495   0.227  1.7898  0.0529  1.4096
 4173TIP3   OH212463   1.151   0.707   2.786 -0.3181  0.5614 -0.3377
 4173TIP3    H112464   1.108   0.623   2.802  0.3925 -0.0213 -1.3194
 4173TIP3    H212465   1.213   0.717   2.858 -0.6878  0.4434  0.0009
 4174TIP3   OH212466   1.094   0.012   6.220  0.4229  0.3465 -0.3617
 4174TIP3    H112467   1.149   0.087   6.243 -0.2042  0.6073  0.3463
 4174TIP3    H212468   1.083   0.017   6.125  0.5925  1.0095 -0.3461
 4175TIP3   OH212469   3.487   3.537   1.169  0.6180 -0.2108 -0.6136
 4175TIP3    H112470   3.562   3.597   1.160  1.1549 -0.8335 -0.3597
 4175TIP3    H212471   3.501   3.495   1.254 -1.4554  1.6103  0.7541
 4176TIP3   OH212472   7.733   3.907   2.315 -0.3487  0.7125 -0.1478
 4176TIP3    H112473   7.681   3.986   2.297  0.9702  1.1683 -2.4534
 4176TIP3    H212474   7.814   3.940   2.353 -0.4947  0.2832  0.5448
 4177TIP3   OH212475   6.118   5.945   1.090 -0.3748 -0.0256  0.6558
 4177TIP3    H112476   6.129   5.954   0.995  1.1723 -1.1339  0.6957
 4177TIP3    H212477   6.075   5.861   1.102 -3.8084  1.5702  0.8518
 4178TIP3   OH212478   1.344   7.426   6.735  0.1200  0.0283  0.3798
 4178TIP3    H112479   1.334   7.456   6.645 -0.4779 -2.6731 -0.5482
 4178TIP3    H212480   1.438   7.420   6.749  0.2147 -0.2903 -0.3564
 4179TIP3   OH212481   4.859   0.296   6.344  0.0998 -0.3035 -0.2367
 4179TIP3    H112482   4.868   0.267   6.254  0.2803 -0.4515 -0.1719
 4179TIP3    H212483   4.901   0.382   6.346 -0.8929  0.1993 -0.5471
 4180TIP3   OH212484   5.388   6.610   2.149  0.0755 -0.4167 -0.0525
 4180TIP3    H112485   5.336   6.572   2.077  0.3751  0.8790 -0.9790
 4180TIP3    H212486   5.335   6.593   2.227 -2.8621  2.5783 -1.1488
 4181TIP3   OH212487   4.270   2.388   5.258  0.1974  0.5892 -0.1166
 4181TIP3    H112488   4.227   2.305   5.238 -2.3816  1.6739  0.5363
 4181TIP3    H212489   4.273   2.435   5.175  0.7218  0.2630 -0.2855
 4182TIP3   OH212490   0.911   4.130   1.336 -0.1465 -0.4200  0.7159
 4182TIP3    H112491   0.907   4.036   1.351 -0.0127 -0.5742 -0.1736
 4182TIP3    H212492   0.896   4.140   1.242  2.4305  0.2402  0.2910
 4183TIP3   OH212493   4.465   4.943   6.689  0.2038 -0.0915 -0.0321
 4183TIP3    H112494   4.530   4.917   6.625  1.1731  2.0225 -0.0188
 4183TIP3    H212495   4.420   4.862   6.714  0.4986 -1.1040 -2.5696
 4184TIP3   OH212496   1.379   5.806   3.940  0.5284  0.1607  0.2943
 4184TIP3    H112497   1.432   5.730   3.920  0.1219  0.1200 -0.6921
 4184TIP3    H212498   1.308   5.773   3.994 -0.1735 -0.3514 -0.9102
 4185TIP3   OH212499   6.054   0.994   5.593 -0.3600  0.7909  0.3610
 4185TIP3    H112500   6.084   1.051   5.664 -0.5419  0.9577  0.3048
 4185TIP3    H212501   6.098   0.911   5.609  1.6986  1.5789 -0.8149
 4186TIP3   OH212502   4.727   2.779   0.090  0.0693  0.1251  0.6253
 4186TIP3    H112503   4.771   2.839   0.151  1.4275 -1.7377  1.5856
 4186TIP3    H212504   4.771   2.794   0.007 -0.4574  1.3112  0.5449
 4187TIP3   OH212505   3.202   0.102   3.488 -0.5555 -0.0701 -0.2238
 4187TIP3    H112506   3.282   0.154   3.491  0.5120 -1.4245 -2.6430
 4187TIP3    H212507   3.231   0.012   3.478 -2.3928 -1.1048  2.5339
 4188TIP3   OH212508   7.008   2.354   1.425  0.2377  0.4968 -0.3154
 4188TIP3    H112509   6.989   2.266   1.457 -0.4112  0.8256  0.2225
 4188TIP3    H212510   6.926   2.383   1.384  0.3942  0.9129 -0.3399
 4189TIP3   OH212511   0.153   3.792   0.307 -0.6112  0.5106 -0.3431
 4189TIP3    H112512   0.100   3.733   0.254 -1.6511  0.4209  0.7406
 4189TIP3    H212513   0.239   3.790   0.266 -0.5197 -1.9656 -0.2020
 4190TIP3   OH212514   3.696   0.470   0.773 -0.5941 -0.7357 -0.2603
 4190TIP3    H112515   3.789   0.469   0.751 -0.4266  0.0372  0.3824
 4190TIP3    H212516   3.687   0.541   0.836 -2.2560  1.8105 -3.1291
 4191TIP3   OH212517   5.817   7.378   2.303 -0.6915 -0.0793  0.0556
 4191TIP3    H112518   5.851   7.442   2.241  0.8296  0.1864  1.1093
 4191TIP3    H212519   5.800   7.429   2.382  0.9441 -1.0044  1.0568
 4192TIP3   OH212520   7.683   2.430   1.377 -0.0558 -0.1449  0.5359
 4192TIP3    H112521   7.670   2.417   1.282 -1.8260  0.5268  0.6467
 4192TIP3    H212522   7.708   2.344   1.409  0.2536 -0.4592 -0.4992
 4193TIP3   OH212523   3.385   3.483   3.972 -0.3702 -0.4086 -0.1099
 4193TIP3    H112524   3.380   3.578   3.964 -1.3360 -0.4235  0.2423
 4193TIP3    H212525   3.314   3.450   3.917  0.5636 -0.9753 -1.0084
 4194TIP3   OH212526   4.600   2.549   2.823 -0.3309  0.2928  0.0622
 4194TIP3    H112527   4.622   2.466   2.866 -0.9696 -0.4999 -1.0725
 4194TIP3    H212528   4.638   2.616   2.879  0.0555 -0.7609  1.1047
 4195TIP3   OH212529   5.911   0.364   4.388  0.4356 -0.3016 -0.3403
 4195TIP3    H112530   5.902   0.352   4.483  1.2345 -1.6657 -0.4159
 4195TIP3    H212531   5.822   0.360   4.355  0.1160  0.5358  0.3847
 4196TIP3   OH212532   3.512   3.110   2.077 -0.1698  0.4192 -0.1584
 4196TIP3    H112533   3.566   3.174   2.031  0.9580 -0.4832 -0.1376
 4196TIP3    H212534   3.477   3.158   2.152 -0.5639  1.4112 -0.9601
 4197TIP3   OH212535   6.075   3.235   1.962  0.2968 -0.4389  0.0363
 4197TIP3    H112536   6.157   3.228   2.011  0.0889  1.3939  0.7311
 4197TIP3    H212537   6.098   3.209   1.873  1.6278  0.0066  0.2293
 4198TIP3   OH212538   1.656   6.123   1.164 -0.2371 -0.2902  0.0949
 4198TIP3    H112539   1.581   6.151   1.112 -0.2563  0.9687  0.7668
 4198TIP3    H212540   1.731   6.136   1.105 -0.3510  0.2819  0.0659
 4199TIP3   OH212541   6.990   6.705   2.370  0.2714  0.5287  0.5159
 4199TIP3    H112542   6.955   6.649   2.438 -0.7957  0.6472  0.0893
 4199TIP3    H212543   7.042   6.771   2.417 -0.2446  0.4646  1.1861
 4200TIP3   OH212544   4.487   2.435   5.965 -0.4092 -0.1102  0.1371
 4200TIP3    H112545   4.424   2.369   5.934 -0.2689  0.4202 -1.3224
 4200TIP3    H212546   4.563   2.424   5.909  0.1058  0.4636  0.7168
 4201TIP3   OH212547   5.611   5.771   0.982 -0.3617  0.0436 -0.4693
 4201TIP3    H112548   5.628   5.684   0.944  0.3785 -0.1502  0.2590
 4201TIP3    H212549   5.573   5.752   1.068  0.8518  0.3902  0.1755
 4202TIP3   OH212550   2.302   5.051   2.500 -0.1223 -0.0844 -0.0312
 4202TIP3    H112551   2.268   5.002   2.425  0.9852  0.7646 -1.1272
 4202TIP3    H212552   2.252   5.133   2.499  0.0367  0.0142  0.0400
 4203TIP3   OH212553   3.413   3.729   5.384 -0.1774 -0.1262 -0.7796
 4203TIP3    H112554   3.492   3.764   5.425 -0.7901  0.6521 -0.2104
 4203TIP3    H212555   3.407   3.639   5.416 -0.9462  0.6169  1.4222
 4204TIP3   OH212556   2.654   6.364   4.766 -0.1637  0.3499 -0.0305
 4204TIP3    H112557   2.669   6.409   4.683  0.1439  0.0938 -0.1188
 4204TIP3    H212558   2.573   6.402   4.800 -0.9197 -0.3411 -0.9981
 4205TIP3   OH212559   7.826   7.494   1.062 -0.3050 -0.3026  0.2262
 4205TIP3    H112560   7.840   7.497   0.968  2.6824  0.0604  0.5720
 4205TIP3    H212561   7.804   7.403   1.081  0.5129 -0.7009 -0.6869
 4206TIP3   OH212562   4.924   0.550   2.517  0.1206 -0.5770  0.0008
 4206TIP3    H112563   4.964   0.553   2.604 -0.0470  0.1496  0.0637
 4206TIP3    H212564   4.905   0.458   2.502  2.4508 -1.0777 -0.3281
 4207TIP3   OH212565   3.778   7.644   5.098  0.2619  0.1833 -0.2257
 4207TIP3    H112566   3.845   7.577   5.087  0.8786  0.8018 -0.2922
 4207TIP3    H212567   3.768   7.683   5.012 -0.2226  0.0676 -0.2284
 4208TIP3   OH212568   3.736   4.164   0.559  0.0671  0.4293 -0.2845
 4208TIP3    H112569   3.651   4.136   0.526 -0.4928  1.1930  0.4638
 4208TIP3    H212570   3.798   4.136   0.492 -0.5133 -1.9639  0.0970
 4209TIP3   OH212571   2.785   1.992   5.253 -0.1110  0.1362  0.4286
 4209TIP3    H112572   2.768   1.902   5.280  0.5214 -0.5270 -1.2377
 4209TIP3    H212573   2.831   1.983   5.169 -2.4847  2.0271 -1.1886
 4210TIP3   OH212574   2.367   6.857   0.723 -0.1610 -0.1417 -0.3168
 4210TIP3    H112575   2.444   6.853   0.667  1.1910  0.5983  1.4086
 4210TIP3    H212576   2.338   6.948   0.719  2.2241  0.9583  2.9391
 4211TIP3   OH212577   4.762   4.849   4.947  0.4630  0.5513  0.4908
 4211TIP3    H112578   4.799   4.831   5.033 -2.2620 -0.5781  1.5183
 4211TIP3    H212579   4.766   4.945   4.938  1.0653  0.6542  1.7211
 4212TIP3   OH212580   7.191   5.637   2.713  0.0314 -0.0283  0.3309
 4212TIP3    H112581   7.165   5.545   2.720 -0.7714  0.1212 -0.4606
 4212TIP3    H212582   7.249   5.640   2.637  0.8755 -0.0392  0.9606
 4213TIP3   OH212583   1.768   4.092   2.992  0.0122 -0.3567  0.1448
 4213TIP3    H112584   1.836   4.152   3.021 -0.0317 -0.1989 -0.0780
 4213TIP3    H212585   1.717   4.075   3.071  0.1245 -0.2327  0.2453
 4214TIP3   OH212586   1.561   0.032   4.228 -0.2665 -0.7860 -0.1166
 4214TIP3    H112587   1.651   0.025   4.195 -0.3048  0.6832 -0.6011
 4214TIP3    H212588   1.522   0.102   4.176 -2.1571 -2.3390 -0.9124
 4215TIP3   OH212589   6.713   0.545   1.502  0.0121  0.0939  0.3115
 4215TIP3    H112590   6.772   0.572   1.432  1.0050  0.4012  1.2451
 4215TIP3    H212591   6.750   0.583   1.581 -1.6773  0.6484  0.8770
 4216TIP3   OH212592   5.109   3.238   1.484 -0.2005  0.5890  0.1814
 4216TIP3    H112593   5.034   3.182   1.463 -0.4216  0.9061  0.1216
 4216TIP3    H212594   5.095   3.317   1.432  0.9702  0.0439 -1.0322
 4217TIP3   OH212595   7.883   3.739   4.893  0.2332 -0.6771  0.6387
 4217TIP3    H112596   7.951   3.681   4.929 -1.1875 -2.6555  0.2825
 4217TIP3    H212597   7.807   3.723   4.948 -0.5920 -0.1680 -0.3343
 4218TIP3   OH212598   4.424   3.480   0.868  0.2151 -0.0881  0.2099
 4218TIP3    H112599   4.356   3.514   0.926 -0.0166 -0.6510  0.2722
 4218TIP3    H212600   4.396   3.391   0.848  0.5994 -0.0977 -0.2933
 4219TIP3   OH212601   4.626   5.290   4.050  0.3878 -0.3173  0.2485
 4219TIP3    H112602   4.578   5.371   4.034 -1.3397 -1.2605  0.4568
 4219TIP3    H212603   4.628   5.281   4.145  1.4825 -0.0308  0.2706
 4220TIP3   OH212604   4.784   3.829   0.190  0.7182  0.0406 -0.5200
 4220TIP3    H112605   4.839   3.871   0.125 -0.2957  0.2437 -1.2826
 4220TIP3    H212606   4.712   3.790   0.139  0.5560 -0.8583  0.3622
 4221TIP3   OH212607   4.315   1.008   3.628 -0.2199 -0.0115 -0.1429
 4221TIP3    H112608   4.402   1.041   3.648  0.3359 -1.1569 -0.6394
 4221TIP3    H212609   4.261   1.037   3.701  0.3537  1.5247 -0.2907
 4222TIP3   OH212610   8.122   1.115   2.755 -0.3549 -0.0878  0.2775
 4222TIP3    H112611   8.141   1.185   2.817 -1.6170 -1.2290  2.0573
 4222TIP3    H212612   8.206   1.092   2.717  0.0854  2.3418 -0.3390
 4223TIP3   OH212613   6.667   5.677   1.799  0.1639  0.0815  0.1368
 4223TIP3    H112614   6.608   5.752   1.803 -0.0107 -0.0404 -0.1724
 4223TIP3    H212615   6.621   5.607   1.844 -0.2572 -0.2320 -0.7465
 4224TIP3   OH212616   8.136   6.883   3.718 -0.0548 -0.1184 -0.0740
 4224TIP3    H112617   8.069   6.855   3.656 -0.1106 -0.2928  0.0635
 4224TIP3    H212618   8.199   6.811   3.718  0.2779  0.1691 -0.4125
 4225TIP3   OH212619   5.274   3.227   4.329 -0.4364 -0.1533  0.3872
 4225TIP3    H112620   5.219   3.188   4.261  0.2915 -1.6770  0.6356
 4225TIP3    H212621   5.241   3.190   4.410 -0.6022  0.8273  0.7785
 4226TIP3   OH212622   4.925   7.649   1.662  0.2199 -0.9707  0.3536
 4226TIP3    H112623   4.891   7.603   1.586  1.6242 -1.2645 -0.1317
 4226TIP3    H212624   4.946   7.737   1.629  0.2694 -0.9083  0.5501
 4227TIP3   OH212625   8.266   7.321   5.446 -0.4037 -0.1991 -0.3316
 4227TIP3    H112626   8.252   7.275   5.364  0.0557  0.9152 -1.0559
 4227TIP3    H212627   8.341   7.379   5.429  0.1058 -0.4007  1.0546
 4228TIP3   OH212628   6.254   6.219   3.642 -0.0119  0.2366  0.2039
 4228TIP3    H112629   6.213   6.290   3.693 -1.5579  0.0122 -0.6620
 4228TIP3    H212630   6.216   6.139   3.678 -0.2053  0.0062 -0.5010
 4229TIP3   OH212631   3.738   1.290   0.700 -0.0820  0.5765 -0.3178
 4229TIP3    H112632   3.689   1.212   0.727  0.6372 -0.2008 -1.1953
 4229TIP3    H212633   3.830   1.263   0.702  0.3726  2.0903  1.5366
 4230TIP3   OH212634   4.398   5.003   0.015 -0.7394 -0.2120  0.2398
 4230TIP3    H112635   4.400   5.008   0.110 -0.7806 -2.4571  0.4276
 4230TIP3    H212636   4.348   5.080  -0.013 -0.4898  0.6340  1.9935
 4231TIP3   OH212637   7.203   3.635   6.518 -0.2740  0.5472 -0.0220
 4231TIP3    H112638   7.286   3.593   6.541 -1.4228 -1.4815  0.6549
 4231TIP3    H212639   7.226   3.698   6.450  1.8903  0.4550  0.5504
 4232TIP3   OH212640   5.120   5.638   4.615  0.1195 -0.1510 -0.3479
 4232TIP3    H112641   5.142   5.565   4.557 -1.1653 -0.1884 -0.8157
 4232TIP3    H212642   5.037   5.671   4.582  0.7249  1.6019 -0.1881
 4233TIP3   OH212643   3.552   6.344   2.629 -0.3095 -0.2364 -0.3986
 4233TIP3    H112644   3.648   6.344   2.629 -0.2678  1.4956 -0.6177
 4233TIP3    H212645   3.528   6.310   2.543  0.1810  0.8242 -0.9824
 4234TIP3   OH212646   2.798   3.193   4.044  0.4095 -0.2933 -0.7222
 4234TIP3    H112647   2.891   3.208   4.024 -0.1063  0.0250 -3.1330
 4234TIP3    H212648   2.799   3.121   4.107  2.3787  1.4243  1.3723
 4235TIP3   OH212649   3.996   2.734   6.064  0.1006  0.5253 -0.0804
 4235TIP3    H112650   3.970   2.822   6.091 -1.9896 -0.3506  0.9110
 4235TIP3    H212651   3.920   2.679   6.082  1.5175 -1.5962 -0.2092
 4236TIP3   OH212652   4.057   4.763   0.462  0.2044  0.3887 -0.2918
 4236TIP3    H112653   4.116   4.695   0.430 -1.3623 -0.0197 -2.5565
 4236TIP3    H212654   4.101   4.845   0.444  0.7555  0.0531 -0.4696
 4237TIP3   OH212655   1.198   0.858   2.551 -0.2468  0.2861 -0.0029
 4237TIP3    H112656   1.282   0.893   2.583  0.6157 -1.7326  0.0903
 4237TIP3    H212657   1.171   0.796   2.619 -2.1165  1.2779  0.2192
 4238TIP3   OH212658   0.011   7.810   1.993  0.8009  0.1628  0.1484
 4238TIP3    H112659  -0.031   7.803   2.079 -0.8239 -0.2803 -0.6370
 4238TIP3    H212660   0.088   7.865   2.008  0.2870  0.4912  1.7883
 4239TIP3   OH212661   5.755   2.045   3.193 -0.1196  0.1115  0.2627
 4239TIP3    H112662   5.677   2.100   3.186  0.3805  0.7828 -0.2376
 4239TIP3    H212663   5.753   1.991   3.114 -0.7496 -0.7981  0.8821
 4240TIP3   OH212664   4.945   4.097   2.632  0.0304  0.4309 -0.6756
 4240TIP3    H112665   5.032   4.057   2.635  1.3023  3.0245  0.7737
 4240TIP3    H212666   4.940   4.136   2.545  0.3916  0.3988 -0.7128
 4241TIP3   OH212667   4.852   4.542   3.689  0.2465  0.2884  0.3378
 4241TIP3    H112668   4.850   4.574   3.779 -2.2946  0.8038  0.1611
 4241TIP3    H212669   4.826   4.617   3.636  0.6005 -0.3184 -0.7290
 4242TIP3   OH212670   7.235   5.744   0.570 -0.3432  0.2728  0.2572
 4242TIP3    H112671   7.313   5.743   0.625  0.2219  0.1872 -0.5343
 4242TIP3    H212672   7.264   5.709   0.486 -1.3737 -0.3177  0.1279
 4243TIP3   OH212673   6.377   5.193   0.665 -0.0232  0.2224  0.1535
 4243TIP3    H112674   6.350   5.224   0.752  2.6289  0.3993  0.9776
 4243TIP3    H212675   6.421   5.268   0.625  3.7069 -1.3290  0.9344
 4244TIP3   OH212676   6.104   5.133   3.970  0.3801  0.5808  0.7474
 4244TIP3    H112677   6.109   5.214   3.921 -0.1764  0.5973  0.7137
 4244TIP3    H212678   6.029   5.087   3.933  1.0585 -0.2330  0.3394
 4245TIP3   OH212679   6.116   5.585   4.258 -0.1392 -0.2051 -0.1758
 4245TIP3    H112680   6.073   5.501   4.273  1.4336 -0.9167  0.5517
 4245TIP3    H212681   6.045   5.644   4.233 -1.2060 -1.8672 -1.2892
 4246TIP3   OH212682   3.175   6.675   0.483  0.8464 -0.2458 -0.6975
 4246TIP3    H112683   3.171   6.764   0.448  0.9759 -0.3016 -0.8545
 4246TIP3    H212684   3.110   6.626   0.433  0.6468 -0.1969 -0.4865
 4247TIP3   OH212685   8.103   4.817   3.033  0.3939 -0.0774  0.4833
 4247TIP3    H112686   8.152   4.741   3.065  1.3152  0.0712 -0.5170
 4247TIP3    H212687   8.019   4.813   3.079  0.1649 -2.0587 -0.0032
 4248TIP3   OH212688   2.733   1.542   6.745  0.3235 -0.2625  0.1370
 4248TIP3    H112689   2.674   1.614   6.765  0.0051 -0.4127 -0.2347
 4248TIP3    H212690   2.694   1.466   6.789 -1.1059 -0.8856 -1.9796
 4249TIP3   OH212691   7.862   0.628   4.077  0.0844 -0.6394  0.2347
 4249TIP3    H112692   7.835   0.708   4.123  0.4382 -0.9794  1.0559
 4249TIP3    H212693   7.850   0.558   4.141 -1.7094 -1.5027 -0.9532
 4250TIP3   OH212694   0.459   6.265   0.386 -0.2987 -0.2347 -0.7698
 4250TIP3    H112695   0.469   6.286   0.293  2.4567  1.4283 -0.2125
 4250TIP3    H212696   0.495   6.176   0.395  0.7648  0.1519 -1.0976
 4251TIP3   OH212697   2.785   4.912   2.192  0.2175  0.2304  0.0950
 4251TIP3    H112698   2.693   4.930   2.173  0.1928  1.3681  1.1806
 4251TIP3    H212699   2.815   4.988   2.242  2.1460  0.5903 -1.4500
 4252TIP3   OH212700   2.655   7.518   4.918 -0.7547 -0.0702  0.4024
 4252TIP3    H112701   2.688   7.588   4.974  0.2814 -0.3943  0.2123
 4252TIP3    H212702   2.617   7.563   4.843  0.1168  0.2844  0.1682
 4253TIP3   OH212703   6.192   4.611   6.054 -0.6635 -0.1734 -0.1174
 4253TIP3    H112704   6.114   4.560   6.033 -0.8594  1.0729 -2.7752
 4253TIP3    H212705   6.158   4.693   6.089 -0.4505 -0.4605  0.7874
 4254TIP3   OH212706   6.906   0.424   2.706  0.3318  0.0641  0.3791
 4254TIP3    H112707   6.845   0.498   2.701  1.5736  1.0337 -1.1215
 4254TIP3    H212708   6.983   0.460   2.751  2.4206  0.8584 -3.4689
 4255TIP3   OH212709   1.887   3.505   2.630 -0.2936  0.1944 -0.0888
 4255TIP3    H112710   1.820   3.439   2.618 -1.6169  1.0430  2.0510
 4255TIP3    H212711   1.845   3.587   2.603  0.0138  0.6753  0.8679
 4256TIP3   OH212712   3.362   4.245   3.823 -0.2992  0.7154  0.1666
 4256TIP3    H112713   3.425   4.264   3.754  0.5941  0.9256  1.0309
 4256TIP3    H212714   3.295   4.191   3.780 -0.1366  1.4315 -1.0324
 4257TIP3   OH212715   7.630   5.774   0.499  0.1998 -0.3391  0.7018
 4257TIP3    H112716   7.550   5.790   0.549  1.1125 -0.5237  2.3108
 4257TIP3    H212717   7.701   5.796   0.560  1.3887  0.7289 -0.9724
 4258TIP3   OH212718   1.673   0.988   5.859 -0.2397 -0.1256  0.1323
 4258TIP3    H112719   1.715   0.921   5.806  2.1379  1.2659  0.1159
 4258TIP3    H212720   1.649   1.057   5.797 -1.0038 -0.1597  0.3774
 4259TIP3   OH212721   1.629   7.219   2.637 -0.0851  0.8758 -1.0840
 4259TIP3    H112722   1.682   7.206   2.715  0.5952  2.0270 -1.3355
 4259TIP3    H212723   1.546   7.256   2.669 -0.5414 -0.3713 -0.7523
 4260TIP3   OH212724   5.998   0.221   0.338 -0.3239  0.2466  0.0415
 4260TIP3    H112725   5.974   0.310   0.366 -0.2649  0.0189  0.8479
 4260TIP3    H212726   5.917   0.170   0.350 -0.2632  0.1200 -0.0949
 4261TIP3   OH212727   0.869   5.000   2.376  0.4922  0.1304 -0.1989
 4261TIP3    H112728   0.820   5.037   2.450  1.1533  2.7316 -0.9320
 4261TIP3    H212729   0.802   4.981   2.310  0.2081  1.9653 -0.5174
 4262TIP3   OH212730   6.568   0.740   4.228 -0.0292 -0.0650 -0.3931
 4262TIP3    H112731   6.489   0.687   4.218 -0.9396  0.6830  2.0275
 4262TIP3    H212732   6.551   0.819   4.177 -1.0958  0.3018  0.4862
 4263TIP3   OH212733   2.957   4.451   0.424  0.0437  0.2022 -0.8807
 4263TIP3    H112734   2.963   4.453   0.520  0.2349 -0.3009 -0.8810
 4263TIP3    H212735   2.907   4.530   0.402 -0.3960  0.0829 -0.3350
 4264TIP3   OH212736   7.699   5.222   0.916  0.2548 -0.5405  0.0653
 4264TIP3    H112737   7.610   5.200   0.943 -0.0904  0.5433 -0.1579
 4264TIP3    H212738   7.751   5.146   0.943 -0.9814 -1.9200 -1.2536
 4265TIP3   OH212739   6.123   1.349   3.927  0.1995  0.2298 -0.3579
 4265TIP3    H112740   6.139   1.281   3.861  1.0153  0.2815 -0.2153
 4265TIP3    H212741   6.203   1.352   3.979 -0.7767 -0.5019  1.2772
 4266TIP3   OH212742   5.012   1.085   3.860  0.0239  0.2902 -0.6886
 4266TIP3    H112743   5.049   1.152   3.918 -0.4438 -0.4947  0.5790
 4266TIP3    H212744   5.013   1.006   3.913 -0.1367 -0.5409 -1.8959
 4267TIP3   OH212745   3.564   4.002   3.865  0.4764  0.2816  0.0976
 4267TIP3    H112746   3.551   3.912   3.895 -1.6361  0.3843 -0.3306
 4267TIP3    H212747   3.555   3.998   3.770 -0.6703  1.0556  0.1457
 4268TIP3   OH212748   5.776   2.153   6.600 -0.7415  0.5527  0.3722
 4268TIP3    H112749   5.684   2.127   6.610 -0.9235  0.9472 -0.2400
 4268TIP3    H212750   5.807   2.167   6.689 -1.3816  0.7833  0.5623
 4269TIP3   OH212751   2.086   4.724   5.611 -0.1921 -0.2450 -0.2585
 4269TIP3    H112752   2.110   4.631   5.610  0.9574  0.0522 -1.0022
 4269TIP3    H212753   2.126   4.758   5.692  2.1391  0.2751 -1.5485
 4270TIP3   OH212754   3.122   5.109   0.515 -0.2490  0.4398  0.3855
 4270TIP3    H112755   3.062   5.040   0.487  1.4855 -1.3628  0.9429
 4270TIP3    H212756   3.152   5.149   0.434 -0.2074 -0.3936 -0.0165
 4271TIP3   OH212757   6.254   4.998   3.766  0.3315  0.1618 -0.0841
 4271TIP3    H112758   6.240   4.993   3.861  0.0437  1.2431 -0.0616
 4271TIP3    H212759   6.177   4.955   3.728 -0.5460  1.4941  0.1415
 4272TIP3   OH212760   7.970   5.778   6.787  0.1650  0.0369 -0.8927
 4272TIP3    H112761   7.975   5.868   6.756  0.1541 -0.1493 -1.4487
 4272TIP3    H212762   7.922   5.732   6.718 -1.4680 -0.0137  0.2433
 4273TIP3   OH212763   5.337   5.274   5.315 -0.6694 -0.3601 -0.6564
 4273TIP3    H112764   5.324   5.345   5.379  3.8624  0.2379 -0.0605
 4273TIP3    H212765   5.326   5.194   5.366  1.7912  0.1091  0.7790
 4274TIP3   OH212766   3.282   1.003   3.275 -0.2549 -0.3279  0.3800
 4274TIP3    H112767   3.337   0.970   3.346  0.8673 -2.4806 -1.3584
 4274TIP3    H212768   3.300   0.943   3.201 -2.6582  0.7402 -1.1865
 4275TIP3   OH212769   0.491   3.369   0.059  0.1318  0.2189  0.2407
 4275TIP3    H112770   0.426   3.319   0.010  1.5999  0.3603 -2.0206
 4275TIP3    H212771   0.461   3.459   0.054 -0.1333  0.1336  0.2875
 4276TIP3   OH212772   0.472   0.047   3.580  0.7146 -0.3043  0.4399
 4276TIP3    H112773   0.496  -0.037   3.620 -0.9991 -1.1346 -0.1823
 4276TIP3    H212774   0.525   0.111   3.627  0.7426 -1.5366  2.2029
 4277TIP3   OH212775   1.098   6.698   6.484  0.2222  0.4509  0.0091
 4277TIP3    H112776   1.058   6.725   6.566  0.9634 -0.5997  0.7371
 4277TIP3    H212777   1.169   6.639   6.509 -0.5329 -1.1709 -1.4323
 4278TIP3   OH212778   6.638   6.841   1.532  0.1569 -0.2064 -0.5497
 4278TIP3    H112779   6.712   6.846   1.592  1.0885 -1.2200 -1.5542
 4278TIP3    H212780   6.641   6.751   1.497 -1.0512 -0.0126 -1.2203
 4279TIP3   OH212781   1.054   0.685   5.128 -0.0682  0.4064 -0.7641
 4279TIP3    H112782   1.015   0.759   5.174 -0.7366  0.3860 -1.2715
 4279TIP3    H212783   0.983   0.652   5.073  0.5116 -0.0025 -1.2741
 4280TIP3   OH212784   1.891   4.860   0.473 -0.4287 -0.2245  0.2740
 4280TIP3    H112785   1.892   4.765   0.459  2.0366 -0.2845  0.3810
 4280TIP3    H212786   1.825   4.873   0.542 -0.5107 -1.9035  0.5699
 4281TIP3   OH212787   7.336   5.332   2.771  0.4806 -0.4739 -0.3543
 4281TIP3    H112788   7.403   5.399   2.787 -0.6506  1.0985 -1.7991
 4281TIP3    H212789   7.283   5.332   2.851  0.9826 -0.2481 -0.0114
 4282TIP3   OH212790   1.520   0.062   0.729  0.5651 -0.1395  0.3769
 4282TIP3    H112791   1.562   0.147   0.721 -0.3561  0.2846 -0.1475
 4282TIP3    H212792   1.473   0.067   0.812  2.6754 -1.1559  1.7181
 4283TIP3   OH212793   5.624   1.510   5.260 -0.4631 -0.2708 -0.2603
 4283TIP3    H112794   5.633   1.564   5.182  1.5023 -0.3589 -0.1387
 4283TIP3    H212795   5.529   1.496   5.269 -0.9867  2.3420 -0.8282
 4284TIP3   OH212796   6.687   5.372   2.885 -0.4418 -0.2813  0.5219
 4284TIP3    H112797   6.708   5.414   2.969  0.3646  1.3969 -0.4480
 4284TIP3    H212798   6.773   5.353   2.846 -0.7587  0.4602 -0.6018
 4285TIP3   OH212799   2.928   3.486   0.995  0.1898  0.0751  0.7618
 4285TIP3    H112800   2.833   3.479   0.990  0.2306 -0.3485  0.5450
 4285TIP3    H212801   2.952   3.439   1.075  0.2756 -0.4622  0.4304
 4286TIP3   OH212802   8.059   3.979   6.282  0.6755  0.0425 -0.2198
 4286TIP3    H112803   7.972   3.948   6.308  1.0351 -0.8056  0.0177
 4286TIP3    H212804   8.065   4.068   6.317 -0.3440  0.3610 -0.8178
 4287TIP3   OH212805   5.749   0.966   6.394  0.6691 -0.3672 -0.6833
 4287TIP3    H112806   5.668   1.012   6.415 -0.2796 -1.6385 -1.3334
 4287TIP3    H212807   5.797   0.963   6.476 -0.6746 -0.9382  0.1272
 4288TIP3   OH212808   4.502   5.634   5.544  0.0790  0.0387 -0.5815
 4288TIP3    H112809   4.515   5.561   5.484  1.4800  0.7255 -1.1668
 4288TIP3    H212810   4.454   5.699   5.492  0.8207  0.4187 -0.8067
 4289TIP3   OH212811   6.540   0.932   2.959  0.0839 -0.2191  0.2826
 4289TIP3    H112812   6.523   0.955   3.051  0.6499  0.7345  0.1672
 4289TIP3    H212813   6.459   0.954   2.913  0.4415  1.1823  0.2598
 4290TIP3   OH212814   7.369   5.781   5.055 -0.7031 -0.3895 -0.1699
 4290TIP3    H112815   7.460   5.758   5.039 -0.8093 -1.2227  0.3509
 4290TIP3    H212816   7.338   5.714   5.116 -0.9540  1.2778  1.6630
 4291TIP3   OH212817   0.558   3.373   5.085 -0.3409 -0.0086  0.1063
 4291TIP3    H112818   0.489   3.437   5.066 -1.6445 -1.0301  1.1970
 4291TIP3    H212819   0.524   3.290   5.053  0.8970 -0.3546 -0.3633
 4292TIP3   OH212820   0.422   2.173   4.258 -0.3327  0.2670 -0.2461
 4292TIP3    H112821   0.501   2.154   4.310 -0.9548  0.7832  0.9275
 4292TIP3    H212822   0.452   2.233   4.190 -0.0195  1.9705  1.3132
 4293TIP3   OH212823   0.179   0.191   1.702  0.3651 -0.2197  0.9266
 4293TIP3    H112824   0.208   0.276   1.669  0.7865 -0.5684  0.3731
 4293TIP3    H212825   0.093   0.208   1.740  0.4340  0.4486  0.7996
 4294TIP3   OH212826   0.074   6.046   2.733  0.0247 -0.0479  0.2350
 4294TIP3    H112827   0.006   6.067   2.670  0.4678  0.2022 -0.1603
 4294TIP3    H212828   0.129   5.981   2.689 -0.0590 -0.3928  0.6236
 4295TIP3   OH212829   6.868   6.886   3.239 -0.0620 -0.0916  0.2399
 4295TIP3    H112830   6.891   6.793   3.235  0.7700  0.1338 -0.6689
 4295TIP3    H212831   6.774   6.888   3.224  0.1617 -0.6964 -1.5353
 4296TIP3   OH212832   3.504   2.955   0.117  0.0630 -0.3899  0.1588
 4296TIP3    H112833   3.532   2.871   0.155  1.6629 -0.3913 -0.9405
 4296TIP3    H212834   3.546   3.021   0.171 -0.0442 -0.3169  0.1541
 4297TIP3   OH212835   5.040   6.808   2.815 -0.2777  0.3018 -0.8407
 4297TIP3    H112836   5.005   6.719   2.815  0.0957  0.1205  0.7131
 4297TIP3    H212837   4.963   6.864   2.812 -0.8387 -0.0939  2.2402
 4298TIP3   OH212838   3.471   1.683   0.177  0.0472 -0.3799  0.3722
 4298TIP3    H112839   3.440   1.667   0.267 -1.7408 -0.1679 -0.1695
 4298TIP3    H212840   3.447   1.605   0.129  1.6739 -0.8106  0.1876
 4299TIP3   OH212841   1.534   1.323   6.035  0.3085  0.0462  0.0208
 4299TIP3    H112842   1.533   1.234   6.070 -0.3878 -0.2143 -0.6432
 4299TIP3    H212843   1.588   1.372   6.096  2.4391 -1.2787 -0.6966
 4300TIP3   OH212844   0.409   5.423   5.674 -0.0646  0.0514 -0.3094
 4300TIP3    H112845   0.419   5.501   5.728 -0.5587  0.1419 -0.3423
 4300TIP3    H212846   0.486   5.370   5.693 -0.9130 -0.5877  1.5666
 4301TIP3   OH212847   3.061   1.842   1.682 -0.2455  0.4185 -0.3704
 4301TIP3    H112848   3.111   1.922   1.669  2.5544 -1.3941 -1.7439
 4301TIP3    H212849   3.067   1.824   1.775 -0.2794  1.4055 -0.1672
 4302TIP3   OH212850   3.432   0.921   2.591  0.2313  0.0416  0.1979
 4302TIP3    H112851   3.495   0.972   2.643 -1.1939 -0.4143  2.5273
 4302TIP3    H212852   3.480   0.842   2.566  0.9925  0.3186  0.7248
 4303TIP3   OH212853   7.980   4.676   1.817 -0.1252 -0.2795 -0.3933
 4303TIP3    H112854   7.947   4.729   1.890 -1.7439 -2.0119  0.2020
 4303TIP3    H212855   8.075   4.671   1.833 -0.3664 -0.1543  1.2880
 4304TIP3   OH212856   2.653   4.883   4.576  0.1482  0.4423  0.2266
 4304TIP3    H112857   2.744   4.905   4.594 -0.4564  2.4798  1.0904
 4304TIP3    H212858   2.657   4.798   4.532  2.4276  0.3769  0.4417
 4305TIP3   OH212859   2.873   2.592   6.438  0.5749  0.1896  0.3875
 4305TIP3    H112860   2.899   2.684   6.431 -0.5448  0.7850  3.0196
 4305TIP3    H212861   2.955   2.545   6.453  1.3127  0.5215 -2.1920
 4306TIP3   OH212862   3.257   2.973   2.349 -0.4847 -0.1054  0.2941
 4306TIP3    H112863   3.342   2.934   2.370 -0.3202  1.2335  2.4739
 4306TIP3    H212864   3.196   2.899   2.352  0.5821 -1.1405 -1.6272
 4307TIP3   OH212865   3.277   5.669   5.042 -0.2309  0.0104 -0.3007
 4307TIP3    H112866   3.220   5.742   5.016 -1.5141 -0.6370  0.6105
 4307TIP3    H212867   3.227   5.622   5.108 -0.0294 -2.5206 -1.8453
 4308TIP3   OH212868   7.704   4.172   1.276  0.0633  0.4417  0.3679
 4308TIP3    H112869   7.721   4.217   1.193  0.5723  0.6598  0.5904
 4308TIP3    H212870   7.721   4.238   1.343 -1.6356  0.6842  0.6108
 4309TIP3   OH212871   7.476   1.740   4.404  0.6792  0.0782  0.4575
 4309TIP3    H112872   7.393   1.739   4.451 -0.3098  1.7982 -1.0919
 4309TIP3    H212873   7.461   1.799   4.330  2.8131 -0.7974 -0.7784
 4310TIP3   OH212874   0.751   0.709   2.667 -0.1962  0.4975 -0.0349
 4310TIP3    H112875   0.667   0.725   2.710 -0.5076 -0.7665 -0.1359
 4310TIP3    H212876   0.789   0.636   2.715 -0.9192 -1.5164 -2.2946
 4311TIP3   OH212877   7.533   0.256   3.740 -0.3162  0.3629  0.0551
 4311TIP3    H112878   7.533   0.219   3.828 -0.5562  0.3270  0.0387
 4311TIP3    H212879   7.508   0.348   3.752 -1.5316  0.0622 -0.1038
 4312TIP3   OH212880   0.280   4.278   2.998 -0.0342 -0.1183 -0.5625
 4312TIP3    H112881   0.318   4.218   2.934  0.6888  2.3477 -2.6003
 4312TIP3    H212882   0.234   4.343   2.946 -0.9929  0.9896  1.5480
 4313TIP3   OH212883   1.029   6.856   2.304 -0.2122 -0.2107  0.0474
 4313TIP3    H112884   1.053   6.819   2.389 -0.3137  1.7078  0.9652
 4313TIP3    H212885   0.938   6.884   2.315  0.5199  2.3666  0.2314
 4314TIP3   OH212886   7.226   1.802   4.821 -0.0729  0.1232  0.3086
 4314TIP3    H112887   7.280   1.767   4.892 -2.2637 -2.2519  0.9755
 4314TIP3    H212888   7.175   1.872   4.861  0.3685  0.3663  0.4485
 4315TIP3   OH212889   0.231   3.829   5.799  0.0356 -0.6422  0.5239
 4315TIP3    H112890   0.318   3.794   5.780  0.4861 -0.3279  1.8754
 4315TIP3    H212891   0.177   3.752   5.816 -0.9976 -1.1498 -3.8817
 4316TIP3   OH212892   7.422   0.401   2.223 -0.2463 -0.0412  0.4811
 4316TIP3    H112893   7.428   0.402   2.318 -1.9087 -0.2653  0.6136
 4316TIP3    H212894   7.376   0.320   2.202  0.1339 -0.0140 -0.5251
 4317TIP3   OH212895   1.480   3.205   4.938 -0.7047  0.0111 -0.3747
 4317TIP3    H112896   1.475   3.280   4.997 -0.1820  0.8170 -1.3146
 4317TIP3    H212897   1.403   3.152   4.959 -1.3245  1.0339  0.0208
 4318TIP3   OH212898   8.049   6.510   2.813 -0.6332  0.3540  0.3859
 4318TIP3    H112899   7.994   6.588   2.825  0.2218  0.8152  1.4611
 4318TIP3    H212900   8.138   6.544   2.804 -0.1450 -0.5170  1.6402
 4319TIP3   OH212901   5.209   2.302   3.767  0.7708  0.4026 -0.3910
 4319TIP3    H112902   5.215   2.362   3.841  1.8095 -1.7827  1.3954
 4319TIP3    H212903   5.115   2.300   3.746  0.4292  0.9493  0.9693
 4320TIP3   OH212904   5.279   1.937   6.310 -0.1414 -0.2377  0.6494
 4320TIP3    H112905   5.264   2.024   6.346  0.0058 -0.4075  1.1226
 4320TIP3    H212906   5.247   1.877   6.377 -0.5642 -0.5462  0.1816
 4321TIP3   OH212907   1.338   5.537   2.675  0.1066 -0.0473  0.2873
 4321TIP3    H112908   1.297   5.454   2.701  1.2352 -0.7203 -0.0405
 4321TIP3    H212909   1.412   5.512   2.620  0.0140  1.2117 -0.4602
 4322TIP3   OH212910   7.199   6.601   3.704  0.4896  0.1499  0.4641
 4322TIP3    H112911   7.191   6.662   3.631  2.5532  1.3346  1.1539
 4322TIP3    H212912   7.119   6.549   3.701 -1.5077  3.0583  0.0291
 4323TIP3   OH212913   4.805   2.491   0.221  0.1572  0.5402  0.3167
 4323TIP3    H112914   4.727   2.445   0.250 -0.3829  0.6593 -0.8704
 4323TIP3    H212915   4.772   2.575   0.188  0.8495  0.8018  0.2778
 4324TIP3   OH212916   6.516   6.570   1.838  0.2756 -0.4503 -0.3582
 4324TIP3    H112917   6.475   6.522   1.910  1.5059 -0.4300  0.3754
 4324TIP3    H212918   6.457   6.557   1.764 -2.6914  2.0412  1.3250
 4325TIP3   OH212919   2.695   4.505   2.371 -0.2430 -0.3728 -0.0489
 4325TIP3    H112920   2.783   4.472   2.355 -0.3610 -0.9001  0.3623
 4325TIP3    H212921   2.659   4.447   2.439 -0.6476  0.2711  0.2973
 4326TIP3   OH212922   7.501   7.494   4.404  0.2992  0.2212 -0.3436
 4326TIP3    H112923   7.541   7.562   4.458  0.5809  0.7627 -1.2236
 4326TIP3    H212924   7.419   7.533   4.374 -0.5859 -0.6212  0.8683
 4327TIP3   OH212925   2.559   3.913   1.217 -0.2319 -0.0724  0.5546
 4327TIP3    H112926   2.554   3.825   1.181 -0.5066  0.5183 -0.9374
 4327TIP3    H212927   2.490   3.915   1.284 -2.1627 -0.1922 -1.3107
 4328TIP3   OH212928   1.293   2.389   0.951  0.0079  0.3197 -0.4528
 4328TIP3    H112929   1.258   2.307   0.918 -0.4250  0.7504 -1.1024
 4328TIP3    H212930   1.287   2.449   0.876 -2.3574  1.7576  0.7514
 4329TIP3   OH212931   3.559   5.219   0.635  0.3101  0.0815 -0.7946
 4329TIP3    H112932   3.479   5.174   0.662  0.4755  0.3598  0.2256
 4329TIP3    H212933   3.630   5.164   0.670  0.5565  0.1174 -1.2249
 4330TIP3   OH212934   6.577   7.700   1.076  0.0045 -0.8889  0.3179
 4330TIP3    H112935   6.491   7.740   1.089  0.3212 -0.4881  1.2575
 4330TIP3    H212936   6.561   7.606   1.087 -0.5439 -0.9521 -0.8405
 4331TIP3   OH212937   2.414   1.257   5.645 -0.2884 -0.2705 -0.4827
 4331TIP3    H112938   2.484   1.232   5.585 -0.7263  1.6986 -1.9074
 4331TIP3    H212939   2.441   1.341   5.681 -1.3089 -0.1088 -0.0403
 4332TIP3   OH212940   3.136   3.371   5.459  0.1066 -0.2790  0.4069
 4332TIP3    H112941   3.149   3.356   5.365 -0.7200  2.6029 -0.2619
 4332TIP3    H212942   3.175   3.457   5.475  0.9483 -1.0329  2.9356
 4333TIP3   OH212943   6.452   4.697   4.667 -0.1709 -0.3284  0.0113
 4333TIP3    H112944   6.363   4.731   4.662  0.1042  0.3177 -0.6461
 4333TIP3    H212945   6.481   4.718   4.755  0.4614  2.3977 -0.7669
 4334TIP3   OH212946   3.391   5.746   4.760  0.6166  0.6928 -0.0487
 4334TIP3    H112947   3.444   5.670   4.786  0.0224  0.0112 -0.7670
 4334TIP3    H212948   3.301   5.716   4.769  0.3734  0.7398 -1.9104
 4335TIP3   OH212949   6.251   7.488   6.487 -0.0194  0.8986 -0.2244
 4335TIP3    H112950   6.187   7.459   6.552  0.3857 -0.3536 -0.3575
 4335TIP3    H212951   6.335   7.466   6.525  0.1950 -0.7597 -1.5710
 4336TIP3   OH212952   7.291   2.469   5.588  0.4935  0.0426  0.2547
 4336TIP3    H112953   7.231   2.423   5.529  0.5414  1.4713 -0.9777
 4336TIP3    H212954   7.329   2.538   5.533  3.1350 -0.6931  1.0385
 4337TIP3   OH212955   5.867   7.621   5.697  0.2048 -0.3889  0.3895
 4337TIP3    H112956   5.842   7.533   5.671 -1.1941  0.1609 -0.2105
 4337TIP3    H212957   5.960   7.628   5.674 -0.1002 -1.1279 -1.1564
 4338TIP3   OH212958   7.596   6.279   5.157  0.2113  0.2259 -0.2130
 4338TIP3    H112959   7.626   6.215   5.092  0.7514  0.4732 -0.2108
 4338TIP3    H212960   7.634   6.362   5.129  0.9827  0.2220  0.7661
 4339TIP3   OH212961   0.894   5.664   1.363 -0.2917  0.3458 -0.1122
 4339TIP3    H112962   0.905   5.670   1.268 -0.2052  0.4535 -0.0951
 4339TIP3    H212963   0.838   5.588   1.375  0.3512 -0.1484 -0.2054
 4340TIP3   OH212964   2.317   5.793   6.706 -0.1513  0.1877  0.0152
 4340TIP3    H112965   2.340   5.868   6.652 -0.5632 -0.4243 -1.0578
 4340TIP3    H212966   2.348   5.717   6.656  1.5322 -0.3265  1.7228
 4341TIP3   OH212967   3.571   1.945   1.292 -0.2467 -0.1178 -0.1168
 4341TIP3    H112968   3.653   1.975   1.331 -0.6277  1.1101 -0.2142
 4341TIP3    H212969   3.594   1.923   1.202 -0.1047  0.7180 -0.2962
 4342TIP3   OH212970   0.554   4.258   4.954 -0.3824  0.1922  0.4021
 4342TIP3    H112971   0.470   4.215   4.969  0.2389 -1.2830 -0.0937
 4342TIP3    H212972   0.610   4.227   5.025  0.6614 -1.5511 -1.0835
 4343TIP3   OH212973   8.000   5.488   0.935  0.1764  0.2224 -0.0792
 4343TIP3    H112974   8.001   5.483   1.031 -0.7599  0.3078 -0.0628
 4343TIP3    H212975   8.039   5.573   0.915  0.0471  0.3582  0.2408
 4344TIP3   OH212976   4.889   2.358   4.725  0.6966  0.2343  0.2529
 4344TIP3    H112977   4.886   2.334   4.632 -0.9155  1.6773 -0.1170
 4344TIP3    H212978   4.933   2.443   4.727  3.4551 -1.0966  1.1967
 4345TIP3   OH212979   5.378   0.850   3.342  0.2580  0.8301  0.6032
 4345TIP3    H112980   5.428   0.783   3.389  0.6762  0.6596 -0.0699
 4345TIP3    H212981   5.300   0.864   3.396  0.4575  0.2367  1.0584
 4346TIP3   OH212982   5.437   1.481   2.630  0.0802  0.0409 -0.1172
 4346TIP3    H112983   5.420   1.555   2.690  2.2076  0.2807  0.2715
 4346TIP3    H212984   5.452   1.523   2.545 -2.7264 -0.2878 -0.8996
 4347TIP3   OH212985   8.192   0.954   1.626 -0.0517  0.3234  0.0505
 4347TIP3    H112986   8.192   1.027   1.564 -0.5264  0.5814  0.3506
 4347TIP3    H212987   8.119   0.972   1.684  0.6047  0.2695  0.9059
 4348TIP3   OH212988   6.146   4.557   5.198  0.4128  0.5079 -0.1505
 4348TIP3    H112989   6.094   4.632   5.167  0.5455  1.2804  1.4229
 4348TIP3    H212990   6.214   4.547   5.131 -0.7540  0.5217 -1.3988
 4349TIP3   OH212991   8.110   2.031   0.818 -0.2728  0.4082 -0.0637
 4349TIP3    H112992   8.204   2.012   0.817 -0.4034 -0.2636 -0.0136
 4349TIP3    H212993   8.098   2.096   0.750  0.1887  0.2901 -0.2652
 4350TIP3   OH212994   4.268   1.711   0.606 -0.1913 -0.2921  0.3543
 4350TIP3    H112995   4.181   1.672   0.609 -0.0948 -0.4894  2.5478
 4350TIP3    H212996   4.256   1.798   0.644  0.0914  0.8450 -1.9911
 4351TIP3   OH212997   5.140   5.240   4.402  0.3553 -0.2528  0.3456
 4351TIP3    H112998   5.096   5.156   4.394  0.7943 -0.4912  0.4286
 4351TIP3    H212999   5.232   5.219   4.410  0.6373  0.2994 -1.1838
 4352TIP3   OH213000   1.572   1.769   3.064 -0.4882 -0.2687  0.3432
 4352TIP3    H113001   1.497   1.748   3.120  0.0002 -1.3784  0.6066
 4352TIP3    H213002   1.625   1.828   3.116 -0.9737  0.2124  0.3059
 4353TIP3   OH213003   5.890   7.158   2.957 -0.1833 -0.0566 -0.4442
 4353TIP3    H113004   5.849   7.077   2.928  0.1191 -0.6961  0.8172
 4353TIP3    H213005   5.963   7.129   3.012 -0.7877  1.0375  1.0147
 4354TIP3   OH213006   2.570   5.444   1.975  0.2996  0.1985  0.0388
 4354TIP3    H113007   2.490   5.458   2.025  0.5450  0.3415  0.3992
 4354TIP3    H213008   2.541   5.431   1.885  0.0300  3.2440 -0.4126
 4355TIP3   OH213009   1.546   6.833   5.017  0.3604  0.1994  0.2185
 4355TIP3    H113010   1.500   6.768   4.965 -0.7408  1.3006 -0.2303
 4355TIP3    H213011   1.505   6.830   5.103 -1.1128  1.6691 -0.3797
 4356TIP3   OH213012   0.745   2.708   5.848  0.5913  0.7120  0.6578
 4356TIP3    H113013   0.711   2.619   5.842  1.3946  0.3458  1.3071
 4356TIP3    H213014   0.710   2.752   5.771  0.9934 -0.4421 -0.2105
 4357TIP3   OH213015   3.821   4.907   1.471 -0.2654 -0.1629 -0.0741
 4357TIP3    H113016   3.761   4.948   1.533 -2.1987  3.2235 -3.7087
 4357TIP3    H213017   3.908   4.938   1.497 -0.7038 -0.5130  1.9906
 4358TIP3   OH213018   8.096   7.388   0.109  0.1826  0.1567  0.5986
 4358TIP3    H113019   8.061   7.365   0.195 -0.3158  2.4387  1.0874
 4358TIP3    H213020   8.164   7.452   0.128  0.0870  0.6716 -0.7046
 4359TIP3   OH213021   4.805   6.032   1.008 -0.1062 -0.0124  0.1960
 4359TIP3    H113022   4.752   6.036   1.087 -1.0640  0.2061 -0.4339
 4359TIP3    H213023   4.886   5.989   1.035  0.4303  1.8374  1.7238
 4360TIP3   OH213024   5.131   4.271   5.409 -0.0719  0.3895  0.2125
 4360TIP3    H113025   5.194   4.342   5.424 -0.1892  0.6601 -0.5337
 4360TIP3    H213026   5.181   4.204   5.362 -0.5168  0.9333 -1.0784
 4361TIP3   OH213027   4.801   0.925   0.866  0.2447 -0.0927  0.3729
 4361TIP3    H113028   4.849   0.936   0.784 -0.5664 -0.0984 -0.1100
 4361TIP3    H213029   4.841   0.988   0.926  0.3949  0.3930 -0.2284
 4362TIP3   OH213030  -0.000   1.192   3.347  0.0649  0.0640 -0.0908
 4362TIP3    H113031  -0.030   1.135   3.276 -0.1705 -0.3822  0.3665
 4362TIP3    H213032   0.095   1.186   3.344  0.1120  0.9906 -1.1397
 4363TIP3   OH213033   7.519   3.671   4.662 -0.3953  0.0054 -0.5027
 4363TIP3    H113034   7.583   3.741   4.676  0.4894 -0.9554  0.4451
 4363TIP3    H213035   7.441   3.700   4.709 -0.2255  0.5932 -0.5756
 4364TIP3   OH213036   3.408   1.808   4.215  0.4771  0.0843  0.0458
 4364TIP3    H113037   3.329   1.779   4.262  0.5494 -0.5809 -0.2389
 4364TIP3    H213038   3.463   1.847   4.283  0.9566 -1.6498  0.7021
 4365TIP3   OH213039   2.860   6.205   2.230  0.0086 -0.1928 -0.1004
 4365TIP3    H113040   2.936   6.181   2.282 -0.4253  0.3708  0.8333
 4365TIP3    H213041   2.861   6.145   2.156  0.9681 -0.6391  0.2578
 4366TIP3   OH213042   0.917   5.059   3.443 -0.0862 -0.2047  0.2460
 4366TIP3    H113043   0.877   5.099   3.521 -1.0258 -0.7221  0.0431
 4366TIP3    H213044   0.843   5.019   3.396  0.4371  0.2433 -1.0034
 4367TIP3   OH213045   0.052   0.275   6.163  0.3494  0.4097 -0.0005
 4367TIP3    H113046   0.078   0.339   6.096 -1.6779  1.1044 -0.1828
 4367TIP3    H213047   0.008   0.327   6.230  0.9331 -0.4973  1.1204
 4368TIP3   OH213048   3.651   6.364   6.795 -0.2049  0.1930 -0.5035
 4368TIP3    H113049   3.625   6.448   6.757  0.0345  0.0417 -1.0116
 4368TIP3    H213050   3.579   6.305   6.773  1.1258 -0.6019 -3.1994
 4369TIP3   OH213051   7.669   1.692   1.882  0.2073 -0.2146  0.0441
 4369TIP3    H113052   7.680   1.598   1.892  0.5592 -0.3434 -1.2928
 4369TIP3    H213053   7.590   1.702   1.828 -1.0416  0.3602  1.8973
 4370TIP3   OH213054   1.061   1.934   1.288 -0.0745 -0.3146  0.0652
 4370TIP3    H113055   1.109   1.854   1.308 -1.0605 -1.1386 -0.7494
 4370TIP3    H213056   1.102   2.001   1.343  0.1088 -1.5779  1.5276
 4371TIP3   OH213057   3.236   7.777   3.752  0.1199 -0.4177 -0.5545
 4371TIP3    H113058   3.314   7.727   3.777  0.0435 -1.0329 -1.4982
 4371TIP3    H213059   3.269   7.863   3.728  0.1151  0.5925  2.5284
 4372TIP3   OH213060   8.148   4.645   5.820  0.1971 -0.0814 -0.5826
 4372TIP3    H113061   8.083   4.688   5.875 -0.7858 -1.0208 -0.9701
 4372TIP3    H213062   8.097   4.595   5.757  1.2341 -1.9866 -0.0125
 4373TIP3   OH213063   1.846   3.440   3.735  0.0077 -0.7690 -0.4308
 4373TIP3    H113064   1.779   3.497   3.772  0.6492 -0.8680  0.9355
 4373TIP3    H213065   1.927   3.490   3.743  0.4918 -1.6416  0.2740
 4374TIP3   OH213066   2.183   6.735   1.254 -0.3375 -0.2275 -0.6178
 4374TIP3    H113067   2.107   6.694   1.213 -0.6021 -0.0801 -0.2811
 4374TIP3    H213068   2.256   6.677   1.233  0.0222  1.0389 -3.4022
 4375TIP3   OH213069   4.520   2.526   5.642  0.2013  0.2727  0.4234
 4375TIP3    H113070   4.438   2.526   5.592  0.5670  1.1210 -0.2084
 4375TIP3    H213071   4.535   2.434   5.664 -1.6574  0.2491  1.8182
 4376TIP3   OH213072   5.995   0.342   6.725  0.1561 -0.2677 -0.4239
 4376TIP3    H113073   5.967   0.256   6.695  1.5213 -0.6778 -0.5859
 4376TIP3    H213074   5.951   0.354   6.809 -2.4673  0.2101 -1.7490
 4377TIP3   OH213075   5.694   2.865   5.139  0.3648 -0.0021  0.4808
 4377TIP3    H113076   5.773   2.812   5.129  1.1044  1.0888  0.2805
 4377TIP3    H213077   5.625   2.803   5.164  0.5872 -1.4544 -2.1986
 4378TIP3   OH213078   0.717   0.212   0.653 -0.2080  0.9124 -0.0677
 4378TIP3    H113079   0.655   0.253   0.593  0.5160  1.2824 -0.5799
 4378TIP3    H213080   0.792   0.272   0.655  1.3642 -0.8586 -1.6808
 4379TIP3   OH213081   7.059   6.444   2.914  0.4873 -0.3946  0.1534
 4379TIP3    H113082   6.986   6.433   2.974  0.3766 -0.6219 -0.0232
 4379TIP3    H213083   7.025   6.418   2.829  0.9531 -1.1245  0.1767
 4380TIP3   OH213084   4.069   1.574   5.568 -0.1024  0.2899 -0.2728
 4380TIP3    H113085   4.004   1.513   5.605 -0.2102  1.0006  0.7297
 4380TIP3    H213086   4.050   1.574   5.474 -0.8603 -0.3305 -0.1329
 4381TIP3   OH213087   7.603   3.891   6.298  0.2120  0.6792  0.7659
 4381TIP3    H113088   7.642   3.852   6.219  0.4823 -1.5850  1.9279
 4381TIP3    H213089   7.672   3.948   6.333  0.8389  0.1591  0.4104
 4382TIP3   OH213090   3.212   6.907   3.150 -0.4356  0.0300  0.6126
 4382TIP3    H113091   3.294   6.871   3.117  0.1528  0.9215  1.0543
 4382TIP3    H213092   3.226   7.002   3.151 -2.0987  0.3444 -0.9441
 4383TIP3   OH213093   8.195   3.802   2.778  0.6402 -0.0018 -0.1880
 4383TIP3    H113094   8.178   3.712   2.752  0.3110 -0.6315  1.9867
 4383TIP3    H213095   8.131   3.820   2.847  1.6469  1.3884  0.4399
 4384TIP3   OH213096   3.477   5.281   1.418  0.4036 -0.0978 -0.1207
 4384TIP3    H113097   3.553   5.333   1.393  0.6545  0.3118  1.3988
 4384TIP3    H213098   3.427   5.271   1.336  1.2972  0.9273 -0.8256
 4385TIP3   OH213099   6.470   3.999   1.482 -0.2474  0.2440  0.0629
 4385TIP3    H113100   6.406   4.071   1.489  0.1642  0.5879  0.3783
 4385TIP3    H213101   6.439   3.946   1.409 -1.0380  0.2657  0.3674
 4386TIP3   OH213102   3.329   3.737   0.473  0.1983  0.0056 -0.1859
 4386TIP3    H113103   3.308   3.788   0.394 -1.6092 -0.9462 -0.3801
 4386TIP3    H213104   3.323   3.801   0.544  2.3630  0.9930 -0.8160
 4387TIP3   OH213105   4.079   5.872   0.073 -0.0551  0.1606 -0.3275
 4387TIP3    H113106   4.144   5.903   0.136 -1.0449 -1.2357  1.4727
 4387TIP3    H213107   4.073   5.778   0.090 -3.3130  0.4002  0.3505
 4388TIP3   OH213108   6.138   2.343   2.668  0.1759  0.0081  0.3603
 4388TIP3    H113109   6.222   2.316   2.706  0.9213 -0.1149 -1.2686
 4388TIP3    H213110   6.107   2.413   2.725  1.4172  0.0939  0.9642
 4389TIP3   OH213111   3.986   5.110   3.938  0.2786 -0.0917 -0.0522
 4389TIP3    H113112   3.920   5.121   4.007  0.6433  1.5684  0.0720
 4389TIP3    H213113   3.938   5.122   3.856 -0.3451 -2.9697 -0.2295
 4390TIP3   OH213114   1.657   2.746   6.527  0.9935 -0.3343  0.4854
 4390TIP3    H113115   1.570   2.727   6.563  0.3827  0.0822 -0.7261
 4390TIP3    H213116   1.716   2.736   6.601  0.1663 -2.5155  0.9455
 4391TIP3   OH213117   1.111   4.076   1.904  0.1261 -0.8080  0.6699
 4391TIP3    H113118   1.131   4.146   1.841 -0.4177 -2.4642 -1.4535
 4391TIP3    H213119   1.194   4.059   1.948  0.8175 -0.3870 -0.4347
 4392TIP3   OH213120   7.148   1.745   3.674 -0.1229  0.1056  0.6303
 4392TIP3    H113121   7.097   1.683   3.622  0.6380 -0.7039  0.8364
 4392TIP3    H213122   7.126   1.726   3.765  0.1197  0.1297  0.6959
 4393TIP3   OH213123   5.261   1.571   2.977  0.0275 -0.0992  0.2896
 4393TIP3    H113124   5.341   1.518   2.981 -0.5534 -1.0963 -0.8218
 4393TIP3    H213125   5.278   1.635   2.908 -0.4548 -0.9297 -0.6372
 4394TIP3   OH213126   1.693   5.197   2.751 -0.1553  0.1505  0.3278
 4394TIP3    H113127   1.668   5.236   2.835  0.8711 -0.3759  0.8954
 4394TIP3    H213128   1.629   5.128   2.737 -0.3269  0.2318  0.6893
 4395TIP3   OH213129   4.794   4.866   6.205 -0.3509  0.0701 -0.8643
 4395TIP3    H113130   4.717   4.850   6.151 -1.5733 -1.4101  1.1951
 4395TIP3    H213131   4.846   4.786   6.198 -0.0471  0.2382 -0.5905
 4396TIP3   OH213132   0.680   5.060   5.932  0.3110 -0.8322 -0.2289
 4396TIP3    H113133   0.612   5.039   5.995  0.3928 -1.1284 -0.2392
 4396TIP3    H213134   0.714   4.975   5.904  0.8338 -0.6874 -0.0567
 4397TIP3   OH213135   6.769   1.956   3.025 -0.2205 -0.0765  0.0842
 4397TIP3    H113136   6.837   1.892   3.004  0.1666  0.2113  0.4633
 4397TIP3    H213137   6.726   1.972   2.941 -0.5738 -1.1145  0.0457
 4398TIP3   OH213138   3.226   7.219   3.845  0.0927 -0.0111  0.1051
 4398TIP3    H113139   3.173   7.229   3.924 -1.4026 -0.0326 -0.8559
 4398TIP3    H213140   3.243   7.125   3.839  0.0128 -0.0376  0.2692
 4399TIP3   OH213141   7.673   2.922   2.252  0.1309  0.0281 -0.7525
 4399TIP3    H113142   7.706   2.847   2.203 -1.9980 -0.7078 -1.1600
 4399TIP3    H213143   7.630   2.884   2.328 -0.5693  0.8764 -0.7056
 4400TIP3   OH213144   8.077   3.552   4.941  0.3823  0.3325 -0.0314
 4400TIP3    H113145   8.093   3.468   4.983  0.2709  0.4253  0.2019
 4400TIP3    H213146   8.104   3.540   4.850  0.7594  0.1687  0.0986
 4401TIP3   OH213147   6.205   2.505   6.308 -0.1401 -0.4313 -0.4250
 4401TIP3    H113148   6.136   2.498   6.243 -0.1891 -1.1545 -0.3027
 4401TIP3    H213149   6.228   2.414   6.330  1.2939 -0.2232 -0.9382
 4402TIP3   OH213150   0.584   6.887   1.945  0.3770 -0.1598  0.0268
 4402TIP3    H113151   0.613   6.912   2.033 -1.0532 -0.3505  0.5846
 4402TIP3    H213152   0.603   6.963   1.891  2.4715 -0.5158  0.1950
 4403TIP3   OH213153   2.396   5.017   1.395 -0.4858  0.4626 -0.1319
 4403TIP3    H113154   2.481   4.990   1.431 -0.0421  0.3771 -1.1955
 4403TIP3    H213155   2.390   5.110   1.415 -0.3275  0.3834  0.3038
 4404TIP3   OH213156   3.446   4.717   4.359  0.6189 -0.0250 -0.3708
 4404TIP3    H113157   3.481   4.664   4.287 -1.1655 -0.1054 -1.2553
 4404TIP3    H213158   3.353   4.725   4.339  0.3352  1.1569  1.2115
 4405TIP3   OH213159   1.582   2.469   2.362 -0.4138 -0.1434 -0.2271
 4405TIP3    H113160   1.535   2.388   2.342 -1.1918  0.6467 -1.8398
 4405TIP3    H213161   1.519   2.524   2.408 -0.7798  0.5204 -1.4687
 4406TIP3   OH213162   0.947   7.648   3.431  0.9280  0.1268 -0.4439
 4406TIP3    H113163   0.907   7.568   3.466 -2.0185  2.3393  1.6927
 4406TIP3    H213164   0.900   7.665   3.349  0.1593  0.6603  0.0956
 4407TIP3   OH213165   5.720   2.433   3.758  0.2239 -0.2199 -0.1139
 4407TIP3    H113166   5.794   2.463   3.705 -0.7650  2.2493 -0.2115
 4407TIP3    H213167   5.654   2.407   3.693  0.4335 -0.9895 -0.0316
 4408TIP3   OH213168   1.274   4.843   6.553  0.5492  0.3055  0.0197
 4408TIP3    H113169   1.341   4.875   6.493 -0.1711 -0.0672 -1.0020
 4408TIP3    H213170   1.291   4.750   6.562  1.6957  0.6218  1.7838
 4409TIP3   OH213171   8.084   2.281   0.671 -0.0116 -0.0232 -0.0479
 4409TIP3    H113172   8.055   2.218   0.605  0.9070 -2.7975  2.0268
 4409TIP3    H213173   8.170   2.311   0.639 -0.8012  0.8757 -1.4427
 4410TIP3   OH213174   6.746   2.104   2.724 -0.1130 -0.2691 -0.2276
 4410TIP3    H113175   6.724   2.167   2.656 -3.0983  0.5821  1.3752
 4410TIP3    H213176   6.757   2.021   2.677  0.0807  0.6867 -1.9509
 4411TIP3   OH213177   2.187   5.529   6.293  0.2726  0.0456 -0.1144
 4411TIP3    H113178   2.283   5.529   6.295  0.2931  1.0854 -0.5378
 4411TIP3    H213179   2.162   5.605   6.346 -0.2590  0.7089 -1.2833
 4412TIP3   OH213180   4.298   5.704   3.852 -0.1532 -0.3020 -0.4440
 4412TIP3    H113181   4.226   5.716   3.913 -0.6167 -1.7578 -0.6639
 4412TIP3    H213182   4.268   5.745   3.771  0.3420  1.3618  0.1622
 4413TIP3   OH213183   3.298   2.852   0.254 -0.2965 -0.1091 -0.5202
 4413TIP3    H113184   3.339   2.765   0.252 -0.5337 -0.2166 -1.6117
 4413TIP3    H213185   3.351   2.904   0.193 -1.6464 -0.2038 -1.8294
 4414TIP3   OH213186   1.961   0.150   3.274 -0.5613  0.2364 -0.1124
 4414TIP3    H113187   2.053   0.128   3.259 -0.6083 -0.1711  0.1607
 4414TIP3    H213188   1.923   0.069   3.308 -0.4058  1.1389  2.4161
 4415TIP3   OH213189   5.857   5.715   4.287  0.1459  0.0487 -0.1520
 4415TIP3    H113190   5.861   5.691   4.379 -0.2061  1.1000  0.1560
 4415TIP3    H213191   5.765   5.703   4.263  0.3317 -0.7071 -0.5124
 4416TIP3   OH213192   1.001   5.664   3.774 -0.1644  0.1615 -0.4297
 4416TIP3    H113193   0.972   5.576   3.799  1.9790 -1.0046 -1.7871
 4416TIP3    H213194   1.071   5.685   3.836 -0.6485  0.9572 -0.1245
 4417TIP3   OH213195   4.543   6.910   5.711  0.4400  0.7445  1.0186
 4417TIP3    H113196   4.502   6.826   5.692  0.4079  0.5104  2.0615
 4417TIP3    H213197   4.516   6.967   5.638 -2.2182  0.7686  1.9042
 4418TIP3   OH213198   6.683   5.517   5.455  0.2455  0.8106 -0.3351
 4418TIP3    H113199   6.764   5.489   5.412  0.3252  0.2926  0.1478
 4418TIP3    H213200   6.691   5.485   5.545 -0.1661  1.4089 -0.0775
 4419TIP3   OH213201   1.911   2.437   0.911  0.0116  0.1200 -0.1896
 4419TIP3    H113202   1.975   2.375   0.948  0.6194  0.0520 -1.3311
 4419TIP3    H213203   1.922   2.517   0.963 -0.0002 -0.3541  0.5642
 4420TIP3   OH213204   2.928   4.456   1.605  0.3928  0.3263  0.5515
 4420TIP3    H113205   2.879   4.487   1.528 -1.3329 -0.9285  1.0637
 4420TIP3    H213206   2.964   4.535   1.644 -2.1219  1.5326  0.6740
 4421TIP3   OH213207   1.724   3.723   4.554 -0.0914 -0.1808  0.5588
 4421TIP3    H113208   1.649   3.671   4.582 -0.2528 -0.2946 -0.0767
 4421TIP3    H213209   1.695   3.814   4.563  0.0035 -0.2066  1.1515
 4422TIP3   OH213210   4.657   6.734   2.938  0.2595 -0.2797 -0.0478
 4422TIP3    H113211   4.711   6.664   2.975  1.9620  0.4177 -1.0847
 4422TIP3    H213212   4.573   6.692   2.918  1.3645 -2.1474 -1.0003
 4423TIP3   OH213213   4.513   5.620   1.411  0.6912 -0.3539 -0.5864
 4423TIP3    H113214   4.462   5.630   1.331 -0.7292 -1.1866  0.1893
 4423TIP3    H213215   4.476   5.685   1.471  0.6424 -0.8729 -0.0548
 4424TIP3   OH213216   6.450   7.729   2.319  0.0026  0.2673  0.0845
 4424TIP3    H113217   6.499   7.763   2.394 -0.9091  0.0120  0.8136
 4424TIP3    H213218   6.448   7.801   2.257  0.5502  0.5712  0.4117
 4425TIP3   OH213219   4.469   0.044   0.579 -0.2127 -0.0276 -0.1888
 4425TIP3    H113220   4.388   0.067   0.533 -1.2848 -0.2561  1.4887
 4425TIP3    H213221   4.502   0.127   0.613  0.3687  0.0876 -1.0052
 4426TIP3   OH213222   4.001   2.866   1.553 -0.2265 -0.1174  0.2774
 4426TIP3    H113223   3.952   2.784   1.566 -0.6346  0.2536  1.1260
 4426TIP3    H213224   3.971   2.898   1.468  0.2089 -1.0239 -0.2448
 4427TIP3   OH213225   5.400   6.640   2.543 -0.1326  0.1175  0.1710
 4427TIP3    H113226   5.353   6.691   2.609  1.5389  2.3567 -0.2144
 4427TIP3    H213227   5.393   6.694   2.463  1.5613 -0.3395 -0.3137
 4428TIP3   OH213228   8.001   1.942   3.323  0.5204  0.1186  0.1195
 4428TIP3    H113229   8.056   1.891   3.263 -0.6901 -0.7328 -0.3094
 4428TIP3    H213230   7.912   1.908   3.308 -0.0456  1.0916  1.1667
 4429TIP3   OH213231   2.764   2.158   4.116  0.2900  0.2548  0.1842
 4429TIP3    H113232   2.816   2.077   4.112  0.5721  0.4108  0.6046
 4429TIP3    H213233   2.829   2.228   4.113  0.1635  0.4469  1.3109
 4430TIP3   OH213234   4.838   1.008   1.671 -0.0992 -0.3107 -0.0703
 4430TIP3    H113235   4.901   1.065   1.627 -0.1245 -0.1560  0.0925
 4430TIP3    H213236   4.790   1.067   1.730 -0.2755 -0.4594 -0.0650
 4431TIP3   OH213237   2.055   4.381   1.965 -1.0123  0.2720  0.3205
 4431TIP3    H113238   2.099   4.425   1.892  0.3002 -1.1761  0.1938
 4431TIP3    H213239   2.069   4.439   2.040  1.2237 -0.1660  0.2982
 4432TIP3   OH213240   4.214   3.102   5.153 -0.5660  0.5936 -0.1152
 4432TIP3    H113241   4.139   3.134   5.104 -0.1389 -0.3422 -1.4443
 4432TIP3    H213242   4.188   3.109   5.245 -1.5174  2.0744 -0.4760
 4433TIP3   OH213243   2.012   4.577   4.366  0.5522 -0.2095 -0.0771
 4433TIP3    H113244   2.047   4.546   4.449  0.4541 -0.1023  0.0040
 4433TIP3    H213245   1.983   4.497   4.321 -0.3475 -0.1763  0.4271
 4434TIP3   OH213246   4.545   3.716   1.053  0.2054 -0.4378  0.4913
 4434TIP3    H113247   4.602   3.652   1.012 -0.5264 -1.6145  1.2557
 4434TIP3    H213248   4.595   3.749   1.127 -0.5316 -2.4477  1.9677
 4435TIP3   OH213249   1.838   7.354   4.959 -0.1226  0.3720  0.1234
 4435TIP3    H113250   1.898   7.306   4.902 -1.4573  1.1476 -2.0434
 4435TIP3    H213251   1.872   7.338   5.047  3.7698  1.5140 -0.9746
 4436TIP3   OH213252  -0.015   0.013   1.369 -0.7264 -0.2432 -0.1606
 4436TIP3    H113253   0.029  -0.001   1.453 -0.5487  0.1589 -0.1876
 4436TIP3    H213254   0.011   0.101   1.342 -0.9244 -0.3027 -0.5532
 4437TIP3   OH213255   1.719   3.830   5.393 -0.2170  0.4608 -0.0383
 4437TIP3    H113256   1.768   3.774   5.455 -0.7652  1.0818  0.9902
 4437TIP3    H213257   1.634   3.842   5.435 -1.0931 -0.1573 -1.5455
 4438TIP3   OH213258   1.669   0.856   0.330 -0.2446 -0.1901 -0.7542
 4438TIP3    H113259   1.707   0.779   0.372  0.6928 -0.0939 -1.3976
 4438TIP3    H213260   1.744   0.914   0.314 -0.9769  1.0189  0.0343
 4439TIP3   OH213261   2.557   3.733   0.189 -0.1396  0.3954 -0.2603
 4439TIP3    H113262   2.623   3.730   0.258 -0.1232 -0.2366 -0.2970
 4439TIP3    H213263   2.540   3.827   0.176  0.7642  0.5624 -0.2766
 4440TIP3   OH213264   6.134   2.472   0.727  0.4134  0.0142 -0.0956
 4440TIP3    H113265   6.088   2.556   0.729  0.8673  0.2540  1.0933
 4440TIP3    H213266   6.075   2.412   0.773  0.0284 -0.3664 -1.0624
 4441TIP3   OH213267   5.751   7.275   3.302  0.4978  0.3620 -0.1355
 4441TIP3    H113268   5.733   7.223   3.223  0.3825  0.2142 -0.0123
 4441TIP3    H213269   5.682   7.342   3.302  1.7624  1.7438 -1.3491
 4442TIP3   OH213270   2.049   1.273   0.667  0.1802 -0.5828  0.5610
 4442TIP3    H113271   1.964   1.303   0.635  1.0354 -0.2575 -1.6107
 4442TIP3    H213272   2.034   1.251   0.758 -2.2371 -0.5859  0.2291
 4443TIP3   OH213273   3.417   1.051   1.220  0.2039  0.1978  0.0836
 4443TIP3    H113274   3.504   1.077   1.249  0.3856 -1.1132  0.7912
 4443TIP3    H213275   3.396   1.111   1.148  1.2203  1.2360  0.6282
 4444TIP3   OH213276   5.217   6.583   0.834 -0.8046  0.4493  0.3214
 4444TIP3    H113277   5.312   6.591   0.828 -0.8674  1.3323  0.2553
 4444TIP3    H213278   5.200   6.550   0.922 -0.3975 -0.7328 -0.0280
 4445TIP3   OH213279   0.539   5.684   2.964 -0.2772  0.4632  0.2228
 4445TIP3    H113280   0.549   5.699   3.058  1.5685  0.8849 -0.0029
 4445TIP3    H213281   0.506   5.594   2.958 -0.2895  0.3801  1.2529
 4446TIP3   OH213282   5.369   1.900   1.369  0.4738  0.8131 -0.1888
 4446TIP3    H113283   5.410   1.883   1.454  0.1236  0.6560 -0.0464
 4446TIP3    H213284   5.385   1.820   1.319  0.2730  0.7166 -0.1025
 4447TIP3   OH213285   2.768   5.587   6.333  0.7949  0.2455 -0.2792
 4447TIP3    H113286   2.851   5.630   6.353  1.0313  0.3160 -1.3948
 4447TIP3    H213287   2.753   5.604   6.240 -1.3465  1.7356  0.2599
 4448TIP3   OH213288   5.439   2.693   0.306  0.4554 -0.2956 -0.0417
 4448TIP3    H113289   5.406   2.673   0.219 -0.7155 -2.3315  0.7973
 4448TIP3    H213290   5.529   2.662   0.306  1.2393  1.7910 -1.1640
 4449TIP3   OH213291   0.121   6.294   5.554  0.0395 -0.5364  0.6543
 4449TIP3    H113292   0.049   6.283   5.493  0.1196 -0.0677  0.4697
 4449TIP3    H213293   0.097   6.240   5.630 -0.2550 -0.7886  0.3839
 4450TIP3   OH213294   6.169   2.104   1.603  0.4280  0.3521 -0.3375
 4450TIP3    H113295   6.230   2.130   1.534  0.9473  1.4265  0.4903
 4450TIP3    H213296   6.163   2.008   1.595  0.2296  0.4831 -2.0397
 4451TIP3   OH213297   5.697   0.567   0.625 -0.3854  0.7005 -0.0615
 4451TIP3    H113298   5.605   0.553   0.599 -0.1773 -0.5665 -0.2156
 4451TIP3    H213299   5.692   0.629   0.697 -1.3538  0.8492 -0.2410
 4452TIP3   OH213300   5.140   7.827   2.229  0.3300 -0.1004 -0.0542
 4452TIP3    H113301   5.155   7.737   2.257  1.4897 -0.0843 -0.5642
 4452TIP3    H213302   5.133   7.822   2.134 -0.1943  0.2850 -0.0444
 4453TIP3   OH213303   3.254   5.858   3.493  0.0532  0.5909 -0.0108
 4453TIP3    H113304   3.176   5.908   3.518 -0.1591  0.1769  0.1665
 4453TIP3    H213305   3.227   5.766   3.501  0.7617  0.4366  0.7065
 4454TIP3   OH213306   2.076   5.241   0.842 -0.7690 -0.1039  0.3385
 4454TIP3    H113307   2.031   5.324   0.859 -0.1934  0.2773  0.0437
 4454TIP3    H213308   2.076   5.196   0.927  0.5736  1.0248  0.9753
 4455TIP3   OH213309   3.191   5.121   3.014  0.2012 -0.5182 -0.2824
 4455TIP3    H113310   3.121   5.060   3.036  0.6339 -0.4684  1.3447
 4455TIP3    H213311   3.271   5.072   3.033  0.5748  0.1230 -0.1862
 4456TIP3   OH213312   4.068   2.551   3.357  0.3291 -0.0900 -0.4382
 4456TIP3    H113313   4.022   2.546   3.441  1.6665 -0.9197  0.2745
 4456TIP3    H213314   4.007   2.596   3.299 -0.7098  0.2990  0.9144
 4457TIP3   OH213315  -0.004   2.379   0.552  0.1177  0.2806  0.4433
 4457TIP3    H113316   0.081   2.409   0.584  0.0630  1.6531 -0.5974
 4457TIP3    H213317   0.010   2.360   0.459  0.0766 -2.7931  0.9779
 4458TIP3   OH213318   5.623   1.428   3.709 -0.3155  0.0350  0.0787
 4458TIP3    H113319   5.582   1.458   3.791  0.2155  1.5309 -0.1701
 4458TIP3    H213320   5.682   1.358   3.737 -1.5935 -0.8416  0.6942
 4459TIP3   OH213321   6.108   4.685   2.177  0.2540 -0.3499  0.3676
 4459TIP3    H113322   6.103   4.733   2.260 -1.4470  0.4274 -0.1434
 4459TIP3    H213323   6.190   4.713   2.137  0.8055 -0.2784  1.5063
 4460TIP3   OH213324   1.153   4.251   1.008 -0.9506  0.4057  0.7044
 4460TIP3    H113325   1.180   4.164   0.979 -3.4449 -0.0030 -0.6624
 4460TIP3    H213326   1.230   4.286   1.053  1.4265 -1.0646 -1.8447
 4461TIP3   OH213327   2.100   7.698   5.949 -0.1840 -0.7459  0.2689
 4461TIP3    H113328   2.147   7.691   6.032  0.3461  1.9246  0.2750
 4461TIP3    H213329   2.007   7.701   5.974 -0.0781 -0.8088  0.6842
 4462TIP3   OH213330   7.654   2.339   5.681  0.2008  0.7192 -0.3454
 4462TIP3    H113331   7.682   2.431   5.682 -1.3329  1.2296  1.4450
 4462TIP3    H213332   7.594   2.333   5.607 -0.5300  1.4530  0.1740
 4463TIP3   OH213333   2.745   2.037   1.299 -0.3723 -0.0927  0.2368
 4463TIP3    H113334   2.827   2.085   1.311 -1.0404  0.6352  2.5724
 4463TIP3    H213335   2.743   1.975   1.373 -1.3261 -1.0317 -0.5434
 4464TIP3   OH213336   1.391   1.184   2.884 -0.0201 -0.1253 -0.3543
 4464TIP3    H113337   1.378   1.257   2.823  1.0630  0.1020 -0.3497
 4464TIP3    H213338   1.414   1.110   2.828  0.5334 -0.0277 -0.2707
 4465TIP3   OH213339   5.252   3.447   0.006 -0.0004 -0.0771  0.0038
 4465TIP3    H113340   5.282   3.483  -0.077  0.5705 -0.5982 -0.0231
 4465TIP3    H213341   5.284   3.508   0.072 -0.4192  0.3154 -0.1510
 4466TIP3   OH213342   3.221   3.582   5.686 -0.5601  0.4150  0.5513
 4466TIP3    H113343   3.307   3.617   5.708 -0.7316  0.5552  0.9986
 4466TIP3    H213344   3.181   3.649   5.631 -0.3500  0.3039  0.2533
 4467TIP3   OH213345   5.609   7.795   1.971  0.2195  0.0045  0.3540
 4467TIP3    H113346   5.523   7.808   2.011  0.9512 -0.6545  2.2635
 4467TIP3    H213347   5.670   7.838   2.030  1.3933 -1.2648  0.1112
 4468TIP3   OH213348   7.197   3.441   3.950 -0.0253 -0.8459 -0.1259
 4468TIP3    H113349   7.181   3.350   3.927  0.1992 -0.9235  0.0237
 4468TIP3    H213350   7.197   3.442   4.046 -1.1277 -0.4957 -0.1146
 4469TIP3   OH213351   1.837   7.203   6.010  0.1897  0.7388 -0.5557
 4469TIP3    H113352   1.923   7.241   6.025  0.3624  0.6468 -1.2883
 4469TIP3    H213353   1.837   7.177   5.918 -1.2277  2.2611 -1.0266
 4470TIP3   OH213354   2.411   6.209   3.337 -0.5199 -0.3225  0.1415
 4470TIP3    H113355   2.452   6.280   3.385  1.4448 -0.1545 -1.6140
 4470TIP3    H213356   2.328   6.245   3.305 -1.1473  0.0226  2.0526
 4471TIP3   OH213357   3.007   6.856   6.027  0.1721 -0.5401  0.9079
 4471TIP3    H113358   3.102   6.856   6.030  0.1577 -0.4439  3.0093
 4471TIP3    H213359   2.984   6.930   5.970  1.3560 -0.0700  1.0228
 4472TIP3   OH213360   7.618   0.129   6.217 -0.1008  0.6179  0.1372
 4472TIP3    H113361   7.524   0.111   6.225 -0.0982 -0.2908 -1.4593
 4472TIP3    H213362   7.661   0.048   6.242  0.2413  0.8915  0.4408
 4473TIP3   OH213363   0.701   6.152   0.041  0.1250 -0.2821 -0.1274
 4473TIP3    H113364   0.629   6.214   0.049  0.1359 -0.2422 -0.3323
 4473TIP3    H213365   0.671   6.089  -0.025  0.3461 -0.1673 -0.3401
 4474TIP3   OH213366   6.194   3.492   1.476  0.4394  0.3634  0.3484
 4474TIP3    H113367   6.184   3.539   1.559 -0.4140 -1.1401  1.1451
 4474TIP3    H213368   6.265   3.537   1.431  1.4366  0.7600  2.2264
 4475TIP3   OH213369   6.762   7.461   0.362  0.2950 -0.0130 -0.1738
 4475TIP3    H113370   6.856   7.451   0.377  0.4226 -0.8419 -1.3839
 4475TIP3    H213371   6.726   7.373   0.377 -0.4904  0.5552  1.4795
 4476TIP3   OH213372   0.837   3.519   5.822  0.3000  0.4394  0.0682
 4476TIP3    H113373   0.840   3.455   5.751  0.8830 -0.3874  0.8189
 4476TIP3    H213374   0.747   3.516   5.854 -0.1951  1.4119 -1.1406
 4477TIP3   OH213375   6.366   6.927   3.469 -0.1888  0.2408  0.2256
 4477TIP3    H113376   6.312   6.869   3.523  0.7776 -0.4324  0.4814
 4477TIP3    H213377   6.453   6.888   3.471  0.0620  0.6748 -1.1257
 4478TIP3   OH213378   7.181   1.509   1.310 -0.4408 -0.3375  0.4250
 4478TIP3    H113379   7.245   1.563   1.264 -0.5596 -1.9222 -1.7566
 4478TIP3    H213380   7.225   1.426   1.325 -1.0677 -0.5013  1.5228
 4479TIP3   OH213381   5.844   4.065   4.069  0.3503  0.0942 -0.3918
 4479TIP3    H113382   5.781   4.013   4.020  1.3343 -1.7893  0.2370
 4479TIP3    H213383   5.856   4.144   4.017 -2.8855  0.7849 -0.2717
 4480TIP3   OH213384   7.349   7.313   2.815 -0.5764 -1.0080  0.5755
 4480TIP3    H113385   7.415   7.323   2.747 -0.6977 -1.9287  0.3152
 4480TIP3    H213386   7.319   7.402   2.832 -0.7171 -0.7881 -0.7409
 4481TIP3   OH213387   5.507   1.697   3.262  0.7940 -0.4243 -0.3548
 4481TIP3    H113388   5.494   1.650   3.345  2.3265 -0.3749 -0.0402
 4481TIP3    H213389   5.575   1.647   3.218  1.4046  0.6584 -0.6831
 4482TIP3   OH213390   0.791   2.948   3.318 -0.7960 -0.1348  0.0929
 4482TIP3    H113391   0.715   2.925   3.265 -1.1145  1.6837 -0.2847
 4482TIP3    H213392   0.831   3.022   3.272 -0.1420  0.4355  1.5365
 4483TIP3   OH213393   5.130   3.503   4.891  0.4418  0.2441 -0.2346
 4483TIP3    H113394   5.146   3.409   4.891 -0.4922  0.0705 -0.8219
 4483TIP3    H213395   5.131   3.528   4.983  0.8052 -0.3162 -0.0828
 4484TIP3   OH213396   0.459   6.300   3.159  0.2440 -0.5453  0.0531
 4484TIP3    H113397   0.484   6.207   3.163 -0.3958 -0.7047  0.6335
 4484TIP3    H213398   0.542   6.347   3.160  0.5591 -1.0891  0.9260
 4485TIP3   OH213399   3.379   7.168   1.331  0.0589 -0.0904 -0.1735
 4485TIP3    H113400   3.462   7.138   1.295  1.0429  1.0692  1.0190
 4485TIP3    H213401   3.333   7.088   1.356  1.2897 -0.7245  0.1423
 4486TIP3   OH213402   3.261   2.619   6.603 -0.5179  0.3911 -0.6214
 4486TIP3    H113403   3.255   2.677   6.527 -0.0601 -1.4364 -2.1178
 4486TIP3    H213404   3.352   2.628   6.632  0.1389 -1.0288 -2.1086
 4487TIP3   OH213405   5.282   3.259   3.311 -1.2419 -0.2520 -0.0583
 4487TIP3    H113406   5.351   3.213   3.262 -1.9263 -0.7699 -0.5456
 4487TIP3    H213407   5.299   3.352   3.294 -0.5958 -0.3703 -0.0777
 4488TIP3   OH213408   4.441   2.551   1.610 -0.5600 -0.5761  0.3414
 4488TIP3    H113409   4.397   2.479   1.565  1.5147 -0.1976 -2.5439
 4488TIP3    H213410   4.404   2.630   1.572  0.6772 -0.2225 -0.1612
 4489TIP3   OH213411   3.231   0.434   4.662  0.3721  0.3825 -0.4693
 4489TIP3    H113412   3.229   0.518   4.616 -0.5836  0.9360  0.5417
 4489TIP3    H213413   3.318   0.430   4.701 -0.2047  1.8153  1.0732
 4490TIP3   OH213414   2.851   7.783   4.422 -0.0625 -0.0629 -0.0915
 4490TIP3    H113415   2.932   7.794   4.373  0.5279 -0.9616  0.6501
 4490TIP3    H213416   2.830   7.689   4.414 -0.3654 -0.0739  0.7301
 4491TIP3   OH213417   1.928   0.439   3.687 -0.2344  0.2193  0.3537
 4491TIP3    H113418   1.933   0.400   3.774 -2.1429  0.2149  0.5189
 4491TIP3    H213419   2.003   0.404   3.640 -0.2952 -1.3986  1.3767
 4492TIP3   OH213420   4.652   3.136   2.179  0.1340 -0.9020 -0.1347
 4492TIP3    H113421   4.579   3.082   2.210 -1.1065 -0.1425 -1.5831
 4492TIP3    H213422   4.638   3.143   2.085  2.0287 -0.6124 -0.4355
 4493TIP3   OH213423   1.442   4.998   5.388 -0.1410 -0.4078  0.0582
 4493TIP3    H113424   1.486   5.061   5.445 -0.7707  0.1884 -0.0942
 4493TIP3    H213425   1.372   4.961   5.441 -0.9304  0.3815 -0.3937
 4494TIP3   OH213426   8.244   4.736   4.746  0.2385  0.1463  0.0818
 4494TIP3    H113427   8.257   4.820   4.791 -0.0806  0.4127 -0.3109
 4494TIP3    H213428   8.321   4.684   4.770  1.2129  1.0775 -0.8364
 4495TIP3   OH213429   6.134   1.395   6.058 -0.4429  0.6491 -0.2414
 4495TIP3    H113430   6.214   1.412   6.008  0.3532  0.0857  0.8079
 4495TIP3    H213431   6.063   1.410   5.995  0.5274 -0.1765 -1.5841
 4496TIP3   OH213432   0.645   5.397   4.081 -0.0528  0.4543  0.2093
 4496TIP3    H113433   0.644   5.431   3.992 -1.5737 -0.5432 -0.1898
 4496TIP3    H213434   0.557   5.363   4.095 -0.1642  1.4942  2.4689
 4497TIP3   OH213435   7.046   2.683   5.769 -0.4168 -0.5240 -0.0871
 4497TIP3    H113436   6.991   2.607   5.750 -0.4196 -0.9440  1.4592
 4497TIP3    H213437   7.131   2.646   5.791 -0.3681 -0.0872  0.4980
 4498TIP3   OH213438   3.355   2.746   4.121  0.6551 -0.1906 -0.1064
 4498TIP3    H113439   3.315   2.688   4.187  1.1200  1.4759  1.7303
 4498TIP3    H213440   3.447   2.722   4.120  0.7420  0.1224  0.2356
 4499TIP3   OH213441   7.383   7.180   6.022  0.2588 -0.8291  0.2047
 4499TIP3    H113442   7.459   7.127   6.046  0.1464  0.1982  3.1531
 4499TIP3    H213443   7.313   7.150   6.079 -1.0719 -0.4650 -1.1613
 4500TIP3   OH213444   7.707   5.049   4.084  0.0022  0.1397  0.1050
 4500TIP3    H113445   7.615   5.075   4.089  0.0794  0.8912 -1.4843
 4500TIP3    H213446   7.744   5.107   4.017  1.2341 -1.2639 -0.4834
 4501TIP3   OH213447   3.188   1.058   4.244  0.5517 -0.2311 -0.2785
 4501TIP3    H113448   3.141   1.063   4.161  1.1840 -0.1999 -0.6465
 4501TIP3    H213449   3.126   1.091   4.310 -0.3021 -1.1953 -0.5878
 4502TIP3   OH213450   3.663   7.808   5.379  0.0541  0.1078  0.2055
 4502TIP3    H113451   3.656   7.827   5.285 -0.2952  0.2158  0.2559
 4502TIP3    H213452   3.602   7.736   5.393  2.0172 -1.7645 -0.1807
 4503TIP3   OH213453   1.594   7.523   0.857  0.4553  0.1764  0.3583
 4503TIP3    H113454   1.584   7.430   0.836  2.3660  0.2968 -1.3814
 4503TIP3    H213455   1.527   7.566   0.804  0.9634 -0.0572 -0.4926
 4504TIP3   OH213456   1.818   5.212   5.433 -0.4784  0.1175 -0.3454
 4504TIP3    H113457   1.879   5.183   5.365  0.8087  0.8570  0.4477
 4504TIP3    H213458   1.871   5.214   5.513 -1.4541  1.1163  0.3073
 4505TIP3   OH213459   1.579   5.188   4.626 -0.2957  1.0020  0.1582
 4505TIP3    H113460   1.630   5.236   4.561 -0.1078 -0.1047 -0.5333
 4505TIP3    H213461   1.644   5.146   4.682 -0.4020 -0.6786 -0.9247
 4506TIP3   OH213462   4.421   4.058   0.360  0.1421 -1.1770  0.1581
 4506TIP3    H113463   4.409   4.033   0.451  0.2726 -0.2733  0.4315
 4506TIP3    H213464   4.333   4.059   0.323 -0.0890 -0.0012  0.6978
 4507TIP3   OH213465   3.766   1.957   5.968 -0.4046  0.3029  1.2080
 4507TIP3    H113466   3.745   2.029   5.909 -1.1836 -1.1021 -0.3443
 4507TIP3    H213467   3.682   1.929   6.004 -0.0228  0.6357  2.4094
 4508TIP3   OH213468   4.568   6.734   1.312 -0.0812  0.1334 -0.6795
 4508TIP3    H113469   4.590   6.818   1.353  0.0487  0.0575 -0.5895
 4508TIP3    H213470   4.534   6.757   1.226 -0.3430  0.2965 -0.5346
 4509TIP3   OH213471   0.365   6.022   5.911  0.3135 -0.4776  0.2615
 4509TIP3    H113472   0.384   5.975   5.829 -0.3022 -0.7739  0.2815
 4509TIP3    H213473   0.448   6.019   5.959  0.8688  0.2606 -0.6162
 4510TIP3   OH213474   4.649   5.218   0.434 -0.4369  0.3309  0.2841
 4510TIP3    H113475   4.613   5.306   0.434  0.6076  0.7792  1.1634
 4510TIP3    H213476   4.714   5.219   0.504  0.1605 -0.9090 -0.2316
 4511TIP3   OH213477   7.174   5.282   0.604  0.4538 -0.6830 -0.0950
 4511TIP3    H113478   7.098   5.340   0.607  0.1930 -1.0538  0.8286
 4511TIP3    H213479   7.249   5.339   0.625  0.3417 -0.4619 -0.2925
 4512TIP3   OH213480   2.403   5.275   1.464  0.1038  0.4291 -0.1567
 4512TIP3    H113481   2.463   5.349   1.456 -0.7041  1.2110  0.7089
 4512TIP3    H213482   2.322   5.305   1.422 -0.2833  0.1109  0.3465
 4513TIP3   OH213483   1.526   0.031   6.372 -0.0847  0.2014  0.5084
 4513TIP3    H113484   1.441   0.075   6.380 -0.9021 -1.0571 -0.6353
 4513TIP3    H213485   1.555   0.052   6.283 -0.0567 -0.7892  0.2713
 4514TIP3   OH213486   7.396   2.893   5.171  0.1428 -0.1615  0.0462
 4514TIP3    H113487   7.485   2.875   5.202  0.7163 -1.8755 -2.3003
 4514TIP3    H213488   7.401   2.977   5.127  0.5936 -0.1989  0.0275
 4515TIP3   OH213489   8.188   6.912   1.887  0.7503  0.3344  0.3597
 4515TIP3    H113490   8.177   6.922   1.793  0.0647 -1.4494  0.2111
 4515TIP3    H213491   8.125   6.974   1.925  0.6811  0.7117 -0.3496
 4516TIP3   OH213492   3.971   6.413   1.552  0.1471 -0.3820 -0.1188
 4516TIP3    H113493   3.888   6.430   1.597 -0.5344 -1.9743 -0.7080
 4516TIP3    H213494   3.960   6.453   1.465 -1.0830 -2.7284 -1.1527
 4517TIP3   OH213495   5.864   6.996   0.281  0.5478  0.0432  0.3595
 4517TIP3    H113496   5.952   7.033   0.284  0.8497 -0.6181 -0.1141
 4517TIP3    H213497   5.839   7.001   0.189  0.3402 -0.3400  0.3938
 4518TIP3   OH213498   0.180   0.183   5.721 -0.2082 -0.0075 -0.5442
 4518TIP3    H113499   0.174   0.279   5.720  0.3280  0.0329 -1.4817
 4518TIP3    H213500   0.173   0.159   5.813 -0.5136  0.9246 -0.3167
 4519TIP3   OH213501   3.817   5.371   6.447  0.5249  0.1350 -0.2331
 4519TIP3    H113502   3.829   5.464   6.464  1.1629 -0.2864  1.7888
 4519TIP3    H213503   3.734   5.367   6.398 -0.2480  1.6564  0.8559
 4520TIP3   OH213504   6.827   6.697   2.926 -0.0671 -0.0437  0.5179
 4520TIP3    H113505   6.795   6.613   2.894 -1.9858  1.6865 -2.6055
 4520TIP3    H213506   6.750   6.737   2.967  0.5207  0.6349  0.9626
 4521TIP3   OH213507   0.501   2.261   6.432 -0.0183  0.2039 -0.5101
 4521TIP3    H113508   0.519   2.190   6.495  0.1697  0.3967 -0.3443
 4521TIP3    H213509   0.406   2.271   6.435 -0.2360 -1.2124 -1.8202
 4522TIP3   OH213510   0.360   1.769   4.013  0.8657 -0.2617  0.2992
 4522TIP3    H113511   0.267   1.790   4.007  1.0482  0.3468 -0.5444
 4522TIP3    H213512   0.380   1.773   4.107  0.3665  1.0800  0.3730
 4523TIP3   OH213513   3.100   2.493   5.150 -0.1602  0.2115 -0.0426
 4523TIP3    H113514   3.181   2.543   5.165  0.3476  0.5607 -3.1664
 4523TIP3    H213515   3.032   2.559   5.143 -0.0929  0.2263 -0.6894
 4524TIP3   OH213516   0.775   3.786   1.893  0.2484 -0.2297 -0.5693
 4524TIP3    H113517   0.835   3.829   1.832  0.2833  0.8716  0.2149
 4524TIP3    H213518   0.832   3.746   1.959  0.1479  0.3301 -0.1380
 4525TIP3   OH213519   6.250   3.056   6.516 -0.0724 -0.2821 -0.2093
 4525TIP3    H113520   6.229   3.036   6.425  1.7745 -0.9986 -0.5258
 4525TIP3    H213521   6.166   3.049   6.562 -1.4154  1.9475 -2.0997
 4526TIP3   OH213522   0.568   1.213   2.245  0.4236 -0.2054 -0.3772
 4526TIP3    H113523   0.587   1.277   2.314  0.5954 -0.9381  0.2775
 4526TIP3    H213524   0.624   1.138   2.266  0.9990 -0.1802 -1.7304
 4527TIP3   OH213525   2.863   3.262   6.424 -0.3553 -0.3271  0.0601
 4527TIP3    H113526   2.942   3.210   6.431  0.3280  0.8106  1.6498
 4527TIP3    H213527   2.883   3.328   6.358 -0.7443 -1.2681 -1.0103
 4528TIP3   OH213528   2.766   5.423   6.560 -0.8682  0.0950 -0.6414
 4528TIP3    H113529   2.788   5.468   6.478  0.3624  0.4428 -0.1304
 4528TIP3    H213530   2.679   5.385   6.543 -1.3350  1.4892 -1.5672
 4529TIP3   OH213531   1.172   6.276   2.059 -0.0962 -0.3653  0.2744
 4529TIP3    H113532   1.248   6.222   2.081  0.1042 -0.8647 -1.4815
 4529TIP3    H213533   1.154   6.327   2.139  2.0745 -0.2216  0.7156
 4530TIP3   OH213534   4.136   6.143   6.109 -0.0907  0.0344  0.6750
 4530TIP3    H113535   4.128   6.097   6.193  2.0746  0.8494  1.4083
 4530TIP3    H213536   4.170   6.229   6.132  1.7536 -0.1361 -1.1059
 4531TIP3   OH213537   1.144   7.761   0.202  0.7414  0.2460  0.5262
 4531TIP3    H113538   1.238   7.767   0.187  0.5322 -1.0185 -1.8329
 4531TIP3    H213539   1.113   7.851   0.200  1.9310  0.7108  1.8442
 4532TIP3   OH213540   2.098   1.908   0.999 -0.6350 -0.3191  0.3450
 4532TIP3    H113541   2.192   1.895   0.989 -0.6214  0.2154 -0.3171
 4532TIP3    H213542   2.061   1.893   0.911 -1.3835 -2.1243  0.9254
 4533TIP3   OH213543   7.901   6.659   6.467 -0.1005 -0.3244 -0.4825
 4533TIP3    H113544   7.961   6.726   6.433  0.8091 -0.3260  1.0109
 4533TIP3    H213545   7.818   6.705   6.477  0.2073  0.2757 -0.5988
 4534TIP3   OH213546   4.536   6.859   2.079 -0.3586 -0.2981  0.2247
 4534TIP3    H113547   4.504   6.867   2.169  2.4754  0.3611  1.2562
 4534TIP3    H213548   4.532   6.765   2.061 -1.4222 -0.3878  0.8305
 4535TIP3   OH213549   4.741   4.282   4.513  0.6028  0.0824  0.3593
 4535TIP3    H113550   4.827   4.275   4.471 -0.6190 -1.5061 -2.0542
 4535TIP3    H213551   4.686   4.325   4.447 -0.4464  1.2873  1.9556
 4536TIP3   OH213552   3.852   1.528   0.827 -0.6363  0.1037  0.4209
 4536TIP3    H113553   3.865   1.532   0.922 -1.2328 -0.4009  0.5311
 4536TIP3    H213554   3.811   1.443   0.812  0.1602 -0.1495 -0.3863
 4537TIP3   OH213555   4.288   7.400   4.929  0.1754 -0.5793  0.2362
 4537TIP3    H113556   4.376   7.412   4.965  0.2735 -0.3473 -0.0782
 4537TIP3    H213557   4.236   7.470   4.968  0.6035  0.5381 -1.1228
 4538TIP3   OH213558   0.368   1.618   1.199  0.1978  0.0292 -0.2497
 4538TIP3    H113559   0.369   1.710   1.226 -0.1758 -0.2332  0.6994
 4538TIP3    H213560   0.280   1.588   1.222  0.4405 -0.6632 -0.2126
 4539TIP3   OH213561   3.396   4.140   1.840  0.1624  0.4606 -0.2704
 4539TIP3    H113562   3.301   4.125   1.839 -0.1152  1.6939  1.8642
 4539TIP3    H213563   3.428   4.085   1.912  1.0682  0.1896 -0.8578
 4540TIP3   OH213564   5.759   4.041   0.349  0.5299 -0.2391  0.1680
 4540TIP3    H113565   5.790   3.977   0.285  0.0650  0.5366 -0.8619
 4540TIP3    H213566   5.826   4.110   0.349 -0.6493  0.9665 -1.3468
 4541TIP3   OH213567   3.797   1.468   3.879  0.0052 -0.3636 -0.0018
 4541TIP3    H113568   3.784   1.561   3.860 -1.7009 -0.5388  0.2054
 4541TIP3    H213569   3.853   1.467   3.957  0.5456  0.4626 -0.3633
 4542TIP3   OH213570   1.064   4.783   2.045  0.1749  0.6468  0.0426
 4542TIP3    H113571   1.102   4.710   1.997  0.9876  1.0801  0.0081
 4542TIP3    H213572   0.985   4.806   1.996  0.1914  0.1273 -0.2327
 4543TIP3   OH213573   1.871   5.910   0.586  0.2372  0.6122  0.0122
 4543TIP3    H113574   1.811   5.840   0.612 -0.0179  0.7250 -0.2760
 4543TIP3    H213575   1.915   5.935   0.668  0.9509 -0.4617 -0.0094
 4544TIP3   OH213576   4.155   2.493   1.664  0.4977  0.0399 -0.6320
 4544TIP3    H113577   4.076   2.458   1.704  1.1554 -1.6966 -0.7368
 4544TIP3    H213578   4.212   2.514   1.738 -0.2538  1.8674 -0.5357
 4545TIP3   OH213579   1.834   7.568   5.799 -0.2052 -0.2382  0.4103
 4545TIP3    H113580   1.828   7.602   5.889  0.1228  0.0991  0.3060
 4545TIP3    H213581   1.927   7.560   5.782 -0.2579  0.1325 -0.0613
 4546TIP3   OH213582   7.054   0.477   0.345  0.1481 -0.3390  0.0993
 4546TIP3    H113583   6.968   0.502   0.380 -0.0276  0.5255 -0.9138
 4546TIP3    H213584   7.095   0.559   0.320  1.3184 -0.7390  0.6211
 4547TIP3   OH213585   3.862   5.171   2.533  0.1850 -0.3232 -0.3689
 4547TIP3    H113586   3.865   5.136   2.622 -1.2439 -1.6745 -0.8100
 4547TIP3    H213587   3.771   5.199   2.521 -0.2989 -2.4116 -2.1839
 4548TIP3   OH213588   0.281   2.435   1.790 -0.1363  0.0631 -0.2656
 4548TIP3    H113589   0.303   2.369   1.724 -0.4791 -0.1243 -0.1927
 4548TIP3    H213590   0.233   2.502   1.742  0.0939  0.1984 -0.3123
 4549TIP3   OH213591   1.456   1.500   1.351  0.3126  0.1449  0.4288
 4549TIP3    H113592   1.366   1.488   1.321 -0.2131  0.4534  1.7866
 4549TIP3    H213593   1.485   1.581   1.310 -0.9265  1.3943  1.9049
 4550TIP3   OH213594   6.347   5.447   3.489 -0.2705 -0.0109  0.9509
 4550TIP3    H113595   6.379   5.357   3.492 -0.6114 -0.1695  0.0635
 4550TIP3    H213596   6.410   5.492   3.432 -0.6632  0.0759  0.5854
 4551TIP3   OH213597   5.700   0.197   3.263  0.5042 -0.0721 -0.1006
 4551TIP3    H113598   5.795   0.186   3.263  0.4727 -0.5291  1.4676
 4551TIP3    H213599   5.687   0.292   3.256  1.0859  0.0432  0.3218
 4552TIP3   OH213600   6.648   1.555   6.435 -0.2436  0.7232  0.0735
 4552TIP3    H113601   6.561   1.523   6.411  0.6547 -0.3782 -2.0356
 4552TIP3    H213602   6.697   1.475   6.457  0.4522  1.2475  0.4538
 4553TIP3   OH213603   6.837   6.499   5.899 -0.4473  0.0108  0.0122
 4553TIP3    H113604   6.755   6.492   5.851 -1.6712  0.4108  1.9414
 4553TIP3    H213605   6.849   6.593   5.912  0.2863 -0.0505 -0.1873
 4554TIP3   OH213606   1.248   2.570   4.876  0.0064 -0.0544 -0.0716
 4554TIP3    H113607   1.319   2.606   4.929  1.0496 -0.4350 -1.1678
 4554TIP3    H213608   1.241   2.630   4.802  0.5384 -1.0842 -0.9864
 4555TIP3   OH213609   3.270   4.158   0.672  0.0236 -0.1008  0.2910
 4555TIP3    H113610   3.301   4.247   0.686 -0.5033  0.0038  0.8547
 4555TIP3    H213611   3.180   4.169   0.641  0.6818 -0.3714 -1.8953
 4556TIP3   OH213612   4.366   4.775   2.823 -0.5016 -0.3693 -0.5518
 4556TIP3    H113613   4.273   4.759   2.837 -0.0536 -1.3569  1.7742
 4556TIP3    H213614   4.374   4.870   2.820 -1.4527 -0.2251  0.6102
 4557TIP3   OH213615   1.271   5.585   1.951 -0.1044  0.1374  0.0796
 4557TIP3    H113616   1.223   5.504   1.930 -0.7074  0.0566  1.5940
 4557TIP3    H213617   1.237   5.610   2.037  0.6961  1.5499  0.0056
 4558TIP3   OH213618   2.031   0.852   6.715 -0.5122 -0.0543 -0.6364
 4558TIP3    H113619   2.032   0.791   6.641  3.5160 -0.7040 -0.2477
 4558TIP3    H213620   2.118   0.892   6.715 -1.2943  1.9590  2.1759
 4559TIP3   OH213621   4.859   3.552   3.387 -0.4822  0.2077  0.1869
 4559TIP3    H113622   4.867   3.547   3.482  0.0137  2.7257  0.3495
 4559TIP3    H213623   4.792   3.619   3.373  0.0615  0.4736 -1.2359
 4560TIP3   OH213624   0.201   0.498   4.838  0.4528 -0.4841  0.0942
 4560TIP3    H113625   0.161   0.528   4.920  1.1436 -0.4420  0.4172
 4560TIP3    H213626   0.189   0.572   4.778 -2.9608 -1.6303 -0.8978
 4561TIP3   OH213627   5.524   2.313   5.644  0.0793 -0.0300  0.2955
 4561TIP3    H113628   5.539   2.288   5.553  0.3677 -0.7183  0.5243
 4561TIP3    H213629   5.458   2.382   5.640 -0.2475 -0.3802 -0.4009
 4562TIP3   OH213630   4.963   6.726   2.176 -0.6895 -0.3367  0.5096
 4562TIP3    H113631   5.010   6.809   2.177 -0.8876 -0.2273  0.6186
 4562TIP3    H213632   4.896   6.735   2.243  0.4362 -1.2491  1.8141
 4563TIP3   OH213633   1.147   6.377   4.051  0.1193 -0.3169 -0.3770
 4563TIP3    H113634   1.236   6.411   4.057  0.3594 -1.1252  1.0003
 4563TIP3    H213635   1.118   6.402   3.963  0.9659  1.6888 -0.1329
 4564TIP3   OH213636   3.134   7.035   1.439  0.0378 -0.3223  0.0671
 4564TIP3    H113637   3.062   7.056   1.499  1.0552  0.3587  1.0814
 4564TIP3    H213638   3.098   7.055   1.352 -1.0219 -0.0682  0.5428
 4565TIP3   OH213639   3.705   5.540   1.964 -0.3425  0.0816  0.1545
 4565TIP3    H113640   3.776   5.503   2.017 -0.2373  0.0198 -0.0285
 4565TIP3    H213641   3.711   5.635   1.979  0.1754  0.1309 -0.3499
 4566TIP3   OH213642   7.802   6.575   1.092 -0.0810  0.2575  0.6038
 4566TIP3    H113643   7.843   6.550   1.175  0.8982  0.5569  0.2259
 4566TIP3    H213644   7.858   6.645   1.058 -0.7442  0.4659 -0.0797
 4567TIP3   OH213645   4.695   2.893   2.461  0.0395 -0.2552  0.1695
 4567TIP3    H113646   4.743   2.964   2.503  2.4860 -0.7361 -1.5843
 4567TIP3    H213647   4.724   2.814   2.507  0.7509 -0.5285 -0.7340
 4568TIP3   OH213648   6.971   3.680   3.137 -0.5310  0.2574  0.2103
 4568TIP3    H113649   6.962   3.774   3.150 -0.7119  0.4019 -0.9302
 4568TIP3    H213650   6.919   3.661   3.060 -0.5350 -0.7958  0.4589
 4569TIP3   OH213651   4.534   1.266   1.525 -0.1649 -0.5745 -0.1689
 4569TIP3    H113652   4.527   1.172   1.509 -1.2084 -1.3194  3.5596
 4569TIP3    H213653   4.627   1.280   1.545 -0.2724 -1.2322  0.9126
 4570TIP3   OH213654   7.269   6.730   5.500  0.5416  0.4066 -0.0323
 4570TIP3    H113655   7.223   6.647   5.495  0.1011  0.7048 -2.2713
 4570TIP3    H213656   7.223   6.780   5.567 -1.6220  0.1978 -1.2707
 4571TIP3   OH213657   5.822   1.533   5.658  0.0090  0.1143  0.2024
 4571TIP3    H113658   5.741   1.582   5.641  0.9077  1.8480  0.6577
 4571TIP3    H213659   5.831   1.474   5.584 -0.8015  1.1092 -0.7264
 4572TIP3   OH213660   5.834   4.551   3.335 -0.3537 -0.1356 -0.0613
 4572TIP3    H113661   5.922   4.532   3.366  0.0400  0.3183 -0.8571
 4572TIP3    H213662   5.780   4.479   3.367  0.5835 -1.1814 -0.7972
 4573TIP3   OH213663   1.646   7.060   3.130  0.0285  0.0232 -0.2870
 4573TIP3    H113664   1.667   7.043   3.222  0.6934  0.3460 -0.3720
 4573TIP3    H213665   1.590   7.137   3.132 -0.1651 -0.1181 -0.1397
 4574TIP3   OH213666   2.962   1.626   6.320 -0.1040  0.4251  0.0362
 4574TIP3    H113667   3.047   1.597   6.353  0.0085  0.0367 -0.5990
 4574TIP3    H213668   2.906   1.548   6.324 -0.0914  0.3758 -0.6895
 4575TIP3   OH213669   2.061   7.802   5.000  0.0807 -0.8461 -0.4866
 4575TIP3    H113670   2.155   7.786   5.002  0.0657 -0.8024  1.1945
 4575TIP3    H213671   2.045   7.832   4.910  2.0139  1.1636 -0.2488
 4576TIP3   OH213672   6.250   7.130   5.536 -0.2944  0.2276 -0.5598
 4576TIP3    H113673   6.174   7.086   5.572  0.3783 -1.5765 -1.2073
 4576TIP3    H213674   6.298   7.162   5.612  0.4705 -2.4424  0.2198
 4577TIP3   OH213675   4.657   2.120   4.977  0.2535  0.2256  0.5238
 4577TIP3    H113676   4.573   2.121   5.022  0.1989 -1.7971  0.5462
 4577TIP3    H213677   4.722   2.123   5.048  0.1739 -0.7127  0.6477
 4578TIP3   OH213678   4.202   3.736   5.294  0.3050  0.5636  0.4605
 4578TIP3    H113679   4.226   3.810   5.239  0.8564  0.8572  1.0768
 4578TIP3    H213680   4.177   3.667   5.233  1.4301  0.6950 -0.1819
 4579TIP3   OH213681   3.263   5.652   4.245 -0.3681  0.1630 -0.4787
 4579TIP3    H113682   3.218   5.570   4.223 -0.2146  0.4750 -2.0724
 4579TIP3    H213683   3.195   5.709   4.279 -0.3162 -0.9150  1.5956
 4580TIP3   OH213684   2.099   3.763   1.744  0.1141  0.1496  0.1696
 4580TIP3    H113685   2.007   3.742   1.733  0.0554 -0.1373  1.0933
 4580TIP3    H213686   2.099   3.837   1.805  0.4742  0.4813 -0.2276
 4581TIP3   OH213687   4.981   2.956   4.351 -0.4943  0.0802  0.6490
 4581TIP3    H113688   4.896   2.915   4.365 -0.8834  0.4776 -0.4914
 4581TIP3    H213689   4.963   3.050   4.353  0.3420  0.2567  2.9536
 4582TIP3   OH213690   3.679   3.947   4.945  0.5226 -0.0123  0.0139
 4582TIP3    H113691   3.617   4.015   4.917  1.4645  0.8526 -0.0375
 4582TIP3    H213692   3.716   3.981   5.027  1.6309 -0.0609 -0.4606
 4583TIP3   OH213693   4.663   0.399   1.552  0.0786  0.4153 -0.2371
 4583TIP3    H113694   4.650   0.468   1.618  2.0619  0.7732 -0.1701
 4583TIP3    H213695   4.637   0.440   1.470 -2.1702  0.0469  0.2250
 4584TIP3   OH213696   1.430   2.428   5.634 -0.2281 -0.0434  0.2284
 4584TIP3    H113697   1.493   2.366   5.598  1.6606  2.3396 -0.8856
 4584TIP3    H213698   1.345   2.402   5.598  0.6191 -1.5175 -0.7597
 4585TIP3   OH213699   2.660   6.438   6.462  0.2606 -0.3982  0.2968
 4585TIP3    H113700   2.674   6.349   6.494 -1.9613 -0.9016 -0.0068
 4585TIP3    H213701   2.595   6.476   6.521  0.8553  0.8938  0.1698
 4586TIP3   OH213702   2.945   0.336   5.905  0.3363  0.1853  0.0832
 4586TIP3    H113703   3.010   0.397   5.940  1.6010 -1.9893  1.7215
 4586TIP3    H213704   2.900   0.301   5.982 -2.3624  1.0750 -0.9629
 4587TIP3   OH213705   5.077   3.553   4.272  0.0997 -0.2356  0.3412
 4587TIP3    H113706   5.071   3.620   4.205  2.4460 -1.3892 -1.1626
 4587TIP3    H213707   5.142   3.587   4.334 -1.2855  0.3585  1.5301
 4588TIP3   OH213708   2.997   4.918   3.089  0.6675  0.7651 -0.2945
 4588TIP3    H113709   2.998   4.862   3.012  0.6328 -1.2114  1.0540
 4588TIP3    H213710   2.906   4.946   3.098  0.6177  0.7736 -0.8156
 4589TIP3   OH213711   2.749   1.892   4.496  0.0957  0.2845  0.1198
 4589TIP3    H113712   2.821   1.943   4.459  1.5041 -3.0987 -2.2301
 4589TIP3    H213713   2.698   1.864   4.420 -0.7741 -1.5145  1.3022
 4590TIP3   OH213714   6.844   5.780   4.701 -0.0715 -0.3744 -1.1100
 4590TIP3    H113715   6.784   5.820   4.638 -0.6564 -1.1226 -1.0505
 4590TIP3    H213716   6.914   5.844   4.711 -0.3773  0.1096 -1.9070
 4591TIP3   OH213717   0.351   2.737   6.156 -0.4032 -0.3033 -0.0160
 4591TIP3    H113718   0.436   2.699   6.135  0.5441  0.8399  1.5323
 4591TIP3    H213719   0.320   2.686   6.231 -0.9225 -0.4950 -0.3589
 4592TIP3   OH213720   0.962   4.983   0.317 -0.5234  0.9462  0.2296
 4592TIP3    H113721   1.052   5.007   0.342  0.2045 -2.5339  1.4734
 4592TIP3    H213722   0.910   5.060   0.340  2.1134  3.1906 -0.7616
 4593TIP3   OH213723   6.088   0.869   6.432  0.2769 -0.0450 -0.3589
 4593TIP3    H113724   6.052   0.857   6.520  0.5724  0.1560 -0.2104
 4593TIP3    H213725   6.089   0.781   6.394 -1.1356  0.0385 -0.6608
 4594TIP3   OH213726   1.133   7.306   0.447  0.5163  0.0800 -0.2577
 4594TIP3    H113727   1.210   7.251   0.459  0.3899  0.1513  1.0021
 4594TIP3    H213728   1.087   7.302   0.530  0.5622  2.1915 -0.0687
 4595TIP3   OH213729   3.478   2.597   3.815  0.0020  0.1710  0.2532
 4595TIP3    H113730   3.383   2.604   3.813 -0.0077  1.0750  1.9001
 4595TIP3    H213731   3.495   2.503   3.824 -0.7902  0.0890  1.0692
 4596TIP3   OH213732   0.815   4.633   1.247 -0.3201 -0.0983  0.1984
 4596TIP3    H113733   0.724   4.662   1.241 -0.6580 -1.1036  0.2600
 4596TIP3    H213734   0.809   4.546   1.287  0.6610 -0.2166  0.0966
 4597TIP3   OH213735   5.351   5.325   1.693 -0.6916  0.2256 -0.2014
 4597TIP3    H113736   5.425   5.385   1.707 -0.3592  0.1800 -1.6523
 4597TIP3    H213737   5.273   5.380   1.704 -0.6117 -0.1380  3.4537
 4598TIP3   OH213738   3.013   1.490   5.085  0.2048  0.0319  0.2403
 4598TIP3    H113739   3.011   1.394   5.083  2.0104 -0.0356 -2.0509
 4598TIP3    H213740   2.925   1.516   5.056  0.4293 -1.0166 -1.5535
 4599TIP3   OH213741   6.275   3.494   5.466 -0.4317 -0.7166  0.1654
 4599TIP3    H113742   6.249   3.519   5.377  1.6822  0.9792 -0.0597
 4599TIP3    H213743   6.218   3.547   5.523 -1.0921 -1.0441 -0.1751
 4600TIP3   OH213744   7.205   1.983   2.506 -0.1911 -0.2053 -0.2437
 4600TIP3    H113745   7.183   2.030   2.426 -0.7686  0.4999  0.3287
 4600TIP3    H213746   7.280   1.928   2.480 -0.6088 -0.2858 -1.3643
 4601TIP3   OH213747   8.311   2.190   0.367  0.0407  0.1815 -0.6241
 4601TIP3    H113748   8.217   2.193   0.354 -0.0681 -1.1833 -0.3036
 4601TIP3    H213749   8.324   2.127   0.438  1.0212  2.4668  1.3742
 4602TIP3   OH213750   4.287   5.372   6.627 -0.4201  0.1225  0.2498
 4602TIP3    H113751   4.314   5.409   6.712 -1.3544  0.2565  0.5062
 4602TIP3    H213752   4.227   5.301   6.650  0.5349 -0.8799 -0.2724
 4603TIP3   OH213753   2.737   4.305   0.477  0.5281  0.3525  0.3482
 4603TIP3    H113754   2.816   4.348   0.445  1.0567  0.4318  1.6796
 4603TIP3    H213755   2.691   4.373   0.527  0.2146  0.0014  0.5431
 4604TIP3   OH213756   7.134   0.431   2.371 -0.4763 -0.1412  0.7292
 4604TIP3    H113757   7.162   0.523   2.367 -1.0857  0.0111 -1.4666
 4604TIP3    H213758   7.194   0.385   2.312 -0.6281 -1.0374  1.2514
 4605TIP3   OH213759   0.927   1.964   0.406 -0.0758  0.6713 -0.5526
 4605TIP3    H113760   0.869   1.890   0.422  1.4625 -0.8272 -1.5475
 4605TIP3    H213761   0.997   1.953   0.472  0.2071  1.1925 -0.7619
 4606TIP3   OH213762   4.893   7.659   2.938 -0.0183  0.0656 -0.3256
 4606TIP3    H113763   4.859   7.727   2.879 -0.3561 -0.1782 -0.4101
 4606TIP3    H213764   4.823   7.645   3.002 -0.8565 -1.7315 -1.5507
 4607TIP3   OH213765   4.592   7.829   0.957  0.2698  0.1353 -0.6422
 4607TIP3    H113766   4.677   7.869   0.972  1.1334 -2.2480  1.5426
 4607TIP3    H213767   4.608   7.757   0.896 -0.4654  0.4411 -1.2274
 4608TIP3   OH213768   6.887   2.923   2.978 -0.1493  0.1724 -0.2776
 4608TIP3    H113769   6.904   3.016   2.966  0.4790  0.1532  0.3683
 4608TIP3    H213770   6.936   2.880   2.908  0.8951  0.2442  0.3832
 4609TIP3   OH213771   3.936   2.494   0.260  0.7182  0.0198 -0.3590
 4609TIP3    H113772   3.889   2.426   0.211  1.3493  0.5431 -1.7506
 4609TIP3    H213773   3.872   2.528   0.322 -1.2897  1.6571 -3.0676
 4610TIP3   OH213774   6.312   6.685   5.936 -0.2513 -0.1398  0.4230
 4610TIP3    H113775   6.293   6.599   5.974 -0.6950  0.2200  1.0375
 4610TIP3    H213776   6.396   6.710   5.975  1.5730 -1.6839 -2.2108
 4611TIP3   OH213777   7.380   2.231   5.220  0.4122 -0.3959  0.3118
 4611TIP3    H113778   7.285   2.238   5.220  0.2654 -1.2113 -2.6545
 4611TIP3    H213779   7.409   2.297   5.158  1.5748 -1.7153 -0.6032
 4612TIP3   OH213780   1.532   3.615   3.652 -0.0915 -0.5646 -0.5946
 4612TIP3    H113781   1.577   3.666   3.585 -0.5355  1.9808  0.9039
 4612TIP3    H213782   1.587   3.623   3.730 -1.0039 -1.0070  0.1241
 4613TIP3   OH213783   4.438   5.505   5.979  0.5684  0.1251  0.3017
 4613TIP3    H113784   4.530   5.493   5.954  1.2928  1.0460  2.2534
 4613TIP3    H213785   4.388   5.479   5.902  2.5126  1.2639 -1.4527
 4614TIP3   OH213786   4.064   2.956   2.944  0.0172  0.7539  0.5359
 4614TIP3    H113787   3.998   2.929   3.009  0.4547 -1.4040  0.1509
 4614TIP3    H213788   4.121   2.880   2.935  0.8084  1.5173 -1.3454
 4615TIP3   OH213789   1.811   2.060   6.195 -0.0672 -0.3315 -0.6213
 4615TIP3    H113790   1.779   1.973   6.169 -1.1715  0.0158 -0.4678
 4615TIP3    H213791   1.732   2.109   6.218  0.6580  0.1114  1.1472
 4616TIP3   OH213792   2.312   0.817   5.055 -0.4324  0.5768  0.0475
 4616TIP3    H113793   2.405   0.821   5.032 -0.1883 -1.2754  0.5576
 4616TIP3    H213794   2.269   0.784   4.976 -0.7065  1.5294 -0.2231
 4617TIP3   OH213795   5.755   2.179   0.662 -0.4621  0.2131 -0.7242
 4617TIP3    H113796   5.780   2.272   0.671 -0.3291  0.0426  1.0654
 4617TIP3    H213797   5.661   2.178   0.681 -0.2021 -0.1645  0.6433
 4618TIP3   OH213798   2.772   7.160   3.578 -0.4967  0.5158  0.2884
 4618TIP3    H113799   2.789   7.209   3.497 -0.0157 -0.2006 -0.0524
 4618TIP3    H213800   2.850   7.173   3.631 -0.3222  0.0365  0.1530
 4619TIP3   OH213801   0.731   1.007   3.950  0.5261 -0.0735  0.0550
 4619TIP3    H113802   0.637   1.003   3.931  0.3775  2.0290  0.0861
 4619TIP3    H213803   0.743   0.950   4.026 -0.4973 -1.3152 -0.6884
 4620TIP3   OH213804   6.955   2.608   1.579 -0.1978 -0.1508 -0.3352
 4620TIP3    H113805   6.987   2.598   1.669  2.1083 -0.4970 -1.1468
 4620TIP3    H213806   6.960   2.520   1.541 -1.5197 -0.0844 -0.7336
 4621TIP3   OH213807   1.261   6.647   5.824  0.0336 -0.3046  0.5509
 4621TIP3    H113808   1.182   6.664   5.773 -0.6378  0.5721  1.8203
 4621TIP3    H213809   1.280   6.730   5.867  0.0416 -1.1953  2.4066
 4622TIP3   OH213810   2.106   7.181   0.225  0.2234 -0.3186  0.5043
 4622TIP3    H113811   2.189   7.149   0.259  0.1415 -0.5279  0.5081
 4622TIP3    H213812   2.076   7.112   0.166  0.2975 -0.0178  0.1118
 4623TIP3   OH213813   4.227   0.429   1.492 -0.4529  0.1433  0.8524
 4623TIP3    H113814   4.262   0.518   1.494 -1.0709  0.3851  1.8310
 4623TIP3    H213815   4.294   0.377   1.449 -0.2260  1.1447 -0.0192
 4624TIP3   OH213816   5.554   6.842   5.634  0.1249 -0.0527 -0.2851
 4624TIP3    H113817   5.624   6.900   5.663 -0.6510  0.6545  0.2054
 4624TIP3    H213818   5.484   6.854   5.698 -1.5261  1.3220 -2.2115
 4625TIP3   OH213819   6.513   2.756   2.394 -0.1318  0.0145  0.3353
 4625TIP3    H113820   6.446   2.712   2.447  0.7836 -0.3153  1.2534
 4625TIP3    H213821   6.491   2.732   2.304 -0.4770 -1.1979  0.7157
 4626TIP3   OH213822   3.530   6.525   3.494 -0.4862 -0.4058 -0.0512
 4626TIP3    H113823   3.550   6.432   3.480 -1.3083 -0.3964 -1.4820
 4626TIP3    H213824   3.435   6.528   3.500 -0.3963  0.0589  2.5890
 4627TIP3   OH213825   3.106   6.990   1.904 -0.0131 -0.3598 -0.2028
 4627TIP3    H113826   3.117   6.982   1.999  2.7886  0.4447 -0.3780
 4627TIP3    H213827   3.089   6.900   1.875  1.6023 -1.0405  0.8315
 4628TIP3   OH213828   2.178   3.957   0.373  0.4113 -0.4646 -0.0888
 4628TIP3    H113829   2.212   4.044   0.393 -0.6453  0.2786 -1.4248
 4628TIP3    H213830   2.256   3.902   0.363  1.0850  0.3067  0.7681
 4629TIP3   OH213831   0.898   2.270   2.720 -0.1465 -0.3118  0.2349
 4629TIP3    H113832   0.897   2.259   2.815 -2.1027 -0.1950  0.2685
 4629TIP3    H213833   0.986   2.302   2.700 -0.6167  2.6694  2.3538
 4630TIP3   OH213834   3.670   4.921   6.075 -0.2588  0.3542  0.0313
 4630TIP3    H113835   3.728   4.866   6.128 -0.1050  0.6877  0.2078
 4630TIP3    H213836   3.725   4.993   6.046 -0.2399 -0.0251 -0.9120
 4631TIP3   OH213837   6.841   7.518   5.435  0.0762  0.2604 -0.3955
 4631TIP3    H113838   6.894   7.470   5.371 -0.1929 -1.4699  0.6313
 4631TIP3    H213839   6.799   7.587   5.383 -0.7826 -1.5643 -2.2874
 4632TIP3   OH213840   3.193   2.052   5.279 -0.1981  0.2725 -0.0206
 4632TIP3    H113841   3.146   2.124   5.237 -3.2299 -0.4957  1.7870
 4632TIP3    H213842   3.184   2.068   5.373  1.3188 -1.1295  0.4081
 4633TIP3   OH213843   0.905   3.286   0.615  0.4379 -0.5306 -0.3354
 4633TIP3    H113844   0.814   3.275   0.588  0.5704 -1.6961 -0.3577
 4633TIP3    H213845   0.912   3.235   0.696  1.3217 -1.3741 -0.9150
 4634TIP3   OH213846   1.593   4.074   1.754 -0.3070 -0.3612  0.2253
 4634TIP3    H113847   1.648   4.152   1.746  0.2121 -0.6432  0.9549
 4634TIP3    H213848   1.604   4.028   1.671  0.8407 -0.5848  0.4863
 4635TIP3   OH213849   4.439   7.302   5.627  0.1564  0.4573 -0.6958
 4635TIP3    H113850   4.472   7.244   5.558  1.0588 -0.0639  0.1408
 4635TIP3    H213851   4.401   7.243   5.692  0.1234  0.8715 -0.3325
 4636TIP3   OH213852   0.924   0.075   1.697  0.4458 -0.2281  0.3339
 4636TIP3    H113853   0.951   0.150   1.644  0.0531 -0.4824 -0.2374
 4636TIP3    H213854   0.931   0.106   1.787  0.3462  0.4779  0.1092
 4637TIP3   OH213855   1.177   0.136   4.527  0.7023  0.4395  0.5071
 4637TIP3    H113856   1.130   0.151   4.445  2.1844  0.4407 -0.3774
 4637TIP3    H213857   1.114   0.090   4.582 -0.5625  1.0569 -0.3642
 4638TIP3   OH213858   0.184   2.608   1.621  0.5202  0.0658 -0.1064
 4638TIP3    H113859   0.113   2.555   1.586  0.8770 -0.2760 -0.3165
 4638TIP3    H213860   0.242   2.625   1.547  0.3659  0.8285 -0.0610
 4639TIP3   OH213861   4.318   2.464   1.383  0.2580 -0.1925 -0.3966
 4639TIP3    H113862   4.328   2.551   1.344  1.3352 -0.8296 -1.6447
 4639TIP3    H213863   4.272   2.413   1.316 -0.6202 -0.5155  0.4394
 4640TIP3   OH213864   3.969   6.460   2.893 -0.1463 -0.0190  0.2177
 4640TIP3    H113865   3.935   6.416   2.815  2.9497  0.2601 -1.4847
 4640TIP3    H213866   3.916   6.538   2.903 -0.7641 -0.1815 -1.5191
 4641TIP3   OH213867   7.198   2.551   2.027  0.1409 -0.4096  0.1197
 4641TIP3    H113868   7.163   2.585   2.109  1.0073 -1.6012  1.0059
 4641TIP3    H213869   7.194   2.626   1.967 -0.2084  0.5705  1.3229
 4642TIP3   OH213870   3.852   2.354   5.326  0.2264  0.3279 -0.2009
 4642TIP3    H113871   3.765   2.375   5.359  0.9629  1.8971  0.8388
 4642TIP3    H213872   3.897   2.312   5.400  0.7592  0.6737 -0.3246
 4643TIP3   OH213873   4.618   2.763   3.056  0.0648 -0.2852 -0.3133
 4643TIP3    H113874   4.684   2.823   3.020 -0.0026 -1.0618 -1.8281
 4643TIP3    H213875   4.536   2.813   3.052  0.2829  0.1028  0.0154
 4644TIP3   OH213876   5.514   0.556   5.322 -0.2474  0.6282 -0.1197
 4644TIP3    H113877   5.553   0.608   5.393 -0.7004  2.0708 -0.8967
 4644TIP3    H213878   5.424   0.587   5.317 -0.4260  0.0081 -0.8591
 4645TIP3   OH213879   0.339   0.304   2.490 -0.2249  0.4632  0.2235
 4645TIP3    H113880   0.301   0.361   2.424 -1.4690  1.1015  1.4225
 4645TIP3    H213881   0.416   0.352   2.523 -0.6563  0.9800  0.4903
 4646TIP3   OH213882   5.612   5.681   0.285  0.5141  0.2629 -0.1499
 4646TIP3    H113883   5.544   5.620   0.257  0.4205  0.2501  0.0990
 4646TIP3    H213884   5.694   5.639   0.258  0.5185 -0.5239  1.0076
 4647TIP3   OH213885   3.554   3.444   0.461 -0.1420 -0.1508 -0.2494
 4647TIP3    H113886   3.564   3.362   0.413 -0.2283  0.0188 -0.5571
 4647TIP3    H213887   3.461   3.463   0.457 -0.1309 -0.0700 -0.1220
 4648TIP3   OH213888   0.305   7.695   2.154 -0.1522 -0.2736  0.3033
 4648TIP3    H113889   0.389   7.652   2.141 -1.1961 -2.8955  1.6451
 4648TIP3    H213890   0.291   7.694   2.249 -1.5356  0.4368  0.1440
 4649TIP3   OH213891   1.912   6.053   1.074  0.0638 -0.4753  0.2929
 4649TIP3    H113892   1.980   6.099   1.025  0.2736  0.1682  1.1755
 4649TIP3    H213893   1.953   5.971   1.101  0.4191 -0.1887  0.6319
 4650TIP3   OH213894   7.218   6.345   5.615  0.1222  0.5525  0.4385
 4650TIP3    H113895   7.229   6.356   5.709  2.0932  0.1273  0.2956
 4650TIP3    H213896   7.175   6.260   5.605  0.1967  0.4582  0.9308
 4651TIP3   OH213897   4.391   0.237   4.911 -0.0917  0.7079  0.7082
 4651TIP3    H113898   4.372   0.144   4.927  0.1712  0.6242  0.5463
 4651TIP3    H213899   4.486   0.244   4.924  0.3990  0.3588 -2.0644
 4652TIP3   OH213900   8.193   0.798   2.057 -0.0276 -0.3834 -0.3075
 4652TIP3    H113901   8.259   0.737   2.089  0.4087  0.7611  1.0822
 4652TIP3    H213902   8.110   0.752   2.068  0.5016 -2.0677 -2.5949
 4653TIP3   OH213903   5.073   5.181   6.801 -0.4956 -0.3922 -0.4865
 4653TIP3    H113904   5.074   5.276   6.791 -0.6967 -0.4940 -1.6396
 4653TIP3    H213905   5.003   5.152   6.743 -0.5496 -1.2353 -0.0156
 4654TIP3   OH213906   2.844   2.599   4.996 -0.2437  0.0482  0.4393
 4654TIP3    H113907   2.806   2.680   4.961  1.4485  0.1228 -1.3807
 4654TIP3    H213908   2.869   2.549   4.918 -1.4425 -2.3844  1.4995
 4655TIP3   OH213909   4.764   2.685   0.935  0.3519  0.0805 -0.7486
 4655TIP3    H113910   4.690   2.740   0.908  1.2537  0.8381 -1.7512
 4655TIP3    H213911   4.795   2.724   1.017  0.2396  0.3283 -0.8250
 4656TIP3   OH213912   7.840   7.283   0.591 -0.3663 -0.6357 -0.4419
 4656TIP3    H113913   7.760   7.233   0.574 -0.5659 -0.1652 -0.8996
 4656TIP3    H213914   7.817   7.339   0.665 -0.6078 -0.1859 -0.8502
 4657TIP3   OH213915   1.378   0.644   6.249  0.2239  0.2647  0.4227
 4657TIP3    H113916   1.289   0.610   6.258 -0.2709  1.4220  0.0045
 4657TIP3    H213917   1.369   0.739   6.260  1.6304  0.2627  2.0026
 4658TIP3   OH213918   4.153   2.071   0.226  0.6939 -0.5292 -0.3885
 4658TIP3    H113919   4.087   2.078   0.296 -0.1171 -0.6452 -1.1203
 4658TIP3    H213920   4.105   2.093   0.146  1.1234 -2.2312 -1.1587
 4659TIP3   OH213921   6.982   0.651   5.468 -0.3853  0.0964  0.0373
 4659TIP3    H113922   7.057   0.599   5.439  0.4905  0.3677  1.7002
 4659TIP3    H213923   6.997   0.738   5.430 -0.1346  0.0055 -0.0751
 4660TIP3   OH213924   4.770   2.463   5.081  0.0096  0.2088  0.2066
 4660TIP3    H113925   4.707   2.500   5.143  0.0456 -1.1073  1.0503
 4660TIP3    H213926   4.839   2.529   5.075 -0.9563  1.2475 -0.0069
 4661TIP3   OH213927   4.111   3.164   6.309 -0.3566 -0.2053 -0.3056
 4661TIP3    H113928   4.034   3.202   6.267 -0.4189 -1.4923 -1.4368
 4661TIP3    H213929   4.174   3.236   6.314 -1.5152  0.8011  0.4097
 4662TIP3   OH213930   1.370   5.355   4.375  0.0064 -0.3309 -0.3423
 4662TIP3    H113931   1.382   5.273   4.326  0.5558 -0.6330  0.2788
 4662TIP3    H213932   1.431   5.416   4.333  0.6995 -0.6754  0.1419
 4663TIP3   OH213933   6.553   1.179   0.950 -0.0266  0.2281 -0.4123
 4663TIP3    H113934   6.594   1.196   1.035  1.2217 -2.2840 -0.4185
 4663TIP3    H213935   6.597   1.100   0.918 -1.3827  0.3659 -2.8079
 4664TIP3   OH213936   2.421   5.778   1.935 -0.3276 -0.5012 -0.2891
 4664TIP3    H113937   2.449   5.693   1.970 -0.4624 -0.0071  1.0889
 4664TIP3    H213938   2.495   5.809   1.883  0.2360 -0.8736  0.2758
 4665TIP3   OH213939   0.017   7.242   1.734  0.3428  0.5087 -0.5695
 4665TIP3    H113940   0.081   7.313   1.741  1.6071 -0.6213 -0.2818
 4665TIP3    H213941   0.007   7.210   1.824 -1.2738  1.1898 -0.4726
 4666TIP3   OH213942   4.385   4.346   0.301 -0.1721 -1.1058 -0.6562
 4666TIP3    H113943   4.453   4.407   0.271 -0.5975  0.4777  1.3850
 4666TIP3    H213944   4.434   4.271   0.337  0.5912  0.2225  1.2232
 4667TIP3   OH213945   4.995   1.613   3.319 -0.1175  0.1009 -0.0889
 4667TIP3    H113946   5.069   1.670   3.299 -0.5950  0.5990 -0.4717
 4667TIP3    H213947   5.001   1.542   3.256  1.0407 -0.8239  1.0078
 4668TIP3   OH213948   7.438   6.984   6.316  0.2819  0.6615  0.0581
 4668TIP3    H113949   7.410   6.988   6.408  1.1173 -0.2886  0.3755
 4668TIP3    H213950   7.366   7.023   6.267 -0.6241  0.2597  1.0381
 4669TIP3   OH213951   4.201   3.231   4.720 -0.9263  0.1160 -0.1916
 4669TIP3    H113952   4.117   3.271   4.740 -1.0615 -0.7536  1.0696
 4669TIP3    H213953   4.180   3.159   4.660 -0.7340  1.5554 -2.0833
 4670TIP3   OH213954   7.869   1.037   0.437 -0.4459  0.1221 -0.0503
 4670TIP3    H113955   7.923   1.002   0.366  0.1302  5.0541 -2.4691
 4670TIP3    H213956   7.781   1.039   0.400 -0.5761  0.5924  0.2945
 4671TIP3   OH213957   7.855   2.282   2.334 -0.1577  0.3718 -0.0885
 4671TIP3    H113958   7.785   2.263   2.397 -1.4090 -1.2968 -1.8800
 4671TIP3    H213959   7.932   2.297   2.388 -1.3842 -0.0091  1.8787
 4672TIP3   OH213960   7.339   3.742   0.034  0.0168 -0.0847 -0.4053
 4672TIP3    H113961   7.406   3.710  -0.028 -0.3000 -1.3053 -0.1386
 4672TIP3    H213962   7.368   3.831   0.056  1.1872 -0.3402 -0.8200
 4673TIP3   OH213963   6.100   6.696   4.558  0.2563 -0.3227 -0.1867
 4673TIP3    H113964   6.098   6.722   4.466  0.0193  0.6183  0.0653
 4673TIP3    H213965   6.167   6.753   4.597  0.9752 -1.3192  0.0583
 4674TIP3   OH213966   0.009   7.024   0.952  0.2552 -0.0033  0.1941
 4674TIP3    H113967   0.100   7.052   0.963  0.1655  0.6632 -0.6695
 4674TIP3    H213968   0.013   6.955   0.886  0.0629  0.4680 -0.3125
 4675TIP3   OH213969   5.281   0.469   5.132  0.3553 -0.7816  0.0488
 4675TIP3    H113970   5.273   0.535   5.201 -0.0137 -1.1059  0.3215
 4675TIP3    H213971   5.215   0.495   5.067  0.2485 -0.8481  0.1299
 4676TIP3   OH213972   1.627   5.365   4.911 -0.3826  0.0751  0.1692
 4676TIP3    H113973   1.715   5.347   4.878 -0.5305  0.1256 -0.2653
 4676TIP3    H213974   1.615   5.303   4.982 -0.4390 -0.7404 -0.5358
 4677TIP3   OH213975   0.766   7.105   5.176  0.2102  0.4252  0.4172
 4677TIP3    H113976   0.752   7.193   5.211 -0.1982  0.0430  1.2628
 4677TIP3    H213977   0.844   7.113   5.121  1.0169  1.0194  1.6000
 4678TIP3   OH213978   7.366   6.440   3.815 -0.4425  0.1114 -0.8043
 4678TIP3    H113979   7.325   6.362   3.853  0.3511 -0.2948 -0.7500
 4678TIP3    H213980   7.293   6.493   3.783 -1.0805  0.0799  0.5595
 4679TIP3   OH213981   8.296   0.893   2.731 -0.2381 -1.1243 -0.5965
 4679TIP3    H113982   8.321   0.906   2.823  0.5375  0.8290 -1.0197
 4679TIP3    H213983   8.207   0.858   2.735 -0.6925  0.0677  0.9216
 4680TIP3   OH213984   7.574   2.351   4.099  0.2893 -0.6120 -0.2087
 4680TIP3    H113985   7.499   2.316   4.051 -0.6661  0.2919  0.5627
 4680TIP3    H213986   7.645   2.353   4.035 -0.6592 -0.4233 -1.2958
 4681TIP3   OH213987   7.248   7.803   3.507  0.4602  0.1192 -0.0265
 4681TIP3    H113988   7.343   7.792   3.509  0.3480 -1.5663 -1.2790
 4681TIP3    H213989   7.234   7.883   3.456  1.2110  0.4550  0.2848
 4682TIP3   OH213990   6.911   2.941   1.791  0.0032  0.4088  0.1433
 4682TIP3    H113991   6.973   3.003   1.830 -1.9312  0.6688  3.1669
 4682TIP3    H213992   6.930   2.858   1.833 -1.0916  0.2992  0.4572
 4683TIP3   OH213993   8.077   0.851   0.588  0.1680 -0.0208  0.7487
 4683TIP3    H113994   8.156   0.905   0.593  0.5277 -0.5662  0.9889
 4683TIP3    H213995   8.028   0.887   0.514  1.2246 -0.4363 -0.1786
 4684TIP3   OH213996   0.664   1.975   1.934  0.1744 -0.5353  0.3295
 4684TIP3    H113997   0.645   2.032   1.859 -0.2164 -0.3733  0.5449
 4684TIP3    H213998   0.732   1.916   1.903 -0.0686 -0.5462 -0.1911
 4685TIP3   OH213999   1.434   7.443   3.945 -0.4793  0.4921 -0.0449
 4685TIP3    H114000   1.447   7.534   3.971  0.4462  0.3023  0.1828
 4685TIP3    H214001   1.343   7.424   3.967 -0.9866  1.6616 -1.0160
 4686TIP3   OH214002   2.878   1.706   3.740  0.1188 -0.1456 -0.4402
 4686TIP3    H114003   2.950   1.643   3.743 -0.0182 -0.2592  1.7720
 4686TIP3    H214004   2.918   1.788   3.768 -0.3705  0.0604 -0.3488
 4687TIP3   OH214005   0.396   5.214   1.287 -0.3433 -0.1536  0.3825
 4687TIP3    H114006   0.395   5.288   1.226 -1.5630  0.9704  1.6821
 4687TIP3    H214007   0.331   5.153   1.252  1.3826 -1.1642 -1.2555
 4688TIP3   OH214008   0.775   2.741   0.010  1.0895 -0.0964  0.1629
 4688TIP3    H114009   0.848   2.803   0.010  0.9039  0.1280  0.1932
 4688TIP3    H214010   0.717   2.774   0.079 -0.0270  0.9207 -1.1830
 4689TIP3   OH214011   8.293   5.027   3.003 -0.6594  0.5076  0.3202
 4689TIP3    H114012   8.232   4.956   2.983 -0.2820  0.5497 -1.0883
 4689TIP3    H214013   8.346   5.036   2.924 -0.1942  1.8602  0.7578
 4690TIP3   OH214014   7.067   0.529   0.870 -0.1962  0.1014 -0.1750
 4690TIP3    H114015   7.078   0.563   0.781 -1.8240 -1.5751 -1.0761
 4690TIP3    H214016   7.146   0.478   0.887 -0.3073 -0.3577 -1.0338
 4691TIP3   OH214017   5.764   1.564   5.999 -0.2872 -0.5644  0.0002
 4691TIP3    H114018   5.768   1.479   5.956 -1.9337 -1.0785  0.7691
 4691TIP3    H214019   5.673   1.591   5.991  0.0640  0.8094  0.3754
 4692TIP3   OH214020   1.141   0.005   1.362  0.2946 -0.0093  0.0915
 4692TIP3    H114021   1.120   0.006   1.269  0.3014 -1.7382  0.0315
 4692TIP3    H214022   1.081   0.068   1.401 -0.9506 -0.5639 -0.8512
 4693TIP3   OH214023   4.626   3.973   0.810 -0.5043 -0.4371  0.0390
 4693TIP3    H114024   4.658   3.906   0.750 -0.2677 -0.7284  0.4866
 4693TIP3    H214025   4.558   4.020   0.760 -0.1093 -0.4850 -0.5516
 4694TIP3   OH214026   6.489   2.744   1.657  0.1039 -0.4085 -0.1959
 4694TIP3    H114027   6.566   2.795   1.633 -0.3201  0.2813 -0.1250
 4694TIP3    H214028   6.523   2.672   1.710  0.9268 -1.2908 -1.8213
 4695TIP3   OH214029   4.754   4.893   4.026 -0.1963 -0.7409  0.5699
 4695TIP3    H114030   4.836   4.928   3.991 -0.0906  0.5454  2.0061
 4695TIP3    H214031   4.686   4.934   3.972  0.0668 -2.0210 -0.8041
 4696TIP3   OH214032   6.080   7.540   6.760 -0.0583  0.3095 -0.0997
 4696TIP3    H114033   6.020   7.525   6.686  1.0881  0.4001 -1.0726
 4696TIP3    H214034   6.081   7.457   6.807 -0.0739 -0.0518 -0.7281
 4697TIP3   OH214035   1.235   5.138   1.494 -0.2421  0.6169  1.2026
 4697TIP3    H114036   1.148   5.150   1.456  0.7802 -1.0940 -2.0546
 4697TIP3    H214037   1.229   5.053   1.539 -0.1922  0.3195  0.6600
 4698TIP3   OH214038   6.697   4.192   1.257  0.4914  0.3165  0.0979
 4698TIP3    H114039   6.611   4.169   1.223  1.0536  0.9443 -1.9379
 4698TIP3    H214040   6.681   4.259   1.323 -0.6088 -0.1707  0.3515
 4699TIP3   OH214041   0.223   0.794   1.048  0.2337  0.1486  0.0737
 4699TIP3    H114042   0.185   0.882   1.044 -0.7824 -0.2751 -0.0147
 4699TIP3    H214043   0.196   0.760   1.133 -0.7239 -0.6411 -0.5193
 4700TIP3   OH214044   6.632   1.655   4.245 -0.3199  0.5467  0.3668
 4700TIP3    H114045   6.698   1.664   4.313 -1.3326  1.7255  1.2354
 4700TIP3    H214046   6.631   1.741   4.201  0.6627 -0.3278 -1.5052
 4701TIP3   OH214047   1.258   0.117   3.566 -0.1382  0.1126  0.1388
 4701TIP3    H114048   1.284   0.106   3.475  1.7586 -1.5356  0.8152
 4701TIP3    H214049   1.325   0.174   3.604 -1.1603  1.1588  0.4456
 4702TIP3   OH214050   3.089   0.506   6.075  0.3662  0.1230 -0.1047
 4702TIP3    H114051   3.141   0.582   6.100 -0.0506  0.2499  0.4047
 4702TIP3    H214052   3.111   0.439   6.139  0.6592 -0.1574 -0.4949
 4703TIP3   OH214053   3.407   0.796   0.514 -0.0954  0.0138  0.1032
 4703TIP3    H114054   3.487   0.805   0.565  0.1323 -0.6600 -0.1211
 4703TIP3    H214055   3.435   0.804   0.423 -0.2549 -0.3748  0.0155
 4704TIP3   OH214056   4.387   4.782   5.123 -0.2126 -0.1779  0.0430
 4704TIP3    H114057   4.437   4.701   5.112  0.0028  0.0578 -0.7247
 4704TIP3    H214058   4.433   4.847   5.071 -0.7340  0.2938  0.1557
 4705TIP3   OH214059   2.509   0.679   5.533  0.0357  0.0180 -0.2275
 4705TIP3    H114060   2.518   0.609   5.468  1.0198  0.3312 -0.4342
 4705TIP3    H214061   2.499   0.759   5.480 -1.9928 -0.0245 -0.0147
 4706TIP3   OH214062   2.601   7.684   4.101 -0.3352 -0.0497  0.4228
 4706TIP3    H114063   2.521   7.676   4.048 -0.0992  0.4443 -0.0140
 4706TIP3    H214064   2.611   7.778   4.115  1.0915  0.0343 -0.9561
 4707TIP3   OH214065   3.330   2.344   4.867  0.4064  0.0118 -0.1170
 4707TIP3    H114066   3.310   2.430   4.831  0.2778  0.4026  0.8771
 4707TIP3    H214067   3.408   2.358   4.922  1.4741 -0.8491 -1.3315
 4708TIP3   OH214068   0.116   0.768   4.267 -0.0273  0.3591  0.5683
 4708TIP3    H114069   0.133   0.729   4.182 -0.4615  1.4800 -0.0615
 4708TIP3    H214070   0.106   0.694   4.327 -2.0705 -0.5567 -0.7944
 4709TIP3   OH214071   2.378   3.395   5.723 -0.3829 -0.3379 -0.5171
 4709TIP3    H114072   2.432   3.473   5.707 -0.2691 -0.4289 -0.5752
 4709TIP3    H214073   2.409   3.362   5.807 -0.4902 -0.2715 -0.4509
 4710TIP3   OH214074   5.111   0.497   1.720  0.1892  0.4428  0.3007
 4710TIP3    H114075   5.111   0.411   1.678  1.2351 -0.3263  1.7854
 4710TIP3    H214076   5.077   0.481   1.807 -0.4297  1.7147  0.3174
 4711TIP3   OH214077   6.583   3.172   4.242 -0.4580  0.0608 -0.2670
 4711TIP3    H114078   6.673   3.152   4.218 -0.3092  1.4057 -0.8784
 4711TIP3    H214079   6.566   3.116   4.318  1.5653  1.2424  1.1547
 4712TIP3   OH214080   7.765   5.544   6.168  0.4763  0.7604  0.4618
 4712TIP3    H114081   7.749   5.510   6.256  0.3140 -0.2452  0.0551
 4712TIP3    H214082   7.721   5.482   6.109  1.1397  1.0460 -0.3623
 4713TIP3   OH214083   3.721   0.237   4.806 -0.3832  0.5693 -0.1502
 4713TIP3    H114084   3.723   0.178   4.731 -2.7225 -0.4184  0.4796
 4713TIP3    H214085   3.726   0.179   4.882  1.4747  1.5217  0.5301
 4714TIP3   OH214086   1.844   6.091   3.494 -0.0722  0.3581 -0.0836
 4714TIP3    H114087   1.882   6.066   3.410  0.4598 -0.7804  0.4590
 4714TIP3    H214088   1.812   6.180   3.482 -1.4212 -0.3060 -1.9620
 4715TIP3   OH214089   6.638   1.122   2.318 -0.0518 -0.3004 -0.2830
 4715TIP3    H114090   6.601   1.054   2.374 -0.4919 -0.5923 -0.9174
 4715TIP3    H214091   6.640   1.200   2.373  0.9956 -0.9580  0.6344
 4716TIP3   OH214092   4.766   1.317   3.747 -0.5051  0.5045 -0.5690
 4716TIP3    H114093   4.670   1.326   3.752 -0.6477 -0.5264 -1.1741
 4716TIP3    H214094   4.794   1.393   3.697 -1.2129 -0.0880 -1.9223
 4717TIP3   OH214095   6.907   3.260   0.956  0.0152 -0.2295  0.2308
 4717TIP3    H114096   6.888   3.195   1.023 -0.6776  1.2360  1.5077
 4717TIP3    H214097   6.835   3.252   0.893  1.1149 -2.1935 -0.8764
 4718TIP3   OH214098   4.312   2.377   5.529  0.2910  0.1138  0.3014
 4718TIP3    H114099   4.333   2.285   5.547 -1.5408 -0.0675  1.9052
 4718TIP3    H214100   4.296   2.380   5.435 -1.7746 -1.7597  0.4992
 4719TIP3   OH214101   6.462   0.557   3.149 -0.4037 -0.0010 -0.2215
 4719TIP3    H114102   6.384   0.503   3.164  0.4269 -1.2649 -0.3529
 4719TIP3    H214103   6.511   0.510   3.082  0.9874  0.2432  0.5962
 4720TIP3   OH214104   4.981   0.513   2.802 -0.1546  0.0137 -0.2048
 4720TIP3    H114105   5.057   0.563   2.833  0.8195 -0.8049 -1.2074
 4720TIP3    H214106   4.909   0.543   2.858  0.6775  1.5228  0.1335
 4721TIP3   OH214107   7.882   7.178   4.345 -0.1389  0.3348 -0.3207
 4721TIP3    H114108   7.821   7.247   4.321 -1.8674 -1.5045 -1.5755
 4721TIP3    H214109   7.943   7.172   4.272 -1.9169 -1.4443 -1.7954
 4722TIP3   OH214110   3.918   6.293   3.759  0.6451 -0.2635  0.1844
 4722TIP3    H114111   3.955   6.215   3.800 -0.5157 -0.4067  1.0180
 4722TIP3    H214112   3.966   6.303   3.677  0.3643 -2.2461 -0.2740
 4723TIP3   OH214113   5.424   1.169   6.768  0.3092 -0.5798  0.0552
 4723TIP3    H114114   5.445   1.257   6.735 -0.0991 -0.3991  0.2640
 4723TIP3    H214115   5.496   1.114   6.738  1.9172  0.3031  2.0295
 4724TIP3   OH214116   1.753   2.136   3.794 -0.1682 -0.0102 -0.0898
 4724TIP3    H114117   1.819   2.076   3.829 -3.3298 -2.8888  1.5456
 4724TIP3    H214118   1.734   2.195   3.867 -0.9035 -0.6335  0.2382
 4725TIP3   OH214119   4.238   3.989   6.764 -0.9170 -0.2775 -0.3630
 4725TIP3    H114120   4.270   3.935   6.836  0.9910  0.0580 -0.9029
 4725TIP3    H214121   4.194   3.927   6.705  0.1331 -1.0386 -0.3628
 4726TIP3   OH214122   1.584   5.165   5.095 -0.3320  0.5651 -0.4933
 4726TIP3    H114123   1.595   5.078   5.135  0.0568  0.0842 -1.5910
 4726TIP3    H214124   1.619   5.226   5.160 -2.5081  0.1326  1.2153
 4727TIP3   OH214125   1.486   2.140   5.504  0.2773  0.3908  0.1158
 4727TIP3    H114126   1.512   2.141   5.412 -2.2732 -0.1105 -0.7043
 4727TIP3    H214127   1.455   2.051   5.520  0.6483  0.4749  1.4679
 4728TIP3   OH214128   1.841   5.807   3.306  0.2146 -0.3836  0.5910
 4728TIP3    H114129   1.750   5.835   3.300  0.6978  2.0429  2.7552
 4728TIP3    H214130   1.890   5.868   3.251  0.7299 -0.3203  1.1005
 4729TIP3   OH214131   7.905   2.553   5.731  0.0596  0.1868 -1.0596
 4729TIP3    H114132   7.971   2.558   5.799  0.6308  1.3445 -1.6687
 4729TIP3    H214133   7.945   2.500   5.662  0.7146  1.5568 -1.7747
 4730TIP3   OH214134   1.925   5.864   2.327  0.5054  0.1246 -0.4656
 4730TIP3    H114135   2.018   5.846   2.315  0.5308 -1.8690  2.0651
 4730TIP3    H214136   1.883   5.778   2.328 -1.1018  0.8717  0.3558
 4731TIP3   OH214137   3.878   7.090   2.759 -0.0843  0.2535 -0.2442
 4731TIP3    H114138   3.871   7.164   2.820 -1.2694 -0.0867  0.0675
 4731TIP3    H214139   3.939   7.030   2.800 -0.9706 -0.0327  0.7054
 4732TIP3   OH214140   3.951   7.231   3.369 -0.0749 -0.0607  0.1779
 4732TIP3    H114141   3.971   7.245   3.277 -1.2027  2.6596  0.2585
 4732TIP3    H214142   4.018   7.170   3.399  1.3945  0.3633 -2.0076
 4733TIP3   OH214143   7.203   2.370   3.814  0.4352  0.2554 -0.0252
 4733TIP3    H114144   7.144   2.321   3.756 -0.4585 -0.3871  1.3667
 4733TIP3    H214145   7.252   2.302   3.860 -1.6440  0.5123  2.8022
 4734TIP3   OH214146   4.488   5.008   4.924  0.4614 -0.1795 -0.8110
 4734TIP3    H114147   4.529   4.932   4.883  2.5625  1.7592 -2.6659
 4734TIP3    H214148   4.562   5.058   4.960 -0.6525  1.6093 -0.8796
 4735TIP3   OH214149   1.035   5.742   6.589  0.6991 -0.2699  0.5197
 4735TIP3    H114150   1.035   5.762   6.683 -0.0609 -0.7043  0.6147
 4735TIP3    H214151   1.016   5.826   6.547 -0.1348 -0.3056  0.8103
 4736TIP3   OH214152   2.543   5.982   3.319  0.1646  0.5106  0.2774
 4736TIP3    H114153   2.635   5.997   3.339  0.1413  1.0850 -0.0220
 4736TIP3    H214154   2.503   6.069   3.320 -0.4374  0.2325  0.7025
 4737TIP3   OH214155   8.015   5.945   1.859  0.7186  0.1849 -0.1758
 4737TIP3    H114156   8.014   5.916   1.769  0.8718 -1.2389  0.2667
 4737TIP3    H214157   8.044   5.869   1.910 -1.8968  0.0920  1.3729
 4738TIP3   OH214158   5.954   2.564   3.649 -0.4756 -0.4743  0.1462
 4738TIP3    H114159   6.033   2.510   3.646  0.6973  1.1196  0.8248
 4738TIP3    H214160   5.927   2.573   3.558 -0.3409 -1.6753 -0.0258
 4739TIP3   OH214161   2.791   1.122   1.816 -0.1819 -0.6188  0.1923
 4739TIP3    H114162   2.824   1.176   1.887 -0.9020  0.9126 -0.5914
 4739TIP3    H214163   2.866   1.070   1.788 -0.0532 -1.8027  2.4970
 4740TIP3   OH214164   7.153   4.883   5.039 -0.5172 -0.5228  0.7463
 4740TIP3    H114165   7.189   4.807   5.084 -1.0511 -0.6597  0.9466
 4740TIP3    H214166   7.153   4.858   4.946  2.0588  0.3471  0.4287
 4741TIP3   OH214167   5.552   2.024   1.981  0.3655  0.0563 -0.3168
 4741TIP3    H114168   5.472   2.034   2.032  1.0655 -0.5934  0.9591
 4741TIP3    H214169   5.596   2.108   1.987 -0.5815  0.7024 -1.7377
 4742TIP3   OH214170   5.982   6.082   6.771 -0.5549 -0.1048 -0.1418
 4742TIP3    H114171   5.957   6.073   6.680  3.3880 -1.5656 -1.2920
 4742TIP3    H214172   6.016   6.171   6.778 -0.8727  0.0128 -0.0824
 4743TIP3   OH214173   4.863   2.683   2.887 -0.5122  0.1450 -0.0227
 4743TIP3    H114174   4.880   2.590   2.878  0.9200  0.4351 -0.5420
 4743TIP3    H214175   4.916   2.711   2.962  2.6212  1.3108 -2.4623
 4744TIP3   OH214176   1.290   7.062   5.498  0.4100 -0.2027 -0.1005
 4744TIP3    H114177   1.269   7.131   5.560  1.1574  0.5941 -0.7183
 4744TIP3    H214178   1.209   7.046   5.451  0.0074 -0.3683  0.6346
 4745TIP3   OH214179   1.706   6.708   1.612 -0.0421 -0.3962 -0.8073
 4745TIP3    H114180   1.782   6.651   1.620 -0.5061 -1.1766 -1.7562
 4745TIP3    H214181   1.719   6.754   1.530 -0.2912 -0.0694 -0.6660
 4746TIP3   OH214182   4.070   1.109   3.445 -0.2166 -0.6168 -0.5198
 4746TIP3    H114183   4.052   1.028   3.491 -0.6012  0.0557  0.5374
 4746TIP3    H214184   4.161   1.129   3.466 -0.4700 -0.1738  0.1753
 4747TIP3   OH214185   7.885   4.207   6.154 -0.2196 -0.9269  0.2718
 4747TIP3    H114186   7.922   4.292   6.130 -2.5330  0.2338  0.5860
 4747TIP3    H214187   7.962   4.150   6.164  1.3599  0.9153 -0.6136
 4748TIP3   OH214188   5.164   5.720   6.388  0.2830 -0.5161 -0.6248
 4748TIP3    H114189   5.109   5.649   6.421  0.2627 -1.1855 -2.0324
 4748TIP3    H214190   5.235   5.726   6.452 -1.0531 -0.0456  0.8978
 4749TIP3   OH214191   5.641   2.486   0.387 -0.1220 -0.1086 -0.0988
 4749TIP3    H114192   5.710   2.470   0.451 -0.8177 -2.5905  0.1296
 4749TIP3    H214193   5.686   2.484   0.302  0.2662 -0.6310  0.1122
 4750TIP3   OH214194   3.026   6.950   0.689  0.4606  0.7578  0.5456
 4750TIP3    H114195   3.082   6.938   0.766  0.7951  1.9282  0.5032
 4750TIP3    H214196   2.949   6.997   0.722  0.9335  1.9081  0.0565
 4751TIP3   OH214197   5.651   5.994   3.519  0.0282  0.1581  0.7921
 4751TIP3    H114198   5.562   5.976   3.489  0.5390  0.2054 -0.8618
 4751TIP3    H214199   5.641   6.025   3.609 -1.8557  2.1993 -0.0339
 4752TIP3   OH214200   5.538   5.672   2.790 -0.2467  0.0533 -0.4058
 4752TIP3    H114201   5.496   5.621   2.859 -0.6642 -0.6544 -1.1619
 4752TIP3    H214202   5.507   5.761   2.805  0.5159  0.1175  0.9491
 4753TIP3   OH214203   2.619   1.213   5.473  0.5807 -0.0008 -0.0404
 4753TIP3    H114204   2.688   1.150   5.453 -0.5466 -1.0836 -0.6105
 4753TIP3    H214205   2.609   1.264   5.392 -0.0911 -0.6284 -0.3574
 4754TIP3   OH214206   0.290   1.865   2.178  0.1042 -0.4089  0.0301
 4754TIP3    H114207   0.254   1.777   2.166 -2.0265  0.2711  0.9747
 4754TIP3    H214208   0.259   1.893   2.264  0.7738  1.2612 -0.2294
 4755TIP3   OH214209   2.104   2.964   4.277 -0.0286 -0.2461 -0.1661
 4755TIP3    H114210   2.130   2.948   4.368  1.3019  1.7628 -0.1180
 4755TIP3    H214211   2.146   2.894   4.227 -0.3245 -1.0582  0.7065
 4756TIP3   OH214212   0.081   6.966   0.363  0.1291  0.2314  0.0678
 4756TIP3    H114213   0.030   6.997   0.289  0.0274 -0.9865 -0.4040
 4756TIP3    H214214   0.016   6.939   0.428  0.1103 -1.6456 -0.6707
 4757TIP3   OH214215   7.790   7.851   3.305 -0.5160 -0.3296  0.5085
 4757TIP3    H114216   7.790   7.760   3.276  2.7440 -0.6650  1.1930
 4757TIP3    H214217   7.841   7.851   3.385 -2.2470  1.8453  1.7219
 4758TIP3   OH214218   1.067   6.933   6.019 -0.2569 -0.3840  0.1126
 4758TIP3    H114219   0.978   6.969   6.023 -0.9808 -2.0287 -0.3269
 4758TIP3    H214220   1.055   6.838   6.028  1.0298 -1.1168 -3.7690
 4759TIP3   OH214221   3.637   7.037   5.890 -0.3540 -0.0830  0.1208
 4759TIP3    H114222   3.576   7.088   5.944 -0.0773 -1.2995  1.6554
 4759TIP3    H214223   3.717   7.090   5.889 -0.3061 -0.1152  1.0779
 4760TIP3   OH214224   2.970   7.644   2.728  0.3649  0.0927  0.3059
 4760TIP3    H114225   3.038   7.697   2.772 -0.5237  0.1095  1.7250
 4760TIP3    H214226   2.889   7.668   2.773 -0.6791  0.3883 -1.6450
 4761TIP3   OH214227   2.928   3.424   6.700 -0.2480 -0.0788  0.0622
 4761TIP3    H114228   2.871   3.487   6.744  0.2614  1.6310 -1.5519
 4761TIP3    H214229   3.013   3.468   6.696 -0.3349  0.0399 -2.7851
 4762TIP3   OH214230   5.113   3.354   2.220  0.2896 -0.5527  0.1828
 4762TIP3    H114231   5.100   3.447   2.202 -0.0884 -0.8185 -0.9738
 4762TIP3    H214232   5.027   3.324   2.251 -0.4915 -1.1296 -2.2971
 4763TIP3   OH214233   7.631   0.412   6.010 -0.0652  0.0459 -0.1293
 4763TIP3    H114234   7.663   0.483   6.066  0.2954 -0.3847  0.2205
 4763TIP3    H214235   7.554   0.378   6.055  0.5010 -0.6179  0.3789
 4764TIP3   OH214236   4.499   0.144   6.543  0.1555  0.6085  0.0951
 4764TIP3    H114237   4.589   0.153   6.573 -0.2557  0.7765  1.3709
 4764TIP3    H214238   4.483   0.223   6.492  0.1770  1.5288  1.4437
 4765TIP3   OH214239   6.664   3.284   0.018  0.2804 -0.5759  0.1404
 4765TIP3    H114240   6.672   3.375   0.047  0.3847 -0.1280 -1.2324
 4765TIP3    H214241   6.737   3.273  -0.043 -0.3120 -1.2766 -0.4527
 4766TIP3   OH214242   0.452   3.374   2.243  0.1220  0.0989 -0.4833
 4766TIP3    H114243   0.537   3.384   2.287  0.1875  0.3855 -0.6704
 4766TIP3    H214244   0.448   3.282   2.219  0.8024  0.2798 -1.3283
 4767TIP3   OH214245   6.231   1.622   2.409  0.1405 -0.0850 -0.0464
 4767TIP3    H114246   6.260   1.692   2.468  1.4607 -0.6371 -0.0089
 4767TIP3    H214247   6.239   1.542   2.462  0.1670 -0.4445 -0.5892
 4768TIP3   OH214248   4.748   5.782   1.477 -0.4316  0.9466 -0.3435
 4768TIP3    H114249   4.697   5.702   1.488  1.2079  0.0278  1.0998
 4768TIP3    H214250   4.699   5.848   1.527  0.0457 -0.0671  1.5787
 4769TIP3   OH214251   1.821   6.033   1.592  0.5517  0.2773  0.4640
 4769TIP3    H114252   1.858   5.946   1.607  0.2359  0.4787  2.8378
 4769TIP3    H214253   1.829   6.047   1.498  1.4862 -1.9147  0.1610
 4770TIP3   OH214254   1.221   5.767   1.672  0.0148  0.4533 -0.0704
 4770TIP3    H114255   1.202   5.841   1.730  3.2299 -1.1762  3.4964
 4770TIP3    H214256   1.184   5.691   1.717  0.5019 -0.6618 -1.4659
 4771TIP3   OH214257   4.729   7.125   5.645 -0.2594  0.6234 -0.1826
 4771TIP3    H114258   4.658   7.160   5.591  0.4232  0.5043 -1.2028
 4771TIP3    H214259   4.696   7.041   5.677  0.3627 -0.7840 -2.9132
 4772TIP3   OH214260   0.639   0.353   2.234 -0.3822 -0.3746  0.2747
 4772TIP3    H114261   0.675   0.421   2.176  0.3202 -0.8824  0.1000
 4772TIP3    H214262   0.555   0.388   2.263 -0.2173  0.3882 -0.1454
 4773TIP3   OH214263   7.552   6.250   1.296 -0.0688 -0.0969 -1.0105
 4773TIP3    H114264   7.588   6.242   1.208 -0.6570  1.2387 -1.4079
 4773TIP3    H214265   7.535   6.344   1.306 -0.0738 -0.2411  0.5035
 4774TIP3   OH214266   4.234   4.555   6.662  0.2752  0.1912 -0.4346
 4774TIP3    H114267   4.246   4.494   6.734 -1.2096  0.7234  0.2861
 4774TIP3    H214268   4.144   4.543   6.634 -0.1736  2.2610 -0.0528
 4775TIP3   OH214269   5.988   3.738   1.037 -0.4569  0.5039  0.3463
 4775TIP3    H114270   6.055   3.687   1.081 -0.3707 -0.2355 -0.6093
 4775TIP3    H214271   6.006   3.829   1.061  0.0876  0.1905  1.1337
 4776TIP3   OH214272   4.974   4.616   0.444 -0.0063  0.0341  0.4342
 4776TIP3    H114273   4.952   4.680   0.376 -0.1795  3.3830  3.3862
 4776TIP3    H214274   4.891   4.570   0.460 -1.3223  2.6242  1.6191
 4777TIP3   OH214275   6.247   1.273   3.557 -0.1614 -0.1202  0.3169
 4777TIP3    H114276   6.205   1.337   3.615 -2.2181 -0.1824 -0.9930
 4777TIP3    H214277   6.181   1.204   3.547  0.6144 -0.6854 -1.1424
 4778TIP3   OH214278   2.635   1.459   3.763 -0.4321 -0.5102  0.4492
 4778TIP3    H114279   2.689   1.492   3.690 -1.9633 -0.0058 -0.5192
 4778TIP3    H214280   2.654   1.366   3.767  0.1819 -0.4185 -0.1656
 4779TIP3   OH214281   3.625   3.006   4.866 -0.1608 -0.3099 -0.0726
 4779TIP3    H114282   3.569   3.025   4.791  0.9245 -2.1132 -1.4478
 4779TIP3    H214283   3.675   3.086   4.880 -2.2998  0.9849  0.5479
 4780TIP3   OH214284   8.153   4.627   3.948  0.3117 -0.1868 -0.0343
 4780TIP3    H114285   8.182   4.654   3.861  1.0347 -0.5075  0.0996
 4780TIP3    H214286   8.060   4.607   3.938 -0.2012  2.0933 -0.1930
 4781TIP3   OH214287   6.343   1.413   4.089 -0.3054  0.3751  0.3090
 4781TIP3    H114288   6.301   1.499   4.089  0.2200  0.6417  0.6624
 4781TIP3    H214289   6.388   1.410   4.174  0.4541  0.1367 -0.1009
 4782TIP3   OH214290   1.298   4.777   0.414 -0.6202 -0.0155  0.0921
 4782TIP3    H114291   1.206   4.752   0.425 -0.7932  0.7053  0.3597
 4782TIP3    H214292   1.347   4.708   0.459 -0.9976 -0.6784 -0.4880
 4783TIP3   OH214293   1.332   7.132   6.199  0.2892  0.6708 -0.4191
 4783TIP3    H114294   1.404   7.130   6.262  0.0898  1.5502 -0.1519
 4783TIP3    H214295   1.296   7.043   6.201  0.7337  0.4997  0.1814
 4784TIP3   OH214296   6.844   0.150   2.870 -0.1810  0.1699  0.3736
 4784TIP3    H114297   6.810   0.191   2.791 -0.6061  1.8613  1.3853
 4784TIP3    H214298   6.906   0.213   2.905 -0.5770 -0.1964  1.8033
 4785TIP3   OH214299   6.010   1.635   4.252 -0.0224 -0.4252 -0.0061
 4785TIP3    H114300   6.016   1.612   4.159  1.5902 -0.7042  0.1399
 4785TIP3    H214301   6.007   1.731   4.252  0.1746 -0.4168 -0.3382
 4786TIP3   OH214302   7.788   4.068   6.439  0.4316 -0.5274 -0.0010
 4786TIP3    H114303   7.807   4.154   6.401 -1.2529  0.8479  2.0596
 4786TIP3    H214304   7.819   4.074   6.529 -0.7753 -1.6251  0.5214
 4787TIP3   OH214305   5.869   3.973   1.383 -0.0270  0.0428 -0.1037
 4787TIP3    H114306   5.796   4.006   1.435 -2.0268 -0.4872 -2.4123
 4787TIP3    H214307   5.922   4.051   1.364  1.0905  0.1785  2.9985
 4788TIP3   OH214308   8.028   0.195   1.171  0.4178 -0.1154 -0.0531
 4788TIP3    H114309   8.052   0.256   1.241 -1.3518  1.0156 -0.3619
 4788TIP3    H214310   7.939   0.167   1.192  0.5153 -1.1577 -0.9159
 4789TIP3   OH214311   6.695   3.222   2.297  0.1537 -0.0470  0.1297
 4789TIP3    H114312   6.622   3.161   2.307  0.7771 -0.7540  0.4937
 4789TIP3    H214313   6.753   3.179   2.234  1.3304 -0.5787  1.5052
 4790TIP3   OH214314   3.902   0.971   6.316  0.2199 -0.4710  0.0388
 4790TIP3    H114315   3.969   1.003   6.376 -0.2191 -0.1909  0.3824
 4790TIP3    H214316   3.821   1.008   6.349 -0.3697 -2.2235  0.6816
 4791TIP3   OH214317   6.230   4.912   6.272 -0.8614 -0.3269 -0.0785
 4791TIP3    H114318   6.199   4.914   6.363 -0.5288 -0.1572  0.0320
 4791TIP3    H214319   6.217   5.001   6.240 -1.6547 -0.5538 -0.4324
 4792TIP3   OH214320   4.234   1.626   4.342 -0.0583  0.4504 -0.7843
 4792TIP3    H114321   4.291   1.571   4.289  0.3757  0.3827 -0.2529
 4792TIP3    H214322   4.259   1.607   4.432  0.5816  2.0415 -0.5992
 4793TIP3   OH214323   1.206   2.167   0.806 -0.3008 -0.2711 -0.5819
 4793TIP3    H114324   1.168   2.115   0.877  0.5931  0.4044  0.4181
 4793TIP3    H214325   1.287   2.121   0.784 -0.7504 -0.6839 -1.4508
 4794TIP3   OH214326   5.105   0.064   2.416  0.7515 -0.3955  0.2279
 4794TIP3    H114327   5.026   0.103   2.453 -0.2566 -1.3208 -0.8855
 4794TIP3    H214328   5.138   0.006   2.485 -0.0246 -0.6426  0.3961
 4795TIP3   OH214329   3.046   3.330   3.425  0.5179  0.2481  0.4046
 4795TIP3    H114330   3.116   3.265   3.431  0.0803 -0.2856 -0.0900
 4795TIP3    H214331   2.973   3.283   3.385  0.4811  1.2683 -0.8007
 4796TIP3   OH214332   7.064   0.884   6.033 -0.1661 -0.0163 -0.0576
 4796TIP3    H114333   7.121   0.918   5.963  3.5852 -1.3340  2.0686
 4796TIP3    H214334   7.009   0.959   6.057  0.4538  1.3208 -2.4389
 4797TIP3   OH214335   1.126   0.990   6.591 -0.1591  0.3606  0.0224
 4797TIP3    H114336   1.077   0.984   6.509 -0.4937 -1.6475  0.3200
 4797TIP3    H214337   1.183   0.914   6.591  0.3890  0.7328  1.3191
 4798TIP3   OH214338   3.985   0.616   2.460  0.1323  0.1780  0.1924
 4798TIP3    H114339   4.048   0.657   2.401 -0.3881  0.4846 -0.1564
 4798TIP3    H214340   4.032   0.608   2.543  1.3895 -1.5686 -0.6062
 4799TIP3   OH214341   0.594   4.454   3.290 -0.9923 -0.2791 -0.4022
 4799TIP3    H114342   0.537   4.530   3.300 -1.2236 -0.5253  0.1541
 4799TIP3    H214343   0.572   4.419   3.203 -1.1277  0.0796 -0.5164
 4800TIP3   OH214344   2.890   0.253   2.950  0.2835 -0.2425  0.1648
 4800TIP3    H114345   2.942   0.196   3.006  1.3163 -0.8567 -1.3631
 4800TIP3    H214346   2.866   0.199   2.875 -1.5697  0.3872  0.2423
 4801TIP3   OH214347   5.294   7.116   4.440  0.1598  0.7780  0.0467
 4801TIP3    H114348   5.249   7.035   4.463 -0.9652  0.8190 -1.7617
 4801TIP3    H214349   5.331   7.147   4.522 -0.4068 -0.9386  1.0072
 4802TIP3   OH214350   3.242   4.744   1.907  0.2911 -0.7545  0.7782
 4802TIP3    H114351   3.260   4.835   1.884 -0.2613 -0.5289  1.2275
 4802TIP3    H214352   3.315   4.695   1.869  0.1617 -0.2259 -0.1717
 4803TIP3   OH214353   3.989   4.331   3.653  0.4130  0.1021  0.1265
 4803TIP3    H114354   4.051   4.314   3.582 -1.6767 -0.4091 -1.6989
 4803TIP3    H214355   4.008   4.264   3.718  1.0162 -0.7639 -0.9059
 4804TIP3   OH214356   0.493   7.792   3.167 -0.0176 -0.1503 -0.1138
 4804TIP3    H114357   0.492   7.736   3.245  1.9657 -0.7525 -0.4615
 4804TIP3    H214358   0.585   7.815   3.155 -0.7439  3.4023  0.0844
 4805TIP3   OH214359   8.279   4.341   3.714 -0.8039 -0.2214  0.0477
 4805TIP3    H114360   8.368   4.316   3.739 -0.8435 -1.3988 -0.9050
 4805TIP3    H214361   8.236   4.362   3.797 -0.2043 -1.5352  0.7201
 4806TIP3   OH214362   7.621   1.619   4.732  0.2939 -0.1353 -0.9803
 4806TIP3    H114363   7.640   1.705   4.768  2.2347  0.0453 -2.3078
 4806TIP3    H214364   7.534   1.628   4.693  0.2683  1.0594 -0.6782
 4807TIP3   OH214365   4.605   3.324   3.991  0.3083 -0.3114 -0.0318
 4807TIP3    H114366   4.688   3.302   3.948  0.4069  0.1206 -0.0674
 4807TIP3    H214367   4.588   3.414   3.965 -0.4906 -0.5943 -0.5224
 4808TIP3   OH214368   8.119   6.850   5.318 -0.0108 -0.9593  0.0368
 4808TIP3    H114369   8.070   6.769   5.300 -0.3208 -0.6288 -0.6078
 4808TIP3    H214370   8.087   6.878   5.404 -0.5502 -1.0503 -0.1281
 4809TIP3   OH214371   8.008   1.247   4.345 -0.3151  0.0176  0.4653
 4809TIP3    H114372   8.013   1.316   4.279 -0.2280 -0.6557 -0.2583
 4809TIP3    H214373   7.932   1.194   4.318 -0.8021  0.2231  1.3991
 4810TIP3   OH214374   1.870   3.716   4.909  0.9619  0.7603 -0.2987
 4810TIP3    H114375   1.847   3.743   4.998 -0.2552  0.8250 -0.6083
 4810TIP3    H214376   1.837   3.626   4.902  0.2744  1.0508 -0.9443
 4811TIP3   OH214377   2.430   1.930   4.540 -0.3317 -0.0825 -0.5651
 4811TIP3    H114378   2.465   1.854   4.494  0.8486  1.5646 -2.6047
 4811TIP3    H214379   2.497   1.951   4.606  0.3956  0.3542 -1.4043
 4812TIP3   OH214380   5.642   1.263   2.822  0.1435 -0.0301 -0.2744
 4812TIP3    H114381   5.674   1.318   2.750  0.0790 -1.2778 -1.2851
 4812TIP3    H214382   5.721   1.226   2.861  0.2101  1.0019  0.6314
 4813TIP3   OH214383   6.501   5.235   3.080 -0.0751 -0.1513  0.2891
 4813TIP3    H114384   6.571   5.187   3.124  0.0115 -0.2069  0.0921
 4813TIP3    H214385   6.534   5.250   2.992  1.0505  2.5917  1.0590
 4814TIP3   OH214386   3.640   4.688   4.627  0.0726 -0.2772 -0.0628
 4814TIP3    H114387   3.565   4.652   4.579 -0.7825  0.7081  0.4828
 4814TIP3    H214388   3.716   4.667   4.572 -0.3904 -2.5514  0.0686
 4815TIP3   OH214389   0.608   3.260   1.793  0.0590 -0.5385  0.2392
 4815TIP3    H114390   0.637   3.187   1.847  1.8347  0.5737  0.9034
 4815TIP3    H214391   0.681   3.323   1.797 -0.8481  0.7039 -1.3532
 4816TIP3   OH214392   6.177   3.831   4.749  0.1340 -0.2684  0.2770
 4816TIP3    H114393   6.251   3.851   4.692  0.7772 -0.1352  1.1474
 4816TIP3    H214394   6.140   3.917   4.770 -0.7798 -0.3664 -0.7842
 4817TIP3   OH214395   3.271   2.530   2.615  0.2244 -0.1638 -0.8276
 4817TIP3    H114396   3.300   2.440   2.629 -1.1495 -0.5946 -0.6048
 4817TIP3    H214397   3.351   2.582   2.615  0.8366 -0.7446  3.7030
 4818TIP3   OH214398   4.124   6.984   5.514  0.3114 -0.0230  0.0818
 4818TIP3    H114399   4.038   6.944   5.498  1.5604 -3.1670  0.5404
 4818TIP3    H214400   4.158   7.004   5.427 -0.5107  0.4610 -0.1447
 4819TIP3   OH214401   6.264   6.030   1.718 -0.5642  0.4808  0.2408
 4819TIP3    H114402   6.210   5.956   1.745 -0.6709  1.0424  1.6524
 4819TIP3    H214403   6.210   6.107   1.737  0.0380  0.9806 -0.0203
 4820TIP3   OH214404   3.860   6.409   3.466 -0.5697 -0.1318  0.0053
 4820TIP3    H114405   3.805   6.332   3.451  1.1528 -1.7499  1.4160
 4820TIP3    H214406   3.950   6.377   3.452  0.1579  1.8595 -0.1845
 4821TIP3   OH214407   5.501   0.246   0.469  0.1820  0.1086 -0.3824
 4821TIP3    H114408   5.565   0.191   0.425  0.0958  1.1884 -1.9367
 4821TIP3    H214409   5.509   0.331   0.426  0.0264  1.2288  1.6563
 4822TIP3   OH214410   1.304   4.432   5.478  0.1453 -0.7568 -0.3885
 4822TIP3    H114411   1.266   4.432   5.390 -0.5692 -0.2223 -0.0866
 4822TIP3    H214412   1.304   4.340   5.504 -0.1839 -0.8545 -0.7223
 4823TIP3   OH214413   2.414   1.894   2.870 -0.1029  0.0814 -0.0937
 4823TIP3    H114414   2.465   1.906   2.950  0.2242 -0.4484 -0.2171
 4823TIP3    H214415   2.325   1.878   2.901  0.0693 -0.3617  0.1752
 4824TIP3   OH214416   1.581   2.897   2.712  0.2967 -0.4069 -0.3136
 4824TIP3    H114417   1.574   2.867   2.622 -1.5750  0.2925 -0.4636
 4824TIP3    H214418   1.663   2.946   2.715  0.4769 -0.5976 -1.5975
 4825TIP3   OH214419   2.063   5.336   4.636  0.4332  0.1136  0.2639
 4825TIP3    H114420   2.022   5.254   4.665  0.0100 -0.5699 -2.0071
 4825TIP3    H214421   2.017   5.404   4.685  0.5781 -0.9651  1.9836
 4826TIP3   OH214422   8.223   5.448   2.307 -0.5568  0.2606 -0.1529
 4826TIP3    H114423   8.193   5.528   2.263 -0.9519 -0.0300 -0.4198
 4826TIP3    H214424   8.250   5.390   2.235 -0.0180  0.2489  0.0509
 4827TIP3   OH214425   3.951   3.569   2.117 -0.4022 -0.2765 -0.2259
 4827TIP3    H114426   4.039   3.554   2.083 -0.2240  0.2066  0.0173
 4827TIP3    H214427   3.962   3.573   2.212 -0.8508 -1.2985 -0.1164
 4828TIP3   OH214428   3.172   4.684   1.010  0.2815 -0.7192 -0.4747
 4828TIP3    H114429   3.218   4.665   0.928  1.4705 -0.5691  0.1364
 4828TIP3    H214430   3.082   4.699   0.984  1.2585  3.2483 -2.3265
 4829TIP3   OH214431   4.457   2.298   4.053 -0.0189 -0.0287 -0.0326
 4829TIP3    H114432   4.530   2.342   4.009  0.6936  0.4352  1.5400
 4829TIP3    H214433   4.488   2.209   4.068  0.2147  0.1540  0.5911
 4830TIP3   OH214434   0.477   5.472   1.483 -0.3771 -0.2602 -0.0141
 4830TIP3    H114435   0.419   5.493   1.411  0.0983  0.1251 -0.2916
 4830TIP3    H214436   0.428   5.496   1.562 -1.4165 -1.8934 -0.1110
 4831TIP3   OH214437   1.437   4.098   4.757  0.8040  0.1311 -0.4381
 4831TIP3    H114438   1.418   4.169   4.817  0.1822  1.2919 -1.9371
 4831TIP3    H214439   1.377   4.112   4.684  0.4032 -2.1656 -0.6159
 4832TIP3   OH214440   1.623   5.940   0.768  0.1343  0.1676 -0.0812
 4832TIP3    H114441   1.580   5.971   0.688 -0.6127 -0.6616 -0.0281
 4832TIP3    H214442   1.666   6.017   0.805 -1.5450  1.1022  0.0025
 4833TIP3   OH214443   0.367   6.692   5.187  0.0630  0.3897 -0.0633
 4833TIP3    H114444   0.385   6.606   5.225 -0.2570 -0.0355 -0.8555
 4833TIP3    H214445   0.356   6.749   5.263 -0.2850 -0.3834  0.4916
 4834TIP3   OH214446   2.813   1.606   3.478  0.0930  0.2344  0.1727
 4834TIP3    H114447   2.890   1.656   3.452 -0.5548  2.0924  1.6306
 4834TIP3    H214448   2.811   1.612   3.574 -0.9850 -1.1480  0.2845
 4835TIP3   OH214449   4.095   5.470   1.950  0.3584 -0.6384 -0.4046
 4835TIP3    H114450   4.132   5.554   1.925 -1.4321  0.2049 -0.3056
 4835TIP3    H214451   4.125   5.409   1.882  0.7353  0.2986 -1.0903
 4836TIP3   OH214452   5.372   0.923   2.379  1.1336 -0.7365  0.7672
 4836TIP3    H114453   5.395   0.952   2.291  0.8530  1.0629  1.2275
 4836TIP3    H214454   5.324   0.842   2.367  0.4805 -0.1432 -0.8072
 4837TIP3   OH214455   6.207   0.122   3.635 -0.2524 -0.3136  0.2788
 4837TIP3    H114456   6.268   0.077   3.577  0.0671 -2.3683  2.0774
 4837TIP3    H214457   6.223   0.215   3.620  2.1206 -0.7889 -0.5302
 4838TIP3   OH214458   5.408   4.019   6.208 -0.1356 -0.1084 -0.1366
 4838TIP3    H114459   5.467   4.015   6.283 -0.1551 -0.4261 -0.1385
 4838TIP3    H214460   5.335   3.962   6.232 -0.2080 -0.1014 -0.3411
 4839TIP3   OH214461   5.292   2.614   6.045 -0.3262  0.0753 -0.3587
 4839TIP3    H114462   5.235   2.683   6.012 -0.8234 -0.8700 -1.5490
 4839TIP3    H214463   5.232   2.550   6.084 -0.0021 -0.4406 -0.6999
 4840TIP3   OH214464   4.628   1.789   3.249  0.6770  0.4980  0.3943
 4840TIP3    H114465   4.554   1.846   3.229  1.5070  1.1586 -0.9949
 4840TIP3    H214466   4.694   1.811   3.182  0.9038 -2.3797 -0.4871
 4841TIP3   OH214467   3.858   1.812   1.563  0.0418  0.0964  0.0417
 4841TIP3    H114468   3.885   1.808   1.655 -1.0223 -1.0981  0.3487
 4841TIP3    H214469   3.936   1.840   1.516  0.9847 -0.4948  1.1773
 4842TIP3   OH214470   0.382   1.543   0.922  0.0709 -0.0615  0.0639
 4842TIP3    H114471   0.412   1.573   1.008 -2.5064  1.7936  0.4564
 4842TIP3    H214472   0.366   1.623   0.873 -0.3126 -1.0452 -1.4809
 4843TIP3   OH214473   4.440   5.035   5.993  0.2435 -0.4221  0.0777
 4843TIP3    H114474   4.349   5.059   5.976  0.4047  0.6047  0.5704
 4843TIP3    H214475   4.491   5.097   5.942  0.6781  0.4534  1.5380
 4844TIP3   OH214476   1.465   1.767   0.146 -0.3668  0.6066  0.4362
 4844TIP3    H114477   1.379   1.778   0.186  0.4088  1.0158  2.1007
 4844TIP3    H214478   1.517   1.722   0.212  0.9714  1.2361 -0.1381
 4845TIP3   OH214479   8.062   0.594   4.292 -0.2700 -0.1247  0.3065
 4845TIP3    H114480   8.000   0.527   4.261  1.6038 -1.0596 -1.7381
 4845TIP3    H214481   8.048   0.668   4.233 -0.8538  0.4866  1.1938
 4846TIP3   OH214482   1.212   2.758   3.843 -0.1905 -0.2587  0.5540
 4846TIP3    H114483   1.207   2.826   3.776 -2.1230 -0.8189  0.0562
 4846TIP3    H214484   1.291   2.777   3.892 -1.1136  2.8653  1.0054
 4847TIP3   OH214485   2.324   6.799   3.083  0.3242  0.3939 -0.2719
 4847TIP3    H114486   2.367   6.831   3.004  1.5587 -1.5884 -0.4523
 4847TIP3    H214487   2.376   6.835   3.155 -0.4228  1.6659 -0.3315
 4848TIP3   OH214488   7.302   5.589   5.239 -0.2535  0.4125  0.1815
 4848TIP3    H114489   7.223   5.621   5.281 -1.1824 -0.1583 -1.0719
 4848TIP3    H214490   7.289   5.495   5.230  1.1451  0.1021  1.1323
 4849TIP3   OH214491   3.943   5.972   6.770  0.2059 -0.2715 -0.0773
 4849TIP3    H114492   3.878   5.930   6.826  0.7075  0.3679  1.0273
 4849TIP3    H214493   3.964   5.906   6.704 -0.5898 -0.9630  0.3362
 4850TIP3   OH214494   0.191   4.672   5.081 -0.2440 -0.2353 -0.2167
 4850TIP3    H114495   0.266   4.615   5.096  1.3698  1.5909 -0.8718
 4850TIP3    H214496   0.198   4.739   5.148 -0.1212  1.0407 -1.4508
 4851TIP3   OH214497   3.496   7.111   0.874 -0.5570  0.6918  0.5079
 4851TIP3    H114498   3.576   7.086   0.829 -1.0425  2.5505 -1.6015
 4851TIP3    H214499   3.498   7.207   0.877 -0.9538  0.7382  3.8951
 4852TIP3   OH214500   0.704   2.459   2.870 -0.1586  0.7588 -0.1740
 4852TIP3    H114501   0.766   2.391   2.844 -0.8872  0.1491 -0.3615
 4852TIP3    H214502   0.722   2.474   2.963 -0.4043 -0.1605  0.0404
 4853TIP3   OH214503   3.546   2.506   4.225  0.3556  0.1612  0.0877
 4853TIP3    H114504   3.583   2.461   4.302  0.4585 -1.5486 -0.9001
 4853TIP3    H214505   3.563   2.598   4.240  2.0435 -0.2946  1.2498
 4854TIP3   OH214506   3.738   3.591   3.546  0.1782 -0.0603  0.3661
 4854TIP3    H114507   3.646   3.602   3.568  0.1426 -0.4775  0.4431
 4854TIP3    H214508   3.785   3.639   3.614  0.0847 -1.6120  1.5969
 4855TIP3   OH214509   7.486   1.781   6.105  0.1765 -0.0280  0.2243
 4855TIP3    H114510   7.537   1.849   6.060 -0.1554  0.5506  0.7049
 4855TIP3    H214511   7.488   1.806   6.197 -1.3040  0.2405  0.2128
 4856TIP3   OH214512   2.718   0.731   6.279 -0.4222 -0.1686  0.1690
 4856TIP3    H114513   2.748   0.671   6.211 -2.4848 -0.6306 -0.4066
 4856TIP3    H214514   2.666   0.796   6.231 -1.4683 -0.2008  1.2371
 4857TIP3   OH214515   1.754   7.014   5.046 -0.4669  0.3359  0.5810
 4857TIP3    H114516   1.704   7.072   4.989  1.2272  1.1113 -0.1609
 4857TIP3    H214517   1.706   6.931   5.043  0.2758 -0.1175 -3.1218
 4858TIP3   OH214518   0.594   5.199   2.153  0.4606 -0.5143 -0.1494
 4858TIP3    H114519   0.571   5.120   2.201  0.0944 -1.9102 -2.5012
 4858TIP3    H214520   0.510   5.235   2.124  0.7366 -0.7779 -1.3394
 4859TIP3   OH214521   6.020   4.152   3.256  0.1903  0.4242 -0.1490
 4859TIP3    H114522   5.990   4.067   3.290  2.4325 -0.6268 -0.6188
 4859TIP3    H214523   5.945   4.184   3.205 -0.9264 -0.9870  0.4924
 4860TIP3   OH214524   0.873   4.477   2.080  0.6460 -0.3198  0.1358
 4860TIP3    H114525   0.968   4.488   2.078  0.5559  1.1119  1.3999
 4860TIP3    H214526   0.844   4.534   2.152 -1.2762  0.1728 -0.9460
 4861TIP3   OH214527   0.037   0.737   5.694  0.4066 -0.1524 -0.3147
 4861TIP3    H114528  -0.031   0.713   5.756  0.2984  0.5309 -0.1571
 4861TIP3    H214529  -0.005   0.732   5.608  0.1949  0.1265 -0.2285
 4862TIP3   OH214530   7.999   2.234   4.438 -0.6897  0.0307  0.6139
 4862TIP3    H114531   7.924   2.267   4.488 -0.2354  2.4478 -0.1866
 4862TIP3    H214532   7.965   2.223   4.349  0.1796  2.4637 -0.0699
 4863TIP3   OH214533   6.524   6.289   0.349 -0.2622  0.0958  0.0202
 4863TIP3    H114534   6.548   6.378   0.325  0.0087  0.4078  1.3628
 4863TIP3    H214535   6.507   6.245   0.266 -1.0952  1.5888 -0.6360
 4864TIP3   OH214536   4.138   6.208   1.985  0.6587 -0.5187  0.6367
 4864TIP3    H114537   4.132   6.268   2.060  0.7637  0.4641 -0.1237
 4864TIP3    H214538   4.143   6.265   1.909 -0.1069 -1.5103 -0.1862
 4865TIP3   OH214539   4.627   5.380   3.310  0.3675  0.3943 -0.0870
 4865TIP3    H114540   4.636   5.312   3.244  2.0794 -1.1484  1.5983
 4865TIP3    H214541   4.540   5.366   3.348 -0.4967  1.0914 -1.6775
 4866TIP3   OH214542   0.645   0.410   1.905 -1.1133  0.0590 -0.1393
 4866TIP3    H114543   0.628   0.486   1.962  1.1196  0.2239  0.4362
 4866TIP3    H214544   0.609   0.435   1.820 -1.7560  1.1296  0.4252
 4867TIP3   OH214545   4.286   6.601   4.818  0.2369 -0.4101 -0.4094
 4867TIP3    H114546   4.257   6.614   4.728  0.4911  0.6008 -0.3653
 4867TIP3    H214547   4.333   6.682   4.839 -0.0779 -0.5044  0.7208
 4868TIP3   OH214548   7.696   3.211   2.908 -0.0927 -0.2880 -0.1633
 4868TIP3    H114549   7.664   3.253   2.828 -0.3329 -0.6383 -0.2518
 4868TIP3    H214550   7.739   3.131   2.879 -0.5591 -0.6410  0.0841
 4869TIP3   OH214551   1.557   1.994   6.364 -0.5137 -0.0109  0.3703
 4869TIP3    H114552   1.522   2.026   6.447 -0.3181  0.5894  0.2267
 4869TIP3    H214553   1.584   1.904   6.382  2.1593  0.9667  1.7460
 4870TIP3   OH214554   0.534   3.855   3.800  0.0146  0.3809 -0.1852
 4870TIP3    H114555   0.537   3.761   3.817  0.8908  0.5319  0.5097
 4870TIP3    H214556   0.483   3.862   3.719  1.4904 -0.8290 -1.2689
 4871TIP3   OH214557   1.775   7.744   4.477 -0.6139 -0.2818 -0.2482
 4871TIP3    H114558   1.734   7.673   4.528 -0.7515  1.3047  2.0058
 4871TIP3    H214559   1.863   7.751   4.513 -1.2062  1.8771  0.9707
 4872TIP3   OH214560   0.329   4.676   6.794 -0.1457 -0.2314 -0.0358
 4872TIP3    H114561   0.367   4.614   6.731  2.4389  0.8428  0.3642
 4872TIP3    H214562   0.332   4.760   6.750  0.4076  0.3095  1.0111
 4873TIP3   OH214563   1.896   5.050   6.166 -0.5341  0.6523  0.0109
 4873TIP3    H114564   1.951   5.126   6.149  0.7095 -0.3196 -0.4802
 4873TIP3    H214565   1.920   5.022   6.255  0.0993 -0.0328 -0.3692
 4874TIP3   OH214566   0.707   6.270   2.210 -0.1201  0.0590  0.0916
 4874TIP3    H114567   0.784   6.240   2.257 -1.0368  0.9046  2.2433
 4874TIP3    H214568   0.643   6.291   2.278 -1.8271  0.5532 -1.5674
 4875TIP3   OH214569   4.170   4.162   0.668 -0.6080 -0.2554 -0.0149
 4875TIP3    H114570   4.149   4.141   0.577  0.8418 -0.0940 -0.4167
 4875TIP3    H214571   4.146   4.254   0.678 -1.4552 -0.4728 -0.0076
 4876TIP3   OH214572   6.260   4.892   1.467 -0.1846  0.0616 -0.2967
 4876TIP3    H114573   6.223   4.806   1.485 -0.2891 -0.0391 -0.9930
 4876TIP3    H214574   6.261   4.935   1.553 -2.2625  0.1989 -0.2747
 4877TIP3   OH214575   4.091   7.265   3.109  0.1425  0.1232 -0.6159
 4877TIP3    H114576   4.133   7.186   3.076 -1.7056 -0.4865 -1.6904
 4877TIP3    H214577   4.076   7.319   3.031 -0.2362  0.7107 -0.1484
 4878TIP3   OH214578   2.157   7.195   6.542 -0.0454  0.7890  0.5487
 4878TIP3    H114579   2.089   7.242   6.591  0.8564  0.4181  2.2362
 4878TIP3    H214580   2.224   7.176   6.607  0.9576 -0.2519 -0.7401
 4879TIP3   OH214581   0.397   1.171   0.428  0.0644  0.4085  0.2205
 4879TIP3    H114582   0.480   1.135   0.458  2.6616 -0.5807 -6.5370
 4879TIP3    H214583   0.337   1.097   0.426  0.1167  0.3019  1.6010
 4880TIP3   OH214584   4.133   5.224   0.970 -0.0209  0.1224 -0.3998
 4880TIP3    H114585   4.128   5.159   1.039  1.4362 -0.8588 -1.1761
 4880TIP3    H214586   4.052   5.211   0.920  1.2593 -2.8154 -1.9573
 4881TIP3   OH214587   0.975   7.833   0.900  0.4959  0.3375  0.6023
 4881TIP3    H114588   1.011   7.784   0.826  0.3935  2.7807 -1.1851
 4881TIP3    H214589   1.043   7.828   0.968  1.5343 -0.2157 -0.4406
 4882TIP3   OH214590   6.642   6.862   5.297  0.3795  0.6034  0.1315
 4882TIP3    H114591   6.664   6.792   5.235 -1.9875  0.6871 -0.8984
 4882TIP3    H214592   6.683   6.941   5.260 -1.8816  0.8647 -2.0121
 4883TIP3   OH214593   2.395   0.648   5.992 -0.7289 -0.2485  0.7779
 4883TIP3    H114594   2.357   0.641   5.905 -0.2219  2.5755  0.2436
 4883TIP3    H214595   2.489   0.653   5.977 -0.7216  2.1024  1.2617
 4884TIP3   OH214596   3.673   0.672   5.587 -0.4733  0.9710  0.0705
 4884TIP3    H114597   3.603   0.708   5.532 -0.6421  1.2368  0.4497
 4884TIP3    H214598   3.711   0.749   5.630 -0.9029  0.7012  0.9637
 4885TIP3   OH214599   4.059   7.399   2.857 -0.1077  0.3967 -0.6724
 4885TIP3    H114600   4.145   7.368   2.828 -0.8779 -1.3518 -1.2594
 4885TIP3    H214601   4.017   7.430   2.777 -0.2966  0.5424 -0.5159
 4886TIP3   OH214602   7.173   7.710   4.501  0.2526  0.0528 -0.5242
 4886TIP3    H114603   7.220   7.761   4.565  0.0670  0.3118 -0.5923
 4886TIP3    H214604   7.093   7.761   4.483  1.0200  0.7672 -2.1062
 4887TIP3   OH214605   5.022   0.413   5.460  0.6807  0.0564 -0.3949
 4887TIP3    H114606   5.099   0.362   5.436  2.0141  1.1664  1.2937
 4887TIP3    H214607   4.978   0.431   5.377  1.8238 -1.2498 -1.3177
 4888TIP3   OH214608   7.123   1.258   3.388  0.1585  0.2031 -0.3260
 4888TIP3    H114609   7.123   1.169   3.423 -2.3751 -0.1088 -0.8851
 4888TIP3    H214610   7.149   1.248   3.296 -2.0608 -0.3203 -0.9565
 4889TIP3   OH214611   1.663   4.670   6.326  0.2448 -0.8419 -0.2379
 4889TIP3    H114612   1.747   4.693   6.288 -0.1793 -0.4509 -0.9676
 4889TIP3    H214613   1.621   4.615   6.260 -0.4726 -0.2200 -0.3116
 4890TIP3   OH214614   2.321   4.108   1.032  0.5156  0.1770  0.4944
 4890TIP3    H114615   2.248   4.156   1.071  1.4609  1.4478  0.7763
 4890TIP3    H214616   2.332   4.031   1.087  0.3868  0.7858  1.3883
 4891TIP3   OH214617   4.741   4.205   4.788 -0.8596 -0.6633  0.7325
 4891TIP3    H114618   4.751   4.243   4.701  0.1856 -1.4350  0.5051
 4891TIP3    H214619   4.657   4.159   4.785 -2.0352  1.3550  0.9366
 4892TIP3   OH214620   1.017   5.667   4.659 -0.5639 -0.2603 -0.0856
 4892TIP3    H114621   1.100   5.619   4.655  0.1889  1.0691 -1.7026
 4892TIP3    H214622   0.960   5.622   4.597  0.2516  1.0103 -1.8578
 4893TIP3   OH214623   6.562   3.681   3.117  0.1871 -0.5703 -0.1606
 4893TIP3    H114624   6.564   3.669   3.022 -1.1598 -0.3749 -0.2348
 4893TIP3    H214625   6.513   3.606   3.149  0.1079 -0.3156  0.3212
 4894TIP3   OH214626   7.883   4.368   1.834  0.4491  0.2906  0.1354
 4894TIP3    H114627   7.861   4.454   1.869  1.9276  1.3860 -1.4581
 4894TIP3    H214628   7.815   4.350   1.769  1.2414  1.2498 -1.0043
 4895TIP3   OH214629   2.942   2.800   1.120  0.5911  0.0224 -0.6032
 4895TIP3    H114630   2.945   2.770   1.211  2.3156 -1.7334 -1.1749
 4895TIP3    H214631   2.897   2.885   1.125 -2.0049 -1.3027  1.4679
 4896TIP3   OH214632   8.063   1.312   0.696 -0.2841  0.1249  0.2577
 4896TIP3    H114633   8.157   1.322   0.709 -0.5285  1.5735  1.2079
 4896TIP3    H214634   8.047   1.344   0.607 -0.2829  3.5168  1.3192
 4897TIP3   OH214635   6.602   5.372   1.704 -0.5343 -0.0493 -0.6257
 4897TIP3    H114636   6.563   5.405   1.785  1.1488 -0.4089  0.3790
 4897TIP3    H214637   6.658   5.299   1.732 -2.8404 -2.7872 -2.5606
 4898TIP3   OH214638   6.477   6.194   3.510  0.0769 -0.7113  0.5005
 4898TIP3    H114639   6.393   6.207   3.553  0.5478 -0.5682  1.3939
 4898TIP3    H214640   6.475   6.103   3.480 -1.1220 -0.1832 -1.1248
 4899TIP3   OH214641   0.027   2.626   3.167  0.6895 -0.2553 -0.1180
 4899TIP3    H114642   0.088   2.699   3.160  0.5957  0.1940  2.6309
 4899TIP3    H214643   0.083   2.550   3.186  0.5493 -0.0413  1.3109
 4900TIP3   OH214644   7.358   6.680   3.257 -0.1384 -0.3539  0.3595
 4900TIP3    H114645   7.304   6.720   3.326  0.2611  1.0340 -0.1040
 4900TIP3    H214646   7.301   6.678   3.180 -0.3189 -1.1740  0.4982
 4901TIP3   OH214647   5.727   0.280   0.854  0.1073 -0.1536 -0.1886
 4901TIP3    H114648   5.761   0.305   0.940 -2.6146 -1.0275  1.2672
 4901TIP3    H214649   5.695   0.190   0.866 -2.5599  0.5284 -1.3152
 4902TIP3   OH214650   3.336   4.720   5.047  0.4113  0.1818 -0.0792
 4902TIP3    H114651   3.377   4.720   5.134 -0.5328  1.1745  0.3841
 4902TIP3    H214652   3.316   4.812   5.030 -0.9846 -0.1982 -0.5915
 4903TIP3   OH214653   2.230   7.117   6.299  0.5855 -0.5098  0.3610
 4903TIP3    H114654   2.320   7.145   6.315  1.1199 -2.3629  0.8902
 4903TIP3    H214655   2.187   7.126   6.384  1.2561 -2.8188  1.0319
 4904TIP3   OH214656   1.127   2.638   5.340  0.0491 -0.1529 -0.5678
 4904TIP3    H114657   1.162   2.569   5.396  0.8777  0.1722 -0.6707
 4904TIP3    H214658   1.039   2.608   5.317 -0.5227 -0.0271  1.3507
 4905TIP3   OH214659   6.694   2.933   0.327 -0.0327  0.0368  0.2789
 4905TIP3    H114660   6.686   2.868   0.256 -1.2701 -0.8171  1.1558
 4905TIP3    H214661   6.713   2.880   0.405  1.0337  0.9416  0.6543
 4906TIP3   OH214662   7.118   1.187   1.540  0.3241  0.2364  0.5767
 4906TIP3    H114663   7.192   1.205   1.481 -1.0099  0.9397 -0.9814
 4906TIP3    H214664   7.058   1.134   1.487  0.2043 -1.3525  2.2074
 4907TIP3   OH214665   3.855   1.058   4.509 -0.4541  0.2322  0.1283
 4907TIP3    H114666   3.791   1.117   4.550  0.1678  0.4387  0.8353
 4907TIP3    H214667   3.823   1.046   4.420 -2.1940 -0.7185  0.8393
 4908TIP3   OH214668   1.350   5.941   2.434  0.1642  0.5545  0.1672
 4908TIP3    H114669   1.311   5.912   2.352  0.6542 -0.7053  0.3551
 4908TIP3    H214670   1.426   5.884   2.445  1.8289  2.6328  0.0283
 4909TIP3   OH214671   5.092   4.471   2.396 -0.0761 -0.1029  0.2438
 4909TIP3    H114672   5.024   4.448   2.460 -0.2638  0.6711  0.3264
 4909TIP3    H214673   5.060   4.551   2.355 -0.0235 -0.6598 -0.9296
 4910TIP3   OH214674   8.179   1.844   3.890  0.0723  0.1581 -0.0879
 4910TIP3    H114675   8.107   1.871   3.833 -1.5125 -0.7642  1.3845
 4910TIP3    H214676   8.199   1.754   3.862 -0.2759 -0.0664  0.3704
 4911TIP3   OH214677   5.147   1.814   5.735 -0.1061  0.6120 -0.3369
 4911TIP3    H114678   5.112   1.842   5.819  0.2602  0.8621 -0.2625
 4911TIP3    H214679   5.071   1.811   5.677 -0.4336 -0.0175  0.1152
 4912TIP3   OH214680   0.180   1.786   1.012  0.2951 -0.2684  0.0839
 4912TIP3    H114681   0.230   1.802   0.932  0.5093  1.0579  0.4633
 4912TIP3    H214682   0.234   1.823   1.082 -1.2510  1.3364  0.4943
 4913TIP3   OH214683   1.561   1.666   6.369  0.2830  0.2150 -0.0508
 4913TIP3    H114684   1.633   1.664   6.432 -1.3845 -0.1800  1.9887
 4913TIP3    H214685   1.483   1.683   6.423 -1.1659  0.6005 -2.1335
 4914TIP3   OH214686   4.889   5.948   6.125 -0.2902  0.0249 -0.3264
 4914TIP3    H114687   4.900   6.015   6.057  0.4763 -0.4458 -0.6836
 4914TIP3    H214688   4.974   5.946   6.169 -0.4464 -0.4186 -0.0428
 4915TIP3   OH214689   6.719   4.705   0.266 -0.3177  0.2079  0.3614
 4915TIP3    H114690   6.764   4.787   0.286  0.0249  0.4225 -1.1289
 4915TIP3    H214691   6.781   4.656   0.211 -0.4223 -1.1686  1.4063
 4916TIP3   OH214692   1.153   7.726   1.092  0.3664 -0.3127  0.4061
 4916TIP3    H114693   1.130   7.648   1.142  0.7650 -0.2210  0.7409
 4916TIP3    H214694   1.169   7.793   1.159 -2.5604  0.8384  0.1178
 4917TIP3   OH214695   3.025   7.063   1.187 -0.4815 -0.2485 -0.3719
 4917TIP3    H114696   3.045   7.156   1.194 -2.3352  0.1284  0.6534
 4917TIP3    H214697   2.981   7.054   1.102 -2.7401  0.3937  0.6353
 4918TIP3   OH214698   2.994   2.421   1.172  0.2627  0.4694 -0.1576
 4918TIP3    H114699   2.999   2.378   1.087 -0.2005  0.1894 -0.0459
 4918TIP3    H214700   3.085   2.441   1.194  0.4946 -0.5395 -0.1660
 4919TIP3   OH214701   3.238   5.771   1.824 -0.3840  0.1245  0.4308
 4919TIP3    H114702   3.176   5.697   1.829 -0.3390 -0.0385 -1.0285
 4919TIP3    H214703   3.316   5.739   1.868 -0.7223 -0.3241  0.7238
 4920TIP3   OH214704   5.856   0.058   5.162 -0.7585 -0.3900 -0.0962
 4920TIP3    H114705   5.913   0.128   5.195 -1.8525  0.4579  0.0701
 4920TIP3    H214706   5.914  -0.016   5.147  0.6370  0.8683 -1.2230
 4921TIP3   OH214707   6.445   3.586   4.469  0.0861  0.3452  0.1096
 4921TIP3    H114708   6.393   3.666   4.478  1.4165  1.2858 -0.1710
 4921TIP3    H214709   6.462   3.558   4.559 -1.1804 -0.1766  0.1970
 4922TIP3   OH214710   0.176   5.751   5.854 -0.7368 -0.4000  0.1382
 4922TIP3    H114711   0.207   5.808   5.784 -0.6937  2.0499  2.0473
 4922TIP3    H214712   0.082   5.768   5.859 -0.8901 -1.2087  0.1377
 4923TIP3   OH214713   0.941   2.719   3.881  0.2491  0.0044 -0.4920
 4923TIP3    H114714   1.033   2.713   3.906  0.2698  2.1071  0.1433
 4923TIP3    H214715   0.893   2.702   3.962  0.0968 -0.4207 -0.6713
 4924TIP3   OH214716   7.579   6.176   6.171 -0.3290  0.2522  0.1802
 4924TIP3    H114717   7.576   6.130   6.087 -0.5766 -1.6229  1.1887
 4924TIP3    H214718   7.523   6.253   6.158 -1.3904 -0.6853 -0.9832
 4925TIP3   OH214719   1.931   4.662   6.749  0.0918  0.2551 -0.4377
 4925TIP3    H114720   1.858   4.639   6.692 -0.9638  1.5249  0.3421
 4925TIP3    H214721   1.892   4.719   6.816  1.4244 -0.5697  1.1141
 4926TIP3   OH214722   2.961   5.137   4.771  0.1803  0.2835  0.4569
 4926TIP3    H114723   2.983   5.047   4.795  0.0349  0.0087 -0.4234
 4926TIP3    H214724   2.976   5.141   4.676 -1.4978  0.6939  0.1884
 4927TIP3   OH214725   5.272   1.197   3.690  0.7324  0.2226 -0.1613
 4927TIP3    H114726   5.325   1.207   3.611  0.0989  0.9341 -0.4978
 4927TIP3    H214727   5.261   1.286   3.723 -2.2122  0.3972 -1.3831
 4928TIP3   OH214728   5.950   4.149   2.650 -0.4102 -0.2522  0.0315
 4928TIP3    H114729   5.947   4.200   2.731  1.6945 -0.6491  0.4274
 4928TIP3    H214730   6.000   4.203   2.589 -1.3102 -0.2936 -0.7696
 4929TIP3   OH214731   2.530   6.655   4.006  0.6093  0.1239  0.4731
 4929TIP3    H114732   2.458   6.718   4.008  0.3822 -0.1281  0.4361
 4929TIP3    H214733   2.553   6.642   4.098  0.6918  0.3033  0.4765
 4930TIP3   OH214734   7.687   1.858   2.374 -0.5231 -0.7816  0.0524
 4930TIP3    H114735   7.751   1.879   2.443 -1.8007 -0.3855  1.1588
 4930TIP3    H214736   7.735   1.872   2.292  0.9515 -0.9725  0.8421
 4931TIP3   OH214737   1.534   6.732   1.307  0.0961  0.4003 -0.4996
 4931TIP3    H114738   1.614   6.779   1.330 -0.5527  2.0240 -1.4034
 4931TIP3    H214739   1.502   6.775   1.228 -1.7138 -0.1577 -0.1247
 4932TIP3   OH214740   7.887   1.387   0.018 -0.2503 -0.5529  0.5548
 4932TIP3    H114741   7.895   1.315   0.081  0.5896 -1.1949 -0.2547
 4932TIP3    H214742   7.796   1.382  -0.012 -0.3879 -0.8550  1.0130
 4933TIP3   OH214743   6.652   1.614   0.315 -0.1665 -0.2831 -0.2657
 4933TIP3    H114744   6.615   1.696   0.348 -0.1333 -0.3771  0.0066
 4933TIP3    H214745   6.677   1.566   0.393  1.0127 -0.0008 -0.4441
 4934TIP3   OH214746   7.995   7.227   3.535 -0.6808  0.0362 -0.2769
 4934TIP3    H114747   7.924   7.186   3.585  0.8009 -1.0860  1.0214
 4934TIP3    H214748   8.045   7.276   3.600 -0.4126  1.0515 -1.2176
 4935TIP3   OH214749   1.725   0.266   3.546 -0.0943 -0.0529  0.1569
 4935TIP3    H114750   1.771   0.316   3.614  2.0000 -1.4641 -0.1568
 4935TIP3    H214751   1.753   0.306   3.464 -0.2075 -0.3122 -0.0067
 4936TIP3   OH214752   2.869   1.561   3.017  0.1432  0.4180 -0.3840
 4936TIP3    H114753   2.877   1.467   2.998 -0.2364  0.0778  1.0227
 4936TIP3    H214754   2.937   1.602   2.963  0.7787 -0.7301 -0.4980
 4937TIP3   OH214755   5.412   6.023   0.495  0.4331  0.2328 -0.4542
 4937TIP3    H114756   5.433   6.072   0.575  2.5223  1.4489 -1.6489
 4937TIP3    H214757   5.319   6.004   0.502  0.7260 -0.5396  2.6906
 4938TIP3   OH214758   0.160   5.151   3.656 -0.0589  0.3317 -0.2815
 4938TIP3    H114759   0.095   5.113   3.715 -0.4869 -1.6159 -1.8701
 4938TIP3    H214760   0.108   5.202   3.593 -0.0870 -0.9712 -1.3650
 4939TIP3   OH214761   5.187   2.945   5.489 -0.4550  0.8230 -0.3134
 4939TIP3    H114762   5.105   2.898   5.501 -0.1218  0.0617 -0.9384
 4939TIP3    H214763   5.252   2.893   5.536 -0.4874  1.9687  1.0608
 4940TIP3   OH214764   6.150   0.701   4.006 -0.1056  0.8310  0.0906
 4940TIP3    H114765   6.147   0.700   4.102  0.8045  2.0218  0.1485
 4940TIP3    H214766   6.190   0.617   3.982  0.0222  0.6942  0.7648
 4941TIP3   OH214767   1.543   4.456   1.332 -0.2844 -0.2881  0.0604
 4941TIP3    H114768   1.486   4.520   1.374 -1.2811 -0.0691 -1.5472
 4941TIP3    H214769   1.621   4.506   1.308 -0.8899  0.2693 -0.8256
 4942TIP3   OH214770   6.568   4.298   5.605  0.0810  0.2810 -0.2353
 4942TIP3    H114771   6.590   4.212   5.640  0.1565  0.7427  0.9035
 4942TIP3    H214772   6.551   4.352   5.683  0.6634  1.4612 -0.8926
 4943TIP3   OH214773   6.028   1.136   4.532 -0.0989 -0.1820 -0.7744
 4943TIP3    H114774   6.007   1.105   4.619  0.0062  1.4749 -0.1194
 4943TIP3    H214775   6.119   1.167   4.539  1.3088 -3.3568 -2.4616
 4944TIP3   OH214776   4.599   6.384   2.494 -0.4345  0.4150 -0.2433
 4944TIP3    H114777   4.666   6.367   2.427  1.0721  2.7191  0.5481
 4944TIP3    H214778   4.604   6.309   2.553  0.8182  0.1011 -0.7148
 4945TIP3   OH214779   6.494   1.849   2.134 -0.4641  0.2397 -0.0943
 4945TIP3    H114780   6.511   1.761   2.101 -0.3126  0.6771 -1.2270
 4945TIP3    H214781   6.428   1.885   2.075  0.1539  1.2104 -0.2117
 4946TIP3   OH214782   7.872   7.633   3.599  0.0496  0.0418  0.0004
 4946TIP3    H114783   7.851   7.726   3.595 -0.8511 -0.0748  1.2832
 4946TIP3    H214784   7.786   7.590   3.604  0.4727 -0.7020  1.4990
 4947TIP3   OH214785   8.039   1.853   5.930 -0.1181  0.1471 -0.0597
 4947TIP3    H114786   8.070   1.920   5.868 -0.7976  0.1552 -0.3987
 4947TIP3    H214787   8.044   1.771   5.881  0.1766  0.0292  0.1673
 4948TIP3   OH214788   3.408   7.790   3.234  0.1138 -0.0998 -0.2524
 4948TIP3    H114789   3.490   7.834   3.256  0.1036 -0.0516 -0.3120
 4948TIP3    H214790   3.429   7.697   3.238 -0.3527 -0.1709  1.9040
 4949TIP3   OH214791   5.563   5.836   5.441  0.6386 -0.0789 -0.3128
 4949TIP3    H114792   5.582   5.771   5.374  0.4859  0.8355 -1.2728
 4949TIP3    H214793   5.641   5.891   5.445  0.1632  0.6417 -0.6715
 4950TIP3   OH214794   5.557   5.887   4.219  0.2381 -0.0680 -0.5125
 4950TIP3    H114795   5.526   5.930   4.140 -2.5421  0.2962  0.6583
 4950TIP3    H214796   5.495   5.816   4.235  1.5682 -1.0661  0.5937
 4951TIP3   OH214797   6.687   2.419   5.400 -0.5129 -0.1331  0.1085
 4951TIP3    H114798   6.593   2.411   5.385 -1.2451  1.5877  3.0129
 4951TIP3    H214799   6.702   2.371   5.482  1.0458  0.1457  0.0157
 4952TIP3   OH214800   3.754   0.134   6.282  0.0378 -0.2674  0.8661
 4952TIP3    H114801   3.789   0.100   6.200 -2.1060  2.2127 -1.2558
 4952TIP3    H214802   3.773   0.228   6.279 -0.9797  0.0401  2.7157
 4953TIP3   OH214803   5.925   4.747   5.157 -0.0603  0.3140  0.3629
 4953TIP3    H114804   5.842   4.725   5.114  0.5696 -0.7044 -0.3598
 4953TIP3    H214805   5.899   4.775   5.245 -1.1293 -0.9743  0.5011
 4954TIP3   OH214806   1.995   0.339   1.318  0.3715  0.3035  0.5300
 4954TIP3    H114807   2.037   0.333   1.405 -0.3784 -3.9269  0.8380
 4954TIP3    H214808   2.058   0.299   1.259 -0.0426  1.1613 -0.5214
 4955TIP3   OH214809   6.723   5.936   3.686  0.3204  0.4022  0.1525
 4955TIP3    H114810   6.641   5.904   3.723  0.7312  1.6746  2.3642
 4955TIP3    H214811   6.727   6.028   3.712  1.5277  0.9128 -1.6361
 4956TIP3   OH214812   1.288   1.909   2.389 -0.5954  0.1472  0.2353
 4956TIP3    H114813   1.309   1.950   2.305 -3.0617  0.2014 -0.4239
 4956TIP3    H214814   1.207   1.952   2.417 -0.7812 -1.1192  1.7712
 4957TIP3   OH214815   7.314   5.566   0.965  0.1884  0.0743 -0.0952
 4957TIP3    H114816   7.313   5.634   1.032 -0.3124  1.1520 -1.1486
 4957TIP3    H214817   7.222   5.546   0.948  0.1775  1.3186 -1.8560
 4958TIP3   OH214818   7.564   3.956   1.216 -0.0894 -0.2099 -0.3373
 4958TIP3    H114819   7.470   3.966   1.228 -0.1960 -1.4315  0.0225
 4958TIP3    H214820   7.602   4.032   1.260 -0.7836 -1.3713  2.5414
 4959TIP3   OH214821   8.277   3.858   2.148  0.2619 -0.1994 -0.2477
 4959TIP3    H114822   8.220   3.809   2.089  0.8693  0.4948 -1.4450
 4959TIP3    H214823   8.217   3.906   2.205 -0.3369 -0.9557 -0.2306
 4960TIP3   OH214824   4.581   7.653   3.380 -0.0377 -0.1391 -0.2916
 4960TIP3    H114825   4.528   7.669   3.302  1.4989  1.1758 -1.1082
 4960TIP3    H214826   4.557   7.723   3.441  0.2541  0.0634 -0.4050
 4961TIP3   OH214827   7.515   4.724   6.629 -0.2162 -0.4116 -0.0546
 4961TIP3    H114828   7.462   4.686   6.559 -1.8259  1.4050  0.0878
 4961TIP3    H214829   7.506   4.664   6.703 -2.8462  0.2567  0.2439
 4962TIP3   OH214830   5.114   3.534   1.303  0.2881 -0.1144  0.4842
 4962TIP3    H114831   5.162   3.587   1.367  0.2711 -1.8358  2.0009
 4962TIP3    H214832   5.172   3.459   1.287 -0.3060 -0.3691 -0.4962
 4963TIP3   OH214833   4.282   2.358   4.255  0.3457  0.2057  0.4960
 4963TIP3    H114834   4.207   2.375   4.197 -1.6176 -0.5953  2.6334
 4963TIP3    H214835   4.358   2.356   4.197 -1.1342  1.9874 -1.6761
 4964TIP3   OH214836   4.268   4.753   0.043 -0.7615  0.2108  0.1000
 4964TIP3    H114837   4.279   4.719  -0.045  0.4601 -0.7665  0.6086
 4964TIP3    H214838   4.293   4.845   0.036  0.1334 -0.0599 -0.4114
 4965TIP3   OH214839   8.001   4.984   1.697 -0.3830 -0.1497  0.5566
 4965TIP3    H114840   8.005   4.906   1.641 -1.8487 -0.5325  0.9374
 4965TIP3    H214841   8.034   5.055   1.641  0.1193 -0.8783 -0.0990
 4966TIP3   OH214842   6.129   7.419   1.413  0.0962  0.4655 -0.4450
 4966TIP3    H114843   6.069   7.468   1.357 -0.1112  0.9558  0.1957
 4966TIP3    H214844   6.078   7.400   1.492  0.2712 -0.5187 -0.5582
 4967TIP3   OH214845   7.464   0.762   4.057 -0.3723  0.0704  0.2901
 4967TIP3    H114846   7.400   0.822   4.019  0.1195  0.4493  0.0465
 4967TIP3    H214847   7.416   0.680   4.071 -1.6654  1.1598  2.7518
 4968TIP3   OH214848   1.173   2.535   2.134 -0.1987  0.3385  0.1419
 4968TIP3    H114849   1.087   2.521   2.094 -0.4849  2.3241 -0.0297
 4968TIP3    H214850   1.191   2.628   2.120  1.0207  0.4431  2.0706
 4969TIP3   OH214851   4.678   3.635   4.948 -0.4925 -0.4792  0.3386
 4969TIP3    H114852   4.696   3.582   4.871 -0.9297 -0.4380  0.2077
 4969TIP3    H214853   4.706   3.723   4.924  0.2292 -0.6428  0.5541
 4970TIP3   OH214854   2.031   4.155   6.177 -0.0843  0.2459  0.1193
 4970TIP3    H114855   1.982   4.119   6.103 -1.4003 -1.3568  1.6671
 4970TIP3    H214856   1.997   4.243   6.188 -0.1746  0.3475 -0.9267
 4971TIP3   OH214857   0.352   4.827   4.673  0.1242 -0.1862 -0.1930
 4971TIP3    H114858   0.405   4.833   4.752 -0.1256 -0.7887  0.0253
 4971TIP3    H214859   0.266   4.799   4.704 -0.5850  1.5774 -0.4382
 4972TIP3   OH214860   2.448   1.593   4.487 -0.0476 -0.2055 -0.3321
 4972TIP3    H114861   2.491   1.555   4.410 -0.9358 -2.0209 -0.0073
 4972TIP3    H214862   2.480   1.539   4.560 -0.2742  0.6155  0.3838
 4973TIP3   OH214863   8.222   1.689   0.994 -0.4768  0.1647 -0.3886
 4973TIP3    H114864   8.312   1.720   0.992  0.0872 -1.4534 -1.5615
 4973TIP3    H214865   8.225   1.608   1.045 -0.6406 -1.5638 -2.9666
 4974TIP3   OH214866   6.694   2.485   0.512 -0.5664 -0.2445 -0.2301
 4974TIP3    H114867   6.676   2.455   0.423 -2.6001  1.7705 -0.5841
 4974TIP3    H214868   6.655   2.418   0.568  0.1339 -1.1818 -0.8154
 4975TIP3   OH214869   3.807   3.978   2.583  0.5045  0.1820  1.0254
 4975TIP3    H114870   3.844   3.914   2.522 -0.1770  0.9828 -0.2552
 4975TIP3    H214871   3.881   4.033   2.608  1.1523 -1.2234  2.3399
 4976TIP3   OH214872   7.742   0.076   3.670 -0.3132 -0.6428  0.1115
 4976TIP3    H114873   7.678   0.145   3.687 -0.5865 -0.7688 -0.4038
 4976TIP3    H214874   7.715   0.037   3.587  1.0931  0.0664 -0.7211
 4977TIP3   OH214875   1.775   3.895   0.979 -0.0371 -0.3630 -0.2937
 4977TIP3    H114876   1.861   3.883   0.938  0.3268  1.4727 -0.1755
 4977TIP3    H214877   1.716   3.912   0.906  0.1425  0.5116 -0.2490
 4978TIP3   OH214878   1.382   6.848   0.211  0.2183  0.1769 -0.1821
 4978TIP3    H114879   1.390   6.761   0.172  0.2452  0.2370 -0.3099
 4978TIP3    H214880   1.467   6.863   0.253  0.1308  0.0418  0.0473
 4979TIP3   OH214881   2.020   3.493   3.307  0.9125  0.4176  0.2588
 4979TIP3    H114882   2.029   3.418   3.366 -3.6542  0.3089  1.2018
 4979TIP3    H214883   1.966   3.460   3.235  2.0856  1.8890 -1.3702
 4980TIP3   OH214884   7.681   6.528   5.041  0.2887  0.1636 -0.5197
 4980TIP3    H114885   7.771   6.495   5.048  0.2472  0.2192  0.3984
 4980TIP3    H214886   7.663   6.567   5.126 -1.2490 -1.4841 -0.0319
 4981TIP3   OH214887   5.471   1.525   1.590 -0.0620 -0.5758  0.6193
 4981TIP3    H114888   5.463   1.580   1.668  0.9751 -0.4444  0.6471
 4981TIP3    H214889   5.550   1.556   1.546 -1.7518  0.7850 -1.6489
 4982TIP3   OH214890   6.321   6.036   5.068  0.6756  0.1817 -0.2413
 4982TIP3    H114891   6.417   6.040   5.071  0.7894 -1.3171 -1.0484
 4982TIP3    H214892   6.296   6.013   5.158  1.2063 -1.1737 -0.4115
 4983TIP3   OH214893   6.313   7.771   1.480 -0.2262  0.5804 -0.3252
 4983TIP3    H114894   6.354   7.831   1.542 -1.4905  0.9844  0.1366
 4983TIP3    H214895   6.245   7.727   1.530 -0.1521 -0.3356 -0.9953
 4984TIP3   OH214896   1.962   6.793   5.619 -0.1092  0.7896 -1.0236
 4984TIP3    H114897   2.025   6.807   5.690  0.6065  2.9430 -1.9960
 4984TIP3    H214898   1.879   6.827   5.654  0.0687  1.1597 -0.9560
 4985TIP3   OH214899   5.226   6.363   5.248 -0.4143  0.1616  0.4230
 4985TIP3    H114900   5.272   6.281   5.229  1.0659  0.7196  1.4210
 4985TIP3    H214901   5.207   6.358   5.342 -0.6847  0.7813  0.4064
 4986TIP3   OH214902   7.212   4.627   2.372  0.1999  0.0471  0.5395
 4986TIP3    H114903   7.287   4.618   2.430  0.5747  1.7858  0.3745
 4986TIP3    H214904   7.144   4.572   2.412  1.4038 -1.2685  0.8795
 4987TIP3   OH214905   7.714   3.030   5.514  0.4094 -0.9160  0.3463
 4987TIP3    H114906   7.667   3.008   5.434  1.3242  0.6399 -0.6636
 4987TIP3    H214907   7.805   3.008   5.496  0.5845 -0.8315  1.0773
 4988TIP3   OH214908   5.823   2.007   0.437  0.9169  0.1455 -0.3341
 4988TIP3    H114909   5.883   2.027   0.365  0.3359  1.7332 -0.4006
 4988TIP3    H214910   5.853   2.062   0.509  1.5448 -1.4900  0.7087
 4989TIP3   OH214911   8.209   4.472   6.508 -0.2421 -0.0621 -0.3148
 4989TIP3    H114912   8.269   4.434   6.444  0.7432 -0.0801  0.6003
 4989TIP3    H214913   8.265   4.499   6.581 -1.5689 -2.2974  1.6787
 4990TIP3   OH214914   1.757   4.129   5.509  0.2057 -0.0505 -0.1515
 4990TIP3    H114915   1.749   4.135   5.414  0.1359 -0.4041 -0.1688
 4990TIP3    H214916   1.686   4.184   5.543 -1.0380 -1.5094 -0.3037
 4991TIP3   OH214917   3.795   2.684   4.987 -0.0651 -0.0287  0.2819
 4991TIP3    H114918   3.833   2.686   5.075 -1.5162  0.8248  0.9239
 4991TIP3    H214919   3.707   2.648   4.999 -1.0846  2.0438 -0.4400
 4992TIP3   OH214920   2.023   1.962   5.952  0.0830 -0.4251 -0.3192
 4992TIP3    H114921   2.060   1.877   5.931 -1.5965 -1.5565  1.0400
 4992TIP3    H214922   1.929   1.953   5.938 -0.2173  0.9936  0.4498
 4993TIP3   OH214923   6.479   6.587   0.944  0.4190 -0.1363 -0.6111
 4993TIP3    H114924   6.486   6.600   1.039 -0.9329 -0.7206 -0.3952
 4993TIP3    H214925   6.449   6.671   0.910  0.2846 -0.1079 -0.4230
 4994TIP3   OH214926   7.768   0.337   2.982  0.2599  0.2754  0.0517
 4994TIP3    H114927   7.763   0.242   2.982 -0.2708  0.2526 -2.3127
 4994TIP3    H214928   7.812   0.359   3.065  2.0133 -2.0899 -0.1655
 4995TIP3   OH214929   7.770   6.839   2.417 -0.3806 -0.0840  0.5226
 4995TIP3    H114930   7.723   6.791   2.349 -3.3605  0.0112  2.3212
 4995TIP3    H214931   7.783   6.927   2.380 -3.7667  0.6028  0.6335
 4996TIP3   OH214932   2.899   1.977   3.291 -0.3510  0.7086  0.3330
 4996TIP3    H114933   2.958   1.908   3.262  1.3512  0.8161  3.1781
 4996TIP3    H214934   2.890   2.035   3.216  0.7334 -0.9065 -1.1072
 4997TIP3   OH214935   3.789   2.951   4.101  0.3408 -0.4883 -0.6517
 4997TIP3    H114936   3.832   2.895   4.035  0.1511 -0.9123 -0.4204
 4997TIP3    H214937   3.859   2.970   4.164  0.8355  0.8852 -1.5678
 4998TIP3   OH214938   4.618   6.733   3.977  0.2745  0.0672  0.5769
 4998TIP3    H114939   4.575   6.703   3.897  2.7011  0.3521 -0.9533
 4998TIP3    H214940   4.569   6.810   4.004 -1.5721 -0.9658  0.3381
 4999TIP3   OH214941   1.187   7.033   3.086  0.4935  0.2504 -0.0181
 4999TIP3    H114942   1.196   7.052   3.180  3.2725  0.1925 -0.2139
 4999TIP3    H214943   1.171   6.939   3.083  0.7139  0.1960  0.3820
 5000TIP3   OH214944   3.630   1.865   1.826 -0.2870 -0.6026  0.3348
 5000TIP3    H114945   3.700   1.930   1.820 -0.2979 -0.6251 -0.0602
 5000TIP3    H214946   3.673   1.782   1.806 -0.5661 -0.5235 -0.6450
 5001TIP3   OH214947   7.039   1.534   0.672  0.1958  0.4631  0.0919
 5001TIP3    H114948   7.043   1.463   0.735 -2.6404  1.6376  1.7572
 5001TIP3    H214949   7.016   1.492   0.589 -1.4499 -0.5883  1.0526
 5002TIP3   OH214950   0.944   5.221   4.871 -0.2882  0.4580  0.0556
 5002TIP3    H114951   0.978   5.155   4.931 -0.0074  0.0259 -0.5677
 5002TIP3    H214952   1.010   5.290   4.870 -0.1261  0.3034 -0.0168
 5003TIP3   OH214953   2.146   3.876   4.042 -0.2071  0.1728  0.1112
 5003TIP3    H114954   2.086   3.801   4.042  0.1713 -0.1679 -1.8683
 5003TIP3    H214955   2.233   3.837   4.040  0.0012  0.6603 -0.4192
 5004TIP3   OH214956   5.053   6.136   1.307 -0.6307  1.0069 -0.4615
 5004TIP3    H114957   5.117   6.196   1.268  1.1315  0.0466  0.8205
 5004TIP3    H214958   5.037   6.071   1.238 -1.1565  1.9119 -1.2112
 5005TIP3   OH214959   1.170   6.464   5.504  0.5857  0.1620  0.6771
 5005TIP3    H114960   1.264   6.454   5.511  0.7780  0.1860 -1.3471
 5005TIP3    H214961   1.135   6.375   5.507  1.0146 -0.1821 -1.9373
 5006TIP3   OH214962   4.503   0.749   6.327 -0.0627 -0.3576 -0.3607
 5006TIP3    H114963   4.573   0.769   6.388 -0.9775  1.4567  0.1665
 5006TIP3    H214964   4.433   0.711   6.381 -0.0638 -0.7349 -0.6248
 5007TIP3   OH214965   6.635   4.317   3.413 -0.2185 -0.0181 -0.3433
 5007TIP3    H114966   6.721   4.318   3.372 -0.6402 -0.0097 -1.2336
 5007TIP3    H214967   6.574   4.304   3.341 -1.0452  1.0082  0.1556
 5008TIP3   OH214968   7.846   6.914   4.490  0.0703  0.0077 -0.4798
 5008TIP3    H114969   7.915   6.852   4.467  1.8852  1.8300 -0.2564
 5008TIP3    H214970   7.883   7.000   4.471 -1.7118  1.1456  0.7852
 5009TIP3   OH214971   7.460   4.753   4.141 -0.4101  0.3551  0.2741
 5009TIP3    H114972   7.413   4.761   4.224  2.1604 -0.6331  1.9394
 5009TIP3    H214973   7.391   4.749   4.075 -2.5492  2.0928  2.2199
 5010TIP3   OH214974   4.221   5.720   1.929  0.4162  0.0812 -0.8265
 5010TIP3    H114975   4.285   5.735   1.859  2.6160 -1.7402  0.6512
 5010TIP3    H214976   4.223   5.800   1.981  2.0637 -0.1994 -0.4161
 5011TIP3   OH214977   6.674   1.014   5.691  0.2209  0.6106 -0.1541
 5011TIP3    H114978   6.716   1.018   5.605  0.9795 -0.8232  0.1140
 5011TIP3    H214979   6.709   0.935   5.731  0.4992  1.6615  1.8166
 5012TIP3   OH214980   0.613   1.119   4.225 -0.4623 -0.1112 -0.4683
 5012TIP3    H114981   0.650   1.169   4.152 -1.2804  0.5135 -0.4644
 5012TIP3    H214982   0.689   1.100   4.281 -0.0886  0.9074 -0.5997
 5013TIP3   OH214983   4.546   1.085   4.484 -0.0032 -0.7465 -0.6821
 5013TIP3    H114984   4.629   1.122   4.455 -0.2039  0.2153 -0.0811
 5013TIP3    H214985   4.516   1.144   4.554 -1.4599 -0.7512 -1.2661
 5014TIP3   OH214986   1.272   5.651   4.495 -0.5110  0.3911  0.2879
 5014TIP3    H114987   1.341   5.685   4.552  0.6624 -2.1456  0.4826
 5014TIP3    H214988   1.259   5.561   4.524 -1.5240 -0.2461 -1.9839
 5015TIP3   OH214989   4.187   2.144   4.491 -0.0863 -0.1014 -0.0774
 5015TIP3    H114990   4.261   2.101   4.534  1.0104 -0.4813 -2.2301
 5015TIP3    H214991   4.217   2.233   4.475 -0.3112 -0.0928 -0.4555
 5016TIP3   OH214992   7.746   0.884   1.344 -0.4934  0.0600 -0.5576
 5016TIP3    H114993   7.765   0.960   1.399  1.8919 -1.1950  0.5146
 5016TIP3    H214994   7.719   0.816   1.405  0.0580 -0.7183 -1.1472
 5017TIP3   OH214995   0.552   2.668   4.318 -0.8137  0.1190  0.2777
 5017TIP3    H114996   0.615   2.732   4.351 -0.8763  0.7470 -0.7901
 5017TIP3    H214997   0.548   2.601   4.387  3.3293 -1.5985 -0.8458
 5018TIP3   OH214998   6.512   4.452   2.987  0.0693 -0.1780  0.2195
 5018TIP3    H114999   6.563   4.533   2.985  2.5953 -1.6262  1.4471
 5018TIP3    H215000   6.512   4.420   2.897 -1.3580  1.3297 -0.3773
 5019TIP3   OH215001   1.648   0.200   5.842  0.4923  0.2860  0.4212
 5019TIP3    H115002   1.619   0.155   5.763  0.0157 -0.8326  1.2039
 5019TIP3    H215003   1.598   0.281   5.843 -0.6663 -0.3982  0.3681
 5020TIP3   OH215004   5.452   1.731   6.620  0.4121 -0.2847 -0.2296
 5020TIP3    H115005   5.497   1.647   6.633  0.0113 -0.5608 -0.5936
 5020TIP3    H215006   5.509   1.779   6.560  0.0461 -0.7829 -0.9879
 5021TIP3   OH215007   5.842   5.685   6.054  0.1402 -0.0703  0.1536
 5021TIP3    H115008   5.895   5.668   5.976  2.2324 -0.0114  1.4768
 5021TIP3    H215009   5.755   5.706   6.020  1.0113  0.1178 -2.1540
 5022TIP3   OH215010   6.277   4.797   0.472 -0.0929 -0.5584 -0.0655
 5022TIP3    H115011   6.330   4.864   0.429  0.0031 -0.2775  0.4884
 5022TIP3    H215012   6.234   4.751   0.399  0.2604 -0.2529 -0.4752
 5023TIP3   OH215013   2.051   6.304   2.636 -0.0635 -0.8956  0.9304
 5023TIP3    H115014   1.977   6.362   2.618 -1.1477 -2.7873 -1.2221
 5023TIP3    H215015   2.126   6.363   2.644 -1.1301  0.8518 -0.9629
 5024TIP3   OH215016   3.878   4.081   0.319 -0.3875  0.5202 -0.3298
 5024TIP3    H115017   3.794   4.052   0.283 -1.7478  1.9253  1.5494
 5024TIP3    H215018   3.916   4.136   0.250 -0.9631 -0.1712 -1.2212
 5025TIP3   OH215019   2.471   7.541   0.024 -0.0051  0.2266 -0.1417
 5025TIP3    H115020   2.474   7.446   0.016 -1.4044  0.2158 -0.7278
 5025TIP3    H215021   2.382   7.561   0.054 -0.1287  1.4131 -1.1920
 5026TIP3   OH215022   7.095   0.048   5.782 -0.5166  0.1922  0.1395
 5026TIP3    H115023   7.162  -0.019   5.777 -1.9921 -1.2935 -0.5975
 5026TIP3    H215024   7.094   0.074   5.875 -1.0352 -2.0200  0.7944
 5027TIP3   OH215025   6.179   0.507   1.113  0.3985 -0.0653  0.1987
 5027TIP3    H115026   6.271   0.481   1.110  0.5711  0.5989 -0.7353
 5027TIP3    H215027   6.132   0.434   1.071  0.3296 -0.9725  1.7640
 5028TIP3   OH215028   2.911   3.112   3.329 -0.0487  0.2316  0.2037
 5028TIP3    H115029   2.830   3.106   3.379 -1.1400  0.3117 -1.4616
 5028TIP3    H215030   2.948   3.023   3.334 -0.6799 -0.0340  0.3050
 5029TIP3   OH215031   5.160   1.313   1.182  0.0706 -0.4957 -0.9144
 5029TIP3    H115032   5.218   1.269   1.120 -1.3318 -1.9549 -1.2562
 5029TIP3    H215033   5.105   1.370   1.128 -0.2338 -0.7385 -0.8667
 5030TIP3   OH215034   6.210   4.531   1.093 -0.1969  0.3273  0.4252
 5030TIP3    H115035   6.250   4.510   1.008  0.2535  1.0157  0.4609
 5030TIP3    H215036   6.233   4.458   1.150 -3.0320 -1.7400 -0.8012
 5031TIP3   OH215037   6.265   4.530   6.422 -0.2339 -0.0662 -0.8545
 5031TIP3    H115038   6.184   4.534   6.371  0.2371  2.6360 -1.5674
 5031TIP3    H215039   6.335   4.530   6.356  0.4090 -1.9745 -0.2400
 5032TIP3   OH215040   2.155   4.915   5.033  0.6444  0.4660  0.0097
 5032TIP3    H115041   2.196   4.842   5.079 -0.7266 -0.5643 -0.3318
 5032TIP3    H215042   2.211   4.990   5.053  1.1591 -0.3202  1.7598
 5033TIP3   OH215043   2.064   3.698   4.333  0.2678  0.0778 -0.0841
 5033TIP3    H115044   2.152   3.711   4.369  1.1614 -1.4368 -1.5539
 5033TIP3    H215045   2.018   3.646   4.400  0.0107  1.9294  1.2550
 5034TIP3   OH215046   5.841   2.162   5.657 -0.0061  0.4069 -0.1065
 5034TIP3    H115047   5.827   2.115   5.575 -0.1150  0.9539 -0.4136
 5034TIP3    H215048   5.780   2.122   5.719 -0.4911  0.5071 -0.5098
 5035TIP3   OH215049   4.103   6.593   1.393  0.0292  0.6029 -0.1647
 5035TIP3    H115050   4.174   6.655   1.408 -1.1968  1.7278  1.4493
 5035TIP3    H215051   4.140   6.508   1.415  0.8833  1.1820  0.7060
 5036TIP3   OH215052   8.002   6.398   1.907 -0.3192 -0.0217 -0.2779
 5036TIP3    H115053   8.080   6.413   1.959  0.1072  0.1580 -0.9581
 5036TIP3    H215054   8.018   6.446   1.826 -2.3489  2.5188  0.6752
 5037TIP3   OH215055   4.836   7.392   0.180  0.4349  0.0288  0.1246
 5037TIP3    H115056   4.827   7.358   0.091  1.3534 -0.8350  0.3502
 5037TIP3    H215057   4.914   7.448   0.176  1.0965 -0.8291  0.6086
 5038TIP3   OH215058   7.701   6.113   3.194 -0.6664  0.2748  0.4702
 5038TIP3    H115059   7.726   6.025   3.168  0.1887  0.3782  0.8990
 5038TIP3    H215060   7.612   6.104   3.228  0.3887 -0.9912  3.2203
 5039TIP3   OH215061   3.822   2.559   2.618  0.4209  0.1916 -0.1991
 5039TIP3    H115062   3.878   2.489   2.585 -0.7704 -0.4587 -0.9210
 5039TIP3    H215063   3.828   2.627   2.551 -1.9251 -1.0918 -1.8462
 5040TIP3   OH215064   5.161   7.225   3.150 -0.0792  0.4021  0.6353
 5040TIP3    H115065   5.163   7.130   3.136 -0.5737  0.2146  1.7608
 5040TIP3    H215066   5.178   7.262   3.063 -1.1987 -0.7095 -0.1013
 5041TIP3   OH215067   0.983   6.594   2.198 -0.1502 -0.0685  0.2574
 5041TIP3    H115068   1.014   6.684   2.189  1.5834 -0.5501  1.0023
 5041TIP3    H215069   0.907   6.600   2.255 -0.0378  0.9298  0.3114
 5042TIP3   OH215070   7.837   5.262   5.147 -0.4066 -0.2527  0.1576
 5042TIP3    H115071   7.870   5.339   5.101 -0.2055 -0.0922  0.5651
 5042TIP3    H215072   7.828   5.195   5.079 -0.3333  0.0512 -0.1526
 5043TIP3   OH215073   4.178   1.809   1.777 -0.1527 -0.5143 -0.2512
 5043TIP3    H115074   4.163   1.718   1.804 -0.8811 -0.4605 -0.4471
 5043TIP3    H215075   4.111   1.859   1.823 -0.7633 -0.2922 -1.3251
 5044TIP3   OH215076   2.177   3.275   3.006 -0.3785 -0.1765  0.5137
 5044TIP3    H115077   2.166   3.370   3.008 -1.8598 -0.3016 -0.4179
 5044TIP3    H215078   2.270   3.261   3.025  0.0777  1.4930 -0.3344
 5045TIP3   OH215079   6.105   0.624   6.753 -0.4062  0.2287 -0.0098
 5045TIP3    H115080   6.043   0.692   6.778  0.4744  1.8753 -2.0642
 5045TIP3    H215081   6.050   0.548   6.734 -1.8623  1.5900 -1.6074
 5046TIP3   OH215082   7.509   5.784   6.125 -0.7513  0.0779  0.1634
 5046TIP3    H115083   7.545   5.843   6.058  0.0009 -0.9643 -0.3741
 5046TIP3    H215084   7.453   5.724   6.075  0.0690 -0.9090  0.4117
 5047TIP3   OH215085   0.043   5.482   5.959  0.0335 -0.2075  0.3209
 5047TIP3    H115086  -0.029   5.441   5.910  0.6931  0.6775 -1.4835
 5047TIP3    H215087   0.009   5.568   5.982 -0.1178 -0.4653  1.1077
 5048TIP3   OH215088   3.602   0.741   6.555 -0.3913 -0.2098  0.4241
 5048TIP3    H115089   3.582   0.827   6.592  0.4101 -0.4572  1.4829
 5048TIP3    H215090   3.531   0.685   6.585 -0.8815  0.0538 -0.2151
 5049TIP3   OH215091   4.732   5.578   1.694 -0.2017 -0.6582  0.2018
 5049TIP3    H115092   4.658   5.520   1.708  0.8084 -1.9985  0.2672
 5049TIP3    H215093   4.788   5.531   1.631  0.0234  0.8506 -0.7775
 5050TIP3   OH215094   0.776   1.593   6.272 -0.5925  0.3391  0.0366
 5050TIP3    H115095   0.709   1.639   6.221  0.1251 -0.4207 -1.6672
 5050TIP3    H215096   0.789   1.648   6.349 -3.4497  0.3203  0.6467
 5051TIP3   OH215097   1.944   7.152   5.215 -0.2635 -0.2482 -0.2093
 5051TIP3    H115098   2.002   7.108   5.153 -2.0551 -1.1902 -1.2798
 5051TIP3    H215099   1.859   7.111   5.202 -0.8075 -0.2649  2.6763
 5052TIP3   OH215100   8.121   1.571   6.734  0.1385 -0.1023 -0.0472
 5052TIP3    H115101   8.195   1.624   6.764  1.4131 -1.0293 -1.3513
 5052TIP3    H215102   8.141   1.554   6.642 -0.9656 -1.5934 -0.0400
 5053TIP3   OH215103   5.395   3.952   0.274 -0.5029 -0.1294  0.3209
 5053TIP3    H115104   5.314   3.983   0.314 -0.0212  1.0373  0.4482
 5053TIP3    H215105   5.458   3.950   0.346 -0.0486  0.4183 -0.0490
 5054TIP3   OH215106   0.665   4.782   5.176 -0.3390 -0.1637 -0.1177
 5054TIP3    H115107   0.721   4.704   5.168  0.1691  0.1582  0.2867
 5054TIP3    H215108   0.725   4.856   5.164 -0.8131  0.1729 -0.4581
 5055TIP3   OH215109   0.891   0.399   5.195  0.2453 -0.4840  0.1057
 5055TIP3    H115110   0.978   0.406   5.235  0.3935 -2.2428  0.1505
 5055TIP3    H215111   0.838   0.466   5.240  1.1180 -0.5594  1.2909
 5056TIP3   OH215112   4.809   6.775   3.640 -0.0510 -0.0644 -0.2885
 5056TIP3    H115113   4.809   6.688   3.680  0.2325 -1.4009 -2.9796
 5056TIP3    H215114   4.722   6.785   3.602  0.2627  0.3572 -0.9260
 5057TIP3   OH215115   7.182   5.822   2.468  0.1534  0.9921 -0.2622
 5057TIP3    H115116   7.129   5.819   2.389  0.0581  1.6545 -0.2293
 5057TIP3    H215117   7.129   5.870   2.531  0.6827  1.4477 -0.1547
 5058TIP3   OH215118   3.633   0.753   2.631  0.4318 -0.0411  0.2300
 5058TIP3    H115119   3.615   0.660   2.640  0.3081  0.0665  1.1667
 5058TIP3    H215120   3.638   0.786   2.720 -2.0076  1.3338 -0.0632
 5059TIP3   OH215121   4.049   7.532   1.421 -0.2212  0.2838  0.8396
 5059TIP3    H115122   4.026   7.476   1.347  2.5667  0.2548 -0.1212
 5059TIP3    H215123   4.045   7.621   1.385 -0.1341  0.3665  1.0341
 5060TIP3   OH215124   4.334   6.444   5.899  0.3969 -0.3221  0.3729
 5060TIP3    H115125   4.297   6.532   5.900 -0.3304 -0.6004  1.9426
 5060TIP3    H215126   4.271   6.391   5.851  0.5979 -0.0928 -0.1525
 5061TIP3   OH215127   1.037   5.130   2.598  0.3058 -0.3688  0.6113
 5061TIP3    H115128   1.061   5.055   2.544 -0.7368 -0.2064 -0.1116
 5061TIP3    H215129   0.945   5.116   2.620  0.5698 -0.1825  1.9680
 5062TIP3   OH215130   2.020   1.898   6.258 -0.0413 -0.3624  0.0481
 5062TIP3    H115131   2.112   1.895   6.231 -0.6542 -0.9886 -2.1524
 5062TIP3    H215132   1.981   1.964   6.200 -1.7615 -2.8929 -1.8617
 5063TIP3   OH215133   2.840   5.739   1.114 -0.3353 -0.5700 -0.1519
 5063TIP3    H115134   2.886   5.655   1.120 -0.1876 -0.4159  1.1620
 5063TIP3    H215135   2.815   5.746   1.022  0.7287 -1.4731 -0.5261
 5064TIP3   OH215136   1.451   6.576   0.044  0.1821  0.0215 -0.4659
 5064TIP3    H115137   1.388   6.508   0.065  0.8067  0.1656  2.2923
 5064TIP3    H215138   1.528   6.529   0.013  0.8806 -0.6797  2.1358
 5065TIP3   OH215139   2.258   2.194   5.973 -0.0737 -0.1478  0.2868
 5065TIP3    H115140   2.235   2.238   5.891  1.0117 -1.2324 -0.6519
 5065TIP3    H215141   2.353   2.191   5.972 -0.0793 -2.6144  0.1783
 5066TIP3   OH215142   8.208   2.553   0.098  0.5482  0.2566  0.0064
 5066TIP3    H115143   8.137   2.504   0.055 -0.3961 -0.3380  2.0956
 5066TIP3    H215144   8.286   2.500   0.083  0.1355 -0.2322 -0.4803
 5067TIP3   OH215145   2.761   6.065   6.696 -0.2953  0.2639  0.4418
 5067TIP3    H115146   2.742   5.973   6.682  1.6279  0.1113 -1.8730
 5067TIP3    H215147   2.746   6.106   6.611  0.3263  1.8046  1.0318
 5068TIP3   OH215148   2.192   0.177   6.481  0.5016 -0.0815  0.0207
 5068TIP3    H115149   2.109   0.144   6.447 -0.4106  1.2791  0.8195
 5068TIP3    H215150   2.173   0.267   6.508  2.3602  0.4277 -0.1904
 5069TIP3   OH215151   0.127   5.380   0.545  0.5912  0.2967  0.6280
 5069TIP3    H115152   0.053   5.406   0.490 -0.0095  0.6916  1.5958
 5069TIP3    H215153   0.152   5.294   0.511  1.7858  1.4956 -1.7827
 5070TIP3   OH215154   5.520   4.396   6.148 -0.7129 -0.3008 -0.5079
 5070TIP3    H115155   5.475   4.355   6.221  0.8822  0.9434  1.2687
 5070TIP3    H215156   5.606   4.353   6.145  0.5448  1.9576  0.6431
 5071TIP3   OH215157   7.843   5.603   5.706  0.5506  0.3503 -0.6940
 5071TIP3    H115158   7.858   5.629   5.615  0.6503  0.9879 -0.5021
 5071TIP3    H215159   7.750   5.621   5.721  0.8178  1.4735 -0.2938
 5072TIP3   OH215160   3.103   7.107   4.365 -0.2214 -0.3734 -0.1672
 5072TIP3    H115161   3.070   7.103   4.455  0.5451 -1.7708  0.0926
 5072TIP3    H215162   3.196   7.083   4.373  0.0989  0.4622 -1.2248
 5073TIP3   OH215163   3.253   4.173   2.397  0.2757 -0.1358 -0.0475
 5073TIP3    H115164   3.289   4.084   2.398 -0.6058 -0.5059  0.4209
 5073TIP3    H215165   3.241   4.193   2.304 -0.2948 -0.8444 -0.1400
 5074TIP3   OH215166   1.573   2.915   0.670  0.3092  0.0798  0.3176
 5074TIP3    H115167   1.511   2.983   0.645 -0.0305 -0.7878 -1.3556
 5074TIP3    H215168   1.566   2.849   0.601  0.4689 -1.7681  1.9722
 5075TIP3   OH215169   8.037   4.611   4.594 -0.0020  0.0273  0.7149
 5075TIP3    H115170   8.019   4.672   4.522  0.8785 -0.2491  0.2384
 5075TIP3    H215171   8.104   4.655   4.645  2.4556 -1.4861 -0.9831
 5076TIP3   OH215172   3.775   2.716   2.384 -0.2256 -0.5999 -0.0965
 5076TIP3    H115173   3.814   2.637   2.345  0.1401 -0.3749 -0.1894
 5076TIP3    H215174   3.732   2.760   2.310 -0.7726 -0.9113  0.0287
 5077TIP3   OH215175   3.748   2.863   4.461  0.8060 -0.0837  0.1314
 5077TIP3    H115176   3.762   2.958   4.464  2.8891 -0.3418 -0.3634
 5077TIP3    H215177   3.834   2.825   4.475 -0.0151 -1.9398  0.5065
 5078TIP3   OH215178   5.100   5.812   5.753 -0.2294 -0.2809 -0.3292
 5078TIP3    H115179   5.019   5.842   5.794  0.3870 -0.3534  0.9939
 5078TIP3    H215180   5.072   5.745   5.691 -1.3150  0.7889 -1.0288
 5079TIP3   OH215181   0.436   0.993   5.056  0.1068 -0.6030  0.0875
 5079TIP3    H115182   0.521   1.006   5.015 -1.0460  0.2304 -2.2295
 5079TIP3    H215183   0.446   0.914   5.109  2.0456 -1.0437 -0.8630
 5080TIP3   OH215184   6.650   0.483   4.689  0.5395 -0.1693  0.0425
 5080TIP3    H115185   6.610   0.418   4.747  1.2138  1.0036  1.9513
 5080TIP3    H215186   6.658   0.439   4.605 -3.1953 -1.0210 -0.0372
 5081TIP3   OH215187   3.720   3.273   4.826 -0.2288  0.7134  0.3232
 5081TIP3    H115188   3.702   3.342   4.890  1.3372  1.1462  0.3233
 5081TIP3    H215189   3.646   3.278   4.765 -1.3359  0.8131  1.6221
 5082TIP3   OH215190   3.748   0.194   0.537  0.0902 -0.4151 -0.4931
 5082TIP3    H115191   3.814   0.209   0.469  1.1696  1.8545  0.9455
 5082TIP3    H215192   3.676   0.253   0.514 -1.2247 -2.3417 -1.6360
 5083TIP3   OH215193   6.549   0.119   3.643  0.4148 -0.3497 -0.7314
 5083TIP3    H115194   6.519   0.072   3.565  0.3529 -1.9542  0.2050
 5083TIP3    H215195   6.553   0.052   3.711 -1.3432  1.2929  1.1642
 5084TIP3   OH215196   6.111   2.117   5.412 -0.3275 -0.2103  0.3429
 5084TIP3    H115197   6.145   2.199   5.449 -0.8749 -0.2574  0.9653
 5084TIP3    H215198   6.113   2.055   5.485 -0.8556 -0.4764  0.1352
 5085TIP3   OH215199   0.384   4.016   4.749 -0.2999 -0.5240  0.2246
 5085TIP3    H115200   0.311   4.068   4.783 -1.2671 -1.7104  0.0034
 5085TIP3    H215201   0.419   3.971   4.826  0.1873  0.0088  0.3228
 5086TIP3   OH215202   2.358   3.878   3.190  0.0726 -0.0329  0.1144
 5086TIP3    H115203   2.304   3.894   3.267  1.5132 -1.1152  1.4147
 5086TIP3    H215204   2.326   3.795   3.155  1.7884 -1.5011  1.8067
 5087TIP3   OH215205   1.454   0.982   0.943  0.8347 -0.0367  0.4249
 5087TIP3    H115206   1.359   0.992   0.945  0.4993 -2.1530 -1.0760
 5087TIP3    H215207   1.481   0.981   1.035 -0.6326  0.1604  0.8724
 5088TIP3   OH215208   8.119   3.323   1.763  0.7022 -0.1883  0.1411
 5088TIP3    H115209   8.186   3.268   1.723 -0.4492 -1.0218 -0.7180
 5088TIP3    H215210   8.140   3.412   1.735  1.3866 -0.4538 -0.2039
 5089TIP3   OH215211   3.594   2.163   4.374 -0.2498 -0.5562  0.0333
 5089TIP3    H115212   3.526   2.136   4.312 -1.9634 -0.6244  1.8361
 5089TIP3    H215213   3.546   2.188   4.453  1.7605  0.7555  0.9230
 5090TIP3   OH215214   5.747   4.857   6.764  0.0613 -0.4823 -0.0061
 5090TIP3    H115215   5.652   4.843   6.757  0.1443 -0.6658 -1.0168
 5090TIP3    H215216   5.782   4.770   6.785  0.0413 -0.5234 -0.1371
 5091TIP3   OH215217   6.340   1.847   2.615  0.3093 -0.2800 -0.9176
 5091TIP3    H115218   6.297   1.918   2.662  0.4317 -1.0744  0.4516
 5091TIP3    H215219   6.398   1.891   2.552 -1.3115  0.8034 -1.7280
 5092TIP3   OH215220   6.558   7.094   1.629  0.1194 -0.2464  0.1442
 5092TIP3    H115221   6.554   7.145   1.548  0.0446 -0.1407  0.2141
 5092TIP3    H215222   6.569   7.004   1.600 -0.8463 -0.3277 -0.0044
 5093TIP3   OH215223   2.621   1.428   4.639  0.1381 -1.1070  0.4813
 5093TIP3    H115224   2.573   1.373   4.700  0.3081 -1.1462  0.5817
 5093TIP3    H215225   2.709   1.434   4.677 -0.6285  1.7500  2.1402
 5094TIP3   OH215226   0.673   2.270   0.948  0.7531 -0.0368 -0.0993
 5094TIP3    H115227   0.675   2.360   0.917 -1.4089  0.7211  1.6946
 5094TIP3    H215228   0.765   2.243   0.949  1.4011  1.9667 -1.1186
 5095TIP3   OH215229   7.057   5.466   3.815  0.2510  0.3853  0.2035
 5095TIP3    H115230   7.127   5.404   3.834  0.8626  1.0023  0.0281
 5095TIP3    H215231   7.000   5.421   3.752 -0.4392 -0.7502  1.5844
 5096TIP3   OH215232   7.726   4.704   5.792  0.1901  0.9361  0.0798
 5096TIP3    H115233   7.674   4.780   5.818  0.0711  0.2172  2.0712
 5096TIP3    H215234   7.675   4.629   5.821 -0.5269 -0.0702 -3.3492
 5097TIP3   OH215235   0.983   6.136   3.855 -0.2771 -0.1662  0.1868
 5097TIP3    H115236   0.949   6.060   3.808  0.3542  0.2179 -0.9016
 5097TIP3    H215237   1.067   6.155   3.815  0.0085  0.5489  1.0726
 5098TIP3   OH215238   6.255   0.016   6.600 -0.0423 -0.0463  0.1446
 5098TIP3    H115239   6.238  -0.061   6.653  0.1856 -0.9028 -0.9740
 5098TIP3    H215240   6.175   0.068   6.607 -1.1285 -1.4985 -0.8851
 5099TIP3   OH215241   6.483   5.226   3.401 -0.1773 -0.1127 -0.5936
 5099TIP3    H115242   6.507   5.184   3.319 -0.3832  1.7178 -1.6516
 5099TIP3    H215243   6.480   5.155   3.465  0.3919 -1.5217 -2.0712
 5100TIP3   OH215244   4.823   1.688   0.978 -0.2733 -0.2698 -0.3066
 5100TIP3    H115245   4.811   1.678   0.883 -0.4793  0.5307 -0.3719
 5100TIP3    H215246   4.823   1.782   0.992 -0.6667 -0.3902  0.5516
 5101TIP3   OH215247   7.921   5.871   1.204  0.5178  0.2952 -0.8169
 5101TIP3    H115248   7.926   5.918   1.121 -0.2484 -0.8494 -1.5348
 5101TIP3    H215249   7.839   5.902   1.244  0.6389  0.4787 -0.7065
 5102TIP3   OH215250   6.375   7.200   6.785  0.0652  0.1830 -0.1741
 5102TIP3    H115251   6.397   7.109   6.764 -3.2584 -1.0683  1.1011
 5102TIP3    H215252   6.403   7.249   6.708 -0.7370 -2.3737 -2.2682
 5103TIP3   OH215253   8.099   5.808   3.732 -0.5698  0.0682  0.7469
 5103TIP3    H115254   8.101   5.903   3.738 -0.8432  0.1038  0.3367
 5103TIP3    H215255   8.190   5.783   3.715 -0.6678  0.3512 -0.2916
 5104TIP3   OH215256   4.537   3.476   5.958  0.1183  0.4413  0.3300
 5104TIP3    H115257   4.569   3.494   5.869 -0.7790  2.4753  0.3885
 5104TIP3    H215258   4.504   3.386   5.953 -0.0621  0.5664 -1.4359
 5105TIP3   OH215259   7.975   4.821   4.426 -0.0045 -0.0516 -0.3944
 5105TIP3    H115260   7.887   4.853   4.406 -0.0260 -0.6956 -1.4297
 5105TIP3    H215261   8.014   4.803   4.340  1.0059 -0.1263  0.0665
 5106TIP3   OH215262   6.993   5.204   1.211 -0.2612 -0.7813 -0.4236
 5106TIP3    H115263   6.993   5.295   1.240  0.4167 -1.3549  1.5409
 5106TIP3    H215264   6.903   5.187   1.185 -0.7823 -0.0107  0.7863
 5107TIP3   OH215265   5.881   4.523   0.394 -0.5384  0.0500 -0.0025
 5107TIP3    H115266   5.787   4.537   0.395 -0.5169  0.1836  0.8347
 5107TIP3    H215267   5.915   4.582   0.461  0.1315 -0.0473 -0.2465
 5108TIP3   OH215268   6.510   4.295   6.738  0.0054  0.1396  0.0036
 5108TIP3    H115269   6.484   4.208   6.709 -0.0807  0.4707 -0.9672
 5108TIP3    H215270   6.549   4.335   6.660 -0.0894  1.0194  0.3973
 5109TIP3   OH215271   5.917   6.702   5.855  0.1025  0.3823  0.0456
 5109TIP3    H115272   5.901   6.771   5.919  2.0986 -0.3723  1.4543
 5109TIP3    H215273   5.871   6.626   5.890 -0.5270  0.4910 -0.5249
 5110TIP3   OH215274   3.797   7.102   4.077 -0.0543 -0.3023  0.4770
 5110TIP3    H115275   3.761   7.035   4.020 -3.0799  1.0629  0.6200
 5110TIP3    H215276   3.773   7.185   4.035  0.5379  0.7190  2.0661
 5111TIP3   OH215277   5.431   5.959   0.215  0.9769 -0.1608 -0.0289
 5111TIP3    H115278   5.519   5.989   0.190  1.4881  0.0491  1.9065
 5111TIP3    H215279   5.430   5.964   0.310 -1.0375 -0.4948  0.0026
 5112TIP3   OH215280   6.587   7.536   1.374  0.0214  0.2436  0.2050
 5112TIP3    H115281   6.575   7.510   1.466  0.1779  0.3749  0.2622
 5112TIP3    H215282   6.602   7.631   1.378  0.5264  0.1695  0.0856
 5113TIP3   OH215283   2.381   2.078   0.064 -0.1830  0.2517  0.0896
 5113TIP3    H115284   2.430   2.041  -0.010 -0.7573  0.8931 -0.6267
 5113TIP3    H215285   2.353   2.001   0.114  0.1968 -0.1981 -0.3731
 5114TIP3   OH215286   3.339   6.688   3.350 -0.3846  0.2865  0.4462
 5114TIP3    H115287   3.412   6.677   3.288 -1.4537  0.8385 -0.9719
 5114TIP3    H215288   3.268   6.636   3.312 -1.4424  1.6069  0.5417
 5115TIP3   OH215289   6.677   5.426   3.908 -0.7428  0.2621  0.3310
 5115TIP3    H115290   6.649   5.340   3.875 -0.5351  0.8671 -1.5450
 5115TIP3    H215291   6.770   5.415   3.928 -0.8391 -0.0831  0.5960
 5116TIP3   OH215292   8.021   1.844   4.143 -0.3750  0.1966 -0.1231
 5116TIP3    H115293   8.081   1.823   4.215 -0.9495  2.2776  1.0396
 5116TIP3    H215294   8.076   1.844   4.065  0.9024  0.8518  0.7446
 5117TIP3   OH215295   0.785   6.262   4.728  0.3707  0.1171  0.4740
 5117TIP3    H115296   0.827   6.178   4.746 -0.0785 -0.2277 -0.0430
 5117TIP3    H215297   0.692   6.240   4.718  0.3633  0.5465 -0.4912
 5118TIP3   OH215298   6.169   3.791   5.544 -0.1808  0.1794 -0.4055
 5118TIP3    H115299   6.260   3.809   5.569 -0.2407 -0.4021  0.2360
 5118TIP3    H215300   6.119   3.861   5.586  0.2286  2.4812 -3.3163
 5119TIP3   OH215301   5.384   5.436   5.528  0.2322  0.2491  0.3948
 5119TIP3    H115302   5.478   5.449   5.518 -0.0882  1.8441 -0.9843
 5119TIP3    H215303   5.350   5.519   5.561 -0.8933  0.3172 -0.8265
 5120TIP3   OH215304   5.394   5.888   6.226  0.4622 -0.4730  0.4342
 5120TIP3    H115305   5.411   5.794   6.223 -0.1094 -0.5565 -0.5068
 5120TIP3    H215306   5.451   5.925   6.159 -1.9008 -0.6019 -1.7932
 5121TIP3   OH215307   4.935   6.741   1.007 -0.4019 -0.0532  0.2572
 5121TIP3    H115308   4.861   6.781   0.960 -0.4218 -1.9136 -1.4542
 5121TIP3    H215309   5.010   6.794   0.982 -0.4106 -1.0100 -2.0151
 5122TIP3   OH215310   3.295   3.726   4.748  0.6786 -0.2164 -0.3017
 5122TIP3    H115311   3.268   3.804   4.796  1.8720  1.0607 -1.6251
 5122TIP3    H215312   3.353   3.680   4.809  0.7040  0.4135  0.1614
 5123TIP3   OH215313   2.193   0.151   1.826 -0.4618  0.3496  0.3802
 5123TIP3    H115314   2.209   0.060   1.847  0.7575  0.7726  1.3298
 5123TIP3    H215315   2.164   0.191   1.908 -1.0796  0.8079 -0.0464
 5124TIP3   OH215316   8.015   3.480   1.159 -0.4328 -0.1033  0.1600
 5124TIP3    H115317   7.976   3.476   1.072 -0.3484  0.8412  0.0735
 5124TIP3    H215318   8.075   3.554   1.156  0.4635 -0.7724  0.6680
 5125TIP3   OH215319   3.863   7.345   1.879  0.3578 -0.1241  0.3378
 5125TIP3    H115320   3.912   7.309   1.953 -0.6662 -1.9650  0.1743
 5125TIP3    H215321   3.773   7.352   1.911  0.1037  0.0955 -0.4047
 5126TIP3   OH215322   6.606   7.640   4.361 -0.1894 -0.1335  0.2313
 5126TIP3    H115323   6.680   7.582   4.375 -0.9093 -1.2750 -0.5701
 5126TIP3    H215324   6.550   7.627   4.438  0.0926  0.2188  0.5030
 5127TIP3   OH215325   7.919   4.930   3.993  0.3251  0.2711 -0.3512
 5127TIP3    H115326   7.885   4.842   4.006 -2.9636  1.0389 -2.2712
 5127TIP3    H215327   7.853   4.987   4.032  1.4736  1.9073 -0.6831
 5128TIP3   OH215328   7.508   7.591   3.262 -0.0340 -0.2795  0.1718
 5128TIP3    H115329   7.489   7.521   3.200 -1.1294  0.3324 -0.2048
 5128TIP3    H215330   7.604   7.594   3.266  0.0451 -0.7896 -0.9448
 5129TIP3   OH215331   3.099   4.093   3.010  0.1322 -0.0577  0.2229
 5129TIP3    H115332   3.083   4.001   3.034  1.2094  0.0247  1.3191
 5129TIP3    H215333   3.192   4.098   2.992 -0.0827  0.6352 -0.7727
 5130TIP3   OH215334   4.567   1.971   1.173 -0.4044 -0.5469  0.2754
 5130TIP3    H115335   4.547   2.055   1.213 -1.9128  0.4299 -2.2457
 5130TIP3    H215336   4.542   1.906   1.238 -0.5713  0.9277  1.7447
 5131TIP3   OH215337   3.419   2.140   4.168  0.7747  0.0578 -0.5371
 5131TIP3    H115338   3.380   2.217   4.128 -1.4763 -0.1001  1.1657
 5131TIP3    H215339   3.402   2.069   4.106  0.3199  0.4056 -0.8136
 5132TIP3   OH215340   1.068   1.673   0.417 -0.3112 -0.0648  0.2953
 5132TIP3    H115341   1.085   1.579   0.424 -0.7622 -0.3816 -2.0658
 5132TIP3    H215342   0.998   1.689   0.481  0.0607 -1.2404  1.0234
 5133TIP3   OH215343   7.098   2.326   4.634  0.2325 -0.0561  0.2423
 5133TIP3    H115344   7.050   2.408   4.636  1.4025  0.6578 -0.0922
 5133TIP3    H215345   7.157   2.335   4.559  1.8568 -0.3368  1.4522
 5134TIP3   OH215346   0.826   0.980   1.764 -0.5915  0.1444  0.1766
 5134TIP3    H115347   0.777   0.999   1.684 -0.1778  0.3714 -0.0289
 5134TIP3    H215348   0.904   1.036   1.757 -2.0523  2.6675  2.2540
 5135TIP3   OH215349   5.465   2.426   1.474 -0.3136  0.0508  0.1452
 5135TIP3    H115350   5.384   2.378   1.488 -0.9268  0.8852 -0.4535
 5135TIP3    H215351   5.441   2.518   1.482  0.7290  0.2972  0.7173
 5136TIP3   OH215352   0.789   0.043   1.203  0.1861 -0.5616 -0.0893
 5136TIP3    H115353   0.698   0.035   1.174  0.0691  0.1020  0.0778
 5136TIP3    H215354   0.792  -0.001   1.289 -0.1936  0.2365  0.3346
 5137TIP3   OH215355   3.779   4.141   2.028  0.4530 -0.3566 -0.0067
 5137TIP3    H115356   3.701   4.106   2.070  0.0706 -0.3283 -0.6874
 5137TIP3    H215357   3.778   4.234   2.049 -0.9654  0.1173 -1.9241
 5138TIP3   OH215358   3.417   7.713   4.043 -0.1345  0.5348 -0.2696
 5138TIP3    H115359   3.335   7.693   4.088  0.4525  1.3729  1.2421
 5138TIP3    H215360   3.422   7.809   4.041 -0.0888  0.5332 -2.0852
 5139TIP3   OH215361   4.803   2.327   5.439  0.1905 -0.1269  0.0825
 5139TIP3    H115362   4.750   2.406   5.448 -0.9059 -0.9471  1.0768
 5139TIP3    H215363   4.880   2.343   5.494  0.3125  0.4978 -0.2558
 5140TIP3   OH215364   6.644   7.410   5.210 -0.1507  0.5649  0.3654
 5140TIP3    H115365   6.733   7.400   5.175  0.3974 -0.0080  1.8789
 5140TIP3    H215366   6.641   7.501   5.241 -0.2052  0.6660  0.0767
 5141TIP3   OH215367   5.028   4.198   2.374 -0.2397  0.8181 -0.3246
 5141TIP3    H115368   5.028   4.291   2.349  1.4317  0.9459  0.0401
 5141TIP3    H215369   5.113   4.165   2.345 -0.5555 -0.4481  0.1221
 5142TIP3   OH215370   6.914   3.956   3.450  0.5758 -0.0794 -0.6351
 5142TIP3    H115371   6.849   3.965   3.380  0.9989 -1.2648 -1.2026
 5142TIP3    H215372   6.870   3.991   3.527 -1.2008 -1.8727 -0.7441
 5143TIP3   OH215373   7.318   6.696   5.208  0.4662  0.0594  0.3785
 5143TIP3    H115374   7.329   6.607   5.174  0.8010 -0.1507  1.0227
 5143TIP3    H215375   7.294   6.683   5.300  0.4517  0.6377  0.4557
 5144TIP3   OH215376   1.431   7.229   6.539  0.2194 -0.2120  0.1134
 5144TIP3    H115377   1.361   7.164   6.531  0.8714 -0.9843  0.5532
 5144TIP3    H215378   1.386   7.310   6.565 -0.6860 -0.2807 -1.1445
 5145TIP3   OH215379   7.041   1.303   5.973  0.2062  0.0175 -0.1424
 5145TIP3    H115380   7.075   1.358   6.044 -1.1137  0.1561  0.4283
 5145TIP3    H215381   6.982   1.242   6.018  0.2750 -0.6756 -0.9904
 5146TIP3   OH215382   0.851   6.467   4.547  0.5916  0.3236  0.0425
 5146TIP3    H115383   0.859   6.387   4.600  1.0203  1.1244  1.2237
 5146TIP3    H215384   0.941   6.486   4.520  0.6891  1.1344  0.8930
 5147TIP3   OH215385   6.369   4.396   2.608 -0.5076  0.3692  0.3731
 5147TIP3    H115386   6.331   4.376   2.693 -0.3259  0.9753  0.6023
 5147TIP3    H215387   6.347   4.488   2.592  0.1598  0.5023  0.1492
 5148TIP3   OH215388   2.113   7.250   2.109  0.4011 -0.7141  0.3100
 5148TIP3    H115389   2.115   7.260   2.205  0.9235  0.9296  0.1533
 5148TIP3    H215390   2.195   7.289   2.080  0.3447 -1.4055 -0.8091
 5149TIP3   OH215391   7.776   7.524   2.912  0.1497 -0.3596 -0.0188
 5149TIP3    H115392   7.789   7.470   2.989 -0.2706  0.8518  0.9294
 5149TIP3    H215393   7.841   7.491   2.849 -0.1971 -2.0394  0.4468
 5150TIP3   OH215394   8.239   5.320   2.053 -0.3103 -0.6867  0.3237
 5150TIP3    H115395   8.299   5.250   2.077  1.6663  0.4072 -1.0862
 5150TIP3    H215396   8.197   5.290   1.973  1.0844 -0.0597 -0.7001
 5151TIP3   OH215397   2.078   6.159   5.626  0.1202 -0.3829  0.1067
 5151TIP3    H115398   2.043   6.093   5.566  0.1542 -0.8651  0.6122
 5151TIP3    H215399   2.032   6.144   5.709 -1.5855  1.6989 -0.3580
 5152TIP3   OH215400   6.783   6.956   6.089  0.2612 -0.2858 -0.7343
 5152TIP3    H115401   6.723   6.953   6.164  0.5304  1.2398 -0.4369
 5152TIP3    H215402   6.778   7.046   6.058  1.5842 -0.4242 -1.3939
 5153TIP3   OH215403   5.814   1.549   1.843  0.2577 -0.3214 -0.1286
 5153TIP3    H115404   5.876   1.536   1.914  0.2863 -2.0262 -0.4271
 5153TIP3    H215405   5.760   1.624   1.871  0.3520 -0.8726  1.6162
 5154TIP3   OH215406   2.170   5.679   4.975  0.1342  0.1033  0.2316
 5154TIP3    H115407   2.130   5.600   5.011  0.3350  0.5559  1.4944
 5154TIP3    H215408   2.123   5.695   4.894  0.1982 -1.3998 -0.1211
 5155TIP3   OH215409   3.749   6.854   3.182  0.1427 -0.1505  0.3423
 5155TIP3    H115410   3.688   6.824   3.114  0.6325  0.0682 -0.2067
 5155TIP3    H215411   3.752   6.783   3.245  0.1230 -0.6043 -0.1633
 5156TIP3   OH215412   7.992   4.518   5.381  0.3127 -0.2978 -0.3418
 5156TIP3    H115413   8.003   4.605   5.343  0.7852  0.1376  0.7285
 5156TIP3    H215414   7.999   4.533   5.476  0.1780 -1.4676 -0.1351
 5157TIP3   OH215415   3.522   1.834   2.476  0.6438  0.2566  0.1521
 5157TIP3    H115416   3.457   1.897   2.505 -0.1938 -0.8534  0.7380
 5157TIP3    H215417   3.581   1.823   2.551 -0.1049 -0.7854  0.6072
 5158TIP3   OH215418   4.366   0.513   0.482 -0.2902 -0.2756  0.5781
 5158TIP3    H115419   4.433   0.578   0.500 -0.9079  0.4873  0.1996
 5158TIP3    H215420   4.394   0.470   0.402  0.0271 -0.3568  0.7314
 5159TIP3   OH215421   1.199   4.844   4.744  0.1873 -0.3926 -0.0740
 5159TIP3    H115422   1.240   4.917   4.699 -1.5291 -1.1388 -3.1311
 5159TIP3    H215423   1.137   4.884   4.805 -0.2965  0.7114 -1.2634
 5160TIP3   OH215424   0.215   7.374   3.646 -0.1920 -0.6524  0.3510
 5160TIP3    H115425   0.219   7.353   3.552 -2.3051  3.5655 -0.8968
 5160TIP3    H215426   0.307   7.369   3.674  0.8510 -0.0744 -2.4995
 5161TIP3   OH215427   7.788   6.226   2.960  0.2419 -0.5438 -0.5829
 5161TIP3    H115428   7.736   6.194   3.034  2.2449 -2.5431  0.0851
 5161TIP3    H215429   7.796   6.320   2.975 -1.2150 -0.5700  0.5289
 5162TIP3   OH215430   2.908   0.613   4.183 -0.1269 -0.0125  0.6549
 5162TIP3    H115431   2.908   0.518   4.195  2.5939 -0.3380 -1.1272
 5162TIP3    H215432   2.962   0.647   4.254  0.8895 -0.0776 -0.0691
 5163TIP3   OH215433   7.598   5.587   6.686 -0.1697 -0.2212 -0.3060
 5163TIP3    H115434   7.533   5.592   6.757 -1.3731 -0.9792 -1.3094
 5163TIP3    H215435   7.634   5.675   6.681  0.7237 -0.3929  1.9349
 5164TIP3   OH215436   2.497   4.467   3.829  0.1653 -0.1103  0.2368
 5164TIP3    H115437   2.562   4.497   3.893  0.9333  1.5776 -1.2402
 5164TIP3    H215438   2.485   4.374   3.848  1.3544  0.0503  1.9557
 5165TIP3   OH215439   4.341   5.543   3.079 -0.2573 -0.2887 -0.5805
 5165TIP3    H115440   4.280   5.571   3.147 -1.3739 -0.3131 -1.5543
 5165TIP3    H215441   4.332   5.448   3.075 -1.2243 -0.1801 -1.6734
 5166TIP3   OH215442   0.621   0.175   6.546  0.2552 -0.2752  0.4501
 5166TIP3    H115443   0.600   0.141   6.459 -1.5985  0.2074  0.6587
 5166TIP3    H215444   0.647   0.266   6.530  0.8583 -0.4638  0.3245
 5167TIP3   OH215445   6.437   6.192   6.731  0.5297  0.0758 -0.1091
 5167TIP3    H115446   6.375   6.143   6.677  1.3828  0.5926 -1.5880
 5167TIP3    H215447   6.444   6.278   6.689  0.0296  1.0631  1.7201
 5168TIP3   OH215448   3.147   2.540   3.647 -0.1960 -0.1136  0.2034
 5168TIP3    H115449   3.145   2.594   3.726 -1.6593  0.4500 -0.1781
 5168TIP3    H215450   3.111   2.455   3.676 -0.6300  0.0579  0.1786
 5169TIP3   OH215451   0.523   3.215   1.242  0.2260  0.9627 -0.3139
 5169TIP3    H115452   0.522   3.120   1.240 -1.0666  0.9556 -1.1731
 5169TIP3    H215453   0.502   3.238   1.332 -1.9110  0.3841 -0.6147
 5170TIP3   OH215454   1.318   2.671   3.316  0.6663  0.4601  0.7121
 5170TIP3    H115455   1.375   2.671   3.392  1.7356  0.1450 -0.0618
 5170TIP3    H215456   1.323   2.581   3.282  0.6263  0.7328 -0.0369
 5171TIP3   OH215457   4.685   0.703   6.035  0.3270 -0.3539 -0.6606
 5171TIP3    H115458   4.701   0.744   6.120 -1.2289 -1.0845  0.0270
 5171TIP3    H215459   4.631   0.767   5.988  0.0437 -0.5132 -0.5590
 5172TIP3   OH215460   2.428   0.446   5.716  0.0669  0.0453  0.3798
 5172TIP3    H115461   2.486   0.521   5.703 -1.2050  0.8156 -1.4305
 5172TIP3    H215462   2.485   0.375   5.745  1.2729  1.7606  2.4574
 5173TIP3   OH215463   5.869   6.461   5.194 -0.1725  0.1359 -0.2437
 5173TIP3    H115464   5.943   6.437   5.248  0.3078  0.5408 -0.7115
 5173TIP3    H215465   5.906   6.513   5.122 -0.5923 -1.5072 -1.7152
 5174TIP3   OH215466   3.326   5.951   5.329 -0.0850 -0.3380 -0.0900
 5174TIP3    H115467   3.254   5.890   5.314  1.0500 -2.1852  1.4433
 5174TIP3    H215468   3.383   5.938   5.253 -0.2985 -0.5335 -0.2190
 5175TIP3   OH215469   3.160   1.385   0.183 -0.5056  0.2536 -0.1585
 5175TIP3    H115470   3.126   1.315   0.128  0.9203 -0.7903  0.2150
 5175TIP3    H215471   3.240   1.414   0.138  0.1043  0.1120  0.7981
 5176TIP3   OH215472   0.791   5.058   2.639 -0.4171 -0.6470 -0.6875
 5176TIP3    H115473   0.797   4.966   2.664  4.4766 -0.1200  1.1572
 5176TIP3    H215474   0.744   5.100   2.711  0.1773 -1.2718  0.0754
 5177TIP3   OH215475   0.588   6.066   3.195  0.1300  0.2537 -0.1497
 5177TIP3    H115476   0.627   6.058   3.108 -0.4258  0.1443 -0.3932
 5177TIP3    H215477   0.575   5.975   3.224  2.7698  0.2146  1.1933
 5178TIP3   OH215478   5.115   1.285   4.013 -0.1530  0.2126 -0.7936
 5178TIP3    H115479   5.115   1.260   4.106  0.5703  1.0868 -0.5414
 5178TIP3    H215480   5.203   1.320   3.998  0.2092 -1.1648 -2.1658
 5179TIP3   OH215481   2.327   5.209   0.382  0.3161  0.0862  0.4220
 5179TIP3    H115482   2.369   5.126   0.361  1.4271  0.9769 -1.0806
 5179TIP3    H215483   2.279   5.191   0.462  0.1592 -2.1177 -0.0890
 5180TIP3   OH215484   0.634   7.361   5.018 -0.1245 -0.0737 -0.0953
 5180TIP3    H115485   0.613   7.330   4.930  1.3604 -1.0365 -0.1443
 5180TIP3    H215486   0.561   7.332   5.072 -0.4164 -0.6225 -0.7732
 5181TIP3   OH215487   7.837   6.776   3.549 -0.1317 -0.8438 -0.2016
 5181TIP3    H115488   7.748   6.798   3.522  0.1227  1.8990  0.8259
 5181TIP3    H215489   7.865   6.708   3.488 -3.4466 -3.0199  0.4671
 5182TIP3   OH215490   2.576   2.688   6.400 -0.0452 -0.2295  0.4720
 5182TIP3    H115491   2.598   2.781   6.399  1.4121 -0.4350 -3.3719
 5182TIP3    H215492   2.481   2.686   6.385 -0.0083  0.6249  0.0527
 5183TIP3   OH215493   7.934   6.791   1.705 -0.2536 -0.1315 -0.0935
 5183TIP3    H115494   7.928   6.696   1.689 -0.3326 -0.3291  1.0472
 5183TIP3    H215495   8.027   6.807   1.722 -0.4413 -0.2672  1.1672
 5184TIP3   OH215496   7.167   5.562   2.992  0.4693  0.2399 -0.2064
 5184TIP3    H115497   7.245   5.605   3.027  0.4235  1.3511 -1.4285
 5184TIP3    H215498   7.114   5.632   2.955 -0.9711 -0.5359  0.2863
 5185TIP3   OH215499   3.545   5.084   0.236  0.1663 -0.0759 -0.2516
 5185TIP3    H115500   3.599   5.006   0.252  0.6552  0.4083  0.4852
 5185TIP3    H215501   3.478   5.082   0.305 -1.6277 -1.3857 -1.9096
 5186TIP3   OH215502   4.921   7.495   6.734  0.2009  0.1698  1.0564
 5186TIP3    H115503   4.888   7.406   6.732  1.3663 -0.2708  0.4070
 5186TIP3    H215504   4.993   7.493   6.797  0.4113  0.5874  0.8371
 5187TIP3   OH215505   7.429   3.275   1.827  0.0137 -0.1662 -0.5332
 5187TIP3    H115506   7.476   3.198   1.795  2.0098  0.9854 -0.5914
 5187TIP3    H215507   7.390   3.313   1.748  1.5288  0.4636 -1.0162
 5188TIP3   OH215508   0.571   2.859   0.740 -0.4827  0.3318 -0.1536
 5188TIP3    H115509   0.549   2.860   0.833 -0.4336 -0.3752 -0.1287
 5188TIP3    H215510   0.662   2.889   0.737 -0.6552  0.8986 -0.0359
 5189TIP3   OH215511   2.969   7.357   0.560 -0.2364  0.9383  0.6121
 5189TIP3    H115512   2.941   7.354   0.652  1.7182 -0.7251  1.2261
 5189TIP3    H215513   2.890   7.335   0.510 -1.2450  1.5096  1.9131
 5190TIP3   OH215514   0.399   3.504   6.572 -0.2407 -0.8154 -0.5376
 5190TIP3    H115515   0.357   3.442   6.631 -0.9347 -1.4414 -1.6549
 5190TIP3    H215516   0.338   3.513   6.499 -0.0309  0.9915 -0.5289
 5191TIP3   OH215517   0.755   7.806   3.644  0.0842 -0.5401  0.0992
 5191TIP3    H115518   0.692   7.779   3.712  1.1073 -0.4744  1.0983
 5191TIP3    H215519   0.820   7.736   3.642  0.0428 -0.5593 -0.8603
 5192TIP3   OH215520   7.073   0.762   5.162 -0.0036  0.5130  0.2419
 5192TIP3    H115521   7.100   0.672   5.144 -1.5922  0.2772 -1.1542
 5192TIP3    H215522   7.095   0.810   5.082 -0.4036  1.0786  0.4678
 5193TIP3   OH215523   3.495   6.820   6.021 -0.8324 -0.0594 -0.0432
 5193TIP3    H115524   3.416   6.867   6.048 -0.7598  0.2053 -0.2823
 5193TIP3    H215525   3.554   6.889   5.991  0.0591 -0.1241  1.4891
 5194TIP3   OH215526   4.401   1.929   1.683 -0.4006  0.3548  0.7355
 5194TIP3    H115527   4.369   2.017   1.706 -0.5184  0.2233  1.0831
 5194TIP3    H215528   4.348   1.870   1.737 -0.3481  0.0669  0.4718
 5195TIP3   OH215529   8.060   5.768   2.563 -0.1536 -0.1116  0.6675
 5195TIP3    H115530   8.053   5.863   2.558 -2.1717 -0.2463  0.0242
 5195TIP3    H215531   8.065   5.749   2.657 -0.8650  0.5874  0.8610
 5196TIP3   OH215532   4.651   7.090   4.773 -0.3662 -0.2589 -0.7159
 5196TIP3    H115533   4.601   7.012   4.751 -2.2440  0.5308  0.4662
 5196TIP3    H215534   4.592   7.163   4.752 -0.3836  0.6648  2.0385
 5197TIP3   OH215535   0.236   5.328   1.496  0.2234  0.3433  0.2823
 5197TIP3    H115536   0.275   5.297   1.578 -0.2062  0.8690  0.6898
 5197TIP3    H215537   0.300   5.304   1.429  1.2148  1.0966  0.9270
 5198TIP3   OH215538   8.090   7.353   6.272 -0.1415 -0.4600  0.3457
 5198TIP3    H115539   8.168   7.379   6.321 -1.2440  3.0013  0.5723
 5198TIP3    H215540   8.034   7.310   6.337 -0.2851  1.2798  1.4570
 5199TIP3   OH215541   5.302   0.944   1.779 -0.4583 -0.5228 -0.3659
 5199TIP3    H115542   5.296   1.004   1.705 -1.4457 -0.7037 -0.4482
 5199TIP3    H215543   5.396   0.929   1.790 -0.3090 -1.5786 -2.4744
 5200TIP3   OH215544   6.220   1.275   2.068  0.0582  0.5975 -0.2041
 5200TIP3    H115545   6.126   1.272   2.085  0.0237  0.8942 -0.3375
 5200TIP3    H215546   6.242   1.187   2.037 -0.6274  1.1959 -2.5914
 5201TIP3   OH215547   8.266   2.620   5.110  0.0365  1.0896  0.7214
 5201TIP3    H115548   8.206   2.554   5.144 -0.6147  1.5176  0.4218
 5201TIP3    H215549   8.353   2.582   5.122 -0.3244  0.2046  0.5895
 5202TIP3   OH215550   5.784   2.455   0.605  0.9100 -0.7012 -0.0024
 5202TIP3    H115551   5.872   2.446   0.569  1.1840  1.7729 -0.0994
 5202TIP3    H215552   5.787   2.535   0.657 -1.2269 -0.6878  0.1827
 5203TIP3   OH215553   5.077   2.213   2.020 -0.1873  0.2396 -0.3088
 5203TIP3    H115554   5.004   2.190   1.962 -0.7876  0.7354  0.2260
 5203TIP3    H215555   5.082   2.309   2.015  0.1264  0.2395  0.0132
 5204TIP3   OH215556   7.223   3.640   0.414  0.0333 -0.1304 -0.7759
 5204TIP3    H115557   7.212   3.726   0.373 -1.0456  0.0783 -0.0860
 5204TIP3    H215558   7.133   3.609   0.428  0.4058 -1.6437 -1.5564
 5205TIP3   OH215559   4.516   2.209  -0.006  0.1930 -0.2061  0.0055
 5205TIP3    H115560   4.600   2.177   0.028  1.0464  2.1490  0.3078
 5205TIP3    H215561   4.450   2.158   0.041  1.4318 -0.2769  1.7552
 5206TIP3   OH215562   3.401   2.341   0.538 -0.1405 -0.0657  0.0177
 5206TIP3    H115563   3.458   2.311   0.467  0.6473 -0.7066  0.8924
 5206TIP3    H215564   3.314   2.344   0.499  0.3850  0.3351 -1.1800
 5207TIP3   OH215565   7.051   7.422   1.664  0.0986 -0.2576 -0.8136
 5207TIP3    H115566   6.969   7.452   1.624 -0.6178  1.0879  1.4828
 5207TIP3    H215567   7.070   7.487   1.732  0.6059 -2.8803  1.7700
 5208TIP3   OH215568   4.880   2.700   3.346  0.3485 -0.1538  0.1642
 5208TIP3    H115569   4.963   2.740   3.318 -1.6142  3.9644 -0.5988
 5208TIP3    H215570   4.857   2.747   3.426 -1.9877  0.1080 -0.5818
 5209TIP3   OH215571   1.067   3.666   5.796 -0.8314  0.0001 -0.3867
 5209TIP3    H115572   0.990   3.610   5.804 -0.6182 -0.0893  1.5598
 5209TIP3    H215573   1.137   3.617   5.839 -0.7862  1.9450  1.9947
 5210TIP3   OH215574   4.979   3.763   2.723  0.2602  0.3562  0.2894
 5210TIP3    H115575   4.915   3.709   2.770  2.0884 -0.4631  1.9792
 5210TIP3    H215576   5.001   3.712   2.645 -1.4009  0.8498 -0.5460
 5211TIP3   OH215577   8.117   5.434   5.761 -0.2853  0.7653  0.0471
 5211TIP3    H115578   8.057   5.505   5.739  0.1621  1.3206  0.6051
 5211TIP3    H215579   8.063   5.355   5.756 -0.7096  1.1015 -0.8903
 5212TIP3   OH215580   7.007   0.626   3.037 -0.9566  0.6065 -0.2452
 5212TIP3    H115581   7.052   0.709   3.025 -0.9620  0.5253 -0.8354
 5212TIP3    H215582   6.924   0.636   2.991 -0.2101 -0.3382 -1.8692
 5213TIP3   OH215583   1.037   5.887   1.140  0.0938  0.3384 -0.0182
 5213TIP3    H115584   1.114   5.876   1.196  0.0136 -0.0479  0.0192
 5213TIP3    H215585   0.966   5.907   1.201  0.2532  1.1797 -0.0917
 5214TIP3   OH215586   7.071   5.034   0.500 -0.5486  0.0041 -0.1385
 5214TIP3    H115587   7.097   5.122   0.529 -0.4055 -0.0204 -0.1901
 5214TIP3    H215588   7.101   4.976   0.570  0.0090 -0.0804 -0.4433
 5215TIP3   OH215589   0.427   5.661   5.810  0.9149  0.1386  0.8798
 5215TIP3    H115590   0.484   5.715   5.865  1.1398 -0.6871  1.4836
 5215TIP3    H215591   0.338   5.689   5.832  0.9893 -0.3667  1.8831
 5216TIP3   OH215592   6.192   3.052   3.112  0.2228 -0.3522  0.3762
 5216TIP3    H115593   6.248   3.002   3.052 -0.3741 -0.6638  0.0760
 5216TIP3    H215594   6.119   2.994   3.131  0.3488 -0.2139  1.3282
 5217TIP3   OH215595   4.319   7.341   3.939  0.1883 -0.1827 -0.8743
 5217TIP3    H115596   4.358   7.418   3.981  3.1514 -1.0335 -1.8039
 5217TIP3    H215597   4.268   7.299   4.008 -0.4321  1.9055  0.0038
 5218TIP3   OH215598   5.569   2.666   5.599  0.0742 -0.2214  0.1646
 5218TIP3    H115599   5.590   2.728   5.669  0.3672 -1.4269  1.1896
 5218TIP3    H215600   5.477   2.645   5.612  0.1332 -0.4581  0.2071
 5219TIP3   OH215601   4.047   7.645   3.924  0.6243  0.4181 -0.2691
 5219TIP3    H115602   3.979   7.595   3.969 -1.4194  1.3239 -2.1828
 5219TIP3    H215603   4.071   7.591   3.849  0.2920  1.1207 -0.8948
 5220TIP3   OH215604   3.870   4.322   4.694 -1.0662  0.0772 -0.2089
 5220TIP3    H115605   3.927   4.313   4.618  1.1662 -0.1529  1.4047
 5220TIP3    H215606   3.883   4.241   4.743 -0.7440  1.1164  1.5010
 5221TIP3   OH215607   7.806   5.738   0.287  0.4628 -0.6656 -0.8381
 5221TIP3    H115608   7.851   5.659   0.317  2.5833  1.0494  0.8761
 5221TIP3    H215609   7.728   5.744   0.342 -0.4358 -2.1589 -1.8672
 5222TIP3   OH215610   6.467   0.739   0.736  0.2493  0.3403  0.9861
 5222TIP3    H115611   6.498   0.813   0.788 -1.6906  1.6205  0.4291
 5222TIP3    H215612   6.403   0.695   0.791  0.2427  0.0222  0.7265
 5223TIP3   OH215613   0.604   0.409   4.541  0.0510  0.6634 -0.4377
 5223TIP3    H115614   0.564   0.407   4.454  0.1596  0.4716 -0.4826
 5223TIP3    H215615   0.691   0.447   4.527  0.2041  0.3035 -0.4670
 5224TIP3   OH215616   6.330   7.461   4.871  0.0471 -0.3530 -0.2256
 5224TIP3    H115617   6.311   7.382   4.821 -0.5961  0.0161 -0.5796
 5224TIP3    H215618   6.261   7.465   4.937  0.3235 -0.3120  0.0629
 5225TIP3   OH215619   7.243   0.800   2.024  0.1215  0.0754 -0.6380
 5225TIP3    H115620   7.325   0.792   1.975 -0.1691 -1.2063 -0.9639
 5225TIP3    H215621   7.174   0.790   1.958 -0.2838  0.0897 -0.2236
 5226TIP3   OH215622   1.051   1.525   3.075  0.4766  0.3923  0.3793
 5226TIP3    H115623   0.981   1.589   3.070  1.1014  1.0336 -0.3065
 5226TIP3    H215624   1.031   1.461   3.007  0.9261  0.9479 -0.2742
 5227TIP3   OH215625   1.351   4.087   5.538 -0.0810  0.6064  0.2173
 5227TIP3    H115626   1.279   4.043   5.584  0.6588 -0.8767  0.0420
 5227TIP3    H215627   1.311   4.128   5.462 -1.1578  2.1602  1.5706
 5228TIP3   OH215628   0.901   1.933   1.565 -0.2102 -0.1001 -0.9999
 5228TIP3    H115629   0.946   1.967   1.488  0.5786  0.5113 -0.2957
 5228TIP3    H215630   0.936   1.985   1.638 -2.1948  0.5188 -0.4300
 5229TIP3   OH215631   6.600   6.256   0.644  0.4242  0.1757 -0.1081
 5229TIP3    H115632   6.551   6.182   0.682  0.4358  0.3647  0.2802
 5229TIP3    H215633   6.559   6.270   0.559  0.4065 -0.2674 -0.1770
 5230TIP3   OH215634   0.780   7.627   4.684 -0.3262 -0.5727  0.8344
 5230TIP3    H115635   0.725   7.552   4.662 -0.5406 -0.4580  0.9775
 5230TIP3    H215636   0.862   7.588   4.715 -0.9448 -0.7923  2.2786
 5231TIP3   OH215637   2.099   0.307   3.545 -0.2188  0.3614  1.0249
 5231TIP3    H115638   2.193   0.306   3.530 -0.4938 -0.4708 -0.9391
 5231TIP3    H215639   2.065   0.236   3.490 -1.8596 -0.2386  2.7311
 5232TIP3   OH215640   5.893   5.398   2.279 -0.2270  0.0538  0.2550
 5232TIP3    H115641   5.879   5.327   2.342  0.7800 -2.9658 -2.6231
 5232TIP3    H215642   5.807   5.409   2.237 -0.0246 -0.6130 -0.3510
 5233TIP3   OH215643   0.931   6.837   0.361  0.2942  0.0583  0.7287
 5233TIP3    H115644   1.013   6.795   0.388  0.6652  1.1852  1.4707
 5233TIP3    H215645   0.900   6.786   0.287  1.6602 -0.4112  0.4579
 5234TIP3   OH215646   6.564   5.181   2.730  0.0716 -0.8959 -0.2287
 5234TIP3    H115647   6.589   5.264   2.771  0.0201 -1.5406  1.1649
 5234TIP3    H215648   6.491   5.204   2.673 -0.5791 -0.1255  0.8603
 5235TIP3   OH215649   0.264   2.382   4.613 -0.0983 -0.9009  0.1854
 5235TIP3    H115650   0.355   2.413   4.609 -0.6606  0.9498  0.5614
 5235TIP3    H215651   0.235   2.406   4.701 -1.7426  1.0568 -0.8006
 5236TIP3   OH215652   6.176   2.555   4.687  0.8853 -0.7054  0.8745
 5236TIP3    H115653   6.086   2.579   4.665  1.3580 -0.5708 -1.0384
 5236TIP3    H215654   6.178   2.460   4.678  1.4367 -0.5332 -1.2448
 5237TIP3   OH215655   4.028   0.175   4.922  0.0190  0.0566 -0.3769
 5237TIP3    H115656   4.036   0.238   4.850  0.4237 -1.0506 -1.3286
 5237TIP3    H215657   4.068   0.219   4.997 -1.0000  1.5041 -0.6219
 5238TIP3   OH215658   0.590   7.129   4.235 -0.1944 -0.1420  0.0511
 5238TIP3    H115659   0.629   7.206   4.276  2.0236  0.0762 -2.2403
 5238TIP3    H215660   0.496   7.138   4.251  0.3275  1.0208  3.0479
 5239TIP3   OH215661   6.807   0.072   4.774  0.0522 -0.0021 -0.3825
 5239TIP3    H115662   6.879   0.084   4.835 -0.1862  0.7450 -0.2301
 5239TIP3    H215663   6.730   0.062   4.830 -0.1254  0.3893 -0.5575
 5240TIP3   OH215664   5.476   7.393   0.656  0.1994 -0.4581  0.0138
 5240TIP3    H115665   5.391   7.354   0.634 -0.7389  1.5706 -0.1413
 5240TIP3    H215666   5.495   7.452   0.584  1.3314 -0.2316  0.4756
 5241TIP3   OH215667   0.522   5.636   3.637 -0.4716 -0.8163  0.0970
 5241TIP3    H115668   0.483   5.587   3.710  1.0656 -1.5710  0.4446
 5241TIP3    H215669   0.586   5.694   3.677 -0.5742 -0.2423 -0.5438
 5242TIP3   OH215670   0.076   3.713   3.841 -0.0013  0.6181 -0.8449
 5242TIP3    H115671   0.091   3.659   3.764 -0.0014  0.1901 -0.5503
 5242TIP3    H215672   0.079   3.803   3.809 -1.7034  0.4213 -1.6491
 5243TIP3   OH215673   2.415   6.346   1.654 -0.2403 -0.4179 -0.2503
 5243TIP3    H115674   2.500   6.390   1.655 -0.0067 -0.7457 -1.8859
 5243TIP3    H215675   2.391   6.337   1.746  0.6787  1.2238  0.1886
 5244TIP3   OH215676   0.133   0.558   4.079 -0.0851  0.5377 -0.3656
 5244TIP3    H115677   0.093   0.529   3.996  0.9387 -0.3583 -0.5781
 5244TIP3    H215678   0.125   0.482   4.136 -1.4944  1.4080  0.6707
 5245TIP3   OH215679   6.896   2.630   6.090  0.4048  0.0625  0.1370
 5245TIP3    H115680   6.984   2.621   6.125 -0.6352  0.1357  3.0397
 5245TIP3    H215681   6.847   2.557   6.129 -0.7727 -0.1859 -1.6818
 5246TIP3   OH215682   7.451   2.911   6.082  0.3534 -0.2492  0.7830
 5246TIP3    H115683   7.363   2.943   6.098  0.6414 -0.4002  2.9824
 5246TIP3    H215684   7.459   2.909   5.986 -1.3456  1.5497  0.5459
 5247TIP3   OH215685   7.091   1.689   1.777  0.0464 -0.0129  0.2021
 5247TIP3    H115686   7.069   1.781   1.765  1.0655  0.0947 -1.0521
 5247TIP3    H215687   7.052   1.644   1.702 -1.0352 -0.7247  1.1640
 5248TIP3   OH215688   4.897   0.839   1.942 -0.0105  0.9878  0.2589
 5248TIP3    H115689   4.834   0.818   2.011  0.1926 -0.0879  0.1300
 5248TIP3    H215690   4.843   0.867   1.868 -0.4194 -0.6315 -0.1052
 5249TIP3   OH215691   0.871   1.264   4.207 -0.4994 -0.3245  0.1493
 5249TIP3    H115692   0.891   1.257   4.114  2.2912  1.3090  0.5021
 5249TIP3    H215693   0.874   1.358   4.226 -1.4325 -0.5810  1.8226
 5250TIP3   OH215694   1.660   0.387   1.599 -0.0195 -0.0105 -1.1256
 5250TIP3    H115695   1.632   0.340   1.678 -0.6500  2.3480  0.1267
 5250TIP3    H215696   1.752   0.408   1.615 -0.2499  0.7927 -0.8499
 5251TIP3   OH215697   0.057   4.458   0.923 -0.3011 -0.5262 -0.4935
 5251TIP3    H115698   0.107   4.377   0.916 -1.4903 -1.5233  1.4929
 5251TIP3    H215699  -0.031   4.435   0.894 -0.2574  0.5492 -1.5790
 5252TIP3   OH215700   7.923   1.472   5.595  0.3207 -0.0619 -0.4401
 5252TIP3    H115701   7.952   1.391   5.554 -0.2200 -0.4341 -0.1028
 5252TIP3    H215702   7.853   1.504   5.538 -1.0031 -1.0119  0.5926
 5253TIP3   OH215703   5.960   2.689   0.700 -0.4550 -0.1523 -0.2631
 5253TIP3    H115704   6.021   2.763   0.706  0.5625 -0.9835 -0.1396
 5253TIP3    H215705   5.916   2.700   0.616 -0.4403  0.6776 -0.1688
 5254TIP3   OH215706   3.391   3.052   1.834 -0.2907  0.5665 -0.3925
 5254TIP3    H115707   3.467   3.056   1.777  0.4076 -1.0206  0.3645
 5254TIP3    H215708   3.423   3.083   1.919 -0.7334  0.7584 -0.2927
 5255TIP3   OH215709   6.677   1.792   2.744 -0.4672 -0.2106  0.5585
 5255TIP3    H115710   6.710   1.791   2.654 -0.1536  1.9003  0.5961
 5255TIP3    H215711   6.741   1.740   2.793  1.6791  1.9067  0.2214
 5256TIP3   OH215712   7.186   6.857   6.786 -0.1185  0.0957 -0.1070
 5256TIP3    H115713   7.252   6.811   6.735 -0.2836  0.8296 -1.0219
 5256TIP3    H215714   7.102   6.833   6.745 -0.1439  1.9236 -1.2511
 5257TIP3   OH215715   0.999   2.817   1.136  0.4548  0.0141  0.1477
 5257TIP3    H115716   1.053   2.878   1.186  0.7841  0.0146 -0.1949
 5257TIP3    H215717   1.049   2.735   1.137  0.4884  0.0262 -0.2055
 5258TIP3   OH215718   5.887   2.635   6.194 -0.2229  0.0324  0.1044
 5258TIP3    H115719   5.912   2.725   6.214  3.6169 -1.1854  1.7490
 5258TIP3    H215720   5.909   2.625   6.101 -0.7803  0.7674 -0.1215
 5259TIP3   OH215721   1.491   5.034   0.627 -0.0695 -0.2150 -0.1268
 5259TIP3    H115722   1.561   4.971   0.646  1.6941  1.3153 -1.2119
 5259TIP3    H215723   1.411   4.990   0.657  1.2940 -2.1432  0.9504
 5260TIP3   OH215724   5.512   1.670   5.982  0.2648  0.5908 -0.1855
 5260TIP3    H115725   5.465   1.723   5.918 -1.1826 -0.0187  0.3411
 5260TIP3    H215726   5.520   1.726   6.059 -1.0118  0.1733  0.2706
 5261TIP3   OH215727   0.479   0.561   2.814  0.1844  0.1089  0.4621
 5261TIP3    H115728   0.456   0.646   2.776  0.4716 -0.3358 -0.7669
 5261TIP3    H215729   0.510   0.582   2.902 -0.2859  1.2126  0.3869
 5262TIP3   OH215730   1.972   5.030   2.645  0.0453 -0.0550 -0.3357
 5262TIP3    H115731   2.027   5.105   2.666  0.2217 -0.0329 -0.8503
 5262TIP3    H215732   1.899   5.067   2.595  1.6179 -0.5104 -3.2153
 5263TIP3   OH215733   4.316   0.217   6.722 -0.0054 -0.0222  0.0006
 5263TIP3    H115734   4.385   0.185   6.664  0.3414  1.0204 -0.1878
 5263TIP3    H215735   4.363   0.261   6.793 -0.4686  0.5686 -0.0506
 5264TIP3   OH215736   0.451   7.276   0.966 -0.7604  0.7310 -0.9104
 5264TIP3    H115737   0.544   7.253   0.964 -0.8868 -0.0087  0.2411
 5264TIP3    H215738   0.437   7.330   0.889  0.4275  0.0856 -1.5995
 5265TIP3   OH215739   7.618   5.693   0.957  0.0621  0.4220 -0.1309
 5265TIP3    H115740   7.637   5.619   1.014  0.8682 -0.0887 -1.0312
 5265TIP3    H215741   7.604   5.767   1.016 -0.0601 -0.2952  0.7488
 5266TIP3   OH215742   4.043   7.367   6.362 -0.2200 -0.2659 -0.2613
 5266TIP3    H115743   4.020   7.454   6.330  1.5324  0.4013  0.1859
 5266TIP3    H215744   4.101   7.331   6.295 -1.1552 -1.2327 -0.5806
 5267TIP3   OH215745   1.558   7.757   3.940 -0.1422 -0.5417  0.3721
 5267TIP3    H115746   1.509   7.746   4.021 -2.7564 -0.6257 -1.1101
 5267TIP3    H215747   1.538   7.846   3.912 -1.5912 -1.3960 -1.5306
 5268TIP3   OH215748   2.719   4.584   3.998 -0.0682 -0.2147  0.7678
 5268TIP3    H115749   2.791   4.621   4.049  1.0963  0.7925 -1.4513
 5268TIP3    H215750   2.762   4.535   3.928 -1.5210  0.5097 -0.6935
 5269TIP3   OH215751   0.918   5.370   2.861 -0.1131 -0.6038 -0.1219
 5269TIP3    H115752   0.915   5.449   2.914  0.8167  0.3668 -1.4509
 5269TIP3    H215753   0.989   5.318   2.899  0.0775 -0.2371  0.0321
 5270TIP3   OH215754   1.817   0.603   3.990  0.0585 -0.5812  0.8153
 5270TIP3    H115755   1.767   0.604   4.071 -0.6144 -0.5668  0.4086
 5270TIP3    H215756   1.855   0.515   3.987 -0.1085 -0.6629  1.0319
 5271TIP3   OH215757   2.187   2.843   2.878  0.2268  0.0655 -0.4161
 5271TIP3    H115758   2.266   2.804   2.915  0.4912  0.6664 -0.3301
 5271TIP3    H215759   2.144   2.886   2.952 -0.2128 -0.3149 -0.4518
 5272TIP3   OH215760   5.729   1.225   4.804 -0.1984  0.3466 -0.5488
 5272TIP3    H115761   5.652   1.198   4.854  0.4416 -0.8932 -0.1667
 5272TIP3    H215762   5.768   1.142   4.774  0.2402  1.0023 -1.8771
 5273TIP3   OH215763   5.173   0.615   2.959  0.6991 -0.3730 -0.2875
 5273TIP3    H115764   5.265   0.592   2.974  0.4684 -2.1700 -1.2960
 5273TIP3    H215765   5.127   0.578   3.034  0.8718  1.5271  0.8185
 5274TIP3   OH215766   1.537   2.171   4.118  0.6041  0.0188 -0.3454
 5274TIP3    H115767   1.614   2.225   4.103  0.7690  0.1406  0.8196
 5274TIP3    H215768   1.545   2.143   4.209  0.8143 -2.4552 -1.0406
 5275TIP3   OH215769   4.744   1.546   4.422 -0.0582  0.2941  0.3580
 5275TIP3    H115770   4.709   1.510   4.503  0.6197  0.0219  0.5284
 5275TIP3    H215771   4.830   1.505   4.412  0.1003  0.7544 -0.2012
 5276TIP3   OH215772   2.976   0.298   2.279  0.4227 -0.5579  0.1453
 5276TIP3    H115773   2.966   0.225   2.340  1.0010 -0.1154  0.7840
 5276TIP3    H215774   2.912   0.363   2.309 -0.6009 -1.0722 -0.8569
 5277TIP3   OH215775   7.142   1.689   5.715 -0.0385 -0.5434 -0.0862
 5277TIP3    H115776   7.166   1.597   5.724  2.4264  0.0335 -0.0348
 5277TIP3    H215777   7.063   1.699   5.768  1.7609 -1.8492  3.1308
 5278TIP3   OH215778   5.597   1.541   0.707 -0.5437 -0.3768 -0.1765
 5278TIP3    H115779   5.625   1.630   0.685  0.4994 -0.0670  2.0807
 5278TIP3    H215780   5.629   1.487   0.634 -0.1779  0.9395 -1.0253
 5279TIP3   OH215781   4.118   7.784   5.623  0.6015 -0.2947 -0.2732
 5279TIP3    H115782   4.181   7.786   5.695 -0.6322 -0.8985  0.8584
 5279TIP3    H215783   4.159   7.837   5.554  2.5098 -0.9875  0.2654
 5280TIP3   OH215784   1.443   1.840   4.681 -0.1904 -0.4987 -0.1444
 5280TIP3    H115785   1.348   1.826   4.686 -0.3412  0.1813 -0.9246
 5280TIP3    H215786   1.474   1.826   4.770 -1.0270 -0.7063  0.1243
 5281TIP3   OH215787   0.242   6.041   4.623 -0.2410  0.7396 -0.1259
 5281TIP3    H115788   0.226   5.957   4.578  0.6671  1.1387 -1.2483
 5281TIP3    H215789   0.253   6.017   4.715  1.1668 -0.5357 -0.5886
 5282TIP3   OH215790   0.358   6.306   5.821 -0.3197  0.2504  0.1768
 5282TIP3    H115791   0.348   6.224   5.870 -0.1316 -0.3106 -0.7164
 5282TIP3    H215792   0.289   6.363   5.856  0.4622  0.2525  1.8486
 5283TIP3   OH215793   4.577   0.926   4.820 -0.4328 -0.0714  0.2383
 5283TIP3    H115794   4.595   0.909   4.912  0.3061 -0.0777  0.1048
 5283TIP3    H215795   4.585   0.841   4.777  0.0486  0.0651  0.0501
 5284TIP3   OH215796   5.000   1.031   2.686  0.1957 -0.4476  0.4024
 5284TIP3    H115797   4.983   0.984   2.768  1.1787  0.2510  1.0220
 5284TIP3    H215798   5.040   0.966   2.629 -0.9351 -1.0720  0.2779
 5285TIP3   OH215799   6.484   4.795   6.053 -0.0649  0.0249  0.1279
 5285TIP3    H115800   6.549   4.783   6.122  0.8793  0.8678 -0.5991
 5285TIP3    H215801   6.412   4.737   6.078  0.7875 -0.6242  1.1541
 5286TIP3   OH215802   2.180   4.967   0.807  0.9694 -0.0206 -0.0803
 5286TIP3    H115803   2.155   4.878   0.781 -0.0329 -0.6137  2.5976
 5286TIP3    H215804   2.264   4.956   0.851  0.8347  0.3405  0.2743
 5287TIP3   OH215805   0.858   1.539   4.258  0.2443 -0.0908 -0.0305
 5287TIP3    H115806   0.894   1.621   4.291 -0.5905  0.2731  0.0059
 5287TIP3    H215807   0.765   1.558   4.240  0.2846 -0.7234 -1.0379
 5288TIP3   OH215808   4.095   0.116   2.298  0.0889 -0.0410 -0.1243
 5288TIP3    H115809   4.178   0.119   2.251 -0.3107 -0.1769 -0.8583
 5288TIP3    H215810   4.043   0.051   2.251 -1.3546  1.8103 -1.2430
 5289TIP3   OH215811   2.503   4.695   4.749 -0.3019  0.1079 -0.4314
 5289TIP3    H115812   2.561   4.771   4.744  0.6538 -0.6468 -1.0835
 5289TIP3    H215813   2.527   4.651   4.830  0.3010 -0.4077 -0.8858
 5290TIP3   OH215814   3.007   0.122   5.666 -0.1424 -0.1594 -0.1318
 5290TIP3    H115815   2.915   0.120   5.641  0.0125  0.6923 -0.7936
 5290TIP3    H215816   3.008   0.158   5.755 -0.4748 -0.6459  0.0748
 5291TIP3   OH215817   2.782   7.210   1.313  0.0937  0.0571  0.2055
 5291TIP3    H115818   2.870   7.205   1.276  1.1989 -4.3059  2.7356
 5291TIP3    H215819   2.727   7.161   1.251  0.4978 -1.2387  0.8364
 5292TIP3   OH215820   4.519   1.142   5.854  0.1974 -0.0192  0.9061
 5292TIP3    H115821   4.487   1.158   5.943 -0.0111 -1.8639  1.1978
 5292TIP3    H215822   4.441   1.142   5.800  0.0780 -0.9315  1.0606
 5293TIP3   OH215823   0.289   7.397   5.113 -0.7013 -0.4011  0.1124
 5293TIP3    H115824   0.350   7.414   5.185  0.6061 -2.2068 -0.4962
 5293TIP3    H215825   0.286   7.302   5.106 -2.5676 -0.3265 -0.7895
 5294TIP3   OH215826   3.118   3.508   2.861 -0.9120 -0.4068 -0.1072
 5294TIP3    H115827   3.032   3.470   2.879 -0.6460 -1.0641 -0.1931
 5294TIP3    H215828   3.177   3.433   2.857 -0.1387  0.1121  1.0061
 5295TIP3   OH215829   5.052   4.642   0.810 -0.3620  0.4518 -0.5368
 5295TIP3    H115830   5.014   4.589   0.881  0.3522 -1.4649 -1.5102
 5295TIP3    H215831   4.979   4.696   0.779 -0.8238  0.9269  1.2552
 5296TIP3   OH215832   2.224   2.198   3.407  0.6154 -0.0064  0.4480
 5296TIP3    H115833   2.271   2.241   3.336 -0.3864 -0.6204 -0.6153
 5296TIP3    H215834   2.132   2.214   3.388  0.3321 -0.2099  1.5916
 5297TIP3   OH215835   8.190   6.575   0.764  0.2141 -0.6329  0.4893
 5297TIP3    H115836   8.147   6.652   0.801  2.3989  0.7694  0.3268
 5297TIP3    H215837   8.132   6.546   0.694  0.3088  2.2471 -0.9281
 5298TIP3   OH215838   7.645   1.077   3.019 -0.8292  0.0361 -0.0025
 5298TIP3    H115839   7.723   1.021   3.013 -0.2604  0.8663 -0.4022
 5298TIP3    H215840   7.616   1.066   3.110  0.4018  0.5738  0.4736
 5299TIP3   OH215841   7.405   2.084   4.198 -0.4487 -0.1392 -0.6032
 5299TIP3    H115842   7.322   2.115   4.161 -0.8319 -1.9488 -1.3761
 5299TIP3    H215843   7.460   2.066   4.122  0.0287 -0.5628 -0.1604
 5300TIP3   OH215844   0.382   6.427   1.477 -0.1158  0.0404 -0.1381
 5300TIP3    H115845   0.299   6.426   1.430  0.3410 -0.3344 -0.9727
 5300TIP3    H215846   0.424   6.509   1.450  0.6483 -0.7015 -1.3462
 5301TIP3   OH215847   1.214   5.564   0.954  0.2664  0.8109 -0.2111
 5301TIP3    H115848   1.290   5.529   0.909  0.8362  2.2543 -0.4362
 5301TIP3    H215849   1.161   5.602   0.884 -0.4152  0.2766  0.0047
 5302TIP3   OH215850   6.430   4.526   3.287 -0.4211 -0.5423  0.0172
 5302TIP3    H115851   6.518   4.495   3.306 -0.5289 -0.1188  1.3619
 5302TIP3    H215852   6.386   4.451   3.247  0.3810 -0.9345 -0.1420
 5303TIP3   OH215853   4.217   7.535   0.512 -0.8506 -0.0461  0.8838
 5303TIP3    H115854   4.198   7.452   0.556 -1.6055 -0.4848 -0.2212
 5303TIP3    H215855   4.148   7.594   0.540 -2.0710 -0.6889 -0.6035
 5304TIP3   OH215856   6.549   4.207   3.664 -0.1506  0.4141  0.5810
 5304TIP3    H115857   6.580   4.250   3.585 -0.2933  0.7722  0.7171
 5304TIP3    H215858   6.473   4.156   3.636  0.4815 -0.3703  0.2717
 5305TIP3   OH215859   1.451   0.641   5.703 -0.6451 -0.0072  0.0255
 5305TIP3    H115860   1.377   0.642   5.642 -2.6029  1.5278  2.2507
 5305TIP3    H215861   1.443   0.557   5.749 -0.9284  0.1002  0.1737
 5306TIP3   OH215862   5.643   0.546   1.450  0.1193  0.5990  0.4224
 5306TIP3    H115863   5.664   0.551   1.543 -1.1488  0.3481  0.7405
 5306TIP3    H215864   5.622   0.454   1.434 -4.6270  1.2669  1.1233
 5307TIP3   OH215865   2.837   5.856   0.833  0.3301  0.1890  0.3456
 5307TIP3    H115866   2.843   5.951   0.819  0.2224  0.0548 -0.7051
 5307TIP3    H215867   2.809   5.822   0.748  0.1403 -0.7621  0.7876
 5308TIP3   OH215868   8.085   7.488   1.397  0.3625 -0.2470 -0.5565
 5308TIP3    H115869   8.001   7.525   1.370 -0.9442 -1.8459  1.1105
 5308TIP3    H215870   8.121   7.451   1.316 -1.2265 -0.8030 -1.0552
 5309TIP3   OH215871   1.081   0.145   5.249  0.2613  0.7200 -0.2455
 5309TIP3    H115872   1.044   0.187   5.327 -0.1677  0.4410 -0.2929
 5309TIP3    H215873   1.164   0.189   5.235  0.1209  1.0996  0.0935
 5310TIP3   OH215874   5.126   5.053   2.735  0.5202 -0.4909  0.0350
 5310TIP3    H115875   5.099   5.032   2.824 -0.3693  0.5851  0.0395
 5310TIP3    H215876   5.173   4.975   2.705  0.9394 -0.8281  1.4769
 5311TIP3   OH215877   2.812   2.523   6.728  0.0238 -0.2502  0.2783
 5311TIP3    H115878   2.887   2.552   6.675 -0.9912  1.6933 -0.2071
 5311TIP3    H215879   2.793   2.598   6.785 -0.4874 -1.3715  1.6308
 5312TIP3   OH215880   5.476   1.134   1.222 -0.0050 -0.1312 -0.5591
 5312TIP3    H115881   5.478   1.192   1.298 -3.8881  0.1192 -0.4462
 5312TIP3    H215882   5.454   1.191   1.149  1.0680 -0.7627 -1.3914
 5313TIP3   OH215883   5.874   5.131   2.359  0.0595 -0.3512 -0.1528
 5313TIP3    H115884   5.810   5.065   2.330  2.1352 -2.8641  0.6546
 5313TIP3    H215885   5.840   5.161   2.444 -0.8170 -0.5280 -0.4322
 5314TIP3   OH215886   7.167   1.860   6.278 -0.3185 -0.2895 -0.1602
 5314TIP3    H115887   7.080   1.819   6.273 -0.7924  0.4954  1.0634
 5314TIP3    H215888   7.164   1.932   6.215 -0.9271  0.3508  0.5779
 5315TIP3   OH215889   6.632   7.111   4.399 -0.1721 -0.4582  0.0836
 5315TIP3    H115890   6.571   7.184   4.408  0.5177  0.2765 -0.8905
 5315TIP3    H215891   6.660   7.092   4.488  1.4011  2.0654  0.2527
 5316TIP3   OH215892   4.465   0.075   3.004 -0.3660 -0.3917 -0.6761
 5316TIP3    H115893   4.393   0.013   2.994 -0.6530 -0.2893  0.5139
 5316TIP3    H215894   4.422   0.160   3.013 -0.2251 -0.4869  1.4168
 5317TIP3   OH215895   6.294   0.309   3.311 -0.6816 -0.4022 -0.8104
 5317TIP3    H115896   6.346   0.273   3.382  0.0407  1.0927 -0.5423
 5317TIP3    H215897   6.303   0.246   3.240 -0.3056 -1.2406 -0.0356
 5318TIP3   OH215898   5.227   3.185   5.833 -0.2062 -0.0140  0.4189
 5318TIP3    H115899   5.157   3.153   5.776  1.0324  0.0379 -1.2121
 5318TIP3    H215900   5.189   3.186   5.921 -1.8256 -1.2021 -0.2327
 5319TIP3   OH215901   3.951   2.761   0.726  0.3310  0.0952 -0.0685
 5319TIP3    H115902   3.945   2.669   0.752 -1.5132  0.5690  1.3188
 5319TIP3    H215903   4.043   2.784   0.742  0.8277 -1.4753 -0.4335
 5320TIP3   OH215904   6.375   6.836   3.899  0.1690 -0.0093  0.3817
 5320TIP3    H115905   6.370   6.749   3.861  0.2367 -0.3009  1.0335
 5320TIP3    H215906   6.468   6.852   3.912  0.1170 -0.1737  1.0037
 5321TIP3   OH215907   1.301   5.852   5.210  0.6623 -0.2314  0.2223
 5321TIP3    H115908   1.279   5.781   5.150 -1.7885  0.5081  0.1292
 5321TIP3    H215909   1.242   5.924   5.185 -1.5176 -0.3197  4.2564
 5322TIP3   OH215910   8.015   5.316   3.300 -0.3360 -0.0119  0.0815
 5322TIP3    H115911   8.040   5.232   3.260  0.9968  1.2955 -2.0389
 5322TIP3    H215912   8.037   5.381   3.233 -2.1374  1.9796  1.3331
 5323TIP3   OH215913   7.780   4.969   0.060 -0.5185  0.2449 -0.0885
 5323TIP3    H115914   7.849   5.019   0.015 -1.8646  2.6354  0.2813
 5323TIP3    H215915   7.808   4.965   0.151  0.1083 -0.6775 -0.3111
 5324TIP3   OH215916   5.555   3.080   2.587 -0.1476 -0.1607 -0.3329
 5324TIP3    H115917   5.634   3.041   2.549 -0.0678 -0.5052  0.1726
 5324TIP3    H215918   5.487   3.013   2.575 -0.3182  0.0633 -0.6089
 5325TIP3   OH215919   3.732   2.859   1.815 -0.1224 -0.0159  0.4521
 5325TIP3    H115920   3.803   2.844   1.752 -1.3359  1.5096 -1.4224
 5325TIP3    H215921   3.751   2.945   1.852 -0.8582  0.3103  0.0864
 5326TIP3   OH215922   4.271   2.437   3.123 -0.1693  0.5397  0.2447
 5326TIP3    H115923   4.183   2.412   3.095 -0.3859  0.1758  1.2126
 5326TIP3    H215924   4.257   2.492   3.200  0.4683 -0.4025  1.0576
 5327TIP3   OH215925   0.729   4.953   2.150  0.3472  0.0354 -0.3986
 5327TIP3    H115926   0.692   4.865   2.137  0.0183 -0.0649  1.0887
 5327TIP3    H215927   0.755   4.981   2.062 -0.3216 -1.2038 -1.0168
 5328TIP3   OH215928   6.949   6.605   0.685  0.6344 -0.2469 -0.4034
 5328TIP3    H115929   6.892   6.546   0.735  0.6284 -0.2532 -0.4178
 5328TIP3    H215930   7.035   6.594   0.725  0.2187  1.4267  1.1221
 5329TIP3   OH215931   7.600   5.075   1.512 -0.2453 -0.0164  0.2686
 5329TIP3    H115932   7.505   5.074   1.521 -0.2778 -2.2629  0.1084
 5329TIP3    H215933   7.632   5.023   1.586  0.9373  1.2185  0.6795
 5330TIP3   OH215934   4.662   4.923   0.851 -0.2802 -0.1791  0.0972
 5330TIP3    H115935   4.633   4.883   0.933  1.8561 -0.2590  0.8990
 5330TIP3    H215936   4.598   4.991   0.833 -1.0187 -0.4190  1.6201
 5331TIP3   OH215937   5.329   5.595   3.433  0.5083 -0.2080  0.2308
 5331TIP3    H115938   5.307   5.649   3.358 -0.2312  1.1360  1.3527
 5331TIP3    H215939   5.310   5.650   3.509  0.5485 -1.7496  1.4300
 5332TIP3   OH215940   4.854   1.493   3.060  0.8324  0.1316  0.1646
 5332TIP3    H115941   4.943   1.467   3.083  0.5582  1.0142  2.5954
 5332TIP3    H215942   4.858   1.589   3.055  0.5955  0.0685 -2.6924
 5333TIP3   OH215943   6.604   0.697   5.586  0.5242  0.2849  0.0321
 5333TIP3    H115944   6.616   0.727   5.676 -0.2687  0.0516  0.2164
 5333TIP3    H215945   6.674   0.633   5.573  0.0673 -0.3862  0.7964
 5334TIP3   OH215946   3.481   6.416   1.920  0.2779  0.0261 -0.6060
 5334TIP3    H115947   3.494   6.387   2.010  0.6285  0.9561 -0.3521
 5334TIP3    H215948   3.483   6.511   1.924 -0.4040  0.0988 -1.4939
 5335TIP3   OH215949   5.346   5.052   1.144 -0.5211 -0.4592  0.3821
 5335TIP3    H115950   5.357   4.957   1.151 -0.8174 -0.4613  0.8664
 5335TIP3    H215951   5.265   5.070   1.193 -0.8572 -0.0488 -0.3058
 5336TIP3   OH215952   1.969   6.859   0.326  0.2843 -0.3779  0.2792
 5336TIP3    H115953   1.943   6.915   0.399  2.5795 -0.3438  1.1547
 5336TIP3    H215954   1.989   6.774   0.368  0.3622 -0.7538 -0.5102
 5337TIP3   OH215955   7.204   3.836   5.103 -0.6333  0.1083  0.0468
 5337TIP3    H115956   7.163   3.777   5.040  0.0911 -2.0266  1.4764
 5337TIP3    H215957   7.281   3.789   5.134  0.3710  2.1202  0.7722
 5338TIP3   OH215958   2.736   3.679   4.443 -0.2776  0.2969 -0.3252
 5338TIP3    H115959   2.782   3.762   4.429 -0.6007  0.4639 -0.4116
 5338TIP3    H215960   2.745   3.633   4.360  2.8416 -1.2524  0.7267
 5339TIP3   OH215961   2.529   4.369   2.592 -0.5830 -0.4095  0.6589
 5339TIP3    H115962   2.587   4.377   2.667 -0.1386 -3.2441  0.7262
 5339TIP3    H215963   2.446   4.338   2.628 -0.6756 -0.8275  0.1084
 5340TIP3   OH215964   1.975   5.474   0.902  0.2129 -0.0428  0.3237
 5340TIP3    H115965   1.909   5.516   0.957  1.1699  0.4667  1.1198
 5340TIP3    H215966   2.030   5.547   0.872  0.2139 -0.4159 -0.6197
 5341TIP3   OH215967   8.217   2.058   6.088 -0.8324 -0.2472 -0.1315
 5341TIP3    H115968   8.162   2.038   6.163 -0.4230 -0.8267  0.0265
 5341TIP3    H215969   8.286   1.991   6.091 -0.6603 -0.1103 -0.8629
 5342TIP3   OH215970   6.678   5.081   5.753  0.2766  0.2330  0.3468
 5342TIP3    H115971   6.606   5.082   5.816 -0.5636  2.2174 -0.5302
 5342TIP3    H215972   6.748   5.130   5.796  0.4609 -0.2093  0.5456
 5343TIP3   OH215973   6.733   5.071   3.723 -0.2302  0.0236 -0.0828
 5343TIP3    H115974   6.648   5.090   3.684  0.0259  2.6409  0.4557
 5343TIP3    H215975   6.718   5.077   3.818  0.2668 -0.9825  0.0751
 5344TIP3   OH215976   6.896   3.980   0.057  0.0467 -0.0814  0.2674
 5344TIP3    H115977   6.985   4.006   0.033 -0.5735  2.1202  0.1250
 5344TIP3    H215978   6.893   3.987   0.152 -0.0116  0.0417  0.2576
 5345TIP3   OH215979   4.991   7.126   5.986 -0.2323  0.2010 -0.2747
 5345TIP3    H115980   4.968   7.189   5.918  1.8644  0.1437 -1.1061
 5345TIP3    H215981   4.989   7.041   5.943  0.6810  0.1193 -0.1750
 5346TIP3   OH215982   1.471   2.550   4.064  0.3062  0.4710 -0.0547
 5346TIP3    H115983   1.536   2.483   4.045  0.1490  1.1326 -3.7385
 5346TIP3    H215984   1.387   2.509   4.044  0.2217  1.6580 -2.5305
 5347TIP3   OH215985   1.964   0.393   4.752  0.2555  0.5756 -0.0086
 5347TIP3    H115986   1.973   0.350   4.838  1.6691  0.7479 -0.0550
 5347TIP3    H215987   1.882   0.359   4.718 -0.2452  0.3547  1.3339
 5348TIP3   OH215988   6.877   6.408   5.329 -0.0723  0.5146 -0.5118
 5348TIP3    H115989   6.809   6.437   5.390  0.2685  2.0011 -0.7943
 5348TIP3    H215990   6.831   6.396   5.246 -0.3464 -0.4914 -0.2250
 5349TIP3   OH215991   3.664   6.950   2.435 -0.2658 -0.1708 -0.0774
 5349TIP3    H115992   3.577   6.911   2.434  0.2204 -1.2913 -1.2169
 5349TIP3    H215993   3.715   6.893   2.494  0.0389 -0.3283 -0.4873
 5350TIP3   OH215994   1.587   0.269   1.830  0.3783 -0.1329 -0.4572
 5350TIP3    H115995   1.633   0.211   1.891 -0.2420  1.2742  1.4620
 5350TIP3    H215996   1.504   0.224   1.813 -0.5020  0.5016  1.7591
 5351TIP3   OH215997   4.038   2.544   1.417 -0.0919 -0.4046  0.3768
 5351TIP3    H115998   4.075   2.511   1.499 -0.2128 -0.9556  0.2122
 5351TIP3    H215999   4.097   2.616   1.391  0.1667 -0.4839  0.7419
 5352TIP3   OH216000   3.514   5.890   3.487  0.1882  0.3015  0.1759
 5352TIP3    H116001   3.552   5.972   3.456  0.4308  0.1028 -0.0708
 5352TIP3    H216002   3.420   5.899   3.472  0.4074 -0.3150 -1.9723
 5353TIP3   OH216003   2.923   6.736   1.409 -0.2480  0.3986 -0.2544
 5353TIP3    H116004   3.011   6.747   1.374 -0.5567 -0.1014 -1.2038
 5353TIP3    H216005   2.866   6.781   1.347 -1.1751 -3.3403 -2.3831
 5354TIP3   OH216006   8.042   2.172   0.385  0.1061  0.0108  0.0960
 5354TIP3    H116007   7.985   2.242   0.354  0.0794 -0.9039 -2.0697
 5354TIP3    H216008   7.986   2.119   0.441 -0.4548  0.5538  0.0637
 5355TIP3   OH216009   2.828   5.148   2.011 -0.0347  0.1380 -0.2069
 5355TIP3    H116010   2.886   5.084   1.969 -0.5357 -1.7353  1.7558
 5355TIP3    H216011   2.740   5.123   1.983 -0.2298 -0.0399  0.5257
 5356TIP3   OH216012   3.649   4.370   6.046 -0.2577 -0.7376 -0.3552
 5356TIP3    H116013   3.563   4.402   6.076  0.8359  0.6925  1.5132
 5356TIP3    H216014   3.668   4.296   6.103  0.1790 -0.3901 -0.0374
 5357TIP3   OH216015   5.128   7.183   4.153 -0.1009  0.1944  0.0026
 5357TIP3    H116016   5.204   7.161   4.207  1.0438  1.1697 -1.1255
 5357TIP3    H216017   5.140   7.133   4.072 -0.5178  0.5624 -0.2950
 5358TIP3   OH216018   7.257   3.232   5.731  0.1693 -0.0756 -0.3691
 5358TIP3    H116019   7.200   3.156   5.719 -2.2583  0.9066  3.3521
 5358TIP3    H216020   7.346   3.195   5.727 -0.6928 -2.2525 -2.9451
 5359TIP3   OH216021   4.058   5.130   2.140 -0.1098  0.6092  0.6986
 5359TIP3    H116022   4.110   5.155   2.064 -1.3008  0.0573 -0.3269
 5359TIP3    H216023   4.123   5.111   2.208  1.1212 -1.2934 -0.9104
 5360TIP3   OH216024   2.923   6.639   2.607 -0.3411  0.1734 -0.5995
 5360TIP3    H116025   2.960   6.620   2.521 -0.0293  0.5585 -0.5497
 5360TIP3    H216026   2.973   6.713   2.639 -1.9115  1.4650 -1.0318
 5361TIP3   OH216027   7.257   5.137   5.850 -0.6476 -0.3387 -0.3961
 5361TIP3    H116028   7.215   5.208   5.898  0.7295  0.4046 -0.2650
 5361TIP3    H216029   7.336   5.117   5.900 -0.4667 -1.2277 -1.0189
 5362TIP3   OH216030   0.929   6.663   4.069 -0.0886  0.2731 -0.0759
 5362TIP3    H116031   0.936   6.589   4.129  0.1021 -0.4619 -0.9759
 5362TIP3    H216032   0.941   6.624   3.982  0.0173  1.3652 -0.5639
 5363TIP3   OH216033   7.555   1.977   1.883 -0.1647  0.0149 -0.8337
 5363TIP3    H116034   7.569   2.069   1.901  0.3121 -0.2267  0.0697
 5363TIP3    H216035   7.621   1.955   1.817  0.8710 -0.0721  0.2016
 5364TIP3   OH216036   4.261   2.732   3.497 -0.0488  0.0763 -0.6053
 5364TIP3    H116037   4.240   2.797   3.430 -1.2047 -0.2331 -0.5650
 5364TIP3    H216038   4.197   2.661   3.483 -0.8766  0.3655  1.3118
 5365TIP3   OH216039   0.050   3.570   3.296 -0.0845  0.0539 -0.1594
 5365TIP3    H116040   0.096   3.641   3.341  0.0958 -0.2110  0.0825
 5365TIP3    H216041  -0.040   3.601   3.287 -0.2312 -0.0665  0.7863
 5366TIP3   OH216042   2.012   3.264   3.452  0.1078  0.2406  0.2189
 5366TIP3    H116043   2.035   3.258   3.545 -0.8929  0.6030  0.5073
 5366TIP3    H216044   1.917   3.259   3.451  0.0919  0.5505 -0.7651
 5367TIP3   OH216045   4.994   0.703   0.289  0.0043  0.8912 -0.3123
 5367TIP3    H116046   4.972   0.696   0.196  1.2377  1.3721 -0.6644
 5367TIP3    H216047   4.960   0.623   0.329 -0.2848  0.5504 -1.2284
 5368TIP3   OH216048   0.360   1.150   2.932  0.3744  0.6844 -0.3797
 5368TIP3    H116049   0.309   1.130   2.854 -0.0704 -0.3383  0.1552
 5368TIP3    H216050   0.425   1.213   2.902 -2.2221  3.4235 -0.7427
 5369TIP3   OH216051   0.278   5.510   2.170  0.0468  0.1595 -0.1399
 5369TIP3    H116052   0.344   5.570   2.205  1.5445 -1.4991  0.0606
 5369TIP3    H216053   0.245   5.463   2.246  0.9605 -1.2045 -0.5495
 5370TIP3   OH216054   5.080   5.047   3.015 -0.2326  0.3273 -0.5266
 5370TIP3    H116055   5.051   5.109   3.080 -1.3642  0.6690 -1.3317
 5370TIP3    H216056   5.006   4.988   3.002 -0.1679  0.4801 -1.7449
 5371TIP3   OH216057   0.358   0.600   3.946  0.2904  0.2986 -0.1023
 5371TIP3    H116058   0.347   0.526   3.887 -1.0223  0.3084  0.0888
 5371TIP3    H216059   0.273   0.608   3.991  1.0397  0.6775  1.3274
 5372TIP3   OH216060   4.458   1.178   6.122 -0.3273  1.1514 -0.1417
 5372TIP3    H116061   4.442   1.084   6.132  1.8415  1.0201  5.2255
 5372TIP3    H216062   4.373   1.219   6.137 -1.0869  0.1158 -1.5008
 5373TIP3   OH216063   0.617   0.606   2.144 -0.0067 -0.2372  0.3136
 5373TIP3    H116064   0.638   0.700   2.141  2.1649 -0.6657  0.3112
 5373TIP3    H216065   0.608   0.587   2.237  1.5571 -0.3792  0.4647
 5374TIP3   OH216066   7.334   1.291   1.358 -0.0657  0.0033 -0.3259
 5374TIP3    H116067   7.393   1.311   1.431 -0.6275  0.6363 -0.0342
 5374TIP3    H216068   7.392   1.267   1.286  0.5041 -0.6522  0.3251
 5375TIP3   OH216069   7.219   0.096   0.382  0.4127  0.1845 -0.0187
 5375TIP3    H116070   7.227   0.130   0.293  1.9539 -0.9757 -0.3556
 5375TIP3    H216071   7.303   0.117   0.423 -0.1956  0.5105  1.1163
 5376TIP3   OH216072   1.906   1.121   2.787  0.2565 -0.0023  0.4685
 5376TIP3    H116073   1.824   1.159   2.818  0.0484 -0.3858  0.3851
 5376TIP3    H216074   1.957   1.106   2.867 -0.9792 -2.6520  0.8464
 5377TIP3   OH216075   1.102   5.685   6.313 -0.4861  0.7467  0.6099
 5377TIP3    H116076   1.091   5.705   6.406 -1.7981  0.2388  0.5833
 5377TIP3    H216077   1.076   5.765   6.268 -1.0297  0.6092  0.6614
 5378TIP3   OH216078   7.180   5.754   6.164  0.7181  0.2782 -0.2742
 5378TIP3    H116079   7.217   5.839   6.140 -0.7460  1.2567  0.7190
 5378TIP3    H216080   7.203   5.743   6.256 -1.2968  0.8977  0.3575
 5379TIP3   OH216081   5.404   0.944   5.043 -0.2111 -0.1705  0.1681
 5379TIP3    H116082   5.336   0.903   5.096 -0.4511  0.7915  0.6142
 5379TIP3    H216083   5.484   0.898   5.069 -0.6771 -1.4113 -0.4652
 5380TIP3   OH216084   2.916   2.790   6.045  0.2992  0.3053 -0.4945
 5380TIP3    H116085   2.835   2.740   6.041 -0.8963  2.2258 -1.9781
 5380TIP3    H216086   2.901   2.855   6.113  0.9926  0.0781 -0.1078
 5381TIP3   OH216087   6.715   3.765   5.664  0.6273  0.5743  0.3045
 5381TIP3    H116088   6.792   3.821   5.652 -0.4079  2.3423  1.4740
 5381TIP3    H216089   6.643   3.815   5.626 -0.3311  0.0916  1.4270
 5382TIP3   OH216090   3.335   6.305   0.102 -0.8282 -0.9200  0.0786
 5382TIP3    H116091   3.353   6.228   0.048  0.7784  0.9230 -2.2263
 5382TIP3    H216092   3.365   6.379   0.050 -0.7502  1.1941  2.8462
 5383TIP3   OH216093   8.105   2.326   2.479 -0.0223 -0.1170 -0.3914
 5383TIP3    H116094   8.179   2.381   2.456  0.4878 -0.5612  0.1615
 5383TIP3    H216095   8.122   2.243   2.435  0.1643 -0.4484  0.3037
 5384TIP3   OH216096   5.309   7.131   6.054 -0.2055  0.2806  0.2418
 5384TIP3    H116097   5.218   7.130   6.084 -0.0826  0.6363  0.6490
 5384TIP3    H216098   5.360   7.113   6.133  0.0298 -1.1336 -0.2125
 5385TIP3   OH216099   8.149   7.586   6.095  0.4306 -0.1157  0.1311
 5385TIP3    H116100   8.156   7.510   6.152  0.6119  0.3027  0.6719
 5385TIP3    H216101   8.082   7.641   6.135  2.4592  1.4964  1.5242
 5386TIP3   OH216102   4.640   7.719   3.067 -0.0424  0.0943 -0.0483
 5386TIP3    H116103   4.607   7.800   3.106 -0.4016  0.3469 -0.8541
 5386TIP3    H216104   4.657   7.742   2.975  0.1574 -0.6583 -0.2075
 5387TIP3   OH216105   7.230   2.530   3.289 -0.6877  0.1342 -0.1353
 5387TIP3    H116106   7.314   2.570   3.309 -0.0871 -1.8738  1.8892
 5387TIP3    H216107   7.171   2.563   3.357 -0.4150 -1.5847  0.9940
 5388TIP3   OH216108   3.744   2.159   1.474  0.0751  0.1425 -0.0514
 5388TIP3    H116109   3.658   2.192   1.502  0.1732  0.1946  0.1880
 5388TIP3    H216110   3.786   2.234   1.432  0.2555  0.2906  0.3961
 5389TIP3   OH216111   1.218   7.469   0.035  0.7478 -0.3055  0.0709
 5389TIP3    H116112   1.165   7.407  -0.015  0.6134 -0.0121 -0.1511
 5389TIP3    H216113   1.163   7.546   0.045  1.5366  0.4611 -1.1784
 5390TIP3   OH216114   1.428   0.850   5.873 -0.0671  0.4603 -0.0610
 5390TIP3    H116115   1.499   0.912   5.861  1.8746 -1.4428  0.9740
 5390TIP3    H216116   1.450   0.777   5.814 -2.1073  0.5384 -1.0131
 5391TIP3   OH216117   1.887   3.359   2.339 -0.4234  0.0482  0.0156
 5391TIP3    H116118   1.863   3.316   2.257 -1.0399 -1.0510  0.7510
 5391TIP3    H216119   1.934   3.293   2.389 -0.2444  0.6317  0.6396
 5392TIP3   OH216120   6.027   0.227   5.275  0.2232  0.0871  0.1414
 5392TIP3    H116121   5.996   0.318   5.272 -0.9668 -0.2596  1.0255
 5392TIP3    H216122   6.061   0.217   5.364  0.9887 -0.1464 -0.1729
 5393TIP3   OH216123   7.206   5.826   1.082 -0.5103 -0.6629 -0.0664
 5393TIP3    H116124   7.215   5.905   1.134 -1.9134 -0.8887  0.5730
 5393TIP3    H216125   7.163   5.855   1.002 -0.9553 -0.7496  0.1358
 5394TIP3   OH216126   0.764   7.151   4.037 -0.3485  0.7310 -0.3312
 5394TIP3    H116127   0.681   7.152   4.085  0.3601 -3.0148  1.2712
 5394TIP3    H216128   0.775   7.061   4.009  2.9575  1.1915 -0.9239
 5395TIP3   OH216129   3.621   7.105   5.151 -0.5262 -0.5309  0.3487
 5395TIP3    H116130   3.596   7.014   5.164  0.7454 -0.8761  0.4723
 5395TIP3    H216131   3.544   7.146   5.111 -0.8151 -1.8430 -0.4888
 5396TIP3   OH216132   3.368   7.375   6.336  0.1113 -0.2671 -0.0338
 5396TIP3    H116133   3.461   7.378   6.358  0.2144 -1.6372 -0.1605
 5396TIP3    H216134   3.335   7.462   6.359  1.1789 -0.1317  1.1363
 5397TIP3   OH216135   5.164   2.175   4.371  0.0493 -0.2191  0.6176
 5397TIP3    H116136   5.190   2.196   4.461 -0.8670 -0.1050  0.8646
 5397TIP3    H216137   5.152   2.260   4.329 -1.7238 -0.2201  1.0494
 5398TIP3   OH216138   6.262   1.232   4.334 -0.1688  1.0472 -0.2115
 5398TIP3    H116139   6.357   1.222   4.344 -0.4579 -0.2184  1.5547
 5398TIP3    H216140   6.248   1.327   4.341  0.9603  1.2653 -0.6383
 5399TIP3   OH216141   1.993   4.021   0.698 -0.7348 -0.0831 -0.4018
 5399TIP3    H116142   1.995   4.111   0.731 -1.8107 -0.3842  0.5008
 5399TIP3    H216143   2.085   4.003   0.675 -0.5911  1.4507 -1.2245
 5400TIP3   OH216144   7.192   2.931   0.239  0.0953 -0.4413 -0.3457
 5400TIP3    H116145   7.168   3.023   0.249  0.4919 -0.3806  0.0661
 5400TIP3    H216146   7.134   2.885   0.299  1.7035 -0.1874  1.4819
 5401TIP3   OH216147   8.090   5.090   4.101  0.1900 -0.2379 -0.3194
 5401TIP3    H116148   8.057   5.012   4.057  3.2037 -1.0523 -1.4041
 5401TIP3    H216149   8.017   5.151   4.099 -0.9176 -1.4510 -3.5412
 5402TIP3   OH216150   2.558   4.604   5.006 -0.4906 -0.4257 -0.3635
 5402TIP3    H116151   2.509   4.529   5.039  0.2261 -1.3789 -1.4070
 5402TIP3    H216152   2.511   4.680   5.041 -0.6448 -1.3436  1.5335
 5403TIP3   OH216153   1.271   5.520   3.663 -0.2367 -0.0036 -0.1335
 5403TIP3    H116154   1.191   5.519   3.716  0.4891  0.7429  1.0221
 5403TIP3    H216155   1.248   5.471   3.585 -2.0059  0.6741 -0.0857
 5404TIP3   OH216156   8.004   2.424   1.973 -0.8867 -0.5292 -0.1601
 5404TIP3    H116157   8.043   2.339   1.994 -1.2166 -0.5651  0.3124
 5404TIP3    H216158   8.073   2.470   1.925  0.6237  0.2479  2.5187
 5405TIP3   OH216159   5.406   1.705   2.451  0.4603 -0.1616  0.3629
 5405TIP3    H116160   5.386   1.792   2.487 -1.2734  1.1278 -3.2708
 5405TIP3    H216161   5.320   1.664   2.441  1.0603 -1.2821 -0.2880
 5406TIP3   OH216162   7.118   1.106   2.803 -0.1822  0.4379  0.1937
 5406TIP3    H116163   7.214   1.113   2.803 -0.2285  1.2463 -0.6473
 5406TIP3    H216164   7.088   1.194   2.784 -1.0813  0.0168 -0.3879
 5407TIP3   OH216165   2.791   2.126   6.729 -0.1470 -0.5360  0.2601
 5407TIP3    H116166   2.787   2.198   6.791 -1.1403 -1.0282  0.7940
 5407TIP3    H216167   2.768   2.164   6.645 -0.8066 -0.2480  0.5650
 5408TIP3   OH216168   3.348   1.133   0.594  0.7637 -0.6028 -0.4104
 5408TIP3    H116169   3.300   1.208   0.558  0.5713  1.1065  3.0175
 5408TIP3    H216170   3.290   1.058   0.580 -0.8889  0.6301 -0.3788
 5409TIP3   OH216171   3.195   7.182   6.230 -0.2750  0.0925 -0.4843
 5409TIP3    H116172   3.147   7.149   6.306 -2.1197  2.8733 -0.2772
 5409TIP3    H216173   3.263   7.238   6.267  1.3857 -1.6082 -0.8571
 5410TIP3   OH216174   6.713   6.926   1.815 -0.2831 -0.5780  0.1273
 5410TIP3    H116175   6.677   6.998   1.763 -0.6645 -0.6864  0.2366
 5410TIP3    H216176   6.679   6.941   1.903 -1.3812 -1.5604 -0.0970
 5411TIP3   OH216177   0.278   4.180   4.970 -0.7014  0.9498  0.5210
 5411TIP3    H116178   0.269   4.095   5.012  0.1440 -0.7540 -2.4280
 5411TIP3    H216179   0.202   4.230   4.999 -2.9910 -1.9417  0.0123
 5412TIP3   OH216180   3.166   0.738   2.166 -0.2323  0.9221  0.0931
 5412TIP3    H116181   3.237   0.727   2.230 -0.3568 -0.2433  0.0449
 5412TIP3    H216182   3.211   0.768   2.087  0.5250 -1.5283 -0.5041
 5413TIP3   OH216183   2.914   4.047   2.662 -0.0822 -0.4670 -0.6252
 5413TIP3    H116184   2.907   3.997   2.744 -0.1862 -0.1403 -0.4322
 5413TIP3    H216185   2.974   3.995   2.608  0.1424 -0.5864 -0.2671
 5414TIP3   OH216186   2.352   3.785   1.674 -0.2051 -0.2805  0.0854
 5414TIP3    H116187   2.256   3.786   1.672 -0.2195 -0.9512  0.1215
 5414TIP3    H216188   2.374   3.695   1.698  0.3932  0.6489  3.5284
 5415TIP3   OH216189   2.038   0.119   0.986  0.3268 -0.1100 -0.4351
 5415TIP3    H116190   2.040   0.134   0.892  1.4717 -0.4663 -0.4835
 5415TIP3    H216191   2.130   0.111   1.011  0.0334 -0.1078  0.6986
 5416TIP3   OH216192   6.431   1.882   1.366  0.2739 -0.1912 -0.2703
 5416TIP3    H116193   6.414   1.791   1.393 -0.3253 -0.2426 -0.8073
 5416TIP3    H216194   6.354   1.907   1.315 -0.1459  1.0485  0.8968
 5417TIP3   OH216195   5.700   3.964   3.238 -0.3276  0.4955 -0.4297
 5417TIP3    H116196   5.637   3.892   3.227 -1.0586  0.8983  0.9774
 5417TIP3    H216197   5.738   3.975   3.151  0.0628 -1.8225 -0.6257
 5418TIP3   OH216198   7.774   5.176   0.549 -0.1766  0.1935  0.3775
 5418TIP3    H116199   7.774   5.091   0.593 -1.5843  0.0583  0.1834
 5418TIP3    H216200   7.839   5.228   0.595  1.1861 -1.1923  0.0854
 5419TIP3   OH216201   5.451   4.683   4.759  0.9133  0.3777 -0.2309
 5419TIP3    H116202   5.426   4.602   4.714 -2.4717  1.3131 -0.3225
 5419TIP3    H216203   5.516   4.723   4.703  2.1719 -1.9137 -0.5202
 5420TIP3   OH216204   1.170   6.627   2.547 -0.5264 -0.2700  0.1932
 5420TIP3    H116205   1.192   6.544   2.503  1.0177  0.3611 -0.2978
 5420TIP3    H216206   1.218   6.694   2.497 -1.6018  0.9094  0.6912
 5421TIP3   OH216207   1.174   6.789   3.911 -0.5026  0.0577  0.0528
 5421TIP3    H116208   1.206   6.738   3.985 -0.7131  0.6259  0.5410
 5421TIP3    H216209   1.091   6.747   3.887 -0.6618  0.1534  0.4349
 5422TIP3   OH216210   4.315   6.843   4.277  0.3506  0.4660 -0.1087
 5422TIP3    H116211   4.269   6.760   4.291 -0.6085  0.3487 -3.3293
 5422TIP3    H216212   4.403   6.827   4.311 -0.0379 -1.5814  0.0986
 5423TIP3   OH216213   7.099   0.431   4.185 -0.2501 -0.4230 -0.1053
 5423TIP3    H116214   7.014   0.418   4.143 -0.1980  0.0077 -0.3558
 5423TIP3    H216215   7.112   0.353   4.238 -0.3354 -0.9681 -0.8700
 5424TIP3   OH216216   1.034   1.086   6.193  0.6359 -0.1990  0.1192
 5424TIP3    H116217   1.108   1.034   6.162  0.5207 -0.8414  0.8946
 5424TIP3    H216218   0.963   1.065   6.133  1.2432  0.9585 -1.0679
 5425TIP3   OH216219   4.739   0.263   1.878  0.2310 -0.0857 -0.8204
 5425TIP3    H116220   4.776   0.218   1.802  0.9873  0.0917 -0.5625
 5425TIP3    H216221   4.714   0.349   1.844  2.6055  0.8387 -0.4186
 5426TIP3   OH216222   1.968   3.548   4.534  0.0540 -0.4807  0.6893
 5426TIP3    H116223   1.960   3.452   4.540 -0.8585 -0.4850 -0.3063
 5426TIP3    H216224   1.878   3.578   4.522  0.3953  0.4713  0.4835
 5427TIP3   OH216225   7.381   3.182   3.812  0.4092 -0.3500  0.7527
 5427TIP3    H116226   7.300   3.178   3.864  0.2605 -0.9522  0.4894
 5427TIP3    H216227   7.360   3.242   3.741 -0.0797 -1.1027  0.2452
 5428TIP3   OH216228   3.436   6.979   1.790 -0.2242 -0.3194 -0.1293
 5428TIP3    H116229   3.511   7.026   1.826 -0.1207 -0.9263  0.4669
 5428TIP3    H216230   3.371   7.047   1.772 -0.6205 -0.0696  2.0265
 5429TIP3   OH216231   0.427   6.732   0.515  0.2407  0.7412 -0.1133
 5429TIP3    H116232   0.380   6.707   0.435  1.4818  1.4197 -1.0837
 5429TIP3    H216233   0.449   6.824   0.503  0.8305  0.7414  0.8277
 5430TIP3   OH216234   0.062   5.272   3.433 -0.2223  0.2851 -0.2520
 5430TIP3    H116235   0.096   5.262   3.344  0.1986 -0.8332  0.0204
 5430TIP3    H216236  -0.032   5.254   3.424 -0.3120  0.8697 -0.5730
 5431TIP3   OH216237   1.570   1.125   6.279  0.0740 -0.1432 -0.0107
 5431TIP3    H116238   1.642   1.174   6.320 -0.3864 -0.1787  0.8725
 5431TIP3    H216239   1.611   1.046   6.246  0.6262  0.3182 -0.4557
 5432TIP3   OH216240   3.457   0.988   1.943 -0.5026 -0.1580  0.2087
 5432TIP3    H116241   3.479   0.967   2.034  1.6258  0.6102 -0.0899
 5432TIP3    H216242   3.539   0.978   1.895 -0.2511  4.4720 -0.7289
 5433TIP3   OH216243   6.853   6.381   3.149  0.6601  0.5427 -0.0416
 5433TIP3    H116244   6.871   6.312   3.214  1.9591  1.3189  0.4686
 5433TIP3    H216245   6.798   6.338   3.083 -0.6984 -0.2681  1.5570
 5434TIP3   OH216246   1.954   1.447   3.005  0.0944  0.0729 -0.3020
 5434TIP3    H116247   2.031   1.390   3.000 -1.3354 -2.3056  2.2305
 5434TIP3    H216248   1.958   1.484   3.093  0.4253  3.2600 -1.5376
 5435TIP3   OH216249   1.259   3.553   0.233 -0.3796  0.1895  0.1073
 5435TIP3    H116250   1.306   3.624   0.189 -0.5590 -0.3913 -1.0429
 5435TIP3    H216251   1.292   3.555   0.323  0.5501  0.9075 -0.2354
 5436TIP3   OH216252   7.427   5.911   2.539  0.5477  0.0385  0.2820
 5436TIP3    H116253   7.351   5.859   2.513 -0.0084  0.3882  1.1613
 5436TIP3    H216254   7.494   5.889   2.475 -0.1040 -0.7335 -0.1534
 5437TIP3   OH216255   3.211   4.510   4.946 -0.2687  0.4609  0.2697
 5437TIP3    H116256   3.234   4.598   4.975 -1.5362  1.8197 -2.4744
 5437TIP3    H216257   3.258   4.499   4.863  1.2983 -2.2516  1.3772
 5438TIP3   OH216258   7.596   7.625   2.711 -0.4141 -0.7234 -1.0874
 5438TIP3    H116259   7.650   7.594   2.784 -1.0636  0.9488  0.1421
 5438TIP3    H216260   7.578   7.546   2.660 -0.1760 -1.9983  0.7059
 5439TIP3   OH216261   2.038   7.571   1.457  0.0437 -0.3333 -0.5651
 5439TIP3    H116262   1.946   7.548   1.444  0.5090 -1.4373 -2.3047
 5439TIP3    H216263   2.063   7.526   1.538 -0.9713  0.1391  0.0328
 5440TIP3   OH216264   1.124   0.109   5.944 -0.8461  0.0228  0.1150
 5440TIP3    H116265   1.108   0.123   5.850 -2.1544  1.1332  0.4716
 5440TIP3    H216266   1.061   0.166   5.987 -3.1933 -3.4650  1.7215
 5441TIP3   OH216267   1.605   5.529   1.913  0.2835  0.3954  0.5451
 5441TIP3    H116268   1.609   5.615   1.872 -0.5208  0.3068  0.2412
 5441TIP3    H216269   1.512   5.506   1.909  0.2830  0.1064  1.8721
 5442TIP3   OH216270   0.337   5.373   0.762 -0.2560  0.4272 -0.5238
 5442TIP3    H116271   0.289   5.390   0.681  0.5880  1.2143 -0.8734
 5442TIP3    H216272   0.377   5.287   0.748 -3.0532 -1.2136  0.5337
 5443TIP3   OH216273   7.475   7.332   5.000 -0.4532  0.2381  0.1253
 5443TIP3    H116274   7.386   7.299   5.004 -0.3045 -0.8890 -3.0117
 5443TIP3    H216275   7.476   7.406   5.060 -3.0276 -0.6627  1.4251
 5444TIP3   OH216276   3.223   3.909   0.276  0.6207 -0.2286 -0.5893
 5444TIP3    H116277   3.241   3.852   0.201 -3.6041  0.7141 -2.6654
 5444TIP3    H216278   3.231   3.998   0.240 -0.9425  0.2508  0.1411
 5445TIP3   OH216279   1.279   0.733   5.398 -0.9312 -0.3245  0.2139
 5445TIP3    H116280   1.340   0.705   5.331  1.5935 -2.2884  3.0832
 5445TIP3    H216281   1.294   0.827   5.407  0.2999 -0.4386 -0.4569
 5446TIP3   OH216282   3.215   3.730   3.514  0.2596  0.3724  0.0129
 5446TIP3    H116283   3.129   3.714   3.474 -1.3117  0.3993  3.0337
 5446TIP3    H216284   3.252   3.802   3.464 -1.5999  0.5411 -1.2174
 5447TIP3   OH216285   7.975   0.239   2.395  0.4597  0.0879  0.4249
 5447TIP3    H116286   7.943   0.315   2.346  2.1061 -0.0266 -0.9257
 5447TIP3    H216287   7.961   0.165   2.336  0.8588 -0.3246  0.8423
 5448TIP3   OH216288   5.416   4.446   5.024 -0.5013 -0.0050 -0.5620
 5448TIP3    H116289   5.412   4.361   5.067 -2.1397  0.5639  0.4877
 5448TIP3    H216290   5.505   4.451   4.989  0.4426 -1.1230  1.4967
 5449TIP3   OH216291   5.599   5.765   5.914  0.6087 -0.4259 -0.3291
 5449TIP3    H116292   5.508   5.750   5.941  1.0234 -1.4296  0.5316
 5449TIP3    H216293   5.596   5.850   5.869 -1.0896 -1.2417 -1.9321
 5450TIP3   OH216294   5.643   0.753   5.117 -0.2395  0.1634  0.6532
 5450TIP3    H116295   5.648   0.740   5.211  0.2719 -3.5587  0.2738
 5450TIP3    H216296   5.733   0.772   5.090  0.0432 -1.0088  0.7229
 5451TIP3   OH216297   2.051   5.181   5.585 -0.2610  0.0346  0.0816
 5451TIP3    H116298   2.060   5.116   5.516 -1.0168 -0.6823  0.6335
 5451TIP3    H216299   2.133   5.230   5.583 -0.2968  0.0550 -1.3392
 5452TIP3   OH216300   0.923   5.379   2.578 -0.1226 -0.2329 -0.5290
 5452TIP3    H116301   0.970   5.296   2.589  0.3713 -0.0545 -1.1896
 5452TIP3    H216302   0.904   5.408   2.667  0.2956 -0.7251 -0.2732
 5453TIP3   OH216303   1.320   6.066   4.379 -0.5448 -0.1662 -0.5040
 5453TIP3    H116304   1.257   5.996   4.364 -0.5189 -0.9584  2.4493
 5453TIP3    H216305   1.288   6.111   4.458  2.2841 -0.3118  0.8582
 5454TIP3   OH216306   1.623   6.481   0.367  0.3700 -0.2547  0.2995
 5454TIP3    H116307   1.577   6.420   0.309  0.3017 -1.5033  1.6252
 5454TIP3    H216308   1.709   6.440   0.381  0.4969  0.1831  0.8296
 5455TIP3   OH216309   1.604   5.777   3.146  0.0706  0.1211  0.3125
 5455TIP3    H116310   1.627   5.747   3.058 -1.3808 -0.6834  0.1817
 5455TIP3    H216311   1.583   5.696   3.194 -0.3315  0.6475  1.0372
 5456TIP3   OH216312   6.625   7.218   3.539  0.0326  0.1092 -0.0337
 5456TIP3    H116313   6.704   7.163   3.542 -0.3055 -0.3581  2.0396
 5456TIP3    H216314   6.576   7.185   3.463  1.0395 -0.7299 -0.3504
 5457TIP3   OH216315   2.413   3.290   1.012 -0.0492  0.9995 -0.1706
 5457TIP3    H116316   2.321   3.304   0.988  0.6785  1.5143 -3.1440
 5457TIP3    H216317   2.430   3.199   0.988  0.4718  1.2341 -0.7213
 5458TIP3   OH216318   1.361   1.554   3.125 -0.1592  0.0491 -0.4731
 5458TIP3    H116319   1.308   1.569   3.047  0.8547 -0.8124 -1.3666
 5458TIP3    H216320   1.358   1.459   3.138 -0.7854  0.2182  0.9156
 5459TIP3   OH216321   3.211   4.597   3.673  0.1504  0.2297 -0.1827
 5459TIP3    H116322   3.196   4.513   3.628  0.3849  0.0870 -0.0007
 5459TIP3    H216323   3.142   4.654   3.641 -1.3034 -0.6389  1.2280
 5460TIP3   OH216324   5.379   3.194   1.453  0.1066 -0.1726 -0.5384
 5460TIP3    H116325   5.413   3.189   1.363 -0.4065  0.6589 -0.7806
 5460TIP3    H216326   5.286   3.215   1.443  0.4467  1.9554  0.2114
 5461TIP3   OH216327   4.924   2.287   3.698  0.3737  0.0488 -0.2817
 5461TIP3    H116328   4.927   2.383   3.695 -0.3975  0.0768 -0.5495
 5461TIP3    H216329   4.888   2.262   3.613 -1.2638 -0.3567  0.4946
 5462TIP3   OH216330   6.649   1.333   4.944 -0.4020 -0.0221 -0.0599
 5462TIP3    H116331   6.586   1.322   4.874  1.0589  1.5034 -1.7252
 5462TIP3    H216332   6.711   1.261   4.933 -1.0361 -0.6982  0.6889
 5463TIP3   OH216333   2.226   1.990   3.559  0.2712  0.2888 -0.2662
 5463TIP3    H116334   2.157   1.930   3.530  0.4952 -0.4035  0.5841
 5463TIP3    H216335   2.228   2.058   3.492 -2.9257  1.6846  0.9084
 5464TIP3   OH216336   1.754   5.754   4.246 -0.0908 -0.2038 -0.4268
 5464TIP3    H116337   1.826   5.795   4.295  1.1713 -1.1140 -1.4505
 5464TIP3    H216338   1.721   5.686   4.305  1.5279 -1.4067 -0.8208
 5465TIP3   OH216339   1.768   5.483   4.010 -0.4323 -0.1914  0.2299
 5465TIP3    H116340   1.807   5.447   3.931 -0.4344 -0.0812  0.1776
 5465TIP3    H216341   1.679   5.507   3.984 -0.4826 -0.2947  0.3059
 5466TIP3   OH216342   4.930   7.196   1.949  0.4561 -0.2492  0.4318
 5466TIP3    H116343   4.913   7.289   1.965  0.6873 -0.2617  0.7551
 5466TIP3    H216344   4.864   7.150   2.000  0.0086 -0.2569 -0.1420
 5467TIP3   OH216345   4.818   5.567   0.909 -0.1679  0.2496  0.3777
 5467TIP3    H116346   4.867   5.485   0.899  0.8663  0.8318  0.5423
 5467TIP3    H216347   4.775   5.580   0.825 -0.3050 -0.4334  0.3353
 5468TIP3   OH216348   2.887   4.094   5.926  0.0072  0.1113 -0.2264
 5468TIP3    H116349   2.846   4.156   5.987 -0.9403  1.2661 -1.9647
 5468TIP3    H216350   2.905   4.017   5.980 -1.0798  0.9545  1.4496
 5469TIP3   OH216351   4.018   6.496   5.444 -0.3926  0.2550 -0.4804
 5469TIP3    H116352   4.031   6.586   5.412  0.7722 -0.5444 -2.4917
 5469TIP3    H216353   3.930   6.474   5.415 -1.5977  1.4419  2.0108
 5470TIP3   OH216354   3.766   7.105   6.353  0.2867  0.0644  0.2749
 5470TIP3    H116355   3.840   7.063   6.397  0.4786 -1.4235 -1.3522
 5470TIP3    H216356   3.689   7.054   6.381  0.0100  0.9043  1.0842
 5471TIP3   OH216357   0.331   3.521   6.013 -0.6135 -0.1816  0.1715
 5471TIP3    H116358   0.294   3.609   6.023  0.2413  0.0232  2.0069
 5471TIP3    H216359   0.285   3.468   6.080  1.2823 -0.2612  1.4796
 5472TIP3   OH216360   2.736   7.555   1.987  0.3524 -0.1551  0.1132
 5472TIP3    H116361   2.764   7.641   2.019 -0.8540 -0.2201  1.5033
 5472TIP3    H216362   2.651   7.541   2.029 -0.3613 -1.2176 -1.5775
 5473TIP3   OH216363   1.804   1.056   0.564 -0.3426  0.3505 -0.2511
 5473TIP3    H116364   1.776   0.995   0.632 -1.5579 -0.2627 -1.2469
 5473TIP3    H216365   1.893   1.027   0.542 -1.1835 -1.7072 -1.3004
 5474TIP3   OH216366   5.229   5.367   0.774 -0.3031  0.1604  0.2945
 5474TIP3    H116367   5.319   5.339   0.790 -0.7037 -1.1655  0.2901
 5474TIP3    H216368   5.219   5.447   0.825  1.3183  1.1417 -0.8512
 5475TIP3   OH216369   6.301   6.362   0.913  0.3548 -0.2724 -0.0167
 5475TIP3    H116370   6.323   6.303   0.985  0.0779 -0.1143  0.1998
 5475TIP3    H216371   6.355   6.440   0.929 -0.3527  0.1258  0.5292
 5476TIP3   OH216372   7.811   4.868   6.243 -0.0836  0.7862 -0.2152
 5476TIP3    H116373   7.814   4.773   6.238 -0.1405  0.8370 -1.7062
 5476TIP3    H216374   7.726   4.888   6.284  0.5235  0.1987  1.4029
 5477TIP3   OH216375   4.507   1.183   3.489  0.0251 -0.4514 -0.7114
 5477TIP3    H116376   4.421   1.185   3.446 -0.4268  1.0693  0.1652
 5477TIP3    H216377   4.540   1.272   3.477  1.2983 -0.9075 -0.6458
 5478TIP3   OH216378   3.269   4.540   1.209 -0.1293 -0.5362 -0.1803
 5478TIP3    H116379   3.362   4.553   1.227 -0.5090  1.7907  0.4066
 5478TIP3    H216380   3.251   4.595   1.134 -0.8373 -1.8435 -1.0020
 5479TIP3   OH216381   1.954   5.931   5.514 -0.2022 -0.4444 -0.1566
 5479TIP3    H116382   2.013   5.867   5.555 -0.6367 -0.9432 -0.2930
 5479TIP3    H216383   1.927   5.889   5.432  0.1840  0.2899 -0.6656
 5480TIP3   OH216384   4.110   5.360   5.910 -0.3815 -0.3402  0.3995
 5480TIP3    H116385   4.163   5.340   5.987 -0.0162 -1.1315 -0.0432
 5480TIP3    H216386   4.110   5.278   5.859 -0.0489  0.3661 -0.7734
 5481TIP3   OH216387   7.905   7.353   1.881  0.1775 -0.2386 -0.0042
 5481TIP3    H116388   7.948   7.431   1.846  2.7243 -1.7219 -0.4194
 5481TIP3    H216389   7.939   7.344   1.970  1.9736 -2.2272 -0.8204
 5482TIP3   OH216390   3.000   5.721   3.863  0.6973  0.1063  0.0288
 5482TIP3    H116391   2.955   5.707   3.780  1.6549  2.2484 -0.9345
 5482TIP3    H216392   3.016   5.633   3.897 -0.1341 -0.8201 -1.8062
 5483TIP3   OH216393   4.930   6.189   0.323 -0.2732 -0.4283 -0.4459
 5483TIP3    H116394   5.011   6.149   0.291  0.2416  1.4808 -1.7162
 5483TIP3    H216395   4.861   6.146   0.272  0.4516  1.7552 -3.6380
 5484TIP3   OH216396   6.594   2.778   1.355 -0.4778 -0.3177 -0.3398
 5484TIP3    H116397   6.652   2.725   1.409 -0.5382 -0.1905 -0.1519
 5484TIP3    H216398   6.596   2.865   1.394 -2.5813 -0.8247  1.0857
 5485TIP3   OH216399   3.221   4.158   3.370 -0.2660 -0.0177 -0.0993
 5485TIP3    H116400   3.260   4.244   3.351  0.6162 -0.3951 -0.0445
 5485TIP3    H216401   3.295   4.097   3.367 -0.7160 -0.6310  0.8712
 5486TIP3   OH216402   0.109   3.523   0.532  0.5363 -0.6194  0.2587
 5486TIP3    H116403   0.076   3.589   0.471 -1.8963 -1.7337  0.2413
 5486TIP3    H216404   0.187   3.488   0.491  1.5365  1.7644 -0.0194
 5487TIP3   OH216405   4.150   7.840   4.186 -0.1092 -0.1716 -0.0458
 5487TIP3    H116406   4.093   7.838   4.263  0.1691 -0.2774  0.1602
 5487TIP3    H216407   4.093   7.816   4.113 -0.3454 -0.2060  0.1489
 5488TIP3   OH216408   1.419   3.226   3.357  0.3536  0.0564  0.3034
 5488TIP3    H116409   1.345   3.168   3.376  1.1947 -0.7127  1.3291
 5488TIP3    H216410   1.386   3.314   3.377 -0.5505 -0.1744 -0.0997
 5489TIP3   OH216411   3.261   3.006   6.668  0.6215 -0.5786 -0.0469
 5489TIP3    H116412   3.174   3.041   6.689  0.7321 -0.2235 -0.1876
 5489TIP3    H216413   3.297   2.981   6.753  0.8501  0.3663  0.1467
 5490TIP3   OH216414   3.913   1.493   4.135  0.1401  0.2512  0.0084
 5490TIP3    H116415   3.981   1.515   4.198 -1.6680  0.5923  1.9613
 5490TIP3    H216416   3.857   1.571   4.132 -2.8020 -1.5486  2.1890
 5491TIP3   OH216417   0.263   5.132   4.264 -0.3163 -0.4502  0.2882
 5491TIP3    H116418   0.196   5.063   4.270  1.9711 -2.6799  3.2216
 5491TIP3    H216419   0.334   5.091   4.215  0.1150  0.8077 -0.1684
 5492TIP3   OH216420   2.055   5.531   1.504 -0.0920 -0.0868 -0.1605
 5492TIP3    H116421   2.100   5.456   1.543 -1.0276 -1.0926 -0.9426
 5492TIP3    H216422   2.101   5.546   1.421  1.3215  1.4747  0.8434
 5493TIP3   OH216423   4.535   7.125   1.949  0.2057 -0.5301 -0.3811
 5493TIP3    H116424   4.554   7.200   2.005  1.8186 -0.9130 -0.3770
 5493TIP3    H216425   4.503   7.058   2.009 -1.3066  0.1269 -0.3914
 5494TIP3   OH216426   4.743   0.781   5.654  0.2129 -0.0516  0.9863
 5494TIP3    H116427   4.657   0.773   5.696 -1.2558  1.1182 -1.5774
 5494TIP3    H216428   4.744   0.711   5.589  0.1810  1.3013 -0.5317
 5495TIP3   OH216429   5.905   0.510   3.621 -0.2925  0.0952 -0.1403
 5495TIP3    H116430   5.893   0.568   3.696  0.5415 -0.1026  0.1576
 5495TIP3    H216431   5.913   0.423   3.659  1.0669  0.0946 -0.3586
 5496TIP3   OH216432   1.232   4.650   1.183 -0.1249  0.1516 -0.1918
 5496TIP3    H116433   1.304   4.709   1.205 -0.2559  0.5659 -0.8700
 5496TIP3    H216434   1.183   4.695   1.116 -0.5024 -0.5295 -0.3852
 5497TIP3   OH216435   2.909   1.301   4.265 -0.8444 -0.3542  0.2527
 5497TIP3    H116436   2.900   1.397   4.270 -0.1696 -0.2498 -0.3398
 5497TIP3    H216437   2.983   1.282   4.323  0.6396 -0.2217 -1.5106
 5498TIP3   OH216438   5.669   0.123   2.662 -0.5551  0.3062  0.3806
 5498TIP3    H116439   5.589   0.078   2.635 -0.5246 -0.0299  0.8493
 5498TIP3    H216440   5.639   0.191   2.722 -0.8149  2.1589 -1.7009
 5499TIP3   OH216441   2.211   3.827   2.322 -0.1690 -0.4689  0.1036
 5499TIP3    H116442   2.303   3.828   2.348  0.4281  0.5105 -1.8096
 5499TIP3    H216443   2.190   3.734   2.310  0.4491 -0.7198  0.8838
 5500TIP3   OH216444   2.129   4.770   6.543  0.4403 -0.0800 -0.2676
 5500TIP3    H116445   2.191   4.712   6.587  0.1064 -1.3724 -1.4413
 5500TIP3    H216446   2.060   4.785   6.608  0.9521 -0.2771  0.3384
 5501TIP3   OH216447   5.141   5.555   4.012  0.1731  0.2581 -0.0065
 5501TIP3    H116448   5.145   5.461   3.994  1.3843  0.2814  0.0204
 5501TIP3    H216449   5.059   5.567   4.060 -0.1140 -0.7427 -0.2134
 5502TIP3   OH216450   3.517   4.273   3.594  0.1168  0.3659  0.0526
 5502TIP3    H116451   3.565   4.353   3.570 -0.1327  0.9083  1.2745
 5502TIP3    H216452   3.575   4.202   3.568  0.8467  0.9713 -0.0263
 5503TIP3   OH216453   0.440   2.051   6.189  0.0202 -0.0224  0.9036
 5503TIP3    H116454   0.436   2.022   6.280  1.9886 -3.6071  0.0357
 5503TIP3    H216455   0.531   2.078   6.177 -0.0466 -0.2100 -0.1347
 5504TIP3   OH216456   0.711   3.949   2.914 -0.3734  0.1213  0.1111
 5504TIP3    H116457   0.624   3.910   2.908 -0.5257  0.4193  0.3457
 5504TIP3    H216458   0.745   3.917   2.998  1.1602 -2.8476 -1.4715
 5505TIP3   OH216459   5.092   2.285   2.571  0.2369 -0.6210  0.4876
 5505TIP3    H116460   5.053   2.230   2.503 -0.1616  2.1728 -1.7565
 5505TIP3    H216461   5.186   2.279   2.556  0.1774 -0.4420  0.0287
 5506TIP3   OH216462   1.039   4.881   6.438 -0.1454 -0.4987  0.0791
 5506TIP3    H116463   1.053   4.823   6.363 -0.1454  1.0049 -1.1357
 5506TIP3    H216464   1.125   4.886   6.480 -0.1763 -1.4565  0.2897
 5507TIP3   OH216465   4.441   1.017   6.705  0.0534  0.5765 -0.2105
 5507TIP3    H116466   4.514   1.055   6.656 -1.5480  1.6313 -1.9308
 5507TIP3    H216467   4.481   0.947   6.757  2.2466  0.9980 -1.2056
 5508TIP3   OH216468   6.309   3.181   2.080 -0.2516  1.0358 -0.1040
 5508TIP3    H116469   6.342   3.227   2.158 -0.0393  0.6226  0.0541
 5508TIP3    H216470   6.387   3.166   2.027  0.2796 -1.9501  1.2941
 5509TIP3   OH216471   1.739   1.221   6.481  0.1520 -0.1812  0.1925
 5509TIP3    H116472   1.792   1.141   6.481  0.3527 -0.0525 -0.3822
 5509TIP3    H216473   1.798   1.288   6.446 -0.5492 -0.1424 -0.9455
 5510TIP3   OH216474   3.929   6.956   6.554  0.6797 -0.5206  0.1142
 5510TIP3    H116475   3.941   7.043   6.593  0.7049 -0.5123  0.0881
 5510TIP3    H216476   3.876   6.908   6.618 -3.0701  0.8516 -1.6698
 5511TIP3   OH216477   2.585   0.121   2.866 -0.0772 -0.2082  0.4597
 5511TIP3    H116478   2.538   0.202   2.847 -0.7049 -0.9810 -1.4564
 5511TIP3    H216479   2.579   0.113   2.962  0.1052  2.0262  0.7245
 5512TIP3   OH216480   7.351   1.172   6.711  0.3296 -0.3104  0.0243
 5512TIP3    H116481   7.294   1.243   6.742  0.8245 -0.1591  0.6117
 5512TIP3    H216482   7.291   1.105   6.680 -0.1811 -0.2583  0.8594
 5513TIP3   OH216483   7.750   1.591   5.871  0.1709 -0.2817  0.0795
 5513TIP3    H116484   7.748   1.633   5.785 -0.9294  0.0011  0.2240
 5513TIP3    H216485   7.709   1.506   5.857  2.0690 -1.1933 -0.1349
 5514TIP3   OH216486   6.490   1.201   3.411 -0.3369 -0.5769 -0.0560
 5514TIP3    H116487   6.564   1.259   3.430  0.1956 -1.5511  1.0017
 5514TIP3    H216488   6.429   1.215   3.484  0.8706 -2.9952  1.5649
 5515TIP3   OH216489   8.188   2.081   2.372 -0.3421 -0.5616  0.0525
 5515TIP3    H116490   8.219   2.042   2.454 -1.0164 -0.2332  0.4693
 5515TIP3    H216491   8.206   2.014   2.306  0.0096 -0.9172  0.4982
 5516TIP3   OH216492   4.738   4.199   5.780  0.1068 -0.2850  0.1778
 5516TIP3    H116493   4.739   4.257   5.704 -0.9741  0.8987  1.0196
 5516TIP3    H216494   4.825   4.209   5.820  0.2509  0.0281 -0.2121
 5517TIP3   OH216495   7.698   0.565   3.632  0.4414 -0.4221  0.0799
 5517TIP3    H116496   7.684   0.609   3.717  2.1625 -0.4454  0.4084
 5517TIP3    H216497   7.786   0.528   3.639  1.1525  0.6644 -2.1862
 5518TIP3   OH216498   6.159   1.793   4.976  0.1570  0.5028  0.2731
 5518TIP3    H116499   6.149   1.806   4.882  2.6267 -0.8714 -0.2425
 5518TIP3    H216500   6.096   1.724   4.998 -1.3034  1.6698 -0.0732
 5519TIP3   OH216501   5.517   2.085   6.576  0.5523 -0.3447 -0.7238
 5519TIP3    H116502   5.500   2.133   6.495  0.5332  1.0324  0.0769
 5519TIP3    H216503   5.432   2.076   6.617  0.7254  0.0778 -0.2596
 5520TIP3   OH216504   4.045   4.160   2.086  0.0310  0.0951 -0.0058
 5520TIP3    H116505   3.954   4.155   2.055 -0.4516  0.7671  1.2502
 5520TIP3    H216506   4.080   4.072   2.071 -1.9441 -1.3259  2.7931
 5521TIP3   OH216507   1.117   6.907   6.707 -0.2936 -0.0898 -0.3108
 5521TIP3    H116508   1.150   6.931   6.620  1.7703 -1.6437 -0.0203
 5521TIP3    H216509   1.189   6.926   6.766 -0.7780 -1.3409  0.7253
 5522TIP3   OH216510   3.258   1.836   3.210 -0.0948 -0.3165  0.2581
 5522TIP3    H116511   3.283   1.928   3.207 -1.0128 -0.0582  0.4871
 5522TIP3    H216512   3.304   1.801   3.286  0.0206  0.0147  0.3417
 5523TIP3   OH216513   0.362   0.216   4.449  0.4885  0.3540 -0.4196
 5523TIP3    H116514   0.307   0.228   4.526  2.4543 -0.8954  1.2941
 5523TIP3    H216515   0.378   0.304   4.416 -0.7821  0.8783  0.3048
 5524TIP3   OH216516   0.311   3.114   5.468  0.1018 -0.4066  0.0443
 5524TIP3    H116517   0.354   3.187   5.422 -1.1122  1.9859  2.4151
 5524TIP3    H216518   0.218   3.130   5.456 -0.1874 -1.4927  0.7362
 5525TIP3   OH216519   1.852   4.955   1.199 -0.2351  1.0018  0.6964
 5525TIP3    H116520   1.877   4.888   1.136  1.2031  2.4779 -0.3820
 5525TIP3    H216521   1.860   4.911   1.284  0.3548 -0.2760  0.0111
 5526TIP3   OH216522   2.764   2.577   1.169 -0.0962  0.1663  0.1735
 5526TIP3    H116523   2.829   2.508   1.184 -0.7186 -0.3860  0.3304
 5526TIP3    H216524   2.816   2.651   1.138  0.8234  0.2337  1.7407
 5527TIP3   OH216525   4.079   6.867   4.805 -0.0430 -0.0198  0.5060
 5527TIP3    H116526   4.060   6.780   4.770  2.7640 -0.6968  0.4082
 5527TIP3    H216527   4.130   6.909   4.735  0.4528  0.8906  1.3996
 5528TIP3   OH216528   6.695   1.051   1.365 -0.2725  0.0393 -0.7560
 5528TIP3    H116529   6.626   0.988   1.345  1.1117 -1.5367 -0.7448
 5528TIP3    H216530   6.697   1.053   1.461 -0.5773  0.4221 -0.7538
 5529TIP3   OH216531   5.949   3.371   2.692 -0.0607 -0.4499 -0.6407
 5529TIP3    H116532   5.923   3.285   2.723 -0.8017 -0.0208 -0.0115
 5529TIP3    H216533   5.889   3.389   2.619 -1.5671  0.5101  0.7636
 5530TIP3   OH216534   5.592   6.363   1.553 -0.4159 -0.2125  0.0721
 5530TIP3    H116535   5.564   6.339   1.641 -1.9964  0.8473 -0.1107
 5530TIP3    H216536   5.645   6.288   1.524 -0.2984 -0.8018  1.7040
 5531TIP3   OH216537   1.404   6.803   2.808  0.4299 -0.1779  0.2814
 5531TIP3    H116538   1.425   6.767   2.894  2.1309  0.8560  0.3463
 5531TIP3    H216539   1.468   6.765   2.749  0.8589  0.9915 -0.0449
 5532TIP3   OH216540   4.460   5.557   6.771 -0.7135 -0.3340 -0.1611
 5532TIP3    H116541   4.371   5.582   6.797 -0.0808 -0.9993  3.1421
 5532TIP3    H216542   4.484   5.620   6.704 -2.6726  1.6720  0.8893
 5533TIP3   OH216543   7.889   2.360   4.702  0.3310  0.1658  0.0891
 5533TIP3    H116544   7.947   2.314   4.763  1.3120  1.1239 -0.0865
 5533TIP3    H216545   7.831   2.291   4.667  1.7843 -0.9533 -0.2214
 5534TIP3   OH216546   3.697   0.140   5.284 -0.8345 -0.1191 -0.5222
 5534TIP3    H116547   3.791   0.148   5.270 -0.4366 -1.1664  1.2195
 5534TIP3    H216548   3.679   0.197   5.359 -1.0335 -1.9440  0.9009
 5535TIP3   OH216549   5.853   4.959   5.916  0.0952  0.1432 -0.0396
 5535TIP3    H116550   5.817   5.027   5.972  1.3311  1.2697 -0.5729
 5535TIP3    H216551   5.780   4.900   5.900 -1.1071  1.5342  0.1423
 5536TIP3   OH216552   0.591   4.042   6.138  0.0312  0.4433 -0.2482
 5536TIP3    H116553   0.516   4.072   6.086 -1.0728  0.7438  1.4294
 5536TIP3    H216554   0.567   3.953   6.166  0.4471  0.4144  0.0346
 5537TIP3   OH216555   7.465   3.006   4.655  0.1378 -0.0129  0.4438
 5537TIP3    H116556   7.386   3.019   4.602  0.4287 -1.4798 -0.4097
 5537TIP3    H216557   7.433   3.001   4.745 -0.9056 -1.5174  0.0351
 5538TIP3   OH216558   4.105   2.955   6.463 -0.0475  0.5857  0.2154
 5538TIP3    H116559   4.178   2.897   6.444  0.7686  0.9175  2.0580
 5538TIP3    H216560   4.122   3.033   6.410 -0.7890 -0.5468 -1.7516
 5539TIP3   OH216561   3.038   3.754   3.968  0.2575  0.0432  0.6866
 5539TIP3    H116562   3.025   3.849   3.959 -2.0743 -0.3514 -0.7835
 5539TIP3    H216563   3.038   3.739   4.063  0.2601  1.4597  0.9320
 5540TIP3   OH216564   4.838   0.840   3.808 -0.4999  0.5265 -0.2429
 5540TIP3    H116565   4.856   0.875   3.896  1.9307 -0.2214 -0.3596
 5540TIP3    H216566   4.891   0.895   3.750  0.7748 -1.1896 -0.7844
 5541TIP3   OH216567   1.356   1.530   2.152 -0.0868  0.2224 -0.3392
 5541TIP3    H116568   1.440   1.494   2.181 -0.0243  0.6961  0.0902
 5541TIP3    H216569   1.314   1.459   2.103 -0.0579 -0.5099  0.6719
 5542TIP3   OH216570   2.850   2.159   3.097  0.5528  0.0316  0.0048
 5542TIP3    H116571   2.764   2.182   3.061  0.1606  0.3905  1.1276
 5542TIP3    H216572   2.891   2.244   3.117 -0.0952 -0.1464  2.3248
 5543TIP3   OH216573   0.530   6.423   1.698  0.3151 -0.1338  0.3801
 5543TIP3    H116574   0.527   6.499   1.757 -0.0020  0.4881 -0.4269
 5543TIP3    H216575   0.465   6.442   1.631 -1.0207 -1.9202  1.0931
 5544TIP3   OH216576   1.741   6.889   1.360  0.1473 -0.0633 -0.0555
 5544TIP3    H116577   1.770   6.915   1.448  0.5841 -0.5174 -0.0672
 5544TIP3    H216578   1.816   6.905   1.304 -0.4458  1.1699 -0.5330
 5545TIP3   OH216579   7.916   1.480   4.209  0.0200 -0.0894 -0.4551
 5545TIP3    H116580   7.882   1.443   4.128 -0.7528  1.6815 -0.9913
 5545TIP3    H216581   7.845   1.534   4.243  1.1685  1.1380  0.0998
 5546TIP3   OH216582   2.286   5.336   5.626  0.3563  0.2243  0.3782
 5546TIP3    H116583   2.267   5.405   5.689  0.0914 -1.4707  2.2733
 5546TIP3    H216584   2.355   5.284   5.668  0.0855 -1.0327 -0.6631
 5547TIP3   OH216585   0.784   7.754   4.420 -0.3116 -0.1945 -0.5708
 5547TIP3    H116586   0.741   7.835   4.446 -0.0177 -0.2611  0.1583
 5547TIP3    H216587   0.771   7.695   4.495  1.9432  0.1306  0.1675
 5548TIP3   OH216588   1.192   4.460   2.200  0.1361 -0.6028 -0.4888
 5548TIP3    H116589   1.183   4.486   2.109  1.7583  0.3634 -0.3997
 5548TIP3    H216590   1.286   4.443   2.211  0.0399 -0.2170  1.1213
 5549TIP3   OH216591   1.085   5.028   3.237  0.0533  0.5335  0.2469
 5549TIP3    H116592   1.147   4.967   3.277 -2.5835 -1.6570  1.3519
 5549TIP3    H216593   1.024   5.049   3.308 -2.4357 -0.1893 -1.5299
 5550TIP3   OH216594   7.534   3.480   1.573 -0.1260  0.1032 -0.0039
 5550TIP3    H116595   7.613   3.514   1.615  0.8104  0.3430 -1.8781
 5550TIP3    H216596   7.463   3.533   1.610  0.8228  1.2563  0.2178
 5551TIP3   OH216597   5.539   4.595   6.520  0.5763  0.2674  0.8840
 5551TIP3    H116598   5.465   4.639   6.478  0.1117 -0.9992  0.3351
 5551TIP3    H216599   5.534   4.622   6.612 -2.6348 -2.3151  1.6715
 5552TIP3   OH216600   5.632   0.282   5.124  0.5648  0.3165  0.1104
 5552TIP3    H116601   5.596   0.363   5.089 -0.0148 -0.2889 -0.7233
 5552TIP3    H216602   5.653   0.303   5.216 -0.6049  1.0903  0.2221
 5553TIP3   OH216603   3.240   4.962   4.182  0.5125  0.2024  0.4847
 5553TIP3    H116604   3.171   4.968   4.117  0.7003 -0.8081  0.1637
 5553TIP3    H216605   3.321   4.952   4.131  0.6979 -0.2580  0.8533
 5554TIP3   OH216606   0.443   1.382   2.586  0.1709 -0.0060 -0.2522
 5554TIP3    H116607   0.433   1.396   2.681  0.7240  0.7387 -0.3036
 5554TIP3    H216608   0.537   1.388   2.571 -0.0022  0.9132 -1.0126
 5555TIP3   OH216609   5.571   4.937   6.119 -0.0411  0.2207 -0.0443
 5555TIP3    H116610   5.491   4.990   6.126 -0.9415 -1.2580  1.2147
 5555TIP3    H216611   5.542   4.847   6.131  1.9460 -0.2826  1.4597
 5556TIP3   OH216612   1.719   1.810   3.984 -0.6782  0.3294 -0.1198
 5556TIP3    H116613   1.756   1.808   3.896 -0.7027 -1.2601 -0.1107
 5556TIP3    H216614   1.791   1.842   4.039  0.0646 -0.7860 -0.4109
 5557TIP3   OH216615   6.180   5.251   1.322 -0.6868  0.7687  0.3971
 5557TIP3    H116616   6.222   5.201   1.252 -0.2650  1.4108  0.1859
 5557TIP3    H216617   6.250   5.305   1.359 -1.2388  1.5786  0.2842
 5558TIP3   OH216618   5.095   5.401   6.165  0.8452  0.3417 -0.2880
 5558TIP3    H116619   5.086   5.323   6.111  1.0384  0.7736 -0.9580
 5558TIP3    H216620   5.045   5.381   6.245 -0.5286  0.1700 -1.1548
 5559TIP3   OH216621   6.788   1.332   0.856  0.1192  0.1810 -0.1383
 5559TIP3    H116622   6.794   1.322   0.952 -0.2153  0.0227 -0.1300
 5559TIP3    H216623   6.724   1.402   0.843 -1.9251 -1.5930 -0.2602
 5560TIP3   OH216624   7.588   2.338   3.694  0.0942 -0.1409 -0.5067
 5560TIP3    H116625   7.624   2.280   3.627  0.4014 -0.2279 -0.2657
 5560TIP3    H216626   7.630   2.422   3.677  1.7374 -0.6468  0.8304
 5561TIP3   OH216627   2.430   3.264   0.082  0.1583  0.8149  0.4339
 5561TIP3    H116628   2.354   3.217   0.115  1.2127 -1.6165 -0.3562
 5561TIP3    H216629   2.505   3.212   0.111  1.3226  1.0752 -1.8656
 5562TIP3   OH216630   0.655   0.496   3.767 -0.5522 -0.0576  0.0116
 5562TIP3    H116631   0.594   0.565   3.743  0.3633  1.5685  2.1245
 5562TIP3    H216632   0.733   0.514   3.714  0.1613  1.3612  1.4986
 5563TIP3   OH216633   2.836   3.393   2.880  0.8178 -0.6375 -0.5643
 5563TIP3    H116634   2.741   3.408   2.877  0.7920 -0.7940 -0.5350
 5563TIP3    H216635   2.845   3.304   2.914  0.9667 -0.7603 -0.9220
 5564TIP3   OH216636   5.485   2.172   3.417  0.2940 -0.3098 -0.2245
 5564TIP3    H116637   5.560   2.187   3.474  0.2567  0.5737 -0.3935
 5564TIP3    H216638   5.431   2.108   3.464  0.2272  0.4557  0.7787
 5565TIP3   OH216639   6.096   5.054   4.558 -0.1492  0.3459 -0.2227
 5565TIP3    H116640   6.129   5.113   4.491  2.7355 -0.9383 -0.0910
 5565TIP3    H216641   6.079   5.111   4.634 -1.8491  1.5537 -1.4202
 5566TIP3   OH216642   4.676   6.184   4.140  0.3077 -0.6958 -0.0681
 5566TIP3    H116643   4.583   6.174   4.163  0.5331 -1.1011  0.7215
 5566TIP3    H216644   4.701   6.267   4.180  0.5177 -1.0538  0.5707
 5567TIP3   OH216645   1.584   0.523   5.375 -0.2408  0.0232 -0.0867
 5567TIP3    H116646   1.602   0.584   5.304 -2.1771  1.2227  0.3834
 5567TIP3    H216647   1.661   0.527   5.431 -1.1728  3.9075  1.2002
 5568TIP3   OH216648   1.199   3.965   0.456 -0.2055  0.0711  0.5684
 5568TIP3    H116649   1.169   4.021   0.384  5.1772  1.1513 -1.3047
 5568TIP3    H216650   1.240   3.890   0.412  0.3935 -0.8954  2.6722
 5569TIP3   OH216651   7.653   2.768   3.386 -0.2867  0.2654 -0.5445
 5569TIP3    H116652   7.667   2.862   3.371  3.0530  0.1203  0.6660
 5569TIP3    H216653   7.663   2.758   3.481 -1.1475 -1.2815 -0.5866
 5570TIP3   OH216654   5.868   5.324   1.244 -0.0548 -0.0356 -0.3027
 5570TIP3    H116655   5.864   5.415   1.273 -1.2817 -0.3169  0.4801
 5570TIP3    H216656   5.961   5.302   1.246  0.2549  1.1915 -0.4990
 5571TIP3   OH216657   8.009   0.259   0.913 -0.4931  0.8698  0.6411
 5571TIP3    H116658   8.090   0.297   0.879  0.0278 -0.3630  0.4262
 5571TIP3    H216659   8.024   0.248   1.006 -0.7025  1.3219  0.7299
 5572TIP3   OH216660   0.725   6.669   1.609 -0.0208 -0.5543  0.0711
 5572TIP3    H116661   0.642   6.649   1.652  0.7205 -1.1840  1.2740
 5572TIP3    H216662   0.720   6.762   1.587 -0.9923 -0.5620  0.2365
 5573TIP3   OH216663   7.336   5.477   6.233  0.5069  0.3338 -0.8090
 5573TIP3    H116664   7.251   5.518   6.246 -0.2847 -1.3228 -0.3652
 5573TIP3    H216665   7.366   5.509   6.148  0.0693  1.9713 -0.3746
 5574TIP3   OH216666   1.320   7.379   1.161 -0.3690 -0.5783 -0.3809
 5574TIP3    H116667   1.245   7.427   1.196 -1.3945 -2.5895  0.3638
 5574TIP3    H216668   1.390   7.444   1.156 -2.1008  1.3297 -0.9601
 5575TIP3   OH216669   2.100   7.279   1.316  0.3244 -0.4893  0.0217
 5575TIP3    H116670   2.016   7.315   1.347  0.0909  0.1701 -1.3056
 5575TIP3    H216671   2.100   7.189   1.347 -0.5270 -0.2645  0.7168
 5576TIP3   OH216672   3.512   5.126   2.159 -0.1690  0.2130 -0.5768
 5576TIP3    H116673   3.508   5.041   2.202 -1.3423  0.2770 -0.5504
 5576TIP3    H216674   3.606   5.146   2.156 -0.0674  0.8677  3.2016
 5577TIP3   OH216675   4.430   2.428   0.612 -0.1165  0.3451 -0.3825
 5577TIP3    H116676   4.482   2.508   0.601  0.2543  0.0484 -0.8264
 5577TIP3    H216677   4.437   2.384   0.528  0.9640 -0.9129  0.3297
 5578TIP3   OH216678   2.657   5.437   5.964 -0.3582  0.0962  0.4205
 5578TIP3    H116679   2.715   5.499   6.008 -0.6811 -0.2264  1.3191
 5578TIP3    H216680   2.714   5.394   5.900 -0.1044  1.2211 -0.1367
 5579TIP3   OH216681   2.246   5.778   5.918 -0.0610 -0.1998  0.5694
 5579TIP3    H116682   2.299   5.761   5.996 -0.4969  0.3917  0.9948
 5579TIP3    H216683   2.172   5.829   5.949  1.5954  3.3394 -0.7372
 5580TIP3   OH216684   3.701   1.733   0.720  0.3076 -0.0320 -0.1413
 5580TIP3    H116685   3.775   1.677   0.744  0.4446  0.1200 -0.2129
 5580TIP3    H216686   3.734   1.787   0.648 -0.0374 -0.3426 -0.5391
 5581TIP3   OH216687   2.196   0.927   6.424 -0.2161 -0.1132 -0.0492
 5581TIP3    H116688   2.222   0.838   6.447 -2.5877 -0.8902 -0.1191
 5581TIP3    H216689   2.121   0.916   6.366  0.4818  1.9378 -1.4588
 5582TIP3   OH216690   0.044   2.112   2.605 -0.0444 -0.2859  0.3053
 5582TIP3    H116691   0.073   2.194   2.564 -1.7861 -0.0215 -0.4984
 5582TIP3    H216692   0.089   2.110   2.689  0.9503  0.9059 -0.1709
 5583TIP3   OH216693   2.022   6.424   3.058  0.3853 -0.2688 -0.0467
 5583TIP3    H116694   1.965   6.479   3.004 -0.8340 -2.3694 -1.0087
 5583TIP3    H216695   2.100   6.411   3.004  0.4236  0.0137 -0.0621
 5584TIP3   OH216696   3.603   4.156   6.235  0.2866  0.1484 -0.3510
 5584TIP3    H116697   3.552   4.087   6.192  0.6652  0.7066 -1.7633
 5584TIP3    H216698   3.539   4.225   6.253  0.2756  0.2606 -0.8087
 5585TIP3   OH216699   6.703   5.963   4.022  0.5769  0.4840 -0.5153
 5585TIP3    H116700   6.669   5.876   4.044  2.2723  0.0739  0.6706
 5585TIP3    H216701   6.625   6.016   4.008 -0.5104 -1.2623 -1.4878
 5586TIP3   OH216702   3.039   2.006   1.978 -0.4591 -0.7387  0.2846
 5586TIP3    H116703   3.030   2.072   2.047  0.5722 -0.8564  0.5565
 5586TIP3    H216704   3.002   2.047   1.900 -2.3536 -0.8830  1.0494
 5587TIP3   OH216705   5.078   3.863   2.307 -0.4118  0.7765 -0.0139
 5587TIP3    H116706   5.002   3.881   2.363 -0.0794  2.8851 -0.1802
 5587TIP3    H216707   5.149   3.847   2.369 -0.9794 -1.4762  0.1472
 5588TIP3   OH216708   4.181   6.188   4.882 -0.1558  0.6617 -0.2959
 5588TIP3    H116709   4.177   6.097   4.853  2.1530 -0.0555  1.2945
 5588TIP3    H216710   4.210   6.236   4.805  0.6156 -0.3077 -0.6357
 5589TIP3   OH216711   3.651   1.815   3.639  0.3622 -0.5218  0.0775
 5589TIP3    H116712   3.607   1.731   3.629 -0.9884  0.1343  0.3073
 5589TIP3    H216713   3.703   1.806   3.719 -0.6317 -0.7942  0.7128
 5590TIP3   OH216714   6.375   3.270   6.337  0.2505  0.0024 -0.2252
 5590TIP3    H116715   6.317   3.194   6.328  0.7495 -0.3736 -0.2786
 5590TIP3    H216716   6.342   3.332   6.272  1.0743 -0.9558 -1.6075
 5591TIP3   OH216717   5.997   1.332   6.304  0.5625  0.1405  0.1692
 5591TIP3    H116718   6.036   1.271   6.367 -0.9196 -2.1198 -0.9670
 5591TIP3    H216719   6.067   1.347   6.239  1.7699  1.7325  1.7496
 5592TIP3   OH216720   4.196   1.458   0.792  0.0223  0.1377  0.2770
 5592TIP3    H116721   4.170   1.401   0.865 -0.8317 -0.0710 -0.1771
 5592TIP3    H216722   4.197   1.400   0.716  0.7804  0.3845  0.0887
 5593TIP3   OH216723   4.378   2.312   6.346  0.4359  0.1227 -0.0015
 5593TIP3    H116724   4.307   2.351   6.295 -1.1695 -2.6062 -0.0441
 5593TIP3    H216725   4.458   2.338   6.300 -0.6875  1.1974 -1.4359
 5594TIP3   OH216726   7.689   1.642   6.330  0.3272  0.0141 -0.9346
 5594TIP3    H116727   7.718   1.703   6.263 -1.5055  0.2590 -1.5686
 5594TIP3    H216728   7.747   1.658   6.404  2.0432  0.1315 -2.2429
 5595TIP3   OH216729   5.694   5.994   6.310  0.0235  0.2577  0.2063
 5595TIP3    H116730   5.651   6.069   6.349  1.0823  1.0790 -0.1493
 5595TIP3    H216731   5.691   6.009   6.216  1.3759  0.5392  0.1782
 5596TIP3   OH216732   2.971   3.156   2.391 -0.5438  0.0622 -0.3637
 5596TIP3    H116733   3.008   3.126   2.308  1.7306 -0.5487  0.7669
 5596TIP3    H216734   2.960   3.076   2.443  3.3769  0.6859  1.8452
 5597TIP3   OH216735   2.398   5.207   6.348 -0.1216 -0.1912 -0.9180
 5597TIP3    H116736   2.342   5.134   6.373 -1.5542  1.5556  1.3331
 5597TIP3    H216737   2.484   5.184   6.385 -0.0378 -1.5130 -1.8335
 5598TIP3   OH216738   6.681   2.311   3.015 -0.7139  0.3135  0.5726
 5598TIP3    H116739   6.750   2.253   3.048 -0.1946 -0.6770 -2.0204
 5598TIP3    H216740   6.725   2.396   3.003  0.3020 -0.4536 -1.5997
 5599TIP3   OH216741   3.689   4.088   5.606  0.2270  0.3896  0.1476
 5599TIP3    H116742   3.632   4.052   5.674 -0.0241  0.1621 -0.1813
 5599TIP3    H216743   3.743   4.153   5.652 -1.3097  1.7076  0.1841
 5600TIP3   OH216744   3.119   1.043   1.190  0.3056  0.3283 -0.0544
 5600TIP3    H116745   3.189   1.085   1.239 -0.6869  1.6327  0.3068
 5600TIP3    H216746   3.137   1.065   1.098  0.7829  0.0117 -0.0372
 5601TIP3   OH216747   4.883   1.318   5.275  0.5781  0.0503 -0.0114
 5601TIP3    H116748   4.810   1.378   5.283  0.5836  0.0550  0.0050
 5601TIP3    H216749   4.924   1.340   5.191  0.4815 -0.0405 -0.0828
 5602TIP3   OH216750   0.572   3.908   0.968  0.4594 -0.4170 -0.2683
 5602TIP3    H116751   0.573   3.846   0.895 -0.7349 -1.0424  0.2154
 5602TIP3    H216752   0.542   3.856   1.043 -1.8315  0.9933 -0.1200
 5603TIP3   OH216753   3.449   4.848   5.598 -0.0229 -0.4438  0.0037
 5603TIP3    H116754   3.449   4.839   5.693 -1.3231 -2.2575 -0.1149
 5603TIP3    H216755   3.534   4.813   5.571  0.0581 -0.6077  0.4625
 5604TIP3   OH216756   4.132   3.343   3.642 -0.5933 -0.4019 -0.4012
 5604TIP3    H116757   4.125   3.260   3.689 -0.3248  0.2642  0.8501
 5604TIP3    H216758   4.145   3.409   3.710  2.6949  0.2881 -1.5033
 5605TIP3   OH216759   0.340   5.659   0.773  0.0007  0.1536  0.1915
 5605TIP3    H116760   0.369   5.651   0.682  0.2644  0.3291  0.2599
 5605TIP3    H216761   0.343   5.569   0.807 -2.5652 -0.3627 -0.7069
 5606TIP3   OH216762   2.195   0.483   2.671  0.2012 -0.1794 -0.8286
 5606TIP3    H116763   2.103   0.465   2.651 -0.1107  0.0694  0.2781
 5606TIP3    H216764   2.228   0.402   2.709 -0.6654  0.7812  2.3352
 5607TIP3   OH216765   3.100   1.177   4.513  0.4182  0.1420  0.3515
 5607TIP3    H116766   3.100   1.256   4.567 -1.1996  0.6974 -0.3786
 5607TIP3    H216767   3.150   1.113   4.564  1.1541  1.4069  1.2881
 5608TIP3   OH216768   5.773   2.231   2.882  0.0056  0.5392 -0.1758
 5608TIP3    H116769   5.830   2.286   2.936 -0.2203  0.1731  0.4424
 5608TIP3    H216770   5.800   2.142   2.902 -0.9980  0.3364  0.3967
 5609TIP3   OH216771   7.944   0.794   3.417 -0.3436 -0.0500 -0.2155
 5609TIP3    H116772   7.867   0.852   3.423 -1.2526 -1.1960 -0.4278
 5609TIP3    H216773   7.981   0.795   3.505 -2.0585 -1.3848  0.5804
 5610TIP3   OH216774   5.432   1.613   4.357  0.2640 -0.2162  0.0514
 5610TIP3    H116775   5.503   1.664   4.397  2.8912 -1.7242 -2.3186
 5610TIP3    H216776   5.390   1.674   4.296  0.5995  0.2312  0.2572
 5611TIP3   OH216777   0.528   3.975   5.767 -0.8662 -0.0602 -0.0848
 5611TIP3    H116778   0.553   3.890   5.802  0.6896  0.2421 -0.4075
 5611TIP3    H216779   0.567   3.977   5.679  1.2963  1.9276  0.8275
 5612TIP3   OH216780   5.373   5.033   4.656  0.4009 -0.2695 -0.0494
 5612TIP3    H116781   5.290   4.985   4.652  0.2913 -0.1220  0.3720
 5612TIP3    H216782   5.394   5.037   4.749  0.7214 -0.0287 -0.1286
 5613TIP3   OH216783   2.362   1.519   5.110 -0.0416  0.4607  0.2674
 5613TIP3    H116784   2.347   1.489   5.199 -0.1846  0.2498  0.1733
 5613TIP3    H216785   2.274   1.536   5.075 -0.0450 -0.2858 -0.1142
 5614TIP3   OH216786   5.473   6.108   1.161 -0.0993 -0.1458  0.1207
 5614TIP3    H116787   5.486   6.169   1.088  2.3234  0.0106  0.5776
 5614TIP3    H216788   5.423   6.157   1.225  0.0604  0.6606 -0.3607
 5615TIP3   OH216789   1.996   4.126   6.636 -0.4486 -0.2520  0.2260
 5615TIP3    H116790   2.085   4.123   6.602 -0.8277 -2.9676 -0.7186
 5615TIP3    H216791   2.006   4.121   6.731  0.4167  1.0187  0.2199
 5616TIP3   OH216792   7.639   3.636   2.370  0.1719 -0.2417 -0.5283
 5616TIP3    H116793   7.710   3.700   2.358 -0.1103  0.2986  0.5379
 5616TIP3    H216794   7.671   3.556   2.329  0.4087  0.6609 -2.1789
 5617TIP3   OH216795   4.561   2.930   6.346 -0.6927 -0.4703  0.4380
 5617TIP3    H116796   4.515   3.002   6.303 -1.0172 -1.7038 -1.3954
 5617TIP3    H216797   4.646   2.925   6.301 -0.0488 -0.2864  1.5873
 5618TIP3   OH216798   2.392   7.837   0.211 -0.6450 -0.2932  0.0109
 5618TIP3    H116799   2.383   7.761   0.269  0.1892 -0.0990  0.4063
 5618TIP3    H216800   2.450   7.897   0.258  1.1293 -0.6831 -1.5607
 5619TIP3   OH216801   1.116   5.841   4.372  0.2933 -0.4814 -0.4558
 5619TIP3    H116802   1.159   5.764   4.409 -0.7891 -0.5280  0.7761
 5619TIP3    H216803   1.037   5.852   4.424  0.1125  1.1109 -1.0034
 5620TIP3   OH216804   7.067   7.610   0.744  0.3020  0.4125  0.0463
 5620TIP3    H116805   7.068   7.705   0.750 -2.1419  0.4800  0.3873
 5620TIP3    H216806   6.989   7.583   0.792  2.4917 -2.0363  2.5517
 5621TIP3   OH216807   3.084   6.472   3.754 -0.5305 -0.0137 -0.1165
 5621TIP3    H116808   3.133   6.512   3.682 -0.4606 -1.0747 -0.6752
 5621TIP3    H216809   3.122   6.510   3.833  1.4679 -1.0809 -0.5163
 5622TIP3   OH216810   5.351   5.686   6.611 -0.2307 -0.0304  0.1133
 5622TIP3    H116811   5.425   5.633   6.582  0.3752  1.8420 -2.0828
 5622TIP3    H216812   5.372   5.775   6.582 -3.5153  0.5154 -1.0467
 5623TIP3   OH216813   1.155   0.527   3.204 -0.0837 -0.1691 -0.1927
 5623TIP3    H116814   1.228   0.568   3.157 -0.1558  1.2316  0.8751
 5623TIP3    H216815   1.195   0.452   3.248  0.1312 -1.0787 -1.8379
 5624TIP3   OH216816   3.994   2.865   2.147  0.4598  0.3940 -0.5306
 5624TIP3    H116817   3.957   2.785   2.185 -2.6394  1.5889 -0.6941
 5624TIP3    H216818   4.054   2.897   2.214  1.0682 -1.5587 -0.0685
 5625TIP3   OH216819   1.160   3.554   0.562 -0.4028  0.2685 -0.7621
 5625TIP3    H116820   1.098   3.580   0.493 -0.3305 -0.6475 -1.1909
 5625TIP3    H216821   1.135   3.464   0.584  0.2139  0.2034 -0.3055
 5626TIP3   OH216822   6.322   6.663   5.530  0.2537 -0.4385 -0.4145
 5626TIP3    H116823   6.355   6.729   5.469 -0.4771  1.2077  0.8832
 5626TIP3    H216824   6.253   6.708   5.579 -0.5348 -2.3016  0.2795
 5627TIP3   OH216825   4.481   3.190   1.387 -0.1736  0.5674 -0.0275
 5627TIP3    H116826   4.444   3.258   1.331 -0.5510  0.1901 -0.2402
 5627TIP3    H216827   4.536   3.238   1.450  1.3290  0.9081 -1.5286
 5628TIP3   OH216828   7.461   0.401   2.497 -0.6052  0.3256  0.0784
 5628TIP3    H116829   7.472   0.496   2.505 -1.6928  0.4889 -0.2956
 5628TIP3    H216830   7.531   0.365   2.552  0.3483  1.3212 -0.4335
 5629TIP3   OH216831   7.528   3.217   2.191  0.4352  0.1078  0.4930
 5629TIP3    H116832   7.578   3.197   2.270 -0.4140 -1.2442  0.7187
 5629TIP3    H216833   7.588   3.198   2.119  0.3169 -1.4363  0.7640
 5630TIP3   OH216834   7.432   0.326   5.400 -0.2986 -0.0678  0.2970
 5630TIP3    H116835   7.378   0.248   5.413 -0.5989  0.0224 -0.3585
 5630TIP3    H216836   7.494   0.325   5.473 -0.8335 -0.4671  0.7505
 5631TIP3   OH216837   5.898   5.120   6.520  0.3744 -0.3388  0.4320
 5631TIP3    H116838   5.973   5.065   6.498  1.3285  2.3489 -4.5680
 5631TIP3    H216839   5.822   5.070   6.489  0.9288 -0.2098 -1.2591
 5632TIP3   OH216840   7.070   6.930   0.733  0.0225 -0.3458 -0.0983
 5632TIP3    H116841   7.099   7.018   0.760 -1.3484 -0.3292  1.4632
 5632TIP3    H216842   6.978   6.926   0.759  0.0295 -2.2126 -0.2486
 5633TIP3   OH216843   0.897   1.899   3.170 -0.1381 -0.0294 -0.1647
 5633TIP3    H116844   0.910   1.845   3.248 -0.4041 -1.9603 -1.3824
 5633TIP3    H216845   0.937   1.848   3.099 -0.0543  1.5851 -1.3335
 5634TIP3   OH216846   6.533   4.991   1.275  0.1399 -0.0938 -0.9541
 5634TIP3    H116847   6.478   4.915   1.295  1.5110 -0.8648  0.1072
 5634TIP3    H216848   6.525   5.046   1.353  0.2373  0.1664 -1.1299
 5635TIP3   OH216849   6.459   1.612   2.769  0.8080 -0.2314  0.6159
 5635TIP3    H116850   6.509   1.692   2.750 -1.5746  1.3872  0.7384
 5635TIP3    H216851   6.526   1.544   2.778  2.8450  1.3920 -1.0827
 5636TIP3   OH216852   7.444   4.419   0.603  0.3866  0.0398  0.2662
 5636TIP3    H116853   7.447   4.495   0.661 -1.0978  0.3422 -0.0182
 5636TIP3    H216854   7.536   4.393   0.594  1.0943  2.5634 -0.6760
 5637TIP3   OH216855   1.372   4.660   2.634 -0.0068  0.7983  0.3444
 5637TIP3    H116856   1.445   4.692   2.581  0.1401 -0.0393  0.0162
 5637TIP3    H216857   1.411   4.639   2.718  0.0744  0.6219  0.2632
 5638TIP3   OH216858   7.316   0.383   0.837  0.4962 -0.2558  0.0935
 5638TIP3    H116859   7.307   0.326   0.913 -1.5151  0.3354  0.3672
 5638TIP3    H216860   7.284   0.331   0.764 -1.8461  0.5806  0.4248
 5639TIP3   OH216861   7.724   2.513   6.556 -0.1692  0.1832  0.7652
 5639TIP3    H116862   7.719   2.595   6.606 -1.0932 -0.7441  2.2787
 5639TIP3    H216863   7.764   2.538   6.473 -0.2231  2.1277  1.2719
 5640TIP3   OH216864   6.958   4.239   1.808  0.2311  0.1263 -0.6119
 5640TIP3    H116865   7.006   4.251   1.890 -1.6016  0.2306  0.5047
 5640TIP3    H216866   6.958   4.145   1.794  0.8251  0.1323 -0.6704
 5641TIP3   OH216867   0.777   6.880   3.945 -0.3988 -0.4794  0.7258
 5641TIP3    H116868   0.694   6.834   3.945  0.0056 -1.2802 -1.3197
 5641TIP3    H216869   0.841   6.815   3.974  0.1092 -1.1806 -1.7746
 5642TIP3   OH216870   0.748   5.782   5.734  0.0569 -0.6588  0.1759
 5642TIP3    H116871   0.687   5.765   5.662 -0.0804 -1.6220  0.5074
 5642TIP3    H216872   0.748   5.701   5.785 -1.1052  0.5559  2.2161
 5643TIP3   OH216873   0.435   6.927   5.662 -0.1812  0.3676 -0.9972
 5643TIP3    H116874   0.500   6.866   5.695 -0.9555 -0.7806 -1.5421
 5643TIP3    H216875   0.378   6.945   5.737  0.1570  0.5769 -0.7890
 5644TIP3   OH216876   8.091   2.218   5.192 -0.4500  0.0596  0.0569
 5644TIP3    H116877   8.055   2.130   5.181 -2.3951  0.7936  0.2542
 5644TIP3    H216878   8.172   2.216   5.141 -0.0027 -2.0757  0.7360
 5645TIP3   OH216879   3.680   4.726   5.194 -0.4509 -0.5405 -0.1517
 5645TIP3    H116880   3.617   4.791   5.228  1.3287  1.8869 -1.2309
 5645TIP3    H216881   3.653   4.644   5.235 -2.6714  0.8956  1.5275
 5646TIP3   OH216882   2.664   5.510   5.056 -0.5825  0.6996 -0.5297
 5646TIP3    H116883   2.704   5.562   5.126 -1.3316 -0.7275  1.0259
 5646TIP3    H216884   2.570   5.528   5.063 -0.7389 -0.0648 -0.6561
 5647TIP3   OH216885   0.641   7.333   2.823 -0.1859  0.1702 -0.0619
 5647TIP3    H116886   0.696   7.363   2.750  0.1478  2.3535  1.0216
 5647TIP3    H216887   0.554   7.369   2.804 -0.3509 -0.1256  0.1233
 5648TIP3   OH216888   4.179   3.729   4.925 -0.7083 -0.3229  0.2015
 5648TIP3    H116889   4.240   3.656   4.937  0.0544  0.2851  0.1277
 5648TIP3    H216890   4.221   3.802   4.969  0.8872  1.3041 -3.5513
 5649TIP3   OH216891   6.631   0.668   1.130  0.3363 -0.5980 -0.1720
 5649TIP3    H116892   6.712   0.652   1.081  0.0067 -2.6339 -0.1664
 5649TIP3    H216893   6.572   0.599   1.100 -0.6719 -0.4483  1.3651
 5650TIP3   OH216894   2.163   2.379   0.996 -0.5716 -0.1163  0.3320
 5650TIP3    H116895   2.134   2.299   1.041 -4.8301  1.8767  1.5706
 5650TIP3    H216896   2.218   2.423   1.061 -0.0338 -0.9517  0.4719
 5651TIP3   OH216897   6.306   3.509   3.195  0.1106  0.0712  0.2640
 5651TIP3    H116898   6.253   3.493   3.118  0.2358  2.0460 -0.2636
 5651TIP3    H216899   6.247   3.550   3.258  0.4455  0.0853  0.5774
 5652TIP3   OH216900   7.751   7.536   4.099  0.1801  0.0246 -0.1754
 5652TIP3    H116901   7.725   7.461   4.154 -1.0751  1.3909  1.1949
 5652TIP3    H216902   7.835   7.510   4.061 -0.3252 -2.1599  0.0699
 5653TIP3   OH216903   5.636   4.817   5.786 -0.0257 -0.1156  0.1171
 5653TIP3    H116904   5.623   4.807   5.691 -0.1908  0.0308  0.1244
 5653TIP3    H216905   5.548   4.828   5.821 -0.2460 -2.6691  0.6003
 5654TIP3   OH216906   5.275   4.660   6.351  0.0104 -0.0724  0.7096
 5654TIP3    H116907   5.230   4.584   6.313 -0.5939  0.6962 -0.1396
 5654TIP3    H216908   5.210   4.701   6.408  0.3162 -0.1468  1.1189
 5655TIP3   OH216909   6.648   1.579   3.546 -0.0709 -0.1550 -0.0509
 5655TIP3    H116910   6.630   1.602   3.454  1.2122  1.5969  0.0869
 5655TIP3    H216911   6.568   1.602   3.593  0.0105  0.9208 -0.4310
 5656TIP3   OH216912   3.358   5.636   0.038  0.1210  0.6253 -0.4425
 5656TIP3    H116913   3.302   5.659   0.112  0.5195 -2.4853  1.0126
 5656TIP3    H216914   3.447   5.650   0.070  0.2748  0.3305 -0.7388
 5657TIP3   OH216915   2.796   5.913   3.565  0.0534  0.4386 -0.0301
 5657TIP3    H116916   2.886   5.930   3.536 -0.3228  3.0252  0.1218
 5657TIP3    H216917   2.800   5.825   3.603  2.5370  0.4882  0.0171
 5658TIP3   OH216918   0.573   2.639   2.411  0.4730 -0.2229  0.1560
 5658TIP3    H116919   0.479   2.627   2.427  0.7231 -0.1284  1.8106
 5658TIP3    H216920   0.609   2.663   2.496  2.0365 -0.4217 -0.4260
 5659TIP3   OH216921   2.129   5.187   0.579 -0.1914 -0.0501 -0.3943
 5659TIP3    H116922   2.155   5.280   0.576 -1.7383  0.3882 -2.4791
 5659TIP3    H216923   2.109   5.171   0.671  0.3928  1.6051  0.0632
 5660TIP3   OH216924   2.176   6.167   3.758  0.5091  0.0679  0.3825
 5660TIP3    H116925   2.164   6.225   3.683  0.7687 -0.7175 -0.2890
 5660TIP3    H216926   2.089   6.154   3.794  0.1619 -0.6573 -0.6564
 5661TIP3   OH216927   5.464   2.233   3.799  0.4842  0.6437  0.0873
 5661TIP3    H116928   5.445   2.191   3.883  0.0070  0.5083 -0.0821
 5661TIP3    H216929   5.388   2.289   3.784  0.9834  1.3590  0.1756
 5662TIP3   OH216930   1.941   4.103   3.354  0.3206 -0.2038  0.3808
 5662TIP3    H116931   1.899   4.167   3.412  1.6765  1.1545 -0.0534
 5662TIP3    H216932   2.007   4.060   3.409  0.3053 -0.2812  0.3383
 5663TIP3   OH216933   8.044   1.826   5.558 -0.3492  0.0593 -0.5614
 5663TIP3    H116934   8.045   1.732   5.579  0.7991  0.2079  0.1459
 5663TIP3    H216935   8.061   1.869   5.642 -1.1637  0.9231 -0.8278
 5664TIP3   OH216936   4.666   3.627   6.510 -0.5699  0.2943  0.1136
 5664TIP3    H116937   4.714   3.690   6.563 -0.1007  1.0800 -1.1815
 5664TIP3    H216938   4.614   3.576   6.572 -1.1238  2.0976  1.1843
 5665TIP3   OH216939   7.820   0.562   1.791  0.1214 -0.8619  0.1791
 5665TIP3    H116940   7.835   0.643   1.743 -1.1392 -0.3223  0.6445
 5665TIP3    H216941   7.757   0.513   1.738 -0.1544 -0.9196  0.5498
 5666TIP3   OH216942   3.455   7.212   6.033  0.1084  0.1850  0.0698
 5666TIP3    H116943   3.488   7.266   6.104  0.8832  0.5369 -0.5399
 5666TIP3    H216944   3.386   7.265   5.992  0.2817  0.3573  0.0004
 5667TIP3   OH216945   0.368   6.712   3.806  0.2578  0.2536 -0.2694
 5667TIP3    H116946   0.451   6.750   3.834 -1.1699  1.8469  2.0608
 5667TIP3    H216947   0.393   6.627   3.769  2.8886  0.5859  0.5240
 5668TIP3   OH216948   6.828   4.089   4.309  0.0740  0.0433 -0.1366
 5668TIP3    H116949   6.822   4.125   4.398 -2.0990 -0.3860 -0.0359
 5668TIP3    H216950   6.910   4.123   4.274  1.9464 -1.2678  2.6704
 5669TIP3   OH216951   8.259   3.060   4.720 -0.2478 -0.0110 -0.0526
 5669TIP3    H116952   8.259   3.154   4.704 -1.7336  0.1818  0.8701
 5669TIP3    H216953   8.289   3.021   4.638  3.3448  1.3381  0.4514
 5670TIP3   OH216954   5.126   2.106   6.443  0.1112  0.1668 -0.5457
 5670TIP3    H116955   5.049   2.052   6.464 -0.5154  0.7161 -1.3700
 5670TIP3    H216956   5.146   2.151   6.525 -0.2201 -0.2537 -0.2245
 5671TIP3   OH216957   7.415   5.165   5.044  0.1032  0.2397 -0.4284
 5671TIP3    H116958   7.454   5.233   4.990  3.5241 -0.8021  0.4993
 5671TIP3    H216959   7.416   5.087   4.989  1.4856 -0.2956  0.3010
 5672TIP3   OH216960   7.182   0.674   0.678 -0.6992 -1.0339 -0.1643
 5672TIP3    H116961   7.208   0.744   0.738 -0.6641 -0.5504 -0.7377
 5672TIP3    H216962   7.251   0.672   0.612 -2.3896  0.7345 -2.1162
 5673TIP3   OH216963   6.527   6.290   5.836  0.1724  0.3642  0.1532
 5673TIP3    H116964   6.606   6.289   5.782  0.4679  0.7041  0.5775
 5673TIP3    H216965   6.461   6.330   5.780  0.0436 -0.7768 -0.5449
 5674TIP3   OH216966   0.035   6.478   6.747 -1.2003 -0.6067 -0.0019
 5674TIP3    H116967  -0.042   6.449   6.697 -0.9103 -1.9774  0.2855
 5674TIP3    H216968   0.109   6.437   6.701 -0.7136  0.0715  0.1673
 5675TIP3   OH216969   7.901   1.633   0.124 -0.3662 -0.7298  0.0848
 5675TIP3    H116970   7.857   1.697   0.068  0.0720 -0.5586 -0.0742
 5675TIP3    H216971   7.882   1.549   0.083 -1.7069 -0.7923  0.8163
 5676TIP3   OH216972   4.647   5.229   4.300  0.1970 -0.1170 -0.2829
 5676TIP3    H116973   4.734   5.261   4.325 -0.5919  0.9229  1.2521
 5676TIP3    H216974   4.649   5.136   4.324  0.2599  0.3271  1.6477
 5677TIP3   OH216975   2.473   4.812   6.214 -0.0197 -0.2932  0.1538
 5677TIP3    H116976   2.466   4.833   6.308  1.3108  0.1957  0.1642
 5677TIP3    H216977   2.472   4.717   6.211  0.5056 -0.3246  0.7253
 5678TIP3   OH216978   5.881   7.785   1.841 -0.1671  0.0455  0.0672
 5678TIP3    H116979   5.917   7.746   1.920  1.0348  1.4161  0.2367
 5678TIP3    H216980   5.805   7.835   1.872 -0.4922 -0.4845  0.1428
 5679TIP3   OH216981   2.253   0.320   5.541  0.3852  0.6007 -0.3840
 5679TIP3    H116982   2.303   0.357   5.613 -0.0180 -1.4597  1.0353
 5679TIP3    H216983   2.319   0.295   5.476  0.9495  0.5036  0.2158
 5680TIP3   OH216984   4.132   2.363   4.705  0.5650 -0.4208  0.3768
 5680TIP3    H116985   4.202   2.368   4.769  0.1217 -0.5895  0.8837
 5680TIP3    H216986   4.115   2.269   4.695  0.5411 -0.3894  0.1116
 5681TIP3   OH216987   6.939   6.606   2.622 -0.4799 -0.4127 -0.2050
 5681TIP3    H116988   6.919   6.671   2.689  0.6745 -1.2456  0.9988
 5681TIP3    H216989   6.871   6.540   2.632 -0.3908 -0.4665  0.0692
 5682TIP3   OH216990   6.908   3.118   5.584 -0.4088  0.2590  0.2370
 5682TIP3    H116991   6.988   3.095   5.630  1.1903 -0.3530 -2.6058
 5682TIP3    H216992   6.841   3.062   5.622  1.3814 -2.1762  0.0235
 5683TIP3   OH216993   4.133   0.742   2.858 -0.5177 -0.8049  0.2339
 5683TIP3    H116994   4.158   0.710   2.944  0.8763  0.1102  0.2024
 5683TIP3    H216995   4.106   0.832   2.872  0.4432 -0.4034 -0.3628
 5684TIP3   OH216996   7.848   4.194   2.979  0.4362  0.6462  0.1070
 5684TIP3    H116997   7.775   4.193   3.042 -0.0192  0.7105 -0.4130
 5684TIP3    H216998   7.894   4.276   2.997  0.4447  0.5598  0.5038
 5685TIP3   OH216999   0.977   4.097   5.708  0.0059  0.0849  0.2494
 5685TIP3    H117000   0.987   4.181   5.664 -0.5065 -0.4122 -0.8615
 5685TIP3    H217001   0.899   4.107   5.762 -0.6182  0.0552 -0.6079
 5686TIP3   OH217002   1.622   4.240   1.482  0.4765  0.1111  0.0487
 5686TIP3    H117003   1.640   4.284   1.565  1.4877  1.6365 -0.9377
 5686TIP3    H217004   1.574   4.304   1.430  1.0997 -0.2933 -1.0574
 5687TIP3   OH217005   2.444   5.611   4.860 -0.2002 -0.1796 -0.2235
 5687TIP3    H117006   2.361   5.599   4.814 -0.2681 -0.7165  0.0323
 5687TIP3    H217007   2.443   5.703   4.887 -1.7964 -0.7333  1.8435
 5688TIP3   OH217008   6.889   2.797   6.437 -0.4827 -0.5071 -0.3888
 5688TIP3    H117009   6.864   2.829   6.524 -1.1255  1.2876 -1.1880
 5688TIP3    H217010   6.976   2.835   6.422 -0.4284 -0.7085 -0.5917
 5689TIP3   OH217011   3.558   5.948   2.485  0.1005  0.8004  0.1600
 5689TIP3    H117012   3.529   6.022   2.433 -1.5747 -0.2185 -0.4215
 5689TIP3    H217013   3.553   5.978   2.576  0.3480  1.6874 -0.1173
 5690TIP3   OH217014   8.210   3.829   3.533 -0.2310 -0.4402  0.5672
 5690TIP3    H117015   8.213   3.858   3.624  0.3833 -3.4203  1.6203
 5690TIP3    H217016   8.162   3.898   3.487  0.9224  1.9992  2.7575
 5691TIP3   OH217017   7.889   6.423   4.835 -0.4718  0.1675 -0.0669
 5691TIP3    H117018   7.918   6.369   4.761 -0.1965  1.0874 -0.6431
 5691TIP3    H217019   7.882   6.511   4.799  1.5682  1.0372  1.4747
 5692TIP3   OH217020   2.501   2.554   2.057 -0.1506 -0.2832  0.0823
 5692TIP3    H117021   2.540   2.641   2.056 -0.8198  0.0316 -2.0781
 5692TIP3    H217022   2.575   2.495   2.041 -0.2572  0.2296 -2.7680
 5693TIP3   OH217023   1.136   2.288   4.860 -0.3061 -0.2141 -0.2654
 5693TIP3    H117024   1.189   2.321   4.933  0.0133 -1.1519 -0.0551
 5693TIP3    H217025   1.150   2.351   4.790  2.3176 -1.1676 -0.7177
 5694TIP3   OH217026   4.654   3.618   5.749 -0.3797 -0.5341  0.3536
 5694TIP3    H117027   4.727   3.671   5.718 -0.4067  0.6723  2.2129
 5694TIP3    H217028   4.577   3.655   5.706 -0.0813 -0.9513 -0.5715
 5695TIP3   OH217029   4.864   6.247   3.250  0.4341 -0.1307 -0.6334
 5695TIP3    H117030   4.796   6.269   3.314  0.0199  2.2572 -1.7788
 5695TIP3    H217031   4.946   6.274   3.291  0.1650  1.4401 -1.0740
 5696TIP3   OH217032   3.250   2.773   6.375  0.3543  0.1546  0.3987
 5696TIP3    H117033   3.196   2.729   6.309  0.2201 -0.7767  1.1046
 5696TIP3    H217034   3.289   2.847   6.328 -0.4640  0.0627 -0.4797
 5697TIP3   OH217035   7.859   3.521   3.060  0.1501 -0.2911 -0.1482
 5697TIP3    H117036   7.816   3.494   3.140 -0.3909  0.7166 -0.0865
 5697TIP3    H217037   7.910   3.445   3.033 -2.0271 -1.6963 -0.4962
 5698TIP3   OH217038   5.932   7.390   5.900 -1.0714 -0.2817  0.2580
 5698TIP3    H117039   5.911   7.317   5.842 -0.9627  1.1010 -1.6197
 5698TIP3    H217040   5.853   7.444   5.899 -0.7610  0.1827  0.7608
 5699TIP3   OH217041   0.555   2.443   5.379  0.3809 -0.1720 -0.1172
 5699TIP3    H117042   0.570   2.536   5.397  0.1397 -0.0694 -0.4335
 5699TIP3    H217043   0.517   2.442   5.291  0.6462 -0.5923 -0.2265
 5700TIP3   OH217044   1.806   6.630   5.031  0.3381 -0.5643 -0.1074
 5700TIP3    H117045   1.767   6.608   4.947  0.3769  0.3426 -0.3750
 5700TIP3    H217046   1.830   6.546   5.070  0.2564 -0.9912 -0.9686
 5701TIP3   OH217047   6.250   7.711   1.965  0.1063  0.6053  0.1711
 5701TIP3    H117048   6.334   7.679   1.998 -0.5402 -0.1675  1.1216
 5701TIP3    H217049   6.266   7.803   1.944  1.4072  0.2620 -0.4836
 5702TIP3   OH217050   3.506   6.392   0.763 -0.6843 -0.3398 -0.2884
 5702TIP3    H117051   3.533   6.481   0.785  0.3801  0.1884 -3.1663
 5702TIP3    H217052   3.445   6.403   0.689 -0.0683 -1.9743 -1.1062
 5703TIP3   OH217053   0.593   5.125   1.473 -0.8030 -0.5167  0.3079
 5703TIP3    H117054   0.615   5.041   1.433 -0.7141 -0.7172  0.7681
 5703TIP3    H217055   0.518   5.157   1.423 -1.1964 -1.1441  0.4887
 5704TIP3   OH217056   6.287   4.367   3.565  0.5442  0.3528  0.8584
 5704TIP3    H117057   6.270   4.405   3.652 -1.3180  0.0947  0.6575
 5704TIP3    H217058   6.244   4.427   3.504  0.7951 -0.1170  0.2086
 5705TIP3   OH217059   5.988   4.238   3.608 -0.2437  0.2187  0.6357
 5705TIP3    H117060   5.941   4.166   3.565  1.2134 -0.5462  0.2680
 5705TIP3    H217061   6.063   4.196   3.650 -0.5433  1.2460  2.2805
 5706TIP3   OH217062   0.924   3.227   3.797  0.2019  0.1250  0.1059
 5706TIP3    H117063   0.967   3.144   3.776 -0.6417  0.1475 -1.9775
 5706TIP3    H217064   0.845   3.202   3.845 -0.0722 -0.2899 -0.5533
 5707TIP3   OH217065   1.428   2.640   2.502  0.3551  0.3115 -0.1317
 5707TIP3    H117066   1.361   2.708   2.497  1.2831  1.1932 -0.9814
 5707TIP3    H217067   1.427   2.613   2.594 -1.1342  0.3012 -0.1149
 5708TIP3   OH217068   3.235   4.377   4.322  0.4868 -0.5473  0.6142
 5708TIP3    H117069   3.318   4.350   4.360  0.0841 -2.2143  0.3847
 5708TIP3    H217070   3.225   4.469   4.348  2.5484 -0.2079  0.3416
 5709TIP3   OH217071   4.684   0.381   0.487  0.4520 -0.9550 -0.1993
 5709TIP3    H117072   4.651   0.326   0.559  1.3558 -0.8651  0.2992
 5709TIP3    H217073   4.665   0.330   0.408  0.3817 -1.5337  0.1813
 5710TIP3   OH217074   0.573   5.015   0.016  0.3537 -0.3839  0.5109
 5710TIP3    H117075   0.657   4.977   0.040 -0.3825 -0.0342  4.1382
 5710TIP3    H217076   0.527   4.945  -0.031  2.2751 -0.8588 -0.7505
 5711TIP3   OH217077   2.386   0.094   0.045 -0.1515  0.0190 -0.3562
 5711TIP3    H117078   2.301   0.129   0.072  0.1555  0.7617 -0.3448
 5711TIP3    H217079   2.449   0.163   0.065  0.2670  0.0671 -1.6828
 5712TIP3   OH217080   4.518   6.081   2.543 -0.4832 -0.0275 -0.7032
 5712TIP3    H117081   4.524   6.059   2.636  1.5853 -1.2198 -1.0431
 5712TIP3    H217082   4.491   5.999   2.501  3.6535 -1.1765 -1.5936
 5713TIP3   OH217083   0.220   3.592   0.075  0.3597 -0.2348 -0.3619
 5713TIP3    H117084   0.285   3.659   0.097 -0.2118  1.0182 -2.2788
 5713TIP3    H217085   0.243   3.564  -0.013 -0.8733 -0.7832 -0.5321
 5714TIP3   OH217086   2.052   1.401   4.542 -0.0124  0.5102 -0.4379
 5714TIP3    H117087   2.109   1.477   4.548  1.0144 -0.3165  0.7264
 5714TIP3    H217088   2.109   1.330   4.512 -0.7901  0.0206 -0.7933
 5715TIP3   OH217089   4.095   0.971   5.124 -0.5492  0.0777  0.0336
 5715TIP3    H117090   4.114   0.879   5.145  1.8105  0.5233  0.1711
 5715TIP3    H217091   4.096   0.975   5.029  0.0590  0.0529  0.0310
 5716TIP3   OH217092   2.349   2.726   3.136 -0.3037 -0.7219 -0.7662
 5716TIP3    H117093   2.262   2.728   3.175  0.2111 -0.0470  0.3908
 5716TIP3    H217094   2.361   2.814   3.100  0.7788 -0.0136  1.1595
 5717TIP3   OH217095   5.548   4.846   5.267  0.0835  0.0917 -0.1573
 5717TIP3    H117096   5.565   4.935   5.297 -0.6758 -0.1301  1.0050
 5717TIP3    H217097   5.573   4.846   5.175 -0.1312  1.5684 -0.2316
 5718TIP3   OH217098   0.268   4.579   4.524 -0.0372  0.5751 -0.3973
 5718TIP3    H117099   0.226   4.659   4.554  1.5193  0.6509  1.8538
 5718TIP3    H217100   0.310   4.544   4.602  1.9514 -0.7954 -1.9853
 5719TIP3   OH217101   3.659   7.603   4.126 -0.1272  0.0460  0.4556
 5719TIP3    H117102   3.577   7.652   4.114 -0.4132 -0.4423  0.3800
 5719TIP3    H217103   3.633   7.511   4.119  0.4726 -0.1054  0.1813
 5720TIP3   OH217104   1.864   6.367   3.273  0.1913 -0.2071 -0.1588
 5720TIP3    H117105   1.789   6.425   3.285  1.2390  1.0534  0.5020
 5720TIP3    H217106   1.920   6.413   3.210  0.1647 -1.4186 -1.1263
 5721TIP3   OH217107   3.081   7.739   5.569 -0.1905 -0.2207 -0.3354
 5721TIP3    H117108   3.017   7.670   5.588  0.3239 -0.3327  1.1651
 5721TIP3    H217109   3.157   7.716   5.623  0.3830  0.9578 -0.6080
 5722TIP3   OH217110   4.645   0.830   2.065  0.3427  0.2876  0.4991
 5722TIP3    H117111   4.630   0.737   2.049  2.6128  0.0817 -0.8337
 5722TIP3    H217112   4.567   0.873   2.029  0.2762 -0.9816 -1.0087
 5723TIP3   OH217113   1.868   4.554   4.971  0.3232  0.0892  0.4928
 5723TIP3    H117114   1.865   4.466   4.935  0.2863  0.3790 -0.2519
 5723TIP3    H217115   1.785   4.565   5.017 -0.1937  0.1321 -0.4194
 5724TIP3   OH217116   7.359   0.507   5.916  0.5864  0.2538 -0.0779
 5724TIP3    H117117   7.279   0.527   5.868  0.4774  1.7225  0.6389
 5724TIP3    H217118   7.418   0.471   5.850 -0.8594 -1.4903 -0.4743
 5725TIP3   OH217119   5.394   0.437   1.787 -0.1079  0.2638 -0.0378
 5725TIP3    H117120   5.422   0.519   1.829 -3.3653  0.2068  2.6909
 5725TIP3    H217121   5.316   0.461   1.737  1.1131 -0.5732 -2.4920
 5726TIP3   OH217122   0.550   1.100   2.599 -0.2728 -0.2493  0.8296
 5726TIP3    H117123   0.481   1.166   2.591 -0.3655 -0.3358  0.9164
 5726TIP3    H217124   0.579   1.085   2.509  0.1730  0.3613  0.8731
 5727TIP3   OH217125   6.297   1.715   5.694  0.7106  0.3221 -0.7063
 5727TIP3    H117126   6.286   1.641   5.633  1.1596  0.9251 -1.5439
 5727TIP3    H217127   6.375   1.691   5.745 -0.5664 -0.9133  0.7449
 5728TIP3   OH217128   3.765   6.041   5.429  0.4671 -0.6146 -0.0958
 5728TIP3    H117129   3.729   6.003   5.349  0.3507  0.0540 -0.3671
 5728TIP3    H217130   3.856   6.062   5.406  0.3731 -0.2342 -0.1136
 5729TIP3   OH217131   1.769   5.389   6.117  0.5126  0.0734 -0.0294
 5729TIP3    H117132   1.821   5.460   6.079 -2.9204  2.0178 -1.5481
 5729TIP3    H217133   1.797   5.385   6.209  0.7519  3.5782  0.1681
 5730TIP3   OH217134   4.197   4.417   5.634  0.2296  0.1746 -0.1356
 5730TIP3    H117135   4.247   4.336   5.638  1.5727  0.8763 -1.6229
 5730TIP3    H217136   4.143   4.416   5.713  2.4015 -0.7607  1.4426
 5731TIP3   OH217137   3.327   6.588   5.539  0.6466  0.1399  0.1561
 5731TIP3    H117138   3.242   6.554   5.566 -1.0733  2.5855 -1.7142
 5731TIP3    H217139   3.382   6.582   5.617 -1.2835 -1.3150  1.4909
 5732TIP3   OH217140   5.031   0.102   3.370  0.2510 -0.2544 -0.7030
 5732TIP3    H117141   5.110   0.049   3.380  1.1384  1.3105  1.0867
 5732TIP3    H217142   5.046   0.152   3.290  0.3680 -1.0681 -1.2057
 5733TIP3   OH217143   0.740  -0.020   0.792 -0.4877  0.8294 -0.1835
 5733TIP3    H117144   0.666   0.022   0.836  0.2823  1.2314  0.7755
 5733TIP3    H217145   0.762   0.039   0.720 -0.5819  1.1163  0.0234
 5734TIP3   OH217146   1.737   1.316   4.127  0.0432 -0.2999  0.5853
 5734TIP3    H117147   1.800   1.264   4.077 -0.7807 -1.0755  0.3290
 5734TIP3    H217148   1.788   1.389   4.163  0.9105 -0.4618 -0.2958
 5735TIP3   OH217149   5.268   2.204   4.637 -0.0944 -0.0123 -0.1268
 5735TIP3    H117150   5.282   2.141   4.707 -1.0765 -0.9687 -0.7632
 5735TIP3    H217151   5.327   2.277   4.659  1.1493 -1.1647  0.5685
 5736TIP3   OH217152   0.061   2.856   2.269 -0.2706  0.3011  0.0967
 5736TIP3    H117153   0.060   2.784   2.206  0.1755 -0.5216  1.0049
 5736TIP3    H217154   0.049   2.935   2.215 -0.7581 -0.4349 -0.9154
 5737TIP3   OH217155   2.002   0.414   0.499 -0.3421  0.1307  0.2923
 5737TIP3    H117156   2.094   0.390   0.506 -0.8024 -1.4371  1.6053
 5737TIP3    H217157   1.990   0.482   0.564 -0.5185 -1.1219  1.6201
 5738TIP3   OH217158   5.978   0.482   1.672 -0.4252 -0.2515 -0.1527
 5738TIP3    H117159   6.027   0.503   1.752 -3.6433  4.4662  1.0341
 5738TIP3    H217160   6.035   0.511   1.601  0.2729  1.0706  0.8866
 5739TIP3   OH217161   8.027   7.224   3.019 -0.6766  0.0352 -0.3185
 5739TIP3    H117162   8.020   7.248   3.111 -0.3547  0.8010 -0.4862
 5739TIP3    H217163   7.996   7.301   2.971  0.5863  0.2277 -0.8792
 5740TIP3   OH217164   8.264   0.014   2.893 -0.3869 -0.5888 -0.6263
 5740TIP3    H117165   8.301   0.080   2.952 -0.3195 -0.9096 -0.3072
 5740TIP3    H217166   8.241  -0.059   2.950  1.2094 -1.5816 -1.2025
 5741TIP3   OH217167   2.885   6.929   4.258  0.0652 -0.2672  0.1478
 5741TIP3    H117168   2.955   6.983   4.296  2.0453 -3.0294  0.8172
 5741TIP3    H217169   2.826   6.911   4.331 -0.6241  0.9676 -0.0891
 5742TIP3   OH217170   7.246   4.538   3.590 -0.3181  0.2584 -0.2111
 5742TIP3    H117171   7.252   4.462   3.648  0.4414 -1.2553 -2.1677
 5742TIP3    H217172   7.221   4.502   3.505 -1.5494  2.4184 -0.8433
 5743TIP3   OH217173   0.983   3.161   0.229  0.1138 -0.8144 -0.1346
 5743TIP3    H117174   1.003   3.225   0.161 -0.4150  0.0452  0.5055
 5743TIP3    H217175   1.055   3.168   0.291 -1.0238  0.7727  1.0778
 5744TIP3   OH217176   2.544   3.855   5.570  0.0915  0.1338 -0.3251
 5744TIP3    H117177   2.587   3.778   5.533 -1.1061 -0.3965 -0.6588
 5744TIP3    H217178   2.616   3.914   5.592  0.9497 -0.3990 -1.5697
 5745TIP3   OH217179   6.360   4.747   3.121 -0.5016 -0.0127 -0.4451
 5745TIP3    H117180   6.399   4.683   3.181 -1.4113 -0.4281 -0.2763
 5745TIP3    H217181   6.426   4.760   3.053  0.3904  0.1756  0.4398
 5746TIP3   OH217182   6.525   7.729   3.219  0.1025 -0.2537 -0.0187
 5746TIP3    H117183   6.504   7.638   3.239  0.3256 -0.3244 -0.0928
 5746TIP3    H217184   6.495   7.779   3.295 -0.3223 -0.3495 -0.1222
 5747TIP3   OH217185   4.523   1.612   0.621  0.2832 -0.1014 -0.8407
 5747TIP3    H117186   4.437   1.617   0.579  0.6091 -0.3209 -1.5458
 5747TIP3    H217187   4.576   1.675   0.572  0.6031 -0.1814 -0.5944
 5748TIP3   OH217188   6.042   3.986   2.868 -0.0680 -0.1873 -0.3758
 5748TIP3    H117189   6.039   4.044   2.792  0.4552 -0.0275 -0.2733
 5748TIP3    H217190   6.070   3.902   2.833 -0.9821 -0.4359 -0.5520
 5749TIP3   OH217191   5.738   1.665   5.003 -0.4012  0.2998 -0.3082
 5749TIP3    H117192   5.764   1.684   4.913  0.0358 -0.1077 -0.2681
 5749TIP3    H217193   5.648   1.634   4.996  0.6521 -3.0163 -1.0198
 5750TIP3   OH217194   8.266   5.906   6.753  0.3210 -0.6045  0.0900
 5750TIP3    H117195   8.326   5.935   6.684 -0.3287 -0.0154 -0.2366
 5750TIP3    H217196   8.184   5.952   6.734 -0.2645 -1.4745  0.4729
 5751TIP3   OH217197   2.550   6.163   1.256  0.3707 -0.4290  0.5460
 5751TIP3    H117198   2.611   6.237   1.248  0.8264 -1.0248 -2.1807
 5751TIP3    H217199   2.598   6.088   1.221 -1.7825 -0.9564 -1.4952
 5752TIP3   OH217200   6.940   4.051   5.945  0.4949 -0.1538  0.3254
 5752TIP3    H117201   6.992   4.044   5.865  0.1076 -1.2095  0.1534
 5752TIP3    H217202   6.988   4.114   5.999  1.9597 -1.0733  0.1570
 5753TIP3   OH217203   7.188   7.752   2.611  0.3714 -0.4630 -0.1818
 5753TIP3    H117204   7.238   7.684   2.566 -0.2432  0.4603 -2.3638
 5753TIP3    H217205   7.113   7.769   2.554 -0.0539  1.2911  0.8373
 5754TIP3   OH217206   4.052   6.637   2.663 -0.0072 -0.2298  0.4286
 5754TIP3    H117207   4.139   6.676   2.667  0.4857 -1.1179 -0.8276
 5754TIP3    H217208   4.054   6.564   2.725  0.1765 -0.2938  0.3473
 5755TIP3   OH217209   0.687   7.558   6.180 -0.5811 -0.0389  0.0550
 5755TIP3    H117210   0.593   7.539   6.175 -1.1697  1.8837  2.1080
 5755TIP3    H217211   0.697   7.641   6.134  0.2046 -0.4281 -0.4904
 5756TIP3   OH217212   1.882   2.454   6.670 -0.4253 -0.1529  0.1246
 5756TIP3    H117213   1.958   2.508   6.648 -2.4737  2.5115 -0.9320
 5756TIP3    H217214   1.871   2.396   6.595 -0.5642  0.8024 -0.6007
 5757TIP3   OH217215   3.996   2.195   0.422  0.1677  0.1973  0.2794
 5757TIP3    H117216   3.947   2.191   0.504  0.5094  1.0003  0.5319
 5757TIP3    H217217   3.932   2.225   0.357 -0.8105 -2.8822 -0.3542
 5758TIP3   OH217218   0.540   5.580   2.654  0.1496  0.0949  0.0971
 5758TIP3    H117219   0.519   5.487   2.643  1.6532 -0.3582  0.7616
 5758TIP3    H217220   0.455   5.624   2.655 -0.5410 -1.0852 -1.7133
 5759TIP3   OH217221   1.122   0.492   5.294  0.4499  0.1138  0.3096
 5759TIP3    H117222   1.105   0.558   5.227  3.7792  1.2982  0.4432
 5759TIP3    H217223   1.139   0.542   5.374 -2.7387 -1.2487  2.0270
 5760TIP3   OH217224   6.746   4.051   2.609  0.6759  0.2126  0.1290
 5760TIP3    H117225   6.776   4.116   2.545 -1.2846  0.9461 -0.1421
 5760TIP3    H217226   6.747   4.098   2.693  0.9909  0.0075  0.2404
 5761TIP3   OH217227   0.564   7.720   3.816 -0.0204  0.4738 -0.2724
 5761TIP3    H117228   0.607   7.696   3.898  2.0395  1.1912 -1.0808
 5761TIP3    H217229   0.477   7.752   3.843  0.7136  1.0131  1.6487
 5762TIP3   OH217230   1.904   6.621   2.888  0.5968  0.0096  0.4525
 5762TIP3    H117231   1.980   6.658   2.843  0.6555 -0.0530  0.5004
 5762TIP3    H217232   1.833   6.630   2.825  0.7077 -0.2033  0.2964
 5763TIP3   OH217233   2.966   4.703   2.659 -0.5340  0.0496  0.5115
 5763TIP3    H117234   3.032   4.772   2.653 -2.5264  1.9360 -1.6765
 5763TIP3    H217235   2.959   4.669   2.570 -1.4719 -1.1541  1.0163
 5764TIP3   OH217236   4.178   0.446   3.890 -0.0123 -0.1437 -0.1924
 5764TIP3    H117237   4.223   0.466   3.808 -0.6113  0.4179 -0.3936
 5764TIP3    H217238   4.139   0.529   3.917 -0.7143 -0.5558  0.0957
 5765TIP3   OH217239   4.741   2.066   4.730  0.5302  0.0532  0.1283
 5765TIP3    H117240   4.664   2.034   4.683  1.1456 -0.2958 -0.6579
 5765TIP3    H217241   4.705   2.104   4.811 -0.2803 -2.1468  0.8718
 5766TIP3   OH217242   2.695   5.499   2.233 -0.5001  0.5500 -0.0369
 5766TIP3    H117243   2.691   5.464   2.144  0.7531  0.2233  0.0236
 5766TIP3    H217244   2.623   5.455   2.279 -0.3746 -0.2207 -0.5670
 5767TIP3   OH217245   3.391   5.243   5.420  0.3520 -0.7329  0.2161
 5767TIP3    H117246   3.455   5.187   5.376 -0.0588 -0.9955 -0.0539
 5767TIP3    H217247   3.437   5.275   5.498  1.3205  0.2512 -0.7114
 5768TIP3   OH217248   6.734   6.609   3.299  0.0505 -0.1371 -0.2382
 5768TIP3    H117249   6.784   6.534   3.267  0.4757 -0.7590  1.7056
 5768TIP3    H217250   6.644   6.592   3.271  0.2108 -1.2158 -0.1365
 5769TIP3   OH217251   5.716   1.032   0.675  0.0270  0.0021  0.4202
 5769TIP3    H117252   5.731   0.976   0.599  1.7999  1.0193 -0.0507
 5769TIP3    H217253   5.633   1.077   0.656  0.4212  0.2209 -0.9269
 5770TIP3   OH217254   3.302   5.229   5.852  0.2698 -0.3936 -0.9687
 5770TIP3    H117255   3.289   5.306   5.797 -0.9729 -1.4508 -2.2185
 5770TIP3    H217256   3.277   5.155   5.797  0.8216 -1.6531  0.4019
 5771TIP3   OH217257   7.362   0.723   0.258 -0.7244  0.1843 -0.2502
 5771TIP3    H117258   7.409   0.678   0.328  0.6746 -0.9066 -1.8128
 5771TIP3    H217259   7.413   0.803   0.243 -0.0163 -0.4163 -1.1397
 5772TIP3   OH217260   1.398   7.296   2.095 -0.0120  0.2320  0.1013
 5772TIP3    H117261   1.391   7.219   2.150 -0.2847  0.0873 -0.1312
 5772TIP3    H217262   1.379   7.265   2.006 -0.3647  0.6058  0.0381
 5773TIP3   OH217263   5.009   4.662   3.111 -0.0849  0.2790  0.3010
 5773TIP3    H117264   5.044   4.658   3.022  0.4165 -1.5265  0.5539
 5773TIP3    H217265   4.923   4.620   3.105  1.0105 -2.2260  1.1056
 5774TIP3   OH217266   6.228   3.899   1.671 -0.5605 -0.2712  0.5271
 5774TIP3    H117267   6.281   3.973   1.641  0.1256 -0.6661  0.7431
 5774TIP3    H217268   6.158   3.938   1.722 -0.7304  0.2894 -0.1158
 5775TIP3   OH217269   2.993   2.672   4.180  0.1508 -0.5475  0.3173
 5775TIP3    H117270   3.065   2.620   4.145 -0.6046 -0.6046 -1.2564
 5775TIP3    H217271   3.002   2.757   4.137 -1.4498 -0.9705 -0.9764
 5776TIP3   OH217272   6.947   7.272   0.699 -0.3156  0.1156 -0.1778
 5776TIP3    H117273   7.036   7.300   0.721  0.3211 -0.3907 -1.9304
 5776TIP3    H217274   6.892   7.345   0.726  0.6179  0.4478  0.9221
 5777TIP3   OH217275   6.775   6.025   6.772  0.0121 -0.2591  0.1368
 5777TIP3    H117276   6.829   5.959   6.728  1.4082  0.6843  0.3745
 5777TIP3    H217277   6.689   6.016   6.732  0.6489 -0.9960 -1.1361
 5778TIP3   OH217278   2.750   2.593   4.268 -0.1604  0.0746 -0.7422
 5778TIP3    H117279   2.684   2.637   4.213  1.4592  0.7861 -2.1906
 5778TIP3    H217280   2.833   2.610   4.224  0.9274 -1.4818  0.6110
 5779TIP3   OH217281   0.672   0.608   5.213  0.1138  0.4894  0.0441
 5779TIP3    H117282   0.630   0.656   5.142 -0.8101 -1.1039 -0.5530
 5779TIP3    H217283   0.714   0.675   5.266 -1.4215  1.9786 -0.5183
 5780TIP3   OH217284   6.166   5.715   1.408 -0.4569 -0.5142  0.3158
 5780TIP3    H117285   6.240   5.716   1.469 -1.0219  0.9210  1.0272
 5780TIP3    H217286   6.192   5.653   1.340  2.1720  1.1711 -0.3684
 5781TIP3   OH217287   7.476   3.612   1.302 -0.2287  0.2304  0.3115
 5781TIP3    H117288   7.550   3.666   1.330  1.4415 -1.1480 -1.1737
 5781TIP3    H217289   7.480   3.535   1.358 -3.0005  1.7501  2.8745
 5782TIP3   OH217290   5.985   6.427   3.042  0.2617 -0.3981 -0.2760
 5782TIP3    H117291   6.039   6.372   2.986  0.1541 -1.3451  0.5132
 5782TIP3    H217292   5.913   6.370   3.069  0.3506 -0.0025  0.8821
 5783TIP3   OH217293   6.925   2.903   5.370 -0.3009  0.1379  0.0818
 5783TIP3    H117294   6.976   2.949   5.436  1.2639 -1.0446 -0.2402
 5783TIP3    H217295   6.853   2.862   5.419 -0.3845  0.9930  0.6946
 5784TIP3   OH217296   6.309   3.197   2.485  0.1102  0.4785 -0.3722
 5784TIP3    H117297   6.292   3.283   2.523  0.9813  0.3901  0.2469
 5784TIP3    H217298   6.242   3.140   2.523  0.7899  0.4516  0.8411
 5785TIP3   OH217299   0.767   7.688   3.170  0.2020 -0.0994 -0.9240
 5785TIP3    H117300   0.834   7.688   3.102  1.0722  1.1583 -0.1226
 5785TIP3    H217301   0.769   7.600   3.206  2.4976  0.2891  0.0454
 5786TIP3   OH217302   7.178   6.434   2.522  0.0851  0.5285 -0.3966
 5786TIP3    H117303   7.263   6.468   2.549 -0.5512 -0.3137  3.2652
 5786TIP3    H217304   7.115   6.482   2.576 -1.7356  0.4551 -2.3097
 5787TIP3   OH217305   7.972   5.484   0.124 -0.2055 -0.3705  0.3852
 5787TIP3    H117306   8.057   5.510   0.087  0.4192  0.2743  2.1517
 5787TIP3    H217307   7.979   5.506   0.217 -1.0354 -3.5505  1.2975
 5788TIP3   OH217308   4.746   2.628   6.283 -0.1466  0.4051  0.6256
 5788TIP3    H117309   4.766   2.655   6.373 -0.5614 -0.0125  0.8543
 5788TIP3    H217310   4.748   2.709   6.232 -1.8742  0.9704  1.3782
 5789TIP3   OH217311   0.216   5.768   6.328 -0.1116 -0.0037 -0.3268
 5789TIP3    H117312   0.145   5.730   6.379  0.0032 -0.7679 -0.7284
 5789TIP3    H217313   0.234   5.704   6.260 -0.5104  1.1630 -1.5700
 5790TIP3   OH217314   7.070   0.789   4.883 -0.2920  0.1372  0.1501
 5790TIP3    H117315   7.065   0.843   4.804 -1.2613 -1.3048 -0.8357
 5790TIP3    H217316   6.983   0.750   4.891  1.1667 -3.9722 -1.2811
 5791TIP3   OH217317   2.260   1.531   5.626 -0.2325 -0.6200 -0.4065
 5791TIP3    H117318   2.289   1.622   5.635 -0.3372 -0.4485 -1.5574
 5791TIP3    H217319   2.194   1.519   5.694  1.1512 -0.4341  1.0194
 5792TIP3   OH217320   8.116   6.084   3.825  0.0374  0.0697  0.5865
 5792TIP3    H117321   8.189   6.139   3.795 -0.9014  1.7733  1.2579
 5792TIP3    H217322   8.042   6.144   3.830 -0.6015 -0.8243  3.2372
 5793TIP3   OH217323   6.466   1.851   6.028  0.4719 -0.0222 -0.4085
 5793TIP3    H117324   6.415   1.930   6.045 -0.2963  0.3827 -3.8070
 5793TIP3    H217325   6.541   1.857   6.086 -1.7762  0.8489  2.6689
 5794TIP3   OH217326   3.779   7.159   0.404 -0.3694  0.3812  0.4798
 5794TIP3    H117327   3.777   7.140   0.310 -0.3099 -1.0414  0.7444
 5794TIP3    H217328   3.849   7.103   0.438  1.7250  3.1030  0.9447
 5795TIP3   OH217329   2.549   4.126   0.413 -0.4516 -0.1271  0.1519
 5795TIP3    H117330   2.470   4.175   0.436 -1.3583 -0.1500 -2.5484
 5795TIP3    H217331   2.620   4.172   0.458 -1.9187 -0.1173  2.6867
 5796TIP3   OH217332   2.097   6.119   4.867  0.0297 -0.0500  0.3908
 5796TIP3    H117333   2.034   6.142   4.936 -1.5888  2.1869 -1.6509
 5796TIP3    H217334   2.179   6.158   4.895 -0.1529 -0.6833  1.8563
 5797TIP3   OH217335   1.741   6.708   5.300 -0.5697  0.5645 -0.3970
 5797TIP3    H117336   1.706   6.793   5.328  1.6201  1.4807 -0.2239
 5797TIP3    H217337   1.754   6.717   5.206 -0.9275  0.1599 -0.4919
 5798TIP3   OH217338   2.222   1.984   2.165 -0.0415 -0.1477  0.0537
 5798TIP3    H117339   2.312   1.975   2.136 -0.5128 -1.2358 -1.1836
 5798TIP3    H217340   2.228   1.996   2.260  1.3586 -1.3799  0.1587
 5799TIP3   OH217341   1.183   3.464   1.139  0.3098 -0.2818 -0.9140
 5799TIP3    H117342   1.278   3.469   1.125  0.2343 -0.3422 -1.5131
 5799TIP3    H217343   1.147   3.465   1.050 -0.2405 -0.4684 -0.6930
 5800TIP3   OH217344   3.746   5.722   4.924 -0.6759 -0.1172  0.4283
 5800TIP3    H117345   3.834   5.684   4.926  0.2367  1.9082  0.4848
 5800TIP3    H217346   3.700   5.672   4.857  0.4344 -1.3505  0.5444
 5801TIP3   OH217347   0.971   5.968   0.745  0.7019 -0.2548  0.3085
 5801TIP3    H117348   0.893   6.006   0.785 -0.2053  0.2341 -1.7877
 5801TIP3    H217349   0.988   6.022   0.668  2.3834 -1.1087  0.0216
 5802TIP3   OH217350   3.514   0.412   3.714 -0.4443  0.2446  0.2358
 5802TIP3    H117351   3.553   0.487   3.669 -1.5186 -0.3243 -1.7661
 5802TIP3    H217352   3.479   0.448   3.795  0.4190  1.5820  0.0461
 5803TIP3   OH217353   8.121   7.366   1.149 -0.3166 -0.3168 -0.3998
 5803TIP3    H117354   8.038   7.324   1.171 -0.6077  0.4639  0.0464
 5803TIP3    H217355   8.155   7.316   1.075 -2.5609  1.0080 -2.4897
 5804TIP3   OH217356   3.694   3.790   0.634 -0.0833  0.5896  0.3148
 5804TIP3    H117357   3.685   3.871   0.685  1.5237  1.7804 -1.1937
 5804TIP3    H217358   3.625   3.796   0.567  0.9434  1.4421 -0.6906
 5805TIP3   OH217359   8.155   7.646   0.518  0.0718  0.1450  0.3699
 5805TIP3    H117360   8.127   7.625   0.607  1.9959  0.2327  1.0188
 5805TIP3    H217361   8.236   7.695   0.528 -0.4284  1.4521 -1.3956
 5806TIP3   OH217362   5.082   4.039   3.982  0.1451 -0.1204 -0.1990
 5806TIP3    H117363   5.128   4.123   3.974  3.0628 -1.5518  0.5994
 5806TIP3    H217364   5.100   3.993   3.900  1.0686 -1.1201  0.5461
 5807TIP3   OH217365   6.299   3.828   4.363 -0.1954  0.8565 -0.1312
 5807TIP3    H117366   6.294   3.876   4.281 -0.8445 -0.8129 -1.1060
 5807TIP3    H217367   6.230   3.762   4.357  0.6138 -0.1572  1.1878
 5808TIP3   OH217368   4.444   4.670   2.234  0.4816 -0.0477  0.4327
 5808TIP3    H117369   4.358   4.645   2.268 -0.0070  1.3931  0.3303
 5808TIP3    H217370   4.467   4.749   2.283  1.2546  0.1992 -0.3016
 5809TIP3   OH217371   3.536   7.770   6.128 -0.3183 -0.2058  0.0766
 5809TIP3    H117372   3.617   7.724   6.153 -0.8345 -0.1800  1.9764
 5809TIP3    H217373   3.484   7.703   6.082  0.4526 -0.4407 -0.4743
 5810TIP3   OH217374   2.347   3.379   0.741  1.0554  0.3356 -0.1401
 5810TIP3    H117375   2.371   3.352   0.652  2.3268  0.3098  0.1911
 5810TIP3    H217376   2.302   3.303   0.778  1.7799 -0.1741 -0.2922
 5811TIP3   OH217377   6.476   5.693   4.667  0.4609 -0.1102 -0.0416
 5811TIP3    H117378   6.497   5.603   4.642  0.3289 -0.4022  0.8573
 5811TIP3    H217379   6.437   5.731   4.588 -0.8126 -1.2733 -0.0064
 5812TIP3   OH217380   2.912   7.800   6.324 -0.0055  0.2561  0.7194
 5812TIP3    H117381   2.859   7.775   6.400  0.0505 -0.6657  0.4707
 5812TIP3    H217382   2.861   7.774   6.248 -0.5088  2.0930  0.3842
 5813TIP3   OH217383   3.299   0.376   1.033 -0.4441 -0.0862 -0.2107
 5813TIP3    H117384   3.353   0.323   0.975 -2.3739 -0.6278 -1.6151
 5813TIP3    H217385   3.226   0.319   1.058 -0.0738  0.3738  2.2016
 5814TIP3   OH217386   2.541   1.209   2.069  0.2607  0.0525 -0.5204
 5814TIP3    H117387   2.521   1.236   1.979 -0.2879  2.7497  0.3073
 5814TIP3    H217388   2.514   1.284   2.123  0.4414 -1.5271  1.9265
 5815TIP3   OH217389   5.213   7.692   4.488  0.2121  0.3013 -0.2066
 5815TIP3    H117390   5.197   7.695   4.393 -4.2733 -1.0425  0.2685
 5815TIP3    H217391   5.244   7.602   4.504 -0.2410  0.1252 -0.2998
 5816TIP3   OH217392   2.362   4.994   6.059  0.3582 -0.6133 -0.0892
 5816TIP3    H117393   2.426   5.065   6.059  0.5424 -0.7763 -0.3846
 5816TIP3    H217394   2.390   4.937   6.131  1.2550 -1.3077 -0.9585
 5817TIP3   OH217395   2.192   1.443   0.896 -0.5471  0.1328  0.2030
 5817TIP3    H117396   2.222   1.355   0.921  1.9128  0.8833  0.1859
 5817TIP3    H217397   2.180   1.437   0.801  0.8270  0.0758  0.0018
 5818TIP3   OH217398   3.587   7.726   3.528  0.5136 -0.1239  0.6360
 5818TIP3    H117399   3.552   7.666   3.594  0.5520 -0.4838  0.3305
 5818TIP3    H217400   3.559   7.689   3.445 -0.5383  0.9536  0.4810
 5819TIP3   OH217401   3.514   5.077   6.504 -0.4452  0.6571 -0.0439
 5819TIP3    H117402   3.589   5.035   6.463 -0.5105  0.6723 -0.1806
 5819TIP3    H217403   3.438   5.041   6.458 -0.5487  0.3139  0.3852
 5820TIP3   OH217404   6.199   3.001   1.412  0.2154  0.1081  0.2463
 5820TIP3    H117405   6.240   2.915   1.416  0.9881  0.4533 -0.1195
 5820TIP3    H217406   6.114   2.985   1.370  1.0330 -0.2388 -1.3258
 5821TIP3   OH217407   5.195   3.145   4.601 -0.1774  1.1605 -0.4351
 5821TIP3    H117408   5.180   3.070   4.659 -0.0954  0.1379 -1.6780
 5821TIP3    H217409   5.229   3.214   4.658  0.0524  0.1415  0.6951
 5822TIP3   OH217410   5.241   4.742   0.535  0.4087 -0.3343  0.1698
 5822TIP3    H117411   5.200   4.744   0.448 -0.6264  0.6266  0.6562
 5822TIP3    H217412   5.195   4.673   0.582 -1.2614  1.2110  0.9526
 5823TIP3   OH217413   5.139   3.927   5.508 -0.0621  0.4037 -0.3790
 5823TIP3    H117414   5.121   3.977   5.429  1.2520 -0.5558 -1.3415
 5823TIP3    H217415   5.225   3.959   5.537  0.7524 -1.1386 -0.9556
 5824TIP3   OH217416   1.331   5.437   5.117 -0.1804  0.3526 -0.1936
 5824TIP3    H117417   1.256   5.467   5.170 -0.1664  0.1417 -0.0504
 5824TIP3    H217418   1.318   5.478   5.031 -0.3817  0.4337 -0.1254
 5825TIP3   OH217419   2.759   4.057   1.313  0.2695 -0.5660  0.5686
 5825TIP3    H117420   2.710   4.136   1.339  0.9277  0.0210  0.0749
 5825TIP3    H217421   2.694   4.002   1.270  0.0586  0.2696 -0.2151
 5826TIP3   OH217422   7.743   4.264   2.739  0.2299  0.6474  0.1870
 5826TIP3    H117423   7.753   4.180   2.694 -0.7492 -0.0721  1.2562
 5826TIP3    H217424   7.786   4.252   2.823 -0.7989  0.8584  0.7614
 5827TIP3   OH217425   0.563   0.587   4.145  0.2748  0.1890 -0.8393
 5827TIP3    H117426   0.501   0.591   4.072  0.2848  0.7326 -0.8235
 5827TIP3    H217427   0.636   0.535   4.111 -0.5901 -1.2702 -0.5430
 5828TIP3   OH217428   0.404   1.449   6.006  0.3100 -0.0550  0.1974
 5828TIP3    H117429   0.373   1.461   6.096 -0.5036 -0.0598 -0.0750
 5828TIP3    H217430   0.371   1.363   5.981  2.5141 -1.0968  0.6746
 5829TIP3   OH217431   5.395   1.341   4.420  0.4240  0.5791  0.2945
 5829TIP3    H117432   5.417   1.432   4.400 -0.6412  0.8448  0.2701
 5829TIP3    H217433   5.479   1.295   4.418  0.9653  1.5461  0.2428
 5830TIP3   OH217434   5.472   0.101   6.559  0.0561  0.2341  0.1545
 5830TIP3    H117435   5.408   0.036   6.527  0.2252 -0.2970  0.8531
 5830TIP3    H217436   5.465   0.174   6.498  0.0706 -0.5652 -0.8372
 5831TIP3   OH217437   4.331   0.549   6.690  0.1783  0.0446  0.4061
 5831TIP3    H117438   4.318   0.638   6.657  1.8202  0.4636  0.8150
 5831TIP3    H217439   4.399   0.558   6.757 -0.0132 -1.4449  0.8278
 5832TIP3   OH217440   4.962   6.472   2.282 -0.0693  0.0347  0.2197
 5832TIP3    H117441   4.991   6.422   2.206  0.9711  0.9935 -0.0577
 5832TIP3    H217442   4.976   6.564   2.256 -2.3408  0.5254  0.5267
 5833TIP3   OH217443   1.276   2.872   3.123  0.3276 -0.0107  0.3324
 5833TIP3    H117444   1.212   2.944   3.122  0.5475  0.1869  0.3238
 5833TIP3    H217445   1.240   2.808   3.185 -0.0019 -0.0137  0.1353
 5834TIP3   OH217446   5.597   4.335   3.677 -0.0276  0.2561  0.1131
 5834TIP3    H117447   5.520   4.358   3.729  0.9218 -0.3394  1.8293
 5834TIP3    H217448   5.644   4.417   3.666  1.2909 -0.0509  2.8058
 5835TIP3   OH217449   5.529   3.126   5.670  0.3451 -0.1567  0.1814
 5835TIP3    H117450   5.465   3.163   5.731  0.8484 -0.4515  0.9150
 5835TIP3    H217451   5.552   3.041   5.709  3.2261  1.0899  1.4892
 5836TIP3   OH217452   6.483   0.963   3.255 -0.2376  0.3779  0.6955
 5836TIP3    H117453   6.502   1.046   3.299 -1.8127  0.7070  0.7914
 5836TIP3    H217454   6.394   0.941   3.281 -0.8667  0.0652 -1.4941
 5837TIP3   OH217455   4.570   3.176   2.565  0.6316 -0.3150  0.2428
 5837TIP3    H117456   4.565   3.202   2.657  0.7583 -1.6048  0.6399
 5837TIP3    H217457   4.511   3.101   2.558 -0.6168  0.7310 -1.1071
 5838TIP3   OH217458   6.386   4.475   6.187 -0.5993 -0.2228  0.0768
 5838TIP3    H117459   6.368   4.382   6.176 -0.4440 -0.2657  0.1684
 5838TIP3    H217460   6.310   4.519   6.150 -0.7089 -0.3882  0.1013
 5839TIP3   OH217461   0.265   3.211   1.099  0.2273  0.4610  0.2280
 5839TIP3    H117462   0.273   3.261   1.180  0.3339 -1.9854  1.8428
 5839TIP3    H217463   0.219   3.131   1.124  1.0469 -0.7950 -1.9348
 5840TIP3   OH217464   2.510   2.518   3.025 -0.0033 -0.0136  0.0082
 5840TIP3    H117465   2.454   2.494   2.952  1.5462 -0.1157 -1.2180
 5840TIP3    H217466   2.463   2.587   3.071  0.1607  2.1145 -2.7887
 5841TIP3   OH217467   1.157   4.650   4.989 -0.3406  0.6329 -0.6525
 5841TIP3    H117468   1.151   4.624   4.897 -1.9596  0.6398 -0.5758
 5841TIP3    H217469   1.246   4.685   4.998  0.3057 -0.6064 -1.8745
 5842TIP3   OH217470   2.170   2.719   3.727 -0.3313  0.2601  0.3502
 5842TIP3    H117471   2.106   2.732   3.796  1.1578 -0.2881  1.9112
 5842TIP3    H217472   2.216   2.803   3.721 -1.1063  0.6424 -0.7436
 5843TIP3   OH217473   0.642   3.321   0.572 -0.1575 -0.1776  0.2257
 5843TIP3    H117474   0.638   3.352   0.481  1.3790  1.2605  0.6051
 5843TIP3    H217475   0.552   3.328   0.604 -0.1513  2.7338 -0.1467
 5844TIP3   OH217476   6.564   3.551   0.330  0.1906 -0.7252  0.4424
 5844TIP3    H117477   6.508   3.625   0.353  0.4912  0.3127 -1.9464
 5844TIP3    H217478   6.635   3.589   0.278  0.1602 -2.7004 -1.1696
 5845TIP3   OH217479   3.323   2.139   0.300  0.1891  0.2020  0.0271
 5845TIP3    H117480   3.381   2.209   0.270 -0.8373 -0.1552 -3.2283
 5845TIP3    H217481   3.237   2.163   0.264 -0.3565 -2.2890 -0.5262
 5846TIP3   OH217482   3.920   5.867   2.614 -0.4581 -0.0056 -0.4565
 5846TIP3    H117483   3.936   5.914   2.696  1.3682 -1.1372 -0.1083
 5846TIP3    H217484   3.855   5.801   2.636  1.4209 -1.5730  0.6324
 5847TIP3   OH217485   2.773   0.492   0.100  0.4002  0.2744 -0.1733
 5847TIP3    H117486   2.693   0.488   0.153  0.4979  2.3658  0.1872
 5847TIP3    H217487   2.839   0.446   0.153 -0.4432 -1.2183 -0.3474
 5848TIP3   OH217488   6.536   4.872   3.863 -0.0789  0.2750  0.1677
 5848TIP3    H117489   6.547   4.899   3.771  0.2446  2.4775  0.8072
 5848TIP3    H217490   6.520   4.953   3.910  1.5478 -0.5769  2.3510
 5849TIP3   OH217491   5.449   3.689   4.512 -0.0194 -0.4549 -0.6412
 5849TIP3    H117492   5.450   3.629   4.587  0.2480  0.6986  0.3233
 5849TIP3    H217493   5.462   3.633   4.436 -0.4835 -1.6922  0.1584
 5850TIP3   OH217494   1.588   4.973   1.769 -0.2816 -0.5785  0.4351
 5850TIP3    H117495   1.508   4.920   1.773 -0.9575  0.3713 -0.1038
 5850TIP3    H217496   1.659   4.911   1.788 -1.0622 -1.6262  0.0088
 5851TIP3   OH217497   7.982   1.473   1.222 -0.3329 -0.1383  0.3076
 5851TIP3    H117498   7.921   1.464   1.296 -2.6980  0.3507 -1.4459
 5851TIP3    H217499   8.039   1.545   1.247 -1.5060  0.4533  1.4357
 5852TIP3   OH217500   4.731   2.491   4.183 -0.3727 -0.1370 -0.0258
 5852TIP3    H117501   4.676   2.420   4.217  2.0090 -1.7474  0.7449
 5852TIP3    H217502   4.762   2.536   4.262  1.2703 -0.7880 -0.2624
 5853TIP3   OH217503   6.224   7.009   1.945  0.5836  0.1988  0.7280
 5853TIP3    H117504   6.294   6.945   1.932  0.7992  0.1958  1.8310
 5853TIP3    H217505   6.246   7.080   1.884  2.0843  0.6157  1.6915
 5854TIP3   OH217506   6.641   4.318   5.348  0.8799 -0.1234  0.0219
 5854TIP3    H117507   6.617   4.325   5.441 -0.6055  0.8420 -0.3984
 5854TIP3    H217508   6.615   4.229   5.324 -0.1304  0.1210  0.1784
 5855TIP3   OH217509   0.004   3.966   5.908  0.2865  0.9655  0.2453
 5855TIP3    H117510  -0.019   4.032   5.842 -0.7895  0.2184 -0.1466
 5855TIP3    H217511   0.016   3.885   5.858  0.9291  0.7017  0.8069
 5856TIP3   OH217512   3.296   3.314   0.037 -0.3762  0.1836 -0.2487
 5856TIP3    H117513   3.213   3.339   0.075 -0.3365 -0.1221  0.0451
 5856TIP3    H217514   3.273   3.253  -0.033 -0.3430 -0.9386  0.6783
 5857TIP3   OH217515   4.554   2.266   1.790 -0.1186 -0.1214 -0.3525
 5857TIP3    H117516   4.476   2.243   1.840  1.8311 -2.0157  2.0404
 5857TIP3    H217517   4.545   2.219   1.707 -1.8822  0.4512 -0.5273
 5858TIP3   OH217518   0.027   5.538   3.216 -0.4137  0.1042  0.0461
 5858TIP3    H117519   0.008   5.444   3.205  1.0156 -0.6545  2.9775
 5858TIP3    H217520   0.071   5.563   3.134 -0.9132 -1.7366 -0.8445
 5859TIP3   OH217521   4.744   5.114   4.982  0.1929 -0.2021  0.3022
 5859TIP3    H117522   4.806   5.095   5.052  0.7355  0.4163  0.0071
 5859TIP3    H217523   4.797   5.157   4.914 -0.4107 -0.3718 -0.2878
 5860TIP3   OH217524   0.275   1.142   3.404 -0.5152  0.7493  0.3758
 5860TIP3    H117525   0.283   1.169   3.496 -2.2258 -0.1694  0.8404
 5860TIP3    H217526   0.288   1.047   3.406  0.6973  0.8667 -0.5517
 5861TIP3   OH217527   3.209   7.411   2.925 -0.3063 -0.2311  0.0421
 5861TIP3    H117528   3.278   7.475   2.941 -0.9008  0.5138 -0.3532
 5861TIP3    H217529   3.167   7.439   2.844 -0.6004 -1.1032 -0.1240
 5862TIP3   OH217530   3.311   7.464   3.547 -0.7034 -0.4514 -0.0752
 5862TIP3    H117531   3.343   7.480   3.636  0.2225  0.8170 -0.6039
 5862TIP3    H217532   3.306   7.368   3.541 -0.4653 -0.5715  1.2289
 5863TIP3   OH217533   1.459   6.672   4.164  0.1847 -0.5722  0.5721
 5863TIP3    H117534   1.496   6.647   4.080 -0.9452 -0.4805  0.0330
 5863TIP3    H217535   1.383   6.727   4.142  0.3769  0.1629  1.6612
 5864TIP3   OH217536   5.610   5.395   4.935  0.1687 -0.1163 -0.0550
 5864TIP3    H117537   5.588   5.482   4.903 -1.3967 -0.3125  0.3879
 5864TIP3    H217538   5.525   5.353   4.950  0.8864 -1.4110  0.5572
 5865TIP3   OH217539   4.451   5.096   2.142 -0.6375 -0.6132  0.3688
 5865TIP3    H117540   4.403   5.096   2.225 -1.1999 -1.4664  0.0598
 5865TIP3    H217541   4.391   5.138   2.080 -0.6532 -0.9357  0.1637
 5866TIP3   OH217542   3.225   0.275   2.721 -0.3268  0.1280  0.0765
 5866TIP3    H117543   3.212   0.198   2.775 -1.3634 -0.2622 -0.6738
 5866TIP3    H217544   3.236   0.241   2.632 -2.0323  0.8530 -0.4608
 5867TIP3   OH217545   6.558   3.642   2.077 -0.2055 -0.4988  0.0142
 5867TIP3    H117546   6.527   3.732   2.085  0.1846 -0.2976 -0.6813
 5867TIP3    H217547   6.598   3.623   2.162 -0.7445 -0.1948  0.3403
 5868TIP3   OH217548   0.154   3.990   1.523  0.1041  0.0267  0.2707
 5868TIP3    H117549   0.226   3.972   1.583 -0.1639  0.4137  0.7140
 5868TIP3    H217550   0.126   4.079   1.545  0.4346  0.4312 -0.8703
 5869TIP3   OH217551   5.345   4.858   1.823  0.7950  0.2334  0.4555
 5869TIP3    H117552   5.419   4.819   1.869  1.0847  0.6093  0.3085
 5869TIP3    H217553   5.371   4.949   1.807  1.3105 -0.2494 -1.7287
 5870TIP3   OH217554   2.615   0.084   1.732 -0.0846 -0.2630 -0.5440
 5870TIP3    H117555   2.668   0.042   1.799  0.2414  0.0162 -0.6266
 5870TIP3    H217556   2.599   0.014   1.668  0.2273 -0.3359 -0.5451
 5871TIP3   OH217557   3.311   3.894   0.693  0.0348  0.7169  0.5543
 5871TIP3    H117558   3.282   3.983   0.714 -1.1218  0.9096 -1.5442
 5871TIP3    H217559   3.292   3.844   0.772  0.9214  2.3555  1.8702
 5872TIP3   OH217560   2.299   4.480   4.267 -0.0665  0.2613 -0.4253
 5872TIP3    H117561   2.286   4.562   4.313 -0.0549  0.5052 -0.8521
 5872TIP3    H217562   2.394   4.472   4.258  0.0010 -0.3860  0.6558
 5873TIP3   OH217563   5.439   4.925   3.434  1.1292  0.3422 -0.6585
 5873TIP3    H117564   5.376   4.866   3.393  0.7742  0.5620 -0.4332
 5873TIP3    H217565   5.518   4.872   3.446  0.7248 -0.1669 -0.2087
 5874TIP3   OH217566   0.617   0.497   5.860 -0.1365 -0.3550 -0.3102
 5874TIP3    H117567   0.526   0.525   5.861 -0.2490 -0.7316  0.8445
 5874TIP3    H217568   0.627   0.442   5.938  0.9302 -0.7904 -0.7279
 5875TIP3   OH217569   4.527   6.410   5.333  0.7916 -0.7421  0.3212
 5875TIP3    H117570   4.560   6.325   5.304 -1.0457 -1.2727 -0.3072
 5875TIP3    H217571   4.452   6.390   5.388  1.9175  0.4170  2.4032
 5876TIP3   OH217572   4.375   6.359   4.011 -1.3115 -0.1957 -0.3282
 5876TIP3    H117573   4.317   6.430   4.039  0.5035  0.9354  0.7318
 5876TIP3    H217574   4.393   6.309   4.091  1.1875  1.0251 -0.0490
 5877TIP3   OH217575   8.052   5.524   6.473 -0.2361 -0.0379  0.4394
 5877TIP3    H117576   8.015   5.440   6.499  0.8577 -0.5435  0.4388
 5877TIP3    H217577   7.980   5.586   6.481 -1.1619 -1.0355  0.0974
 5878TIP3   OH217578   0.918   4.559   5.723  0.1697 -0.1312 -0.2862
 5878TIP3    H117579   0.915   4.515   5.638 -1.2537  2.0583 -1.4889
 5878TIP3    H217580   0.996   4.614   5.719  1.0456 -1.2632  0.5591
 5879TIP3   OH217581   6.866   7.756   1.685  0.2205 -0.7434 -0.0612
 5879TIP3    H117582   6.795   7.719   1.738  1.4786 -1.2123  1.3711
 5879TIP3    H217583   6.862   7.850   1.701  0.3769 -0.8463  0.6522
 5880TIP3   OH217584   4.208   6.595   1.038  1.1543  0.0355 -0.1172
 5880TIP3    H117585   4.217   6.514   1.090  2.5897 -0.5520 -1.2260
 5880TIP3    H217586   4.140   6.575   0.975  0.0048  0.4561  0.9514
 5881TIP3   OH217587   4.278   3.528   2.966  0.0715  0.3217 -0.0839
 5881TIP3    H117588   4.190   3.491   2.970  0.3917 -0.3099  1.5692
 5881TIP3    H217589   4.264   3.622   2.972 -0.5262  0.2872 -0.7033
 5882TIP3   OH217590   4.844   4.319   0.912 -0.4535  0.4339  0.4094
 5882TIP3    H117591   4.829   4.413   0.904 -0.5514  0.3586 -0.3628
 5882TIP3    H217592   4.812   4.282   0.830  0.2772 -0.1864  0.3928
 5883TIP3   OH217593   4.340   2.096   0.919  0.3329  0.3864 -0.0838
 5883TIP3    H117594   4.252   2.071   0.949 -0.0031  0.1401 -1.2304
 5883TIP3    H217595   4.378   2.014   0.887 -0.0605  0.9391 -2.1178
 5884TIP3   OH217596   4.761   3.438   5.457 -0.2968 -0.1006  1.0239
 5884TIP3    H117597   4.668   3.422   5.468 -0.5734 -0.1239 -0.9764
 5884TIP3    H217598   4.766   3.521   5.408  0.7790  0.4352  1.9780
 5885TIP3   OH217599   2.161   6.566   5.864  0.0814 -0.4087 -0.4408
 5885TIP3    H117600   2.066   6.557   5.874  0.2013 -3.0363 -0.8917
 5885TIP3    H217601   2.180   6.526   5.779  1.4503  1.5908 -1.1429
 5886TIP3   OH217602   7.075   2.363   0.790  0.0728  0.4425  0.3099
 5886TIP3    H117603   7.074   2.428   0.719  0.7106 -1.7056 -1.7941
 5886TIP3    H217604   7.129   2.404   0.858  1.1318  1.8091 -1.2543
 5887TIP3   OH217605   6.407   3.095   1.214 -0.1664  0.4949 -0.0427
 5887TIP3    H117606   6.464   3.072   1.287 -0.4178 -0.3744 -0.1116
 5887TIP3    H217607   6.321   3.060   1.239 -0.5779  1.4227 -0.1280
 5888TIP3   OH217608   7.123   1.393   2.616 -0.5868  0.9640  0.4247
 5888TIP3    H117609   7.049   1.445   2.585  0.1135  1.7903  0.0992
 5888TIP3    H217610   7.140   1.330   2.546 -1.7297 -0.0451  1.0158
 5889TIP3   OH217611   1.919   5.965   6.318  0.2080 -0.7762  0.0406
 5889TIP3    H117612   1.883   5.877   6.302  0.3638 -0.9553  0.6491
 5889TIP3    H217613   1.853   6.024   6.282 -1.2381 -1.0642  2.0324
 5890TIP3   OH217614   0.248   1.197   5.196  0.5573 -0.8432  0.2804
 5890TIP3    H117615   0.172   1.153   5.158  1.3503 -1.0719 -1.1342
 5890TIP3    H217616   0.321   1.136   5.179  1.4959  0.5234 -0.7673
 5891TIP3   OH217617   0.153   0.155   6.637 -0.1473  0.0540 -0.1976
 5891TIP3    H117618   0.169   0.151   6.543  2.1034  0.3594  0.0955
 5891TIP3    H217619   0.166   0.247   6.660  0.2424 -0.1679  0.5312
 5892TIP3   OH217620   4.364   3.100   3.579 -0.1345 -0.0373  0.0015
 5892TIP3    H117621   4.352   3.085   3.485  1.5152 -1.7006  0.0040
 5892TIP3    H217622   4.418   3.179   3.583  0.9372 -0.6984 -0.5572
 5893TIP3   OH217623   7.621   0.682   0.741  0.1501 -0.7163  0.6356
 5893TIP3    H117624   7.673   0.628   0.683 -0.1462 -0.9515  0.5877
 5893TIP3    H217625   7.680   0.752   0.769  0.5433 -1.0887  0.7313
 5894TIP3   OH217626   2.439   4.038   3.004 -0.4696  0.6076 -0.3782
 5894TIP3    H117627   2.412   3.997   2.922  1.5131  0.8919 -1.2351
 5894TIP3    H217628   2.398   3.984   3.072 -1.9211  0.1910 -1.5216
 5895TIP3   OH217629   5.117   2.937   0.295  0.3481 -0.3703  0.3999
 5895TIP3    H117630   5.132   2.867   0.358 -1.8714 -0.7416  0.5973
 5895TIP3    H217631   5.097   2.891   0.213  0.8032  0.0772  0.0316
 5896TIP3   OH217632   7.395   5.864   1.427  0.2890 -0.0913  0.1379
 5896TIP3    H117633   7.337   5.914   1.484 -0.6213 -0.2172 -0.6515
 5896TIP3    H217634   7.474   5.916   1.422 -1.0334  1.9018 -1.5923
 5897TIP3   OH217635   0.512   6.006   3.887 -0.6467 -0.5755  0.0751
 5897TIP3    H117636   0.553   6.083   3.926  1.5233 -1.5578 -0.1293
 5897TIP3    H217637   0.555   5.996   3.802 -2.1651 -1.0028 -0.6678
 5898TIP3   OH217638   5.989   7.034   0.720  0.0855 -0.0265  0.1664
 5898TIP3    H117639   5.960   7.067   0.805  0.3979 -1.2328  0.7511
 5898TIP3    H217640   5.911   6.992   0.683 -0.2306  1.0527 -0.4521
 5899TIP3   OH217641   0.111   7.225   3.402 -0.0267  1.0933  0.0920
 5899TIP3    H117642   0.105   7.203   3.309 -1.2970 -0.5913  0.5176
 5899TIP3    H217643   0.022   7.210   3.435  0.8307 -0.2315  1.9503
 5900TIP3   OH217644   2.985   3.607   2.381 -0.3264 -0.5269 -0.2745
 5900TIP3    H117645   2.915   3.564   2.429  0.3152  0.8771  2.1399
 5900TIP3    H217646   3.065   3.565   2.413  0.2520  1.6871  1.5337
 5901TIP3   OH217647   4.837   4.762   0.728  0.2612  0.0794 -0.9245
 5901TIP3    H117648   4.855   4.792   0.639  0.9372  0.3844 -0.6924
 5901TIP3    H217649   4.782   4.831   0.765 -0.1220 -0.1077 -1.1468
 5902TIP3   OH217650   4.786   3.050   2.961 -0.2060 -0.1957  0.3293
 5902TIP3    H117651   4.851   3.021   2.897 -0.3695 -0.7618  0.4103
 5902TIP3    H217652   4.721   3.097   2.909  0.7675  1.2613  0.3841
 5903TIP3   OH217653   6.947   4.090   2.292  0.1179 -0.2906 -0.2200
 5903TIP3    H117654   7.021   4.074   2.234  0.7295 -2.2920  0.9902
 5903TIP3    H217655   6.925   4.004   2.327 -0.8808  0.6648  1.6936
 5904TIP3   OH217656   1.617   2.190   1.048 -0.4971 -0.4212  0.3747
 5904TIP3    H117657   1.623   2.233   0.962 -0.0023 -0.6798  0.2746
 5904TIP3    H217658   1.699   2.142   1.056  0.8731  2.0075  2.3166
 5905TIP3   OH217659   7.732   0.528   4.539  0.3728 -0.2434 -0.2350
 5905TIP3    H117660   7.826   0.532   4.521  0.4299  0.3924  0.1794
 5905TIP3    H217661   7.701   0.618   4.528 -0.2514 -0.5047 -0.6878
 5906TIP3   OH217662   4.736   6.332   5.080  0.3011 -0.1200 -0.2406
 5906TIP3    H117663   4.829   6.335   5.105 -0.0180 -2.0048  1.5034
 5906TIP3    H217664   4.695   6.282   5.151 -2.1394  1.0406 -0.7630
 5907TIP3   OH217665   3.218   6.385   1.724 -0.5530  0.3258  0.2654
 5907TIP3    H117666   3.300   6.422   1.759 -1.7446  1.4197  2.0584
 5907TIP3    H217667   3.178   6.342   1.799 -0.7203 -1.9884 -1.0599
 5908TIP3   OH217668   7.788   7.661   4.671 -0.0186  0.7354 -0.2454
 5908TIP3    H117669   7.830   7.678   4.755  1.5674  0.2001 -0.8997
 5908TIP3    H217670   7.739   7.580   4.684  0.3584  0.5646  0.1158
 5909TIP3   OH217671   6.823   7.280   2.380  0.3280 -0.9385 -0.6711
 5909TIP3    H117672   6.776   7.307   2.302 -2.7759  1.9612  1.9098
 5909TIP3    H217673   6.895   7.343   2.388 -0.5027 -0.0042 -0.2882
 5910TIP3   OH217674   6.104   3.336   2.256  0.2120  0.4176 -0.0878
 5910TIP3    H117675   6.178   3.310   2.311  1.5398  1.1376 -1.4570
 5910TIP3    H217676   6.037   3.271   2.273  1.4611 -0.7319  0.5988
 5911TIP3   OH217677   2.269   5.781   3.576 -0.3976  0.1781 -0.2636
 5911TIP3    H117678   2.256   5.876   3.579  0.7215  0.3864 -1.1127
 5911TIP3    H217679   2.321   5.767   3.497 -1.1644 -1.2336 -0.5385
 5912TIP3   OH217680   8.255   1.140   2.413 -0.7098  0.4951  0.2527
 5912TIP3    H117681   8.259   1.195   2.492  0.0902  0.8704 -0.0346
 5912TIP3    H217682   8.334   1.163   2.364 -0.6418 -0.5277 -0.1428
 5913TIP3   OH217683   6.917   6.294   6.721 -0.5688 -0.0935 -0.0993
 5913TIP3    H117684   6.857   6.312   6.648  0.1306 -0.8841 -0.8930
 5913TIP3    H217685   6.880   6.216   6.764 -0.8759  0.2578  0.2747
 5914TIP3   OH217686   7.009   4.276   6.108 -0.4965  0.1328  0.1982
 5914TIP3    H117687   6.989   4.361   6.068  2.1041 -0.3663 -2.5683
 5914TIP3    H217688   7.080   4.295   6.169  0.2195 -0.0024 -0.5631
 5915TIP3   OH217689   5.088   7.442   4.291 -0.6142  0.2372 -0.1266
 5915TIP3    H117690   5.015   7.408   4.342  0.6913  0.2911  1.8899
 5915TIP3    H217691   5.104   7.375   4.225 -0.3376 -1.4451  1.5599
 5916TIP3   OH217692   1.830   4.475   0.987 -0.0833  0.3902  0.5048
 5916TIP3    H117693   1.850   4.473   0.893  0.3407  1.8031  0.5321
 5916TIP3    H217694   1.740   4.445   0.993 -0.1469  0.3627 -0.3665
 5917TIP3   OH217695   8.310   3.311   4.637 -0.5150  0.2014  0.0629
 5917TIP3    H117696   8.284   3.290   4.547  2.8056  1.6557 -1.3954
 5917TIP3    H217697   8.298   3.405   4.644  1.0054  0.3963  0.4365
 5918TIP3   OH217698   5.718   0.705   4.567 -0.0771 -0.0598  0.7331
 5918TIP3    H117699   5.740   0.765   4.496 -0.4790 -0.9636 -0.1743
 5918TIP3    H217700   5.726   0.758   4.647 -0.6296  1.2472 -0.0580
 5919TIP3   OH217701   2.465   3.751   3.809  0.0478 -0.3758 -0.3045
 5919TIP3    H117702   2.455   3.837   3.850  0.3506 -0.8964  0.9015
 5919TIP3    H217703   2.397   3.749   3.742  0.1713  0.8793 -0.5038
 5920TIP3   OH217704   6.093   4.896   6.509  0.4691 -0.2563  0.0207
 5920TIP3    H117705   6.048   4.813   6.492  1.4998 -0.6833 -0.7443
 5920TIP3    H217706   6.093   4.903   6.605 -0.2425 -0.7861  0.0738
 5921TIP3   OH217707   4.332   6.118   6.536 -0.1154 -0.4378  0.5072
 5921TIP3    H117708   4.276   6.137   6.612 -0.5162  0.9033 -0.0963
 5921TIP3    H217709   4.371   6.202   6.513 -0.7122 -0.6166 -1.3296
 5922TIP3   OH217710   2.420   4.629   1.457 -0.0852  0.2028  0.3297
 5922TIP3    H117711   2.363   4.560   1.491 -0.9693 -0.6604 -2.5638
 5922TIP3    H217712   2.507   4.588   1.453  0.0202  0.2973  1.3932
 5923TIP3   OH217713   0.694   2.984   4.966  0.1633 -0.5006 -0.1148
 5923TIP3    H117714   0.772   2.930   4.983  0.4024  0.5114  2.4005
 5923TIP3    H217715   0.728   3.073   4.956 -0.6895  0.3001  2.9812
 5924TIP3   OH217716   7.053   7.539   5.615 -0.2870 -0.5121  0.1209
 5924TIP3    H117717   7.041   7.570   5.704  1.1769  1.5415 -0.3030
 5924TIP3    H217718   6.969   7.554   5.573 -0.4537  0.2882  0.7059
 5925TIP3   OH217719   3.843   6.288   2.648 -0.3093 -0.1803  0.3781
 5925TIP3    H117720   3.872   6.206   2.686  0.3998 -0.5991 -1.0171
 5925TIP3    H217721   3.893   6.297   2.567 -2.9342 -0.1944 -1.3924
 5926TIP3   OH217722   4.400   1.550   1.741  0.3563  0.3690 -0.0012
 5926TIP3    H117723   4.467   1.488   1.769  0.4975  1.1780  1.6112
 5926TIP3    H217724   4.347   1.566   1.820 -2.0481 -0.5751 -1.3180
 5927TIP3   OH217725   2.323   5.815   3.041  0.1319 -0.1398  0.4866
 5927TIP3    H117726   2.326   5.751   2.970 -1.1833  0.3054 -0.0006
 5927TIP3    H217727   2.414   5.824   3.069  0.4246 -1.7326  0.1382
 5928TIP3   OH217728   7.840   5.641   3.808  0.1229 -0.0244 -0.8034
 5928TIP3    H117729   7.861   5.576   3.875 -0.9395 -1.1654 -1.5403
 5928TIP3    H217730   7.925   5.663   3.769  0.8080  0.8987  1.0681
 5929TIP3   OH217731   1.151   5.543   2.268 -0.4249  0.1089  0.2112
 5929TIP3    H117732   1.062   5.531   2.299 -1.0158 -0.5942 -1.6411
 5929TIP3    H217733   1.170   5.463   2.218  0.7883  0.7760 -0.4386
 5930TIP3   OH217734   6.553   7.313   0.130 -0.2987 -0.2901  0.2693
 5930TIP3    H117735   6.550   7.265   0.213 -1.9884 -1.1548 -0.2551
 5930TIP3    H217736   6.613   7.263   0.075 -0.2125 -0.4536  0.5123
 5931TIP3   OH217737   5.279   2.252   0.699  0.3653  0.1124 -0.3489
 5931TIP3    H117738   5.198   2.233   0.747  1.2901 -0.0868  1.1992
 5931TIP3    H217739   5.289   2.347   0.706  2.6242 -0.1958  3.6658
 5932TIP3   OH217740   5.626   4.498   0.298  0.0363 -1.1520  0.4275
 5932TIP3    H117741   5.665   4.509   0.212 -1.0782  0.8377  0.0925
 5932TIP3    H217742   5.547   4.447   0.282  0.2944 -1.5460  0.4123
 5933TIP3   OH217743   5.773   3.327   1.881  0.4271  0.2190 -0.5629
 5933TIP3    H117744   5.743   3.239   1.859 -0.2997  0.3045  0.0430
 5933TIP3    H217745   5.856   3.313   1.926  0.0015 -0.2156  0.1160
 5934TIP3   OH217746   6.685   6.242   2.611  0.5407 -0.0618 -0.7969
 5934TIP3    H117747   6.616   6.295   2.571  1.7687  2.4269  0.1784
 5934TIP3    H217748   6.637   6.173   2.657 -1.2298  0.8633 -1.1329
 5935TIP3   OH217749   4.299   2.551   0.092 -0.2386 -0.0116  0.3130
 5935TIP3    H117750   4.241   2.483   0.058 -1.1601  1.1668 -0.5224
 5935TIP3    H217751   4.269   2.632   0.051  1.4232  0.7819  0.5658
 5936TIP3   OH217752   2.444   2.055   0.965  0.1180  0.2775 -0.0076
 5936TIP3    H117753   2.452   2.096   1.051 -1.0832 -0.5007  0.5196
 5936TIP3    H217754   2.405   1.969   0.984 -0.4786  0.2268 -1.3563
 5937TIP3   OH217755   5.150   0.002   2.152 -0.4293  0.0071  0.5673
 5937TIP3    H117756   5.089   0.050   2.096 -0.4009  0.9425  1.3081
 5937TIP3    H217757   5.150   0.051   2.235 -0.0684 -1.0353  1.2014
 5938TIP3   OH217758   2.405   5.167   3.222 -0.2337  0.1709 -0.1908
 5938TIP3    H117759   2.351   5.112   3.165  0.4996 -0.9779  0.2114
 5938TIP3    H217760   2.494   5.136   3.209  0.6041  2.9181 -1.8652
 5939TIP3   OH217761   4.270   0.612   1.203  0.0650  0.1812  0.2655
 5939TIP3    H117762   4.288   0.605   1.109 -2.1409 -0.0031 -0.1973
 5939TIP3    H217763   4.183   0.650   1.208  0.5415  1.1594  2.2966
 5940TIP3   OH217764   2.226   0.200   2.666  0.0915 -0.1054 -0.0435
 5940TIP3    H117765   2.295   0.150   2.622 -1.5705 -1.9835 -0.6512
 5940TIP3    H217766   2.220   0.160   2.753 -0.8235 -0.5598 -0.3116
 5941TIP3   OH217767   1.904   1.000   5.210  0.9114  0.7422 -0.0056
 5941TIP3    H117768   1.998   1.015   5.198  1.2424 -0.5335  0.8123
 5941TIP3    H217769   1.896   0.906   5.224 -0.5867  0.7288 -0.7860
 5942TIP3   OH217770   3.675   0.460   1.845 -0.3919  0.2817  1.2302
 5942TIP3    H117771   3.643   0.524   1.782  0.5167 -2.0995 -1.9254
 5942TIP3    H217772   3.596   0.422   1.884 -1.0337  0.9998  0.6569
 5943TIP3   OH217773   0.436   3.891   3.018  0.1026  0.0787  0.9306
 5943TIP3    H117774   0.452   3.813   3.072 -1.2648 -0.5394  0.4804
 5943TIP3    H217775   0.440   3.964   3.080  2.2781 -0.2097  1.2222
 5944TIP3   OH217776   7.338   6.016   0.105 -0.1583  0.6368 -0.3692
 5944TIP3    H117777   7.296   6.042   0.023  1.0723  3.2469 -0.2886
 5944TIP3    H217778   7.382   5.933   0.084  0.1063  1.2314 -2.3599
 5945TIP3   OH217779   7.532   2.847   6.347 -0.4948  0.0056  0.4567
 5945TIP3    H117780   7.503   2.757   6.329 -1.1174  0.3175 -0.1676
 5945TIP3    H217781   7.533   2.889   6.261  0.3698  0.4350  0.6724
 5946TIP3   OH217782   7.094   4.186   4.218  0.2296 -0.0028 -0.3296
 5946TIP3    H117783   7.155   4.207   4.289 -0.4759 -0.8991  0.5655
 5946TIP3    H217784   7.142   4.125   4.162  1.4382  2.0156 -1.6609
 5947TIP3   OH217785   5.014   7.734   5.183  0.2195  0.5712  0.6994
 5947TIP3    H117786   4.948   7.735   5.114  0.3508 -0.0154  0.5577
 5947TIP3    H217787   5.092   7.773   5.144  0.9606 -1.6277 -0.1944
 5948TIP3   OH217788   0.346   7.053   4.415 -0.6925  0.2191 -0.5296
 5948TIP3    H117789   0.329   7.075   4.506 -1.8811  0.2161 -0.7285
 5948TIP3    H217790   0.289   6.979   4.397  1.7016 -1.7646 -0.4608
 5949TIP3   OH217791   0.441   7.556   5.338  0.1591  0.4288  0.4747
 5949TIP3    H117792   0.449   7.646   5.368  2.9747 -0.4671  2.8728
 5949TIP3    H217793   0.516   7.511   5.377 -1.1546 -2.9700 -0.5752
 5950TIP3   OH217794   0.947   4.870   4.910  0.1969  0.3085 -0.0215
 5950TIP3    H117795   0.928   4.899   4.999  1.1478 -0.5287  0.4759
 5950TIP3    H217796   0.866   4.885   4.862 -0.4696  0.3567  1.0896
 5951TIP3   OH217797   7.222   2.000   6.575  0.0781 -0.2515  0.2244
 5951TIP3    H117798   7.227   1.974   6.483 -0.2767  1.5816 -0.3523
 5951TIP3    H217799   7.171   1.930   6.617 -2.1582  0.1752 -1.5443
 5952TIP3   OH217800   0.181   7.501   5.418 -0.8510  0.1961 -0.2905
 5952TIP3    H117801   0.272   7.511   5.390 -0.4392 -1.4173  0.3780
 5952TIP3    H217802   0.181   7.527   5.510 -1.1129  0.3775 -0.3398
 5953TIP3   OH217803   8.269   4.877   1.005  0.7580 -1.1314  0.0993
 5953TIP3    H117804   8.325   4.850   0.932  1.1888 -0.5268  0.1924
 5953TIP3    H217805   8.263   4.972   0.996  0.1003 -1.1414  0.3554
 5954TIP3   OH217806   6.259   0.385   0.619 -0.2681 -0.1310  0.3352
 5954TIP3    H117807   6.166   0.406   0.615 -0.1880  0.5690  1.4804
 5954TIP3    H217808   6.262   0.298   0.660 -0.4278 -0.3746 -0.1615
 5955TIP3   OH217809   0.423   6.994   0.447 -0.3612 -0.0063  0.2314
 5955TIP3    H117810   0.497   7.010   0.388  1.1065 -2.8402  1.1328
 5955TIP3    H217811   0.349   7.037   0.404  1.0027 -0.3977 -2.7471
 5956TIP3   OH217812   2.569   0.724   4.625 -0.2182  0.1969  0.6812
 5956TIP3    H117813   2.484   0.740   4.583  0.4283 -2.1239 -1.8683
 5956TIP3    H217814   2.569   0.630   4.642  1.2375  0.4276  2.1332
 5957TIP3   OH217815   0.827   5.271   6.110  0.3829  0.3191  0.0767
 5957TIP3    H117816   0.882   5.329   6.058  1.9082 -0.1025  1.1724
 5957TIP3    H217817   0.777   5.221   6.046  0.9183  1.0532 -0.9279
 5958TIP3   OH217818   4.793   0.167   6.576 -0.0779 -0.0282  0.5547
 5958TIP3    H117819   4.818   0.231   6.510  0.2981 -1.4888 -0.7724
 5958TIP3    H217820   4.851   0.093   6.562 -0.8035 -0.8748  1.7374
 5959TIP3   OH217821   4.522   3.334   3.538  0.1805  0.0864  0.5878
 5959TIP3    H117822   4.544   3.402   3.475 -0.2656 -0.2331  0.0758
 5959TIP3    H217823   4.606   3.303   3.571  0.6338 -1.8310 -2.0850
 5960TIP3   OH217824   7.044   0.742   3.613  0.4120  0.2045  0.2342
 5960TIP3    H117825   7.002   0.740   3.528  0.6730  1.6828  0.0432
 5960TIP3    H217826   6.977   0.711   3.674  0.1251 -0.5652 -0.4508
 5961TIP3   OH217827   1.418   4.624   6.480  0.0391  0.4016  0.2438
 5961TIP3    H117828   1.448   4.584   6.398 -2.8174 -1.5288  0.0023
 5961TIP3    H217829   1.435   4.558   6.546 -0.3748  0.7359  0.6908
 5962TIP3   OH217830   7.410   5.380   0.782  0.0690  0.3329 -0.3067
 5962TIP3    H117831   7.413   5.441   0.855  2.7431  0.3389 -0.3500
 5962TIP3    H217832   7.425   5.294   0.822  0.1170  0.1640 -0.6840
 5963TIP3   OH217833   4.500   3.418   5.464 -0.3541 -0.1889  0.0216
 5963TIP3    H117834   4.478   3.505   5.496  0.2950 -0.6716  1.9669
 5963TIP3    H217835   4.432   3.397   5.400 -0.2915  1.8806 -0.7955
 5964TIP3   OH217836   8.009   2.181   6.290  0.4839  0.1756  0.2460
 5964TIP3    H117837   8.031   2.253   6.349  0.2698  0.7212 -0.3345
 5964TIP3    H217838   7.977   2.223   6.211  1.8054 -0.5214 -0.6876
 5965TIP3   OH217839   8.099   1.349   4.008  0.1699  0.3312  0.2838
 5965TIP3    H117840   8.085   1.402   3.930  0.2944 -0.5556 -0.3644
 5965TIP3    H217841   8.019   1.297   4.016  0.8694 -0.8971 -0.3369
 5966TIP3   OH217842   3.811   4.749   0.634  0.3399  0.8056 -0.3364
 5966TIP3    H117843   3.902   4.779   0.635  0.2517  1.0699  0.0474
 5966TIP3    H217844   3.807   4.686   0.562  0.9580  0.3808 -0.0078
 5967TIP3   OH217845   7.218   3.626   1.487  0.0127  0.4398 -0.0669
 5967TIP3    H117846   7.226   3.564   1.559 -1.4186 -0.2607 -0.4602
 5967TIP3    H217847   7.171   3.577   1.419 -0.2009  1.6191 -0.8014
 5968TIP3   OH217848   7.018   3.235   4.880  0.5170  0.5273 -0.5823
 5968TIP3    H117849   6.945   3.227   4.941  1.4138 -1.3427  0.3175
 5968TIP3    H217850   7.064   3.314   4.909  1.4327 -0.7815  1.8270
 5969TIP3   OH217851   8.175   0.576   5.864  0.1260  0.2398 -0.2235
 5969TIP3    H117852   8.190   0.596   5.956  3.7697 -2.2068 -0.0835
 5969TIP3    H217853   8.099   0.518   5.865 -1.1574  1.8361  0.9120
 5970TIP3   OH217854   6.208   6.422   4.700 -0.2538  0.1873  0.1660
 5970TIP3    H117855   6.197   6.486   4.629 -0.8923 -0.9410 -0.7871
 5970TIP3    H217856   6.119   6.394   4.720 -0.0576  0.3362  1.2917
 5971TIP3   OH217857   5.753   0.992   3.961 -0.5044 -0.0425 -0.1546
 5971TIP3    H117858   5.724   0.960   4.046 -2.2716  3.1858  0.6468
 5971TIP3    H217859   5.695   0.950   3.898  0.4376 -2.0076  0.2113
 5972TIP3   OH217860   6.657   4.992   6.606 -0.4374  0.1123 -0.3212
 5972TIP3    H117861   6.569   4.960   6.590 -0.8530  1.0033  0.1110
 5972TIP3    H217862   6.663   5.073   6.556 -0.7668  1.4075  1.6451
 5973TIP3   OH217863   1.311   5.074   4.608  0.5282  0.3634 -0.7123
 5973TIP3    H117864   1.402   5.105   4.603 -0.2495  2.6431 -2.4141
 5973TIP3    H217865   1.258   5.154   4.609 -1.5136 -0.9173 -0.8014
 5974TIP3   OH217866   2.204   0.066   0.561 -0.0535 -0.1009  0.2027
 5974TIP3    H117867   2.267   0.121   0.515  0.2888  0.7598  1.6177
 5974TIP3    H217868   2.220  -0.022   0.528  2.3639 -0.0198  0.9375
 5975TIP3   OH217869   8.099   1.227   4.914 -0.5247  0.8238  0.4108
 5975TIP3    H117870   8.035   1.158   4.895  0.1408  0.0464  0.9791
 5975TIP3    H217871   8.160   1.224   4.840 -1.0976  1.5535 -0.1220
 5976TIP3   OH217872   7.689   0.200   5.786  0.2844  0.2325  0.3171
 5976TIP3    H117873   7.669   0.243   5.870  1.5770 -0.2774  0.9148
 5976TIP3    H217874   7.780   0.174   5.794  0.0398 -1.0466 -0.7240
 5977TIP3   OH217875   5.471   1.178   0.604  0.3646 -0.1708  0.8526
 5977TIP3    H117876   5.420   1.186   0.523  0.2276 -1.3169  0.8026
 5977TIP3    H217877   5.426   1.109   0.653 -0.1483  1.2071  2.3852
 5978TIP3   OH217878   6.811   1.425   6.177 -0.5795  0.0940 -0.1389
 5978TIP3    H117879   6.717   1.414   6.193 -0.0691 -1.9141  1.9873
 5978TIP3    H217880   6.848   1.337   6.188  1.8208  1.1850  1.3351
 5979TIP3   OH217881   2.135   7.531   3.816 -0.1953  0.0695 -0.5501
 5979TIP3    H117882   2.061   7.472   3.799  0.2541 -0.9923  1.0098
 5979TIP3    H217883   2.158   7.516   3.907  2.3384 -0.0877 -1.1406
 5980TIP3   OH217884   5.334   2.707   2.716  0.0489  0.4288  0.1709
 5980TIP3    H117885   5.311   2.795   2.745 -0.4015  0.4247 -0.1697
 5980TIP3    H217886   5.332   2.654   2.796  1.1847  0.8947  0.5302
 5981TIP3   OH217887   1.677   4.366   1.719  0.1170  0.5837  0.6960
 5981TIP3    H117888   1.750   4.427   1.723  1.2555 -0.5928 -0.8980
 5981TIP3    H217889   1.600   4.421   1.703  1.0455  1.6234 -0.3404
 5982TIP3   OH217890   5.062   7.834   4.844 -0.1220  0.6022  0.0630
 5982TIP3    H117891   5.111   7.761   4.806 -2.7425 -1.0293 -0.4165
 5982TIP3    H217892   5.066   7.903   4.778  0.8631  0.2459 -0.2639
 5983TIP3   OH217893   4.065   6.293   6.466  0.2480  0.1605  0.0921
 5983TIP3    H117894   4.008   6.303   6.542 -1.2534  2.5844 -1.2198
 5983TIP3    H217895   4.073   6.198   6.454 -1.4573 -0.2663  1.8276
 5984TIP3   OH217896   3.551   2.320   5.116  0.1520  0.2085  0.2805
 5984TIP3    H117897   3.535   2.301   5.209 -0.0079 -0.9713  0.0212
 5984TIP3    H217898   3.638   2.283   5.098  0.7063  1.4686  0.2320
 5985TIP3   OH217899   4.225   4.686   6.142 -0.2794  0.2532  0.1903
 5985TIP3    H117900   4.255   4.667   6.053 -2.2691  0.5210 -0.5875
 5985TIP3    H217901   4.183   4.605   6.171 -1.2129  0.7165  0.1718
 5986TIP3   OH217902   3.013   3.459   5.834 -0.1745  0.3162  0.3323
 5986TIP3    H117903   3.093   3.506   5.809  0.8504 -1.7024 -0.5096
 5986TIP3    H217904   2.942   3.518   5.812  1.0628  2.3379  1.4274
 5987TIP3   OH217905   3.486   3.165   4.279 -0.2782 -0.1771  0.2142
 5987TIP3    H117906   3.408   3.128   4.237 -0.5309  0.1195  0.4117
 5987TIP3    H217907   3.483   3.258   4.256  0.8990 -0.4412 -1.1238
 5988TIP3   OH217908   8.248   5.702   6.360  0.6605  0.2163  0.0710
 5988TIP3    H117909   8.201   5.756   6.296 -0.8604  1.1347  1.8808
 5988TIP3    H217910   8.188   5.629   6.377  0.8911  0.1669  0.6891
 5989TIP3   OH217911   4.484   1.987   5.883  0.2702  0.2267  0.1146
 5989TIP3    H117912   4.464   1.949   5.797  0.9560  0.4330 -0.1461
 5989TIP3    H217913   4.578   1.973   5.894  0.1672  0.1114  0.8833
 5990TIP3   OH217914   3.494   7.254   6.689 -0.2316 -0.1134  0.0609
 5990TIP3    H117915   3.439   7.292   6.757 -1.2470 -0.7026 -0.3979
 5990TIP3    H217916   3.433   7.205   6.634  0.4783  0.7190 -1.5408
 5991TIP3   OH217917   0.555   2.078   2.254  0.3622  0.0772  0.2966
 5991TIP3    H117918   0.482   2.046   2.307 -1.6422  0.3800 -2.1102
 5991TIP3    H217919   0.552   2.173   2.264 -0.5616  0.1945 -0.9798
 5992TIP3   OH217920   6.449   1.852   4.992 -0.2788 -0.0558 -0.0284
 5992TIP3    H117921   6.354   1.843   4.993 -0.3921 -0.9084 -3.7227
 5992TIP3    H217922   6.481   1.767   5.024 -0.7444 -0.0396  0.4970
 5993TIP3   OH217923   0.332   6.989   5.912  0.6261  0.0151 -0.2421
 5993TIP3    H117924   0.272   7.063   5.918  0.6225  0.0695 -0.9229
 5993TIP3    H217925   0.411   7.019   5.959  0.4832  0.3038 -0.1820
 5994TIP3   OH217926   7.963   0.426   3.649  0.6534  0.2224  0.7748
 5994TIP3    H117927   8.005   0.343   3.626 -0.8227 -1.1167  2.5126
 5994TIP3    H217928   7.910   0.405   3.727 -2.2318  2.0324 -0.5200
 5995TIP3   OH217929   3.074   6.573   5.730 -0.1733  0.2774  0.1918
 5995TIP3    H117930   2.989   6.617   5.741 -0.8162 -0.1259 -2.5024
 5995TIP3    H217931   3.053   6.480   5.731  0.3298  0.1619  0.0205
 5996TIP3   OH217932   0.702   3.068   5.335 -0.5937  0.2080 -0.0229
 5996TIP3    H117933   0.737   2.989   5.294  0.2807  0.6195 -0.1075
 5996TIP3    H217934   0.740   3.140   5.283  1.3397  0.7966  2.0455
 5997TIP3   OH217935   8.076   5.431   3.673 -0.2750  0.0458 -0.8918
 5997TIP3    H117936   8.138   5.485   3.623  0.4408 -2.1357 -2.5368
 5997TIP3    H217937   8.010   5.406   3.608 -1.5974  0.3835  0.2830
 5998TIP3   OH217938   7.486   4.182   4.707  0.4738  0.0042  0.3992
 5998TIP3    H117939   7.514   4.265   4.669  0.0500 -0.1981 -0.3848
 5998TIP3    H217940   7.555   4.159   4.769  1.3533  0.1926 -0.4806
 5999TIP3   OH217941   5.128   1.584   1.404  0.1304 -0.1634 -0.5811
 5999TIP3    H117942   5.156   1.504   1.361 -0.7169 -0.0712 -1.3407
 5999TIP3    H217943   5.149   1.653   1.341  2.6650  0.4828  0.8476
 6000TIP3   OH217944   0.473   1.597   3.728 -0.2427 -0.2991  0.3170
 6000TIP3    H117945   0.441   1.601   3.819 -1.1453  0.9506 -0.0255
 6000TIP3    H217946   0.502   1.507   3.717 -2.9864 -1.3771  0.9450
 6001TIP3   OH217947   4.203   6.397   2.763  0.4869 -0.3238  0.3898
 6001TIP3    H117948   4.200   6.311   2.722  0.2492 -0.6168  1.0021
 6001TIP3    H217949   4.128   6.397   2.823  0.1151  0.5450 -0.0661
 6002TIP3   OH217950   3.117   6.710   0.129 -0.0629  0.0248  0.0091
 6002TIP3    H117951   3.050   6.745   0.188 -1.6993 -1.0827 -1.1235
 6002TIP3    H217952   3.092   6.741   0.042  2.3275  1.6360 -0.2129
 6003TIP3   OH217953   6.907   6.680   3.492 -0.5479  0.2074  0.3755
 6003TIP3    H117954   6.878   6.620   3.560  1.5151 -0.8892  0.3440
 6003TIP3    H217955   6.867   6.646   3.412 -0.3060 -0.4576  0.5323
 6004TIP3   OH217956   2.247   7.171   3.692  0.3241  0.0224  0.1710
 6004TIP3    H117957   2.335   7.184   3.727  0.2762 -0.1524  0.3591
 6004TIP3    H217958   2.189   7.200   3.763  0.2249  1.5327 -0.4811
 6005TIP3   OH217959   2.975   3.637   3.376  0.7188  0.0336  0.4333
 6005TIP3    H117960   2.988   3.557   3.326  0.5130  0.3012 -0.0587
 6005TIP3    H217961   2.934   3.698   3.314  2.8513  1.2617  0.1502
 6006TIP3   OH217962   6.636   3.335   6.423  0.4194 -0.5665  0.1941
 6006TIP3    H117963   6.545   3.310   6.406  0.6731 -1.8367  0.6091
 6006TIP3    H217964   6.678   3.254   6.452  0.8600  0.6603  3.3756
 6007TIP3   OH217965   1.728   3.472   4.361 -0.1391 -0.3216 -0.4584
 6007TIP3    H117966   1.642   3.508   4.379 -0.6712 -1.6658 -0.1562
 6007TIP3    H217967   1.742   3.486   4.268 -0.7544 -0.2132 -0.5335
 6008TIP3   OH217968   7.091   7.152   6.582 -0.1758  0.0266 -0.1980
 6008TIP3    H117969   7.064   7.135   6.673  0.3562 -2.1170 -0.3986
 6008TIP3    H217970   7.088   7.066   6.540  1.0636  0.7430 -1.8180
 6009TIP3   OH217971   3.899   2.042   5.714  0.4156 -0.2968 -0.4304
 6009TIP3    H117972   3.963   1.983   5.754  0.0015 -0.9238 -0.6642
 6009TIP3    H217973   3.818   1.990   5.711 -0.4138  0.8424  0.8705
 6010TIP3   OH217974   0.146   3.758   0.765 -0.4223 -0.0080  0.1046
 6010TIP3    H117975   0.174   3.769   0.674  0.4834  1.9574  0.5644
 6010TIP3    H217976   0.216   3.706   0.805 -0.9769 -1.1490 -0.3623
 6011TIP3   OH217977   5.048   3.624   2.181  0.4907  0.3666 -0.1656
 6011TIP3    H117978   5.014   3.642   2.094 -2.2024  1.6179  1.0349
 6011TIP3    H217979   5.045   3.709   2.226  1.1174 -0.3923  1.3783
 6012TIP3   OH217980   7.134   4.515   1.464 -0.1529  0.4307  0.4796
 6012TIP3    H117981   7.118   4.459   1.388  1.0509 -2.3881  2.1368
 6012TIP3    H217982   7.061   4.576   1.465 -0.2872  0.5040 -2.8102
 6013TIP3   OH217983   2.869   5.104   5.175  0.2669 -0.0400 -0.1105
 6013TIP3    H117984   2.821   5.170   5.124  2.0085  0.9553 -0.5328
 6013TIP3    H217985   2.876   5.029   5.117  1.0182  0.5799 -0.8502
 6014TIP3   OH217986   5.910   4.649   2.790 -0.1832 -0.1499 -0.7605
 6014TIP3    H117987   5.976   4.666   2.857  0.1667 -1.4608 -0.7454
 6014TIP3    H217988   5.960   4.627   2.712 -0.5960  1.0245 -1.3857
 6015TIP3   OH217989   5.062   3.069   3.664 -0.5460 -0.1836  0.2563
 6015TIP3    H117990   5.151   3.091   3.691  0.9078 -2.5339 -2.1553
 6015TIP3    H217991   5.045   3.127   3.589  0.2056 -1.7198 -1.1586
 6016TIP3   OH217992   7.589   4.475   1.289 -0.3765 -0.1890 -0.2072
 6016TIP3    H117993   7.646   4.451   1.362 -0.5263  0.0093 -0.0236
 6016TIP3    H217994   7.509   4.423   1.302 -0.4578 -0.0509 -0.1514
 6017TIP3   OH217995   3.101   7.695   5.936 -0.7912  0.0260 -0.0739
 6017TIP3    H117996   3.119   7.776   5.984 -0.8210 -0.3299  0.5563
 6017TIP3    H217997   3.006   7.683   5.945 -0.5473 -1.0786  1.5136
 6018TIP3   OH217998   1.987   4.059   1.506 -0.0104 -0.1317 -0.5295
 6018TIP3    H117999   1.929   3.992   1.470 -1.6185  0.2418  1.1825
 6018TIP3    H218000   1.965   4.061   1.599  1.4948  1.3322 -0.1626
 6019TIP3   OH218001   5.116   6.368   3.274  0.2012 -0.4549  0.0648
 6019TIP3    H118002   5.157   6.334   3.353 -1.1703  0.3334  1.1599
 6019TIP3    H218003   5.059   6.438   3.304 -0.9914 -0.6670 -1.5270
 6020TIP3   OH218004   2.827   2.952   0.684  0.2640  0.0590  0.4451
 6020TIP3    H118005   2.844   3.004   0.763  0.7062  1.9510 -0.8390
 6020TIP3    H218006   2.913   2.928   0.652  0.1109  0.0452  0.0463
 6021TIP3   OH218007   4.739   1.938   3.804 -0.0122 -0.6848  0.4057
 6021TIP3    H118008   4.760   1.910   3.715  2.6120 -0.2651  0.8056
 6021TIP3    H218009   4.699   1.861   3.844 -0.5110 -1.1318 -0.8807
 6022TIP3   OH218010   4.265   6.923   3.200 -0.3069 -0.0724  0.4162
 6022TIP3    H118011   4.331   6.964   3.144  2.1967 -0.8927  2.5799
 6022TIP3    H218012   4.268   6.830   3.178 -2.8732  0.1606 -1.4148
 6023TIP3   OH218013   4.345   1.113   3.262 -0.0768 -0.0707  0.3448
 6023TIP3    H118014   4.286   1.040   3.244 -1.0444  1.0654 -1.3343
 6023TIP3    H218015   4.431   1.080   3.239 -0.5346 -0.6018 -0.6672
 6024TIP3   OH218016   6.725   1.635   1.332 -0.7695 -0.0669  0.1175
 6024TIP3    H118017   6.716   1.569   1.400  1.3535 -1.2127 -0.6123
 6024TIP3    H218018   6.743   1.716   1.380  0.7301 -0.8601  0.9902
 6025TIP3   OH218019   7.050   0.837   6.301  0.6003  0.2492 -0.5321
 6025TIP3    H118020   7.060   0.853   6.208 -1.1246  1.0144 -0.6267
 6025TIP3    H218021   6.968   0.882   6.325  1.0432  0.1615  1.3596
 6026TIP3   OH218022   1.816   5.578   3.723  0.3743 -0.1061 -0.1883
 6026TIP3    H118023   1.811   5.503   3.663  2.4492  0.6781 -1.4798
 6026TIP3    H218024   1.882   5.635   3.683 -3.2393  4.0330 -1.0371
 6027TIP3   OH218025   7.853   6.119   1.590  0.1904  0.2853 -0.0864
 6027TIP3    H118026   7.800   6.193   1.621  0.0313  0.3290 -0.4593
 6027TIP3    H218027   7.943   6.148   1.603  0.1309  0.5781 -0.2968
 6028TIP3   OH218028   0.188   2.185   1.978  0.0205 -0.1304 -0.9718
 6028TIP3    H118029   0.155   2.170   2.066 -1.0077 -1.4026 -1.5446
 6028TIP3    H218030   0.258   2.250   1.989 -1.9405  1.8769  0.4341
 6029TIP3   OH218031   0.843   1.565   2.352 -0.6835 -0.4618  0.1671
 6029TIP3    H118032   0.838   1.649   2.399  0.6523 -0.3070  0.0663
 6029TIP3    H218033   0.933   1.536   2.363 -1.2929 -2.2691  0.7989
 6030TIP3   OH218034   5.321   3.601   3.824  0.0879  0.1899  0.5252
 6030TIP3    H118035   5.410   3.577   3.799  0.1035  0.4305  0.3499
 6030TIP3    H218036   5.330   3.641   3.910  0.3281  1.4733 -0.0772
 6031TIP3   OH218037   7.289   2.818   2.252 -0.5399 -0.4742  0.3185
 6031TIP3    H118038   7.224   2.749   2.241  1.4131 -2.4487  0.5990
 6031TIP3    H218039   7.319   2.838   2.164 -0.1338 -0.9569  0.3486
 6032TIP3   OH218040   7.710   2.359   5.187 -0.1898 -0.6441  0.5553
 6032TIP3    H118041   7.618   2.369   5.165 -0.2340 -1.0941  0.5141
 6032TIP3    H218042   7.752   2.331   5.106  0.0065 -0.3207  0.5432
 6033TIP3   OH218043   5.036   3.665   0.732 -0.0306 -0.7394 -0.6364
 6033TIP3    H118044   4.957   3.720   0.726 -0.5498 -1.5779 -2.1725
 6033TIP3    H218045   5.088   3.705   0.801 -2.0469 -0.4674  0.8274
 6034TIP3   OH218046   4.210   7.081   0.745  0.1654  0.1048 -0.0140
 6034TIP3    H118047   4.176   7.065   0.833 -0.0346 -0.0208 -0.1123
 6034TIP3    H218048   4.180   7.169   0.723 -0.4689 -0.1691 -0.2694
 6035TIP3   OH218049   7.074   2.236   2.626  0.2938  0.2438  0.1860
 6035TIP3    H118050   7.112   2.171   2.566 -1.5565  0.3264 -1.1304
 6035TIP3    H218051   7.041   2.184   2.699  0.5729 -0.0981  0.0733
 6036TIP3   OH218052   1.175   6.799   4.186  0.0148  0.2111  0.2256
 6036TIP3    H118053   1.079   6.802   4.188 -0.0091 -0.4117  2.6458
 6036TIP3    H218054   1.202   6.873   4.241  0.9958  1.2696 -1.5911
 6037TIP3   OH218055   0.602   4.272   0.339  0.2222 -0.3233  0.2524
 6037TIP3    H118056   0.575   4.357   0.374  1.8193  0.0488  0.6490
 6037TIP3    H218057   0.592   4.211   0.411  1.0214 -0.0628  0.5917
 6038TIP3   OH218058   0.373   0.860   6.244  0.3526 -0.1360 -0.2398
 6038TIP3    H118059   0.433   0.887   6.313 -0.2553 -0.2040  0.3176
 6038TIP3    H218060   0.402   0.909   6.167  1.2163 -0.2888 -0.0168
 6039TIP3   OH218061   3.410   6.187   6.737 -0.3248  0.2888 -0.3659
 6039TIP3    H118062   3.426   6.166   6.645 -1.8492  2.0585 -1.0893
 6039TIP3    H218063   3.332   6.137   6.760  0.3482 -0.5488  0.1428
 6040TIP3   OH218064   5.315   4.672   0.026 -0.8391 -0.2821  0.4304
 6040TIP3    H118065   5.399   4.718   0.023 -1.3591  1.3359  4.4003
 6040TIP3    H218066   5.335   4.584  -0.005  1.8336  0.6057 -0.6645
 6041TIP3   OH218067   2.929   7.403   1.078  0.0210 -0.0785 -0.1201
 6041TIP3    H118068   2.856   7.438   1.129 -0.0913 -0.4930  0.0125
 6041TIP3    H218069   3.000   7.394   1.141 -0.1486 -0.6870  0.0007
 6042TIP3   OH218070   4.543   5.671   3.215 -0.3605  0.2829  0.5003
 6042TIP3    H118071   4.590   5.589   3.231 -0.7755 -0.1944 -0.6730
 6042TIP3    H218072   4.477   5.649   3.150 -0.9427  1.3993  0.6896
 6043TIP3   OH218073   6.955   0.975   0.017  0.4646 -0.1154 -0.2295
 6043TIP3    H118074   6.989   1.048   0.069  1.3438 -0.0122 -0.9241
 6043TIP3    H218075   6.860   0.979   0.030  0.6438 -0.0160  1.2465
 6044TIP3   OH218076   2.038   2.229   6.132 -0.0395  0.5690  0.1459
 6044TIP3    H118077   1.982   2.151   6.138  0.2360  0.2763 -0.9447
 6044TIP3    H218078   2.121   2.196   6.098 -0.4595  1.5686 -2.0087
 6045TIP3   OH218079   0.522   1.890   4.775  0.7384  0.2096  0.7661
 6045TIP3    H118080   0.495   1.888   4.867 -1.0750 -1.2070  0.2735
 6045TIP3    H218081   0.548   1.800   4.755 -1.4847 -0.2070 -0.7200
 6046TIP3   OH218082   6.869   5.240   5.321 -0.2165 -0.6519 -0.2403
 6046TIP3    H118083   6.932   5.183   5.278  1.3078 -1.3159  2.6717
 6046TIP3    H218084   6.806   5.181   5.362 -0.7785 -0.0899 -0.2736
 6047TIP3   OH218085   7.991   0.446   1.953 -0.2594  0.7827 -0.1657
 6047TIP3    H118086   7.925   0.478   1.892 -0.4075  0.0878 -0.3773
 6047TIP3    H218087   8.075   0.464   1.910 -0.3067  1.4778  0.0134
 6048TIP3   OH218088   0.426   6.293   2.709  0.4633  0.5674  0.3606
 6048TIP3    H118089   0.361   6.242   2.662 -0.0293  0.6136  0.9867
 6048TIP3    H218090   0.482   6.329   2.640  1.0931 -1.1490 -0.0757
 6049TIP3   OH218091   0.628   4.281   2.026 -0.4137  0.1062 -0.7516
 6049TIP3    H118092   0.619   4.186   2.018 -0.6708  0.2141 -1.8393
 6049TIP3    H218093   0.719   4.294   2.054 -0.7016 -0.4990  0.5460
 6050TIP3   OH218094   7.223   2.258   2.919  0.2244 -0.5424  0.4092
 6050TIP3    H118095   7.220   2.266   3.014  0.3755 -0.0285  0.3726
 6050TIP3    H218096   7.136   2.226   2.895 -1.1471  2.7730  0.4277
 6051TIP3   OH218097   4.310   3.233   5.608  0.0343 -0.4019 -0.2612
 6051TIP3    H118098   4.275   3.315   5.643  2.9051 -0.8584  4.3811
 6051TIP3    H218099   4.404   3.248   5.600  0.3783 -2.6612 -1.3782
 6052TIP3   OH218100   1.124   7.526   1.303  0.2735  0.2287  0.5756
 6052TIP3    H118101   1.156   7.498   1.388 -1.5216 -1.6031  0.7425
 6052TIP3    H218102   1.042   7.572   1.321 -0.3730 -0.5876 -0.1323
 6053TIP3   OH218103   6.775   5.193   1.790 -0.2553  0.4993  0.4463
 6053TIP3    H118104   6.783   5.180   1.884 -0.4202 -1.9690  0.1818
 6053TIP3    H218105   6.858   5.233   1.764  0.4271 -0.2263  1.4344
 6054TIP3   OH218106   2.943   1.685   6.632  0.5953 -0.1449 -0.4777
 6054TIP3    H118107   2.869   1.628   6.649  0.5105 -0.5575 -2.1502
 6054TIP3    H218108   3.016   1.644   6.679  0.3199 -1.1014 -0.8634
 6055TIP3   OH218109   7.221   4.167   0.200 -0.2511 -0.3901 -0.1110
 6055TIP3    H118110   7.270   4.243   0.230 -1.6388 -0.0164  1.3334
 6055TIP3    H218111   7.254   4.094   0.252  0.2667 -0.5640 -0.6741
 6056TIP3   OH218112   6.342   5.154   1.127  0.3565 -0.0026 -0.1367
 6056TIP3    H118113   6.403   5.101   1.179 -0.7872 -0.1577  1.0979
 6056TIP3    H218114   6.387   5.239   1.117  0.7939 -0.1213  0.7246
 6057TIP3   OH218115   5.930   6.841   6.463  1.1264  0.1362 -0.3486
 6057TIP3    H118116   6.014   6.829   6.418  1.4581 -1.3313  0.5917
 6057TIP3    H218117   5.944   6.804   6.550 -0.5883 -0.4242 -0.2719
 6058TIP3   OH218118   3.734   6.910   3.859  0.3323  0.1610 -0.9536
 6058TIP3    H118119   3.734   6.824   3.901  0.0422  0.2469 -0.7713
 6058TIP3    H218120   3.823   6.922   3.827  0.3579 -0.2352 -1.0329
 6059TIP3   OH218121   0.366   2.647   0.586 -0.3316 -0.2000 -0.2147
 6059TIP3    H118122   0.416   2.728   0.579  0.1124 -0.4759 -0.3084
 6059TIP3    H218123   0.432   2.578   0.588 -0.5462 -0.4342  2.5476
 6060TIP3   OH218124   0.626   3.520   2.967 -0.1271  0.5534  0.9496
 6060TIP3    H118125   0.674   3.532   2.886 -1.5910 -0.1877 -0.0719
 6060TIP3    H218126   0.552   3.580   2.961  1.2543  2.6648  3.0841
 6061TIP3   OH218127   4.104   2.101   3.635  0.4376 -0.3697 -0.0412
 6061TIP3    H118128   4.117   2.191   3.606 -0.9536  0.1696  0.8905
 6061TIP3    H218129   4.074   2.109   3.726  0.1397 -1.7539  0.0093
 6062TIP3   OH218130   1.660   6.248   0.790  0.7304  0.0269 -0.0962
 6062TIP3    H118131   1.582   6.242   0.846  0.7012 -0.2612 -0.1679
 6062TIP3    H218132   1.627   6.287   0.709  0.7023  0.1051 -0.0473
 6063TIP3   OH218133   6.977   7.334   4.859 -0.5686 -0.2091  0.3416
 6063TIP3    H118134   7.000   7.425   4.880 -1.9161  0.0808  0.6174
 6063TIP3    H218135   6.936   7.339   4.772 -2.8701 -0.1607  1.3563
 6064TIP3   OH218136   4.574   4.924   4.485 -0.4371 -0.4330  0.0116
 6064TIP3    H118137   4.638   4.917   4.556  0.0102  1.2325 -0.2072
 6064TIP3    H218138   4.626   4.925   4.405 -0.6302  1.6415 -0.1408
 6065TIP3   OH218139   2.772   4.009   4.022 -1.0129  0.0222 -0.4121
 6065TIP3    H118140   2.783   3.975   4.111 -1.4755 -1.2515 -0.8127
 6065TIP3    H218141   2.681   3.989   4.000 -0.9613  0.5239 -1.0970
 6066TIP3   OH218142   3.002   7.730   2.424  0.3682  0.2649 -0.5316
 6066TIP3    H118143   2.971   7.669   2.491  0.7405 -0.0039 -0.5996
 6066TIP3    H218144   3.039   7.803   2.473  1.5672 -0.3946 -0.4186
 6067TIP3   OH218145   5.344   3.302   6.161  0.2625 -0.5360  0.7408
 6067TIP3    H118146   5.411   3.274   6.098  0.6988  1.3057  0.3414
 6067TIP3    H218147   5.264   3.257   6.133  1.0751 -1.9769  0.6218
 6068TIP3   OH218148   1.924   2.803   5.463  0.7814 -0.4713 -0.1143
 6068TIP3    H118149   1.955   2.865   5.529  0.1361  0.2497 -0.4703
 6068TIP3    H218150   1.831   2.792   5.483  1.0082 -1.8088  0.3151
 6069TIP3   OH218151   0.531   1.905   0.429 -0.3011 -0.0665  0.2198
 6069TIP3    H118152   0.576   1.928   0.348  1.0909 -3.0867  0.0001
 6069TIP3    H218153   0.511   1.989   0.470  1.5629  1.5081 -1.8433
 6070TIP3   OH218154   5.051   7.743   1.894  0.3673  0.0762  0.4459
 6070TIP3    H118155   5.002   7.761   1.814 -1.4103  0.9871  1.6676
 6070TIP3    H218156   5.129   7.798   1.887 -1.0016  2.1156  0.4138
 6071TIP3   OH218157   4.425   2.476   4.475 -0.0852  0.4392 -0.4595
 6071TIP3    H118158   4.393   2.444   4.391  0.2332 -0.7179 -0.1533
 6071TIP3    H218159   4.486   2.409   4.505 -0.7212  0.4853  1.0238
 6072TIP3   OH218160   6.058   2.777   4.039 -0.4180 -0.6156 -0.1530
 6072TIP3    H118161   5.972   2.817   4.051 -0.4692 -0.4061 -1.1618
 6072TIP3    H218162   6.114   2.848   4.006  0.6193 -0.2837  2.0932
 6073TIP3   OH218163   3.849   6.194   4.641  0.6809 -0.1230  0.2166
 6073TIP3    H118164   3.880   6.284   4.634 -0.0269  0.0592 -1.0286
 6073TIP3    H218165   3.923   6.145   4.676  0.8011  1.0763  1.7226
 6074TIP3   OH218166   4.380   6.220   1.525  0.1665  0.1545  0.1025
 6074TIP3    H118167   4.404   6.175   1.605 -1.1565 -1.6341 -0.4389
 6074TIP3    H218168   4.448   6.197   1.462  1.2695  1.6579  0.6874
 6075TIP3   OH218169   1.368   5.081   4.260 -0.1705  0.3153  0.6012
 6075TIP3    H118170   1.299   5.054   4.199  0.7712 -2.0621  0.5045
 6075TIP3    H218171   1.440   5.110   4.203 -1.2665  3.6956  0.6946
 6076TIP3   OH218172   5.934   2.228   3.272 -0.1131  0.0037 -0.0896
 6076TIP3    H118173   5.878   2.153   3.254 -1.6827  0.9306  0.7156
 6076TIP3    H218174   5.942   2.273   3.188 -1.4728  0.4278 -0.0087
 6077TIP3   OH218175   8.085   5.358   0.495  0.3833 -0.6090 -0.6186
 6077TIP3    H118176   8.127   5.437   0.460 -0.6058  0.9484  1.4974
 6077TIP3    H218177   8.120   5.287   0.441  2.0556  1.1363 -1.9965
 6078TIP3   OH218178   0.484   0.870   3.848  0.0789  0.0531 -0.4433
 6078TIP3    H118179   0.452   0.796   3.900  0.4173  0.7897  0.8656
 6078TIP3    H218180   0.540   0.831   3.781  1.2639 -0.8247  0.9906
 6079TIP3   OH218181   1.774   6.717   6.532 -0.5019 -0.2558 -0.3351
 6079TIP3    H118182   1.800   6.625   6.522 -0.6961 -0.3152 -0.2952
 6079TIP3    H218183   1.814   6.744   6.615  0.7004  0.0954 -1.0060
 6080TIP3   OH218184   5.886   6.484   0.062 -0.0025 -0.3727  0.1402
 6080TIP3    H118185   5.835   6.406   0.041 -1.3367  0.7165 -0.9185
 6080TIP3    H218186   5.955   6.486  -0.005  0.3421 -0.8857  0.4714
 6081TIP3   OH218187   6.410   4.998   0.332  0.1559 -0.1450 -0.0948
 6081TIP3    H118188   6.493   5.046   0.338 -0.3368  0.7962 -0.6814
 6081TIP3    H218189   6.410   4.960   0.245 -0.1991  0.1765 -0.2373
 6082TIP3   OH218190   6.926   6.447   2.041  0.2051 -0.3380 -0.4810
 6082TIP3    H118191   7.014   6.444   2.003  0.0552  0.6679 -0.9447
 6082TIP3    H218192   6.883   6.520   1.995 -1.2897 -1.6057 -1.1627
 6083TIP3   OH218193   1.973   1.716   2.715  0.7566  0.8989 -0.6831
 6083TIP3    H118194   2.069   1.709   2.707  0.6276 -0.0539 -1.5633
 6083TIP3    H218195   1.949   1.783   2.651  1.0364  2.8719  1.1673
 6084TIP3   OH218196   0.428   4.851   5.344 -0.0071 -0.6472  0.2492
 6084TIP3    H118197   0.488   4.856   5.270 -1.0603  1.1267 -0.5732
 6084TIP3    H218198   0.461   4.780   5.398  2.9278  0.3612 -0.0426
 6085TIP3   OH218199   7.165   5.041   2.986 -0.7041  0.2876 -0.4684
 6085TIP3    H118200   7.197   5.130   3.001 -1.7765  0.6873 -0.4896
 6085TIP3    H218201   7.245   4.988   2.978  0.0147  1.5688 -2.6565
 6086TIP3   OH218202   2.333   4.040   5.559 -0.0973  0.1458  0.4092
 6086TIP3    H118203   2.371   4.117   5.601  0.6260 -0.5681  1.1211
 6086TIP3    H218204   2.408   3.987   5.534 -0.5871 -0.4363  0.1431
 6087TIP3   OH218205   0.657   1.670   0.836 -0.4769 -0.1018 -0.2047
 6087TIP3    H118206   0.648   1.760   0.867 -0.6374 -0.8485  2.0605
 6087TIP3    H218207   0.575   1.651   0.790 -1.0007  0.4810  0.4808
 6088TIP3   OH218208   5.856   1.471   0.266 -0.0147 -0.7797  0.0525
 6088TIP3    H118209   5.767   1.442   0.287 -0.6661 -0.2464 -1.7405
 6088TIP3    H218210   5.868   1.446   0.174  1.4241 -0.2071  0.0589
 6089TIP3   OH218211   4.834   2.259   1.429 -0.3809  0.0371  0.4340
 6089TIP3    H118212   4.762   2.196   1.436 -0.7038  0.3644  0.1001
 6089TIP3    H218213   4.803   2.324   1.367  0.9452 -0.8102 -1.1899
 6090TIP3   OH218214   4.847   3.068   5.278 -1.0106  0.2733  0.0598
 6090TIP3    H118215   4.858   3.154   5.237 -2.0356  1.2922  1.7804
 6090TIP3    H218216   4.753   3.050   5.272 -1.0766  0.1229  1.2569
 6091TIP3   OH218217   5.143   6.353   4.742  0.3612  0.0579 -0.2722
 6091TIP3    H118218   5.125   6.398   4.825 -0.1933 -0.3680 -0.1533
 6091TIP3    H218219   5.177   6.422   4.685  0.2792  0.4631  0.1575
 6092TIP3   OH218220   5.684   2.053   3.806  0.6136 -0.2463  0.1622
 6092TIP3    H118221   5.617   2.016   3.863  0.6290 -1.6627 -0.6774
 6092TIP3    H218222   5.636   2.093   3.734  0.6272  0.5762  0.5993
 6093TIP3   OH218223   3.252   5.209   3.937  0.2934 -0.1173 -0.1490
 6093TIP3    H118224   3.342   5.190   3.910  1.2461  1.2936  1.8012
 6093TIP3    H218225   3.204   5.216   3.854  2.1075 -0.2731 -1.2749
 6094TIP3   OH218226   3.388   0.569   3.124  0.2956 -0.0309  0.7407
 6094TIP3    H118227   3.339   0.524   3.055 -1.1235  0.7273  1.2294
 6094TIP3    H218228   3.466   0.602   3.079 -0.6256  0.5001 -0.5288
 6095TIP3   OH218229   1.928   1.522   3.879  0.7013 -0.5057 -0.1046
 6095TIP3    H118230   1.936   1.569   3.962  0.9479  0.7112 -0.7982
 6095TIP3    H218231   1.960   1.434   3.899  3.3896  0.5006  0.4848
 6096TIP3   OH218232   4.956   1.406   5.000  0.3787  0.0762 -0.0029
 6096TIP3    H118233   4.953   1.377   4.909 -0.4633 -0.9687  0.3435
 6096TIP3    H218234   4.922   1.495   4.997  0.4322  0.0819 -0.7246
 6097TIP3   OH218235   6.765   3.619   3.442  0.0950  0.0093  0.0458
 6097TIP3    H118236   6.736   3.706   3.416  0.9357  0.0280 -0.8744
 6097TIP3    H218237   6.846   3.633   3.491  0.6563 -0.2857 -0.7689
 6098TIP3   OH218238   1.770   6.281   1.998  0.1639  0.0391 -0.1031
 6098TIP3    H118239   1.729   6.201   1.966 -0.4884  0.7590 -1.1198
 6098TIP3    H218240   1.705   6.320   2.057  0.5881 -0.2986  0.6061
 6099TIP3   OH218241   7.530   3.234   3.108  0.3900  0.6210  0.1538
 6099TIP3    H118242   7.469   3.226   3.034  0.5136 -1.1112  0.1970
 6099TIP3    H218243   7.617   3.221   3.069  0.3905 -1.2714  0.6998
 6100TIP3   OH218244   5.559   4.212   5.476 -0.0837  0.8608 -0.1803
 6100TIP3    H118245   5.600   4.295   5.502  1.6497 -0.2502  0.8326
 6100TIP3    H218246   5.582   4.202   5.384  1.3475  0.6386  0.1689
 6101TIP3   OH218247   3.980   3.206   2.875 -0.0733  0.0607  0.0204
 6101TIP3    H118248   3.997   3.121   2.915 -0.6714  0.5581  1.3906
 6101TIP3    H218249   4.027   3.268   2.930 -1.9302  0.8990  0.7188
 6102TIP3   OH218250   4.675   3.697   1.799 -0.0837  0.1365 -0.2326
 6102TIP3    H118251   4.664   3.679   1.706  2.9845  0.0331 -0.6975
 6102TIP3    H218252   4.649   3.616   1.842 -0.5503 -0.1787 -1.0729
 6103TIP3   OH218253   6.852   5.939   5.089 -0.5866  0.1846 -0.3953
 6103TIP3    H118254   6.928   5.997   5.074 -0.6373  0.4891  0.4850
 6103TIP3    H218255   6.878   5.856   5.050 -0.1893  0.5658 -0.9698
 6104TIP3   OH218256   4.648   1.678   1.201  0.4818  0.0259  0.3448
 6104TIP3    H118257   4.719   1.650   1.259 -0.0708 -2.2193  0.0561
 6104TIP3    H218258   4.678   1.655   1.113 -0.9828 -2.1380  0.3088
 6105TIP3   OH218259   3.671   5.140   3.132 -0.5025  0.0336 -0.1973
 6105TIP3    H118260   3.635   5.203   3.194  0.0446  0.7443 -0.5825
 6105TIP3    H218261   3.740   5.188   3.086  0.4582 -1.0648  0.0307
 6106TIP3   OH218262   4.613   5.992   0.772  0.0224 -0.0522 -0.0133
 6106TIP3    H118263   4.576   6.080   0.769 -2.0751 -0.8779 -0.1364
 6106TIP3    H218264   4.700   6.001   0.734  0.3871  2.1937  1.1881
 6107TIP3   OH218265   7.188   0.087   3.606 -0.1118 -0.1776 -0.4863
 6107TIP3    H118266   7.134   0.062   3.531 -0.0396 -1.3470 -0.1806
 6107TIP3    H218267   7.176   0.014   3.668  0.6301  0.2791  0.2059
 6108TIP3   OH218268   7.360   0.851   5.700 -0.4478 -0.0901 -0.0025
 6108TIP3    H118269   7.373   0.777   5.640 -0.1268  0.1223 -0.1966
 6108TIP3    H218270   7.379   0.929   5.647 -2.0854  0.2226 -0.1838
 6109TIP3   OH218271   2.363   7.200   4.088 -0.4216 -0.0258 -0.2778
 6109TIP3    H118272   2.293   7.220   4.150 -0.7245  0.6498 -0.8323
 6109TIP3    H218273   2.435   7.167   4.143 -0.9842 -0.2417  0.3424
 6110TIP3   OH218274   7.938   2.915   2.434  0.1718  0.2624 -0.1831
 6110TIP3    H118275   7.961   2.843   2.375  1.3335  0.0088  0.5550
 6110TIP3    H218276   7.844   2.904   2.450  0.1045 -0.4171 -0.9516
 6111TIP3   OH218277   1.182   1.449   1.248  0.3831 -0.1327 -0.3377
 6111TIP3    H118278   1.150   1.478   1.162 -0.7142 -0.9066 -0.2104
 6111TIP3    H218279   1.108   1.401   1.286  0.6087  0.7719  1.3410
 6112TIP3   OH218280   4.963   6.725   0.184 -0.6470 -0.3147 -0.0484
 6112TIP3    H118281   4.971   6.630   0.184  0.0447 -0.2685  0.7421
 6112TIP3    H218282   5.048   6.756   0.215 -1.4496  0.4962  1.4562
 6113TIP3   OH218283   7.296   4.423   0.242  0.5352 -0.0164  0.1885
 6113TIP3    H118284   7.326   4.441   0.331 -0.0759  0.8023  0.2368
 6113TIP3    H218285   7.304   4.506   0.196  0.5298 -0.3547 -0.4372
 6114TIP3   OH218286   0.640   1.042   0.524  0.0643  0.0451  0.3317
 6114TIP3    H118287   0.664   1.003   0.440 -0.2578 -0.1238  0.3159
 6114TIP3    H218288   0.661   0.974   0.589  1.6425  0.7008  0.5361
 6115TIP3   OH218289   5.733   2.688   0.198  0.0775  0.5714 -0.2588
 6115TIP3    H118290   5.698   2.662   0.113 -0.0849  0.1194 -0.0559
 6115TIP3    H218291   5.726   2.783   0.198  1.2924  0.6943 -1.2811
 6116TIP3   OH218292   8.083   2.614   5.944 -0.5497  0.1767 -0.6406
 6116TIP3    H118293   8.130   2.608   6.027 -1.4470 -1.0441 -0.1964
 6116TIP3    H218294   8.025   2.689   5.955 -1.6902 -0.8170  0.4129
 6117TIP3   OH218295   1.042   0.912   4.936  0.5044 -0.3570 -0.2785
 6117TIP3    H118296   1.039   0.861   5.017  1.4307 -0.9994 -0.6369
 6117TIP3    H218297   1.041   0.846   4.866  2.4488  0.0599 -0.7367
 6118TIP3   OH218298   7.420   3.196   5.110  0.2332  0.2440  0.7388
 6118TIP3    H118299   7.480   3.164   5.177  1.0844 -0.4260 -0.3162
 6118TIP3    H218300   7.471   3.260   5.060  0.7342 -1.5841 -1.2708
 6119TIP3   OH218301   2.617   7.088   2.882  0.5215 -0.3144 -0.0064
 6119TIP3    H118302   2.646   7.154   2.819 -0.6782 -0.8337 -1.1414
 6119TIP3    H218303   2.599   7.138   2.962  1.0494  0.5090 -0.3892
 6120TIP3   OH218304   3.373   3.183   0.499  0.0000 -0.1804  0.8305
 6120TIP3    H118305   3.309   3.112   0.492 -0.5633 -0.0404  3.3766
 6120TIP3    H218306   3.395   3.206   0.409 -2.0413 -1.5756 -0.0832
 6121TIP3   OH218307   6.124   7.486   5.027 -0.4967 -0.2060 -0.4091
 6121TIP3    H118308   6.042   7.522   4.992 -0.8453 -2.0762 -1.6773
 6121TIP3    H218309   6.099   7.400   5.061  0.4352  0.3570  1.8506
 6122TIP3   OH218310   3.660   4.809   0.873  0.4749 -0.3142 -0.0039
 6122TIP3    H118311   3.679   4.901   0.891 -2.4188  0.8347 -2.1264
 6122TIP3    H218312   3.702   4.793   0.788 -2.6077  0.5317 -1.8523
 6123TIP3   OH218313   3.703   6.565   4.581  0.9795  0.3355 -0.1077
 6123TIP3    H118314   3.635   6.625   4.612  0.1879 -0.8577  0.5606
 6123TIP3    H218315   3.656   6.485   4.561  2.0866 -0.2400 -0.4641
 6124TIP3   OH218316   7.653   5.688   5.031  0.6619  0.3100  0.1259
 6124TIP3    H118317   7.617   5.605   5.062  2.0788  0.0356  1.1627
 6124TIP3    H218318   7.618   5.698   4.942 -1.2925 -0.2789  0.7727
 6125TIP3   OH218319   1.401   0.116   4.766 -0.8731  0.6436  0.0444
 6125TIP3    H118320   1.416   0.090   4.675  0.6056 -0.9756  0.6967
 6125TIP3    H218321   1.307   0.134   4.770 -2.1182 -4.1122 -0.7610
 6126TIP3   OH218322   1.840   6.373   5.097 -0.2413  0.0526  0.0056
 6126TIP3    H118323   1.798   6.311   5.037  0.3661  0.2644 -0.6523
 6126TIP3    H218324   1.887   6.317   5.159  0.9700 -0.1640 -1.0671
 6127TIP3   OH218325   7.461   1.071   1.613  0.6778  0.3955  0.5823
 6127TIP3    H118326   7.384   1.055   1.668  0.4271 -1.3767 -0.2307
 6127TIP3    H218327   7.452   1.010   1.540  3.2560 -0.4732  0.8849
 6128TIP3   OH218328   1.016   3.862   5.315  0.1887 -0.5673 -0.5466
 6128TIP3    H118329   1.075   3.937   5.316 -2.8944  2.0691  0.4974
 6128TIP3    H218330   1.013   3.832   5.407  0.0466 -0.8016 -0.6256
 6129TIP3   OH218331   3.140   4.292   5.079 -0.1202  0.4371  0.5431
 6129TIP3    H118332   3.163   4.369   5.027  0.5334 -2.3298 -3.6755
 6129TIP3    H218333   3.222   4.265   5.120 -0.0383  1.1051  0.8312
 6130TIP3   OH218334   0.174   2.660   4.827  0.1341  0.0984  0.1051
 6130TIP3    H118335   0.194   2.622   4.912  2.2458  0.3819 -0.2209
 6130TIP3    H218336   0.173   2.755   4.843 -2.2662  0.0872  0.3365
 6131TIP3   OH218337   3.040   3.079   0.188  0.0534  0.0899 -0.2304
 6131TIP3    H118338   3.004   3.001   0.230  0.5403  0.4045  0.8117
 6131TIP3    H218339   3.135   3.065   0.189  0.1236  0.5355 -0.3552
 6132TIP3   OH218340   2.554   7.517   6.130  0.4009  0.1830  0.2327
 6132TIP3    H118341   2.473   7.510   6.181 -0.5048 -2.0967 -1.3406
 6132TIP3    H218342   2.524   7.519   6.039  2.0893 -0.7385 -0.3863
 6133TIP3   OH218343   2.660   4.909   3.766 -0.5799  0.1039 -0.6413
 6133TIP3    H118344   2.702   4.916   3.680 -2.1995 -0.0548 -1.4817
 6133TIP3    H218345   2.586   4.970   3.762 -0.7609 -0.0118  0.5932
 6134TIP3   OH218346   7.299   4.740   6.410 -0.2324  0.2867 -0.1077
 6134TIP3    H118347   7.335   4.715   6.325  1.7354 -0.9100  0.9923
 6134TIP3    H218348   7.277   4.657   6.452 -0.5726  0.8260  0.8139
 6135TIP3   OH218349   6.351   6.269   3.219 -0.1517  0.3963  0.4138
 6135TIP3    H118350   6.385   6.355   3.196 -0.5717  0.9248  1.6893
 6135TIP3    H218351   6.428   6.212   3.218  0.2398  0.9178  0.2157
 6136TIP3   OH218352   1.713   1.549   1.458 -0.6141 -0.8113  0.4446
 6136TIP3    H118353   1.642   1.524   1.398  0.0001  0.2930 -0.8101
 6136TIP3    H218354   1.790   1.502   1.425 -0.8057 -2.3809  2.0878
 6137TIP3   OH218355   0.882   5.186   0.474  0.2230 -0.6770 -0.0072
 6137TIP3    H118356   0.971   5.173   0.508 -0.9485 -2.7939  2.6753
 6137TIP3    H218357   0.844   5.254   0.530 -0.0937 -0.3548 -0.6075
 6138TIP3   OH218358   4.462   3.993   6.257  0.3015  0.4266 -0.2733
 6138TIP3    H118359   4.414   4.034   6.329  0.6742  2.4428 -1.1017
 6138TIP3    H218360   4.537   4.050   6.242  0.9799 -0.6987 -1.3725
 6139TIP3   OH218361   3.717   0.696   3.957 -0.0090 -0.0734  0.0352
 6139TIP3    H118362   3.676   0.621   3.999  0.3834 -0.7430 -0.7424
 6139TIP3    H218363   3.648   0.761   3.950 -0.3004 -0.2794  0.9080
 6140TIP3   OH218364   4.123   1.957   6.412 -0.2955 -0.0262  0.0684
 6140TIP3    H118365   4.086   2.044   6.395  1.5141  0.9506  0.8136
 6140TIP3    H218366   4.217   1.972   6.418 -0.0338 -1.8459  1.4304
 6141TIP3   OH218367   0.808   6.938   3.428 -0.2648  0.5572 -0.2978
 6141TIP3    H118368   0.769   6.968   3.345  0.1494 -0.2854 -0.8109
 6141TIP3    H218369   0.804   6.843   3.423  1.0060  0.4747  0.0392
 6142TIP3   OH218370   2.029   4.606   3.635  0.0484 -0.1751 -0.0458
 6142TIP3    H118371   1.952   4.661   3.649  0.5225  0.4685  0.0484
 6142TIP3    H218372   2.079   4.613   3.716  0.5145 -0.1028 -0.3396
 6143TIP3   OH218373   7.445   0.717   5.456 -0.3527  0.6408  0.2472
 6143TIP3    H118374   7.457   0.796   5.403 -1.3869  0.3284 -0.4688
 6143TIP3    H218375   7.534   0.687   5.474  0.0289  0.9996 -0.9370
 6144TIP3   OH218376   0.259   4.830   2.967 -0.3022 -0.5562  0.1442
 6144TIP3    H118377   0.352   4.850   2.970 -0.1489 -1.1794 -0.3070
 6144TIP3    H218378   0.224   4.886   2.898 -0.4344  0.3153  0.8954
 6145TIP3   OH218379   7.181   0.999   3.497 -0.4593  0.4187  0.1279
 6145TIP3    H118380   7.251   1.005   3.562  0.1402 -0.3680 -0.4262
 6145TIP3    H218381   7.123   0.930   3.530 -0.6743  0.6932  0.3178
 6146TIP3   OH218382   0.521   7.311   4.757  0.2506  0.0544 -0.0503
 6146TIP3    H118383   0.501   7.401   4.734  0.6099 -0.2555 -1.7493
 6146TIP3    H218384   0.559   7.274   4.677  0.4259 -1.5022  0.7138
 6147TIP3   OH218385   5.865   0.999   5.839 -0.6539  0.4581  0.2747
 6147TIP3    H118386   5.920   0.936   5.793  0.0348  1.4008 -0.2441
 6147TIP3    H218387   5.898   1.000   5.928 -0.6632  0.0935  0.2824
 6148TIP3   OH218388   5.854   6.319   2.718  0.8636 -0.0109  0.7269
 6148TIP3    H118389   5.784   6.344   2.778  0.4760  1.1014 -0.1466
 6148TIP3    H218390   5.810   6.306   2.634  1.8843  2.5290 -0.2962
 6149TIP3   OH218391   0.875   3.270   4.243 -0.2702 -0.2054  0.2139
 6149TIP3    H118392   0.897   3.178   4.228  1.3550  0.0758  0.6587
 6149TIP3    H218393   0.885   3.283   4.337 -0.1788  0.4895  0.1180
 6150TIP3   OH218394   4.436   2.705   5.992 -0.1733  0.0341 -0.0911
 6150TIP3    H118395   4.377   2.721   6.066 -0.5113  1.0036 -0.5508
 6150TIP3    H218396   4.443   2.610   5.987 -0.6300 -0.0585  0.8093
 6151TIP3   OH218397   6.245   3.031   4.301 -0.2081  0.1115  0.0607
 6151TIP3    H118398   6.202   3.112   4.273  1.0954  0.6438 -0.5054
 6151TIP3    H218399   6.247   3.037   4.397  1.4332  1.6472 -0.0083
 6152TIP3   OH218400   7.318   4.367   4.061 -0.0485 -0.1007 -0.2524
 6152TIP3    H118401   7.321   4.283   4.107  1.0368  0.6623  1.1336
 6152TIP3    H218402   7.263   4.349   3.984 -2.8893 -1.2011  1.8129
 6153TIP3   OH218403   7.504   2.404   0.731  0.3568 -0.4049 -0.2751
 6153TIP3    H118404   7.488   2.380   0.822 -1.7889  1.6006 -0.0216
 6153TIP3    H218405   7.485   2.498   0.727  0.7683 -0.3526 -2.7154
 6154TIP3   OH218406   4.943   0.835   1.161 -0.6305  0.0508 -0.1840
 6154TIP3    H118407   4.896   0.854   1.243  0.7775  0.6115  0.5277
 6154TIP3    H218408   4.937   0.916   1.110  0.4337  0.5171  0.3788
 6155TIP3   OH218409   3.980   3.692   5.073  0.8607 -0.2072  0.6339
 6155TIP3    H118410   3.920   3.766   5.079 -0.1634 -0.9345 -0.3854
 6155TIP3    H218411   4.050   3.723   5.015  0.1976 -0.1951 -0.1648
 6156TIP3   OH218412   4.096   3.787   1.065  0.0292  0.4046 -0.7911
 6156TIP3    H118413   4.006   3.762   1.043 -0.5766  1.6718  0.1259
 6156TIP3    H218414   4.117   3.856   1.001  0.3031  0.1990 -0.9215
 6157TIP3   OH218415   8.305   1.110   5.078  0.4427  0.2635  0.4562
 6157TIP3    H118416   8.233   1.148   5.028  1.0529  0.5365 -0.2375
 6157TIP3    H218417   8.362   1.071   5.013  0.9066  0.0178  0.9996
 6158TIP3   OH218418   6.595   2.073   5.074  0.3574 -0.5666  0.6605
 6158TIP3    H118419   6.538   2.074   5.150  0.3460 -0.4207  0.6488
 6158TIP3    H218420   6.563   1.999   5.022 -1.5763  1.1434 -0.7071
 6159TIP3   OH218421   5.373   6.260   4.842 -0.1943 -0.2092 -0.2948
 6159TIP3    H118422   5.393   6.324   4.910 -0.0102  0.2273 -0.7525
 6159TIP3    H218423   5.286   6.285   4.810  0.1392  0.1857 -0.8953
 6160TIP3   OH218424   2.652   7.101   4.172  0.6219  0.0769 -0.3553
 6160TIP3    H118425   2.635   7.096   4.078 -1.8368  0.4557  0.0075
 6160TIP3    H218426   2.728   7.043   4.186  0.4911 -0.6709 -2.4175
 6161TIP3   OH218427   1.377   0.256   2.685 -0.1209  0.5319 -0.4150
 6161TIP3    H118428   1.340   0.257   2.773 -3.1897 -0.4842 -1.5583
 6161TIP3    H218429   1.357   0.342   2.649 -1.7667 -0.0820 -1.0997
 6162TIP3   OH218430   4.669   1.493   5.195 -0.2265  0.3331 -0.2990
 6162TIP3    H118431   4.712   1.569   5.234 -0.3284  0.9543 -1.3533
 6162TIP3    H218432   4.614   1.459   5.265  0.8209  0.4227  0.6087
 6163TIP3   OH218433   1.029   7.016   5.738 -0.3548 -0.0922  0.3221
 6163TIP3    H118434   0.978   7.093   5.766  1.0463  0.8670  0.3618
 6163TIP3    H218435   1.050   6.971   5.820  0.9909  0.9296  0.5753
 6164TIP3   OH218436   1.241   7.051   3.352 -0.1881 -0.0191 -0.6317
 6164TIP3    H118437   1.212   7.006   3.431  0.2179  0.5195 -0.1671
 6164TIP3    H218438   1.334   7.068   3.367 -0.5416  1.8644 -0.3565
 6165TIP3   OH218439   7.163   2.901   2.502 -0.5512  0.1174  0.1100
 6165TIP3    H118440   7.195   2.985   2.468 -2.6248  0.9911  0.1562
 6165TIP3    H218441   7.200   2.835   2.443  3.0843  0.7401  1.4548
 6166TIP3   OH218442   6.687   5.731   6.483 -0.0878 -0.3677 -0.9501
 6166TIP3    H118443   6.719   5.745   6.393  2.1233  0.1901 -0.1433
 6166TIP3    H218444   6.676   5.819   6.519 -2.2911 -0.5553 -1.0551
 6167TIP3   OH218445   2.444   2.503   0.724 -0.5932  0.0357 -0.3923
 6167TIP3    H118446   2.485   2.443   0.786  0.8245 -1.1126 -2.3701
 6167TIP3    H218447   2.468   2.590   0.756 -2.4210 -0.3349  2.3312
 6168TIP3   OH218448   3.354   6.995   2.605  0.2928  0.0512 -0.2418
 6168TIP3    H118449   3.349   7.087   2.578  0.7175  0.1855  0.1334
 6168TIP3    H218450   3.301   6.990   2.685  0.1881 -0.0518 -0.3167
 6169TIP3   OH218451   3.809   1.739   3.858 -0.3581  0.6162 -0.3453
 6169TIP3    H118452   3.901   1.746   3.834  0.1629 -0.2011  1.2762
 6169TIP3    H218453   3.800   1.796   3.934 -1.1151  0.3972 -0.2646
 6170TIP3   OH218454   3.710   3.953   5.921  0.1712  0.4120  0.1728
 6170TIP3    H118455   3.725   3.905   6.002 -0.1967 -0.4974 -0.2775
 6170TIP3    H218456   3.764   3.907   5.856  0.8196  1.4082 -0.0154
 6171TIP3   OH218457   1.234   2.080   3.871  0.7049  0.2483 -0.3032
 6171TIP3    H118458   1.320   2.038   3.873  0.5055 -0.1671 -0.4297
 6171TIP3    H218459   1.235   2.138   3.947  0.0702 -1.8100  1.3694
 6172TIP3   OH218460   6.171   3.572   5.212  0.2890  0.1430  0.5045
 6172TIP3    H118461   6.210   3.586   5.126 -0.6072  0.3562  0.1209
 6172TIP3    H218462   6.140   3.659   5.239 -0.7879 -0.1825  0.3608
 6173TIP3   OH218463   1.324   0.858   3.522 -0.6107  0.2432 -0.5919
 6173TIP3    H118464   1.296   0.843   3.431  0.5893 -2.1491 -0.6307
 6173TIP3    H218465   1.419   0.855   3.519 -0.5554 -1.4029  0.9260
 6174TIP3   OH218466   6.195   0.549   1.509  0.4764 -0.0117  0.4614
 6174TIP3    H118467   6.237   0.547   1.595  1.3098  0.8949  0.0930
 6174TIP3    H218468   6.201   0.640   1.481 -1.8539  0.2017  0.4181
 6175TIP3   OH218469   4.905   1.578   1.761  0.0092 -0.3842 -0.0519
 6175TIP3    H118470   4.960   1.509   1.798 -0.3957 -0.9344 -0.4597
 6175TIP3    H218471   4.849   1.605   1.834 -0.2933 -0.9630 -0.0644
 6176TIP3   OH218472   5.650   5.064   0.651 -0.4337 -0.1387  0.6140
 6176TIP3    H118473   5.666   4.992   0.712 -0.6056 -0.4116  0.3436
 6176TIP3    H218474   5.734   5.079   0.608 -0.1708  0.4281  1.3076
 6177TIP3   OH218475   1.404   0.055   2.519 -0.0617 -0.4183  0.1611
 6177TIP3    H118476   1.360  -0.011   2.573 -1.2109 -0.6147 -0.9773
 6177TIP3    H218477   1.396   0.136   2.570 -0.1489 -0.8136  0.7909
 6178TIP3   OH218478   8.150   5.044   0.722  0.3872  0.1282 -0.2083
 6178TIP3    H118479   8.223   5.013   0.667  0.4164  1.8141 -1.1927
 6178TIP3    H218480   8.160   5.139   0.723 -2.3935  0.5083 -1.2490
 6179TIP3   OH218481   7.758   3.694   2.069  0.5349  0.4100 -0.6041
 6179TIP3    H118482   7.729   3.604   2.081  1.2135  0.0791 -1.3952
 6179TIP3    H218483   7.800   3.717   2.153  0.4468 -0.0374 -0.4367
 6180TIP3   OH218484   3.211   7.745   1.437 -0.8525 -0.3269  0.0974
 6180TIP3    H118485   3.270   7.670   1.438 -0.4667 -0.3649 -4.5023
 6180TIP3    H218486   3.123   7.706   1.433 -1.0358 -0.3166  2.4271
 6181TIP3   OH218487   4.296   2.057   5.506  0.5833  0.2183  0.2580
 6181TIP3    H118488   4.230   2.001   5.466  0.5496  0.9892 -0.8264
 6181TIP3    H218489   4.380   2.019   5.479  0.6302 -1.0838  2.0917
 6182TIP3   OH218490   1.836   0.820   2.171 -0.1886 -0.5771 -0.0014
 6182TIP3    H118491   1.766   0.822   2.235  0.2530 -0.1305  0.4704
 6182TIP3    H218492   1.880   0.905   2.179  0.4682 -0.8839 -0.2130
 6183TIP3   OH218493   3.928   7.481   4.222 -0.2117  0.4694  0.3572
 6183TIP3    H118494   3.852   7.539   4.229  0.5473  1.5918 -0.4169
 6183TIP3    H218495   3.897   7.397   4.256 -2.0308  0.6746 -0.6839
 6184TIP3   OH218496   0.895   5.960   1.382  0.0641 -0.0050  0.3366
 6184TIP3    H118497   0.889   5.981   1.476 -0.9538 -0.0953  0.3017
 6184TIP3    H218498   0.894   5.865   1.379 -1.3794 -0.0060  0.1687
 6185TIP3   OH218499   5.843   7.579   4.613 -0.2859 -0.2204  0.0444
 6185TIP3    H118500   5.773   7.547   4.670  0.9909 -1.2143  1.1279
 6185TIP3    H218501   5.875   7.500   4.569  0.2472  0.1997 -0.3238
 6186TIP3   OH218502   6.392   7.253   3.895 -0.1480 -0.1019 -0.5044
 6186TIP3    H118503   6.347   7.201   3.829 -2.4710 -0.2959  1.0917
 6186TIP3    H218504   6.361   7.216   3.978  2.4583  0.2806  0.7306
 6187TIP3   OH218505  -0.036   1.701   1.724  0.4725  0.6433  0.0197
 6187TIP3    H118506   0.024   1.691   1.798 -1.5454 -0.0377  1.6402
 6187TIP3    H218507   0.017   1.743   1.656  2.3313  1.5529  1.9170
 6188TIP3   OH218508   6.962   6.185   3.343  0.3309  0.5271  0.0828
 6188TIP3    H118509   6.980   6.186   3.437 -1.2351 -1.0476  0.4659
 6188TIP3    H218510   7.047   6.171   3.302  0.9626  0.7313  1.2921
 6189TIP3   OH218511   3.537   0.914   5.290  0.0949  0.0296 -0.3282
 6189TIP3    H118512   3.500   0.863   5.362 -0.1123  0.4851 -0.1015
 6189TIP3    H218513   3.602   0.971   5.331  0.1670  0.1036 -0.5399
 6190TIP3   OH218514   6.204   1.518   5.529  0.5284 -0.0977  0.4034
 6190TIP3    H118515   6.198   1.579   5.455 -1.0348 -0.6336  0.0506
 6190TIP3    H218516   6.208   1.431   5.488 -1.3119 -0.4655  0.9089
 6191TIP3   OH218517   5.020   1.522   1.084  0.1637  0.3316  0.4723
 6191TIP3    H118518   5.080   1.589   1.116 -1.4825  0.8858  2.6849
 6191TIP3    H218519   4.941   1.571   1.059 -0.6408 -0.6696  0.9937
 6192TIP3   OH218520   4.011   4.237   4.430  0.1336 -0.2470  0.3616
 6192TIP3    H118521   4.089   4.289   4.410 -0.1515 -0.3657 -1.1597
 6192TIP3    H218522   4.011   4.167   4.364 -0.9605 -0.5741  0.6855
 6193TIP3   OH218523   3.288   4.734   1.582 -0.2167 -0.1042  0.0960
 6193TIP3    H118524   3.356   4.789   1.544 -0.9420  2.1334  1.7497
 6193TIP3    H218525   3.310   4.645   1.556  2.8099  0.6228 -0.1628
 6194TIP3   OH218526   4.086   4.719   1.232 -0.4750  0.2184  0.3709
 6194TIP3    H118527   4.132   4.636   1.218  0.0046  0.4192  0.7238
 6194TIP3    H218528   4.010   4.696   1.285 -0.8680 -0.1388 -0.3320
 6195TIP3   OH218529   7.315   7.489   4.798 -0.1990  0.0151 -0.4556
 6195TIP3    H118530   7.307   7.394   4.797  0.9541 -0.1297 -2.8358
 6195TIP3    H218531   7.237   7.521   4.752 -1.9084  0.4797  2.4870
 6196TIP3   OH218532   1.303   2.933   2.773  0.2407 -0.2878  0.0856
 6196TIP3    H118533   1.397   2.917   2.765  0.1498 -0.9928  0.3786
 6196TIP3    H218534   1.267   2.906   2.689  0.1660 -1.0752  0.3628
 6197TIP3   OH218535   0.069   7.252   2.658 -0.1198 -0.0295  0.1351
 6197TIP3    H118536   0.051   7.198   2.735  0.2304 -0.3794 -0.0250
 6197TIP3    H218537   0.061   7.192   2.584  2.0716 -0.3179  0.0710
 6198TIP3   OH218538   0.424   2.507   3.741 -0.0478  0.5991 -0.1643
 6198TIP3    H118539   0.346   2.483   3.791 -0.4497  1.4744 -0.3475
 6198TIP3    H218540   0.407   2.476   3.653 -0.3853  1.1816 -0.3061
 6199TIP3   OH218541   5.331   3.723   0.135  0.1646  0.0144 -0.2034
 6199TIP3    H118542   5.359   3.810   0.163 -0.6285  0.2832 -0.2154
 6199TIP3    H218543   5.394   3.663   0.175  0.5527  0.5728  0.0325
 6200TIP3   OH218544   3.374   7.065   4.058 -0.0019 -0.4248 -0.0103
 6200TIP3    H118545   3.293   7.108   4.087  0.4243 -0.1637  0.8193
 6200TIP3    H218546   3.441   7.133   4.065  0.1116 -0.3305 -1.7131
 6201TIP3   OH218547   4.417   1.381   0.510 -0.2547  0.6345  0.6826
 6201TIP3    H118548   4.452   1.433   0.582  0.3834  1.6937 -0.3582
 6201TIP3    H218549   4.470   1.301   0.509  0.3798  1.0527  0.7849
 6202TIP3   OH218550   0.770   0.775   6.704  0.9419 -0.2420  0.3271
 6202TIP3    H118551   0.833   0.739   6.765  2.7173  0.7237 -0.8593
 6202TIP3    H218552   0.794   0.738   6.619 -0.4661 -0.3127 -0.0706
 6203TIP3   OH218553   0.906   4.291   0.380  0.5004  0.3584 -0.1127
 6203TIP3    H118554   0.937   4.370   0.336  1.6720  0.2847  0.5361
 6203TIP3    H218555   0.816   4.280   0.348 -1.4950  4.4889  3.0929
 6204TIP3   OH218556   3.836   4.420   0.975  0.2535  0.0265 -0.2824
 6204TIP3    H118557   3.845   4.427   0.880 -2.4050 -2.1233 -0.8013
 6204TIP3    H218558   3.744   4.398   0.989  0.5275  0.4308  2.8324
 6205TIP3   OH218559   5.974   1.255   2.185 -0.0678 -0.3875  0.1382
 6205TIP3    H118560   5.922   1.177   2.166  1.5336 -1.0899 -1.6271
 6205TIP3    H218561   5.994   1.248   2.279 -0.5367 -1.7187  0.1554
 6206TIP3   OH218562   4.856   7.189   3.407  0.0385  0.1921  0.4489
 6206TIP3    H118563   4.819   7.275   3.389 -1.3203 -0.4184  0.2304
 6206TIP3    H218564   4.929   7.207   3.467 -0.9783  1.3844  1.3858
 6207TIP3   OH218565   0.469   7.124   3.305  0.1575  0.4543  0.3632
 6207TIP3    H118566   0.432   7.125   3.217  1.6065 -1.9838 -0.3710
 6207TIP3    H218567   0.563   7.113   3.291  0.4334  0.1229  2.2263
 6208TIP3   OH218568   0.780   3.691   5.445  0.0101 -0.5250  0.0371
 6208TIP3    H118569   0.706   3.634   5.467  0.2199 -0.0932  2.0891
 6208TIP3    H218570   0.845   3.633   5.406 -0.4516 -1.3656  0.5084
 6209TIP3   OH218571   6.219   2.917   2.124  0.8140 -0.5864 -0.4169
 6209TIP3    H118572   6.245   3.003   2.091  0.2127 -0.1194  0.2867
 6209TIP3    H218573   6.137   2.898   2.080  0.9541 -0.8119 -0.5836
 6210TIP3   OH218574   7.694   2.985   0.433 -0.3654  0.0819  0.2091
 6210TIP3    H118575   7.774   3.004   0.482 -1.6491  0.3890  2.2639
 6210TIP3    H218576   7.644   2.926   0.489 -2.0707  0.7641 -0.5324
 6211TIP3   OH218577   7.898   6.196   4.184  0.2774 -0.3423 -0.0642
 6211TIP3    H118578   7.902   6.129   4.115  1.1765 -0.1344 -0.2193
 6211TIP3    H218579   7.820   6.172   4.234 -0.4969 -0.4088 -1.2343
 6212TIP3   OH218580   1.849   3.374   3.103 -0.6312  0.3592  0.5310
 6212TIP3    H118581   1.765   3.372   3.057  0.6419 -0.1505 -1.9151
 6212TIP3    H218582   1.912   3.402   3.037  1.2616  0.0532  2.1167
 6213TIP3   OH218583   3.701   4.691   1.688  0.8997  0.2423  0.1410
 6213TIP3    H118584   3.682   4.617   1.631  0.2925  0.0183  0.6252
 6213TIP3    H218585   3.651   4.764   1.651  1.1482  0.3035 -0.0784
 6214TIP3   OH218586   7.881   4.377   4.817  0.9187 -0.1133 -0.0952
 6214TIP3    H118587   7.815   4.367   4.886  0.9470  0.2826 -0.0088
 6214TIP3    H218588   7.957   4.414   4.861  1.7584 -1.9690  0.1127
 6215TIP3   OH218589   3.463   0.261   4.233 -0.4339 -0.2882 -0.6069
 6215TIP3    H118590   3.446   0.300   4.319  0.6720  1.2619 -1.0568
 6215TIP3    H218591   3.376   0.236   4.201 -0.8514 -1.0206  0.9990
 6216TIP3   OH218592   7.104   3.002   5.744 -0.1816 -0.0458 -0.2733
 6216TIP3    H118593   7.046   2.965   5.811 -2.6690 -1.5789 -3.0065
 6216TIP3    H218594   7.179   2.943   5.742  1.1409  1.3894  2.6592
 6217TIP3   OH218595   3.899   6.896   3.461  0.1008 -0.2484  0.4977
 6217TIP3    H118596   3.985   6.924   3.430  0.0827 -0.0213  0.6481
 6217TIP3    H218597   3.884   6.812   3.418 -0.4968  0.6509 -1.1664
 6218TIP3   OH218598   6.616   2.847   2.948  0.4715  0.4989  0.2992
 6218TIP3    H118599   6.695   2.900   2.961 -0.3036  1.9234 -0.5636
 6218TIP3    H218600   6.629   2.805   2.863  0.9030 -0.3632  0.7914
 6219TIP3   OH218601   2.222   0.685   0.394 -0.4473  0.3342 -0.1248
 6219TIP3    H118602   2.207   0.660   0.485 -1.3172  1.2715  0.0073
 6219TIP3    H218603   2.307   0.730   0.395  0.2187 -0.8883 -0.0386
 6220TIP3   OH218604   7.705   4.113   6.705  0.8444 -0.7321 -0.6123
 6220TIP3    H118605   7.649   4.056   6.757 -0.9959  1.8217  0.3926
 6220TIP3    H218606   7.757   4.161   6.770  1.3998 -0.3226 -1.3410
 6221TIP3   OH218607   7.040   6.899   6.190  0.3692 -0.3112  0.2039
 6221TIP3    H118608   6.949   6.882   6.165  0.2889 -1.8850  1.3349
 6221TIP3    H218609   7.089   6.826   6.152  0.9403 -0.1841  0.6775
 6222TIP3   OH218610   7.464   2.146   3.199  0.1034 -0.1604 -0.2494
 6222TIP3    H118611   7.369   2.147   3.187  0.0819  0.5952 -0.1108
 6222TIP3    H218612   7.493   2.232   3.168  0.8875 -0.7838 -1.3289
 6223TIP3   OH218613   2.983   7.087   3.055  0.7139 -0.3258 -0.4840
 6223TIP3    H118614   3.054   7.138   3.094  0.1190  0.3616 -0.2719
 6223TIP3    H218615   2.992   7.103   2.961  0.8300 -0.2144 -0.4552
 6224TIP3   OH218616   5.877   4.220   1.765  0.2709  0.3786  0.5738
 6224TIP3    H118617   5.816   4.240   1.695 -2.1181 -1.3922  2.0022
 6224TIP3    H218618   5.834   4.250   1.845  0.8962 -1.5232  1.7115
 6225TIP3   OH218619   0.346   3.343   1.895  0.0870 -0.2247  0.4206
 6225TIP3    H118620   0.414   3.275   1.897  0.7080  0.2015 -2.5639
 6225TIP3    H218621   0.395   3.425   1.895 -0.6334  0.2692  2.4466
 6226TIP3   OH218622   5.394   3.903   1.175  0.0479  0.2533  0.3167
 6226TIP3    H118623   5.448   3.963   1.124 -0.5941  2.4000  1.9639
 6226TIP3    H218624   5.314   3.953   1.193 -0.6840 -1.2526  1.4739
 6227TIP3   OH218625   0.725   6.294   1.816 -0.3761  0.2032 -0.1069
 6227TIP3    H118626   0.648   6.318   1.764  0.4349  2.3958 -0.4011
 6227TIP3    H218627   0.734   6.365   1.879  0.3727 -0.9550  1.1345
 6228TIP3   OH218628   7.166   6.891   5.706 -0.5692  0.0360 -0.3016
 6228TIP3    H118629   7.185   6.818   5.766 -3.1458  0.2981  0.9627
 6228TIP3    H218630   7.237   6.953   5.722 -0.1049 -0.7791  1.0469
 6229TIP3   OH218631   0.465   4.289   1.429 -0.5682 -0.0413  0.3316
 6229TIP3    H118632   0.483   4.196   1.421  0.9651  0.1688  0.8793
 6229TIP3    H218633   0.534   4.321   1.488 -0.9004  1.4764 -0.0642
 6230TIP3   OH218634   4.915   5.482   1.499 -0.2377  0.9719  0.0043
 6230TIP3    H118635   4.934   5.428   1.421  1.5070  2.2178 -0.4787
 6230TIP3    H218636   4.899   5.569   1.464 -2.5971  0.9400  0.8250
 6231TIP3   OH218637   1.316   4.268   0.478 -0.0106 -0.5093 -0.5179
 6231TIP3    H118638   1.258   4.269   0.554  2.0458 -0.1420  1.1464
 6231TIP3    H218639   1.257   4.263   0.403 -2.0999 -2.3517  1.1029
 6232TIP3   OH218640   1.456   2.666   3.652 -0.2692  0.0207 -0.1219
 6232TIP3    H118641   1.512   2.615   3.594  1.1396 -0.4737  1.5827
 6232TIP3    H218642   1.390   2.603   3.683 -0.6550  0.1360 -0.6935
 6233TIP3   OH218643   7.630   0.967   0.302  0.3040  0.2309 -0.2776
 6233TIP3    H118644   7.574   0.972   0.224  0.9787  0.1369 -0.7803
 6233TIP3    H218645   7.638   0.873   0.319  0.9516  0.2054 -0.6913
 6234TIP3   OH218646   5.880   0.906   4.430  0.0752 -0.0030  0.0821
 6234TIP3    H118647   5.935   0.942   4.361  0.6652  0.1203  0.6147
 6234TIP3    H218648   5.909   0.949   4.510 -1.3273  0.6732  0.2729
 6235TIP3   OH218649   1.039   2.740   2.734  0.1253  0.1903  0.2642
 6235TIP3    H118650   1.043   2.783   2.819  0.3467 -0.1869  0.4453
 6235TIP3    H218651   1.056   2.810   2.671  1.9916  0.1012  0.6252
 6236TIP3   OH218652   0.248   0.898   1.930  0.3698 -0.5061  0.4818
 6236TIP3    H118653   0.182   0.952   1.974 -0.0315 -1.1637  0.7091
 6236TIP3    H218654   0.330   0.943   1.946 -0.0414  0.4206  0.0497
 6237TIP3   OH218655   6.358   4.885   0.993  0.0460 -0.1673 -0.3738
 6237TIP3    H118656   6.409   4.911   0.917 -0.8791 -0.8387 -1.2444
 6237TIP3    H218657   6.335   4.967   1.036 -0.8748  0.3516 -1.7879
 6238TIP3   OH218658   3.570   0.284   1.460 -0.2648  0.5882  0.3307
 6238TIP3    H118659   3.562   0.220   1.531  1.6128  2.2253  2.1418
 6238TIP3    H218660   3.661   0.277   1.431 -0.6918  0.7631 -1.1561
 6239TIP3   OH218661   2.800   1.735   0.179 -0.6410  0.8998 -0.2005
 6239TIP3    H118662   2.829   1.671   0.115 -1.1924 -0.6477  1.0287
 6239TIP3    H218663   2.725   1.694   0.222  0.0912  1.5982  1.8609
 6240TIP3   OH218664   2.356   6.882   5.501 -0.5051 -0.1511  0.4507
 6240TIP3    H118665   2.395   6.905   5.417 -0.3030 -0.8854  0.3374
 6240TIP3    H218666   2.290   6.950   5.516  0.6829  0.9994  0.5638
 6241TIP3   OH218667   3.917   2.130   4.623  0.2626  0.3055  0.0789
 6241TIP3    H118668   3.965   2.130   4.540 -1.3121 -0.8411 -0.8979
 6241TIP3    H218669   3.953   2.055   4.671  1.0739  0.8824  0.3940
 6242TIP3   OH218670   1.960   4.964   5.760 -0.6479  0.4382  0.3286
 6242TIP3    H118671   1.946   5.054   5.729 -3.6515  0.1153  0.4177
 6242TIP3    H218672   1.971   4.913   5.680  0.4491  0.7606  0.2538
 6243TIP3   OH218673   0.269   5.647   5.418 -0.4799 -0.7499  0.5088
 6243TIP3    H118674   0.258   5.552   5.419 -0.0003 -0.8425 -0.7299
 6243TIP3    H218675   0.348   5.662   5.365  0.0283  0.3008  1.5162
 6244TIP3   OH218676   6.889   6.622   3.978 -0.1353 -0.3539 -0.3875
 6244TIP3    H118677   6.894   6.639   4.072  0.5620 -1.1086 -0.2732
 6244TIP3    H218678   6.825   6.685   3.945  0.4025  0.6378  0.4210
 6245TIP3   OH218679   0.340   5.846   3.553 -0.0902 -0.0595  0.5119
 6245TIP3    H118680   0.404   5.783   3.586  1.7457  1.7070  0.5372
 6245TIP3    H218681   0.354   5.925   3.605 -2.0672  0.5243  0.2553
 6246TIP3   OH218682   0.069   6.705   0.068  0.1778  0.0964  0.0757
 6246TIP3    H118683   0.097   6.675  -0.018  1.6982  1.5270  0.0031
 6246TIP3    H218684   0.008   6.776   0.050  2.0336  1.7894  0.0530
 6247TIP3   OH218685   8.032   1.329   1.772 -0.4592 -0.2490  0.1950
 6247TIP3    H118686   8.063   1.327   1.863  2.0393 -0.9734 -0.5741
 6247TIP3    H218687   8.014   1.237   1.752 -0.8464 -0.1103 -0.0912
 6248TIP3   OH218688   7.176   5.066   3.659  0.2573 -0.7118  0.1788
 6248TIP3    H118689   7.199   4.979   3.625 -1.1044 -1.3160  0.7310
 6248TIP3    H218690   7.100   5.092   3.609  0.9070  0.3799 -0.2734
 6249TIP3   OH218691   7.676   5.965   1.793  0.0787 -0.1899 -0.7035
 6249TIP3    H118692   7.660   5.946   1.885 -1.1529  1.1058 -0.6228
 6249TIP3    H218693   7.738   6.037   1.794 -0.2695  0.1128 -0.8824
 6250TIP3   OH218694   7.599   1.785   2.794  0.0769 -0.4897  0.2101
 6250TIP3    H118695   7.692   1.804   2.787 -0.1045  0.3939  0.0834
 6250TIP3    H218696   7.575   1.746   2.710  0.3516 -0.8197  0.2836
 6251TIP3   OH218697   4.548   6.147   3.621  0.4533 -0.1080  0.3947
 6251TIP3    H118698   4.585   6.083   3.559  0.3571 -1.1720  1.3984
 6251TIP3    H218699   4.588   6.125   3.705 -0.3147  0.5395  0.9450
 6252TIP3   OH218700   5.201   7.702   4.221 -0.1193  0.4214  0.2106
 6252TIP3    H118701   5.159   7.615   4.223 -0.2147  0.4841  0.8422
 6252TIP3    H218702   5.251   7.701   4.139  0.1154 -0.3371  0.3545
 6253TIP3   OH218703   2.260   3.715   6.052  0.6299 -0.4326  0.4149
 6253TIP3    H118704   2.266   3.799   6.097  0.4759 -0.1155 -0.1466
 6253TIP3    H218705   2.227   3.737   5.965  1.0647 -1.0152  0.0945
 6254TIP3   OH218706   5.234   4.455   2.038  0.0542  0.5119  0.4247
 6254TIP3    H118707   5.324   4.463   2.069  1.0366  0.8013 -2.2504
 6254TIP3    H218708   5.221   4.361   2.026  0.2958  0.5285  0.0286
 6255TIP3   OH218709   2.594   2.355   4.287 -0.2135  0.1329  0.1034
 6255TIP3    H118710   2.649   2.432   4.301 -0.6211  1.3716 -4.0678
 6255TIP3    H218711   2.653   2.291   4.246 -1.2431  0.7177 -2.4773
 6256TIP3   OH218712   5.863   1.744   2.563 -0.0873 -0.0644  0.3123
 6256TIP3    H118713   5.780   1.789   2.577  1.2406  2.2069  1.4039
 6256TIP3    H218714   5.922   1.811   2.528  1.9102 -0.9966  1.6742
 6257TIP3   OH218715   5.632   0.306   6.518  0.0476 -0.6831 -0.1888
 6257TIP3    H118716   5.565   0.374   6.525  0.0696 -0.7198  0.4447
 6257TIP3    H218717   5.614   0.247   6.591  0.3641 -1.0591 -0.4113
 6258TIP3   OH218718   5.059   6.354   6.294 -0.9709 -0.7407 -0.0857
 6258TIP3    H118719   5.024   6.402   6.219  0.3581 -1.6387 -1.3574
 6258TIP3    H218720   5.074   6.265   6.260 -1.4720 -1.5112  1.6098
 6259TIP3   OH218721   6.429   4.880   2.715  0.2734 -0.7235  0.0939
 6259TIP3    H118722   6.347   4.929   2.706  0.6792 -0.1231 -0.4634
 6259TIP3    H218723   6.492   4.945   2.748  0.2999 -1.4161  1.4887
 6260TIP3   OH218724   5.262   0.562   6.608 -0.6308 -0.7039  0.2256
 6260TIP3    H118725   5.319   0.565   6.531 -0.6360  1.9421  0.2076
 6260TIP3    H218726   5.262   0.652   6.640  0.8478 -2.0005  4.4825
 6261TIP3   OH218727   5.968   1.503   2.058  0.1439  0.5909 -0.2803
 6261TIP3    H118728   5.965   1.418   2.103 -1.7436  0.5428 -0.4302
 6261TIP3    H218729   5.990   1.565   2.128  1.9470 -0.0263 -0.2448
 6262TIP3   OH218730   4.141   4.435   0.686 -0.1115 -0.0365 -0.1240
 6262TIP3    H118731   4.165   4.481   0.605  0.7231 -0.6463 -0.2332
 6262TIP3    H218732   4.178   4.488   0.756  0.1366 -0.0960 -0.2078
 6263TIP3   OH218733   1.913   5.575   2.506 -0.2955  0.2261  0.0584
 6263TIP3    H118734   1.891   5.496   2.553  0.2394 -0.2636 -0.4887
 6263TIP3    H218735   1.875   5.563   2.419 -1.0975  1.0275  0.2746
 6264TIP3   OH218736   7.535   2.667   0.867  0.2049  0.2179 -0.5067
 6264TIP3    H118737   7.538   2.736   0.934  0.8495 -1.8619  1.7719
 6264TIP3    H218738   7.625   2.637   0.860 -0.3012 -1.4386 -0.2450
 6265TIP3   OH218739   4.007   1.699   1.241 -0.6508  0.0649  0.6107
 6265TIP3    H118740   4.093   1.707   1.200 -0.3397 -0.3556  1.1692
 6265TIP3    H218741   4.023   1.717   1.333 -1.1993  0.1550  0.6930
 6266TIP3   OH218742   3.952   5.689   4.640 -0.0901  0.4843 -0.0366
 6266TIP3    H118743   4.000   5.623   4.590 -0.1186  0.4604 -0.0318
 6266TIP3    H218744   3.865   5.690   4.602 -0.3918 -0.1874  0.6194
 6267TIP3   OH218745   6.359   1.445   0.560 -0.3486  0.3871  0.1132
 6267TIP3    H118746   6.441   1.489   0.536 -0.6869  0.9909  0.0556
 6267TIP3    H218747   6.368   1.428   0.654 -0.5471  1.3121  0.3106
 6268TIP3   OH218748   6.687   2.577   4.475 -0.2639  0.1833  0.1984
 6268TIP3    H118749   6.652   2.569   4.386 -1.9574 -0.9852  0.9350
 6268TIP3    H218750   6.665   2.495   4.518  2.5112 -0.2061  1.0883
 6269TIP3   OH218751   2.854   1.480   0.058 -0.7096  0.0284  0.0612
 6269TIP3    H118752   2.906   1.517  -0.014 -2.1247  0.3401 -0.8454
 6269TIP3    H218753   2.904   1.404   0.087  0.7698  0.9095 -0.0530
 6270TIP3   OH218754   7.653   5.332   6.029 -0.0618  0.1527  0.7048
 6270TIP3    H118755   7.739   5.312   5.991 -0.6271  0.6080 -0.9082
 6270TIP3    H218756   7.603   5.251   6.019 -0.0891  0.1491  0.8645
 6271TIP3   OH218757   4.697   6.273   5.593 -0.3246 -0.5225 -0.3936
 6271TIP3    H118758   4.622   6.223   5.561 -0.8837  0.6319 -0.9615
 6271TIP3    H218759   4.659   6.335   5.656  0.4765 -1.3571  0.9677
 6272TIP3   OH218760   4.097   5.268   2.446  0.3626 -0.5779  0.5859
 6272TIP3    H118761   4.128   5.343   2.496  0.6380 -1.1964  1.3665
 6272TIP3    H218762   4.011   5.247   2.484  0.6134 -1.1093  0.8695
 6273TIP3   OH218763   4.794   2.201   6.529 -0.2529 -0.0647 -0.0155
 6273TIP3    H118764   4.749   2.256   6.593  0.5307 -1.2287  1.6404
 6273TIP3    H218765   4.876   2.247   6.511  0.2169 -0.4414  1.0462
 6274TIP3   OH218766   2.511   0.119   3.130  0.2651  0.3995  0.1611
 6274TIP3    H118767   2.446   0.115   3.200  2.2145 -1.7556  2.0115
 6274TIP3    H218768   2.565   0.196   3.152  0.0517  0.5300  0.2296
 6275TIP3   OH218769   7.495   0.598   6.343 -0.5232 -0.2323 -0.1200
 6275TIP3    H118770   7.483   0.583   6.436 -0.2396  0.9566  0.1296
 6275TIP3    H218771   7.580   0.643   6.337 -0.6989  0.0069 -0.9135
 6276TIP3   OH218772   1.109   1.004   1.337  0.0657 -0.1679 -0.1459
 6276TIP3    H118773   1.106   1.085   1.388  0.6169 -0.8918  1.1101
 6276TIP3    H218774   1.174   0.950   1.383  1.1233 -0.6007 -2.0603
 6277TIP3   OH218775   7.899   7.689   0.455  0.0636  0.6257  0.4570
 6277TIP3    H118776   7.917   7.767   0.403  1.1938 -1.4264 -2.5500
 6277TIP3    H218777   7.984   7.645   0.463 -0.6775 -0.7455  1.2149
 6278TIP3   OH218778   1.091   5.711   4.028  0.2352 -0.1300  0.5876
 6278TIP3    H118779   1.035   5.774   4.073 -0.9088 -1.4115  1.0173
 6278TIP3    H218780   1.107   5.643   4.093  2.9848  0.5554  0.7450
 6279TIP3   OH218781   4.448   6.399   3.622 -0.1720 -0.7735 -0.3343
 6279TIP3    H118782   4.470   6.307   3.604 -0.5155 -0.9402  0.0840
 6279TIP3    H218783   4.376   6.418   3.562 -1.5532 -1.4342  1.0362
 6280TIP3   OH218784   4.949   0.996   0.598  0.4756 -0.7961  0.0460
 6280TIP3    H118785   4.978   1.007   0.507  0.5594  0.5978  0.2091
 6280TIP3    H218786   5.019   1.037   0.650 -0.0662 -0.6516  0.6735
 6281TIP3   OH218787   8.231   6.459   2.030 -0.0660  0.2953 -0.6329
 6281TIP3    H118788   8.318   6.491   2.006 -0.3381  2.3647  0.8734
 6281TIP3    H218789   8.247   6.401   2.105  0.1344 -0.5014 -1.2854
 6282TIP3   OH218790   3.359   2.571   5.243  0.3789  0.0761 -1.1520
 6282TIP3    H118791   3.408   2.619   5.176  0.4800  1.9204  0.1680
 6282TIP3    H218792   3.316   2.639   5.295 -1.9621 -1.3906 -0.9978
 6283TIP3   OH218793   3.344   6.824   0.659  0.3768 -0.0711 -0.3525
 6283TIP3    H118794   3.302   6.852   0.740  2.2392 -1.6660  1.2799
 6283TIP3    H218795   3.287   6.755   0.625  0.1979 -0.2360  0.2697
 6284TIP3   OH218796   4.266   4.173   5.999 -0.2922 -0.0857 -0.1937
 6284TIP3    H118797   4.258   4.247   6.058 -0.2407 -0.2322 -0.0040
 6284TIP3    H218798   4.217   4.103   6.041 -0.2589 -0.1898 -0.3268
 6285TIP3   OH218799   2.167   5.934   5.166 -0.0537  0.0848  0.8639
 6285TIP3    H118800   2.099   5.910   5.229 -1.8531  1.8614 -0.2540
 6285TIP3    H218801   2.164   5.865   5.100 -2.9046  1.5013 -0.6591
 6286TIP3   OH218802   7.838   5.581   4.463  0.5507 -0.1756 -0.0626
 6286TIP3    H118803   7.921   5.606   4.504  0.4034  1.8623 -0.9220
 6286TIP3    H218804   7.789   5.663   4.456 -0.8897 -1.0808 -1.0426
 6287TIP3   OH218805   5.417   1.342   1.026  0.3600  0.1261  0.3103
 6287TIP3    H118806   5.360   1.392   0.967 -0.0208 -0.7417 -0.0752
 6287TIP3    H218807   5.500   1.336   0.979 -0.2161 -1.3584 -0.5999
 6288TIP3   OH218808   2.975   1.112   4.079  0.3797 -0.0364  0.3861
 6288TIP3    H118809   2.957   1.199   4.115  0.3340  0.5474 -0.9902
 6288TIP3    H218810   2.892   1.065   4.087 -0.3065  0.8503 -0.9754
 6289TIP3   OH218811   0.695   7.259   6.182 -0.2550  0.0181 -0.2921
 6289TIP3    H118812   0.655   7.243   6.267 -2.0374  1.2036 -0.8669
 6289TIP3    H218813   0.704   7.354   6.176  0.5266 -0.0891 -1.1496
 6290TIP3   OH218814   0.845   4.833   1.875 -0.2515 -0.0142  0.0817
 6290TIP3    H118815   0.798   4.902   1.828 -0.6639 -0.1432  0.3034
 6290TIP3    H218816   0.890   4.784   1.807 -0.8304 -0.1882 -0.1854
 6291TIP3   OH218817   4.991   3.512   0.118 -0.1996 -0.7105 -0.0764
 6291TIP3    H118818   5.070   3.461   0.129  0.5166  0.3935  0.0635
 6291TIP3    H218819   4.990   3.572   0.193 -0.6848 -0.1078 -0.5473
 6292TIP3   OH218820   6.933   7.809   3.371 -0.0811 -0.3120  0.4864
 6292TIP3    H118821   6.980   7.732   3.402  0.1572 -1.1378 -1.7213
 6292TIP3    H218822   6.995   7.853   3.313 -1.7141 -1.1002 -2.0213
 6293TIP3   OH218823   5.476   3.394   6.479 -0.4890  0.0580 -0.6723
 6293TIP3    H118824   5.502   3.473   6.432  0.3450 -0.5934 -1.3193
 6293TIP3    H218825   5.555   3.365   6.524 -0.8104 -0.3628 -0.3638
 6294TIP3   OH218826   3.132   1.806   5.962  0.4196 -0.2791 -0.1092
 6294TIP3    H118827   3.193   1.844   5.899  0.7033 -0.1106  0.2662
 6294TIP3    H218828   3.186   1.786   6.038 -0.1278  0.5475  0.5092
 6295TIP3   OH218829   2.673   4.515   1.759 -0.1231 -0.4618 -0.1708
 6295TIP3    H118830   2.713   4.511   1.846  1.7636 -1.0863 -1.0134
 6295TIP3    H218831   2.745   4.540   1.701 -1.4986  0.6229 -1.4744
 6296TIP3   OH218832   1.345   4.357   5.089 -0.5321 -0.2237 -0.2998
 6296TIP3    H118833   1.357   4.373   4.995 -0.7465 -0.5824 -0.3869
 6296TIP3    H218834   1.308   4.269   5.094  0.4382 -0.6212  0.1753
 6297TIP3   OH218835   7.611   0.732   2.200 -0.0162  0.5585  0.2972
 6297TIP3    H118836   7.612   0.672   2.126  0.2530  0.4895  0.3554
 6297TIP3    H218837   7.618   0.819   2.161  1.3870  0.4737  0.2851
 6298TIP3   OH218838   8.050   1.938   4.492 -0.2421  0.2816  0.1806
 6298TIP3    H118839   8.035   2.032   4.493  0.7014  0.4511  1.9757
 6298TIP3    H218840   8.041   1.911   4.583  1.3878 -1.0179  0.0127
 6299TIP3   OH218841   7.323   0.577   4.530  0.2726  0.3704  0.2323
 6299TIP3    H118842   7.349   0.634   4.457  1.0023  0.0201  0.2043
 6299TIP3    H218843   7.253   0.523   4.495  0.8637 -0.0472 -0.3338
 6300TIP3   OH218844   7.975   2.860   6.029  0.4657 -0.7643  0.1976
 6300TIP3    H118845   7.919   2.791   6.064 -0.5015 -0.4811 -0.7294
 6300TIP3    H218846   7.944   2.940   6.072  0.2219 -0.6253 -0.2285
 6301TIP3   OH218847   8.039   3.815   5.256  0.4036  0.1609 -0.2450
 6301TIP3    H118848   8.039   3.721   5.240  0.3997  0.3573 -1.4355
 6301TIP3    H218849   7.965   3.829   5.315 -0.2747 -0.4401 -0.9275
 6302TIP3   OH218850   1.738   1.476   6.137  0.1944 -0.3097  0.0000
 6302TIP3    H118851   1.734   1.514   6.225  0.2854  0.4380 -0.3105
 6302TIP3    H218852   1.831   1.460   6.121  0.1174 -1.1176  0.3112
 6303TIP3   OH218853   7.265   0.890   3.245 -0.0214 -0.3367  0.4309
 6303TIP3    H118854   7.219   0.908   3.327  1.8166  1.3367  1.1852
 6303TIP3    H218855   7.324   0.818   3.266  0.1417 -0.1963  0.4547
 6304TIP3   OH218856   7.915   1.868   2.538  0.2564  0.0638  0.1918
 6304TIP3    H118857   7.980   1.916   2.590  0.3691  1.2352 -0.9649
 6304TIP3    H218858   7.950   1.779   2.533  2.2965  0.8633 -1.1462
 6305TIP3   OH218859   4.144   0.248   1.924  0.8152 -0.1091 -0.7356
 6305TIP3    H118860   4.111   0.177   1.869 -0.3794 -0.0945 -0.0645
 6305TIP3    H218861   4.190   0.306   1.863 -2.0629  0.9113 -2.1037
 6306TIP3   OH218862   4.476   4.628   5.595 -0.5790  0.3279 -0.1051
 6306TIP3    H118863   4.538   4.648   5.524 -1.9723  0.9172 -1.1932
 6306TIP3    H218864   4.392   4.615   5.550 -1.1338 -1.1145  1.2701
 6307TIP3   OH218865   3.061   7.302   2.421  0.3869 -0.2505  0.2029
 6307TIP3    H118866   3.061   7.213   2.454  1.7905 -0.8220 -1.2131
 6307TIP3    H218867   2.990   7.304   2.357  1.2018 -0.7725 -0.7427
 6308TIP3   OH218868   3.562   6.473   5.993 -0.5036  0.2276 -0.5725
 6308TIP3    H118869   3.548   6.393   6.044  0.2501  0.7794  0.5280
 6308TIP3    H218870   3.575   6.542   6.058 -1.9558  1.4363 -1.4666
 6309TIP3   OH218871   2.724   4.814   6.074  0.4084  0.1978 -0.8204
 6309TIP3    H118872   2.787   4.747   6.102  0.5371  0.3641 -0.7076
 6309TIP3    H218873   2.645   4.796   6.125 -0.0982 -0.8485 -1.9523
 6310TIP3   OH218874   4.213   2.818   5.095  0.3345  0.1651 -0.1353
 6310TIP3    H118875   4.220   2.723   5.080  1.5591  0.5947 -2.9157
 6310TIP3    H218876   4.136   2.844   5.044  1.0461  0.9106 -0.8393
 6311TIP3   OH218877   8.280   2.395   3.816 -0.5442  1.1288 -0.3180
 6311TIP3    H118878   8.229   2.378   3.896  0.6645  1.8054  0.6398
 6311TIP3    H218879   8.224   2.366   3.745 -1.4301 -0.0551  0.8147
 6312TIP3   OH218880   4.601   3.342   1.560 -0.2954  0.1764 -0.3892
 6312TIP3    H118881   4.659   3.338   1.635  0.4418 -0.3944 -0.9743
 6312TIP3    H218882   4.635   3.414   1.506  0.2961 -0.5800 -1.0564
 6313TIP3   OH218883   7.586   2.881   1.045 -0.2839  0.4306  0.6902
 6313TIP3    H118884   7.523   2.929   1.097 -0.7521  0.5637  0.0183
 6313TIP3    H218885   7.618   2.945   0.981 -0.1038  0.1440  0.4888
 6314TIP3   OH218886   7.845   6.790   3.871 -0.3406 -0.2191  0.7938
 6314TIP3    H118887   7.837   6.794   3.776  0.8485 -3.8545  0.3847
 6314TIP3    H218888   7.757   6.810   3.903 -0.2512  3.5250 -0.7981
 6315TIP3   OH218889   5.318   2.837   3.784  0.7701  0.1753  0.0387
 6315TIP3    H118890   5.406   2.809   3.762  0.9974  0.0100  1.1136
 6315TIP3    H218891   5.328   2.926   3.819  0.4541  0.3317 -0.2570
 6316TIP3   OH218892   1.496   1.625   2.377  0.4311 -0.2650  0.1876
 6316TIP3    H118893   1.426   1.592   2.321 -0.0311 -0.9365  1.1322
 6316TIP3    H218894   1.558   1.666   2.316 -0.2445 -0.6134 -0.7637
 6317TIP3   OH218895   1.934   3.534   2.035  0.8220  0.3788  0.4184
 6317TIP3    H118896   1.968   3.543   2.124  1.6130  2.5645 -0.0435
 6317TIP3    H218897   1.873   3.607   2.026 -0.5057 -0.7754 -0.3295
 6318TIP3   OH218898   4.781   4.282   1.875 -0.1961 -0.1229 -0.2370
 6318TIP3    H118899   4.811   4.204   1.828  1.4365  0.6313 -0.5167
 6318TIP3    H218900   4.725   4.328   1.812  0.1526 -0.2466 -0.6363
 6319TIP3   OH218901   5.842   7.322   1.468 -0.0583  0.0135 -0.1950
 6319TIP3    H118902   5.897   7.245   1.458  0.0632 -0.0769  1.0139
 6319TIP3    H218903   5.847   7.367   1.383  1.4642 -0.2475 -0.2639
 6320TIP3   OH218904   4.057   1.836   2.125 -0.4262 -0.3145 -0.1012
 6320TIP3    H118905   4.087   1.813   2.213 -0.9087 -0.0336  0.1431
 6320TIP3    H218906   4.005   1.761   2.097  0.6592 -0.8978 -0.6142
 6321TIP3   OH218907   3.989   7.593   4.788  0.1560 -0.1402 -0.0958
 6321TIP3    H118908   3.965   7.610   4.697  1.6948 -0.2968 -0.5726
 6321TIP3    H218909   3.974   7.499   4.800  0.5203 -0.2367 -0.3834
 6322TIP3   OH218910   5.079   1.818   0.293  0.1420  0.3965  0.3140
 6322TIP3    H118911   5.095   1.816   0.198 -1.4475 -1.3132  0.0385
 6322TIP3    H218912   5.135   1.750   0.329 -0.0422  0.3246  0.4676
 6323TIP3   OH218913   0.223   0.110   2.128  0.3034  0.3904  0.3282
 6323TIP3    H118914   0.158   0.179   2.132  0.5471  0.7747 -1.3821
 6323TIP3    H218915   0.305   0.152   2.154  0.4557  0.7844 -0.7330
 6324TIP3   OH218916   7.113  -0.014   1.881  0.0439 -0.7392  0.3242
 6324TIP3    H118917   7.116  -0.056   1.795 -1.0167  0.7764 -0.5077
 6324TIP3    H218918   7.131   0.079   1.863  0.8155 -0.5545  1.8843
 6325TIP3   OH218919   5.470   4.796   1.093  0.1255  0.2007  0.4379
 6325TIP3    H118920   5.455   4.769   1.002 -1.5993 -0.9883  1.0123
 6325TIP3    H218921   5.424   4.729   1.145  0.4308  1.2744  2.1515
 6326TIP3   OH218922   5.011   0.443   3.888 -0.5128 -0.6605  0.0763
 6326TIP3    H118923   5.019   0.474   3.798 -1.7326 -3.1931 -1.0325
 6326TIP3    H218924   4.921   0.466   3.913 -0.1515  0.1091  0.6976
 6327TIP3   OH218925   7.557   5.481   5.709  0.0606  0.4167 -0.3899
 6327TIP3    H118926   7.584   5.398   5.670  2.3688  1.1986 -0.6630
 6327TIP3    H218927   7.517   5.530   5.637 -1.9341 -0.6462 -0.0688
 6328TIP3   OH218928   2.256   2.873   6.256  0.2073 -0.4964  0.3059
 6328TIP3    H118929   2.323   2.811   6.229 -1.0053 -1.5819 -0.3068
 6328TIP3    H218930   2.248   2.861   6.351  2.2291  1.0552  0.7336
 6329TIP3   OH218931   2.196   3.879   3.402 -0.3233 -0.1456  0.1746
 6329TIP3    H118932   2.170   3.913   3.487  0.2355 -1.0745  0.7358
 6329TIP3    H218933   2.127   3.817   3.378 -0.1789 -0.3297  0.2327
 6330TIP3   OH218934   6.937   6.709   5.351  0.3641 -0.3740  0.0160
 6330TIP3    H118935   6.907   6.652   5.422  0.6824 -1.1926 -0.4948
 6330TIP3    H218936   6.918   6.660   5.271  0.3680  0.3709 -0.4559
 6331TIP3   OH218937   1.845   7.201   5.722  0.9825 -0.0626 -0.3566
 6331TIP3    H118938   1.825   7.285   5.681 -0.9834 -0.6451 -0.6897
 6331TIP3    H218939   1.849   7.139   5.650  1.3337 -0.4456 -0.0165
 6332TIP3   OH218940   0.682   6.892   2.951  0.2370 -0.0142 -0.3664
 6332TIP3    H118941   0.730   6.837   2.890  1.0192  1.2476 -0.9364
 6332TIP3    H218942   0.634   6.953   2.896 -1.2330 -0.5832  0.2314
 6333TIP3   OH218943   6.630   0.849   4.539 -0.4710 -0.4210  0.4016
 6333TIP3    H118944   6.693   0.908   4.497 -2.1236  0.2031 -1.3246
 6333TIP3    H218945   6.651   0.763   4.503  0.5011 -0.5424  1.2095
 6334TIP3   OH218946   3.422   5.434   6.480  0.4567  0.0981  0.3592
 6334TIP3    H118947   3.453   5.348   6.450 -1.8354 -1.1102  1.2375
 6334TIP3    H218948   3.348   5.454   6.424 -0.3902  0.4532  1.5716
 6335TIP3   OH218949   3.128   4.369   2.896  0.8880  0.1354  0.1008
 6335TIP3    H118950   3.154   4.325   2.815  1.0557 -1.9693  1.2193
 6335TIP3    H218951   3.077   4.303   2.943 -0.2178  1.7128  1.2020
 6336TIP3   OH218952   7.011   5.551   6.207 -0.1463 -0.4464  0.0463
 6336TIP3    H118953   6.927   5.580   6.242  0.8963  1.6944  0.9392
 6336TIP3    H218954   7.068   5.627   6.213  1.8714 -1.8026 -0.5972
 6337TIP3   OH218955   1.952   2.652   1.189  0.4572 -0.3192 -0.4412
 6337TIP3    H118956   2.038   2.662   1.148  2.4292  3.0758  3.8061
 6337TIP3    H218957   1.970   2.620   1.277 -2.9350 -1.3387  0.0469
 6338TIP3   OH218958   4.374   7.652   3.159 -1.2507 -0.3247 -0.2263
 6338TIP3    H118959   4.460   7.646   3.118 -0.2387  1.9403  1.3536
 6338TIP3    H218960   4.317   7.685   3.090 -0.0024  1.6260 -0.4119
 6339TIP3   OH218961   4.485   3.940   2.310 -0.1111 -0.0274 -0.2629
 6339TIP3    H118962   4.567   3.988   2.297 -0.4199  0.2130 -1.4670
 6339TIP3    H218963   4.505   3.850   2.285  0.0211 -0.1807  0.3656
 6340TIP3   OH218964   3.702   7.338   4.976 -0.8256 -0.2816 -0.0480
 6340TIP3    H118965   3.790   7.373   4.981 -1.1883  0.6376  0.1217
 6340TIP3    H218966   3.711   7.255   4.929  0.1619 -0.3525  0.2553
 6341TIP3   OH218967   5.547   1.460   1.234  0.0500 -0.4025 -0.4572
 6341TIP3    H118968   5.557   1.396   1.305 -2.1568  0.2360  0.5084
 6341TIP3    H218969   5.507   1.411   1.163  0.7461 -0.6603 -0.6820
 6342TIP3   OH218970   4.855   0.604   4.186  0.2253 -0.0221 -0.8229
 6342TIP3    H118971   4.780   0.562   4.226 -0.1953  0.6206 -0.9261
 6342TIP3    H218972   4.842   0.594   4.092 -1.2966  2.6388 -0.9963
 6343TIP3   OH218973   1.920   5.533   4.352  0.0153  0.3247 -0.6468
 6343TIP3    H118974   1.922   5.475   4.276  1.3547  2.2386 -2.1972
 6343TIP3    H218975   2.012   5.542   4.377 -0.1035  1.9820 -0.6762
 6344TIP3   OH218976   2.342   7.161   3.423 -0.4360  0.7560 -0.2221
 6344TIP3    H118977   2.299   7.152   3.507 -0.1768 -2.3737 -0.3201
 6344TIP3    H218978   2.270   7.161   3.359 -0.5555  1.7493 -0.1041
 6345TIP3   OH218979   7.426   0.429   1.207 -0.2026  0.1239 -0.5457
 6345TIP3    H118980   7.382   0.371   1.146 -0.9092  0.0381  0.0348
 6345TIP3    H218981   7.395   0.517   1.184  0.7253  0.2675 -1.3049
 6346TIP3   OH218982   7.731   5.729   1.936  0.0919 -0.7661  0.4510
 6346TIP3    H118983   7.764   5.641   1.956 -0.8807 -0.9176  1.4731
 6346TIP3    H218984   7.804   5.787   1.957  1.3615 -1.4151 -1.8582
 6347TIP3   OH218985   1.328   2.070   6.597  0.5234 -0.0976  0.2059
 6347TIP3    H118986   1.318   2.033   6.685  3.2094 -0.9824  0.2264
 6347TIP3    H218987   1.338   2.164   6.611 -1.8492  0.1789  0.5298
 6348TIP3   OH218988   2.243   0.513   4.500  0.6764 -0.0012  0.5894
 6348TIP3    H118989   2.156   0.548   4.523  0.6382  0.5808 -0.3935
 6348TIP3    H218990   2.241   0.423   4.530  1.0476  0.9643  3.9767
 6349TIP3   OH218991   1.820   6.236   5.876  0.4601 -0.6482  0.1160
 6349TIP3    H118992   1.831   6.155   5.826  0.1757 -0.7821  0.2683
 6349TIP3    H218993   1.864   6.220   5.959  1.6607 -0.1301 -0.3966
 6350TIP3   OH218994   4.382   5.827   4.592 -0.0029 -0.0114  0.0619
 6350TIP3    H118995   4.448   5.877   4.544  1.4390  0.6608  2.5444
 6350TIP3    H218996   4.427   5.746   4.616  0.1266  0.5925  2.0681
 6351TIP3   OH218997   7.340   2.286   4.767 -0.4406 -0.3642  0.1528
 6351TIP3    H118998   7.352   2.198   4.731  1.3573 -0.1079  0.0014
 6351TIP3    H218999   7.253   2.312   4.739 -0.6793 -1.7742 -0.5075
 6352TIP3   OH219000   0.389   5.892   0.174  0.1197 -0.6428 -0.7099
 6352TIP3    H119001   0.313   5.870   0.227  0.5590 -1.9466 -0.5747
 6352TIP3    H219002   0.376   5.984   0.150 -0.0725  0.0175  1.6646
 6353TIP3   OH219003   4.580   6.260   0.775 -0.4740 -0.2817  0.6708
 6353TIP3    H119004   4.618   6.304   0.699  0.2341  0.0348  1.1923
 6353TIP3    H219005   4.561   6.331   0.836  0.4074 -0.6540  1.4024
 6354TIP3   OH219006   7.109   1.546   4.963 -0.3077  0.3763  0.2391
 6354TIP3    H119007   7.202   1.567   4.960 -0.2927  0.2477 -0.2116
 6354TIP3    H219008   7.072   1.611   5.024  0.2484 -0.2770  1.3152
 6355TIP3   OH219009   2.138   7.727   6.235  0.3110 -0.1852  0.2179
 6355TIP3    H119010   2.222   7.772   6.221  0.1098 -0.2344 -1.3236
 6355TIP3    H219011   2.122   7.736   6.329  2.2396 -0.5360  0.6303
 6356TIP3   OH219012   7.599  -0.018   4.969 -0.4696 -0.7242 -0.5372
 6356TIP3    H119013   7.676  -0.011   4.913 -0.6556  0.0330 -0.7078
 6356TIP3    H219014   7.562   0.070   4.970 -0.3475 -0.6540  0.9565
 6357TIP3   OH219015   1.282   6.327   1.589  0.0035  0.2350  0.0980
 6357TIP3    H119016   1.236   6.253   1.549  0.7113 -0.1170 -0.0748
 6357TIP3    H219017   1.301   6.386   1.516 -1.9452  1.3767  0.4379
 6358TIP3   OH219018   2.272   4.063   0.759 -0.2515  0.5092 -0.6620
 6358TIP3    H119019   2.357   4.026   0.736  0.6867  1.4625  1.0520
 6358TIP3    H219020   2.285   4.101   0.847 -2.5559  0.3046 -0.1642
 6359TIP3   OH219021   2.993   2.293   4.574 -0.0348  0.0259 -0.1475
 6359TIP3    H119022   2.932   2.367   4.568 -1.4114 -1.0668 -0.4091
 6359TIP3    H219023   3.054   2.306   4.502  0.2651  1.3237  0.3105
 6360TIP3   OH219024   6.461   2.238   1.613 -0.5901 -0.3940  0.3242
 6360TIP3    H119025   6.499   2.151   1.602 -2.0162 -0.9943 -0.0255
 6360TIP3    H219026   6.421   2.258   1.529 -0.0704  0.7154  0.3262
 6361TIP3   OH219027   3.265   4.538   0.305  0.2115 -0.0833  0.9206
 6361TIP3    H119028   3.265   4.537   0.209 -0.4999  0.7521  0.9065
 6361TIP3    H219029   3.174   4.520   0.330 -0.6519  3.9404  1.3358
 6362TIP3   OH219030   0.151   4.738   0.804 -0.2989  0.0110 -0.0909
 6362TIP3    H119031   0.110   4.708   0.722  0.0190 -1.8779  0.3879
 6362TIP3    H219032   0.179   4.657   0.847  0.9713  1.0741  1.1481
 6363TIP3   OH219033   1.191   5.190   0.577  0.0654  0.2498  0.0146
 6363TIP3    H119034   1.199   5.121   0.643  1.2429  0.4012  0.0617
 6363TIP3    H219035   1.219   5.148   0.496 -0.3034  0.3650 -0.1711
 6364TIP3   OH219036   0.447   7.016   6.219  0.2309 -0.5443 -0.5637
 6364TIP3    H119037   0.420   6.953   6.287 -0.2143  1.6796  1.4554
 6364TIP3    H219038   0.517   6.971   6.172  1.4320 -1.7828  2.1819
 6365TIP3   OH219039   1.608   4.743   3.774  0.1094 -0.3324  0.0750
 6365TIP3    H119040   1.647   4.657   3.789  0.1123 -0.7401 -1.9969
 6365TIP3    H219041   1.540   4.728   3.708  0.8618  1.3888 -1.1847
 6366TIP3   OH219042   4.433   1.827   1.433  0.1020  0.2852  0.0926
 6366TIP3    H119043   4.427   1.841   1.528  0.6343  0.9330  0.0392
 6366TIP3    H219044   4.484   1.747   1.424  0.6543  0.5981  0.3540
 6367TIP3   OH219045   6.485   5.783   3.051 -0.3746 -0.3395 -0.0966
 6367TIP3    H119046   6.419   5.808   3.115  0.4000 -1.4510  1.1711
 6367TIP3    H219047   6.440   5.791   2.966 -1.6586  0.3783  0.6289
 6368TIP3   OH219048   5.007   2.572   0.865 -0.0818 -0.3424 -0.1647
 6368TIP3    H119049   4.914   2.590   0.855  0.0870 -0.3507 -2.2510
 6368TIP3    H219050   5.045   2.655   0.893 -0.9873 -0.9738  3.3989
 6369TIP3   OH219051   2.510   5.326   0.613 -0.5696  0.1577  0.3112
 6369TIP3    H119052   2.458   5.332   0.532  1.7918  0.7854 -1.2792
 6369TIP3    H219053   2.560   5.245   0.603  0.3751  0.6723  0.7042
 6370TIP3   OH219054   2.964   1.096   4.840 -0.0649  0.6713  0.1339
 6370TIP3    H119055   2.929   1.031   4.779  1.9761  0.5698 -0.9866
 6370TIP3    H219056   3.055   1.071   4.853  0.5522  2.8248  0.3210
 6371TIP3   OH219057   1.238   7.688   3.754 -0.3910  0.0463  0.2664
 6371TIP3    H119058   1.242   7.596   3.781 -2.7913  0.3496  1.9235
 6371TIP3    H219059   1.262   7.737   3.832 -1.3982  0.8466  0.0920
 6372TIP3   OH219060   4.524   1.462   3.487 -0.0219  0.5987 -0.1585
 6372TIP3    H119061   4.559   1.475   3.399  0.5321  1.3815  0.1593
 6372TIP3    H219062   4.475   1.542   3.505 -2.7842 -0.7781 -0.9032
 6373TIP3   OH219063   4.595   0.494   3.612  0.0924  0.3306  0.4815
 6373TIP3    H119064   4.571   0.434   3.682 -1.4767  0.9682  0.5236
 6373TIP3    H219065   4.587   0.442   3.532  0.6966 -0.0593  0.6717
 6374TIP3   OH219066   7.138   6.618   0.892 -0.2861  0.1970 -0.6021
 6374TIP3    H119067   7.102   6.620   0.981  3.7139 -1.4614  1.3501
 6374TIP3    H219068   7.151   6.710   0.869 -1.4819  0.6649  0.4571
 6375TIP3   OH219069   4.289   0.571   3.688  0.0672 -0.6272  0.4451
 6375TIP3    H119070   4.288   0.635   3.617  0.8798 -1.3219 -0.2040
 6375TIP3    H219071   4.377   0.578   3.725 -0.6275  0.4351  2.0779
 6376TIP3   OH219072   1.887   3.887   6.408 -0.6601 -0.1203  0.1085
 6376TIP3    H119073   1.803   3.850   6.382 -1.5563  1.7137  0.3026
 6376TIP3    H219074   1.873   3.981   6.411  0.9986  0.1300  1.6305
 6377TIP3   OH219075   5.981   2.949   0.494 -0.0134 -0.6617  0.0739
 6377TIP3    H119076   6.007   2.997   0.415 -0.0001 -1.5922 -0.4983
 6377TIP3    H219077   5.953   2.864   0.462 -1.0240 -0.6889  0.9760
 6378TIP3   OH219078   5.071   2.402   0.323 -0.2250 -0.5973  0.2639
 6378TIP3    H119079   5.063   2.426   0.416 -0.5422  0.5456 -0.0473
 6378TIP3    H219080   4.982   2.410   0.288  0.3054  1.6821 -0.7457
 6379TIP3   OH219081   1.018   1.163   1.778  0.1969  0.1937  0.0296
 6379TIP3    H119082   0.978   1.232   1.831 -0.6761  0.2694 -0.6914
 6379TIP3    H219083   1.070   1.112   1.839  1.2049  1.7328  0.5044
 6380TIP3   OH219084   4.644   2.148   6.319 -0.4450 -0.5998 -0.2195
 6380TIP3    H119085   4.710   2.169   6.384 -1.2459  0.5990  0.2516
 6380TIP3    H219086   4.616   2.233   6.285 -2.4263 -0.9875  0.3139
 6381TIP3   OH219087   3.976   3.362   4.799  0.2166 -0.2787 -0.1823
 6381TIP3    H119088   3.883   3.349   4.819 -0.3263 -0.6615 -2.6436
 6381TIP3    H219089   3.989   3.457   4.804 -0.6669 -0.0946 -1.1751
 6382TIP3   OH219090   3.887   1.042   0.640  0.0207  0.3352  0.4483
 6382TIP3    H119091   3.868   1.024   0.732 -0.8485 -0.0024  0.2155
 6382TIP3    H219092   3.954   0.979   0.616  0.3618  0.5258  0.8916
 6383TIP3   OH219093   7.051   4.220   2.865  0.2132 -0.4102  0.0156
 6383TIP3    H119094   7.053   4.137   2.817  1.6721  1.0612 -2.7098
 6383TIP3    H219095   6.959   4.248   2.860  0.2536 -0.4557 -1.7653
 6384TIP3   OH219096   6.733   5.658   4.986 -0.0383  0.1311  0.0368
 6384TIP3    H119097   6.729   5.667   4.891 -1.5171 -0.7699 -0.0161
 6384TIP3    H219098   6.772   5.572   5.001  1.4957  0.8322  0.3028
 6385TIP3   OH219099   2.176   1.630   4.593 -0.4502 -0.2903 -0.2677
 6385TIP3    H119100   2.150   1.720   4.614 -0.5522 -0.1802 -0.8437
 6385TIP3    H219101   2.271   1.635   4.582 -0.1904 -0.6234  1.4900
 6386TIP3   OH219102   0.924   4.602   5.994 -0.3823  0.1449 -0.1796
 6386TIP3    H119103   0.923   4.562   5.907 -1.7886  0.4950 -0.3366
 6386TIP3    H219104   0.955   4.532   6.052 -1.5686 -0.8013 -0.6435
 6387TIP3   OH219105   4.920   0.258   4.086  0.0882  0.0178  0.0382
 6387TIP3    H119106   4.834   0.246   4.127  0.2365  1.0033  0.6800
 6387TIP3    H219107   4.921   0.349   4.057  0.1789 -0.5154 -1.7823
 6388TIP3   OH219108   8.329   2.741   0.312  0.1561  0.1384  0.0957
 6388TIP3    H119109   8.332   2.669   0.376 -0.3837  0.6151  0.6558
 6388TIP3    H219110   8.236   2.761   0.302  0.3541  1.4271  0.6969
 6389TIP3   OH219111   6.200   6.961   4.042  0.2497  0.1350  0.0085
 6389TIP3    H119112   6.257   6.914   3.981  0.4085  0.1126  0.1729
 6389TIP3    H219113   6.132   7.000   3.987  1.7072  2.1255 -0.4875
 6390TIP3   OH219114   7.079   5.511   6.621 -0.0833 -0.3927  0.3277
 6390TIP3    H119115   6.998   5.519   6.671 -1.1559 -1.9355 -1.0222
 6390TIP3    H219116   7.146   5.490   6.686 -0.6738  1.2166  1.5044
 6391TIP3   OH219117   3.332   0.677   6.201 -0.0981  0.0993 -1.0780
 6391TIP3    H119118   3.401   0.736   6.231 -1.2223  1.4578 -1.0254
 6391TIP3    H219119   3.326   0.610   6.269  0.0458  0.9190 -0.2345
 6392TIP3   OH219120   0.473   6.625   6.799 -0.2559  0.0112 -0.4411
 6392TIP3    H119121   0.471   6.592   6.709  0.0144  0.9102 -0.7871
 6392TIP3    H219122   0.381   6.627   6.826 -0.3160 -0.5050 -0.6030
 6393TIP3   OH219123   1.310   4.561   4.394  0.4952  0.2017  0.6916
 6393TIP3    H119124   1.251   4.501   4.439  0.2228 -0.1936 -0.1658
 6393TIP3    H219125   1.361   4.602   4.464 -1.0904  0.8890  1.5054
 6394TIP3   OH219126   4.617   4.543   4.333 -0.2908  0.2545 -0.4506
 6394TIP3    H119127   4.698   4.574   4.373  0.2622 -1.0738 -0.5140
 6394TIP3    H219128   4.548   4.573   4.393  0.4318 -0.6764  0.8976
 6395TIP3   OH219129   4.038   7.755   1.867 -0.2209 -0.0248 -0.1337
 6395TIP3    H119130   3.989   7.821   1.916  1.2976 -0.2431  1.8025
 6395TIP3    H219131   4.128   7.763   1.900  0.4200 -1.6526 -1.3768
 6396TIP3   OH219132   2.213   4.217   5.851 -0.1975 -0.1345  0.1340
 6396TIP3    H119133   2.120   4.224   5.830  0.3933  0.7462 -2.5678
 6396TIP3    H219134   2.222   4.263   5.935 -2.1203  0.0247  0.3058
 6397TIP3   OH219135   7.721   6.439   6.759 -0.4763  0.0284 -0.3443
 6397TIP3    H119136   7.697   6.375   6.693 -1.8963  2.2986 -2.1734
 6397TIP3    H219137   7.676   6.410   6.838 -2.5203 -0.3126 -1.5838
 6398TIP3   OH219138   8.167   2.332   4.078 -1.0284  0.6792 -0.2356
 6398TIP3    H119139   8.239   2.284   4.119 -1.2112  1.1969  0.7132
 6398TIP3    H219140   8.116   2.264   4.034 -1.1855  0.0011  0.9402
 6399TIP3   OH219141   0.399   5.829   2.214  0.1927 -0.3504 -1.0177
 6399TIP3    H119142   0.460   5.760   2.237  2.3121  1.8771  0.5213
 6399TIP3    H219143   0.450   5.910   2.219 -2.6973  1.6080 -0.2690
 6400TIP3   OH219144   8.128   3.549   4.658  0.1207  0.4957 -0.1627
 6400TIP3    H119145   8.138   3.638   4.624  0.2560  0.6802  0.3579
 6400TIP3    H219146   8.045   3.519   4.622  0.0077  0.8824 -0.2280
 6401TIP3   OH219147   0.902   4.465   1.799 -0.2162  0.2487 -0.4440
 6401TIP3    H119148   0.865   4.507   1.877 -0.6796  0.2279 -0.6450
 6401TIP3    H219149   0.995   4.453   1.819 -0.5448 -0.8146  0.5716
 6402TIP3   OH219150   3.808   2.149   2.223  0.0136 -0.2946 -0.1157
 6402TIP3    H119151   3.834   2.110   2.139 -1.2221 -3.0135  0.6761
 6402TIP3    H219152   3.728   2.198   2.202  1.8659  2.5587 -1.2233
 6403TIP3   OH219153   7.896   5.526   0.404  0.5365  0.1897  0.0976
 6403TIP3    H119154   7.812   5.499   0.441 -0.8936 -0.3974 -3.2703
 6403TIP3    H219155   7.960   5.470   0.448 -0.6268  1.0882  3.2194
 6404TIP3   OH219156   6.608   3.912   0.932  0.3817  0.0655  0.4841
 6404TIP3    H119157   6.659   3.993   0.928  0.2058  0.1741  0.4203
 6404TIP3    H219158   6.634   3.871   1.014 -1.0530  1.1978  1.5587
 6405TIP3   OH219159   6.280   1.000   1.871 -0.4797 -0.2939  0.0178
 6405TIP3    H119160   6.270   1.081   1.821  0.0182  0.0956  0.5327
 6405TIP3    H219161   6.318   0.938   1.810  0.6332  0.3322  0.0577
 6406TIP3   OH219162   6.289   1.854   0.211  0.2428  0.5742  0.1515
 6406TIP3    H119163   6.247   1.797   0.146 -0.2852  0.9239  0.1799
 6406TIP3    H219164   6.267   1.943   0.182  0.2986  0.7380  0.6170
 6407TIP3   OH219165   5.956   0.150   5.542  0.0593 -0.5433 -0.0613
 6407TIP3    H119166   6.041   0.141   5.586 -0.0536 -1.4731 -0.0050
 6407TIP3    H219167   5.920   0.061   5.543 -0.9509 -0.1382 -0.0187
 6408TIP3   OH219168   1.186   5.758   0.107  0.6851  0.5472  0.4457
 6408TIP3    H119169   1.170   5.832   0.047 -1.7296  0.2372  0.6203
 6408TIP3    H219170   1.120   5.768   0.175  3.5930  1.1368  3.4252
 6409TIP3   OH219171   1.335   0.443   5.521 -0.5878  0.1946  0.0783
 6409TIP3    H119172   1.317   0.362   5.473  1.7397 -1.2061  1.3760
 6409TIP3    H219173   1.406   0.484   5.471  0.3277 -0.1648  1.0393
 6410TIP3   OH219174   0.656   5.202   2.824 -0.1633  0.4143  0.5294
 6410TIP3    H119175   0.585   5.264   2.840 -0.7300  0.2883 -1.3209
 6410TIP3    H219176   0.734   5.257   2.814 -0.8268  1.0058 -2.1359
 6411TIP3   OH219177   4.992   6.109   6.436 -0.1354  0.0343 -0.3337
 6411TIP3    H119178   4.960   6.173   6.499 -2.1371  1.3463 -2.5316
 6411TIP3    H219179   4.945   6.028   6.457 -1.3265  0.6502 -0.5577
 6412TIP3   OH219180   7.394   5.309   1.520  0.2990  0.0608  0.8896
 6412TIP3    H119181   7.464   5.336   1.462 -0.6894 -0.4372 -0.6050
 6412TIP3    H219182   7.334   5.383   1.521 -0.3836 -0.4528  0.0846
 6413TIP3   OH219183   0.541   3.316   4.113  0.3650 -0.6469  0.0190
 6413TIP3    H119184   0.557   3.398   4.159 -0.6623 -0.1048 -0.5414
 6413TIP3    H219185   0.533   3.250   4.182  0.8281 -0.2098  0.4913
 6414TIP3   OH219186   2.345   0.769   2.735  0.0535  0.1499  0.2763
 6414TIP3    H119187   2.320   0.855   2.770  1.8370  0.2800  1.3492
 6414TIP3    H219188   2.283   0.708   2.776 -1.0342  0.8623 -0.2555
 6415TIP3   OH219189   1.954   3.069   0.384 -0.3289 -0.8962 -0.5246
 6415TIP3    H119190   1.902   3.067   0.464 -0.7294 -0.2287 -0.7643
 6415TIP3    H219191   2.031   3.122   0.407  0.3953 -2.0987 -0.0927
 6416TIP3   OH219192   1.612   1.509   2.847 -0.1110  0.1073 -0.4083
 6416TIP3    H119193   1.596   1.459   2.767 -0.9071  0.5775 -0.5597
 6416TIP3    H219194   1.625   1.443   2.915  2.0240 -0.3178 -1.1725
 6417TIP3   OH219195   6.949   5.547   4.595  0.0629  0.3704 -0.3877
 6417TIP3    H119196   7.021   5.548   4.658  0.6057  0.6638 -0.9997
 6417TIP3    H219197   6.892   5.619   4.622  0.0965  0.2586 -0.0134
 6418TIP3   OH219198   6.753   7.165   0.031 -0.1756 -0.3453 -0.7729
 6418TIP3    H119199   6.758   7.070   0.021  1.9820 -0.2184 -1.2532
 6418TIP3    H219200   6.824   7.187   0.091 -1.8080  0.8169  0.8321
 6419TIP3   OH219201   7.867   7.721   2.278 -0.3933  0.4453 -0.3587
 6419TIP3    H119202   7.800   7.652   2.274  0.0697 -0.2061  1.8294
 6419TIP3    H219203   7.904   7.724   2.190 -1.6518 -0.8558 -0.9702
 6420TIP3   OH219204   8.131   3.529   5.291  0.2576  0.0707 -0.3566
 6420TIP3    H119205   8.182   3.480   5.355 -0.9531  1.6963  1.9919
 6420TIP3    H219206   8.079   3.462   5.246  0.8498 -1.0793  0.6144
 6421TIP3   OH219207   1.015   2.252   3.796  0.0237  0.3134 -0.1385
 6421TIP3    H119208   1.077   2.180   3.786 -1.0481 -0.5558 -0.7814
 6421TIP3    H219209   0.994   2.253   3.889 -0.0718 -0.3182 -0.1466
 6422TIP3   OH219210   0.862   2.215   0.491 -0.0584  0.2865 -0.0910
 6422TIP3    H119211   0.878   2.284   0.426  2.5326  0.2564  0.4094
 6422TIP3    H219212   0.902   2.137   0.452 -1.8688 -0.6832 -0.1023
 6423TIP3   OH219213   6.504   3.199   1.737  0.4500 -0.1629  0.2121
 6423TIP3    H119214   6.471   3.116   1.770  0.4026  0.1050  0.8511
 6423TIP3    H219215   6.446   3.221   1.664 -0.4248  0.0064  0.9370
 6424TIP3   OH219216   4.512   0.711   3.891 -0.2270 -0.3847 -0.3116
 6424TIP3    H119217   4.512   0.677   3.981 -0.3258  0.6105  0.0717
 6424TIP3    H219218   4.539   0.802   3.900  0.5576 -0.4954 -1.3826
 6425TIP3   OH219219   1.580   3.723   1.575  0.3349 -0.2533 -0.2331
 6425TIP3    H119220   1.561   3.679   1.492  0.5377 -1.4079  0.3147
 6425TIP3    H219221   1.609   3.810   1.550 -1.7279  0.1927 -1.2763
 6426TIP3   OH219222   7.657   0.709   0.304 -0.3321 -0.9290 -0.5595
 6426TIP3    H119223   7.640   0.647   0.233 -2.0266 -0.3283 -0.7282
 6426TIP3    H219224   7.712   0.661   0.366  0.2578 -1.8235 -1.7472
 6427TIP3   OH219225   1.371   0.915   6.317 -0.3757 -0.4299 -0.4620
 6427TIP3    H119226   1.419   0.988   6.356 -0.2989 -0.8579  0.2527
 6427TIP3    H219227   1.339   0.950   6.234  0.0899  0.2590 -0.3626
 6428TIP3   OH219228   0.640   3.473   0.300 -0.6646 -0.2484  0.2704
 6428TIP3    H119229   0.596   3.442   0.221 -0.1166  0.1964 -0.2168
 6428TIP3    H219230   0.697   3.544   0.270  0.6852 -1.0586  0.8064
 6429TIP3   OH219231   5.642   1.032   1.470  0.5404  0.0831 -0.0788
 6429TIP3    H119232   5.721   0.997   1.512  0.1579  0.3334  0.8797
 6429TIP3    H219233   5.587   0.956   1.454  0.0691  0.1147  1.2371
 6430TIP3   OH219234   1.060   4.851   3.944 -0.3254 -0.3818 -0.2869
 6430TIP3    H119235   1.153   4.829   3.945  0.1316  1.3982  0.1873
 6430TIP3    H219236   1.050   4.914   4.015 -2.0964 -1.2096  0.2483
 6431TIP3   OH219237   8.245   5.056   5.397  0.4450  0.6334  0.6922
 6431TIP3    H119238   8.328   5.061   5.446  0.1718  2.4040  1.0292
 6431TIP3    H219239   8.265   5.093   5.311 -0.1169  1.6216  0.9732
 6432TIP3   OH219240   2.704   7.585   0.644 -0.0469 -1.4553  0.2326
 6432TIP3    H119241   2.621   7.542   0.663  0.0093 -0.7610  2.4239
 6432TIP3    H219242   2.702   7.666   0.696  1.1238 -0.3299 -1.3473
 6433TIP3   OH219243   5.284   6.110   3.229 -0.1762 -0.5654  0.1805
 6433TIP3    H119244   5.242   6.192   3.203  0.3469  0.1051  1.3506
 6433TIP3    H219245   5.211   6.051   3.248 -0.5697 -0.1558 -0.0426
 6434TIP3   OH219246   2.817   4.912   3.527  0.1778  0.2849  0.2812
 6434TIP3    H119247   2.888   4.848   3.523  0.3164  0.4665 -0.1969
 6434TIP3    H219248   2.769   4.901   3.445  0.7607  1.4279 -0.2266
 6435TIP3   OH219249   4.835   2.221   5.195 -0.1794 -0.0314  0.0113
 6435TIP3    H119250   4.841   2.307   5.154 -0.1853 -0.2695 -0.4947
 6435TIP3    H219251   4.828   2.240   5.288  1.3494  0.4801  0.0556
 6436TIP3   OH219252   0.694   5.767   2.423 -0.2139 -0.1067 -0.3150
 6436TIP3    H119253   0.773   5.820   2.410  0.2537 -0.2336  1.6426
 6436TIP3    H219254   0.631   5.826   2.464 -1.0270 -0.1022 -1.5485
 6437TIP3   OH219255   0.823   5.347   3.313  0.1788 -0.3999 -0.2577
 6437TIP3    H119256   0.881   5.359   3.238  0.3189 -0.3007 -0.1351
 6437TIP3    H219257   0.749   5.296   3.279  0.8283 -1.4176 -0.1859
 6438TIP3   OH219258   6.093   7.142   1.147 -0.4437  0.3347  0.3198
 6438TIP3    H119259   6.188   7.154   1.146 -0.5591  1.3854  0.9266
 6438TIP3    H219260   6.062   7.196   1.073 -0.5621 -0.0869  0.0603
 6439TIP3   OH219261   0.670   6.078   3.671 -0.3816 -1.0283 -0.3406
 6439TIP3    H119262   0.720   6.072   3.590 -0.4913  0.8249 -0.5865
 6439TIP3    H219263   0.640   6.168   3.674  3.2363  0.4078  3.8243
 6440TIP3   OH219264   4.228   2.502   2.827 -0.1280 -0.5105 -0.1982
 6440TIP3    H119265   4.283   2.467   2.896  0.5153 -0.4015 -0.6507
 6440TIP3    H219266   4.244   2.445   2.752  0.2677  0.2200 -0.6786
 6441TIP3   OH219267   6.297   5.166   6.643 -0.3807 -0.3346  0.1002
 6441TIP3    H119268   6.320   5.081   6.605 -0.3581  0.9136 -2.9443
 6441TIP3    H219269   6.204   5.157   6.666 -0.5094 -1.0378 -0.6535
 6442TIP3   OH219270   0.405   7.350   4.428  0.2904  0.2756 -0.3793
 6442TIP3    H119271   0.390   7.260   4.399  0.1191  0.2197 -0.1177
 6442TIP3    H219272   0.366   7.404   4.359 -0.5941  0.1386  0.0019
 6443TIP3   OH219273   7.478   4.492   3.878 -0.1903 -0.3267  0.6578
 6443TIP3    H119274   7.522   4.412   3.849  1.2393 -0.8972  4.0168
 6443TIP3    H219275   7.423   4.465   3.951  0.1527  1.6740  1.7244
 6444TIP3   OH219276   2.880   1.338   4.710  0.0891 -0.1356 -0.0396
 6444TIP3    H119277   2.959   1.384   4.684  1.4247 -2.1484  0.2736
 6444TIP3    H219278   2.911   1.262   4.760 -2.1312  0.3111  2.2290
 6445TIP3   OH219279   4.328   5.611   5.309  0.2317  0.0801  0.0644
 6445TIP3    H119280   4.241   5.578   5.329 -0.9721  1.4297 -2.5703
 6445TIP3    H219281   4.383   5.532   5.304 -0.8515 -0.8129  1.3932
 6446TIP3   OH219282   0.109   0.025   0.768 -0.1658 -0.7476  0.4560
 6446TIP3    H119283   0.194   0.052   0.733  0.3002  0.3980  2.3036
 6446TIP3    H219284   0.047   0.039   0.696  0.9490  0.0404 -0.3740
 6447TIP3   OH219285   7.651   1.801   5.123  0.8344 -0.4027  0.2220
 6447TIP3    H119286   7.709   1.762   5.059 -1.4124 -1.3146 -1.4050
 6447TIP3    H219287   7.585   1.848   5.071 -1.4515 -1.7222  1.7274
 6448TIP3   OH219288   2.998   2.865   6.515 -0.6206 -0.6504  0.0367
 6448TIP3    H119289   2.987   2.899   6.604 -0.0136  1.1041 -0.5044
 6448TIP3    H219290   3.092   2.875   6.498 -0.6495 -1.4420 -0.6339
 6449TIP3   OH219291   0.013   1.069   1.284 -0.2072  0.5391 -0.1320
 6449TIP3    H119292  -0.073   1.106   1.264  0.7173  2.1903 -1.3094
 6449TIP3    H219293   0.066   1.087   1.205  1.3012 -0.1406  0.6809
 6450TIP3   OH219294   1.213   1.201   5.648  0.4128 -0.3753  0.4107
 6450TIP3    H119295   1.259   1.273   5.690  1.9215 -0.8604 -0.3087
 6450TIP3    H219296   1.152   1.243   5.588  1.7397  0.3389 -0.4881
 6451TIP3   OH219297   3.160   6.550   6.054  0.0648 -0.1673 -0.8309
 6451TIP3    H119298   3.182   6.571   6.144 -3.5552 -1.7258  0.6431
 6451TIP3    H219299   3.104   6.623   6.025  0.0910 -0.3282 -1.3028
 6452TIP3   OH219300   7.610   0.853   1.105 -0.0199  0.0625 -0.2456
 6452TIP3    H119301   7.594   0.760   1.087  0.8302  0.3065 -2.6214
 6452TIP3    H219302   7.679   0.853   1.171 -0.6262 -0.9564  0.4369
 6453TIP3   OH219303   3.806   3.303   0.228  0.0571 -0.1006  0.3157
 6453TIP3    H119304   3.881   3.337   0.179  0.0771  0.2847  0.6082
 6453TIP3    H219305   3.754   3.381   0.249  0.2615 -0.2115  1.2703
 6454TIP3   OH219306   0.714   5.454   2.178 -0.1431  0.0550 -0.1543
 6454TIP3    H119307   0.785   5.479   2.237 -0.7605 -0.4097  0.7976
 6454TIP3    H219308   0.712   5.358   2.182 -1.7452  0.1030  0.9387
 6455TIP3   OH219309   6.474   3.887   2.101  0.3152  0.1896 -0.2787
 6455TIP3    H119310   6.552   3.941   2.104  0.7319 -0.4303  0.3361
 6455TIP3    H219311   6.443   3.884   2.192  1.1519 -1.7857 -0.0126
 6456TIP3   OH219312   6.757   0.617   1.748  0.2928 -1.0225 -0.1149
 6456TIP3    H119313   6.820   0.574   1.806 -0.3262 -0.5528  0.9357
 6456TIP3    H219314   6.707   0.674   1.805  1.1801  1.2505 -1.4723
 6457TIP3   OH219315   2.148   3.609   4.938  0.1939  0.1562  0.1318
 6457TIP3    H119316   2.056   3.635   4.930  0.5562  1.5641  0.2277
 6457TIP3    H219317   2.183   3.619   4.849  0.3327 -0.0796  0.1592
 6458TIP3   OH219318   4.345   7.645   2.093  0.4754  0.3645  0.5985
 6458TIP3    H119319   4.421   7.607   2.050 -0.6725 -0.7434 -0.5500
 6458TIP3    H219320   4.315   7.713   2.033 -0.6224 -0.6057 -0.0102
 6459TIP3   OH219321   7.948   1.932   3.004  0.0339  0.3201 -0.6501
 6459TIP3    H119322   7.940   1.872   2.930 -3.0319  0.0489 -0.2251
 6459TIP3    H219323   7.958   1.874   3.080 -1.0804  0.3849 -0.4384
 6460TIP3   OH219324   5.665   4.226   5.206  0.0666  0.0293 -0.1272
 6460TIP3    H119325   5.587   4.216   5.151  0.9916 -1.8154 -1.2094
 6460TIP3    H219326   5.738   4.224   5.144  1.0302  0.6012  0.9552
 6461TIP3   OH219327   2.394   2.114   5.011  0.3224  0.3116  0.5137
 6461TIP3    H119328   2.369   2.042   5.069 -0.1549 -0.9685 -1.1795
 6461TIP3    H219329   2.358   2.192   5.052  1.4838 -0.2810  2.7962
 6462TIP3   OH219330   7.890   2.894   3.121 -0.5203  0.1282 -0.3652
 6462TIP3    H119331   7.851   2.909   3.035 -0.5727 -0.5517 -0.4641
 6462TIP3    H219332   7.878   2.977   3.167 -0.2121  0.5965 -1.1179
 6463TIP3   OH219333   0.966   6.660   6.100 -0.6603 -0.1892 -0.0527
 6463TIP3    H119334   0.894   6.610   6.139  0.3774  1.7591  5.2036
 6463TIP3    H219335   1.045   6.620   6.136  0.6298  0.8683 -1.5441
 6464TIP3   OH219336   3.782   7.680   0.871 -0.0964  0.6848  0.0634
 6464TIP3    H119337   3.691   7.651   0.877  0.5700 -1.4703  0.5485
 6464TIP3    H219338   3.794   7.737   0.947 -1.5139  2.5549 -1.0370
 6465TIP3   OH219339   5.128   7.185   2.585  0.0381 -0.0458 -0.6557
 6465TIP3    H119340   5.046   7.231   2.568 -0.7472 -0.8399  0.7613
 6465TIP3    H219341   5.139   7.190   2.680  0.5731 -1.6596 -0.5960
 6466TIP3   OH219342   4.598   0.493   1.816  0.2160  0.1726  0.2587
 6466TIP3    H119343   4.583   0.500   1.911 -0.8676  2.4523 -0.0185
 6466TIP3    H219344   4.519   0.452   1.782  0.9709 -1.4757  0.3819
 6467TIP3   OH219345   0.739   3.802   0.407 -0.2293  0.1156  1.0499
 6467TIP3    H119346   0.820   3.853   0.415  0.9301 -1.3883 -0.3386
 6467TIP3    H219347   0.767   3.711   0.420 -1.4547 -0.5722 -0.7713
 6468TIP3   OH219348   1.886   3.669   0.082 -0.0703 -0.5032 -0.6745
 6468TIP3    H119349   1.917   3.579   0.095  0.8198 -0.0306  0.6728
 6468TIP3    H219350   1.945   3.705   0.015  1.6053  0.0019  0.9879
 6469TIP3   OH219351   4.780   5.183   0.150 -0.8615 -0.2405 -0.1949
 6469TIP3    H119352   4.870   5.163   0.177 -0.8110  2.0628  1.6673
 6469TIP3    H219353   4.731   5.189   0.232 -2.0355  1.3639 -0.9563
 6470TIP3   OH219354   0.609   6.587   1.944  0.0275 -0.1539 -0.6065
 6470TIP3    H119355   0.528   6.562   1.990  1.0102  0.6039  1.6591
 6470TIP3    H219356   0.603   6.682   1.935  0.9153 -0.0161  0.1299
 6471TIP3   OH219357   4.398   6.245   1.912 -0.2112  0.2873 -0.7289
 6471TIP3    H119358   4.322   6.221   1.964 -0.9086 -0.0398 -1.8678
 6471TIP3    H219359   4.420   6.167   1.862  1.3578  0.1365  0.1249
 6472TIP3   OH219360   0.391   1.920   6.444 -0.3805 -0.2787  0.7246
 6472TIP3    H119361   0.419   1.839   6.486  0.2065  0.1496  1.1685
 6472TIP3    H219362   0.416   1.989   6.505  0.8715  0.3874 -0.4680
 6473TIP3   OH219363   0.519   5.598   2.288 -0.4376  0.0516  0.5330
 6473TIP3    H119364   0.563   5.523   2.247 -2.4804 -1.8699  1.6117
 6473TIP3    H219365   0.577   5.623   2.360 -0.1438 -1.1471  0.7399
 6474TIP3   OH219366   7.350   3.550   5.128 -0.0339  0.3577  0.1353
 6474TIP3    H119367   7.416   3.502   5.078 -0.7437  0.6198 -1.1013
 6474TIP3    H219368   7.266   3.517   5.096 -0.5137  1.0928  0.5903
 6475TIP3   OH219369   6.983   4.864   1.150 -0.1676 -0.7923  0.0793
 6475TIP3    H119370   6.929   4.847   1.228 -0.8480 -0.3949 -0.2921
 6475TIP3    H219371   7.073   4.852   1.180 -0.3447  0.6393  1.2687
 6476TIP3   OH219372   1.588   4.672   2.463 -0.3562  0.4609  0.0659
 6476TIP3    H119373   1.587   4.589   2.417  1.5833 -0.6467  1.7966
 6476TIP3    H219374   1.588   4.738   2.394  2.7583 -1.0791 -1.6411
 6477TIP3   OH219375   5.064   0.186   3.622  0.3501 -0.6508  0.4212
 6477TIP3    H119376   5.028   0.267   3.587  0.3162 -0.4994  0.8086
 6477TIP3    H219377   5.040   0.119   3.557  0.8544 -0.2664 -0.1840
 6478TIP3   OH219378   0.717   3.308   4.736  0.3698 -0.3051 -0.3890
 6478TIP3    H119379   0.677   3.394   4.746  0.5987 -0.3528  1.2430
 6478TIP3    H219380   0.645   3.251   4.709  0.2708  0.4235 -1.7533
 6479TIP3   OH219381   7.256   4.709   0.428 -0.5432 -0.2711 -0.2111
 6479TIP3    H119382   7.323   4.766   0.466 -0.4296 -0.5578  0.0234
 6479TIP3    H219383   7.238   4.746   0.342 -3.1626  2.3778  1.2903
 6480TIP3   OH219384   1.541   0.963   5.105  0.0335 -0.0503 -0.2596
 6480TIP3    H119385   1.462   1.014   5.090  0.5975  0.7653 -0.5093
 6480TIP3    H219386   1.606   1.027   5.133 -0.5733 -1.1772  4.7049
 6481TIP3   OH219387   0.229   2.655   5.434  0.4525  0.2165  0.3586
 6481TIP3    H119388   0.294   2.705   5.483  0.1662  0.3874  0.5652
 6481TIP3    H219389   0.234   2.566   5.471 -0.1421  0.4722  1.0751
 6482TIP3   OH219390   3.555   2.970   0.838 -0.8726  0.2834  0.1778
 6482TIP3    H119391   3.571   3.065   0.839  1.4098 -0.0427  1.1491
 6482TIP3    H219392   3.580   2.943   0.750 -2.8601  0.7146 -0.5755
 6483TIP3   OH219393   7.126   1.621   5.420 -0.5242 -0.0008  0.0917
 6483TIP3    H119394   7.140   1.698   5.364  0.2985  0.3040  0.6996
 6483TIP3    H219395   7.156   1.649   5.506  0.0936 -1.1266  0.2467
 6484TIP3   OH219396   2.515   2.021   4.053 -0.2658  0.1730 -0.2480
 6484TIP3    H119397   2.558   2.103   4.078 -2.4168  1.3961 -0.2802
 6484TIP3    H219398   2.536   1.960   4.124  0.6117  1.0130  0.2394
 6485TIP3   OH219399   0.021   5.282   1.642 -0.3979 -0.0270  0.5216
 6485TIP3    H119400  -0.056   5.267   1.588 -0.0709 -0.0899  0.0748
 6485TIP3    H219401   0.073   5.345   1.593  0.1690 -0.5097  0.4921
 6486TIP3   OH219402   7.590   2.503   6.033  0.5245  0.2992  0.2709
 6486TIP3    H119403   7.645   2.430   6.060 -0.4077 -0.3574  0.4643
 6486TIP3    H219404   7.500   2.472   6.048  0.1219  1.8459  1.3379
 6487TIP3   OH219405   6.148   0.359   4.240 -0.3249  0.1361  0.1521
 6487TIP3    H119406   6.073   0.359   4.299  1.3447  0.1974  2.4029
 6487TIP3    H219407   6.178   0.450   4.239  0.8151 -0.2064  0.8218
 6488TIP3   OH219408   7.445   4.125   6.013  0.4401  0.6405 -0.4325
 6488TIP3    H119409   7.531   4.091   5.988  0.8097  0.0666  1.3898
 6488TIP3    H219410   7.457   4.153   6.104 -1.5343 -0.3408  0.1822
 6489TIP3   OH219411   6.197   2.824   0.835 -0.2702 -0.2783 -0.0645
 6489TIP3    H119412   6.229   2.898   0.782  0.3478 -1.7562 -1.8415
 6489TIP3    H219413   6.164   2.865   0.915  2.1852  1.7217  0.0406
 6490TIP3   OH219414   7.952   3.955   1.246 -0.1495 -0.4823 -0.6400
 6490TIP3    H119415   7.877   4.014   1.242  0.1043 -0.0680  0.3561
 6490TIP3    H219416   7.975   3.951   1.339 -0.1512 -2.1630 -0.6814
 6491TIP3   OH219417   0.059   3.168   6.610  0.1693  0.0438 -0.1804
 6491TIP3    H119418   0.100   3.082   6.607 -0.3304 -0.1790 -1.2318
 6491TIP3    H219419  -0.032   3.150   6.635  0.2340  0.3339  0.2621
 6492TIP3   OH219420   0.135   0.123   5.283  0.1177 -0.1991  0.1048
 6492TIP3    H119421   0.047   0.088   5.299  0.4450 -2.5052 -2.5481
 6492TIP3    H219422   0.192   0.071   5.339  0.0711 -0.5338 -0.1564
 6493TIP3   OH219423   8.133   7.551   5.014  0.0016 -0.4118  0.4560
 6493TIP3    H119424   8.138   7.616   4.944  1.0976 -0.3658  0.5613
 6493TIP3    H219425   8.102   7.600   5.090  0.4497 -0.0949  0.4359
 6494TIP3   OH219426   1.686   1.349   5.772 -0.1816  0.3350  0.6385
 6494TIP3    H119427   1.633   1.324   5.848 -4.1339  2.3833 -1.1200
 6494TIP3    H219428   1.667   1.281   5.707 -1.0587  1.2743 -0.1266
 6495TIP3   OH219429   6.403   6.634   4.783 -0.4312 -0.4319  0.2960
 6495TIP3    H119430   6.489   6.613   4.746 -0.0748  1.0465  0.2327
 6495TIP3    H219431   6.361   6.549   4.794  1.3723 -1.2780  1.1386
 6496TIP3   OH219432   7.615   2.493   4.354 -0.8055 -0.3992 -0.2781
 6496TIP3    H119433   7.635   2.406   4.389 -1.3698 -0.9657 -1.2970
 6496TIP3    H219434   7.625   2.483   4.259 -0.0997  0.8690 -0.3696
 6497TIP3   OH219435   5.752   5.038   1.462  0.2877 -0.1507  0.4219
 6497TIP3    H119436   5.837   5.027   1.421 -0.3503 -1.5304 -0.6018
 6497TIP3    H219437   5.743   5.133   1.474  1.2127  0.1584 -1.0769
 6498TIP3   OH219438   4.716   5.634   4.485 -0.1743  0.1423 -0.0835
 6498TIP3    H119439   4.687   5.646   4.576  0.1295 -1.9895  0.3449
 6498TIP3    H219440   4.792   5.693   4.477  0.1867 -0.1059  1.2549
 6499TIP3   OH219441   6.646   1.452   6.764  0.2989  0.0931  0.1098
 6499TIP3    H119442   6.676   1.434   6.675 -0.0482  1.2087 -0.2538
 6499TIP3    H219443   6.698   1.528   6.791 -0.7118  0.7532  0.2475
 6500TIP3   OH219444   4.454   5.107   4.650 -0.6372 -0.1669  0.5791
 6500TIP3    H119445   4.443   5.062   4.734  0.3627 -1.5693 -0.0004
 6500TIP3    H219446   4.472   5.037   4.588  0.3559  0.9962 -0.4903
 6501TIP3   OH219447   7.617   5.398   0.236  0.4071 -0.7664  0.5002
 6501TIP3    H119448   7.621   5.304   0.256 -1.0166 -0.5718  1.9002
 6501TIP3    H219449   7.597   5.439   0.320  1.1019  0.8248 -0.0798
 6502TIP3   OH219450   5.763   0.029   1.802  0.6346 -0.0645 -0.1307
 6502TIP3    H119451   5.687   0.085   1.817  1.6769  1.9351 -1.7808
 6502TIP3    H219452   5.733  -0.059   1.825 -1.3466  1.0007  1.7427
 6503TIP3   OH219453   1.792   6.209   4.578  0.2071  0.0989 -0.5892
 6503TIP3    H119454   1.703   6.196   4.611  0.2384  0.6617 -0.2757
 6503TIP3    H219455   1.786   6.287   4.523  0.9915  1.6560  1.4033
 6504TIP3   OH219456   0.169   6.496   5.901  0.5877 -0.4995  0.4678
 6504TIP3    H119457   0.207   6.581   5.919 -1.7117  0.3077  1.9536
 6504TIP3    H219458   0.097   6.514   5.841  0.5383 -1.5104  0.2008
 6505TIP3   OH219459   6.091   5.600   2.240 -0.2184  0.4541 -0.1781
 6505TIP3    H119460   6.011   5.548   2.241  0.3798 -0.4884 -0.2767
 6505TIP3    H219461   6.084   5.653   2.161 -0.3373 -0.2819 -0.6671
 6506TIP3   OH219462   2.771   1.725   5.323  0.0125 -0.2152 -0.4093
 6506TIP3    H119463   2.769   1.649   5.382  0.8964  0.6663  0.8071
 6506TIP3    H219464   2.696   1.712   5.265 -0.9463 -1.0764  0.9554
 6507TIP3   OH219465   7.942   3.391   3.498 -0.1497  0.6117  0.2894
 6507TIP3    H119466   7.889   3.369   3.575 -0.4792  0.2538 -0.0341
 6507TIP3    H219467   7.992   3.468   3.525  0.3091  0.0436  1.1242
 6508TIP3   OH219468   5.946   1.763   1.295 -0.1279 -0.2043 -0.2896
 6508TIP3    H119469   5.881   1.697   1.270 -0.5269 -0.2808  0.8777
 6508TIP3    H219470   5.910   1.845   1.260 -1.1580 -0.1602  0.8007
 6509TIP3   OH219471   0.881   0.382   5.751  0.0078 -0.0497 -0.2057
 6509TIP3    H119472   0.837   0.346   5.674  1.3733  1.6437 -1.8989
 6509TIP3    H219473   0.814   0.431   5.798 -0.5607  0.0555 -1.1126
 6510TIP3   OH219474   5.669   6.083   1.477  0.0109  0.0107 -0.8157
 6510TIP3    H119475   5.615   6.029   1.535 -2.1314  2.8982  0.1095
 6510TIP3    H219476   5.664   6.040   1.392 -0.4454 -1.9589  0.1634
 6511TIP3   OH219477   6.775   1.101   0.407 -0.4280 -0.1244  0.1366
 6511TIP3    H119478   6.729   1.107   0.490  2.1523  0.2761  1.6416
 6511TIP3    H219479   6.772   1.007   0.385  0.1034 -0.4564  1.4401
 6512TIP3   OH219480   2.145   1.046   2.631 -0.5092  0.4183 -0.1880
 6512TIP3    H119481   2.135   1.018   2.540 -1.6249 -0.5030  0.1885
 6512TIP3    H219482   2.055   1.056   2.663 -0.1370  0.5882  0.8522
 6513TIP3   OH219483   3.656   4.755   6.447 -0.0412  0.2369 -0.0442
 6513TIP3    H119484   3.571   4.712   6.433  0.3222  0.0791 -2.0505
 6513TIP3    H219485   3.718   4.682   6.455  0.2718  0.3511 -1.3096
 6514TIP3   OH219486   5.411   2.183   5.868 -0.4946  0.1609  0.2755
 6514TIP3    H119487   5.490   2.139   5.900 -1.0466 -0.9557  0.1114
 6514TIP3    H219488   5.440   2.227   5.788 -0.5150 -2.0702 -1.0214
 6515TIP3   OH219489   8.227   1.786   4.332 -0.1773 -0.4616 -0.2933
 6515TIP3    H119490   8.318   1.782   4.361 -0.4158 -0.1494  0.5361
 6515TIP3    H219491   8.177   1.800   4.413 -1.1556 -2.8400 -0.3899
 6516TIP3   OH219492   8.250   7.786   0.051  0.1277  0.0889 -0.0264
 6516TIP3    H119493   8.259   7.857   0.114 -0.4423  0.3271 -0.2100
 6516TIP3    H219494   8.211   7.714   0.101 -0.3732  0.2953 -0.1178
 6517TIP3   OH219495   5.351   1.452   5.994  0.2845 -0.0832 -0.0192
 6517TIP3    H119496   5.393   1.524   5.946 -0.0426  0.2486  0.1921
 6517TIP3    H219497   5.316   1.395   5.925 -1.2308  1.0006 -0.2007
 6518TIP3   OH219498   5.682   6.836   4.454  0.7161 -0.2500 -0.1316
 6518TIP3    H119499   5.687   6.915   4.400 -0.0007 -0.5050 -0.5806
 6518TIP3    H219500   5.677   6.764   4.392  2.7783 -0.7995  0.2429
 6519TIP3   OH219501   1.354   5.015   3.928  0.1384  0.8879  1.1443
 6519TIP3    H119502   1.447   4.999   3.948  1.4689  0.4323 -3.9494
 6519TIP3    H219503   1.312   4.930   3.941  1.4564 -0.0791 -0.4890
 6520TIP3   OH219504   5.217   3.297   3.985  0.5387  0.3142  0.0644
 6520TIP3    H119505   5.259   3.246   3.916 -0.1710 -1.2045  0.7145
 6520TIP3    H219506   5.271   3.376   3.993  0.4190  0.7173 -2.4452
 6521TIP3   OH219507   1.998   1.449   5.752 -0.0803 -0.3153  0.1346
 6521TIP3    H119508   1.921   1.417   5.799  0.3630  0.3355  1.3409
 6521TIP3    H219509   2.057   1.374   5.750 -0.5186 -0.6603 -0.3336
 6522TIP3   OH219510   5.728   6.246   4.814  0.1231 -0.2431  0.0059
 6522TIP3    H119511   5.775   6.329   4.826 -0.0578 -0.1341 -0.0276
 6522TIP3    H219512   5.728   6.232   4.720  0.3228 -0.3806  0.0274
 6523TIP3   OH219513   2.283   0.607   0.142  0.1128  0.1480  0.6080
 6523TIP3    H119514   2.329   0.530   0.176  1.6671  0.8971  0.2692
 6523TIP3    H219515   2.227   0.636   0.214  1.0609 -0.0973  1.4551
 6524TIP3   OH219516   5.416   3.482   4.331  0.7636  0.6806  0.0648
 6524TIP3    H119517   5.507   3.454   4.345 -0.1049 -2.7022  0.0088
 6524TIP3    H219518   5.366   3.400   4.333 -2.3212  2.4196  0.1666
 6525TIP3   OH219519   2.165   3.191   0.510  0.9041 -0.2657  0.5338
 6525TIP3    H119520   2.247   3.153   0.540 -0.1728 -0.8334  3.0121
 6525TIP3    H219521   2.191   3.268   0.459  2.9748 -1.2773 -0.0375
 6526TIP3   OH219522   7.072   3.778   1.667 -0.3556 -0.0217 -0.0203
 6526TIP3    H119523   7.128   3.712   1.625 -0.3379 -0.0531  0.0523
 6526TIP3    H219524   6.985   3.737   1.670 -0.7005  0.5485 -1.3635
 6527TIP3   OH219525   2.738   6.725   3.034 -0.8620 -0.2099  0.2076
 6527TIP3    H119526   2.758   6.761   3.121 -2.1865  1.1879 -0.0177
 6527TIP3    H219527   2.811   6.754   2.979 -1.3754  1.3096  0.2717
 6528TIP3   OH219528   7.095   2.988   0.919 -0.1759 -0.5680 -0.4338
 6528TIP3    H119529   7.043   2.988   1.000 -0.3398 -0.6658 -0.5378
 6528TIP3    H219530   7.032   2.966   0.850 -0.1775  0.1432 -0.6750
 6529TIP3   OH219531   4.310   1.800   4.737 -0.3988 -0.3425 -0.3213
 6529TIP3    H119532   4.373   1.861   4.699 -1.1169 -0.3709 -1.6085
 6529TIP3    H219533   4.348   1.714   4.720  0.3052 -0.3119  0.9398
 6530TIP3   OH219534   4.838   6.541   0.741 -0.0659  0.0441 -0.5273
 6530TIP3    H119535   4.928   6.557   0.770  0.0353 -0.0444 -0.7938
 6530TIP3    H219536   4.835   6.446   0.728 -0.7088 -0.2184  1.2264
 6531TIP3   OH219537   2.045   4.155   1.118  0.1717  0.0276 -0.1071
 6531TIP3    H119538   2.019   4.238   1.158 -1.6458 -1.3685  1.7612
 6531TIP3    H219539   2.021   4.165   1.026 -1.0396  1.1711  0.3081
 6532TIP3   OH219540   3.397   3.414   5.031 -0.0156  0.7830  0.0641
 6532TIP3    H119541   3.457   3.392   5.103  0.8851  3.1123  0.1031
 6532TIP3    H219542   3.436   3.491   4.990 -1.2850  0.3742 -2.0323
 6533TIP3   OH219543   8.060   5.456   6.088  0.1501 -0.3286  0.4699
 6533TIP3    H119544   8.015   5.480   6.169  0.4186 -1.0696  0.8526
 6533TIP3    H219545   8.029   5.520   6.023  1.2386  1.3834  1.5476
 6534TIP3   OH219546   1.024   4.283   3.687 -0.1685  0.2196 -0.4282
 6534TIP3    H119547   0.977   4.344   3.630 -2.4374 -0.9582  0.0821
 6534TIP3    H219548   1.021   4.199   3.642  0.6185 -0.1067  0.0922
 6535TIP3   OH219549   2.917   5.102   3.962 -0.3930  0.0469 -0.1869
 6535TIP3    H119550   2.926   5.184   3.912 -1.0587 -0.4350 -1.1336
 6535TIP3    H219551   2.829   5.071   3.942  0.4451 -1.8017 -1.2721
 6536TIP3   OH219552   1.765   0.523   6.545 -0.1196 -0.1158 -0.0028
 6536TIP3    H119553   1.742   0.453   6.605  0.4241  0.0418  0.3977
 6536TIP3    H219554   1.759   0.484   6.458 -3.9496  0.4463 -0.1534
 6537TIP3   OH219555   3.068   2.906   0.555 -0.5644 -0.1934 -0.4926
 6537TIP3    H119556   3.056   2.869   0.468  0.5490 -0.1953 -0.6578
 6537TIP3    H219557   3.163   2.908   0.568 -0.7087 -0.1074  0.6823
 6538TIP3   OH219558   8.177   0.625   2.918  0.6495  0.2318  0.2623
 6538TIP3    H119559   8.141   0.713   2.905  2.4437  0.9146 -0.4929
 6538TIP3    H219560   8.162   0.606   3.010 -0.5448  0.9511  0.2379
 6539TIP3   OH219561   3.129   5.266   4.334 -0.1395  0.0440 -0.1130
 6539TIP3    H119562   3.211   5.274   4.285 -0.2729 -0.7420 -0.4822
 6539TIP3    H219563   3.084   5.349   4.320 -0.3025 -0.2705 -1.5826
 6540TIP3   OH219564   0.261   5.929   1.271  0.1027  0.0112  0.1368
 6540TIP3    H119565   0.329   5.990   1.242  1.6406 -0.8590  1.7288
 6540TIP3    H219566   0.184   5.985   1.285  0.4805  1.0378 -1.5574
 6541TIP3   OH219567   5.334   2.490   5.015  0.4248  0.5870 -0.4293
 6541TIP3    H119568   5.316   2.396   5.006  0.4261  0.5165  0.2956
 6541TIP3    H219569   5.314   2.510   5.106 -0.2012  1.4397 -0.7443
 6542TIP3   OH219570   4.953   2.997   0.776  0.2863  0.5526 -0.2223
 6542TIP3    H119571   4.912   3.047   0.847  0.1589  0.2177 -0.0592
 6542TIP3    H219572   5.003   3.062   0.727  0.7388  0.7134  0.4432
 6543TIP3   OH219573   7.482   3.808   3.378 -0.0037  0.0325  0.1307
 6543TIP3    H119574   7.505   3.806   3.286 -0.9053 -2.1147 -0.1079
 6543TIP3    H219575   7.468   3.716   3.402  0.5320  0.4786  2.4947
 6544TIP3   OH219576   3.377   3.779   1.272 -0.0877  0.2681  0.5511
 6544TIP3    H119577   3.422   3.800   1.354  1.5851  0.3263 -0.3270
 6544TIP3    H219578   3.430   3.709   1.233 -1.0108  0.0516 -0.3441
 6545TIP3   OH219579   5.253   2.946   2.264 -0.3653 -0.2097 -0.1694
 6545TIP3    H119580   5.340   2.985   2.263 -0.6471  0.4318 -0.0018
 6545TIP3    H219581   5.218   2.959   2.176 -0.8950  0.9312  0.1930
 6546TIP3   OH219582   7.408   0.204   3.490 -0.2044 -0.5598  0.2823
 6546TIP3    H119583   7.483   0.167   3.536 -0.5374 -1.8001 -0.1469
 6546TIP3    H219584   7.332   0.176   3.542 -0.4854 -0.7126 -0.2095
 6547TIP3   OH219585   3.534   6.638   3.158 -0.1980 -0.3203 -0.1105
 6547TIP3    H119586   3.577   6.554   3.171 -0.2777 -0.0809  2.0477
 6547TIP3    H219587   3.521   6.644   3.063 -0.8715 -3.0710 -0.2789
 6548TIP3   OH219588   7.417   7.506   5.972  0.4757 -0.0788  0.0047
 6548TIP3    H119589   7.341   7.553   6.005  1.1668  0.6194  0.6222
 6548TIP3    H219590   7.382   7.420   5.948 -0.6205  0.4274 -0.2915
 6549TIP3   OH219591   0.540   6.491   2.440 -0.4619 -0.3593 -0.0066
 6549TIP3    H119592   0.624   6.485   2.485 -1.3580  0.6261  1.9511
 6549TIP3    H219593   0.549   6.566   2.381 -0.5423  1.1016  1.7191
 6550TIP3   OH219594   2.916   3.214   1.524 -0.0306  0.1214 -0.4767
 6550TIP3    H119595   2.823   3.196   1.512 -0.3813  1.1111  0.5672
 6550TIP3    H219596   2.960   3.142   1.479 -1.2660  0.2557 -1.9920
 6551TIP3   OH219597   1.488   0.254   3.706  0.5214  0.0136  0.0427
 6551TIP3    H119598   1.561   0.213   3.659  1.4413 -0.1819  1.5930
 6551TIP3    H219599   1.528   0.298   3.781 -0.8583  0.7091  0.4168
 6552TIP3   OH219600   3.609   3.848   2.304  0.3314 -0.0196  0.3300
 6552TIP3    H119601   3.567   3.923   2.261  1.6323  0.7235  0.2936
 6552TIP3    H219602   3.609   3.779   2.237  0.1637  0.3325 -0.0381
 6553TIP3   OH219603   6.349   7.153   4.152 -0.3515  0.4473  0.4207
 6553TIP3    H119604   6.370   7.134   4.243 -2.1869  1.1210  1.0388
 6553TIP3    H219605   6.271   7.100   4.135 -3.0324  3.9027  0.8622
 6554TIP3   OH219606   8.245   5.999   0.090 -0.2646 -0.4090 -0.3059
 6554TIP3    H119607   8.162   5.964   0.059 -1.7316  0.5862  2.2173
 6554TIP3    H219608   8.250   6.087   0.051 -1.0451  0.0076  0.4949
 6555TIP3   OH219609   6.874   5.124   6.236 -0.2643 -0.0963  0.1946
 6555TIP3    H119610   6.813   5.196   6.218  0.2345  0.5546  1.0153
 6555TIP3    H219611   6.960   5.165   6.234  0.1943 -1.0872 -1.3220
 6556TIP3   OH219612   3.471   3.422   1.414  0.0224  0.2123 -0.5680
 6556TIP3    H119613   3.434   3.463   1.492  0.0987  0.9420 -0.9016
 6556TIP3    H219614   3.566   3.423   1.429 -0.0742 -3.8546  1.3735
 6557TIP3   OH219615   6.901   4.991   1.398 -0.1213 -0.6590  0.2847
 6557TIP3    H119616   6.936   5.074   1.366 -2.9575  0.5437 -0.0312
 6557TIP3    H219617   6.855   5.014   1.479 -1.4766 -1.7709 -0.1154
 6558TIP3   OH219618   3.493   4.878   2.319  0.3298 -0.1848  0.0445
 6558TIP3    H119619   3.541   4.796   2.334  0.0610 -0.2177  0.7936
 6558TIP3    H219620   3.498   4.924   2.404 -0.6707 -0.0355  0.0329
 6559TIP3   OH219621   1.191   1.635   6.188 -0.2434  0.1661  0.7363
 6559TIP3    H119622   1.212   1.574   6.259  1.3336 -2.1093 -1.5079
 6559TIP3    H219623   1.267   1.692   6.181 -0.6293  0.7424  1.2110
 6560TIP3   OH219624   6.827   5.588   4.175  0.6333 -0.1539  0.4911
 6560TIP3    H119625   6.831   5.494   4.156  0.5370 -0.1930  0.6632
 6560TIP3    H219626   6.881   5.628   4.107 -1.1822 -0.1184 -0.9950
 6561TIP3   OH219627   7.437   6.889   0.963 -0.1545 -0.6132  0.0653
 6561TIP3    H119628   7.382   6.870   0.886 -0.7894  0.7098  0.1753
 6561TIP3    H219629   7.441   6.984   0.966  2.0958 -0.6691  0.1169
 6562TIP3   OH219630   4.576   2.433   3.453  0.3452 -0.4526  0.2231
 6562TIP3    H119631   4.603   2.451   3.363  0.3893 -0.4929  0.2285
 6562TIP3    H219632   4.566   2.519   3.492 -0.3460 -0.4121 -0.0225
 6563TIP3   OH219633   5.484   0.619   2.884 -0.1334 -0.1991 -0.5136
 6563TIP3    H119634   5.572   0.633   2.850 -0.1992  0.2213 -0.5180
 6563TIP3    H219635   5.428   0.671   2.826 -0.2917  0.1970 -0.0112
 6564TIP3   OH219636   4.368   7.176   5.214 -0.0206  0.2886  0.4751
 6564TIP3    H119637   4.447   7.229   5.208  0.9058 -1.0260  0.7361
 6564TIP3    H219638   4.377   7.111   5.144 -0.5068 -0.3370  0.9808
 6565TIP3   OH219639   4.494   6.611   3.319 -0.0517 -0.4249  0.1068
 6565TIP3    H119640   4.454   6.611   3.232  0.5906  2.2717 -0.2670
 6565TIP3    H219641   4.514   6.519   3.335 -0.4448 -1.0588 -2.4766
 6566TIP3   OH219642   5.685   7.304   2.797 -0.0602  0.0852 -0.2765
 6566TIP3    H119643   5.756   7.267   2.850 -0.0730 -0.3399 -0.5469
 6566TIP3    H219644   5.658   7.383   2.844  1.6117  1.0945 -0.9406
 6567TIP3   OH219645   7.482   6.946   5.524  0.1850 -0.4756 -0.2408
 6567TIP3    H119646   7.431   7.015   5.482  0.5783 -0.2844 -0.4056
 6567TIP3    H219647   7.437   6.865   5.500 -1.3855 -0.1768  1.5010
 6568TIP3   OH219648   6.768   1.115   4.483 -0.0077 -0.0004  0.2411
 6568TIP3    H119649   6.813   1.176   4.540  1.6827 -0.5571 -0.4353
 6568TIP3    H219650   6.836   1.081   4.425 -1.2733 -1.0099 -0.7264
 6569TIP3   OH219651   7.478   6.447   4.874 -0.6308 -0.0868  0.2638
 6569TIP3    H119652   7.558   6.466   4.924 -1.1880 -0.9592  1.5568
 6569TIP3    H219653   7.500   6.369   4.823  0.7035  2.0810 -2.7927
 6570TIP3   OH219654   2.314   7.361   0.861 -0.5197 -0.4441  0.1438
 6570TIP3    H119655   2.296   7.452   0.837  1.1958 -0.3276 -0.8621
 6570TIP3    H219656   2.356   7.367   0.947  0.0469 -0.2132 -0.1382
 6571TIP3   OH219657   7.466   5.620   2.532 -0.3147 -0.3727 -0.2324
 6571TIP3    H119658   7.491   5.656   2.447  0.3094 -0.2316  0.0047
 6571TIP3    H219659   7.542   5.637   2.588 -1.1154  0.4541  0.6288
 6572TIP3   OH219660   0.930   3.935   0.577 -0.0173  0.2898 -0.5044
 6572TIP3    H119661   0.926   4.029   0.597  0.1419 -0.0452  1.3195
 6572TIP3    H219662   1.021   3.919   0.552  1.0115  0.0507  2.8665
 6573TIP3   OH219663   5.499   3.341   5.498  0.4107 -0.3542  0.0680
 6573TIP3    H119664   5.550   3.314   5.421  1.6370  0.7522  0.4789
 6573TIP3    H219665   5.506   3.267   5.558  1.3528 -0.3085  0.0277
 6574TIP3   OH219666   0.769   1.493   1.528 -0.1966 -0.2879  0.3072
 6574TIP3    H119667   0.818   1.449   1.459 -0.6874 -1.3227  0.5968
 6574TIP3    H219668   0.680   1.500   1.493 -0.2253  0.0853  0.4457
 6575TIP3   OH219669   4.732   3.610   2.804  0.0488 -0.2990 -0.1027
 6575TIP3    H119670   4.655   3.562   2.834 -1.1398  1.4190 -0.2719
 6575TIP3    H219671   4.697   3.684   2.754  1.8345  0.0790 -0.8869
 6576TIP3   OH219672   6.143   7.124   0.302 -0.1904 -0.0495 -0.0615
 6576TIP3    H119673   6.230   7.088   0.287  0.3898  0.9460  0.7570
 6576TIP3    H219674   6.145   7.209   0.257 -1.5511 -0.9726 -2.0187
 6577TIP3   OH219675   6.379   2.449   4.487 -0.2767  0.3482 -0.2401
 6577TIP3    H119676   6.352   2.480   4.574 -0.7216  0.3671 -0.3823
 6577TIP3    H219677   6.472   2.426   4.497 -0.8432 -1.7342  0.8151
 6578TIP3   OH219678   4.753   1.345   0.532 -0.3222  0.3190 -0.4423
 6578TIP3    H119679   4.689   1.274   0.520  0.1429  0.1450 -2.2626
 6578TIP3    H219680   4.731   1.408   0.463  0.7515  0.8024 -0.3524
 6579TIP3   OH219681   1.407   4.582   5.673 -0.5263 -0.0179 -0.4542
 6579TIP3    H119682   1.366   4.529   5.604 -1.7387 -0.9954  0.9554
 6579TIP3    H219683   1.488   4.615   5.633  1.0716 -4.0938 -1.0226
 6580TIP3   OH219684   4.535   6.383   0.527  0.3491  0.0228  0.4698
 6580TIP3    H119685   4.594   6.408   0.456  0.9753 -0.3520  0.8453
 6580TIP3    H219686   4.469   6.452   0.529 -0.2126 -0.4489 -1.0738
 6581TIP3   OH219687   3.852   0.669   6.625 -0.4694  0.0632 -0.0504
 6581TIP3    H119688   3.912   0.702   6.558  0.3237  1.2020  1.1572
 6581TIP3    H219689   3.770   0.715   6.608  0.2270  1.6819  0.7675
 6582TIP3   OH219690   1.871   0.395   3.310  0.4549 -0.3941  0.8274
 6582TIP3    H119691   1.873   0.301   3.289  0.7749 -0.1500 -0.2853
 6582TIP3    H219692   1.810   0.432   3.246  1.9118  0.4673 -0.1196
 6583TIP3   OH219693   1.443   5.912   2.835 -0.8401  0.0139 -0.3139
 6583TIP3    H119694   1.383   5.957   2.775 -0.5476  0.2078 -0.4618
 6583TIP3    H219695   1.405   5.927   2.922  0.6140  2.8104 -0.0595
 6584TIP3   OH219696   4.034   5.731   0.653 -0.3189  0.5438 -0.1510
 6584TIP3    H119697   3.969   5.681   0.604 -0.8365  0.6673  0.3979
 6584TIP3    H219698   3.985   5.770   0.725  0.1830  1.4212 -0.2698
 6585TIP3   OH219699   3.683   5.072   1.671  0.8501  0.8129 -0.1524
 6585TIP3    H119700   3.768   5.093   1.709  1.4465 -0.4898 -0.7295
 6585TIP3    H219701   3.620   5.124   1.722  1.2855 -2.3405  4.1200
 6586TIP3   OH219702   2.554   4.591   5.337 -0.3874  0.5396 -0.3207
 6586TIP3    H119703   2.489   4.522   5.352 -0.0413  0.2015 -0.3775
 6586TIP3    H219704   2.637   4.551   5.360 -0.3036  1.3057  0.7895
 6587TIP3   OH219705   5.799   0.797   1.413  0.1048 -0.5196  0.1243
 6587TIP3    H119706   5.729   0.734   1.425 -0.5557  0.1526 -0.1215
 6587TIP3    H219707   5.804   0.810   1.318 -1.2356  1.3789  0.2494
 6588TIP3   OH219708   2.125   0.064   4.015 -0.1140  0.1264  0.3083
 6588TIP3    H119709   2.091   0.152   3.998  1.9970  0.6825 -1.5678
 6588TIP3    H219710   2.047   0.008   4.017 -1.3581  1.7434 -0.6075
 6589TIP3   OH219711   5.175   5.290   3.610  0.1956  0.4075 -0.1175
 6589TIP3    H119712   5.104   5.265   3.669  0.7043 -1.5465 -0.2384
 6589TIP3    H219713   5.254   5.286   3.664  0.5006 -0.0587 -0.5807
 6590TIP3   OH219714   0.795   5.828   0.513 -0.0416  0.1811 -0.7678
 6590TIP3    H119715   0.806   5.755   0.574  1.5766  0.6041 -0.5085
 6590TIP3    H219716   0.732   5.886   0.556  0.4650  0.0812  0.1369
 6591TIP3   OH219717   6.482   2.698   3.179  0.3249  0.3488  0.2782
 6591TIP3    H119718   6.510   2.769   3.121  1.6055  0.3779  0.9090
 6591TIP3    H219719   6.562   2.651   3.201 -0.5157 -1.4749 -0.3299
 6592TIP3   OH219720   4.999   2.249   0.805  0.1565  0.1171 -0.3714
 6592TIP3    H119721   4.959   2.327   0.843 -1.4353 -1.4782  1.4571
 6592TIP3    H219722   4.925   2.198   0.770  1.0474 -0.9872 -0.7283
 6593TIP3   OH219723   7.030   2.034   4.300 -0.2874  0.0661 -0.1085
 6593TIP3    H119724   6.963   2.070   4.358  0.7864  1.0908  0.5235
 6593TIP3    H219725   7.046   2.103   4.236 -0.6048 -0.6050 -0.9403
 6594TIP3   OH219726   5.491   3.640   0.780 -0.1786  0.2981 -0.2531
 6594TIP3    H119727   5.492   3.562   0.835 -0.7432  0.5207  0.0827
 6594TIP3    H219728   5.575   3.683   0.797 -0.9196  1.1295  1.5668
 6595TIP3   OH219729   4.187   7.300   2.543 -0.4689 -0.0395 -0.3960
 6595TIP3    H119730   4.095   7.307   2.566 -1.0176 -0.2586 -2.3710
 6595TIP3    H219731   4.213   7.389   2.520  0.6139  0.5757  2.6706
 6596TIP3   OH219732   8.196   6.901   0.010  0.4852  0.5117  0.0673
 6596TIP3    H119733   8.201   6.996   0.025 -0.8103  0.6072  0.0529
 6596TIP3    H219734   8.104   6.886  -0.014 -0.7487 -1.3628  4.7978
 6597TIP3   OH219735   1.086   1.345   6.292 -0.0911 -0.0007  0.4162
 6597TIP3    H119736   1.176   1.350   6.326 -0.6751 -1.5183  2.3907
 6597TIP3    H219737   1.081   1.260   6.249 -1.1164 -0.8972  2.1989
 6598TIP3   OH219738   4.921   0.841   1.450  0.1333 -0.3448  1.0757
 6598TIP3    H119739   4.984   0.849   1.522  1.0903 -0.2236  0.2514
 6598TIP3    H219740   4.851   0.786   1.485  1.5882 -2.0639  1.4504
 6599TIP3   OH219741   1.463   6.747   5.522  0.2203 -0.2343 -0.2078
 6599TIP3    H119742   1.482   6.741   5.428  0.9926 -1.3008 -0.0125
 6599TIP3    H219743   1.488   6.835   5.547  2.2235 -0.6622 -0.5684
 6600TIP3   OH219744   1.605   0.319   0.681  0.1661  0.5286 -0.1720
 6600TIP3    H119745   1.662   0.389   0.711  0.4982  1.1632 -2.1479
 6600TIP3    H219746   1.562   0.354   0.602 -0.5645 -1.0542 -0.5278
 6601TIP3   OH219747   1.463   7.233   0.997 -0.6807  0.1283  0.3933
 6601TIP3    H119748   1.420   7.283   1.067 -0.6108  0.0466  0.4943
 6601TIP3    H219749   1.393   7.179   0.960 -0.0928 -2.3052  2.5551
 6602TIP3   OH219750   2.685   0.325   3.134  0.3996  0.2837 -0.5068
 6602TIP3    H119751   2.711   0.362   3.218 -0.0752 -3.8399  1.6885
 6602TIP3    H219752   2.765   0.284   3.100  0.0743 -0.0225 -0.9123
 6603TIP3   OH219753   6.272   3.323   4.891  0.6447 -0.1452 -0.0251
 6603TIP3    H119754   6.357   3.324   4.935  0.9591  0.8945 -0.6255
 6603TIP3    H219755   6.209   3.345   4.959  0.7821 -1.3624  0.5282
 6604TIP3   OH219756   6.602   5.557   1.507  0.2276  0.3609 -0.5835
 6604TIP3    H119757   6.595   5.483   1.567 -0.6106  0.3813 -0.6570
 6604TIP3    H219758   6.696   5.577   1.506  0.4780 -0.7281 -0.6032
 6605TIP3   OH219759   3.023   1.024   5.954  0.5558  0.0099 -0.0865
 6605TIP3    H119760   3.062   1.109   5.933 -0.2971  0.1628 -1.1236
 6605TIP3    H219761   2.958   1.009   5.885 -2.4869  0.5639  2.4151
 6606TIP3   OH219762   5.108   1.073   5.887 -0.6541  0.5630 -0.3641
 6606TIP3    H119763   5.130   0.994   5.838 -1.2783 -0.2917  0.6802
 6606TIP3    H219764   5.167   1.140   5.853  0.9787 -0.7318 -0.1999
 6607TIP3   OH219765   4.993   6.979   5.407 -0.0198 -0.0360 -0.1073
 6607TIP3    H119766   5.023   7.047   5.467  1.1002  0.6147 -1.3397
 6607TIP3    H219767   5.036   6.899   5.437  2.4595  0.7198 -1.3368
 6608TIP3   OH219768   5.940   6.174   6.231 -0.5041 -0.7606 -0.1990
 6608TIP3    H119769   5.857   6.177   6.184 -1.0425 -2.4418  0.5460
 6608TIP3    H219770   5.964   6.081   6.231  0.7675 -0.4561  0.6289
 6609TIP3   OH219771   7.913   7.677   1.237  0.2130  0.1730 -0.4034
 6609TIP3    H119772   7.839   7.734   1.258  1.4744  1.4956  0.6342
 6609TIP3    H219773   7.875   7.608   1.182 -1.6809  1.0728 -0.3061
 6610TIP3   OH219774   5.536   3.626   2.539  0.1177 -0.0639  0.4290
 6610TIP3    H119775   5.607   3.688   2.521  0.7175 -0.7952  0.1980
 6610TIP3    H219776   5.581   3.548   2.571 -0.5424 -0.7800 -0.3700
 6611TIP3   OH219777   7.412   1.501   2.609 -0.2393  0.1536  0.7456
 6611TIP3    H119778   7.325   1.462   2.622  0.2188 -1.0608  0.2480
 6611TIP3    H219779   7.435   1.480   2.519  0.8131 -0.0117  1.0461
 6612TIP3   OH219780   2.513   0.155   4.447 -0.2269 -0.1705  0.2223
 6612TIP3    H119781   2.517   0.191   4.359 -0.3759  0.0775  0.3153
 6612TIP3    H219782   2.421   0.166   4.473 -0.2628 -0.5784  0.2668
 6613TIP3   OH219783   5.125   0.466   0.872  0.5518  0.3904  0.1779
 6613TIP3    H119784   5.055   0.506   0.922  0.8494 -0.1472  1.0501
 6613TIP3    H219785   5.081   0.425   0.798 -0.2086 -0.7750  1.2260
 6614TIP3   OH219786   3.510   3.018   4.614 -0.1452 -0.2850 -0.0070
 6614TIP3    H119787   3.458   2.973   4.547 -0.6432 -1.3753  1.0452
 6614TIP3    H219788   3.590   3.045   4.570  0.0118 -1.9359 -0.7970
 6615TIP3   OH219789   6.940   5.356   4.049 -0.3131 -0.1444 -0.0295
 6615TIP3    H119790   6.995   5.280   4.031 -0.3007 -0.3486  0.8355
 6615TIP3    H219791   6.900   5.337   4.134 -1.1020  0.3605 -0.2798
 6616TIP3   OH219792   7.906   5.630   4.761  0.0736 -0.2278 -0.0093
 6616TIP3    H119793   7.824   5.581   4.768  0.2504 -0.5471 -0.1845
 6616TIP3    H219794   7.878   5.719   4.738 -0.3091  0.0156  1.2803
 6617TIP3   OH219795   8.143   5.683   2.833 -0.3322  0.4264 -0.3550
 6617TIP3    H119796   8.204   5.664   2.904  0.9195  1.6409 -1.0359
 6617TIP3    H219797   8.150   5.607   2.775 -1.3566 -0.5661  0.7802
 6618TIP3   OH219798   0.196   4.000   0.531  0.0122  0.2491  0.4070
 6618TIP3    H119799   0.192   3.969   0.441  0.1309  1.1840  0.0638
 6618TIP3    H219800   0.289   4.009   0.550  0.0032 -0.4386  0.8064
 6619TIP3   OH219801   1.220   5.542   4.176 -0.8836 -0.0651  0.3099
 6619TIP3    H119802   1.218   5.540   4.272  1.5293 -0.1333  0.4047
 6619TIP3    H219803   1.227   5.450   4.151 -0.1146  0.0399  0.1314
 6620TIP3   OH219804   7.229   7.643   5.431  0.1123  0.0133 -0.3101
 6620TIP3    H119805   7.171   7.596   5.491  0.3180 -1.5086 -1.2570
 6620TIP3    H219806   7.170   7.702   5.384 -0.1600  0.7133  0.8583
 6621TIP3   OH219807   1.626   6.976   5.361  0.0124  0.6642  0.1279
 6621TIP3    H119808   1.625   7.063   5.401 -1.6495  0.1938  1.1995
 6621TIP3    H219809   1.545   6.971   5.310 -0.5829 -0.6950  1.1480
 6622TIP3   OH219810   7.711   2.036   0.250  0.4458 -0.5289  0.3297
 6622TIP3    H119811   7.691   2.004   0.162  0.3331  0.0925  0.1264
 6622TIP3    H219812   7.719   1.957   0.303  1.0004 -0.9308 -0.3390
 6623TIP3   OH219813   2.670   3.149   0.167 -0.3966  0.1142  0.2463
 6623TIP3    H119814   2.718   3.085   0.218 -3.2575 -0.6453  2.2378
 6623TIP3    H219815   2.697   3.134   0.077  1.2655 -1.7886  1.0042
 6624TIP3   OH219816   3.388   1.289   5.937 -0.3518  0.4717  0.1376
 6624TIP3    H119817   3.305   1.319   5.973 -0.6579  0.5021 -0.5843
 6624TIP3    H219818   3.432   1.369   5.906 -0.5707  0.3343 -0.5441
 6625TIP3   OH219819   0.446   3.895   1.582  0.0216 -0.2886 -0.1851
 6625TIP3    H119820   0.413   3.949   1.654 -0.0687  1.1044 -1.2282
 6625TIP3    H219821   0.485   3.819   1.625 -0.0013  0.5178  1.3286
 6626TIP3   OH219822   3.758   1.617   5.094  0.0152 -0.6636  0.0412
 6626TIP3    H119823   3.804   1.567   5.026  0.9505 -0.3471  0.4323
 6626TIP3    H219824   3.669   1.580   5.094 -0.2793 -0.0746 -1.9570
 6627TIP3   OH219825   4.354   3.351   5.220 -0.6578  0.1938 -0.7047
 6627TIP3    H119826   4.306   3.275   5.186  0.8335 -1.3969  0.5762
 6627TIP3    H219827   4.287   3.419   5.229 -2.0222 -0.8963 -2.0410
 6628TIP3   OH219828   6.269   6.962   4.882  0.4721 -0.0211  0.1626
 6628TIP3    H119829   6.335   6.940   4.948  0.0775 -1.1929  0.1833
 6628TIP3    H219830   6.185   6.943   4.924  0.2200 -1.0274 -0.7519
 6629TIP3   OH219831   6.273   2.737   1.481 -0.2615 -0.3550 -0.2741
 6629TIP3    H119832   6.366   2.731   1.499 -0.2274  0.1724 -0.2391
 6629TIP3    H219833   6.233   2.746   1.568 -0.4920 -2.0824 -0.1678
 6630TIP3   OH219834   7.126   1.157   1.091  0.1058  0.2428 -0.4206
 6630TIP3    H119835   7.215   1.163   1.125  0.2252  1.4177 -0.9008
 6630TIP3    H219836   7.137   1.128   1.000 -0.1494 -1.7667  0.1436
 6631TIP3   OH219837   7.958   4.423   3.047 -0.7662  0.0774  0.0373
 6631TIP3    H119838   7.895   4.492   3.025 -1.4254  0.2783  2.3322
 6631TIP3    H219839   7.974   4.433   3.141 -0.0490 -2.2195  0.2378
 6632TIP3   OH219840   8.209   4.391   1.601 -0.6387 -0.4525 -0.0383
 6632TIP3    H119841   8.284   4.437   1.564  0.0071 -0.2984  1.4182
 6632TIP3    H219842   8.188   4.323   1.536  1.5921 -1.3546  0.1035
 6633TIP3   OH219843   4.392   7.452   5.965  0.7369  0.5272  0.6541
 6633TIP3    H119844   4.379   7.451   6.060  1.2777 -0.3557  0.7351
 6633TIP3    H219845   4.482   7.421   5.953  0.4124 -0.1472 -0.1695
 6634TIP3   OH219846   4.719   2.190   3.466 -0.1965  0.0987  1.2211
 6634TIP3    H119847   4.706   2.283   3.482  0.4387  0.1562  1.4100
 6634TIP3    H219848   4.699   2.179   3.373 -0.7561  0.3280  1.3068
 6635TIP3   OH219849   0.657   7.116   1.793 -0.5238 -0.6098 -0.1646
 6635TIP3    H119850   0.692   7.163   1.869 -0.5313 -0.5828 -0.1777
 6635TIP3    H219851   0.587   7.173   1.760 -0.7364 -0.7727  0.0008
 6636TIP3   OH219852   0.002   6.412   2.428  0.6083  0.6144  0.0810
 6636TIP3    H119853  -0.025   6.393   2.518  2.4565 -1.0356  0.3565
 6636TIP3    H219854   0.080   6.466   2.438  0.1802  1.3728 -0.5848
 6637TIP3   OH219855   3.542   2.037   0.770  0.4625  0.4405  0.0024
 6637TIP3    H119856   3.482   2.078   0.833 -1.2454 -0.4903 -0.9594
 6637TIP3    H219857   3.522   2.079   0.687  2.8054  1.7622  0.0251
 6638TIP3   OH219858   2.813  -0.011   4.004 -0.6957  0.3726 -0.2861
 6638TIP3    H119859   2.745  -0.048   4.061  0.1884  0.3069  0.7629
 6638TIP3    H219860   2.778   0.073   3.976  0.3193  2.2239  3.4287
 6639TIP3   OH219861   3.780   2.589   2.884  0.3709  0.7961 -0.3586
 6639TIP3    H119862   3.857   2.617   2.933  1.1108 -2.9836  1.0243
 6639TIP3    H219863   3.809   2.587   2.793  1.5816  0.5579  0.0085
 6640TIP3   OH219864   5.732   1.906   1.689 -0.0968 -0.2014  0.3749
 6640TIP3    H119865   5.808   1.927   1.635 -0.1886 -1.8870 -0.4651
 6640TIP3    H219866   5.768   1.879   1.773  0.3856 -2.5449 -0.5200
 6641TIP3   OH219867   7.769   0.883   0.867  0.1048  0.0155  0.3902
 6641TIP3    H119868   7.813   0.956   0.824  2.2811 -0.3550  1.8126
 6641TIP3    H219869   7.702   0.923   0.921  0.6225  0.8881  0.3984
 6642TIP3   OH219870   5.534   6.190   3.324 -0.2352 -0.1843  0.1441
 6642TIP3    H119871   5.587   6.111   3.330  2.1307  1.3201  0.2169
 6642TIP3    H219872   5.465   6.168   3.261  1.1793 -1.8564 -0.8996
 6643TIP3   OH219873   4.295   7.521   2.408 -0.3303  0.3242  0.5416
 6643TIP3    H119874   4.357   7.480   2.348 -0.4009 -0.2795  0.8777
 6643TIP3    H219875   4.345   7.537   2.488 -0.5707 -0.0425  0.7664
 6644TIP3   OH219876   2.003   5.936   0.817 -0.5814  0.1732  0.4259
 6644TIP3    H119877   2.050   6.018   0.834  0.2565 -0.3617  0.7869
 6644TIP3    H219878   2.002   5.891   0.901 -0.0972 -0.6478  0.0069
 6645TIP3   OH219879   1.516   6.995   5.634  0.5996 -0.6221 -0.5335
 6645TIP3    H119880   1.529   7.087   5.656  1.1870 -0.7545 -0.3364
 6645TIP3    H219881   1.437   6.995   5.579 -0.9420 -0.2896  1.5313
 6646TIP3   OH219882   0.960   5.965   3.605  0.3352  0.3067  0.1052
 6646TIP3    H119883   1.039   5.979   3.553 -0.0717 -1.0018 -0.9165
 6646TIP3    H219884   0.888   5.983   3.545 -0.1549 -1.7375  0.0187
 6647TIP3   OH219885   7.045   4.741   0.194  0.5202 -0.2533 -0.8048
 6647TIP3    H119886   7.130   4.728   0.151  0.5058 -1.1611 -0.5860
 6647TIP3    H219887   7.019   4.653   0.221 -0.4047  0.0467 -0.6993
 6648TIP3   OH219888   6.248   1.219   0.309  0.5101 -0.2129  0.5344
 6648TIP3    H119889   6.342   1.227   0.322  0.8939 -0.3261 -1.7511
 6648TIP3    H219890   6.214   1.197   0.396  2.8824 -2.7648  0.9806
 6649TIP3   OH219891   2.330   7.332   5.711 -0.7308 -0.5589  0.3629
 6649TIP3    H119892   2.375   7.270   5.769  1.1817  0.0165 -0.4058
 6649TIP3    H219893   2.376   7.324   5.627 -0.3263  1.9226  0.2557
 6650TIP3   OH219894   5.393   1.869   4.657  0.1698 -0.3484  0.0718
 6650TIP3    H119895   5.451   1.883   4.583 -0.3343 -1.0182 -0.4702
 6650TIP3    H219896   5.406   1.945   4.714 -0.0962  0.6238 -1.1371
 6651TIP3   OH219897   0.087   6.876   3.489 -0.0430  0.1300  0.5613
 6651TIP3    H119898   0.006   6.827   3.503  0.8023 -1.8410 -0.9079
 6651TIP3    H219899   0.112   6.856   3.399  1.2706  1.9562  0.4689
 6652TIP3   OH219900   5.455   4.922   2.385 -0.8423  0.3008  1.0078
 6652TIP3    H119901   5.390   4.923   2.315  0.5050 -0.1721 -0.2800
 6652TIP3    H219902   5.473   5.015   2.401 -0.6099  0.3945  0.2155
 6653TIP3   OH219903   7.641   6.237   0.797  0.2143 -0.6682 -0.5359
 6653TIP3    H119904   7.648   6.289   0.717 -0.7462  1.1453  0.4751
 6653TIP3    H219905   7.546   6.230   0.813  0.3879 -0.7404  0.5620
 6654TIP3   OH219906   7.888   0.715   2.038  0.2497 -0.2563 -0.7379
 6654TIP3    H119907   7.859   0.646   1.978  1.1753 -0.7833 -0.6035
 6654TIP3    H219908   7.892   0.672   2.123  0.5528  0.0435 -0.5983
 6655TIP3   OH219909   4.572   3.327   0.083  0.7692  0.6699 -0.6698
 6655TIP3    H119910   4.630   3.389   0.038  1.3313  0.8086  0.2286
 6655TIP3    H219911   4.563   3.362   0.172 -2.5111  1.9106 -1.3545
 6656TIP3   OH219912   1.780   5.459   2.851 -0.0933  0.2171  0.1298
 6656TIP3    H119913   1.820   5.543   2.871  0.1715 -0.0306  0.6821
 6656TIP3    H219914   1.699   5.480   2.805  0.7784  0.7188 -1.2310
 6657TIP3   OH219915   6.403   7.803   6.515 -0.1036 -0.0405  0.5009
 6657TIP3    H119916   6.469   7.735   6.501 -0.5619 -0.7809  1.7950
 6657TIP3    H219917   6.335   7.760   6.566 -0.8786  1.1323  0.4865
 6658TIP3   OH219918   8.084   5.263   1.823  0.0616 -0.6339  0.3890
 6658TIP3    H119919   7.997   5.288   1.791 -0.1771 -1.0467  0.6975
 6658TIP3    H219920   8.144   5.294   1.756 -0.2798  0.1381  0.4309
 6659TIP3   OH219921   3.048   0.540   1.719  0.3450  0.4297 -0.6346
 6659TIP3    H119922   3.103   0.462   1.723  0.8439  0.7636 -0.9340
 6659TIP3    H219923   2.958   0.507   1.727  0.5835 -0.1197 -0.1970
 6660TIP3   OH219924   5.747   6.898   0.752  0.1651  0.0873 -0.4113
 6660TIP3    H119925   5.748   6.885   0.847  2.0411  0.1943 -0.3807
 6660TIP3    H219926   5.667   6.948   0.736 -1.3840 -1.8073  0.8047
 6661TIP3   OH219927   0.088   6.484   1.159 -0.2703 -1.1890 -0.2178
 6661TIP3    H119928   0.097   6.444   1.245  0.3474  0.4796  0.5302
 6661TIP3    H219929  -0.007   6.496   1.148 -0.2838  0.0034  0.9429
 6662TIP3   OH219930   0.739   0.044   0.317 -0.0746 -0.3247 -0.0549
 6662TIP3    H119931   0.807   0.100   0.279 -1.3649  0.1180 -1.8552
 6662TIP3    H219932   0.675   0.105   0.354 -0.8601 -0.6181 -0.8944
 6663TIP3   OH219933   1.013   2.557   4.160  0.6491  0.1328  0.2089
 6663TIP3    H119934   1.024   2.474   4.206  2.1285 -0.1579 -0.6133
 6663TIP3    H219935   0.918   2.569   4.156  0.4226 -1.2285  0.8504
 6664TIP3   OH219936   7.470   0.432   5.143 -0.0599 -0.0178 -0.0310
 6664TIP3    H119937   7.564   0.432   5.131  0.0267 -0.7015  0.5549
 6664TIP3    H219938   7.457   0.412   5.236 -0.7536  1.4879  0.2281
 6665TIP3   OH219939   6.811   3.637   0.180  0.0182  0.0788 -0.7772
 6665TIP3    H119940   6.900   3.666   0.200 -0.6802  1.8257  0.0635
 6665TIP3    H219941   6.813   3.614   0.087  1.8320 -2.0446 -0.2948
 6666TIP3   OH219942   3.388   2.325   1.910 -0.4238 -0.6479  0.6427
 6666TIP3    H119943   3.391   2.414   1.875  0.5008 -0.3323  1.4679
 6666TIP3    H219944   3.295   2.304   1.916 -0.6807 -0.9680 -2.5428
 6667TIP3   OH219945   0.211   4.344   4.776  0.2353  0.4907 -0.5116
 6667TIP3    H119946   0.193   4.279   4.708  0.0517  0.4469 -0.4230
 6667TIP3    H219947   0.266   4.297   4.840 -0.0991  0.3493 -0.3266
 6668TIP3   OH219948   7.007   5.752   0.222 -0.0129  0.5022  0.2992
 6668TIP3    H119949   7.015   5.788   0.134  0.1607  1.6465  0.7692
 6668TIP3    H219950   6.991   5.828   0.278 -0.3109 -0.2297  1.2336
 6669TIP3   OH219951   3.743   6.347   0.663  0.1061  0.1649 -0.0652
 6669TIP3    H119952   3.767   6.440   0.653 -0.1057  0.2050 -0.2060
 6669TIP3    H219953   3.670   6.348   0.725  0.7821 -0.0016  0.7629
 6670TIP3   OH219954   8.027   7.175   5.643  0.0354 -0.4481 -0.1119
 6670TIP3    H119955   7.990   7.203   5.726  1.9291  2.3260 -0.0817
 6670TIP3    H219956   8.113   7.139   5.667 -0.2521 -1.5822 -0.7059
 6671TIP3   OH219957   0.947   5.124  -0.009  0.7427  0.1782 -0.5615
 6671TIP3    H119958   0.952   5.031   0.015  0.5610  0.8206  2.4165
 6671TIP3    H219959   1.032   5.160   0.015  0.9719  0.7521 -2.1142
 6672TIP3   OH219960   3.378   7.067   4.485  0.3640 -0.0364  0.0930
 6672TIP3    H119961   3.389   6.973   4.468  0.7045 -0.0502  0.3975
 6672TIP3    H219962   3.335   7.071   4.570 -1.9202  0.0127 -0.9638
 6673TIP3   OH219963   0.874   3.410   3.092 -0.3079  0.8322  0.4930
 6673TIP3    H119964   0.785   3.437   3.069 -0.4393  0.7729  0.9183
 6673TIP3    H219965   0.930   3.459   3.032 -0.7305 -1.1060 -1.6383
 6674TIP3   OH219966   0.884   4.464   5.462 -0.1766  0.4374  0.0418
 6674TIP3    H119967   0.908   4.419   5.381 -0.5989 -0.6416  0.4963
 6674TIP3    H219968   0.906   4.556   5.446  0.3116  0.1429 -1.0669
 6675TIP3   OH219969   0.423   2.712   3.318 -0.3583  0.4652 -0.0659
 6675TIP3    H119970   0.419   2.791   3.265 -0.4893  1.0231  0.7533
 6675TIP3    H219971   0.343   2.714   3.371 -0.1717 -0.0087  0.2434
 6676TIP3   OH219972   7.445   2.933   3.729  0.3177 -0.5585  0.4595
 6676TIP3    H119973   7.396   2.915   3.649  2.4997 -0.3269 -1.0242
 6676TIP3    H219974   7.407   3.013   3.764  0.6676  0.5229 -1.5251
 6677TIP3   OH219975   5.146   6.204   1.770 -0.0481  0.5407  0.4276
 6677TIP3    H119976   5.078   6.137   1.779  0.4008 -0.0048 -0.1530
 6677TIP3    H219977   5.195   6.178   1.692  0.7417  1.0081  0.7600
 6678TIP3   OH219978   0.894   1.953   6.142  0.1469  0.0386  0.3134
 6678TIP3    H119979   0.962   1.979   6.080 -0.1094 -0.7236 -0.2957
 6678TIP3    H219980   0.926   1.871   6.179  0.8683  1.0696  2.0940
 6679TIP3   OH219981   2.881   1.327   1.976 -0.7367  0.5621  0.3459
 6679TIP3    H119982   2.891   1.306   2.068 -0.9299  1.0298  0.4765
 6679TIP3    H219983   2.926   1.411   1.965  2.3534 -1.0885 -0.7199
 6680TIP3   OH219984   3.959   1.205   0.088 -0.0589  0.3970  0.1364
 6680TIP3    H119985   3.925   1.294   0.083  1.8370  1.0955 -1.6090
 6680TIP3    H219986   3.980   1.182  -0.002 -1.2783 -2.1845  0.4156
 6681TIP3   OH219987   1.346   1.339   3.792 -0.6298  0.8473  0.3625
 6681TIP3    H119988   1.396   1.324   3.711 -0.8071  1.3039  0.1625
 6681TIP3    H219989   1.306   1.425   3.779  0.0194  1.3097  1.2951
 6682TIP3   OH219990   2.148   5.173   6.174 -0.2926 -0.4100 -0.1167
 6682TIP3    H119991   2.214   5.184   6.242  0.3204  0.8659 -0.8771
 6682TIP3    H219992   2.193   5.123   6.105 -0.8662 -1.5772  0.3271
 6683TIP3   OH219993   5.219   1.719   3.546 -0.0747 -0.0800  0.0620
 6683TIP3    H119994   5.238   1.767   3.465 -0.6754 -2.7861 -1.8354
 6683TIP3    H219995   5.182   1.784   3.605  1.1077  2.1710 -1.5363
 6684TIP3   OH219996   7.128   0.465   6.257  0.1951  0.9505  0.4657
 6684TIP3    H119997   7.102   0.484   6.167 -1.9619  0.5121  0.9413
 6684TIP3    H219998   7.083   0.531   6.310 -1.1999 -0.7191  1.4733
 6685TIP3   OH219999   6.609   4.481   4.197 -0.0376  0.2390  0.2196
 6685TIP3    H120000   6.604   4.482   4.293  0.5064 -0.7830  0.2727
 6685TIP3    H220001   6.520   4.457   4.169 -0.2864  0.8761  0.4522
 6686TIP3   OH220002   0.981   6.262   2.692 -0.5707 -0.8382  0.3069
 6686TIP3    H120003   1.028   6.257   2.608  0.3985 -0.1427  0.7913
 6686TIP3    H220004   1.032   6.206   2.751 -0.5131 -0.3088  0.7638
 6687TIP3   OH220005   1.021   5.873   6.139  0.1799  0.4080 -0.4234
 6687TIP3    H120006   1.055   5.946   6.086 -1.0594  1.0881 -0.3200
 6687TIP3    H220007   0.938   5.905   6.173  0.5738 -0.3261  1.3046
 6688TIP3   OH220008   6.747   3.676   2.626 -0.2735  1.1843 -0.7373
 6688TIP3    H120009   6.828   3.682   2.575  1.0715  1.5110  1.2975
 6688TIP3    H220010   6.766   3.725   2.706 -2.0923  0.2768  0.3112
 6689TIP3   OH220011   5.868   7.446   1.953  0.0499  0.1486  0.2834
 6689TIP3    H120012   5.879   7.454   1.859  1.8249 -1.6569  0.2741
 6689TIP3    H220013   5.904   7.527   1.989  0.7365  0.2206 -0.5416
 6690TIP3   OH220014   2.895   4.767   2.009  0.5412 -0.1618  0.2292
 6690TIP3    H120015   2.845   4.833   2.056 -0.3893  0.1711 -1.1537
 6690TIP3    H220016   2.979   4.809   1.991  0.6430 -0.0440  0.9623
 6691TIP3   OH220017   4.598   0.238   0.721  0.5614 -0.3593 -0.0055
 6691TIP3    H120018   4.649   0.194   0.789  0.3785 -2.1923 -0.9995
 6691TIP3    H220019   4.550   0.306   0.768 -0.2703 -2.1422  1.9132
 6692TIP3   OH220020   0.207   6.922   1.215  0.3117  0.0010  0.2632
 6692TIP3    H120021   0.198   6.975   1.295  0.7186  0.6388 -0.1052
 6692TIP3    H220022   0.165   6.974   1.147  1.6222  0.3352 -0.3107
 6693TIP3   OH220023   6.579   2.821   4.265  0.6753 -0.6874 -0.3582
 6693TIP3    H120024   6.617   2.742   4.303 -1.2948 -1.7290 -0.4254
 6693TIP3    H220025   6.567   2.880   4.340 -1.6157 -2.0837  0.4940
 6694TIP3   OH220026   0.807   1.325   0.222 -0.3185  0.1781  0.3169
 6694TIP3    H120027   0.754   1.391   0.267 -0.8548  0.6434 -0.9469
 6694TIP3    H220028   0.768   1.319   0.135  1.2252 -0.0632 -0.3792
 6695TIP3   OH220029   7.804   5.105   1.270 -0.3867 -0.1049 -0.1547
 6695TIP3    H120030   7.796   5.200   1.277  0.6082 -0.0929  1.1500
 6695TIP3    H220031   7.729   5.070   1.318 -0.4749  0.0120 -0.2062
 6696TIP3   OH220032   3.805   6.661   4.898  0.0244 -0.2037 -0.4797
 6696TIP3    H120033   3.820   6.567   4.906  2.2043  0.1370  0.2150
 6696TIP3    H220034   3.813   6.679   4.804  2.2687 -0.3827 -0.3710
 6697TIP3   OH220035   0.225   5.142   5.040  0.6122  0.0384  0.4424
 6697TIP3    H120036   0.293   5.189   4.991  2.5092  0.3294  3.1484
 6697TIP3    H220037   0.180   5.211   5.090 -1.1077 -0.2877 -0.5546
 6698TIP3   OH220038   0.651   2.226   5.037 -0.1048 -0.1513  0.0633
 6698TIP3    H120039   0.739   2.265   5.030  0.3398 -0.6412  2.2602
 6698TIP3    H220040   0.665   2.132   5.023 -0.3207 -0.1923  0.1163
 6699TIP3   OH220041   2.284   1.186   0.554 -0.5395 -0.3162 -0.0124
 6699TIP3    H120042   2.325   1.204   0.469  0.6232 -2.1135  0.1007
 6699TIP3    H220043   2.221   1.257   0.566  1.0875  1.4362 -1.1807
 6700TIP3   OH220044   5.589   1.117   4.488  0.2077  0.6614 -0.5417
 6700TIP3    H120045   5.554   1.119   4.399 -1.0424  1.4401 -0.0638
 6700TIP3    H220046   5.666   1.173   4.485 -1.5561  3.2939 -0.5033
 6701TIP3   OH220047   3.009   4.491   1.285 -0.0500 -0.1191  0.0793
 6701TIP3    H120048   2.965   4.558   1.232 -0.1393 -1.3546 -1.4927
 6701TIP3    H220049   3.102   4.499   1.262 -0.1844 -1.2021 -0.9826
 6702TIP3   OH220050   0.808   7.193   5.780 -0.5691  0.4164  0.7539
 6702TIP3    H120051   0.775   7.282   5.792 -1.5398  0.5779 -2.1712
 6702TIP3    H220052   0.781   7.170   5.691  0.8481 -2.3093  0.9306
 6703TIP3   OH220053   4.614   7.263   6.340 -0.0261 -0.1634  0.3351
 6703TIP3    H120054   4.671   7.265   6.416  0.8286 -0.1715 -0.2969
 6703TIP3    H220055   4.654   7.198   6.282 -0.0547  0.6217 -0.5921
 6704TIP3   OH220056   1.767   5.073   2.423  0.2466 -0.3098 -0.0048
 6704TIP3    H120057   1.741   5.131   2.351  0.8442 -0.4198 -0.3126
 6704TIP3    H220058   1.685   5.053   2.468  0.1758  1.9046  0.9763
 6705TIP3   OH220059   4.350   5.071   2.795  0.4280  0.0302  0.6894
 6705TIP3    H120060   4.363   5.069   2.700  0.7832 -0.5203  0.7435
 6705TIP3    H220061   4.438   5.087   2.830  0.1278  1.3373  0.8939
 6706TIP3   OH220062   3.158   2.522   2.188 -0.0147 -0.5119 -0.3042
 6706TIP3    H120063   3.206   2.441   2.169 -1.3910 -1.4112 -0.0835
 6706TIP3    H220064   3.082   2.493   2.239 -1.6035  0.6517 -1.9026
 6707TIP3   OH220065   1.447   2.230   2.340  0.1850 -0.4689 -0.3460
 6707TIP3    H120066   1.386   2.189   2.400  0.3254  0.4689  0.4661
 6707TIP3    H220067   1.474   2.160   2.281 -0.8119 -1.1437 -0.0171
 6708TIP3   OH220068   0.175   2.479   2.026  0.1754 -0.1703  0.0710
 6708TIP3    H120069   0.106   2.421   1.993  0.4366  0.0874 -0.9692
 6708TIP3    H220070   0.226   2.502   1.949 -1.0589  3.0083  0.0650
 6709TIP3   OH220071   7.368   7.655   6.758  1.0180 -0.3115 -0.1204
 6709TIP3    H120072   7.289   7.601   6.752 -0.0867  1.3212 -1.4480
 6709TIP3    H220073   7.371   7.702   6.674  2.4253  0.9876  0.6076
 6710TIP3   OH220074   0.795   1.836   6.435  0.2104  0.4935 -0.0620
 6710TIP3    H120075   0.890   1.822   6.443  0.4071  1.6468 -0.1625
 6710TIP3    H220076   0.784   1.930   6.449 -1.1288  0.1135  1.7042
 6711TIP3   OH220077   7.215   6.682   6.147 -0.1023 -0.5225  0.0929
 6711TIP3    H120078   7.271   6.700   6.222  1.1315 -1.9293 -0.4294
 6711TIP3    H220079   7.181   6.593   6.163 -2.3516  0.3177  0.4523
 6712TIP3   OH220080   1.639   3.350   1.804 -0.0520 -0.1660 -0.0049
 6712TIP3    H120081   1.568   3.412   1.791 -0.9638 -1.4588 -1.5845
 6712TIP3    H220082   1.603   3.266   1.776  1.5253 -1.2083  0.8959
 6713TIP3   OH220083   5.850   0.467   4.659 -0.5437 -0.3496 -0.6632
 6713TIP3    H120084   5.804   0.540   4.617 -1.2323 -0.7303 -0.5699
 6713TIP3    H220085   5.840   0.483   4.753  1.9747  1.1368 -0.5505
 6714TIP3   OH220086   4.909   2.187   4.509 -0.1889  0.9907  0.4385
 6714TIP3    H120087   4.982   2.131   4.484  0.6991  1.7968  1.1587
 6714TIP3    H220088   4.878   2.150   4.592  0.3309  1.4859  0.8608
 6715TIP3   OH220089   1.104   1.666   1.938  0.1990  0.2327  0.4360
 6715TIP3    H120090   1.105   1.661   2.034  1.4405  0.5757  0.4487
 6715TIP3    H220091   1.154   1.744   1.917 -1.2697  0.9846 -0.4702
 6716TIP3   OH220092   3.990   1.613   0.623 -0.0006  0.3962  0.5636
 6716TIP3    H120093   3.933   1.606   0.699  2.1169 -0.2393  2.1845
 6716TIP3    H220094   4.029   1.526   0.615  0.2807  0.6279 -0.9108
 6717TIP3   OH220095   2.236   4.178   1.483  0.0680  0.2420 -0.4623
 6717TIP3    H120096   2.146   4.152   1.501  0.3322 -0.1284  0.3702
 6717TIP3    H220097   2.232   4.273   1.475 -0.1742  0.3944  1.0854
 6718TIP3   OH220098   6.572   1.747   3.350 -0.0550 -0.2184  0.4292
 6718TIP3    H120099   6.620   1.789   3.422 -0.4900 -0.0387  0.6177
 6718TIP3    H220100   6.487   1.792   3.348  0.2615  0.3845 -0.7675
 6719TIP3   OH220101   7.176   5.134   1.621  0.8266 -0.2397 -0.4716
 6719TIP3    H120102   7.101   5.190   1.635 -0.0851 -2.1762  4.0916
 6719TIP3    H220103   7.241   5.191   1.579 -0.6410  3.6996  2.0285
 6720TIP3   OH220104   3.466   3.466   5.557  0.0129  0.2799 -0.1855
 6720TIP3    H120105   3.501   3.407   5.623  1.1054  1.2222  0.1181
 6720TIP3    H220106   3.397   3.515   5.602  0.9667  1.1402  0.3810
 6721TIP3   OH220107   3.675   6.124   4.244 -0.8176  0.3891  0.4918
 6721TIP3    H120108   3.673   6.055   4.178  0.4451  0.4743  0.3326
 6721TIP3    H220109   3.678   6.077   4.327  3.4141 -0.0045  0.3713
 6722TIP3   OH220110   5.316   4.588   1.730 -0.1510 -0.5790  0.1406
 6722TIP3    H120111   5.279   4.650   1.793 -1.1158 -0.9938 -0.0049
 6722TIP3    H220112   5.328   4.639   1.650  0.2447 -0.2741  0.3907
 6723TIP3   OH220113   1.458   3.225   5.613  0.0100  0.5927  0.3631
 6723TIP3    H120114   1.413   3.168   5.676  2.9375 -2.9983 -0.4582
 6723TIP3    H220115   1.446   3.181   5.529  2.2983  1.2318 -0.3585
 6724TIP3   OH220116   1.169   0.549   6.641 -0.7093 -0.0309  0.5467
 6724TIP3    H120117   1.190   0.478   6.580 -2.0491 -1.1128  1.2853
 6724TIP3    H220118   1.196   0.628   6.596  0.1910 -0.9546 -0.6025
 6725TIP3   OH220119   4.969   5.846   5.136  0.1066  0.1358 -0.0436
 6725TIP3    H120120   4.938   5.930   5.168  0.9560  0.9598 -1.3140
 6725TIP3    H220121   5.000   5.801   5.215 -2.4995 -0.0050  1.0034
 6726TIP3   OH220122   2.355   5.306   4.552 -0.0482 -0.1897  0.3703
 6726TIP3    H120123   2.375   5.217   4.520  0.0259 -0.8397  2.1429
 6726TIP3    H220124   2.262   5.303   4.574 -0.2087  0.3990 -0.1996
 6727TIP3   OH220125   2.607   3.191   4.964  0.1027  0.0530  0.6340
 6727TIP3    H120126   2.546   3.265   4.955  0.1888 -0.0981 -1.8168
 6727TIP3    H220127   2.659   3.193   4.884  1.1899 -1.7276  1.2440
 6728TIP3   OH220128   6.831   4.556   0.082  0.6517  0.3589 -0.8080
 6728TIP3    H120129   6.770   4.581   0.012  0.0022  0.2843 -0.2764
 6728TIP3    H220130   6.887   4.490   0.041 -1.5171 -1.8179 -0.5156
 6729TIP3   OH220131   8.085   0.696   0.937  0.5389  0.3746 -0.0884
 6729TIP3    H120132   8.163   0.689   0.992 -0.4204 -0.0280  1.2792
 6729TIP3    H220133   8.012   0.675   0.996 -0.6046  0.7044 -1.3329
 6730TIP3   OH220134   3.859   3.508   1.841 -0.1795 -0.1227 -0.4377
 6730TIP3    H120135   3.898   3.572   1.782  0.4791  0.6342  0.7841
 6730TIP3    H220136   3.873   3.544   1.929  1.6299 -2.6536  0.4161
 6731TIP3   OH220137   8.017   0.121   3.350 -0.3631 -0.3215  0.3022
 6731TIP3    H120138   7.943   0.071   3.316 -2.0284  0.8641  1.9939
 6731TIP3    H220139   8.063   0.060   3.408 -0.0311 -1.0228 -0.6641
 6732TIP3   OH220140   4.599   3.961   6.496 -0.1464 -0.9497  0.4111
 6732TIP3    H120141   4.515   4.000   6.521  0.3696  0.6585 -0.2392
 6732TIP3    H220142   4.638   4.024   6.435  1.8596 -1.2960  1.2419
 6733TIP3   OH220143   7.193   6.095   3.215 -0.4534  0.0940  0.4153
 6733TIP3    H120144   7.238   6.179   3.203  0.2752 -0.1560  1.3062
 6733TIP3    H220145   7.223   6.041   3.142 -1.2590  0.7354 -0.4081
 6734TIP3   OH220146   3.979   1.162   4.910 -0.1220 -0.0033  0.2342
 6734TIP3    H120147   3.941   1.079   4.881  0.4453 -0.1495 -0.0872
 6734TIP3    H220148   3.907   1.205   4.956 -0.5822 -0.4346 -0.0634
 6735TIP3   OH220149   3.465   7.223   3.536 -0.1032 -0.4065  0.1503
 6735TIP3    H120150   3.478   7.197   3.628  2.5032 -1.6088 -0.4548
 6735TIP3    H220151   3.442   7.141   3.491 -1.1675  0.1420 -0.3330
 6736TIP3   OH220152   7.395   0.177   4.312  0.1584  0.2653 -0.1925
 6736TIP3    H120153   7.305   0.204   4.329 -0.3324 -0.3778 -1.5783
 6736TIP3    H220154   7.419   0.224   4.231  0.7870 -0.1683 -0.2692
 6737TIP3   OH220155   0.543   3.557   3.637 -0.0693  0.0513 -0.1526
 6737TIP3    H120156   0.505   3.567   3.724 -1.3508  0.8643 -0.7784
 6737TIP3    H220157   0.559   3.463   3.628 -0.2885 -0.0849  0.7951
 6738TIP3   OH220158   7.582   5.471   5.178 -0.1104 -0.1198  0.1433
 6738TIP3    H120159   7.583   5.501   5.269  2.9515  3.8069 -0.9058
 6738TIP3    H220160   7.651   5.405   5.174 -0.1672 -0.2134  0.6077
 6739TIP3   OH220161   4.283   5.608   0.187 -0.4234 -0.1530  0.5034
 6739TIP3    H120162   4.297   5.649   0.272  1.0372 -1.8477  1.1348
 6739TIP3    H220163   4.187   5.607   0.177 -0.6603 -0.4325  2.3963
 6740TIP3   OH220164   7.025   5.299   5.586  0.2902 -0.2728  0.2605
 6740TIP3    H120165   6.967   5.269   5.515 -1.0219  0.7928  0.8370
 6740TIP3    H220166   7.113   5.281   5.553 -0.2479  0.5930 -1.8669
 6741TIP3   OH220167   3.526   1.558   3.557  0.2275  0.4632 -0.4982
 6741TIP3    H120168   3.486   1.534   3.641 -1.7858 -3.0232 -2.2179
 6741TIP3    H220169   3.613   1.518   3.559  0.8959  1.8985  0.5230
 6742TIP3   OH220170   7.367   6.000   4.894  0.2701  0.2183 -0.1074
 6742TIP3    H120171   7.385   5.935   4.962  0.3433  0.6657  0.3098
 6742TIP3    H220172   7.452   6.040   4.876  0.0515  0.9848  0.4667
 6743TIP3   OH220173   1.096   4.846   2.581 -0.4490  0.2761  0.1654
 6743TIP3    H120174   1.082   4.817   2.491 -0.7570  1.4863 -0.1893
 6743TIP3    H220175   1.189   4.832   2.597 -1.0103 -3.7706  1.0841
 6744TIP3   OH220176   7.236   4.903   6.125  0.0048  0.2060  0.1948
 6744TIP3    H120177   7.268   4.813   6.126  0.1580  0.2220 -1.3255
 6744TIP3    H220178   7.211   4.920   6.216  2.2957 -0.5262  1.0398
 6745TIP3   OH220179   6.678   5.504   4.674 -0.2482  0.2773  0.3941
 6745TIP3    H120180   6.681   5.439   4.744  0.4035  2.5672  2.6712
 6745TIP3    H220181   6.769   5.517   4.650 -0.3843  0.2625 -0.1349
 6746TIP3   OH220182   7.834   2.580   6.244  0.0606 -0.0612  0.2096
 6746TIP3    H120183   7.776   2.628   6.184  0.5459  0.1568 -0.0880
 6746TIP3    H220184   7.830   2.489   6.213 -1.5215 -0.4000  1.2899
 6747TIP3   OH220185   1.818   2.375   3.658  0.4821  0.0010  0.3542
 6747TIP3    H120186   1.821   2.292   3.705  1.5282  0.4222  1.0654
 6747TIP3    H220187   1.908   2.407   3.659  0.1941  0.8901 -0.3751
 6748TIP3   OH220188   7.400   2.751   2.662  0.6889 -0.0875  0.1292
 6748TIP3    H120189   7.436   2.676   2.710  1.6791 -1.2857 -2.3623
 6748TIP3    H220190   7.335   2.713   2.603  1.4972  0.9411 -1.4809
 6749TIP3   OH220191   1.593   6.497   3.283  0.0145  0.3405 -0.1442
 6749TIP3    H120192   1.604   6.586   3.317  1.9839 -0.5864  1.9302
 6749TIP3    H220193   1.633   6.501   3.195  0.6878  1.3653  0.1797
 6750TIP3   OH220194   1.446   3.826   0.353  0.0651 -0.6783 -0.2410
 6750TIP3    H120195   1.499   3.753   0.321  2.2207  0.8669 -0.4316
 6750TIP3    H220196   1.466   3.898   0.293 -2.2379  0.0267 -0.2568
 6751TIP3   OH220197   1.047   7.475   6.640 -0.1924  0.3681 -0.2576
 6751TIP3    H120198   1.140   7.495   6.631  0.0655 -1.3602 -2.3062
 6751TIP3    H220199   1.020   7.448   6.552 -2.4135 -0.0843  0.4957
 6752TIP3   OH220200   7.847   7.431   6.084 -0.2306 -0.1644 -0.1168
 6752TIP3    H120201   7.764   7.406   6.125  0.2537 -0.5516  0.6481
 6752TIP3    H220202   7.912   7.373   6.123  0.6117  0.9818  0.2546
 6753TIP3   OH220203   3.978   6.026   4.389  0.4644 -0.0807 -0.3730
 6753TIP3    H120204   3.901   5.976   4.417  0.9005 -0.1204  0.7865
 6753TIP3    H220205   3.945   6.116   4.381  0.8944  0.5060  3.0687
 6754TIP3   OH220206   4.217   6.418   6.160  0.0228 -0.4833  0.6162
 6754TIP3    H120207   4.261   6.489   6.206  0.1237 -0.3431  0.3061
 6754TIP3    H220208   4.253   6.420   6.071 -0.3111 -0.6238  0.4720
 6755TIP3   OH220209   7.670   6.838   1.853 -0.1113  0.3352 -0.1156
 6755TIP3    H120210   7.650   6.747   1.871 -0.4891  0.5446  0.5546
 6755TIP3    H220211   7.763   6.847   1.873  0.6149 -0.5054 -2.6947
 6756TIP3   OH220212   1.012   0.558   1.329  0.3991 -0.1854 -0.1661
 6756TIP3    H120213   0.993   0.618   1.257 -2.7201  0.3275  0.8992
 6756TIP3    H220214   0.927   0.547   1.373  2.1130 -0.3664  3.4569
 6757TIP3   OH220215   5.156   1.213   4.299 -0.8260 -0.8196  0.3715
 6757TIP3    H120216   5.122   1.169   4.377 -0.2197  1.7197  2.2285
 6757TIP3    H220217   5.251   1.202   4.305 -0.7709 -0.5090  0.0936
 6758TIP3   OH220218   6.276   6.032   6.565  0.3311 -0.7994 -0.2581
 6758TIP3    H120219   6.281   5.986   6.481 -1.9998 -0.0449 -0.8930
 6758TIP3    H220220   6.247   5.966   6.627  1.6045 -1.2470 -0.1003
 6759TIP3   OH220221   4.474   5.136   0.645  0.1441 -0.7421 -0.3231
 6759TIP3    H120222   4.471   5.217   0.695  0.0859  0.2321 -1.8446
 6759TIP3    H220223   4.535   5.154   0.573 -0.2138 -1.9038 -0.9524
 6760TIP3   OH220224   0.824   7.056   6.045 -0.2945  0.3877 -0.1161
 6760TIP3    H120225   0.829   7.095   5.958 -0.9577  1.6211  0.3817
 6760TIP3    H220226   0.775   7.119   6.097 -0.8417 -0.8239  0.8840
 6761TIP3   OH220227   3.990   6.019   3.785 -0.2099 -0.3462 -0.2900
 6761TIP3    H120228   3.997   5.996   3.692  1.9844  0.0840 -0.2880
 6761TIP3    H220229   4.080   6.020   3.816 -0.8927 -0.2911  1.8260
 6762TIP3   OH220230   1.352   6.292   6.344  0.1444  0.6822  0.0437
 6762TIP3    H120231   1.315   6.204   6.337 -1.3870  1.2261  0.8380
 6762TIP3    H220232   1.326   6.335   6.263  0.9757  0.4002 -0.3880
 6763TIP3   OH220233   1.483   2.193   4.417  0.1410 -0.6024  0.2679
 6763TIP3    H120234   1.562   2.234   4.452  0.8784 -1.4497 -0.3739
 6763TIP3    H220235   1.432   2.170   4.495  0.3277  0.3206  0.6752
 6764TIP3   OH220236   5.302   6.108   5.962  0.2725 -0.1681 -0.4258
 6764TIP3    H120237   5.252   6.093   6.041 -1.8115  0.0974 -1.6129
 6764TIP3    H220238   5.298   6.203   5.949  0.2078 -0.2552 -1.0730
 6765TIP3   OH220239   0.122   5.783   2.320  0.3056 -0.4376 -0.7071
 6765TIP3    H120240   0.208   5.810   2.289  1.0771 -2.2517 -0.3016
 6765TIP3    H220241   0.125   5.799   2.415 -0.2765  0.6452 -0.8623
 6766TIP3   OH220242   4.442   3.581   0.319  0.4596  0.3029 -0.8642
 6766TIP3    H120243   4.388   3.620   0.249 -0.2873  0.6290 -0.1294
 6766TIP3    H220244   4.439   3.645   0.390 -0.8496 -1.0713  0.4054
 6767TIP3   OH220245  -0.015   4.335   6.008 -0.4948  0.0640 -0.2408
 6767TIP3    H120246   0.052   4.401   5.997 -0.4519 -0.1272 -1.1673
 6767TIP3    H220247  -0.006   4.278   5.932 -0.7279 -0.8359  0.3792
 6768TIP3   OH220248   7.087   5.355   0.123 -0.1778 -0.3718 -0.3113
 6768TIP3    H120249   7.172   5.391   0.100 -0.3474  0.6399  0.5659
 6768TIP3    H220250   7.104   5.262   0.140  0.3794 -0.6115 -1.9943
 6769TIP3   OH220251   7.956   6.375   1.340  0.3950 -0.7661  0.2748
 6769TIP3    H120252   8.034   6.402   1.389 -0.9175  0.7729  1.5940
 6769TIP3    H220253   7.894   6.447   1.351 -0.7186 -1.2825 -1.9887
 6770TIP3   OH220254   3.742   3.570   1.488  0.1645  0.0215  0.2660
 6770TIP3    H120255   3.788   3.636   1.436  0.2940  0.3992  0.8502
 6770TIP3    H220256   3.662   3.615   1.518  0.0276 -0.2320  0.2822
 6771TIP3   OH220257   2.054   1.891   0.028 -0.2209  0.2782  0.2083
 6771TIP3    H120258   2.102   1.826   0.080 -1.3045 -1.1750 -0.5386
 6771TIP3    H220259   2.063   1.973   0.077  1.9076 -0.2046  0.7536
 6772TIP3   OH220260   4.410   2.388   6.631  0.0439 -0.8182  0.0158
 6772TIP3    H120261   4.372   2.347   6.553 -0.1900  1.2632 -1.0280
 6772TIP3    H220262   4.503   2.397   6.610  0.2338 -1.4540  0.5492
 6773TIP3   OH220263   0.812   0.404   1.475  0.3098 -0.3624 -0.4657
 6773TIP3    H120264   0.799   0.453   1.556 -0.4372  1.4629 -1.6362
 6773TIP3    H220265   0.731   0.353   1.465  1.0278 -1.8166  0.6741
 6774TIP3   OH220266   8.156   7.791   3.518 -0.2008  0.0843 -0.0913
 6774TIP3    H120267   8.069   7.820   3.548  0.5478  0.0538  2.2924
 6774TIP3    H220268   8.208   7.871   3.514 -0.4426  0.1951 -2.1308
 6775TIP3   OH220269   1.911   1.201   1.969  0.9481 -0.4006 -0.0256
 6775TIP3    H120270   1.915   1.285   1.924  0.5974  1.2177  2.7048
 6775TIP3    H220271   1.831   1.159   1.937  0.5735  0.7925 -0.6804
 6776TIP3   OH220272   8.187   4.294   4.597 -0.1882 -0.0476 -0.5145
 6776TIP3    H120273   8.136   4.373   4.583  0.7088  0.3468 -1.7231
 6776TIP3    H220274   8.278   4.320   4.581  0.0766 -1.4006 -1.3887
 6777TIP3   OH220275   3.206   6.006   6.260  0.0329  0.1314 -0.0087
 6777TIP3    H120276   3.113   5.985   6.257  0.1023 -0.1232 -0.4402
 6777TIP3    H220277   3.222   6.058   6.181  0.5751 -1.1687 -0.7796
 6778TIP3   OH220278   8.061   0.852   3.664 -0.2167 -0.1446 -0.4930
 6778TIP3    H120279   8.078   0.943   3.688 -0.4079 -0.0946 -0.5401
 6778TIP3    H220280   8.028   0.812   3.744 -0.6170 -0.0412 -0.6028
 6779TIP3   OH220281   5.493   6.275   2.866  0.0035 -0.4271 -0.3044
 6779TIP3    H120282   5.446   6.243   2.789 -0.9386  1.1775 -0.4613
 6779TIP3    H220283   5.428   6.328   2.913  1.7915  2.5341 -0.9218
 6780TIP3   OH220284   6.112   5.366   3.818 -0.1973  0.3698  0.4331
 6780TIP3    H120285   6.205   5.370   3.798 -0.2027  0.2456  0.3803
 6780TIP3    H220286   6.083   5.457   3.818 -0.7110  0.3167 -2.5500
 6781TIP3   OH220287   1.025   5.438   3.152 -0.2014  0.4545  0.7598
 6781TIP3    H120288   1.023   5.518   3.100 -1.5863 -0.8215 -1.2805
 6781TIP3    H220289   1.118   5.417   3.159  0.0300 -0.0466 -2.5063
 6782TIP3   OH220290   1.945   4.371   3.944 -0.3035 -0.3215 -0.3673
 6782TIP3    H120291   1.963   4.287   3.988 -1.2171 -0.4244 -0.1775
 6782TIP3    H220292   2.025   4.421   3.956 -1.0234  0.3165  2.9079
 6783TIP3   OH220293   5.925   4.261   6.628 -0.5759 -0.2954 -0.5247
 6783TIP3    H120294   5.995   4.327   6.625 -0.3309 -0.5307 -0.0772
 6783TIP3    H220295   5.923   4.232   6.719 -1.3972 -0.1503 -0.4855
 6784TIP3   OH220296   0.425   0.819   4.739 -0.4269 -0.4105 -0.3106
 6784TIP3    H120297   0.376   0.882   4.792 -1.2928 -1.9750  0.8332
 6784TIP3    H220298   0.360   0.785   4.677  0.6423  1.6276 -2.7071
 6785TIP3   OH220299   2.266   1.973   6.157  0.0873  0.1802 -0.3748
 6785TIP3    H120300   2.356   1.984   6.186  0.3120  1.6705 -1.5588
 6785TIP3    H220301   2.254   2.037   6.088 -1.3173 -1.2776 -1.5769
 6786TIP3   OH220302   4.111   6.936   3.967 -0.4172 -0.3014  0.4004
 6786TIP3    H120303   4.183   6.875   3.953  1.0370  1.7816 -2.3263
 6786TIP3    H220304   4.046   6.914   3.900 -1.8767 -1.3911  2.0709
 6787TIP3   OH220305   0.419   5.373   1.034 -0.5323  0.3966 -0.3653
 6787TIP3    H120306   0.379   5.376   0.947 -0.6680 -0.7950 -0.3692
 6787TIP3    H220307   0.505   5.412   1.023 -0.8937  1.0679 -0.8346
 6788TIP3   OH220308   3.409   2.588   4.826  0.2789 -0.2202  0.2612
 6788TIP3    H120309   3.381   2.674   4.795  1.7321 -0.0976 -0.7870
 6788TIP3    H220310   3.480   2.563   4.767  3.6947  0.2810  3.7755
 6789TIP3   OH220311   4.927   1.892   6.489  0.8268  0.0441 -0.0903
 6789TIP3    H120312   4.960   1.802   6.491  0.7064 -0.0012 -0.1169
 6789TIP3    H220313   4.866   1.894   6.415  1.7841  0.4903 -0.8815
 6790TIP3   OH220314   8.211   0.544   1.842 -0.1189 -0.0129 -0.4808
 6790TIP3    H120315   8.244   0.633   1.842 -1.7883  0.6623 -1.8174
 6790TIP3    H220316   8.214   0.517   1.750 -2.6184 -0.1058 -0.6076
 6791TIP3   OH220317   1.145   3.935   4.907 -0.0433  0.3548  0.4412
 6791TIP3    H120318   1.052   3.919   4.923 -0.0108 -0.3883 -0.0237
 6791TIP3    H220319   1.182   3.847   4.893  1.0791  0.4622  2.3555
 6792TIP3   OH220320   0.987   2.793   3.221 -0.3283 -0.5168  0.2141
 6792TIP3    H120321   0.927   2.859   3.255 -1.5114 -0.3723 -1.9410
 6792TIP3    H220322   0.962   2.712   3.265 -1.7600 -0.3394 -0.2364
 6793TIP3   OH220323   3.059   6.053   4.842  0.2893  0.1384 -0.0066
 6793TIP3    H120324   3.077   6.054   4.748 -2.4809 -1.0020 -0.6331
 6793TIP3    H220325   3.139   6.087   4.881  1.9720 -0.3946 -2.6849
 6794TIP3   OH220326   4.781   3.308   3.635 -0.8183  0.2759  0.0308
 6794TIP3    H120327   4.868   3.318   3.599 -0.5780 -1.3644  0.0691
 6794TIP3    H220328   4.788   3.341   3.725 -0.1372 -0.2010  0.1581
 6795TIP3   OH220329   4.160   1.098   5.863 -0.0764 -0.2593 -0.0255
 6795TIP3    H120330   4.142   1.012   5.825  1.1007 -0.9404  0.9097
 6795TIP3    H220331   4.105   1.103   5.941  0.5170 -0.5358  0.4131
 6796TIP3   OH220332   6.903   1.343   0.453 -0.1723 -0.3521 -0.3423
 6796TIP3    H120333   6.986   1.355   0.407  0.0213  1.1010  0.3150
 6796TIP3    H220334   6.880   1.251   0.440  2.3164 -1.2054  0.7284
 6797TIP3   OH220335   0.514   1.681   5.804 -0.5866 -0.0965 -0.2888
 6797TIP3    H120336   0.498   1.612   5.868  0.4328 -0.9986 -0.9644
 6797TIP3    H220337   0.546   1.634   5.726  1.3854  1.2159 -0.3429
 6798TIP3   OH220338   1.995   6.310   1.857 -0.0090 -0.8576 -0.1048
 6798TIP3    H120339   2.043   6.320   1.939 -0.6062  1.2131  0.0396
 6798TIP3    H220340   1.903   6.315   1.882 -0.1887  1.1255 -1.0034
 6799TIP3   OH220341   3.238   7.755   4.610 -0.9421 -0.2745  0.1790
 6799TIP3    H120342   3.215   7.808   4.687 -1.3010 -0.8462  0.4669
 6799TIP3    H220343   3.207   7.667   4.631 -2.3922 -0.1497 -1.2231
 6800TIP3   OH220344   1.453   0.017   1.308 -0.0946  0.1300  0.4971
 6800TIP3    H120345   1.376   0.071   1.324 -0.5048  0.1676 -1.3358
 6800TIP3    H220346   1.515   0.041   1.377 -1.2940  0.9234  1.3237
 6801TIP3   OH220347   0.530   2.934   1.321  0.5060  0.4146  0.5494
 6801TIP3    H120348   0.439   2.911   1.339  0.4149  0.4774  0.1887
 6801TIP3    H220349   0.566   2.961   1.406  0.1911  0.3828  0.6925
 6802TIP3   OH220350   8.311  -0.009   6.162  0.1982 -0.3367 -0.3244
 6802TIP3    H120351   8.348   0.079   6.159  0.8327 -0.6015 -0.4708
 6802TIP3    H220352   8.224   0.000   6.122  0.2871  0.2063 -0.3965
 6803TIP3   OH220353   1.131   4.609   6.305 -0.0598  0.0441 -0.4182
 6803TIP3    H120354   1.173   4.526   6.282 -0.3609 -0.1946 -0.1285
 6803TIP3    H220355   1.116   4.602   6.399 -0.4723  0.2492 -0.4659
 6804TIP3   OH220356   3.790   1.745   4.169  0.3273  0.2334 -0.4930
 6804TIP3    H120357   3.882   1.725   4.184  0.8194  3.3423  1.7067
 6804TIP3    H220358   3.777   1.831   4.210 -3.3375  0.3774 -1.5651
 6805TIP3   OH220359   6.700   2.952   4.063 -0.1821 -0.0017 -0.2590
 6805TIP3    H120360   6.720   2.866   4.025  1.0913 -0.0484  0.4697
 6805TIP3    H220361   6.649   2.931   4.142  0.4123 -0.1197  0.1010
 6806TIP3   OH220362   7.169   3.135   1.319  0.0873  0.2396 -0.5203
 6806TIP3    H120363   7.145   3.123   1.411 -0.3168 -0.3320 -0.6955
 6806TIP3    H220364   7.098   3.095   1.270  1.2463 -1.2465 -1.0582
 6807TIP3   OH220365   7.573   6.298   3.903  0.1293  0.3003  0.0265
 6807TIP3    H120366   7.514   6.370   3.882  0.1669 -0.0276 -1.3073
 6807TIP3    H220367   7.538   6.260   3.983 -0.0714  1.5893  0.5645
 6808TIP3   OH220368   1.516   6.713   4.567  0.0922 -0.1384 -0.1893
 6808TIP3    H120369   1.581   6.782   4.582 -0.8012  0.4320  1.1984
 6808TIP3    H220370   1.444   6.757   4.523 -0.3295 -0.2627  0.3751
 6809TIP3   OH220371   0.407   3.701   2.842  0.2566  0.2876 -0.2533
 6809TIP3    H120372   0.386   3.776   2.897 -1.4289 -0.2671 -0.1005
 6809TIP3    H220373   0.352   3.712   2.764  1.3104  0.1287 -1.0475
 6810TIP3   OH220374   5.704   3.143   2.871  0.2635  0.4067 -0.6895
 6810TIP3    H120375   5.687   3.187   2.787 -0.2950  0.5234 -0.5201
 6810TIP3    H220376   5.735   3.213   2.928 -0.0426  0.4703 -0.5965
 6811TIP3   OH220377   7.612   3.407   6.060 -0.5652 -0.3545  0.7071
 6811TIP3    H120378   7.571   3.350   5.995 -0.8284  0.8189 -0.1766
 6811TIP3    H220379   7.561   3.393   6.140  0.2220 -2.3732  0.9137
 6812TIP3   OH220380   4.581   6.133   5.277 -0.3060  0.2834 -0.0008
 6812TIP3    H120381   4.503   6.147   5.224  0.2041  0.3206 -0.7615
 6812TIP3    H220382   4.548   6.115   5.365 -1.1888 -0.2897 -0.4376
 6813TIP3   OH220383   2.628   6.311   5.650  0.1102  0.3742  0.1134
 6813TIP3    H120384   2.569   6.383   5.630 -0.9772  0.1162  2.0962
 6813TIP3    H220385   2.571   6.243   5.686  1.4531 -0.4174  0.8087
 6814TIP3   OH220386   4.121   4.423   5.893  0.3211  0.5690  0.1227
 6814TIP3    H120387   4.039   4.446   5.851 -0.4196  0.6892  1.5737
 6814TIP3    H220388   4.103   4.342   5.940  1.4681 -0.2287 -0.7525
 6815TIP3   OH220389   2.139   2.080   6.514  0.5111 -0.1005 -0.5027
 6815TIP3    H120390   2.142   2.020   6.589  1.1548 -1.0559 -1.2656
 6815TIP3    H220391   2.108   2.026   6.441 -3.1565  1.4882 -0.3669
 6816TIP3   OH220392   1.620   4.259   1.139 -0.3940  0.4507  0.5262
 6816TIP3    H120393   1.611   4.329   1.074 -1.2561 -0.9169 -0.9118
 6816TIP3    H220394   1.563   4.285   1.211 -0.5694  1.3140  0.0815
 6817TIP3   OH220395   1.434   4.718   2.936 -0.2235  0.6303 -0.2823
 6817TIP3    H120396   1.362   4.696   2.996  0.0928 -0.9243 -0.4321
 6817TIP3    H220397   1.512   4.683   2.978  0.0231 -0.3630 -1.5005
 6818TIP3   OH220398   4.346   5.249   3.344 -0.8800  0.4607 -0.0201
 6818TIP3    H120399   4.275   5.254   3.280 -0.7834  0.9162 -0.0951
 6818TIP3    H220400   4.307   5.203   3.418 -0.9777 -0.1163 -0.4238
 6819TIP3   OH220401   0.531   3.684   3.183  0.5970  0.0675  0.2240
 6819TIP3    H120402   0.600   3.707   3.245 -0.9587 -0.8504  2.4151
 6819TIP3    H220403   0.521   3.589   3.192 -0.0459 -0.0159 -1.0516
 6820TIP3   OH220404   1.467   6.838   6.702 -0.2163 -0.6370 -0.0366
 6820TIP3    H120405   1.557   6.836   6.735  0.3140 -0.6701 -1.4189
 6820TIP3    H220406   1.426   6.912   6.747  0.7309 -0.1464  0.0233
 6821TIP3   OH220407   2.686   1.550   0.814  0.3925  0.1661 -0.0444
 6821TIP3    H120408   2.591   1.558   0.819  0.4355  1.1751 -0.6392
 6821TIP3    H220409   2.702   1.489   0.743  0.2158  2.2871 -2.0106
 6822TIP3   OH220410   5.104   4.441   6.339  0.4177  0.1121 -0.3578
 6822TIP3    H120411   5.034   4.412   6.398  0.1625 -0.5192 -0.9475
 6822TIP3    H220412   5.183   4.397   6.372  0.7654  1.6135  0.9153
 6823TIP3   OH220413   8.058   2.706   3.214 -0.6904 -0.0296 -0.4590
 6823TIP3    H120414   7.986   2.767   3.197 -0.3478  0.8412  1.0261
 6823TIP3    H220415   8.078   2.717   3.307 -0.4686 -2.2991 -0.1770
 6824TIP3   OH220416   1.198   3.987   4.284  0.5676 -0.2725 -0.1484
 6824TIP3    H120417   1.256   4.060   4.267  0.6104 -0.6157 -1.5620
 6824TIP3    H220418   1.112   4.027   4.296  0.7739  0.0838  0.1810
 6825TIP3   OH220419   7.923   4.026   0.982  0.0528  0.1809  0.7232
 6825TIP3    H120420   7.934   3.978   1.064  0.9692  0.9350  1.0633
 6825TIP3    H220421   7.869   4.102   1.007  1.2890  1.0287  0.8984
 6826TIP3   OH220422   3.342   0.332   0.063 -0.2113 -0.0035 -0.2133
 6826TIP3    H120423   3.262   0.371   0.098  0.2882  1.7101 -0.9355
 6826TIP3    H220424   3.399   0.406   0.042  0.9411 -1.1259 -1.2335
 6827TIP3   OH220425   4.657   0.423   4.257 -0.0785 -0.2151 -0.6265
 6827TIP3    H120426   4.659   0.336   4.217  0.0289  0.4018 -2.0257
 6827TIP3    H220427   4.604   0.412   4.336  0.0643 -1.5770 -0.6991
 6828TIP3   OH220428   4.700   3.996   3.584  0.0592 -0.5702  0.1763
 6828TIP3    H120429   4.666   4.050   3.655 -0.3930  0.1110 -0.5432
 6828TIP3    H220430   4.675   4.042   3.504  0.6001 -1.2954 -0.4312
 6829TIP3   OH220431   3.099   5.229   2.621  0.2837  0.6259 -0.1189
 6829TIP3    H120432   3.170   5.285   2.589 -0.6561  1.9597  0.0551
 6829TIP3    H220433   3.084   5.166   2.550  0.6922  1.2135 -0.7386
 6830TIP3   OH220434   1.978   6.197   6.136 -0.4438  0.0490 -0.2579
 6830TIP3    H120435   2.065   6.161   6.117 -0.4535  0.4485 -1.0688
 6830TIP3    H220436   1.980   6.212   6.231 -0.0728 -1.0910 -0.0671
 6831TIP3   OH220437   5.925   5.286   0.026 -0.3599 -0.1061  0.0127
 6831TIP3    H120438   5.989   5.311   0.092 -0.8821 -0.6887  0.7512
 6831TIP3    H220439   5.840   5.296   0.068 -0.8012  0.9763 -1.0634
 6832TIP3   OH220440   1.563   7.090   4.839 -0.6040  0.5546 -0.0230
 6832TIP3    H120441   1.507   7.033   4.893  0.1161  1.5898  1.8968
 6832TIP3    H220442   1.607   7.030   4.779 -0.7894 -0.7737  1.1199
 6833TIP3   OH220443   1.571   6.751   1.854 -0.6355 -0.0688 -0.0440
 6833TIP3    H120444   1.625   6.798   1.918  0.1296 -0.1046 -0.6610
 6833TIP3    H220445   1.626   6.743   1.777 -1.1108 -1.1292 -0.2865
 6834TIP3   OH220446   1.245   5.256   5.337 -0.6491 -0.1447 -0.1896
 6834TIP3    H120447   1.290   5.287   5.258  0.5281 -0.5991  0.2684
 6834TIP3    H220448   1.279   5.167   5.350 -0.1676  0.2263  1.2914
 6835TIP3   OH220449   2.633   0.937   1.949 -0.3603 -0.0042 -0.7070
 6835TIP3    H120450   2.695   0.989   1.898 -0.4524  0.0619 -0.7514
 6835TIP3    H220451   2.679   0.854   1.964  1.3548  1.3521  2.5855
 6836TIP3   OH220452   0.224   0.514   6.368  0.6520 -0.0108  0.3428
 6836TIP3    H120453   0.292   0.470   6.419  1.4558 -1.7228 -2.0747
 6836TIP3    H220454   0.143   0.467   6.392  0.7942  0.0828  1.0243
 6837TIP3   OH220455   1.213   6.373   0.618  0.1199  0.0167  0.2643
 6837TIP3    H120456   1.199   6.347   0.709  1.4721 -0.3739  0.3780
 6837TIP3    H220457   1.178   6.462   0.613  0.9874  0.4457  1.4599
 6838TIP3   OH220458   6.135   3.796   2.690  0.1324  0.0124  0.0203
 6838TIP3    H120459   6.098   3.832   2.609 -0.6556  0.9842  0.7815
 6838TIP3    H220460   6.065   3.743   2.727 -0.1620  0.9765  0.9143
 6839TIP3   OH220461   1.999   2.558   3.878  0.0393 -0.0065  0.4880
 6839TIP3    H120462   1.913   2.600   3.886 -1.1866 -1.8012 -1.7751
 6839TIP3    H220463   2.002   2.496   3.951 -0.9138 -0.3856  0.2257
 6840TIP3   OH220464   5.771   6.213   5.287  0.0519  0.6196 -0.0097
 6840TIP3    H120465   5.817   6.290   5.253  0.0101  0.1701 -1.1387
 6840TIP3    H220466   5.729   6.174   5.210 -0.5260 -0.1309  0.6626
 6841TIP3   OH220467   5.148   5.133   1.463 -0.0032  0.0672  0.2017
 6841TIP3    H120468   5.075   5.188   1.491 -0.6714 -1.1790  0.9968
 6841TIP3    H220469   5.131   5.048   1.503  1.0352 -0.7134 -0.9315
 6842TIP3   OH220470   4.546   6.830   2.531  0.3068 -0.0551 -0.1964
 6842TIP3    H120471   4.615   6.776   2.571  0.1335  1.1331  1.8216
 6842TIP3    H220472   4.499   6.769   2.473  1.6491 -1.4285  0.0745
 6843TIP3   OH220473   5.532   0.193   1.873 -0.3366 -0.0053  0.0168
 6843TIP3    H120474   5.540   0.270   1.818  0.5170 -0.6311 -0.7823
 6843TIP3    H220475   5.452   0.206   1.923  0.4787  2.0109  0.8777
 6844TIP3   OH220476   7.891   4.418   0.718  0.1145 -0.1823 -0.1524
 6844TIP3    H120477   7.933   4.503   0.732 -0.0274 -0.1699  0.2140
 6844TIP3    H220478   7.825   4.435   0.651  0.5320 -0.1512 -0.5612
 6845TIP3   OH220479   1.377   2.614   1.119  0.1945 -0.0563 -0.0364
 6845TIP3    H120480   1.337   2.547   1.064 -0.4031 -1.0291  1.5446
 6845TIP3    H220481   1.459   2.575   1.149 -0.2389 -0.1863  1.0313
 6846TIP3   OH220482   0.492   4.327   4.547 -0.1736  0.2372 -0.3175
 6846TIP3    H120483   0.556   4.390   4.578 -2.0329  1.6584  0.7678
 6846TIP3    H220484   0.483   4.264   4.618  0.5601 -0.4345 -0.7948
 6847TIP3   OH220485   5.340   4.757   1.493  0.4584  0.7621  0.5250
 6847TIP3    H120486   5.267   4.809   1.524 -1.5137 -1.4127 -0.1653
 6847TIP3    H220487   5.391   4.816   1.439 -0.8659  2.3132  0.9078
 6848TIP3   OH220488   0.831   6.593   2.425 -0.1431  0.1284 -0.8548
 6848TIP3    H120489   0.903   6.545   2.464  0.4790  1.6088 -0.0858
 6848TIP3    H220490   0.806   6.658   2.491 -2.8268 -0.9317 -0.7202
 6849TIP3   OH220491   2.580   5.471   4.684  0.0858 -0.3055  0.0040
 6849TIP3    H120492   2.520   5.411   4.640 -1.0488 -0.1508  1.2625
 6849TIP3    H220493   2.531   5.502   4.761  1.8181 -0.2558  1.1456
 6850TIP3   OH220494   7.053   1.867   2.895 -0.0139 -0.1502  0.9095
 6850TIP3    H120495   7.002   1.787   2.897 -0.1865 -0.1085 -0.7190
 6850TIP3    H220496   7.126   1.848   2.836  0.1738  0.7401  0.8319
 6851TIP3   OH220497   4.736   2.318   2.576 -0.1306 -0.3212  0.2167
 6851TIP3    H120498   4.773   2.280   2.497  0.0137 -0.1716  0.2112
 6851TIP3    H220499   4.717   2.409   2.552  0.1778 -0.1970  0.4378
 6852TIP3   OH220500  -0.009   4.192   5.752  0.3295 -0.5741  0.0353
 6852TIP3    H120501   0.078   4.164   5.726 -0.1222 -1.2400 -0.8042
 6852TIP3    H220502  -0.040   4.247   5.680 -0.4736 -1.4770 -0.3346
 6853TIP3   OH220503   1.579   6.490   1.119 -0.2419  0.6636 -0.4754
 6853TIP3    H120504   1.629   6.453   1.192 -1.5561 -0.2558 -0.0077
 6853TIP3    H220505   1.504   6.532   1.161 -0.4402  1.1015 -1.2438
 6854TIP3   OH220506   3.913   5.654   2.926 -0.1970 -0.2782  0.0012
 6854TIP3    H120507   3.845   5.718   2.904 -0.7277 -0.1557  1.7878
 6854TIP3    H220508   3.988   5.707   2.954 -0.3145 -0.4157  0.5942
 6855TIP3   OH220509   6.583   3.051   2.037  0.5141  0.2754 -0.3674
 6855TIP3    H120510   6.585   2.988   1.966  0.3208 -1.0737  0.7745
 6855TIP3    H220511   6.517   3.018   2.097  0.2682  1.6782  0.1880
 6856TIP3   OH220512   7.446   5.663   4.496  0.2082 -0.4977  0.4448
 6856TIP3    H120513   7.439   5.584   4.442 -1.0479  0.4497 -0.8723
 6856TIP3    H220514   7.358   5.674   4.532  0.9581 -0.9561  2.5406
 6857TIP3   OH220515   1.406   7.653   3.292  0.0135  0.1590 -0.2880
 6857TIP3    H120516   1.340   7.714   3.260  0.8783  1.4112  0.2572
 6857TIP3    H220517   1.365   7.611   3.368 -0.7042 -0.2190 -0.8676
 6858TIP3   OH220518   4.028   5.424   2.998 -0.2428  0.3406  0.1077
 6858TIP3    H120519   3.972   5.390   3.068 -0.7763  0.3950 -0.2807
 6858TIP3    H220520   3.977   5.497   2.961 -0.1062  0.1170 -0.5299
 6859TIP3   OH220521   6.366   3.360   4.334  0.6492  0.3288  0.3224
 6859TIP3    H120522   6.445   3.311   4.311  0.4429  0.7119 -1.3332
 6859TIP3    H220523   6.393   3.418   4.406  1.0759 -1.6343  1.8281
 6860TIP3   OH220524   0.941   4.515   2.405  0.8083 -0.4280  0.4721
 6860TIP3    H120525   1.002   4.558   2.345  1.2135 -1.3061  0.2400
 6860TIP3    H220526   0.975   4.426   2.415 -0.7548 -1.1336 -0.1210
 6861TIP3   OH220527   4.901   5.236   4.066 -0.3060  0.1599  0.3716
 6861TIP3    H120528   4.938   5.313   4.110 -0.9652  1.0283 -0.5546
 6861TIP3    H220529   4.807   5.248   4.070 -0.4158 -0.5690  0.1546
 6862TIP3   OH220530   1.308   6.032   2.003  0.1895 -0.2597 -0.2277
 6862TIP3    H120531   1.362   5.954   2.018 -0.5140 -0.7264 -0.0538
 6862TIP3    H220532   1.249   6.007   1.932 -0.0638  0.1019 -0.1511
 6863TIP3   OH220533   5.672   2.547   4.995  0.2839  0.2737  0.0755
 6863TIP3    H120534   5.756   2.582   4.964 -0.5089  0.5466 -1.8744
 6863TIP3    H220535   5.625   2.522   4.916 -1.9409  1.1810  1.0279
 6864TIP3   OH220536   5.138   4.723   4.464  0.1608  0.6560  0.5218
 6864TIP3    H120537   5.156   4.793   4.525 -0.5341  0.8748  0.4805
 6864TIP3    H220538   5.102   4.652   4.517 -0.2631  0.7763  0.4043
 6865TIP3   OH220539   1.295   1.466   0.410 -0.1135  0.1455 -0.6247
 6865TIP3    H120540   1.298   1.494   0.319 -0.5087 -0.5840 -0.8693
 6865TIP3    H220541   1.371   1.408   0.420  0.0398  0.3747 -0.4322
 6866TIP3   OH220542   6.768   0.257   1.292 -0.8183 -0.2816  0.1087
 6866TIP3    H120543   6.850   0.234   1.336 -0.0125 -0.2302 -1.3366
 6866TIP3    H220544   6.746   0.344   1.327  2.8872  2.5290 -3.5586
 6867TIP3   OH220545   7.712   2.769   6.102  0.0134 -0.9057 -0.0185
 6867TIP3    H120546   7.658   2.713   6.046 -1.6661 -0.5361  1.1436
 6867TIP3    H220547   7.716   2.853   6.056 -0.4135 -0.9453 -0.1315
 6868TIP3   OH220548   8.090   0.846   4.127 -0.1694 -0.3305 -0.5203
 6868TIP3    H120549   8.081   0.896   4.046  0.5971  0.5849 -0.0588
 6868TIP3    H220550   8.002   0.848   4.166  0.1850  2.1936  0.3426
 6869TIP3   OH220551   3.753   3.036   0.316 -0.4090 -0.4838  0.3537
 6869TIP3    H120552   3.841   3.000   0.324 -0.2722  0.1980  2.3460
 6869TIP3    H220553   3.767   3.125   0.284 -0.6094 -1.2989 -2.2318
 6870TIP3   OH220554   6.793   1.038   4.896  0.1373  0.7718  0.3220
 6870TIP3    H120555   6.764   0.951   4.921 -0.1401  0.7165 -0.1650
 6870TIP3    H220556   6.855   1.023   4.825  2.1307  0.8383  1.9593
 6871TIP3   OH220557   1.635   4.387   2.371 -0.0122 -0.0185 -0.0015
 6871TIP3    H120558   1.696   4.324   2.333  0.1917  0.1720  0.0030
 6871TIP3    H220559   1.548   4.353   2.351  0.0776  0.3413 -1.0941
 6872TIP3   OH220560   4.633   3.314   4.938  0.3853  0.3700 -0.3766
 6872TIP3    H120561   4.598   3.234   4.899 -2.0217 -0.2445  2.6456
 6872TIP3    H220562   4.628   3.380   4.869 -1.5651 -1.1134 -1.7411
 6873TIP3   OH220563   3.150   1.130   2.950  0.1078  0.0351 -0.2950
 6873TIP3    H120564   3.057   1.148   2.935 -0.3861 -2.3661 -0.4766
 6873TIP3    H220565   3.180   1.204   3.002 -2.0191  0.6414  0.1794
 6874TIP3   OH220566   6.582   7.142   4.711 -0.2118 -0.1927  0.1286
 6874TIP3    H120567   6.615   7.163   4.798  1.6913 -2.2159 -0.0055
 6874TIP3    H220568   6.606   7.050   4.698 -1.5608 -0.3095 -2.0527
 6875TIP3   OH220569   2.668   0.122   6.294  0.3063  0.1971  0.1361
 6875TIP3    H120570   2.573   0.134   6.286  0.2252  0.3987  1.2138
 6875TIP3    H220571   2.677   0.045   6.351  0.8109 -0.6238 -1.0040
 6876TIP3   OH220572   5.584   2.782   2.608 -0.2409  0.4648 -0.3788
 6876TIP3    H120573   5.510   2.768   2.666 -0.8347  1.5000 -0.8525
 6876TIP3    H220574   5.654   2.813   2.665 -0.6478  0.9360 -0.1276
 6877TIP3   OH220575   1.052   6.082   5.969 -0.2352  0.5245  0.1935
 6877TIP3    H120576   1.052   6.044   5.882  0.4119  0.1409  0.3511
 6877TIP3    H220577   0.961   6.105   5.986 -0.5032 -0.2081 -0.2247
 6878TIP3   OH220578   5.559   6.927   5.997 -0.6319 -0.6639 -0.1590
 6878TIP3    H120579   5.487   6.939   6.059 -1.0017 -2.4629 -0.1890
 6878TIP3    H220580   5.567   7.011   5.952 -1.2954  0.2184  1.3333
 6879TIP3   OH220581   4.134   7.728   2.643 -0.2792  0.1136  0.2717
 6879TIP3    H120582   4.044   7.758   2.628 -0.7376 -1.2111  0.2032
 6879TIP3    H220583   4.126   7.633   2.649  0.9224  0.0825  1.7520
 6880TIP3   OH220584   3.481   2.342   5.366  0.0269 -0.0658 -0.0267
 6880TIP3    H120585   3.435   2.423   5.343  0.2704 -0.1907 -0.9967
 6880TIP3    H220586   3.460   2.328   5.459 -0.4313  0.8291  0.0165
 6881TIP3   OH220587   3.033   2.938   1.642  0.0002  0.3505 -0.4393
 6881TIP3    H120588   3.050   3.026   1.676 -0.3647  1.2191 -2.3170
 6881TIP3    H220589   3.022   2.952   1.548 -1.0965 -1.5760 -0.6325
 6882TIP3   OH220590   1.665   3.010   2.428  0.3083 -0.0750 -0.5533
 6882TIP3    H120591   1.613   3.088   2.408 -0.4112 -0.2872  0.3776
 6882TIP3    H220592   1.745   3.020   2.378  1.1774  2.3118  1.1445
 6883TIP3   OH220593   5.012   2.797   6.465 -0.0185  0.0743  0.3759
 6883TIP3    H120594   5.024   2.703   6.452 -3.3928 -0.3540 -0.7351
 6883TIP3    H220595   5.011   2.808   6.560  0.8021 -0.9327  0.5225
 6884TIP3   OH220596   0.699   1.635   2.632 -0.3128  0.1823 -0.2951
 6884TIP3    H120597   0.627   1.610   2.688 -0.6694 -0.5641 -1.0614
 6884TIP3    H220598   0.771   1.575   2.656  0.0705  0.9399  0.4837
 6885TIP3   OH220599   7.715   3.257   0.320 -0.3393  0.2799 -0.0757
 6885TIP3    H120600   7.714   3.169   0.357  0.3226 -0.0971 -0.9046
 6885TIP3    H220601   7.728   3.315   0.395 -1.1574 -0.2910  0.5284
 6886TIP3   OH220602   6.115   1.142   6.486  0.2344  0.3161  0.3907
 6886TIP3    H120603   6.124   1.057   6.444  0.1366  0.5593 -0.1362
 6886TIP3    H220604   6.082   1.123   6.574 -1.6023 -0.0859 -0.3413
 6887TIP3   OH220605   4.667   7.611   4.855 -0.0580  0.5683  0.7747
 6887TIP3    H120606   4.716   7.686   4.888  2.4225  0.7330 -2.7401
 6887TIP3    H220607   4.585   7.648   4.824 -0.2846  1.1990  2.0545
 6888TIP3   OH220608  -0.001   2.196   1.076  0.1455 -0.2674 -0.7267
 6888TIP3    H120609   0.021   2.129   1.140 -0.9330  1.2776  1.3406
 6888TIP3    H220610   0.021   2.156   0.991  0.8504 -2.6600  0.5112
 6889TIP3   OH220611   6.009   7.137   6.491 -0.0700 -0.4727  0.0598
 6889TIP3    H120612   5.950   7.090   6.550  1.1312  0.6288  2.2708
 6889TIP3    H220613   5.990   7.229   6.507 -1.1045 -0.0939 -2.8532
 6890TIP3   OH220614   6.802   0.141   5.901 -0.0637  0.1097  0.4717
 6890TIP3    H120615   6.805   0.200   5.977  1.4978 -0.4251  0.8691
 6890TIP3    H220616   6.805   0.053   5.939  0.1265 -0.1704 -0.1939
 6891TIP3   OH220617   1.300   0.713   4.980  0.4240  0.6030 -0.5599
 6891TIP3    H120618   1.323   0.782   4.917 -1.5723 -0.4362 -2.5643
 6891TIP3    H220619   1.220   0.744   5.022  0.0087 -0.0649 -0.8325
 6892TIP3   OH220620   5.920   4.427   2.294 -0.7104  0.1143 -0.5724
 6892TIP3    H120621   5.978   4.495   2.260  1.7253 -0.3195  2.2848
 6892TIP3    H220622   5.977   4.351   2.305 -2.4743 -1.2030 -0.1043
 6893TIP3   OH220623   0.201   3.542   3.068  0.3159 -0.9587 -0.3924
 6893TIP3    H120624   0.232   3.629   3.091 -0.2696 -0.7417 -0.4027
 6893TIP3    H220625   0.143   3.516   3.140 -0.9422 -0.5778 -1.2338
 6894TIP3   OH220626   4.746   6.928   4.534  0.1858  0.3736 -0.0699
 6894TIP3    H120627   4.768   6.935   4.627 -0.1515  0.9814 -0.0312
 6894TIP3    H220628   4.690   7.004   4.517  2.1341  1.5884 -1.3120
 6895TIP3   OH220629   6.416   4.954   4.421  0.0151 -1.2296 -0.6664
 6895TIP3    H120630   6.351   4.903   4.372 -0.6020 -1.9053  0.7970
 6895TIP3    H220631   6.436   4.901   4.497 -1.2121  0.9927  1.3469
 6896TIP3   OH220632   3.770   0.748   4.627  0.1190 -0.1974  0.2844
 6896TIP3    H120633   3.735   0.810   4.563  2.9024  0.7793 -0.4522
 6896TIP3    H220634   3.787   0.668   4.577  0.9595  0.0900  0.0864
 6897TIP3   OH220635   7.432   5.275   1.837  0.3790  0.5079  0.3717
 6897TIP3    H120636   7.519   5.241   1.857 -0.5721 -2.0525  0.5466
 6897TIP3    H220637   7.434   5.289   1.742  1.3870  1.8407  0.5624
 6898TIP3   OH220638   6.401   3.150   5.982  0.4174  0.3427 -0.5477
 6898TIP3    H120639   6.458   3.118   5.912  3.8139  1.6095  1.3973
 6898TIP3    H220640   6.424   3.097   6.058 -2.4911 -0.3646 -0.0579
 6899TIP3   OH220641   5.841   0.573   1.034 -0.8894  0.2957  0.3329
 6899TIP3    H120642   5.858   0.506   1.100  1.5665 -0.1547 -0.6530
 6899TIP3    H220643   5.896   0.647   1.061  0.1945  0.0782 -1.2129
 6900TIP3   OH220644   4.690   7.778   1.778  0.0591  0.0289  0.2127
 6900TIP3    H120645   4.769   7.729   1.759  0.0688  1.2508 -3.8071
 6900TIP3    H220646   4.619   7.728   1.736 -0.4177  1.5608 -0.9206
 6901TIP3   OH220647   3.086   1.127   1.918  0.4624  0.1608 -0.3096
 6901TIP3    H120648   3.015   1.073   1.953  2.0297 -1.3433  0.6376
 6901TIP3    H220649   3.058   1.217   1.937 -0.7745 -0.4272  0.8483
 6902TIP3   OH220650   3.443   1.426   4.447  0.2069 -0.8408 -0.4254
 6902TIP3    H120651   3.379   1.496   4.435  2.4429  1.5117  0.3482
 6902TIP3    H220652   3.464   1.429   4.541  3.3243  0.3792 -1.0390
 6903TIP3   OH220653   7.858   1.156   0.169  0.4562 -0.3823 -0.5104
 6903TIP3    H120654   7.924   1.089   0.185  0.7025 -0.0101  0.0518
 6903TIP3    H220655   7.776   1.117   0.200  0.8029  0.0430  0.9831
 6904TIP3   OH220656   7.286   1.850   0.213  0.3944 -0.8801  0.1039
 6904TIP3    H120657   7.335   1.915   0.264  1.5167 -0.5445 -1.2917
 6904TIP3    H220658   7.287   1.885   0.124 -2.4022 -0.9066 -0.0239
 6905TIP3   OH220659   5.901   6.582   4.698 -0.6331  0.1881  0.4061
 6905TIP3    H120660   5.976   6.629   4.662 -1.4682  0.4296 -1.0894
 6905TIP3    H220661   5.847   6.561   4.622 -2.0891  0.0322  1.4394
 6906TIP3   OH220662   3.374   2.376   3.468  0.0050 -0.4391 -0.3869
 6906TIP3    H120663   3.466   2.402   3.460 -0.1402  0.4476  0.5471
 6906TIP3    H220664   3.325   2.455   3.449 -0.6080 -1.0469 -1.4450
 6907TIP3   OH220665   0.803   7.524   0.781  0.1439  0.3885 -0.3077
 6907TIP3    H120666   0.836   7.490   0.699 -0.4393 -2.5420  0.5537
 6907TIP3    H220667   0.873   7.508   0.844  0.1302  1.5030  0.0111
 6908TIP3   OH220668   2.550   2.046   4.798  0.0304  0.3021  0.2262
 6908TIP3    H120669   2.598   2.123   4.768  1.1991 -0.4049  0.2451
 6908TIP3    H220670   2.501   2.077   4.874 -1.1256  1.5237 -0.9648
 6909TIP3   OH220671   1.678   4.615   3.018  0.2821 -0.4520  0.0511
 6909TIP3    H120672   1.694   4.580   3.105  0.2756 -0.6665 -0.0312
 6909TIP3    H220673   1.742   4.570   2.962  0.8025  0.2488  0.0711
 6910TIP3   OH220674   2.025   2.357   2.895  0.5353 -0.3525 -0.0106
 6910TIP3    H120675   2.018   2.334   2.988 -3.1616 -0.3702 -0.1498
 6910TIP3    H220676   1.989   2.281   2.849 -1.0610  1.0405 -1.1826
 6911TIP3   OH220677   4.923   3.226   5.501 -0.4808  0.0309  0.0892
 6911TIP3    H120678   4.905   3.160   5.435 -1.0553  0.0491  0.2257
 6911TIP3    H220679   4.863   3.298   5.481 -0.5540  0.0999  0.5371
 6912TIP3   OH220680   2.175   0.935   2.341 -0.0732 -0.8069  0.3510
 6912TIP3    H120681   2.129   0.856   2.369  0.2974 -1.9554 -2.0250
 6912TIP3    H220682   2.107   0.991   2.302  0.0161 -1.0239 -0.1238
 6913TIP3   OH220683   2.340   1.272   4.519 -0.3567 -0.5966 -0.3114
 6913TIP3    H120684   2.321   1.247   4.428  0.9739  0.3035 -0.8649
 6913TIP3    H220685   2.395   1.202   4.552 -0.1563 -0.5189 -0.4767
 6914TIP3   OH220686   6.356   4.693   4.050  0.4908  0.1375 -0.3925
 6914TIP3    H120687   6.368   4.608   4.007  0.0574  0.5589 -1.3955
 6914TIP3    H220688   6.431   4.745   4.021  0.7010  0.1323  0.1377
 6915TIP3   OH220689   1.447   3.949   3.094 -0.1709  0.3287  0.0912
 6915TIP3    H120690   1.441   3.854   3.100 -0.8666  0.3998  0.7118
 6915TIP3    H220691   1.514   3.973   3.158  2.1597  0.0569 -2.1080
 6916TIP3   OH220692   6.446   6.348   2.402 -0.2192 -0.3155  0.6322
 6916TIP3    H120693   6.469   6.363   2.310  0.9335  0.2222  0.9877
 6916TIP3    H220694   6.438   6.436   2.439 -1.3955 -0.5190  0.8929
 6917TIP3   OH220695   0.849   4.313   3.235  0.1253 -0.2107  0.3056
 6917TIP3    H120696   0.806   4.365   3.303  2.2843 -0.6914  2.1783
 6917TIP3    H220697   0.860   4.226   3.274 -1.8197 -1.6705 -2.1043
 6918TIP3   OH220698   7.209   6.122   2.871 -0.1383 -0.0779  0.2151
 6918TIP3    H120699   7.275   6.188   2.850  0.4075 -0.4294  0.7974
 6918TIP3    H220700   7.133   6.173   2.898 -0.4601  0.3583 -1.4000
 6919TIP3   OH220701   3.295   3.861   2.246 -0.4831 -0.1394 -0.1064
 6919TIP3    H120702   3.309   3.786   2.189  2.1483 -0.7226  1.1257
 6919TIP3    H220703   3.365   3.922   2.224  0.1575 -0.0617  1.9196
 6920TIP3   OH220704   1.151   1.423   3.323 -0.7132  0.2994 -0.0695
 6920TIP3    H120705   1.134   1.492   3.260 -0.6289 -0.9985 -1.5767
 6920TIP3    H220706   1.187   1.351   3.272  1.6027 -0.0008  1.8070
 6921TIP3   OH220707   2.428   5.322   2.595 -0.3499 -0.2855 -0.3588
 6921TIP3    H120708   2.499   5.385   2.587  0.3315 -0.7521  1.5550
 6921TIP3    H220709   2.365   5.348   2.528  1.0029  0.9394 -1.2144
 6922TIP3   OH220710   4.018   4.392   2.991  0.0121 -0.2535 -0.0518
 6922TIP3    H120711   3.959   4.318   3.005 -0.7400  0.4954  0.9288
 6922TIP3    H220712   4.085   4.358   2.931 -0.9516 -1.3647 -0.5526
 6923TIP3   OH220713   2.199   5.059   1.953 -0.0482  0.1676  0.5405
 6923TIP3    H120714   2.219   5.084   1.863 -0.5826 -0.3582  0.2754
 6923TIP3    H220715   2.258   4.986   1.972 -1.4318 -1.1685 -0.1324
 6924TIP3   OH220716   1.084   3.378   6.417 -0.4618  0.2664 -0.1710
 6924TIP3    H120717   1.169   3.393   6.459  0.4497 -1.4019 -1.2757
 6924TIP3    H220718   1.076   3.282   6.413 -1.0953  0.3500 -2.5652
 6925TIP3   OH220719   8.198   1.448   5.090  0.1380  0.1453  0.4217
 6925TIP3    H120720   8.292   1.463   5.080 -0.0515  0.6141 -0.7592
 6925TIP3    H220721   8.178   1.380   5.026 -0.1059 -0.9163  1.5894
 6926TIP3   OH220722   4.442   1.500   1.252 -0.1165  0.4044 -0.3060
 6926TIP3    H120723   4.466   1.510   1.344  0.0047 -2.2275  0.0281
 6926TIP3    H220724   4.509   1.548   1.204 -1.4388  3.8184  0.9463
 6927TIP3   OH220725   3.906   7.625   5.352  0.4839  0.0791  0.3424
 6927TIP3    H120726   3.935   7.700   5.404 -0.1204  0.7033 -0.2045
 6927TIP3    H220727   3.873   7.663   5.271 -1.1788 -0.6371  0.6329
 6928TIP3   OH220728   6.840   5.795   3.023 -0.3478  0.0522  0.4479
 6928TIP3    H120729   6.836   5.857   3.095 -0.6630  0.0517  0.4293
 6928TIP3    H220730   6.926   5.810   2.984  0.3524 -0.8194  1.5993
 6929TIP3   OH220731   0.551   7.657   1.782 -0.2638  0.3712  0.5816
 6929TIP3    H120732   0.635   7.611   1.780  0.4758  1.6380  1.3028
 6929TIP3    H220733   0.511   7.637   1.698  0.3246 -1.0359  0.6103
 6930TIP3   OH220734   2.234   4.792   2.050 -0.1023  0.1304 -0.5752
 6930TIP3    H120735   2.150   4.811   2.008 -1.6703  0.1467  2.2333
 6930TIP3    H220736   2.226   4.700   2.077  1.1867 -0.1339 -1.0465
 6931TIP3   OH220737   5.926   1.974   3.937 -0.1423 -0.0933  0.5765
 6931TIP3    H120738   5.921   1.880   3.950 -1.1553  0.2762  3.6433
 6931TIP3    H220739   5.838   2.006   3.954  0.0014  1.3905 -1.1429
 6932TIP3   OH220740   5.031   7.111   0.790 -0.2019 -0.3093  0.3690
 6932TIP3    H120741   4.990   7.099   0.704 -1.1706 -0.9030  0.8985
 6932TIP3    H220742   4.967   7.163   0.839 -0.2172 -1.0285  1.1221
 6933TIP3   OH220743   0.206   6.659   6.207 -0.4439 -0.0772  0.1286
 6933TIP3    H120744   0.249   6.655   6.122 -0.2609 -0.0783  0.2228
 6933TIP3    H220745   0.116   6.686   6.187 -0.1222  0.9563  0.0271
 6934TIP3   OH220746   0.535   7.123   5.507 -0.2069 -0.3877  0.2158
 6934TIP3    H120747   0.523   7.041   5.556  0.9901  0.4759  2.0868
 6934TIP3    H220748   0.471   7.183   5.544 -1.6270 -0.6418 -1.7026
 6935TIP3   OH220749   3.150   6.373   0.842  0.0133 -0.3717 -0.2802
 6935TIP3    H120750   3.123   6.347   0.754 -0.8474 -2.2387  0.5015
 6935TIP3    H220751   3.082   6.434   0.870 -1.1206 -1.7288  0.0231
 6936TIP3   OH220752   2.370   0.079   3.571  0.0086 -0.3460 -0.1701
 6936TIP3    H120753   2.343   0.156   3.522  0.9108 -0.3450 -0.7040
 6936TIP3    H220754   2.385   0.111   3.660 -3.4344 -0.7062  0.6523
 6937TIP3   OH220755   3.238   3.550   6.634  0.2276 -0.2103 -0.2742
 6937TIP3    H120756   3.331   3.552   6.653  0.6335 -0.9217 -2.0410
 6937TIP3    H220757   3.209   3.640   6.646  1.3344  0.2022 -0.6168
 6938TIP3   OH220758   0.250   0.869   2.885 -0.0793  0.3627  0.0881
 6938TIP3    H120759   0.232   0.777   2.901 -0.0492  0.4633  0.7316
 6938TIP3    H220760   0.206   0.915   2.957  0.4417  0.8047  0.1320
 6939TIP3   OH220761   7.216   7.362   0.775 -0.3662  0.3937 -0.5485
 6939TIP3    H120762   7.160   7.439   0.783  0.2995  1.1457 -2.6193
 6939TIP3    H220763   7.302   7.390   0.806 -0.2871  0.2564 -0.6441
 6940TIP3   OH220764   8.071   3.763   1.986 -0.0050  0.1203  0.4047
 6940TIP3    H120765   8.050   3.676   1.952  0.5585  0.2088 -0.1809
 6940TIP3    H220766   7.989   3.812   1.978  0.2504  0.3226 -1.4147
 6941TIP3   OH220767   3.108  -0.000   3.914 -0.0568 -0.1857  0.2937
 6941TIP3    H120768   3.097  -0.038   4.001  1.6342 -1.3487  0.0431
 6941TIP3    H220769   3.024   0.043   3.896 -1.5268 -2.4380  1.2765
 6942TIP3   OH220770   6.928   5.939   6.381  0.5814  0.2073  0.6159
 6942TIP3    H120771   6.954   5.868   6.441  1.7677  0.0214 -0.0830
 6942TIP3    H220772   6.913   6.014   6.438 -0.2242 -0.4738  1.3273
 6943TIP3   OH220773   0.976   5.944   5.728  0.4838  0.0532  0.1150
 6943TIP3    H120774   0.946   6.015   5.670  1.1685  0.0925 -0.1948
 6943TIP3    H220775   0.899   5.887   5.737  0.2579  0.2460 -0.5324
 6944TIP3   OH220776   1.182   6.154   3.341 -0.5222 -0.0120  0.1483
 6944TIP3    H120777   1.253   6.215   3.322  1.0644 -2.3003 -1.8030
 6944TIP3    H220778   1.215   6.101   3.414  0.1646 -1.5124 -1.1874
 6945TIP3   OH220779   6.892   4.934   0.301 -0.5173 -0.3421 -0.1216
 6945TIP3    H120780   6.920   4.973   0.384  1.0275  1.6113 -1.4515
 6945TIP3    H220781   6.957   4.867   0.282 -0.6438 -0.5155  0.0591
 6946TIP3   OH220782   0.254   2.336   0.651  0.4295 -0.5630 -0.0962
 6946TIP3    H120783   0.284   2.262   0.597 -1.6261  0.5984 -3.1289
 6946TIP3    H220784   0.331   2.393   0.657  2.1184 -2.8408  2.4586
 6947TIP3   OH220785   0.623   5.869   5.428  0.7681 -0.0931 -0.2952
 6947TIP3    H120786   0.596   5.778   5.425 -0.9985  0.3892 -0.1836
 6947TIP3    H220787   0.710   5.870   5.388  0.2981 -1.6277 -1.4232
 6948TIP3   OH220788   4.220   4.146   3.569  0.6359  0.6005 -0.3555
 6948TIP3    H120789   4.244   4.146   3.662  0.1902  1.4046 -0.2262
 6948TIP3    H220790   4.283   4.088   3.528  0.0503 -0.8115  0.6502
 6949TIP3   OH220791   2.125   6.422   2.101 -0.2352 -0.6386 -0.1556
 6949TIP3    H120792   2.176   6.500   2.081  0.1640 -0.6638  0.7173
 6949TIP3    H220793   2.160   6.391   2.185 -0.2622 -1.8544 -0.5632
 6950TIP3   OH220794   1.816   4.495   5.712 -0.5736  0.0865 -0.1466
 6950TIP3    H120795   1.757   4.551   5.763 -0.2230  0.5291 -0.2248
 6950TIP3    H220796   1.764   4.467   5.637 -0.7245  0.3780 -0.1518
 6951TIP3   OH220797   1.931   4.245   5.828  0.1146  0.0531  0.4998
 6951TIP3    H120798   1.864   4.235   5.896  2.4365  2.7622  3.4873
 6951TIP3    H220799   1.898   4.316   5.773  0.0010  0.6870  1.3502
 6952TIP3   OH220800   4.862   7.482   3.641  0.4534 -0.1947 -0.4657
 6952TIP3    H120801   4.809   7.407   3.615  1.7063 -1.5196  0.6140
 6952TIP3    H220802   4.799   7.553   3.652 -0.9437 -1.4047 -0.3319
 6953TIP3   OH220803   2.705   3.490   6.131  0.3831  0.1009  0.0169
 6953TIP3    H120804   2.800   3.502   6.142  0.4442 -0.4109  0.0746
 6953TIP3    H220805   2.666   3.564   6.178  0.7462  0.0944  0.3369
 6954TIP3   OH220806   0.882   6.743   5.419 -0.2704  0.2917  0.0745
 6954TIP3    H120807   0.883   6.838   5.430  0.0672  0.3104 -0.1204
 6954TIP3    H220808   0.793   6.718   5.444 -0.9033  0.8631 -1.4397
 6955TIP3   OH220809   1.985   4.712   6.288  0.0420 -0.2116  0.3953
 6955TIP3    H120810   2.045   4.744   6.220  1.5432 -0.8387  1.3923
 6955TIP3    H220811   2.035   4.719   6.369  0.7486 -5.3906  0.7264
 6956TIP3   OH220812   5.268   2.233   1.555  0.0139 -0.2773 -0.3293
 6956TIP3    H120813   5.209   2.160   1.574  1.0816 -1.1649 -0.3640
 6956TIP3    H220814   5.351   2.208   1.595  0.4096  0.9128 -0.3739
 6957TIP3   OH220815   2.475   6.968   1.974 -0.1280  0.5821 -0.5842
 6957TIP3    H120816   2.561   6.927   1.964 -0.1413  0.9986 -3.1113
 6957TIP3    H220817   2.473   6.998   2.065  0.6755 -3.1158  0.8128
 6958TIP3   OH220818   2.046   3.503   5.613 -0.5732  0.0756  0.1004
 6958TIP3    H120819   2.079   3.593   5.614 -1.3895  0.3966  1.5009
 6958TIP3    H220820   2.122   3.450   5.593  0.1003  1.0315  0.0444
 6959TIP3   OH220821   6.655   4.120   5.837 -0.2646 -0.4888  0.3323
 6959TIP3    H120822   6.598   4.054   5.876  1.6409 -2.2239  0.3449
 6959TIP3    H220823   6.743   4.084   5.845  0.8437  1.9326  0.0265
 6960TIP3   OH220824   2.158   7.396   1.658 -0.0504  0.2437 -0.0717
 6960TIP3    H120825   2.247   7.363   1.664  0.2668  1.0376 -0.2247
 6960TIP3    H220826   2.165   7.488   1.683 -0.9230  0.1778  0.4607
 6961TIP3   OH220827   5.142   7.470   6.375 -0.5083 -0.5235  0.1813
 6961TIP3    H120828   5.149   7.525   6.298  3.0352 -1.3260 -0.2577
 6961TIP3    H220829   5.112   7.385   6.341  0.8336 -0.8125 -0.3634
 6962TIP3   OH220830   4.802   2.626   5.528  0.3934  0.0426 -0.4214
 6962TIP3    H120831   4.865   2.590   5.590 -0.5516 -0.4809  0.2742
 6962TIP3    H220832   4.717   2.603   5.565 -0.2233 -1.2571 -2.4723
 6963TIP3   OH220833   0.860   3.428   6.099  0.1109 -0.0747  0.5942
 6963TIP3    H120834   0.862   3.460   6.008  2.6591 -0.9466  0.2601
 6963TIP3    H220835   0.925   3.480   6.144 -0.6432 -0.1350  1.7835
 6964TIP3   OH220836   5.820   1.092   2.547 -0.4598 -0.0200  0.0489
 6964TIP3    H120837   5.915   1.087   2.536 -0.1977  1.1573  1.4888
 6964TIP3    H220838   5.801   1.186   2.543 -1.3601 -0.1392  1.2508
 6965TIP3   OH220839   7.477   0.895   5.944  0.7725  0.2688 -0.0983
 6965TIP3    H120840   7.406   0.880   5.882 -0.4836  1.7507  0.8987
 6965TIP3    H220841   7.484   0.813   5.993  0.5028 -0.2630 -0.9401
 6966TIP3   OH220842   3.362   5.009   1.915 -0.6845 -0.6369  0.0804
 6966TIP3    H120843   3.423   5.064   1.965 -1.5035 -0.2204  0.6405
 6966TIP3    H220844   3.357   5.052   1.829  0.7128 -1.3444 -0.3903
 6967TIP3   OH220845   1.552   0.239   1.095 -0.3726 -0.1409 -0.5904
 6967TIP3    H120846   1.623   0.215   1.035  0.4902 -0.2436  0.4481
 6967TIP3    H220847   1.595   0.251   1.180 -1.4630  0.6857 -0.1299
 6968TIP3   OH220848   5.527   1.054   0.245 -0.1389  0.1005 -0.1234
 6968TIP3    H120849   5.439   1.087   0.264 -2.1887 -4.2719 -0.8332
 6968TIP3    H220850   5.554   1.009   0.324  0.1066 -1.1288 -0.8841
 6969TIP3   OH220851   8.076   5.820   6.195  0.1319  0.6533 -0.4117
 6969TIP3    H120852   8.069   5.914   6.181 -0.5635  0.8548  1.1332
 6969TIP3    H220853   8.027   5.782   6.122  0.4473  1.4722 -1.0693
 6970TIP3   OH220854   7.615   2.992   4.442  0.2317  1.0997  0.3785
 6970TIP3    H120855   7.683   2.925   4.432 -2.2686 -1.6292  0.2277
 6970TIP3    H220856   7.564   2.963   4.518 -1.6161  2.2051 -0.3773
 6971TIP3   OH220857   6.969   5.218   3.192 -0.1707  0.1969 -0.2295
 6971TIP3    H120858   7.015   5.230   3.275 -0.3586 -0.9691  0.0567
 6971TIP3    H220859   6.961   5.307   3.157 -1.4168  0.9047  1.6878
 6972TIP3   OH220860   0.813   7.793   0.565 -0.1689 -0.2810  0.7508
 6972TIP3    H120861   0.842   7.882   0.543  0.4732 -1.1746 -2.5186
 6972TIP3    H220862   0.746   7.806   0.632  1.6860  2.4478  2.3012
 6973TIP3   OH220863   6.240   5.839   0.820 -0.3136  0.1131  0.6798
 6973TIP3    H120864   6.293   5.760   0.816  0.3531  0.5073  1.3045
 6973TIP3    H220865   6.199   5.846   0.734  0.6575 -0.2129  0.1832
 6974TIP3   OH220866   0.974   7.325   0.226  0.1273  0.3389  0.3155
 6974TIP3    H120867   0.925   7.402   0.256  0.4629  1.3067 -1.5133
 6974TIP3    H220868   1.053   7.326   0.280 -0.1698  0.8839  0.7690
 6975TIP3   OH220869   2.250   3.402   4.489  0.0485  0.2600  0.2459
 6975TIP3    H120870   2.188   3.407   4.416 -0.5612 -1.1340  0.6374
 6975TIP3    H220871   2.246   3.311   4.517  3.3638 -0.2727 -0.6154
 6976TIP3   OH220872   5.450   0.941   2.116 -0.4644  0.4797  0.2756
 6976TIP3    H120873   5.525   0.885   2.097 -0.0101  1.3892 -0.6793
 6976TIP3    H220874   5.428   0.981   2.032 -0.9654  1.5128  0.8813
 6977TIP3   OH220875   1.013   7.494   4.993 -0.1069 -0.3056  0.1351
 6977TIP3    H120876   0.940   7.470   5.050  0.5022 -1.1880  0.5646
 6977TIP3    H220877   1.070   7.418   4.994  1.5025  0.8639  0.8623
 6978TIP3   OH220878   8.276   0.387   0.826  0.0695  0.2432  0.3118
 6978TIP3    H120879   8.271   0.450   0.754  0.0562 -0.7950 -0.6093
 6978TIP3    H220880   8.361   0.344   0.815 -0.3563 -0.6194  0.3127
 6979TIP3   OH220881   2.161   3.468   2.722  0.0816  0.3009 -0.0550
 6979TIP3    H120882   2.222   3.513   2.664  1.6057  0.0917  1.2859
 6979TIP3    H220883   2.075   3.503   2.699  1.0203  2.8518 -0.0633
 6980TIP3   OH220884   3.061   7.662   0.629 -0.0206 -0.1136  0.2032
 6980TIP3    H120885   2.997   7.604   0.587 -1.8589  0.3054  2.2452
 6980TIP3    H220886   3.121   7.686   0.558 -2.0353 -0.6305 -1.8119
 6981TIP3   OH220887   0.847   1.823   4.626 -0.0608 -0.0081  0.0026
 6981TIP3    H120888   0.833   1.872   4.708  1.9544 -3.6179  2.8251
 6981TIP3    H220889   0.784   1.751   4.631 -1.5257  0.9205 -2.9714
 6982TIP3   OH220890   6.254   5.771   2.557  0.5261 -0.0361  0.1417
 6982TIP3    H120891   6.165   5.736   2.567  0.8774 -0.8711  0.4590
 6982TIP3    H220892   6.242   5.860   2.524 -0.3810 -0.9402 -2.1063
 6983TIP3   OH220893   0.135   5.703   1.424 -0.2401  0.2878 -0.1294
 6983TIP3    H120894   0.169   5.630   1.373 -2.1734 -0.7628 -0.0156
 6983TIP3    H220895   0.211   5.759   1.440  1.1822 -1.3846 -0.7312
 6984TIP3   OH220896   4.412   2.055   5.119 -0.2067 -0.0554  0.3040
 6984TIP3    H120897   4.333   2.098   5.150 -1.8477 -2.7262  0.1172
 6984TIP3    H220898   4.419   1.975   5.172  1.6217 -0.5494 -0.5781
 6985TIP3   OH220899   1.909   2.279   1.445 -0.0210 -0.5171 -0.1418
 6985TIP3    H120900   1.972   2.219   1.405  0.9785  0.1719  0.3602
 6985TIP3    H220901   1.847   2.221   1.491 -0.4761 -1.2526 -1.6112
 6986TIP3   OH220902   4.689   0.818   6.543  0.3163 -0.5625 -0.1375
 6986TIP3    H120903   4.750   0.891   6.551  1.7663 -1.8289  0.8011
 6986TIP3    H220904   4.629   0.829   6.616 -0.2550  0.3637 -0.7246
 6987TIP3   OH220905   1.165   1.414   1.580  0.2327 -0.4954 -0.0714
 6987TIP3    H120906   1.159   1.391   1.673 -0.9562  1.2657  0.3344
 6987TIP3    H220907   1.238   1.475   1.576 -0.2140  0.0371 -0.1499
 6988TIP3   OH220908   7.893   4.339   3.647 -0.1706 -0.4501  0.2712
 6988TIP3    H120909   7.845   4.280   3.589 -1.1713  2.0210 -1.6112
 6988TIP3    H220910   7.985   4.322   3.628 -0.4101 -1.8496  0.2871
 6989TIP3   OH220911   6.279   5.483   6.014  0.0461 -0.3797  0.2391
 6989TIP3    H120912   6.227   5.476   6.094 -2.2481 -1.7183 -1.2517
 6989TIP3    H220913   6.236   5.553   5.964  0.7068 -0.3907 -0.3585
 6990TIP3   OH220914   1.301   4.631   3.146  0.1144 -0.1784  0.6816
 6990TIP3    H120915   1.288   4.548   3.193  0.7569  0.5697  2.2762
 6990TIP3    H220916   1.300   4.698   3.215  0.9406  1.0082 -0.4067
 6991TIP3   OH220917   7.863   5.261   1.601  0.6217  0.2507  0.2330
 6991TIP3    H120918   7.776   5.226   1.579  0.3441  1.0922 -0.0884
 6991TIP3    H220919   7.851   5.356   1.595  1.5353  0.3733  0.3267
 6992TIP3   OH220920   1.906   1.407   6.388 -0.1245 -0.4846  0.1259
 6992TIP3    H120921   1.941   1.496   6.394  0.4257 -0.6503 -0.5221
 6992TIP3    H220922   1.959   1.365   6.320 -1.3862 -0.8435 -0.6577
 6993TIP3   OH220923   5.050   0.848   2.898 -0.7040 -0.1058 -0.5126
 6993TIP3    H120924   5.133   0.891   2.878 -0.6036 -0.8842 -1.9132
 6993TIP3    H220925   5.074   0.765   2.939 -0.7771 -0.3582 -0.9719
 6994TIP3   OH220926   5.740   6.365   4.084 -0.2133  0.1912  0.4331
 6994TIP3    H120927   5.727   6.385   3.991  0.5661  1.8394  0.6341
 6994TIP3    H220928   5.663   6.314   4.109 -0.2654 -0.5712 -1.1886
 6995TIP3   OH220929   0.637   3.155   6.485  0.1683 -0.6653  0.2529
 6995TIP3    H120930   0.553   3.159   6.530  0.4459 -0.5266  0.7678
 6995TIP3    H220931   0.638   3.069   6.443  0.8667 -1.7989  2.4298
 6996TIP3   OH220932   4.651   5.921   6.256 -0.4616  0.3338  0.0798
 6996TIP3    H120933   4.739   5.947   6.229 -0.5449  0.8484  0.3048
 6996TIP3    H220934   4.620   5.863   6.186 -0.6779  1.6499 -0.9379
 6997TIP3   OH220935   5.703   4.850   0.345  0.3352  0.4491 -0.1008
 6997TIP3    H120936   5.618   4.865   0.386  0.7650  1.0111  0.6153
 6997TIP3    H220937   5.748   4.788   0.402  0.3462  0.0087 -0.5752
 6998TIP3   OH220938   1.387   4.437   3.375 -0.3901  0.0018 -0.3830
 6998TIP3    H120939   1.412   4.382   3.300  0.1784 -1.3663  0.7511
 6998TIP3    H220940   1.308   4.395   3.410  0.7833 -0.9279  1.2784
 6999TIP3   OH220941   2.525   7.490   4.278  0.0304 -0.3538  0.0001
 6999TIP3    H120942   2.564   7.547   4.212 -1.7702  1.4169  0.3713
 6999TIP3    H220943   2.432   7.488   4.256 -0.3107 -1.2228  1.4029
 7000TIP3   OH220944   8.152   4.483   3.527 -0.0731 -0.3021 -0.3572
 7000TIP3    H120945   8.218   4.417   3.547  0.4664  0.0099 -1.0600
 7000TIP3    H220946   8.176   4.559   3.579 -0.4244 -0.4999  0.0975
 7001TIP3   OH220947   6.487   7.532   0.656 -0.6362 -0.0984 -0.2342
 7001TIP3    H120948   6.405   7.495   0.690 -0.4301 -0.4368 -0.1020
 7001TIP3    H220949   6.464   7.566   0.570 -1.2027  0.9000  0.2902
 7002TIP3   OH220950   0.539   2.450   4.502 -0.1779 -0.3287  0.0063
 7002TIP3    H120951   0.580   2.456   4.588 -0.1325 -0.8865  0.0243
 7002TIP3    H220952   0.581   2.375   4.460 -2.2373 -1.8941  0.6100
 7003TIP3   OH220953   4.002   1.526   6.397 -0.2921 -0.0776 -0.7491
 7003TIP3    H120954   4.082   1.518   6.345  0.8327 -0.3254  0.9669
 7003TIP3    H220955   4.020   1.597   6.459 -0.9836 -0.8621  0.3830
 7004TIP3   OH220956   1.146   5.153   3.570 -0.6427 -0.3382 -0.3037
 7004TIP3    H120957   1.122   5.219   3.636  1.7631  0.1448  0.1888
 7004TIP3    H220958   1.070   5.150   3.511 -0.6629  3.3492 -0.7278
 7005TIP3   OH220959   2.079   5.746   1.028 -0.0470  0.3141  0.4140
 7005TIP3    H120960   2.161   5.776   1.069 -0.4915  0.2034  1.4136
 7005TIP3    H220961   2.024   5.719   1.102 -0.2087 -1.6179 -0.3477
 7006TIP3   OH220962   0.094   5.416   6.225  0.0832  0.1412 -0.1907
 7006TIP3    H120963   0.123   5.403   6.135  0.1438  0.0473 -0.1576
 7006TIP3    H220964   0.010   5.463   6.217 -0.1160 -0.2342 -0.3104
 7007TIP3   OH220965   1.649   3.741   6.316  0.3228 -0.3940  0.5642
 7007TIP3    H120966   1.649   3.791   6.235  1.5303  0.2770  0.9591
 7007TIP3    H220967   1.556   3.724   6.333 -0.0892  1.1934  0.0987
 7008TIP3   OH220968   6.839   1.411   1.849 -0.0293  0.3604 -0.0751
 7008TIP3    H120969   6.831   1.504   1.825  0.3659  0.1057 -1.2842
 7008TIP3    H220970   6.874   1.412   1.938  0.4971  1.3755 -0.2771
 7009TIP3   OH220971   3.839   4.611   4.475 -0.7312 -0.1501 -0.5986
 7009TIP3    H120972   3.851   4.658   4.392 -0.1645 -2.9329 -2.2101
 7009TIP3    H220973   3.919   4.559   4.485 -2.1267 -2.3028 -0.0016
 7010TIP3   OH220974   2.867   7.104   5.913 -0.4562  0.0994  0.0558
 7010TIP3    H120975   2.934   7.170   5.929  0.6372 -1.1375  0.8040
 7010TIP3    H220976   2.787   7.141   5.950  0.2040  0.8571  0.7654
 7011TIP3   OH220977   3.232   7.180   3.188  0.0229 -0.7943 -0.5577
 7011TIP3    H120978   3.179   7.248   3.230  0.7020 -1.5006  1.5726
 7011TIP3    H220979   3.310   7.226   3.157 -0.0112 -0.4168 -0.0964
 7012TIP3   OH220980   2.494   7.393   3.910  0.7580  0.8325  0.0234
 7012TIP3    H120981   2.448   7.347   3.981 -0.2108  1.1393 -0.3919
 7012TIP3    H220982   2.455   7.481   3.910  1.3930  1.1170 -0.3005
 7013TIP3   OH220983   0.491   3.014   4.480 -0.3677  0.0161  0.4097
 7013TIP3    H120984   0.436   3.010   4.558  0.2589  0.2508  0.8796
 7013TIP3    H220985   0.545   2.935   4.485 -1.5959 -0.9248 -0.7761
 7014TIP3   OH220986   5.479   1.894   1.618 -0.3978  0.3143  0.0271
 7014TIP3    H120987   5.438   1.841   1.686 -0.4334  0.2065 -0.0785
 7014TIP3    H220988   5.572   1.895   1.642 -0.5690  1.1844  0.6837
 7015TIP3   OH220989   0.925   1.771   5.554 -0.0885 -0.0419  0.6608
 7015TIP3    H120990   0.964   1.732   5.632 -1.3565  0.1778  1.4397
 7015TIP3    H220991   0.977   1.736   5.481  0.5069 -1.0348  1.5241
 7016TIP3   OH220992   0.708   2.131   3.880 -0.3713  0.1837  0.2099
 7016TIP3    H120993   0.769   2.145   3.953 -0.7778  0.7346  0.4448
 7016TIP3    H220994   0.623   2.158   3.913 -0.6112  0.1716 -0.3828
 7017TIP3   OH220995   3.614   2.430   1.065  0.1634 -0.6504  0.3256
 7017TIP3    H120996   3.613   2.518   1.105 -0.2909 -0.2829 -0.4796
 7017TIP3    H220997   3.582   2.444   0.976  1.7437 -1.3531 -0.3890
 7018TIP3   OH220998   8.143   6.175   3.451 -0.3990 -0.1286  0.1180
 7018TIP3    H120999   8.097   6.092   3.434 -0.2738 -0.2783  0.5035
 7018TIP3    H221000   8.080   6.243   3.427 -0.1946 -0.3219 -1.0677
 7019TIP3   OH221001   4.451   6.966   5.015 -0.3503  0.1335  0.1948
 7019TIP3    H121002   4.421   6.985   4.926 -0.3568 -0.3229  0.0998
 7019TIP3    H221003   4.435   6.872   5.027 -1.2278  0.3708  1.0112
 7020TIP3   OH221004   6.833   5.201   0.756 -0.0345 -0.2540 -0.0446
 7020TIP3    H121005   6.864   5.243   0.675  1.0723 -1.0127 -0.0502
 7020TIP3    H221006   6.903   5.218   0.819 -0.8729  0.2913  0.7403
 7021TIP3   OH221007   8.027   2.280   1.063  0.1416 -0.1234  0.2843
 7021TIP3    H121008   8.116   2.262   1.093  0.0317  0.0511  0.7228
 7021TIP3    H221009   8.039   2.344   0.993  0.4083 -0.6337 -0.1478
 7022TIP3   OH221010   0.407   2.467   0.193  0.7923 -0.1757 -0.5147
 7022TIP3    H121011   0.491   2.506   0.217  0.2238 -0.6010  2.5468
 7022TIP3    H221012   0.370   2.528   0.128  2.5010  1.1685 -0.2916
 7023TIP3   OH221013   5.516   5.801   1.845  0.1251  0.2313  0.4328
 7023TIP3    H121014   5.514   5.854   1.766  3.3253  0.1290  0.1178
 7023TIP3    H221015   5.569   5.852   1.906  1.2075 -1.4708  0.9854
 7024TIP3   OH221016   7.047   5.194   0.946 -0.7358 -0.0839 -0.0362
 7024TIP3    H121017   7.035   5.171   1.038  0.4976 -0.9462 -0.0603
 7024TIP3    H221018   7.104   5.125   0.911  0.5247  1.3277 -0.9241
 7025TIP3   OH221019   1.903   0.527   2.538  0.0137  0.3756  0.1597
 7025TIP3    H121020   1.888   0.564   2.625 -1.2402 -0.2201  0.2106
 7025TIP3    H221021   1.820   0.487   2.514  0.9766 -1.4111 -0.3830
 7026TIP3   OH221022   0.753   5.385   4.931  0.6255  0.5555  0.6622
 7026TIP3    H121023   0.683   5.329   4.963  0.8134 -0.0084  0.1115
 7026TIP3    H221024   0.822   5.324   4.905  0.2535  0.9383 -1.3535
 7027TIP3   OH221025   0.077   4.796   4.521  0.0545 -0.4891 -0.3814
 7027TIP3    H121026   0.037   4.764   4.602 -1.6538 -0.0652 -1.0153
 7027TIP3    H221027   0.030   4.877   4.502  1.7930  0.4829 -0.7550
 7028TIP3   OH221028   7.743   1.444   1.386  0.3885 -0.0374  0.1993
 7028TIP3    H121029   7.715   1.534   1.375  0.2635 -0.1457 -0.3894
 7028TIP3    H221030   7.703   1.416   1.469  2.4978  1.2328  1.7608
 7029TIP3   OH221031   3.113   7.295   1.303 -0.7514  0.0862  0.1533
 7029TIP3    H121032   3.204   7.265   1.307 -0.5070  0.7447 -0.3232
 7029TIP3    H221033   3.108   7.364   1.369 -0.7757  0.3706 -0.1421
 7030TIP3   OH221034   5.273   2.212   5.086  0.4766  0.3649  0.2652
 7030TIP3    H121035   5.238   2.184   5.171  0.3833 -0.0124  0.1048
 7030TIP3    H221036   5.198   2.206   5.026  0.9708 -1.1761 -0.2461
 7031TIP3   OH221037   5.050   4.275   1.106  0.2134  0.0116 -0.1639
 7031TIP3    H121038   5.127   4.317   1.067  0.6588 -1.9794 -1.5638
 7031TIP3    H221039   4.983   4.280   1.038 -0.9515  1.6346  1.0033
 7032TIP3   OH221040   0.188   0.435   1.539 -0.4246 -0.2190  0.8497
 7032TIP3    H121041   0.246   0.479   1.475  0.2365  0.7619  2.0803
 7032TIP3    H221042   0.203   0.482   1.621 -0.7576 -1.8747  1.9045
 7033TIP3   OH221043   1.450   4.040   0.186 -0.0778  0.3026 -0.0580
 7033TIP3    H121044   1.531   4.086   0.210 -0.9370  1.7275  0.2067
 7033TIP3    H221045   1.400   4.104   0.136 -0.6656 -0.8753 -1.0224
 7034TIP3   OH221046   3.998   5.614   0.188 -0.2793 -0.1215 -0.6984
 7034TIP3    H121047   3.943   5.587   0.114  1.3813 -3.0533 -0.9849
 7034TIP3    H221048   3.966   5.562   0.262 -1.6897  2.5246  0.7260
 7035TIP3   OH221049   5.296   1.775   5.518  0.2654  0.2499  0.1064
 7035TIP3    H121050   5.282   1.761   5.612  1.1121  0.9078  0.3413
 7035TIP3    H221051   5.224   1.832   5.492  0.1567  0.2539  0.4106
 7036TIP3   OH221052   1.663   5.139   6.028  0.5775 -0.2957  0.3803
 7036TIP3    H121053   1.715   5.089   6.091 -0.4618 -0.1759  1.3676
 7036TIP3    H221054   1.675   5.230   6.055 -2.8112 -0.3885  2.9012
 7037TIP3   OH221055   2.979   5.379   5.291 -0.2874  0.5980 -0.1732
 7037TIP3    H121056   2.974   5.322   5.214 -1.7088  1.7771 -1.0074
 7037TIP3    H221057   3.002   5.320   5.363 -1.1618 -0.9438 -1.0983
 7038TIP3   OH221058   2.594   3.065   0.687  0.1177 -0.0694  0.2285
 7038TIP3    H121059   2.673   3.017   0.662  0.0728 -0.0265  0.0004
 7038TIP3    H221060   2.613   3.156   0.665  0.0191 -0.0529  0.2094
 7039TIP3   OH221061   4.595   2.769   5.770  0.2629  0.0397  0.4342
 7039TIP3    H121062   4.568   2.692   5.721 -1.9590  1.1311 -0.1518
 7039TIP3    H221063   4.535   2.773   5.844  0.5507  1.0496  0.6266
 7040TIP3   OH221064   0.878   5.607   2.953  0.1302 -0.1068 -0.2274
 7040TIP3    H121065   0.856   5.620   2.861 -1.6949 -1.9596 -0.1209
 7040TIP3    H221066   0.802   5.641   3.000  0.5594 -0.2087  0.5542
 7041TIP3   OH221067   2.477   1.959   6.355  0.2008 -0.7365  0.0485
 7041TIP3    H121068   2.439   1.903   6.422 -0.2303 -0.6235 -0.0942
 7041TIP3    H221069   2.530   2.022   6.403  0.4230 -1.0657  0.2320
 7042TIP3   OH221070   7.300   4.358   5.927  0.6620  0.0793  0.0916
 7042TIP3    H121071   7.341   4.285   5.974 -2.2874 -1.8604 -0.0544
 7042TIP3    H221072   7.248   4.316   5.858 -1.0470  2.3184 -0.0917
 7043TIP3   OH221073   2.329   2.527   6.329 -0.0772  0.0263  0.9163
 7043TIP3    H121074   2.298   2.554   6.243  1.9587  1.3411  0.5401
 7043TIP3    H221075   2.268   2.458   6.356 -1.7874  0.7794 -0.7943
 7044TIP3   OH221076   1.729   7.205   2.903  0.4106  0.1216 -0.3033
 7044TIP3    H121077   1.669   7.160   2.963 -1.6889  0.0970 -2.3151
 7044TIP3    H221078   1.725   7.297   2.929  0.1722  0.0013  0.1018
 7045TIP3   OH221079   2.159   2.639   2.618 -0.2697 -0.6124 -0.0274
 7045TIP3    H121080   2.163   2.706   2.686  0.6023 -0.6359 -0.0457
 7045TIP3    H221081   2.085   2.665   2.563 -0.3691 -0.0529  0.3629
 7046TIP3   OH221082   2.074   5.886   2.611  0.2418  0.7035 -0.0400
 7046TIP3    H121083   2.050   5.939   2.687  0.3129 -0.3387  0.7268
 7046TIP3    H221084   1.998   5.831   2.595  0.9025 -0.3594  0.4138
 7047TIP3   OH221085   1.951   1.846   1.487  0.1615 -0.5313  0.0357
 7047TIP3    H121086   2.010   1.817   1.556 -0.3136 -0.1409  0.6185
 7047TIP3    H221087   1.996   1.824   1.405  0.8946 -0.6533  0.4673
 7048TIP3   OH221088   7.399   1.179   4.903 -0.2263 -0.3343  0.1989
 7048TIP3    H121089   7.420   1.272   4.890 -0.1506 -0.2097  1.1624
 7048TIP3    H221090   7.366   1.175   4.993 -1.2888 -1.0543 -0.2058
 7049TIP3   OH221091   7.431   1.453   4.029 -0.0027 -0.5290 -0.1290
 7049TIP3    H121092   7.442   1.459   3.934  0.3589  1.1014 -0.0236
 7049TIP3    H221093   7.337   1.457   4.043 -0.0125  0.3854 -0.3893
 7050TIP3   OH221094   1.859   7.688   1.169  0.1937  0.7337 -0.4359
 7050TIP3    H121095   1.879   7.767   1.219 -2.0050  0.4153  1.0515
 7050TIP3    H221096   1.888   7.616   1.225 -0.3817  0.4296 -0.5205
 7051TIP3   OH221097   0.971   4.374   5.222  0.7300 -0.6368  0.3656
 7051TIP3    H121098   1.045   4.430   5.247  0.5443 -0.6070  0.8566
 7051TIP3    H221099   0.963   4.387   5.127  1.8972 -1.3079  0.1542
 7052TIP3   OH221100   3.513   3.276   6.717  0.0242  0.3690 -0.6628
 7052TIP3    H121101   3.543   3.367   6.711  2.3737 -0.2179  1.0548
 7052TIP3    H221102   3.520   3.243   6.627 -0.0560  1.6095 -1.1520
 7053TIP3   OH221103   6.688   5.386   0.299  0.4875 -0.4385  0.1379
 7053TIP3    H121104   6.733   5.382   0.214  1.3423  2.1269  0.3807
 7053TIP3    H221105   6.753   5.424   0.359 -0.7253 -0.4163  1.4875
 7054TIP3   OH221106   5.893   7.105   5.860  0.1138  0.2095  0.1425
 7054TIP3    H121107   5.977   7.060   5.847  0.1343  0.2549  0.1191
 7054TIP3    H221108   5.858   7.067   5.941  0.4131  0.5831  0.4517
 7055TIP3   OH221109   0.206   1.736   5.574 -0.5817 -0.1074  0.1576
 7055TIP3    H121110   0.259   1.658   5.558 -0.0815  0.3732 -0.6061
 7055TIP3    H221111   0.264   1.795   5.623 -0.7299  0.0452  0.1501
 7056TIP3   OH221112   2.844   0.052   2.759 -0.2399  0.4363 -0.1989
 7056TIP3    H121113   2.757   0.062   2.798  0.8942 -0.1585  2.7620
 7056TIP3    H221114   2.856  -0.043   2.751  0.6723  0.4360  0.8854
 7057TIP3   OH221115   6.555   4.601   4.446  0.0867 -0.2787  0.3641
 7057TIP3    H121116   6.523   4.627   4.533 -1.5565  0.4331 -0.4246
 7057TIP3    H221117   6.648   4.626   4.447 -0.3760  1.6069  1.2108
 7058TIP3   OH221118   7.320   2.589   5.836  0.5892 -0.1421  0.0412
 7058TIP3    H121119   7.325   2.502   5.876  0.5681 -0.5310 -0.7770
 7058TIP3    H221120   7.311   2.571   5.742 -0.2040  0.7315 -0.0617
 7059TIP3   OH221121   6.340   1.503   2.160  0.3665  0.3703 -0.1085
 7059TIP3    H121122   6.291   1.528   2.238  1.4696 -1.0965  1.1490
 7059TIP3    H221123   6.292   1.428   2.124  1.7146 -1.2582  1.2947
 7060TIP3   OH221124   2.415   5.757   6.154 -0.2700  0.6504 -0.0447
 7060TIP3    H121125   2.392   5.814   6.228  2.4111  0.7840  0.7951
 7060TIP3    H221126   2.449   5.678   6.196  0.9728  0.5874 -1.1419
 7061TIP3   OH221127   4.956   2.931   2.757 -0.1723  0.4143  0.0777
 7061TIP3    H121128   5.047   2.948   2.782 -0.3251  0.1973  0.8130
 7061TIP3    H221129   4.936   2.846   2.797 -0.6054  0.3286 -0.3210
 7062TIP3   OH221130   3.669   5.903   1.594 -0.2714  0.0367  0.2943
 7062TIP3    H121131   3.584   5.945   1.607  0.7668  2.3100  0.3018
 7062TIP3    H221132   3.654   5.839   1.525 -1.9860  0.3923  0.2912
 7063TIP3   OH221133   5.534   7.055   5.005  0.7367  0.5165  0.4245
 7063TIP3    H121134   5.516   7.102   5.086 -1.5655  0.1308  0.2152
 7063TIP3    H221135   5.542   6.963   5.030  2.0224  0.6114  0.4307
 7064TIP3   OH221136   2.200   6.400   0.940 -0.1038 -0.1888 -0.5798
 7064TIP3    H121137   2.168   6.490   0.928 -0.6621 -0.5811 -2.4317
 7064TIP3    H221138   2.241   6.400   1.026  0.5838  2.0486 -0.8565
 7065TIP3   OH221139   4.720   5.528   0.459 -0.2817  0.1190  0.1207
 7065TIP3    H121140   4.808   5.565   0.468  0.3938 -1.1796 -0.7851
 7065TIP3    H221141   4.709   5.515   0.365 -0.4452 -1.9718  0.3717
 7066TIP3   OH221142   3.386   1.759   5.640 -0.4129 -0.5227  0.7087
 7066TIP3    H121143   3.382   1.778   5.546 -0.4428 -1.2879  0.5509
 7066TIP3    H221144   3.360   1.841   5.682  0.2342  0.0211  0.0676
 7067TIP3   OH221145   4.227   4.978   0.426  0.3372  0.1785  0.0840
 7067TIP3    H121146   4.300   5.017   0.378  0.7766  1.7457  1.9063
 7067TIP3    H221147   4.170   5.052   0.448  0.0695 -0.4716  1.7619
 7068TIP3   OH221148   4.820   2.571   4.439 -0.0554 -0.1155 -0.4133
 7068TIP3    H121149   4.796   2.507   4.507  0.9956  0.7330  0.8209
 7068TIP3    H221150   4.871   2.637   4.486 -1.2021  1.7112 -1.6153
 7069TIP3   OH221151   2.187   2.571   0.603 -0.2291  0.1536  0.0078
 7069TIP3    H121152   2.270   2.569   0.650  0.8480  3.7103 -1.4202
 7069TIP3    H221153   2.125   2.611   0.664  0.2759  1.5129 -0.3365
 7070TIP3   OH221154   4.336   3.545   4.311 -0.3194  0.5008  0.0215
 7070TIP3    H121155   4.243   3.568   4.306 -0.4576 -0.2166 -1.0792
 7070TIP3    H221156   4.338   3.450   4.322  0.2811  0.5503  0.3982
 7071TIP3   OH221157   3.514   1.628   6.369 -0.0679 -0.3321 -0.4160
 7071TIP3    H121158   3.469   1.699   6.414 -0.0391 -0.6503  0.1315
 7071TIP3    H221159   3.444   1.565   6.348 -0.2569  0.3153 -1.8273
 7072TIP3   OH221160   0.568   1.371   1.737  0.0067  0.1025  0.1104
 7072TIP3    H121161   0.652   1.395   1.774  0.7159  0.2615 -1.5045
 7072TIP3    H221162   0.532   1.452   1.703  0.5387 -0.3788 -1.7250
 7073TIP3   OH221163   2.979   1.505   1.716  0.3008 -0.1336  0.2487
 7073TIP3    H121164   3.042   1.514   1.787 -0.0575 -0.9337  0.6805
 7073TIP3    H221165   3.032   1.482   1.640  0.4669 -2.0836  0.8812
 7074TIP3   OH221166   0.897   2.056   4.448 -0.2621  0.1103  0.0465
 7074TIP3    H121167   0.920   1.996   4.519 -0.3131 -1.0423 -0.8684
 7074TIP3    H221168   0.851   2.001   4.384  0.7447  0.8383 -1.3761
 7075TIP3   OH221169   4.720   6.384   0.228  0.0092  0.7198 -0.4789
 7075TIP3    H121170   4.756   6.441   0.296  0.8858  2.2859 -2.1693
 7075TIP3    H221171   4.793   6.370   0.168 -0.0055 -2.7174  0.1187
 7076TIP3   OH221172   3.442   4.470   3.967  0.0313 -0.5525  0.4020
 7076TIP3    H121173   3.347   4.481   3.974  0.1132 -0.3379  1.2573
 7076TIP3    H221174   3.454   4.384   3.925 -0.5295 -1.1446  1.4258
 7077TIP3   OH221175   8.202   1.373   2.009  0.4588 -0.3143  0.0420
 7077TIP3    H121176   8.171   1.392   2.097 -0.6028 -0.4950 -0.2813
 7077TIP3    H221177   8.294   1.399   2.010  0.6078 -0.8364  1.3617
 7078TIP3   OH221178   7.820   1.745   6.095 -0.3471 -0.3019 -0.6125
 7078TIP3    H121179   7.899   1.800   6.093  3.2090 -4.7386  1.2209
 7078TIP3    H221180   7.811   1.712   6.006  0.3432 -0.3019 -0.6894
 7079TIP3   OH221181   0.232   2.437   3.907 -0.2071  0.1318 -0.0917
 7079TIP3    H121182   0.240   2.444   4.002  0.3699 -0.0302 -0.1202
 7079TIP3    H221183   0.138   2.434   3.890 -0.3110 -0.7414  0.5523
 7080TIP3   OH221184   4.821   0.846   3.038  0.3479 -0.2105  0.2701
 7080TIP3    H121185   4.855   0.856   3.127 -0.3604 -0.5543  0.5878
 7080TIP3    H221186   4.897   0.861   2.982  0.9900 -0.7867  0.9543
 7081TIP3   OH221187   3.982   4.542   4.826 -0.1648  0.5749 -0.2833
 7081TIP3    H121188   3.956   4.459   4.786 -0.3665  0.2395  0.5315
 7081TIP3    H221189   3.986   4.603   4.752 -2.1571  0.3796 -0.6037
 7082TIP3   OH221190   3.155   2.121   5.560 -0.1872  0.0239  0.3834
 7082TIP3    H121191   3.201   2.072   5.628 -1.3032  1.0230  1.9098
 7082TIP3    H221192   3.172   2.213   5.581  0.3452  0.3552 -1.3463
 7083TIP3   OH221193   3.665   7.135   4.794 -0.1510  0.5957 -0.4075
 7083TIP3    H121194   3.705   7.083   4.724 -1.5645  0.0367 -0.8321
 7083TIP3    H221195   3.611   7.073   4.842  1.7673  0.6522  2.0622
 7084TIP3   OH221196   2.005   4.265   5.504  0.2236 -0.0012 -0.2676
 7084TIP3    H121197   1.911   4.246   5.501  0.0863  0.5700  0.0984
 7084TIP3    H221198   2.043   4.209   5.438 -0.4141 -0.0527 -0.6023
 7085TIP3   OH221199   7.436   0.192   0.472 -0.0065  0.4533 -0.6740
 7085TIP3    H121200   7.472   0.237   0.396 -0.1179  0.8839 -0.4727
 7085TIP3    H221201   7.474   0.238   0.547 -0.7122  0.6976 -0.4613
 7086TIP3   OH221202   3.171   0.845   3.723 -0.0233 -0.0287 -0.0706
 7086TIP3    H121203   3.143   0.753   3.724  2.4700 -0.8606  1.2890
 7086TIP3    H221204   3.253   0.844   3.673  0.3253  1.3386  0.4478
 7087TIP3   OH221205   0.332   7.040   3.935 -0.3659 -0.2866  0.6610
 7087TIP3    H121206   0.268   7.008   3.871 -0.6750  2.0967 -0.3224
 7087TIP3    H221207   0.279   7.065   4.011 -0.6906  1.8506 -0.2193
 7088TIP3   OH221208   6.921   5.253   4.290 -0.2751  0.2570 -0.1935
 7088TIP3    H121209   6.907   5.286   4.379  0.0012  0.1118 -0.0930
 7088TIP3    H221210   6.921   5.157   4.301 -3.5075  0.0863 -0.8325
 7089TIP3   OH221211   3.485   4.421   4.447 -0.2555 -0.4756 -0.0533
 7089TIP3    H121212   3.551   4.356   4.469  0.4371  0.9083  2.2889
 7089TIP3    H221213   3.534   4.492   4.405 -0.0108  0.8894  2.3621
 7090TIP3   OH221214   0.139   1.483   0.849 -0.1848 -0.4949  0.2344
 7090TIP3    H121215   0.118   1.543   0.922  0.2217 -0.9155  0.7040
 7090TIP3    H221216   0.234   1.479   0.848 -0.1763 -0.2027 -0.5708
 7091TIP3   OH221217   0.241   6.155   0.973  0.1490 -0.5571 -0.6655
 7091TIP3    H121218   0.319   6.190   1.015  0.0395  0.1514 -1.0459
 7091TIP3    H221219   0.263   6.151   0.880 -1.0788  1.9356 -1.1257
 7092TIP3   OH221220   3.566   2.424   4.652  0.1953 -0.0686  0.0795
 7092TIP3    H121221   3.626   2.431   4.577  1.2155  0.6594  0.9464
 7092TIP3    H221222   3.603   2.353   4.705 -1.9295 -2.4122 -1.2915
 7093TIP3   OH221223   0.747   3.255   5.604 -0.3383 -0.4223 -0.5570
 7093TIP3    H121224   0.663   3.226   5.641 -0.8962  0.3749 -1.1756
 7093TIP3    H221225   0.752   3.210   5.520  0.7207 -1.8748  0.2249
 7094TIP3   OH221226   8.294   0.017   0.058 -0.5418  0.3190 -0.0529
 7094TIP3    H121227   8.274   0.041  -0.033  1.7979  1.2055 -0.3930
 7094TIP3    H221228   8.355  -0.056   0.050 -1.6947 -0.8027  0.8871
 7095TIP3   OH221229   1.724   6.912   4.418  0.0480  0.5849  0.6951
 7095TIP3    H121230   1.744   7.005   4.415  0.5137  0.4905  0.8275
 7095TIP3    H221231   1.739   6.887   4.510  0.0769  0.3468  0.6269
 7096TIP3   OH221232   2.281   0.212   4.598 -0.7612 -0.5745  0.2035
 7096TIP3    H121233   2.213   0.146   4.613 -0.6684 -0.3856  1.6442
 7096TIP3    H221234   2.326   0.219   4.683 -0.2013  0.6969 -0.1766
 7097TIP3   OH221235   6.993   4.961   2.385  0.2077 -0.1200 -0.6825
 7097TIP3    H121236   7.025   5.007   2.462  2.2255 -1.5564 -0.5809
 7097TIP3    H221237   7.016   5.017   2.311  1.9119 -0.5379 -0.5065
 7098TIP3   OH221238   5.460   5.211   1.415  0.2886 -1.1142  0.0654
 7098TIP3    H121239   5.505   5.131   1.390  0.8401 -1.3007  1.5595
 7098TIP3    H221240   5.379   5.182   1.457  0.5780 -0.9056  0.7765
 7099TIP3   OH221241   7.274   7.181   0.367 -0.0583  0.5074 -0.2906
 7099TIP3    H121242   7.339   7.201   0.435 -1.2155  0.4857  0.8412
 7099TIP3    H221243   7.290   7.089   0.345 -0.2720  0.2398  0.6241
 7100TIP3   OH221244   5.558   2.583   3.154  0.1728  0.9731 -0.6860
 7100TIP3    H121245   5.508   2.526   3.212 -0.2448  1.4702 -0.5482
 7100TIP3    H221246   5.538   2.551   3.066 -1.1057  1.7199 -0.6860
 7101TIP3   OH221247   2.880   7.295   4.544 -0.5811  0.3442  0.5303
 7101TIP3    H121248   2.865   7.207   4.577 -0.8639  0.4613  0.7217
 7101TIP3    H221249   2.820   7.303   4.470 -0.0766  0.1443  0.0973
 7102TIP3   OH221250   4.270   0.752   1.566  0.1853  0.1168  0.0434
 7102TIP3    H121251   4.276   0.783   1.476  0.1910  2.7046  0.8391
 7102TIP3    H221252   4.356   0.771   1.603 -1.1838  3.9372  1.8618
 7103TIP3   OH221253   0.613   5.225   3.184 -0.0542  0.4430 -0.2721
 7103TIP3    H121254   0.574   5.312   3.192  0.1342  0.5184 -0.1604
 7103TIP3    H221255   0.539   5.167   3.166 -0.2068  0.5942 -0.1409
 7104TIP3   OH221256   4.033   2.439   2.467 -0.2589  0.8403  0.0135
 7104TIP3    H121257   4.056   2.499   2.396  1.3557 -1.1511 -1.2219
 7104TIP3    H221258   4.116   2.420   2.510 -0.8912  0.2271  1.0073
 7105TIP3   OH221259   0.668   3.859   0.090  0.1379  0.6108  0.2245
 7105TIP3    H121260   0.691   3.950   0.074  1.1080  0.6630  1.6904
 7105TIP3    H221261   0.717   3.835   0.169 -1.0077 -0.8310  0.5556
 7106TIP3   OH221262   5.841   5.602   0.139 -0.0771 -0.5937 -0.8703
 7106TIP3    H121263   5.936   5.599   0.127 -0.0272 -1.6667 -0.3646
 7106TIP3    H221264   5.818   5.512   0.162 -1.2647 -0.4088 -1.3091
 7107TIP3   OH221265   3.304   1.902   6.736 -0.0279  0.0972 -0.5755
 7107TIP3    H121266   3.208   1.909   6.735 -0.1010 -0.7472  0.0755
 7107TIP3    H221267   3.322   1.827   6.792  1.0458  0.6009 -0.2269
 7108TIP3   OH221268   4.483   2.608   1.883 -0.1310  0.5910 -0.2889
 7108TIP3    H121269   4.578   2.612   1.894 -0.0285 -2.9080  1.3174
 7108TIP3    H221270   4.470   2.542   1.815 -1.4459  0.3588  0.1690
 7109TIP3   OH221271   5.682   1.877   6.470 -0.2608 -0.0552  0.1756
 7109TIP3    H121272   5.727   1.905   6.391 -0.2545  1.1697  0.5864
 7109TIP3    H221273   5.635   1.955   6.499 -0.8775 -0.7040  0.9573
 7110TIP3   OH221274   4.656   1.959   0.910 -0.2874  0.8535  0.2805
 7110TIP3    H121275   4.577   1.919   0.875  0.9198 -2.0207  0.5249
 7110TIP3    H221276   4.637   1.973   1.003 -0.6867  0.7124  0.2214
 7111TIP3   OH221277   6.856   5.830   2.410  0.1732 -0.4721 -0.1718
 7111TIP3    H121278   6.873   5.776   2.332  2.0774 -0.2027  0.0064
 7111TIP3    H221279   6.785   5.888   2.384 -0.0708 -1.2298 -1.2793
 7112TIP3   OH221280   3.324   5.389   2.658  0.2289 -0.2896 -1.0613
 7112TIP3    H121281   3.302   5.430   2.742 -0.5874  1.6299 -2.1327
 7112TIP3    H221282   3.420   5.390   2.656  0.2514  1.4482 -0.9332
 7113TIP3   OH221283   4.198   2.899   4.723  0.2245 -0.5812  0.3637
 7113TIP3    H121284   4.135   2.894   4.795 -0.6760 -2.7121 -0.5062
 7113TIP3    H221285   4.145   2.891   4.644  1.3581  0.1642 -0.4961
 7114TIP3   OH221286   8.097   5.651   3.267 -0.7587 -0.0848  0.1321
 7114TIP3    H121287   8.118   5.735   3.309 -0.1654 -0.8549  1.4168
 7114TIP3    H221288   8.182   5.613   3.245 -1.0471  0.1130 -1.4669
 7115TIP3   OH221289   3.106   2.652   6.181  0.6490  0.5703 -0.5771
 7115TIP3    H121290   3.048   2.678   6.109  1.9700 -1.0773 -2.3237
 7115TIP3    H221291   3.092   2.558   6.192  3.2213  0.0078 -1.3613
 7116TIP3   OH221292   2.926   0.940   6.262  0.0683  0.5061  0.1782
 7116TIP3    H121293   2.912   0.965   6.171  0.6317  1.4411  0.3465
 7116TIP3    H221294   2.873   0.860   6.272 -1.5039  1.4062 -0.4540
 7117TIP3   OH221295   4.108   4.924   3.780 -0.1761  0.0760  0.7793
 7117TIP3    H121296   4.090   4.978   3.857 -0.4730  1.1246  0.0037
 7117TIP3    H221297   4.141   4.987   3.715  1.3832 -0.9882  0.4872
 7118TIP3   OH221298   2.724   6.496   0.309 -0.3344  0.1434 -0.5357
 7118TIP3    H121299   2.644   6.542   0.283 -0.1927  0.1548 -0.9565
 7118TIP3    H221300   2.699   6.404   0.311  0.0077 -0.0108 -2.1158
 7119TIP3   OH221301   7.712   4.049   6.003 -1.1118  0.2621  0.3012
 7119TIP3    H121302   7.761   4.083   6.078  0.8769  0.7828 -1.1498
 7119TIP3    H221303   7.731   3.956   6.001 -0.1050  0.4723 -0.2851
 7120TIP3   OH221304   5.877   5.235   1.981 -0.5718 -0.3827 -0.2286
 7120TIP3    H121305   5.903   5.168   1.919 -1.6684 -2.3815  1.3654
 7120TIP3    H221306   5.947   5.237   2.046 -0.3484  0.3368 -0.4760
 7121TIP3   OH221307   6.632   1.010   1.630  0.2021 -0.3616  0.3294
 7121TIP3    H121308   6.550   0.962   1.623  0.0035  0.0889 -0.6127
 7121TIP3    H221309   6.619   1.071   1.702  0.0344 -0.8928  0.7574
 7122TIP3   OH221310   5.661   6.196   0.515 -0.2942  0.8384 -0.2073
 7122TIP3    H121311   5.741   6.199   0.567 -0.5285 -0.9761  0.3221
 7122TIP3    H221312   5.691   6.201   0.424  0.3303  1.2501  0.0167
 7123TIP3   OH221313   5.195   0.930   3.666  0.4815  0.3416  0.0056
 7123TIP3    H121314   5.235   1.004   3.620 -0.3636 -0.4764 -2.1743
 7123TIP3    H221315   5.134   0.970   3.727  1.9242  1.4879  0.7801
 7124TIP3   OH221316   6.371   6.899   5.394 -0.2701 -0.0531  0.2337
 7124TIP3    H121317   6.339   6.977   5.439 -1.0293  1.0070 -2.0202
 7124TIP3    H221318   6.458   6.924   5.361 -0.9280  0.2387 -1.3523
 7125TIP3   OH221319   2.238   2.545   2.132  0.0741 -0.6234  0.0820
 7125TIP3    H121320   2.229   2.451   2.115  0.4160 -0.5820 -0.3736
 7125TIP3    H221321   2.318   2.569   2.085 -1.6510  0.5250 -2.5271
 7126TIP3   OH221322   7.086   6.013   2.636  0.3761  0.2121  0.3288
 7126TIP3    H121323   7.123   6.078   2.696 -0.0576  0.6592  0.1152
 7126TIP3    H221324   6.997   5.999   2.668  0.7168 -0.8823  0.8556
 7127TIP3   OH221325   2.994   4.749   6.509  0.0789 -0.5216  0.0445
 7127TIP3    H121326   2.938   4.688   6.460 -0.5609 -0.4523  0.6781
 7127TIP3    H221327   2.996   4.828   6.454  0.0915 -0.7594 -0.2982
 7128TIP3   OH221328   0.857   5.850   0.027 -0.0479 -0.6238  0.1141
 7128TIP3    H121329   0.762   5.845   0.036 -0.1761  0.4622 -0.5021
 7128TIP3    H221330   0.879   5.785  -0.039 -0.2269 -1.5920  0.9722
 7129TIP3   OH221331   7.385   4.947   4.551  0.2378  0.3569 -0.1954
 7129TIP3    H121332   7.345   4.863   4.530  0.6645 -0.3041  1.4710
 7129TIP3    H221333   7.322   4.990   4.610 -0.4020  1.6475 -1.7263
 7130TIP3   OH221334   0.564   6.245   6.561  0.0964  0.2321 -0.1421
 7130TIP3    H121335   0.593   6.195   6.485  0.5910 -0.1596  0.2959
 7130TIP3    H221336   0.472   6.266   6.542 -0.1661 -0.9429 -0.3076
 7131TIP3   OH221337   2.230   0.997   4.651 -0.5755  0.3932  0.1969
 7131TIP3    H121338   2.270   0.914   4.624 -0.0724 -0.2926  2.7676
 7131TIP3    H221339   2.154   1.007   4.595  0.1116 -1.1228 -1.0696
 7132TIP3   OH221340   6.561   0.284   6.156 -0.1426 -0.4229  0.5562
 7132TIP3    H121341   6.483   0.247   6.199 -0.1232 -0.9349  0.1514
 7132TIP3    H221342   6.528   0.362   6.112 -0.1907  0.0428  1.3841
 7133TIP3   OH221343   0.772   0.138   5.933  0.1209  0.4024  0.5698
 7133TIP3    H121344   0.777   0.184   5.848  0.8242 -0.4341  0.1488
 7133TIP3    H221345   0.690   0.089   5.928  0.0820  0.4770  0.4460
 7134TIP3   OH221346   5.291   2.629   1.387 -0.3594 -0.8358  0.6574
 7134TIP3    H121347   5.242   2.710   1.401  0.9241  0.4218 -1.5771
 7134TIP3    H221348   5.230   2.572   1.340  0.3804  1.0286 -2.8827
 7135TIP3   OH221349   6.539   2.016   3.183  0.1346  0.2849  0.2761
 7135TIP3    H121350   6.634   2.005   3.183  0.0555 -1.2743 -2.0794
 7135TIP3    H221351   6.509   1.957   3.114 -2.3902  2.0631 -0.2854
 7136TIP3   OH221352   6.538   5.930   5.785  0.1398  0.1218  0.1836
 7136TIP3    H121353   6.495   5.912   5.701 -0.7062  0.4758  0.5376
 7136TIP3    H221354   6.470   5.915   5.851  0.0542  2.2493  0.6521
 7137TIP3   OH221355   8.148   5.389   3.958 -0.3515 -0.3725  0.1771
 7137TIP3    H121356   8.134   5.469   4.008  1.6369 -0.3664  0.8525
 7137TIP3    H221357   8.120   5.410   3.869 -0.7904  0.7337  0.5623
 7138TIP3   OH221358   5.868   3.318   0.858 -1.0135 -0.1369  0.5516
 7138TIP3    H121359   5.940   3.380   0.860  2.1286 -3.4065 -0.7303
 7138TIP3    H221360   5.842   3.313   0.766 -1.0426 -0.8586  0.5876
 7139TIP3   OH221361   5.326   0.936   1.145 -0.2199 -0.2133  0.3778
 7139TIP3    H121362   5.315   0.999   1.074 -2.0934 -0.7227  0.1629
 7139TIP3    H221363   5.373   0.984   1.213  0.2216  0.7562 -0.5887
 7140TIP3   OH221364   6.695   7.577   6.655 -0.6495  0.7203  0.1428
 7140TIP3    H121365   6.775   7.537   6.689 -1.3918 -0.7039  0.2672
 7140TIP3    H221366   6.722   7.617   6.572 -0.0005 -0.5971 -0.2994
 7141TIP3   OH221367   3.724   5.623   1.686  0.4009  0.2992  0.2555
 7141TIP3    H121368   3.678   5.574   1.753 -0.5722 -1.4726 -1.5808
 7141TIP3    H221369   3.695   5.713   1.697  0.9664  0.2577  2.7022
 7142TIP3   OH221370   5.196   2.501   4.545  0.6770  0.3814  0.4604
 7142TIP3    H121371   5.134   2.498   4.617 -0.2706 -1.4764 -0.3503
 7142TIP3    H221372   5.194   2.592   4.515 -2.4607  0.2116 -0.1623
 7143TIP3   OH221373   1.629   1.738   1.964 -0.5765 -0.6374  0.3751
 7143TIP3    H121374   1.693   1.679   2.004 -0.2796 -0.4431  0.1979
 7143TIP3    H221375   1.683   1.806   1.923 -0.8348 -1.4428 -1.3533
 7144TIP3   OH221376   0.182   1.503   5.098 -0.0674  0.1707 -0.0465
 7144TIP3    H121377   0.221   1.470   5.017 -0.8533 -1.4801  0.2068
 7144TIP3    H221378   0.241   1.473   5.167  0.4823  1.3838  0.0296
 7145TIP3   OH221379   0.432   6.240   3.679 -0.3802  0.4322  0.2145
 7145TIP3    H121380   0.400   6.292   3.605 -0.6091  1.2933  0.8997
 7145TIP3    H221381   0.359   6.181   3.700 -0.4744  0.4768  0.0159
 7146TIP3   OH221382   2.331   2.159   5.406  0.0192 -0.3145 -0.2501
 7146TIP3    H121383   2.426   2.166   5.404 -0.0241  0.7078  0.3349
 7146TIP3    H221384   2.302   2.208   5.329 -0.1322  3.0101  1.7035
 7147TIP3   OH221385   5.274   1.963   2.589  0.4497  0.0092  0.3956
 7147TIP3    H121386   5.189   1.992   2.624  1.2225  0.1996  2.1984
 7147TIP3    H221387   5.323   2.044   2.576  0.7587 -0.1718  0.4401
 7148TIP3   OH221388   7.031   0.354   4.786  0.5913 -0.0574 -0.2320
 7148TIP3    H121389   6.955   0.379   4.839  1.3056  0.2521  0.6720
 7148TIP3    H221390   7.049   0.264   4.812  1.6937  0.4897  1.0006
 7149TIP3   OH221391   6.258   1.848   1.631 -0.0038  0.4136 -1.0570
 7149TIP3    H121392   6.344   1.816   1.605  0.5841  1.0949 -0.0375
 7149TIP3    H221393   6.196   1.785   1.593  1.0548 -1.5159  0.2159
 7150TIP3   OH221394   1.057   7.236   1.198  0.6424  0.1777 -0.5739
 7150TIP3    H121395   1.012   7.320   1.210  1.9794  0.9086 -0.5197
 7150TIP3    H221396   1.147   7.260   1.177  1.1015 -1.2593 -0.3201
 7151TIP3   OH221397   3.076   0.864   4.592  0.4839  0.2065 -0.1642
 7151TIP3    H121398   3.073   0.829   4.503  0.9182 -1.5307  0.4524
 7151TIP3    H221399   2.988   0.895   4.609 -0.5282 -2.4197 -0.1324
 7152TIP3   OH221400   0.839   3.222   1.283 -0.0824 -0.2345  0.4047
 7152TIP3    H121401   0.926   3.214   1.245 -0.6774 -1.8088 -0.7252
 7152TIP3    H221402   0.796   3.289   1.231 -0.3166 -1.1532 -0.6144
 7153TIP3   OH221403   5.277   2.982   3.438 -0.3906  0.2815  0.2449
 7153TIP3    H121404   5.249   3.062   3.395  0.4881  0.0733 -0.7558
 7153TIP3    H221405   5.266   3.000   3.531 -1.0026  1.2531  0.0012
 7154TIP3   OH221406   0.790   3.797   6.318  0.0743 -0.2460  0.4116
 7154TIP3    H121407   0.860   3.733   6.307  1.0413  0.6562  1.1819
 7154TIP3    H221408   0.719   3.764   6.262  1.2809 -0.9049 -0.7910
 7155TIP3   OH221409   7.891   3.248   5.724 -0.3373 -0.4604  0.3366
 7155TIP3    H121410   7.921   3.158   5.714  0.5227 -0.4017  1.9919
 7155TIP3    H221411   7.820   3.243   5.787  1.0107  0.1748  2.0061
 7156TIP3   OH221412   8.289   3.622   6.765 -0.3191  0.5523  0.5557
 7156TIP3    H121413   8.197   3.624   6.788  0.2933 -0.0622  3.4162
 7156TIP3    H221414   8.300   3.695   6.703 -2.7405  0.4069 -0.1179
 7157TIP3   OH221415   2.038   0.420   6.539 -0.2870  0.7011 -0.3055
 7157TIP3    H121416   2.041   0.412   6.443 -0.1492  0.8093 -0.3117
 7157TIP3    H221417   1.994   0.504   6.554  1.9495  1.9482 -0.3311
 7158TIP3   OH221418   6.085   6.617   1.308  0.0144  0.1305  0.8793
 7158TIP3    H121419   6.105   6.524   1.314 -0.6098 -0.0004  1.0404
 7158TIP3    H221420   6.003   6.621   1.259  0.4069  0.6439  0.2399
 7159TIP3   OH221421   5.108   7.495   5.473  0.0241 -0.0884  0.2388
 7159TIP3    H121422   5.158   7.449   5.406 -0.3673  0.3864 -0.3960
 7159TIP3    H221423   5.019   7.462   5.464  0.1262 -0.5923  1.0534
 7160TIP3   OH221424   4.924   6.274   4.016 -0.1568  0.4600 -0.5542
 7160TIP3    H121425   4.853   6.325   3.977 -0.1913  1.0623  0.2844
 7160TIP3    H221426   4.887   6.240   4.098 -0.5042 -1.8396 -1.5831
 7161TIP3   OH221427   7.413   2.528   1.240  0.0664  0.0368  0.1621
 7161TIP3    H121428   7.351   2.555   1.172 -1.8028 -1.8150  1.0199
 7161TIP3    H221429   7.469   2.464   1.197 -0.8213 -0.7922  0.1980
 7162TIP3   OH221430   3.488   6.317   2.914 -0.0052  0.2504  0.5032
 7162TIP3    H121431   3.492   6.387   2.849  0.5737 -0.6101 -0.4083
 7162TIP3    H221432   3.560   6.336   2.974  0.0834  0.4981  0.3193
 7163TIP3   OH221433   1.084   4.214   4.750 -0.0077  0.0291 -0.6961
 7163TIP3    H121434   1.035   4.137   4.722 -2.2493  0.8628  0.6568
 7163TIP3    H221435   1.059   4.226   4.842  2.4382  0.7976 -0.0462
 7164TIP3   OH221436   6.766   1.644   2.165  0.2578  0.5187 -0.3590
 7164TIP3    H121437   6.822   1.717   2.192  0.0474  0.8985 -0.9268
 7164TIP3    H221438   6.750   1.659   2.072  0.4602 -0.4215 -0.5574
 7165TIP3   OH221439   3.967   3.733   4.729 -0.2699 -0.0149 -0.3192
 7165TIP3    H121440   4.039   3.722   4.790 -0.6046 -2.0533 -0.1974
 7165TIP3    H221441   4.000   3.792   4.662  1.3033 -0.4407  0.0492
 7166TIP3   OH221442   6.146   6.423   3.294 -0.3355 -0.2143 -0.4387
 7166TIP3    H121443   6.093   6.405   3.217  1.0161 -1.8053 -1.0612
 7166TIP3    H221444   6.228   6.376   3.278  1.3066  2.1616  0.4414
 7167TIP3   OH221445   0.597   4.006   4.033 -0.1177  0.1528 -0.1401
 7167TIP3    H121446   0.580   3.958   3.952  0.2990 -0.9118  0.3900
 7167TIP3    H221447   0.535   3.971   4.096 -0.2146  0.7456  0.1066
 7168TIP3   OH221448   8.172   4.070   3.386 -0.2494 -0.4518 -0.3058
 7168TIP3    H121449   8.160   4.054   3.292  0.3090  0.2098 -0.4990
 7168TIP3    H221450   8.082   4.076   3.420 -0.4647 -0.2082 -0.8895
 7169TIP3   OH221451   1.539   5.911   4.435 -0.5969  0.0238  0.4169
 7169TIP3    H121452   1.452   5.939   4.407 -1.0052  0.6949  2.1784
 7169TIP3    H221453   1.523   5.861   4.515  0.7684  2.9807  2.7465
 7170TIP3   OH221454   3.201   1.600   1.593  0.1302  0.1149 -0.3260
 7170TIP3    H121455   3.291   1.628   1.610  0.2637  0.0331 -0.8603
 7170TIP3    H221456   3.153   1.681   1.575 -0.2589  0.3099  1.4453
 7171TIP3   OH221457   3.222   6.382   4.379 -0.1955  0.0795  0.6354
 7171TIP3    H121458   3.159   6.368   4.309  1.1575 -0.9170 -0.4319
 7171TIP3    H221459   3.280   6.452   4.347  1.1412 -1.1742  0.1862
 7172TIP3   OH221460   4.767   6.308   2.759  0.2170 -0.3695  0.0974
 7172TIP3    H121461   4.745   6.220   2.728  0.8435 -1.2567  1.9982
 7172TIP3    H221462   4.856   6.300   2.794  0.0461  0.8635  0.8901
 7173TIP3   OH221463   7.930   2.873   5.499  0.2516 -0.1129  0.0677
 7173TIP3    H121464   7.962   2.881   5.588 -0.5249 -2.5392  0.6458
 7173TIP3    H221465   8.007   2.849   5.447  0.3353 -0.8046  0.5011
 7174TIP3   OH221466   1.835   0.690   3.074  0.1110 -0.2420  1.0088
 7174TIP3    H121467   1.760   0.731   3.119 -0.0811 -0.3546  0.7949
 7174TIP3    H221468   1.837   0.732   2.988  0.0333 -0.5391  0.8599
 7175TIP3   OH221469   3.898   6.435   3.997  0.2834  0.1626 -0.2228
 7175TIP3    H121470   3.920   6.389   3.916  0.9532 -2.1662  1.1838
 7175TIP3    H221471   3.982   6.467   4.030  0.2654 -0.4405  0.4234
 7176TIP3   OH221472   2.093   4.999   6.767  0.1568 -0.3433 -0.4736
 7176TIP3    H121473   2.088   5.070   6.704 -0.9798  0.9793  1.0369
 7176TIP3    H221474   2.187   4.979   6.773  0.5818  1.5213 -0.4000
 7177TIP3   OH221475   1.402   3.277   4.615  0.5255 -0.5319 -0.0967
 7177TIP3    H121476   1.354   3.229   4.683 -0.9698  2.6236  1.3031
 7177TIP3    H221477   1.487   3.295   4.654 -0.2404  1.0535  0.9555
 7178TIP3   OH221478   2.268   3.434   3.560  0.5351 -0.1323 -0.0795
 7178TIP3    H121479   2.184   3.395   3.586  1.6145 -0.7786  2.9213
 7178TIP3    H221480   2.263   3.525   3.590  0.2727  0.3541 -1.5449
 7179TIP3   OH221481   0.120   0.813   6.398 -0.1613 -0.4446  0.2070
 7179TIP3    H121482   0.145   0.836   6.308  2.2931 -0.0285  0.9184
 7179TIP3    H221483   0.157   0.725   6.411 -1.9288 -1.2108  0.3269
 7180TIP3   OH221484   3.842   2.490   5.753  0.0579 -0.8889  0.2031
 7180TIP3    H121485   3.922   2.440   5.738  1.2767  0.6815  1.1152
 7180TIP3    H221486   3.836   2.499   5.848 -0.9839 -0.6415  0.1323
 7181TIP3   OH221487   5.890   1.520   4.479  0.1787 -0.1546  0.0795
 7181TIP3    H121488   5.910   1.577   4.405  0.7446 -0.4747 -0.0261
 7181TIP3    H221489   5.862   1.438   4.439 -0.7496  0.0792  0.2296
 7182TIP3   OH221490   1.290   3.109   6.244  0.1234  0.1434 -0.1727
 7182TIP3    H121491   1.319   3.020   6.222  0.1058 -0.2985  1.4447
 7182TIP3    H221492   1.195   3.102   6.247  0.0339  0.5870 -1.4336
 7183TIP3   OH221493   5.867   1.019   3.234 -0.2796  0.3707 -0.4005
 7183TIP3    H121494   5.806   0.946   3.233  1.1372 -0.8584 -0.2593
 7183TIP3    H221495   5.816   1.093   3.201 -2.0399 -0.4161  0.4203
 7184TIP3   OH221496   2.473   7.655   2.555 -0.1783 -0.3099 -0.7566
 7184TIP3    H121497   2.495   7.613   2.638  2.6393  0.6441 -0.9285
 7184TIP3    H221498   2.423   7.589   2.508 -0.7165 -1.3548  1.1604
 7185TIP3   OH221499   1.260   3.073   5.000 -0.6162  0.1158 -0.2537
 7185TIP3    H121500   1.276   2.983   5.030 -0.2466 -0.5695 -2.3874
 7185TIP3    H221501   1.201   3.109   5.066  0.1730 -1.2794  1.2966
 7186TIP3   OH221502   3.362   6.030   2.998 -0.1224 -0.2497  0.2499
 7186TIP3    H121503   3.308   6.038   3.077 -0.2074 -0.3031  0.1990
 7186TIP3    H221504   3.312   5.970   2.943 -0.8923  1.0812 -0.5483
 7187TIP3   OH221505   7.001   3.748   6.719 -0.3427  0.5020  0.2086
 7187TIP3    H121506   6.920   3.796   6.700 -1.1135 -0.7734  0.1110
 7187TIP3    H221507   7.040   3.731   6.633  0.1421  1.2974  0.2690
 7188TIP3   OH221508   1.821   3.692   1.729  0.4119 -0.3507  0.3935
 7188TIP3    H121509   1.743   3.700   1.674  1.6913  0.4181 -1.3903
 7188TIP3    H221510   1.790   3.716   1.816 -0.8441  2.5576 -0.7026
 7189TIP3   OH221511   0.848   3.738   0.755  0.8543  0.5024 -0.2611
 7189TIP3    H121512   0.855   3.820   0.706  0.0005  0.6476 -0.1490
 7189TIP3    H221513   0.848   3.670   0.688  0.3666  0.6624 -0.4245
 7190TIP3   OH221514   1.314   0.152   0.974  0.0654 -0.5522  0.1422
 7190TIP3    H121515   1.229   0.196   0.976  0.8169  1.0919 -1.0881
 7190TIP3    H221516   1.375   0.217   1.011  0.7884 -1.7411  1.1124
 7191TIP3   OH221517   2.063   1.062   4.866 -0.2156  0.3695 -0.6432
 7191TIP3    H121518   1.993   1.027   4.811  0.2835 -0.9977 -0.4564
 7191TIP3    H221519   2.138   1.070   4.806  0.8400 -2.7434  0.0733
 7192TIP3   OH221520   6.250   6.207   4.126  0.2187 -0.0596  0.0857
 7192TIP3    H121521   6.216   6.218   4.215 -1.2221  0.0106 -0.4443
 7192TIP3    H221522   6.207   6.127   4.094 -1.1910  1.1981 -1.3606
 7193TIP3   OH221523   6.364   5.255   3.721 -0.2025  0.0044  0.1158
 7193TIP3    H121524   6.299   5.184   3.721  0.0689 -0.2464  0.2279
 7193TIP3    H221525   6.427   5.230   3.789 -0.2313  0.4714  0.3113
 7194TIP3   OH221526   5.868   0.207   4.010 -0.6644 -0.4187 -0.5107
 7194TIP3    H121527   5.961   0.195   4.028 -1.1435 -2.0617  1.2363
 7194TIP3    H221528   5.846   0.291   4.050 -0.1393 -0.5265  0.0105
 7195TIP3   OH221529   7.259   5.660   1.293 -0.2008 -0.1077  0.3189
 7195TIP3    H121530   7.250   5.697   1.205  3.1351 -0.6095 -0.3477
 7195TIP3    H221531   7.312   5.724   1.341  0.1566 -1.0129  1.1693
 7196TIP3   OH221532   0.676   5.763   3.210 -0.0077 -0.5700 -0.2460
 7196TIP3    H121533   0.771   5.773   3.223 -0.3010  1.5685  0.5860
 7196TIP3    H221534   0.650   5.699   3.277  0.5406  0.4433  0.9752
 7197TIP3   OH221535   3.853   6.839   5.563  0.0582 -0.1907 -0.0261
 7197TIP3    H121536   3.840   6.891   5.484 -0.7289 -0.5602 -0.1457
 7197TIP3    H221537   3.769   6.844   5.610  0.5972  0.2560  0.9314
 7198TIP3   OH221538   6.286   0.864   5.788  0.4700 -0.1392  0.1624
 7198TIP3    H121539   6.218   0.798   5.800  0.3487 -0.0513 -0.0472
 7198TIP3    H221540   6.242   0.947   5.807  0.4789 -0.0690 -0.1328
 7199TIP3   OH221541   1.795   3.613   6.712 -0.5405  0.0827  0.0249
 7199TIP3    H121542   1.874   3.599   6.764 -0.1358 -0.5809 -0.7442
 7199TIP3    H221543   1.778   3.707   6.719 -0.6128 -0.0171  1.5041
 7200TIP3   OH221544   7.454   1.384   5.600 -0.3748 -0.2710  0.4932
 7200TIP3    H121545   7.363   1.407   5.619  0.1841  1.5766  1.1154
 7200TIP3    H221546   7.492   1.464   5.563  0.8333 -1.2216 -0.3923
 7201TIP3   OH221547   2.272   4.814   1.634 -0.3039 -0.1219 -0.1588
 7201TIP3    H121548   2.323   4.784   1.709  0.3731  2.6935  0.6209
 7201TIP3    H221549   2.329   4.801   1.559  0.4936  0.4405  0.3372
 7202TIP3   OH221550   0.140   2.108   0.149 -0.2726  0.5319 -0.1675
 7202TIP3    H121551   0.094   2.155   0.219  1.2105  1.5156  0.1934
 7202TIP3    H221552   0.085   2.121   0.072 -2.6633 -1.7145  0.9948
 7203TIP3   OH221553   3.039   6.982   2.474 -0.1784 -0.3403 -0.0336
 7203TIP3    H121554   2.955   6.944   2.448 -1.0059 -0.1672  2.1042
 7203TIP3    H221555   3.071   6.924   2.543  0.8166  0.3226  0.0894
 7204TIP3   OH221556   1.947   4.880   2.891  0.1202  1.0592  0.0187
 7204TIP3    H121557   1.931   4.966   2.853 -1.4932 -0.0240 -1.9931
 7204TIP3    H221558   1.941   4.820   2.816 -0.2987 -0.9447  1.5891
 7205TIP3   OH221559   6.329   2.303   6.466  0.3261 -0.1694 -0.2419
 7205TIP3    H121560   6.242   2.265   6.472 -0.3486  1.1897 -0.8413
 7205TIP3    H221561   6.326   2.380   6.523  0.7899  0.4591 -1.0362
 7206TIP3   OH221562   4.941   1.978   5.052 -0.2861  0.7712 -0.1955
 7206TIP3    H121563   4.922   2.022   5.135  1.9410 -0.0225  0.8223
 7206TIP3    H221564   4.950   2.049   4.989 -1.3735  1.4376  0.3636
 7207TIP3   OH221565   0.535   0.123   5.387  0.3754 -0.3905  0.0018
 7207TIP3    H121566   0.493   0.122   5.473 -1.1286  1.6882 -0.6212
 7207TIP3    H221567   0.478   0.069   5.331 -0.5548  0.9390 -0.4050
 7208TIP3   OH221568   2.543   4.394   0.150  0.1273  0.3993  0.3939
 7208TIP3    H121569   2.598   4.332   0.101  1.1512  2.0476 -0.6179
 7208TIP3    H221570   2.604   4.437   0.210  0.0529  2.4078 -0.8879
 7209TIP3   OH221571   7.977   2.503   0.305 -0.2156  0.1136  0.6845
 7209TIP3    H121572   7.936   2.537   0.385  3.1130 -0.3827  2.8280
 7209TIP3    H221573   8.033   2.574   0.275 -2.2772  0.7458 -2.0953
 7210TIP3   OH221574   7.532   3.442   3.696  0.1594  0.0602 -0.3237
 7210TIP3    H121575   7.569   3.377   3.637 -0.9175  0.0238 -0.9949
 7210TIP3    H221576   7.608   3.484   3.736  1.0256  1.0666 -2.7932
 7211TIP3   OH221577   6.250   1.063   4.085 -0.3875 -0.2546 -0.2054
 7211TIP3    H121578   6.330   1.011   4.082 -0.7682 -0.8778  0.0785
 7211TIP3    H221579   6.262   1.122   4.159 -1.0480 -1.8326  1.2380
 7212TIP3   OH221580   1.996   7.341   5.445  0.4819  0.9865 -0.2555
 7212TIP3    H121581   2.008   7.248   5.463 -0.1439  1.1574  1.1286
 7212TIP3    H221582   1.971   7.345   5.353 -2.4332 -0.4969  0.3806
 7213TIP3   OH221583   5.957   6.263   0.489  0.7119 -0.0331 -0.3277
 7213TIP3    H121584   5.908   6.323   0.545  0.5270 -0.4805 -0.0080
 7213TIP3    H221585   6.047   6.297   0.490  0.6943  0.0083  0.1753
 7214TIP3   OH221586   2.462   6.185   5.138 -0.0052 -0.5887  0.0047
 7214TIP3    H121587   2.384   6.200   5.084 -0.0649  1.4643  0.5973
 7214TIP3    H221588   2.476   6.090   5.133 -0.8054 -0.6471 -2.4820
 7215TIP3   OH221589   1.964   6.836   4.979  0.1613 -0.2556 -0.0114
 7215TIP3    H121590   1.903   6.904   5.006 -0.4342 -0.4899 -0.7300
 7215TIP3    H221591   1.921   6.754   5.003  0.5120 -0.4031  0.1212
 7216TIP3   OH221592   7.364   2.474   1.713  0.4986 -0.0205  0.1464
 7216TIP3    H121593   7.312   2.484   1.633 -0.0667  1.1793  0.6395
 7216TIP3    H221594   7.309   2.511   1.782  1.6057  0.3672  0.8489
 7217TIP3   OH221595   5.627   6.552   2.675 -0.0220  0.4764  0.0535
 7217TIP3    H121596   5.700   6.550   2.612 -0.7519  0.3639 -0.8001
 7217TIP3    H221597   5.554   6.590   2.626 -0.7362 -0.0480  0.6929
 7218TIP3   OH221598   7.603   2.173   2.807 -0.1718  0.0122  0.1719
 7218TIP3    H121599   7.595   2.178   2.902 -0.9305  2.7185  0.0458
 7218TIP3    H221600   7.543   2.240   2.774  1.6898  0.6978 -2.1247
 7219TIP3   OH221601   4.097   1.597  -0.005  0.6959  0.2146  0.2802
 7219TIP3    H121602   4.024   1.547  -0.040  0.7786  1.7348 -2.3132
 7219TIP3    H221603   4.063   1.638   0.074 -1.6121  1.5893 -1.3237
 7220TIP3   OH221604   1.662   7.337   0.265 -0.0137 -0.1225 -0.4198
 7220TIP3    H121605   1.579   7.374   0.236  0.4144  0.8248 -0.4742
 7220TIP3    H221606   1.718   7.338   0.187 -0.0563 -1.0790 -0.4700
 7221TIP3   OH221607   4.743   0.545   6.506  0.4800  0.1075 -0.2297
 7221TIP3    H121608   4.816   0.553   6.444 -0.1933  0.3801 -0.9997
 7221TIP3    H221609   4.721   0.635   6.529  0.2736  0.0317 -0.1301
 7222TIP3   OH221610   5.136   5.518   4.356  0.8580  0.4696  0.1262
 7222TIP3    H121611   5.055   5.534   4.308  0.3024  0.1432  0.9313
 7222TIP3    H221612   5.151   5.424   4.347  1.1376  0.5278 -0.0130
 7223TIP3   OH221613   5.565   2.455   2.882  0.0948  0.2118  0.4956
 7223TIP3    H121614   5.533   2.473   2.794  1.3040  2.8283  0.4998
 7223TIP3    H221615   5.605   2.368   2.876 -1.3128 -0.3604 -1.0736
 7224TIP3   OH221616   2.887   0.547   4.535 -0.2691 -0.3306 -0.2643
 7224TIP3    H121617   2.800   0.509   4.544  0.4081 -1.5498  2.0487
 7224TIP3    H221618   2.874   0.625   4.481 -2.4349 -1.5231 -1.5873
 7225TIP3   OH221619   7.435   5.425   1.255 -0.4096  0.5047 -0.3773
 7225TIP3    H121620   7.410   5.517   1.267  2.9096  1.4337  0.6122
 7225TIP3    H221621   7.504   5.428   1.188  0.7394 -1.0361  0.6763
 7226TIP3   OH221622   4.713   5.203   2.188  0.1511 -0.4788 -0.1413
 7226TIP3    H121623   4.785   5.152   2.224  0.5220 -1.1151 -1.6737
 7226TIP3    H221624   4.654   5.138   2.150 -0.0496  0.1475 -0.9430
 7227TIP3   OH221625   7.976   6.865   6.259  0.3946  0.0299  0.5643
 7227TIP3    H121626   7.956   6.776   6.230 -1.2737 -0.3101  2.5370
 7227TIP3    H221627   7.907   6.919   6.220  1.4020  0.5061 -0.6279
 7228TIP3   OH221628   2.947   2.377   4.846 -0.5991  0.2344  0.8283
 7228TIP3    H121629   2.991   2.344   4.768 -0.0118 -0.6293  1.4927
 7228TIP3    H221630   3.015   2.425   4.893 -1.4328  2.4709 -0.1024
 7229TIP3   OH221631   1.481   4.002   2.217  0.0743 -0.1485  0.2141
 7229TIP3    H121632   1.438   4.087   2.209  1.3835  0.4901 -0.4931
 7229TIP3    H221633   1.499   3.993   2.310 -0.4021  0.1770  0.3435
 7230TIP3   OH221634   0.186   4.492   3.360  0.5794  0.3248 -0.0169
 7230TIP3    H121635   0.210   4.509   3.451 -2.7042  1.0665  0.8497
 7230TIP3    H221636   0.197   4.577   3.316 -1.8303  1.1359  0.7937
 7231TIP3   OH221637   1.127   6.277   2.480  0.0677 -0.0574 -0.1046
 7231TIP3    H121638   1.198   6.312   2.533  0.9339 -0.0266 -1.2540
 7231TIP3    H221639   1.150   6.300   2.390 -0.1898 -2.1012 -0.7363
 7232TIP3   OH221640   6.236   4.138   3.080  0.7991  0.0666 -0.0297
 7232TIP3    H121641   6.167   4.142   3.146  0.4468  0.9366 -0.4372
 7232TIP3    H221642   6.241   4.045   3.057 -0.5042  0.0307 -0.2621
 7233TIP3   OH221643   4.776   0.398   0.880 -0.0726 -0.0363  0.2924
 7233TIP3    H121644   4.833   0.442   0.942 -0.8554  0.4672  0.6676
 7233TIP3    H221645   4.720   0.342   0.934  0.5866 -1.1465 -0.1339
 7234TIP3   OH221646   3.377   6.303   1.049 -0.2225 -0.0270 -0.3866
 7234TIP3    H121647   3.345   6.360   0.979  0.0097  0.9964  0.3158
 7234TIP3    H221648   3.325   6.327   1.125 -0.8787 -1.5428 -0.3315
 7235TIP3   OH221649   5.690   6.267   6.769  0.0775  0.1068 -0.1557
 7235TIP3    H121650   5.638   6.187   6.763  1.2003 -0.5533 -2.0203
 7235TIP3    H221651   5.738   6.270   6.686  1.1666  1.9577  0.4896
 7236TIP3   OH221652   5.904   0.314   1.156 -0.1944 -0.7524 -0.2753
 7236TIP3    H121653   5.926   0.241   1.097  1.2056  0.3153 -1.1177
 7236TIP3    H221654   5.944   0.290   1.239 -1.9671 -2.1512  0.2516
 7237TIP3   OH221655   3.725   4.469   3.318 -0.0033 -0.0976  0.3709
 7237TIP3    H121656   3.802   4.512   3.354  0.7098 -0.0761 -1.0972
 7237TIP3    H221657   3.746   4.456   3.225 -1.9610  0.3417 -0.1772
 7238TIP3   OH221658   6.865   4.545   5.138 -0.2568 -0.1952 -0.1710
 7238TIP3    H121659   6.794   4.607   5.123  1.1539  1.2989 -1.1000
 7238TIP3    H221660   6.833   4.461   5.104 -0.8963  0.8782 -2.4265
 7239TIP3   OH221661   6.293   0.328   4.598 -0.0262 -0.5692  0.1989
 7239TIP3    H121662   6.205   0.339   4.635 -0.7113 -0.7692 -1.3170
 7239TIP3    H221663   6.320   0.416   4.572 -0.7416 -0.7795 -1.3854
 7240TIP3   OH221664   1.144   0.598   4.191 -0.3045  0.0237 -1.0663
 7240TIP3    H121665   1.154   0.685   4.152  0.2572 -0.2493 -1.5433
 7240TIP3    H221666   1.233   0.573   4.218 -0.4807 -0.3542 -0.8274
 7241TIP3   OH221667   5.608   0.884   2.988  0.6664  0.2342  0.1945
 7241TIP3    H121668   5.625   0.874   2.894 -2.0373 -0.8754 -0.2738
 7241TIP3    H221669   5.540   0.951   2.992  0.0575 -0.4295  1.2653
 7242TIP3   OH221670   7.179   4.253   1.980  0.4659 -0.0675 -0.1240
 7242TIP3    H121671   7.190   4.183   2.045 -2.2231  0.3843  0.9155
 7242TIP3    H221672   7.165   4.332   2.032 -1.0396  0.4276 -1.2200
 7243TIP3   OH221673   5.110   4.179   6.633 -0.3358  0.1502  0.3643
 7243TIP3    H121674   5.157   4.256   6.663 -0.9991  0.4067  0.7492
 7243TIP3    H221675   5.156   4.105   6.674 -0.8619  0.4562  1.5390
 7244TIP3   OH221676   0.330   4.222   4.031 -0.5627 -0.3096 -0.3656
 7244TIP3    H121677   0.424   4.238   4.040  0.0120 -2.7962 -1.1530
 7244TIP3    H221678   0.315   4.229   3.936 -0.3964 -3.1838 -0.6933
 7245TIP3   OH221679   7.317   6.503   1.607  0.2855  0.2893 -0.3838
 7245TIP3    H121680   7.320   6.599   1.602  0.0398  0.3319  0.2594
 7245TIP3    H221681   7.377   6.481   1.678  0.0261 -0.0159 -0.2620
 7246TIP3   OH221682   8.036   4.417   6.055 -0.0355 -0.9429  0.2105
 7246TIP3    H121683   8.129   4.440   6.053 -0.5255  1.1906 -0.8705
 7246TIP3    H221684   8.019   4.380   5.968 -0.8979  2.0985 -1.0397
 7247TIP3   OH221685   4.524   1.789   3.922  0.1176  0.1547 -0.3396
 7247TIP3    H121686   4.520   1.862   3.983 -0.1012  0.2072 -0.4143
 7247TIP3    H221687   4.464   1.813   3.852 -1.2577 -0.8248  0.4431
 7248TIP3   OH221688   0.146   5.780   0.379 -0.2446  0.4048  0.2031
 7248TIP3    H121689   0.071   5.833   0.407 -0.9965 -1.5636  2.2325
 7248TIP3    H221690   0.111   5.727   0.307 -0.1057  1.1454 -0.4153
 7249TIP3   OH221691   4.094   4.991   6.485  0.2329 -0.1185 -0.0817
 7249TIP3    H121692   4.099   5.080   6.451  0.8576 -0.2975 -0.4902
 7249TIP3    H221693   4.080   5.001   6.579  1.4644  0.4362  0.0675
 7250TIP3   OH221694   0.543   3.536   2.004  0.4393  0.4771  0.1896
 7250TIP3    H121695   0.511   3.492   2.082 -0.1095 -0.7714 -0.6945
 7250TIP3    H221696   0.633   3.505   1.994  0.0537 -0.5163 -0.4314
 7251TIP3   OH221697   3.978   4.716   0.155 -0.5730 -0.0109  0.2224
 7251TIP3    H121698   3.955   4.806   0.135 -1.1201  0.2747  1.9855
 7251TIP3    H221699   4.072   4.718   0.171 -0.3795  0.0099 -0.8425
 7252TIP3   OH221700   7.270   1.881   1.390  0.1355  0.5160  0.2167
 7252TIP3    H121701   7.341   1.900   1.450  0.0998 -0.0910  0.4600
 7252TIP3    H221702   7.289   1.793   1.356 -0.1709  0.5968 -0.1826
 7253TIP3   OH221703   6.124   1.696   0.044 -0.2360 -0.8390 -0.0499
 7253TIP3    H121704   6.104   1.614  -0.001 -1.2187 -0.4868 -0.2814
 7253TIP3    H221705   6.049   1.752   0.026  0.2127 -0.0439  0.4910
 7254TIP3   OH221706   0.633   4.656   1.640  0.3678  0.2209 -0.1345
 7254TIP3    H121707   0.654   4.576   1.592  0.3075  0.0511  0.1236
 7254TIP3    H221708   0.644   4.633   1.732 -0.3339  0.2993 -0.0213
 7255TIP3   OH221709   4.769   4.732   3.524 -0.7033 -0.0570  0.1820
 7255TIP3    H121710   4.679   4.702   3.511 -0.8690  0.2994  0.4943
 7255TIP3    H221711   4.797   4.759   3.436 -0.2288 -1.9584 -0.2912
 7256TIP3   OH221712   3.411   2.626   5.543  0.0109  0.0642  0.1569
 7256TIP3    H121713   3.502   2.601   5.528 -0.2148 -0.3577 -0.5353
 7256TIP3    H221714   3.360   2.552   5.511 -0.6626  1.2480 -1.6334
 7257TIP3   OH221715   1.598   2.528   0.841 -0.0216 -0.3234 -0.0830
 7257TIP3    H121716   1.590   2.435   0.823  0.7991 -0.0769 -1.9993
 7257TIP3    H221717   1.514   2.565   0.815 -0.1412 -0.4642  0.1076
 7258TIP3   OH221718   8.155   3.937   1.753  0.7048 -0.2445 -0.2590
 7258TIP3    H121719   8.175   3.871   1.820  0.8601  0.6384  0.5959
 7258TIP3    H221720   8.172   4.021   1.797  1.0429  0.3515 -1.5010
 7259TIP3   OH221721   6.178   1.910   1.226 -0.7441 -0.4071  0.6018
 7259TIP3    H121722   6.129   1.989   1.206 -1.6762 -1.3783 -1.2221
 7259TIP3    H221723   6.111   1.846   1.252  0.0034 -0.5929  2.2420
 7260TIP3   OH221724   3.696   3.451   3.953  0.0767 -0.1790  0.1442
 7260TIP3    H121725   3.661   3.459   4.042  0.8589 -2.1742  0.6919
 7260TIP3    H221726   3.619   3.455   3.896 -0.7329 -1.2659  1.0988
 7261TIP3   OH221727   3.505   6.725   2.871 -0.1862 -0.1279 -0.1230
 7261TIP3    H121728   3.529   6.817   2.859 -0.4420  0.1954  1.5000
 7261TIP3    H221729   3.460   6.700   2.791  0.8089  0.8501 -1.0096
 7262TIP3   OH221730   0.170   5.038   5.531  0.2677  0.1103  0.0314
 7262TIP3    H121731   0.241   5.065   5.589 -1.2113 -1.0994  2.5176
 7262TIP3    H221732   0.166   4.943   5.539 -0.8773  0.0394 -1.0371
 7263TIP3   OH221733   4.734   2.850   5.094  0.5045 -0.3550  0.1534
 7263TIP3    H121734   4.711   2.767   5.136  0.8660 -0.8611 -0.6359
 7263TIP3    H221735   4.778   2.825   5.013  0.2082  0.6104 -0.3184
 7264TIP3   OH221736   3.518   7.470   0.283  0.0297 -0.1889 -0.0076
 7264TIP3    H121737   3.518   7.416   0.362 -0.5868 -0.5471 -0.2376
 7264TIP3    H221738   3.492   7.409   0.213 -1.8728  0.6353 -0.0929
 7265TIP3   OH221739   4.916   4.279   3.821 -0.6805  0.1637  0.4341
 7265TIP3    H121740   4.935   4.318   3.906 -0.9406  0.1299  0.5081
 7265TIP3    H221741   4.868   4.346   3.774 -1.2167 -0.1045  0.5994
 7266TIP3   OH221742   8.123   1.883   2.037 -0.0533  0.1176  0.1920
 7266TIP3    H121743   8.127   1.959   1.979 -2.5684  0.9828  0.9870
 7266TIP3    H221744   8.040   1.841   2.016  0.0710 -0.9004  1.5534
 7267TIP3   OH221745   4.895   2.618   1.680 -0.6969  0.1147  0.4945
 7267TIP3    H121746   4.955   2.545   1.693 -0.6157 -0.1439 -1.0704
 7267TIP3    H221747   4.830   2.584   1.618 -0.9546  1.2017  0.1520
 7268TIP3   OH221748   0.425   4.457   5.635 -0.3000  0.6386 -0.3452
 7268TIP3    H121749   0.330   4.461   5.634 -0.3572 -0.7084 -1.1475
 7268TIP3    H221750   0.448   4.473   5.727 -1.4706 -2.0436  0.5189
 7269TIP3   OH221751   0.954   7.511   5.680  0.1247  0.3972  1.1306
 7269TIP3    H121752   1.039   7.527   5.639 -0.3131  2.8093  1.0464
 7269TIP3    H221753   0.965   7.537   5.771 -0.4372  0.3703  1.2112
 7270TIP3   OH221754   4.547   4.013   5.734 -0.3608  0.2451  0.1298
 7270TIP3    H121755   4.471   4.068   5.718 -0.2304  0.9242  1.6608
 7270TIP3    H221756   4.622   4.071   5.722 -0.2175  0.4238  1.6202
 7271TIP3   OH221757   7.701   6.165   1.058 -0.1693  0.0473  0.3480
 7271TIP3    H121758   7.672   6.185   0.970  0.2084 -0.5096  0.0867
 7271TIP3    H221759   7.795   6.149   1.049  0.4466  2.6406  1.3059
 7272TIP3   OH221760   4.934   4.000   0.024  0.3942 -0.1449 -0.1114
 7272TIP3    H121761   4.983   3.945  -0.037  1.2069  1.9026 -1.4253
 7272TIP3    H221762   5.001   4.041   0.078 -0.0091  1.0194 -0.4649
 7273TIP3   OH221763   0.787   1.170   6.624  0.4857  0.7733  0.1317
 7273TIP3    H121764   0.770   1.238   6.689  0.6763  1.7289 -0.7932
 7273TIP3    H221765   0.808   1.218   6.544  0.0144 -0.3725 -0.7087
 7274TIP3   OH221766   5.604   2.506   1.234 -0.3672 -0.4571  0.4188
 7274TIP3    H121767   5.568   2.453   1.163 -1.6705  0.0244  0.7080
 7274TIP3    H221768   5.572   2.464   1.314  1.4041 -1.2269  0.7687
 7275TIP3   OH221769   1.873   1.436   2.293  0.2571  0.0890 -0.1893
 7275TIP3    H121770   1.951   1.399   2.250  0.5683  2.4938 -1.8595
 7275TIP3    H221771   1.897   1.439   2.386  1.4832 -0.8026 -0.4438
 7276TIP3   OH221772   2.977   4.189   0.290 -0.3581  0.6546  0.0544
 7276TIP3    H121773   2.988   4.100   0.321 -2.5276 -0.0744 -1.0946
 7276TIP3    H221774   3.002   4.244   0.364 -1.0904 -0.9463  1.5358
 7277TIP3   OH221775   1.332   0.662   1.246  0.0760  0.1073  0.0248
 7277TIP3    H121776   1.405   0.609   1.214  0.2262  1.0566 -1.2761
 7277TIP3    H221777   1.326   0.735   1.184 -2.6252 -0.4684 -0.4899
 7278TIP3   OH221778   4.563   3.874   4.013  0.2455  0.0311 -0.3117
 7278TIP3    H121779   4.616   3.947   4.044  1.2429 -0.1728 -1.4512
 7278TIP3    H221780   4.572   3.877   3.918 -2.3345  0.3739 -0.6000
 7279TIP3   OH221781   0.021   0.388   3.865  0.6178 -0.4129  0.3117
 7279TIP3    H121782   0.072   0.308   3.874 -0.1297 -1.2099 -1.8946
 7279TIP3    H221783  -0.027   0.377   3.783  0.7462  2.4324 -0.2634
 7280TIP3   OH221784   5.682   2.953   0.244 -0.2942  0.3104 -0.4283
 7280TIP3    H121785   5.597   2.974   0.206  0.3679  1.6411 -1.2327
 7280TIP3    H221786   5.721   3.038   0.265  1.1377 -0.2405 -0.7382
 7281TIP3   OH221787   3.415   1.275   1.029 -0.3560 -0.0195  0.0117
 7281TIP3    H121788   3.417   1.357   1.078 -0.9155  1.0324 -1.6335
 7281TIP3    H221789   3.506   1.260   1.004 -0.4943  1.2339 -1.3962
 7282TIP3   OH221790   4.629   0.224   5.840 -0.6443  0.6350  0.5888
 7282TIP3    H121791   4.672   0.198   5.922  0.4807  0.9714  0.1195
 7282TIP3    H221792   4.700   0.232   5.777 -1.4545  0.7931 -0.3216
 7283TIP3   OH221793   1.537   1.117   1.470  0.3316 -0.3868  0.3724
 7283TIP3    H121794   1.585   1.184   1.421 -0.6328 -0.4214 -0.6512
 7283TIP3    H221795   1.445   1.133   1.449  0.0934 -2.1679 -0.0914
 7284TIP3   OH221796   1.304   6.737   1.491 -0.1101  0.4667  0.3512
 7284TIP3    H121797   1.387   6.769   1.454 -0.0191 -0.6182 -0.4362
 7284TIP3    H221798   1.250   6.718   1.414 -1.1030  1.1786  0.8644
 7285TIP3   OH221799   3.410   5.383   2.203  0.8430  0.4506  0.1845
 7285TIP3    H121800   3.495   5.425   2.216  1.9001 -0.8839 -1.8266
 7285TIP3    H221801   3.431   5.291   2.187 -1.2850 -0.6209  2.9213
 7286TIP3   OH221802   8.283   1.404   1.098  0.1992 -0.4329  0.1824
 7286TIP3    H121803   8.226   1.332   1.125  0.0998 -0.4120  0.0254
 7286TIP3    H221804   8.369   1.363   1.086  0.4223 -0.3115  1.2720
 7287TIP3   OH221805   1.851   6.662   3.171  0.0136  0.5587  0.3767
 7287TIP3    H121806   1.847   6.643   3.077  0.4642 -0.5301  0.5586
 7287TIP3    H221807   1.924   6.724   3.179  0.8887 -0.4000  0.1410
 7288TIP3   OH221808   5.875   3.845   5.307  0.4638  0.3036  0.1075
 7288TIP3    H121809   5.968   3.853   5.284  1.1973 -0.7486  2.3933
 7288TIP3    H221810   5.849   3.934   5.330  1.6087  0.3094  1.6234
 7289TIP3   OH221811   4.074   6.974   0.031 -0.4286  0.0575 -0.0380
 7289TIP3    H121812   4.010   6.951   0.098 -0.2826  0.1932  0.1509
 7289TIP3    H221813   4.086   7.068   0.040 -1.3665  0.2980 -1.1165
 7290TIP3   OH221814   1.597   4.413   0.238  0.8207  0.4000  0.4818
 7290TIP3    H121815   1.662   4.352   0.204 -0.5727 -1.1051  0.4223
 7290TIP3    H221816   1.556   4.450   0.160  0.5908  0.2231  0.5187
 7291TIP3   OH221817   4.192   5.626   3.286 -0.2591  0.1439 -0.5050
 7291TIP3    H121818   4.133   5.552   3.290 -0.1928  0.1348  0.8412
 7291TIP3    H221819   4.141   5.700   3.319 -0.0263  0.4776 -0.8849
 7292TIP3   OH221820   0.375   7.527   1.090 -0.2236  0.0934 -0.2784
 7292TIP3    H121821   0.409   7.437   1.089 -0.6185 -0.0655 -2.1190
 7292TIP3    H221822   0.286   7.519   1.125  0.3528  0.0402  1.2453
 7293TIP3   OH221823   4.659   6.405   3.421 -0.3631 -0.0281 -0.5038
 7293TIP3    H121824   4.726   6.461   3.383 -0.1476  0.0147 -0.0693
 7293TIP3    H221825   4.676   6.407   3.515  1.3689 -2.9921 -0.6384
 7294TIP3   OH221826   5.157   7.139   3.686  0.2985  0.1188  0.0095
 7294TIP3    H121827   5.072   7.096   3.697  0.2660 -0.0978 -1.0171
 7294TIP3    H221828   5.139   7.232   3.705  0.0647 -0.0826  0.8188
 7295TIP3   OH221829   7.338   6.702   4.836 -0.5770 -0.5926  0.2715
 7295TIP3    H121830   7.391   6.623   4.842  1.2082  0.5884  1.3146
 7295TIP3    H221831   7.347   6.743   4.922  1.9293  2.7172 -1.3470
 7296TIP3   OH221832   2.704   3.545   3.801  0.3098  0.4900  0.6108
 7296TIP3    H121833   2.760   3.589   3.737 -0.6930 -1.9652 -2.2027
 7296TIP3    H221834   2.626   3.600   3.807  0.9209  1.3581  0.6397
 7297TIP3   OH221835   3.879   2.769   0.446 -0.5636 -0.1559 -0.1285
 7297TIP3    H121836   3.908   2.766   0.538  0.5307 -0.8241 -0.4710
 7297TIP3    H221837   3.958   2.793   0.398 -1.1191  0.1239 -0.9081
 7298TIP3   OH221838   2.805   0.722   3.218  0.3120  0.5485 -0.3518
 7298TIP3    H121839   2.857   0.663   3.272  0.2421  0.4871 -0.3526
 7298TIP3    H221840   2.853   0.727   3.135  0.4498  0.6872 -0.2656
 7299TIP3   OH221841   7.820   5.741   0.696 -0.6378  0.1874  0.3566
 7299TIP3    H121842   7.846   5.649   0.694  0.2773  0.4409 -0.1348
 7299TIP3    H221843   7.776   5.752   0.780  0.5390 -0.3707  1.0640
 7300TIP3   OH221844   2.455   3.595   4.287 -0.0692  0.2167 -1.0472
 7300TIP3    H121845   2.487   3.512   4.252 -0.1946  0.4315 -1.6803
 7300TIP3    H221846   2.390   3.624   4.224 -2.4954 -0.8168  0.8029
 7301TIP3   OH221847   4.496   1.847   5.382 -0.4097 -0.2553  0.0665
 7301TIP3    H121848   4.568   1.909   5.375  0.3955 -0.8774  2.1108
 7301TIP3    H221849   4.521   1.789   5.454 -1.6838 -2.2256 -0.9877
 7302TIP3   OH221850   5.253   1.991   0.479 -0.1635 -0.0888  0.0094
 7302TIP3    H121851   5.262   1.957   0.390 -0.9076 -2.7913  0.8391
 7302TIP3    H221852   5.170   2.038   0.479  0.7485  1.5944 -1.1348
 7303TIP3   OH221853   2.550   6.698   1.674  1.0642  0.0366  0.4511
 7303TIP3    H121854   2.573   6.635   1.742 -0.7675 -2.7316 -1.2922
 7303TIP3    H221855   2.468   6.737   1.705  0.9758 -0.1820  0.4987
 7304TIP3   OH221856   0.877   6.481   6.477 -0.0039 -0.0951 -0.5051
 7304TIP3    H121857   0.788   6.468   6.509 -0.5102 -1.6093 -2.3393
 7304TIP3    H221858   0.902   6.568   6.508 -0.5434 -1.1667  3.5236
 7305TIP3   OH221859   2.876   7.178   5.553  0.3979  0.2847 -0.9189
 7305TIP3    H121860   2.828   7.107   5.510 -0.3441 -1.1590  2.0286
 7305TIP3    H221861   2.950   7.134   5.596  0.2591  1.3433  0.4818
 7306TIP3   OH221862   0.799   3.871   3.162 -0.1803  0.9506  0.0577
 7306TIP3    H121863   0.866   3.805   3.176 -0.9116  0.1660 -0.0591
 7306TIP3    H221864   0.812   3.934   3.232  0.5960  0.7441  0.1059
 7307TIP3   OH221865   1.916   0.807   1.716  1.1954 -0.2798 -0.7791
 7307TIP3    H121866   1.849   0.860   1.671 -0.7376 -0.8856  1.1864
 7307TIP3    H221867   1.968   0.871   1.764  0.4204  0.0388 -0.3483
 7308TIP3   OH221868   2.859   0.801   5.808  0.1594 -0.6069 -0.0070
 7308TIP3    H121869   2.910   0.763   5.736  0.3210  0.1134 -0.2798
 7308TIP3    H221870   2.795   0.857   5.764 -0.4152 -0.9548  0.3683
 7309TIP3   OH221871   0.862   2.525   5.319 -0.4394 -0.7295  0.1169
 7309TIP3    H121872   0.796   2.536   5.387  1.0663  1.4525  1.3675
 7309TIP3    H221873   0.900   2.439   5.336 -0.2304 -0.3134  1.9690
 7310TIP3   OH221874   7.373   5.247   3.716  0.1398  0.2265  0.1826
 7310TIP3    H121875   7.395   5.276   3.628  0.5224 -2.4015 -0.6579
 7310TIP3    H221876   7.295   5.193   3.704 -0.0399  0.1557  1.5386
 7311TIP3   OH221877   3.168   0.676   4.791  0.7196  0.0404  0.2916
 7311TIP3    H121878   3.262   0.691   4.793  1.0716 -1.6873 -0.5865
 7311TIP3    H221879   3.136   0.730   4.719  1.0591  0.5613  0.5353
 7312TIP3   OH221880   7.099   6.307   5.126  0.0391  0.4790  0.0541
 7312TIP3    H121881   7.073   6.333   5.214  1.6147 -1.4948  1.1788
 7312TIP3    H221882   7.181   6.354   5.110 -0.8664  1.8212 -0.9494
 7313TIP3   OH221883   1.359   4.675   3.662  0.2445 -0.4798  0.4933
 7313TIP3    H121884   1.296   4.632   3.604  0.0077 -1.4570  1.4323
 7313TIP3    H221885   1.329   4.766   3.667  0.3003 -0.3673 -0.9241
 7314TIP3   OH221886   6.899   4.853   6.321  0.6986 -0.0681  0.9460
 7314TIP3    H121887   6.906   4.944   6.291 -0.9380 -0.5833 -1.1905
 7314TIP3    H221888   6.893   4.860   6.417  0.5804  2.0710  0.8300
 7315TIP3   OH221889   3.580   7.327   4.183  0.4948 -0.5067 -0.0291
 7315TIP3    H121890   3.498   7.334   4.230 -0.4415  0.7726 -1.7570
 7315TIP3    H221891   3.645   7.304   4.250 -1.5029 -3.3882  1.1236
 7316TIP3   OH221892   4.720   4.088   2.278 -0.3485 -0.2072  0.3056
 7316TIP3    H121893   4.806   4.090   2.319 -0.2344  0.7026  0.0557
 7316TIP3    H221894   4.693   4.180   2.275 -2.0300 -0.5866  1.8344
 7317TIP3   OH221895   1.348   6.387   3.308 -0.6678 -0.6409 -0.0626
 7317TIP3    H121896   1.283   6.457   3.317 -1.2638 -0.9586 -1.6340
 7317TIP3    H221897   1.431   6.433   3.293 -0.1482 -0.1775  3.3628
 7318TIP3   OH221898   4.903   6.561   2.803  0.1078 -0.6195  0.3771
 7318TIP3    H121899   4.845   6.493   2.838 -1.5131 -0.3115 -1.4932
 7318TIP3    H221900   4.946   6.519   2.728 -1.6636  0.5822 -1.4305
 7319TIP3   OH221901   3.036   6.002   5.212 -0.1307 -0.1329  0.2918
 7319TIP3    H121902   3.023   5.933   5.146 -0.4138  0.6788 -0.5279
 7319TIP3    H221903   2.952   6.007   5.257  1.2087 -3.5388  3.6415
 7320TIP3   OH221904   3.021   0.132   3.134 -0.1446 -0.4335  0.5381
 7320TIP3    H121905   3.066   0.216   3.140 -3.4190  1.4978  0.5662
 7320TIP3    H221906   3.045   0.085   3.214  3.4214 -0.5588 -0.4652
 7321TIP3   OH221907   1.387   5.042   1.271 -0.3117 -0.1156 -0.3478
 7321TIP3    H121908   1.320   5.069   1.334  0.2014  0.7730 -0.1766
 7321TIP3    H221909   1.441   5.120   1.258  1.2305 -1.0471  0.2031
 7322TIP3   OH221910   6.513   3.334   5.051  0.0387 -0.4144 -0.0169
 7322TIP3    H121911   6.471   3.264   5.102 -2.0524 -0.6541 -1.9122
 7322TIP3    H221912   6.521   3.407   5.114 -0.9583 -1.2132  1.0955
 7323TIP3   OH221913   7.414   6.023   3.011 -0.2717  0.3586 -0.1236
 7323TIP3    H121914   7.354   6.047   2.941 -0.0328  0.4319 -0.3046
 7323TIP3    H221915   7.474   5.960   2.971  0.0637  0.6433 -0.0711
 7324TIP3   OH221916   5.203   6.339   2.577  0.0953 -0.4650  0.6015
 7324TIP3    H121917   5.116   6.344   2.617 -0.3358  0.3330 -0.4080
 7324TIP3    H221918   5.225   6.430   2.556  0.9964 -0.7040  0.4641
 7325TIP3   OH221919   4.818   0.637   3.632  0.0494 -0.5102 -0.0483
 7325TIP3    H121920   4.736   0.588   3.626  0.4328 -1.3522  1.0890
 7325TIP3    H221921   4.800   0.706   3.696  0.1499 -0.5546  0.0293
 7326TIP3   OH221922   4.263   5.282   3.023  0.2601  0.5224 -0.2008
 7326TIP3    H121923   4.262   5.216   2.953  1.2772  1.1240 -0.8161
 7326TIP3    H221924   4.176   5.323   3.018  0.9409  1.9204 -2.5145
 7327TIP3   OH221925   6.194   3.853   3.753 -0.3353 -0.1761 -0.1553
 7327TIP3    H121926   6.223   3.762   3.758 -0.3789 -0.2281 -0.7503
 7327TIP3    H221927   6.268   3.900   3.715  0.1099  0.2509  1.1604
 7328TIP3   OH221928   1.322   7.176   3.659 -0.0674  0.3608 -0.3483
 7328TIP3    H121929   1.284   7.164   3.745  1.3022 -0.3274  0.2040
 7328TIP3    H221930   1.376   7.098   3.646  0.4333  0.8631 -1.4570
 7329TIP3   OH221931   0.037   5.032   5.920 -0.0718 -0.3682  0.5258
 7329TIP3    H121932   0.120   5.078   5.931 -0.4381  0.3518  0.3963
 7329TIP3    H221933  -0.021   5.073   5.984 -0.4185 -0.6326  0.3851
 7330TIP3   OH221934   8.080   7.745   4.573 -0.1238 -0.3660 -0.2798
 7330TIP3    H121935   8.086   7.831   4.533 -0.2508  0.5477  1.5496
 7330TIP3    H221936   7.992   7.715   4.553  0.6631 -1.1823 -2.9410
 7331TIP3   OH221937   6.810   0.949   4.269 -0.5586 -0.1100  0.2441
 7331TIP3    H121938   6.842   0.897   4.196 -1.5965 -1.2301  0.5548
 7331TIP3    H221939   6.721   0.916   4.284 -1.4807  2.0988  0.1116
 7332TIP3   OH221940   3.905   3.719   2.651  0.7560 -0.2429 -0.2246
 7332TIP3    H121941   3.909   3.647   2.588  0.3579 -0.6651  0.2300
 7332TIP3    H221942   3.814   3.749   2.647  1.4529  1.9120 -2.2538
 7333TIP3   OH221943   0.142   4.098   6.101  0.1621 -0.5308  0.2244
 7333TIP3    H121944   0.133   4.188   6.070  0.4228 -0.9383 -1.0961
 7333TIP3    H221945   0.076   4.049   6.052 -0.1808 -1.0270  1.1394
 7334TIP3   OH221946   3.729   4.107   4.260  0.1685  0.1463  0.0498
 7334TIP3    H121947   3.776   4.026   4.241 -0.4152 -0.1187 -0.2801
 7334TIP3    H221948   3.690   4.132   4.176  0.5211  0.8865  0.0972
 7335TIP3   OH221949   3.423   1.508   4.709  0.1521  0.7143  0.0670
 7335TIP3    H121950   3.409   1.601   4.724 -0.8255  0.5440  0.3088
 7335TIP3    H221951   3.378   1.465   4.782  0.1542  0.0379 -0.3195
 7336TIP3   OH221952   4.900   7.296   4.506  0.4001 -0.0749 -0.5833
 7336TIP3    H121953   4.970   7.287   4.571 -0.4956 -1.0199  0.2784
 7336TIP3    H221954   4.828   7.338   4.553 -0.6615 -1.7633 -0.6062
 7337TIP3   OH221955   1.815   1.548   2.031 -0.6883  0.0666  0.5399
 7337TIP3    H121956   1.877   1.511   1.968  0.2690  0.9699  0.9188
 7337TIP3    H221957   1.828   1.496   2.111 -0.2845  0.3640  0.6711
 7338TIP3   OH221958   1.109   2.867   0.817 -0.7822  0.6883  0.3050
 7338TIP3    H121959   1.127   2.887   0.909 -1.7697  3.5455 -0.0072
 7338TIP3    H221960   1.089   2.774   0.816 -1.8437  0.7765  3.1828
 7339TIP3   OH221961   4.820   3.621   2.398 -0.1818 -0.3012  0.1970
 7339TIP3    H121962   4.788   3.535   2.426  0.3631 -1.1133 -1.5215
 7339TIP3    H221963   4.909   3.626   2.433 -0.3287 -0.2892  0.5768
 7340TIP3   OH221964   7.995   1.110   5.344  0.0667  0.0750 -0.0078
 7340TIP3    H121965   8.020   1.203   5.345 -3.2180  1.1539 -1.3260
 7340TIP3    H221966   7.964   1.095   5.254 -1.6790 -1.5926  0.8111
 7341TIP3   OH221967   5.297   6.412   6.687  0.5903  0.3030 -0.5841
 7341TIP3    H121968   5.213   6.450   6.712 -0.4281 -0.6035 -2.4035
 7341TIP3    H221969   5.358   6.443   6.754 -0.9879  1.7276  0.2856
 7342TIP3   OH221970   4.391   5.420   2.404  0.5427  0.7374  0.5217
 7342TIP3    H121971   4.461   5.382   2.352 -0.5146 -1.2359  0.4297
 7342TIP3    H221972   4.330   5.457   2.340 -0.7049 -1.5963  0.2383
 7343TIP3   OH221973   7.598   1.619   2.205 -0.5925 -0.0149  0.6018
 7343TIP3    H121974   7.589   1.678   2.130  0.0504 -0.3257  0.2633
 7343TIP3    H221975   7.630   1.675   2.276  1.0439 -0.1054 -0.0055
 7344TIP3   OH221976   2.799   4.719   0.506 -0.1362 -0.0780  0.2527
 7344TIP3    H121977   2.849   4.796   0.533 -1.6030  1.1091 -0.2528
 7344TIP3    H221978   2.750   4.748   0.429 -1.1523 -1.3579  0.3840
 7345TIP3   OH221979   1.722   5.266   4.351 -0.0343  1.3426  1.3966
 7345TIP3    H121980   1.646   5.287   4.296  1.4974 -0.7461 -1.8663
 7345TIP3    H221981   1.796   5.275   4.292  1.7037 -2.0323  2.7821
 7346TIP3   OH221982   5.039   4.095   6.354  0.3628 -0.3036 -0.4300
 7346TIP3    H121983   5.070   4.010   6.386  0.9589  0.1026  0.0970
 7346TIP3    H221984   5.039   4.151   6.432 -0.7973 -0.0342 -0.6182
 7347TIP3   OH221985   6.131   5.507   4.870 -0.1649 -0.0432  0.2767
 7347TIP3    H121986   6.137   5.427   4.923  2.2573 -0.7044 -0.8431
 7347TIP3    H221987   6.181   5.572   4.919  0.6630 -0.1758 -0.3873
 7348TIP3   OH221988   3.119   4.835   6.066  0.4047  0.5854 -0.4228
 7348TIP3    H121989   3.073   4.812   5.985  0.2729  0.0532 -0.2013
 7348TIP3    H221990   3.140   4.928   6.056 -1.8233  1.2030 -0.0075
 7349TIP3   OH221991   5.264   6.389   3.024  0.0949 -0.1450  0.6218
 7349TIP3    H121992   5.225   6.476   3.013  1.0241  0.1238 -0.6957
 7349TIP3    H221993   5.264   6.376   3.119 -1.9603  0.3861  0.7510
 7350TIP3   OH221994   7.624   1.000   3.684  0.3301  0.4454  0.5238
 7350TIP3    H121995   7.543   1.010   3.734  0.6820  0.5059  1.0992
 7350TIP3    H221996   7.681   0.947   3.741  0.5113 -0.0307 -0.0911
 7351TIP3   OH221997   1.848   4.224   2.326  0.2324  0.0595  0.0839
 7351TIP3    H121998   1.942   4.242   2.331  0.2571 -0.1740  0.5128
 7351TIP3    H221999   1.830   4.173   2.404  0.2957 -2.2666 -1.3119
 7352TIP3   OH222000   3.112   1.818   0.315  0.4111 -0.0146 -0.2173
 7352TIP3    H122001   3.108   1.862   0.231  1.1390  0.3072 -0.0932
 7352TIP3    H222002   3.091   1.886   0.379 -2.2072 -0.7147 -0.2329
 7353TIP3   OH222003   1.324   6.046   5.499 -1.0222  0.1380  0.1593
 7353TIP3    H122004   1.371   6.092   5.429  1.3899 -0.5203  1.2503
 7353TIP3    H222005   1.304   5.960   5.462  0.5054 -0.3144  0.3282
 7354TIP3   OH222006   2.103   6.307   0.638 -0.1001 -0.2446 -0.6471
 7354TIP3    H122007   2.180   6.315   0.694  0.3638 -0.8937 -1.1720
 7354TIP3    H222008   2.127   6.352   0.557 -0.5748  0.2490 -0.5196
 7355TIP3   OH222009   5.427   1.307   5.359 -0.3756  0.2367  0.0375
 7355TIP3    H122010   5.366   1.250   5.313  0.2984 -0.9439  0.5581
 7355TIP3    H222011   5.508   1.255   5.365  0.1745  1.1474  0.7667
 7356TIP3   OH222012   3.158   2.248   4.343 -0.2355 -0.1480 -0.3746
 7356TIP3    H122013   3.246   2.221   4.371 -0.2593  1.0963  1.0448
 7356TIP3    H222014   3.131   2.181   4.281  1.3650 -1.0328 -0.1771
 7357TIP3   OH222015   1.785   0.511   0.754 -0.3329 -0.0062  0.2253
 7357TIP3    H122016   1.879   0.521   0.768 -0.0318 -1.0365 -0.8398
 7357TIP3    H222017   1.744   0.563   0.823  1.0119  0.1262  0.9492
 7358TIP3   OH222018   6.298   2.784   4.567  0.0777 -0.3458 -0.3781
 7358TIP3    H122019   6.256   2.717   4.622  0.5632  0.2624  0.7675
 7358TIP3    H222020   6.277   2.757   4.477 -0.3302 -1.6437  0.0724
 7359TIP3   OH222021   5.190   4.010   0.893 -0.1088 -0.0375 -0.4318
 7359TIP3    H122022   5.232   3.955   0.827  0.0536 -0.3772 -0.0457
 7359TIP3    H222023   5.138   4.072   0.842  0.2991 -0.0627 -0.8950
 7360TIP3   OH222024   7.761   3.126   1.051  0.8233 -0.2275  0.2613
 7360TIP3    H122025   7.784   3.099   1.140  0.9400  0.3496  0.4087
 7360TIP3    H222026   7.691   3.191   1.063  0.0126 -1.0116 -0.1231
 7361TIP3   OH222027   0.804   2.105   6.507  0.2858  0.5449  0.6617
 7361TIP3    H122028   0.762   2.183   6.544 -1.1612  0.6246 -1.0335
 7361TIP3    H222029   0.872   2.140   6.449  1.3972  0.4484  1.8531
 7362TIP3   OH222030   1.202   0.995   1.914  0.0386 -0.8928  0.2557
 7362TIP3    H122031   1.258   1.069   1.938 -0.2495 -0.3003 -0.8345
 7362TIP3    H222032   1.197   0.942   1.993 -0.5859  0.7829  1.3869
 7363TIP3   OH222033   1.844   3.379   1.590 -0.1432 -0.2902 -0.3314
 7363TIP3    H122034   1.890   3.307   1.631  1.4270  0.6105 -0.4369
 7363TIP3    H222035   1.788   3.415   1.659  1.8955  0.7315  0.8924
 7364TIP3   OH222036   1.089   3.901   6.406 -0.4579  0.1325 -0.1123
 7364TIP3    H122037   1.026   3.968   6.432 -0.8571  0.1510 -1.0899
 7364TIP3    H222038   1.116   3.861   6.488 -2.9784 -1.0058  0.2608
 7365TIP3   OH222039   4.097   6.714   3.686 -0.4860 -0.2415  0.4004
 7365TIP3    H122040   4.136   6.680   3.605  0.3551  1.8681 -0.1345
 7365TIP3    H222041   4.004   6.691   3.678 -0.4702  0.1055 -1.2742
 7366TIP3   OH222042   6.578   6.231   1.629 -0.0552 -0.0210 -0.1982
 7366TIP3    H122043   6.511   6.273   1.575 -1.4171  1.2849  2.3698
 7366TIP3    H222044   6.592   6.291   1.702  0.6234 -2.3319  1.7127
 7367TIP3   OH222045   6.832   1.743   6.377  0.5710 -0.3263 -0.7309
 7367TIP3    H122046   6.782   1.666   6.405  2.0253 -1.2815 -0.6892
 7367TIP3    H222047   6.862   1.722   6.289  1.5996 -0.1161 -0.4359
 7368TIP3   OH222048   6.757   7.270   3.132  0.3310 -0.2276 -0.0197
 7368TIP3    H122049   6.729   7.324   3.206  2.3713  1.3377 -0.3059
 7368TIP3    H222050   6.853   7.268   3.139  0.5485 -0.3694 -2.3630
 7369TIP3   OH222051   6.129   2.142   0.413 -0.6256  0.0258 -0.4483
 7369TIP3    H122052   6.218   2.166   0.388 -1.1425  2.4796 -0.2110
 7369TIP3    H222053   6.091   2.104   0.334  0.1196  0.5278 -1.0536
 7370TIP3   OH222054   4.809   1.151   4.423  0.4257  0.0252 -0.1634
 7370TIP3    H122055   4.896   1.148   4.464  0.7653  0.3047 -0.8382
 7370TIP3    H222056   4.814   1.085   4.353 -0.0629 -0.2821  0.0878
 7371TIP3   OH222057   6.457   5.877   1.889 -0.6090 -0.3314  0.0298
 7371TIP3    H122058   6.495   5.924   1.963 -0.9790 -0.4013  0.2693
 7371TIP3    H222059   6.424   5.946   1.832 -1.7250 -0.2997  0.6880
 7372TIP3   OH222060   0.515   0.064   2.240  0.2459  0.6928 -0.7979
 7372TIP3    H122061   0.532   0.158   2.239  0.5433  0.6342 -1.0321
 7372TIP3    H222062   0.561   0.032   2.318 -0.7707  0.9143 -0.0808
 7373TIP3   OH222063   2.394   4.706   2.655 -0.0488  0.5869 -0.2367
 7373TIP3    H122064   2.468   4.754   2.693  2.4030 -3.7674  1.2099
 7373TIP3    H222065   2.421   4.686   2.565  0.8588 -1.3387  0.4114
 7374TIP3   OH222066   3.921   3.979   1.661 -0.1915 -0.6107 -0.0596
 7374TIP3    H122067   3.837   3.996   1.618  0.3280 -1.6899 -1.6164
 7374TIP3    H222068   3.986   3.989   1.591  0.7808 -1.6946  0.6382
 7375TIP3   OH222069   7.464   3.597   3.010 -0.2668  0.2912  0.3283
 7375TIP3    H122070   7.552   3.606   2.975 -0.4214  1.7922  0.2629
 7375TIP3    H222071   7.467   3.517   3.062  0.7126 -0.4729 -0.8630
 7376TIP3   OH222072   4.923   0.573   0.050  0.1939  0.1385  0.6358
 7376TIP3    H122073   4.956   0.489   0.083 -2.8224 -1.0604  1.0328
 7376TIP3    H222074   4.970   0.587  -0.032  0.5777 -2.1593  0.3906
 7377TIP3   OH222075   3.604   1.057   5.848 -0.2500 -0.5907  0.5019
 7377TIP3    H122076   3.532   0.995   5.858 -2.2348  1.5779  0.5910
 7377TIP3    H222077   3.617   1.092   5.937  0.8930 -0.8989  0.4715
 7378TIP3   OH222078   4.559   2.920   0.355  0.4264 -0.0711  0.5217
 7378TIP3    H122079   4.557   2.900   0.448 -0.2149 -0.7603  0.3743
 7378TIP3    H222080   4.652   2.916   0.331  0.5793 -0.0032  1.1037
 7379TIP3   OH222081   2.730   5.260   4.991  0.0333 -0.1273  0.4411
 7379TIP3    H122082   2.685   5.339   5.021  1.6364  0.5569  1.1947
 7379TIP3    H222083   2.822   5.286   4.985  0.6364 -1.9876  0.9086
 7380TIP3   OH222084   5.228   3.803   3.536  0.0342  0.2390 -0.0932
 7380TIP3    H122085   5.198   3.864   3.468  1.0765 -0.8195 -1.5899
 7380TIP3    H222086   5.290   3.745   3.490  1.5845  0.1121  2.0198
 7381TIP3   OH222087   5.051   1.147   4.542  0.1120 -0.8350 -0.8755
 7381TIP3    H122088   5.121   1.208   4.567  0.8049 -1.8621 -0.2201
 7381TIP3    H222089   5.089   1.060   4.557 -2.0606 -1.4540  1.8521
 7382TIP3   OH222090   6.981   3.067   2.660  0.1376  0.2374  0.4667
 7382TIP3    H122091   7.043   3.088   2.731  0.9585  0.3045 -0.2550
 7382TIP3    H222092   7.036   3.031   2.591 -0.7481 -0.4574  0.1163
 7383TIP3   OH222093   1.308   5.819   3.334 -0.2670  0.1911  0.8007
 7383TIP3    H122094   1.390   5.847   3.373 -0.0007 -0.5140  0.7767
 7383TIP3    H222095   1.250   5.803   3.408  0.7061 -2.6042  1.0864
 7384TIP3   OH222096   2.793   4.111   2.322  0.4599 -0.2689  0.1744
 7384TIP3    H122097   2.732   4.098   2.394  1.0919  1.4890  1.0769
 7384TIP3    H222098   2.804   4.024   2.284 -1.1041 -0.9487  1.1877
 7385TIP3   OH222099   6.963   4.419   3.078  0.9019  0.7305  0.2675
 7385TIP3    H122100   7.000   4.332   3.062  0.9785  0.8366 -0.1443
 7385TIP3    H222101   7.008   4.476   3.015  0.9562  1.0955  0.6313
 7386TIP3   OH222102   4.692   6.652   2.657 -0.2654 -0.4491  0.0959
 7386TIP3    H122103   4.622   6.599   2.695 -0.7085 -1.8078 -2.4050
 7386TIP3    H222104   4.767   6.638   2.716 -1.2526 -1.3558  1.1803
 7387TIP3   OH222105   3.834   4.398   5.480  0.3389 -0.8022  0.0257
 7387TIP3    H122106   3.751   4.431   5.445  1.1925  1.2410 -0.2710
 7387TIP3    H222107   3.896   4.409   5.407  1.6320  1.2505  1.3255
 7388TIP3   OH222108   0.706   5.641   4.558 -0.1350  0.2111  0.0585
 7388TIP3    H122109   0.771   5.592   4.507  2.4309  1.6474  1.7255
 7388TIP3    H222110   0.723   5.733   4.536 -1.7198  0.6316  0.4618
 7389TIP3   OH222111   4.426   3.621   4.063 -0.4374 -0.0830  0.2772
 7389TIP3    H122112   4.489   3.689   4.086  0.1830 -0.4181 -0.4080
 7389TIP3    H222113   4.397   3.585   4.148 -1.5121  1.6727  0.6987
 7390TIP3   OH222114   0.241   0.758   0.414 -0.2075  0.3559 -0.0811
 7390TIP3    H122115   0.198   0.735   0.332 -1.4588  0.6603  0.4723
 7390TIP3    H222116   0.273   0.674   0.448 -1.2751 -0.0385 -0.0055
 7391TIP3   OH222117   6.326   3.249   1.526 -0.1375  0.0805  0.9059
 7391TIP3    H122118   6.276   3.326   1.500  1.1423  0.0894 -1.8261
 7391TIP3    H222119   6.275   3.175   1.493 -0.6606 -0.1995  2.2887
 7392TIP3   OH222120   2.724   2.258   6.081  0.8017  0.4659 -0.7543
 7392TIP3    H122121   2.673   2.329   6.120  1.3092  0.2077  0.4310
 7392TIP3    H222122   2.665   2.183   6.082  0.8717  0.4140 -0.2922
 7393TIP3   OH222123   3.358   0.859   3.060 -0.7181  0.2468 -0.3748
 7393TIP3    H122124   3.308   0.798   3.006  1.3383 -1.4428 -0.5377
 7393TIP3    H222125   3.379   0.932   3.002 -0.0265 -0.7196 -1.3874
 7394TIP3   OH222126   2.471   6.690   6.421  0.0872 -0.0582 -0.4764
 7394TIP3    H122127   2.471   6.632   6.497 -1.3701  1.1440  0.4986
 7394TIP3    H222128   2.555   6.673   6.378  0.8112 -1.0017  1.2029
 7395TIP3   OH222129   0.977   2.986   4.718 -0.0481 -0.0505  0.4159
 7395TIP3    H122130   0.927   2.935   4.782 -2.7559  1.2436 -0.5166
 7395TIP3    H222131   0.953   2.948   4.633  1.0196  0.2714 -0.0442
 7396TIP3   OH222132   3.711   3.476   5.252  0.7972  0.3733  0.2221
 7396TIP3    H122133   3.642   3.426   5.296 -0.7444  1.0972 -1.2491
 7396TIP3    H222134   3.679   3.567   5.253  1.6687  0.7035 -0.5928
 7397TIP3   OH222135   1.597   3.702   5.069  0.4452  0.5406 -0.6459
 7397TIP3    H122136   1.612   3.675   5.160 -2.2524 -1.9988 -0.8064
 7397TIP3    H222137   1.529   3.769   5.075 -0.4405 -0.3206 -0.7863
 7398TIP3   OH222138   3.936   0.222   4.362  0.4760  0.8979 -0.2325
 7398TIP3    H122139   4.026   0.192   4.346  0.1379 -1.0163  1.0996
 7398TIP3    H222140   3.881   0.167   4.306  0.0284  0.9227  0.1750
 7399TIP3   OH222141   0.062   1.997   5.600 -0.3790  0.4460 -0.0061
 7399TIP3    H122142   0.112   1.926   5.561 -1.3382  0.5178 -1.4233
 7399TIP3    H222143   0.125   2.069   5.606  0.5286 -0.4048  1.2122
 7400TIP3   OH222144   1.247   3.101   2.391 -0.2234  0.4095  0.0147
 7400TIP3    H122145   1.203   3.178   2.355  1.1594  1.3466  0.2230
 7400TIP3    H222146   1.338   3.129   2.402  0.2385 -1.1555  0.4315
 7401TIP3   OH222147   7.275   2.774   4.894 -0.2340  0.0275  0.4670
 7401TIP3    H122148   7.308   2.832   4.825 -1.4669 -0.2040 -0.3692
 7401TIP3    H222149   7.313   2.808   4.975  2.7793 -0.8024 -0.4616
 7402TIP3   OH222150   7.939   3.704   3.414 -0.6414 -0.3615  0.0592
 7402TIP3    H122151   7.898   3.700   3.500  0.0821 -0.9594  0.3779
 7402TIP3    H222152   7.875   3.751   3.360 -0.5550  1.2003  1.2291
 7403TIP3   OH222153   0.049   4.968   3.392 -0.3179 -0.2744  0.1679
 7403TIP3    H122154  -0.026   4.977   3.450  0.1189 -0.4349  0.7660
 7403TIP3    H222155   0.065   5.056   3.360 -2.3999 -0.5903 -2.0966
 7404TIP3   OH222156   5.441   3.081   0.165 -0.0955 -0.8527 -0.3532
 7404TIP3    H122157   5.398   3.129   0.236 -1.7640 -0.2283 -1.7185
 7404TIP3    H222158   5.370   3.033   0.122  0.8619 -1.1615 -1.6440
 7405TIP3   OH222159   0.277   5.974   4.904  0.0162 -0.5522 -0.0729
 7405TIP3    H122160   0.301   5.895   4.856 -0.5381 -0.8172  0.0743
 7405TIP3    H222161   0.281   5.948   4.996  1.3014  0.0149  0.0509
 7406TIP3   OH222162   4.629   1.825   4.940 -0.1555 -0.0616  0.4748
 7406TIP3    H122163   4.542   1.803   4.974  1.1378 -2.8882  2.3094
 7406TIP3    H222164   4.653   1.906   4.985 -1.2069 -0.0717  1.0809
 7407TIP3   OH222165   0.432   3.326   4.569 -0.2685  0.0208  0.3228
 7407TIP3    H122166   0.493   3.382   4.522 -1.2351  0.3580 -0.5660
 7407TIP3    H222167   0.422   3.249   4.513 -0.5381 -0.1010  0.5327
 7408TIP3   OH222168   6.634   0.433   2.317 -0.2736 -0.0116 -0.1924
 7408TIP3    H122169   6.727   0.432   2.339 -0.6338  0.5141  1.4849
 7408TIP3    H222170   6.607   0.524   2.330 -1.1024 -0.2229 -0.3281
 7409TIP3   OH222171   6.182   3.626   1.747 -0.2698  0.2786  0.1328
 7409TIP3    H122172   6.099   3.645   1.790  0.4591  0.2583  1.6244
 7409TIP3    H222173   6.212   3.710   1.714 -0.4208  0.4672  0.4666
 7410TIP3   OH222174   8.309   1.107   1.922 -0.3379  0.2817  0.0582
 7410TIP3    H122175   8.246   1.035   1.928  1.0843 -0.9381  1.3457
 7410TIP3    H222176   8.259   1.184   1.948 -1.4009 -0.5883  0.6873
 7411TIP3   OH222177   1.360   4.820   1.863  0.6693 -0.0114 -0.7464
 7411TIP3    H122178   1.440   4.771   1.880  1.5320  1.9621  1.3986
 7411TIP3    H222179   1.290   4.763   1.893  1.0601 -2.1751 -3.5259
 7412TIP3   OH222180   7.462   1.337   6.167  0.0247  0.5501  0.0460
 7412TIP3    H122181   7.497   1.249   6.156  1.1129  0.9253  0.3804
 7412TIP3    H222182   7.525   1.381   6.223 -0.6804  1.4490  0.1640
 7413TIP3   OH222183   8.105   2.981   1.706 -0.2142  0.3647  0.3147
 7413TIP3    H122184   8.189   3.020   1.685  0.9387 -2.6070 -1.1901
 7413TIP3    H222185   8.066   2.959   1.622 -2.2771  1.1119  0.9972
 7414TIP3   OH222186   3.086   3.685   4.583 -0.1785  0.3558  0.1643
 7414TIP3    H122187   3.039   3.761   4.548  0.4606  0.1901 -1.1063
 7414TIP3    H222188   3.154   3.723   4.639  1.8946  0.9563 -2.5364
 7415TIP3   OH222189   0.428   2.237   2.486  0.3930 -0.2620 -0.7012
 7415TIP3    H122190   0.407   2.308   2.548  1.1656  0.2451 -1.0032
 7415TIP3    H222191   0.478   2.280   2.417  3.1687 -1.4952  0.3742
 7416TIP3   OH222192   4.898   0.336   2.292 -0.2648  0.0191 -0.4998
 7416TIP3    H122193   4.993   0.348   2.288 -0.1856 -0.2688  0.3984
 7416TIP3    H222194   4.887   0.246   2.324 -0.8422  0.0197 -0.6915
 7417TIP3   OH222195   4.876   5.341   4.391 -0.1688  0.0758 -0.0450
 7417TIP3    H122196   4.969   5.320   4.380 -0.4355 -0.7073 -0.9667
 7417TIP3    H222197   4.866   5.426   4.348  0.2450  0.5056  0.6782
 7418TIP3   OH222198   3.320   6.872   6.375 -0.1021  0.1744  0.3340
 7418TIP3    H122199   3.352   6.782   6.373  1.8473  0.7443  1.8490
 7418TIP3    H222200   3.286   6.883   6.464  1.0915  1.3219  0.6902
 7419TIP3   OH222201   5.126   2.539   6.383 -0.0355  0.0580 -0.0125
 7419TIP3    H122202   5.222   2.534   6.379  0.0306  0.5523  0.7347
 7419TIP3    H222203   5.096   2.471   6.323  0.7913  0.7694 -1.2742
 7420TIP3   OH222204   2.309   0.657   1.709 -0.0086  0.1197  0.3592
 7420TIP3    H122205   2.254   0.717   1.760 -0.3324 -1.0575  1.4527
 7420TIP3    H222206   2.286   0.675   1.618  0.1240  1.8453  0.6362
 7421TIP3   OH222207   3.039   2.233   5.160  0.0054  0.1837  0.1435
 7421TIP3    H122208   2.956   2.246   5.206  0.8220  0.8909  1.4916
 7421TIP3    H222209   3.072   2.322   5.144  1.4667 -0.0611  1.5145
 7422TIP3   OH222210   4.844   6.840   4.245 -0.3246  0.0975  0.1367
 7422TIP3    H122211   4.766   6.824   4.299  1.0043 -1.6201  1.7082
 7422TIP3    H222212   4.861   6.934   4.254 -0.8807  0.0817  1.7649
 7423TIP3   OH222213   8.272   7.727   4.789  0.4939  0.1169  0.2183
 7423TIP3    H122214   8.190   7.713   4.741  0.7296  0.8925 -0.4266
 7423TIP3    H222215   8.296   7.817   4.770  1.9798 -0.3731 -0.3289
 7424TIP3   OH222216   2.849   5.892   2.329 -0.6046 -0.3021  0.3147
 7424TIP3    H122217   2.787   5.915   2.260  0.6468  1.5887 -0.2786
 7424TIP3    H222218   2.819   5.941   2.406 -0.3546 -0.0631  0.2640
 7425TIP3   OH222219   7.656   1.012   2.098  0.2161  0.1250  0.3714
 7425TIP3    H122220   7.644   1.106   2.084  0.1083 -0.0816 -1.0173
 7425TIP3    H222221   7.750   0.998   2.090  0.0962 -0.0888 -0.9387
 7426TIP3   OH222222   5.510   6.670   0.885  0.3281 -0.4185 -0.2497
 7426TIP3    H122223   5.542   6.753   0.923 -1.4960  0.1122  0.2125
 7426TIP3    H222224   5.535   6.675   0.793  1.8851 -0.2198  0.1479
 7427TIP3   OH222225   3.937   5.521   1.208  0.6708 -0.1266 -0.7138
 7427TIP3    H122226   3.951   5.578   1.283  1.4059  1.2384 -1.8273
 7427TIP3    H222227   4.021   5.519   1.163 -0.1211  0.3054 -2.2926
 7428TIP3   OH222228   6.161   5.628   5.401  0.8208 -0.3031 -0.3858
 7428TIP3    H122229   6.109   5.615   5.322  0.4562 -0.3752 -0.1409
 7428TIP3    H222230   6.249   5.648   5.370  0.2095  1.9536 -0.8872
 7429TIP3   OH222231   0.206   2.180   4.422 -0.1145 -0.0940  0.5782
 7429TIP3    H122232   0.205   2.271   4.451  0.1969  0.3595 -0.7578
 7429TIP3    H222233   0.292   2.169   4.381  0.3364 -1.3545  1.7788
 7430TIP3   OH222234   8.163   6.634   3.474 -0.0055 -0.4112 -0.5836
 7430TIP3    H122235   8.075   6.599   3.463 -0.1307 -0.0404 -0.7726
 7430TIP3    H222236   8.194   6.648   3.384  0.3443 -0.7800 -0.5252
 7431TIP3   OH222237   2.955   4.734   0.199 -0.1828 -0.2070  0.2631
 7431TIP3    H122238   2.893   4.691   0.140 -1.6985  0.1402  1.5482
 7431TIP3    H222239   3.037   4.738   0.149 -1.1266 -0.8530 -1.4014
 7432TIP3   OH222240   7.243   7.076   1.443 -0.6656  0.1875  0.0098
 7432TIP3    H122241   7.195   7.071   1.527 -0.8643 -0.5356 -0.1387
 7432TIP3    H222242   7.181   7.118   1.383 -0.5006  0.7626  0.2371
 7433TIP3   OH222243   1.644   2.587   5.699 -0.1148 -0.1608 -0.1387
 7433TIP3    H122244   1.565   2.547   5.662 -0.7769  0.0225  1.0318
 7433TIP3    H222245   1.684   2.633   5.625 -0.7304 -0.8131 -0.9075
 7434TIP3   OH222246   3.184   4.435   6.688 -0.4441  0.6320 -0.1011
 7434TIP3    H122247   3.260   4.489   6.712  0.3140  0.3817 -1.7915
 7434TIP3    H222248   3.170   4.378   6.764  1.5267  0.1945 -0.0094
 7435TIP3   OH222249   4.280   7.097   1.496  0.3246 -0.1350  0.0139
 7435TIP3    H122250   4.217   7.160   1.533 -1.1284 -1.4791 -0.0546
 7435TIP3    H222251   4.333   7.070   1.570 -0.1818 -0.1033  0.3955
 7436TIP3   OH222252   0.104   0.617   5.097 -0.2148  0.7845 -0.2954
 7436TIP3    H122253   0.166   0.547   5.118 -0.9673 -0.5912 -2.3188
 7436TIP3    H222254   0.093   0.666   5.178  1.4095 -0.6096  0.8096
 7437TIP3   OH222255   1.425   7.676   4.236 -0.0630 -0.4419 -0.6958
 7437TIP3    H122256   1.368   7.740   4.195  0.6898  1.4020  0.9815
 7437TIP3    H222257   1.365   7.616   4.282 -0.7238  0.6275 -0.1244
 7438TIP3   OH222258   7.501   4.967   3.794  0.0741  0.0082  0.3253
 7438TIP3    H122259   7.473   5.043   3.844  2.3293  1.3324 -0.2759
 7438TIP3    H222260   7.496   4.996   3.702 -0.9607 -1.2928 -0.0632
 7439TIP3   OH222261   3.074   1.037   5.508 -0.2142 -0.0235  0.1236
 7439TIP3    H122262   3.136   1.065   5.440  1.1562 -0.5569  1.1098
 7439TIP3    H222263   3.111   1.070   5.590 -1.5539  0.1394  0.6906
 7440TIP3   OH222264   2.358   4.790   5.418  0.1355 -0.3330  0.2528
 7440TIP3    H122265   2.403   4.710   5.445 -0.7979 -0.7845  0.4936
 7440TIP3    H222266   2.336   4.834   5.500 -0.7303 -0.6090  0.1823
 7441TIP3   OH222267   0.508   7.237   5.977  0.3580 -0.2359  0.0848
 7441TIP3    H122268   0.488   7.306   5.913 -1.1278  0.1117  0.8838
 7441TIP3    H222269   0.597   7.258   6.007 -0.2713  1.7168  0.7553
 7442TIP3   OH222270   6.376   1.224   2.908  0.2683 -0.0117  0.0731
 7442TIP3    H122271   6.432   1.300   2.923 -1.1526  1.4426 -1.6688
 7442TIP3    H222272   6.376   1.212   2.813  0.2568 -2.0716  0.2912
 7443TIP3   OH222273   3.011   5.764   0.201 -0.0995  0.0625 -0.1551
 7443TIP3    H122274   2.975   5.825   0.266  2.2814  0.4740  0.8571
 7443TIP3    H222275   3.031   5.819   0.125  1.9472  0.6129  0.7191
 7444TIP3   OH222276   6.840   3.565   0.698  0.3053  0.9745  0.2792
 7444TIP3    H122277   6.877   3.509   0.766  1.1912 -1.3603 -1.9977
 7444TIP3    H222278   6.912   3.581   0.637 -1.1481  0.5104 -1.6426
 7445TIP3   OH222279   4.453   2.686   0.510 -0.3577 -0.0364  0.5361
 7445TIP3    H122280   4.367   2.727   0.494 -0.1575  0.5104  0.8366
 7445TIP3    H222281   4.475   2.644   0.427 -0.7697  0.1031  0.3526
 7446TIP3   OH222282   7.093   4.312   2.483 -0.1186 -0.3089 -0.2345
 7446TIP3    H122283   7.123   4.229   2.446  0.1264 -0.8951  1.2010
 7446TIP3    H222284   7.149   4.326   2.559 -0.7397  0.7364  0.0540
 7447TIP3   OH222285   3.263   0.461   4.140 -0.5869  0.2792 -0.3221
 7447TIP3    H122286   3.271   0.438   4.047 -0.3876 -0.0174 -0.2307
 7447TIP3    H222287   3.220   0.386   4.180 -0.9713  0.5467 -0.2336
 7448TIP3   OH222288   5.635   6.946   0.408  0.6019 -0.5747 -0.4296
 7448TIP3    H122289   5.596   7.030   0.383  1.2862 -0.2704 -0.5082
 7448TIP3    H222290   5.728   6.956   0.387  0.4104 -2.0194 -2.2147
 7449TIP3   OH222291   4.403   0.622   0.940  0.6981  0.1570  0.1220
 7449TIP3    H122292   4.484   0.671   0.951  1.9462 -1.8285  0.2439
 7449TIP3    H222293   4.419   0.565   0.864 -0.8396  0.1851 -0.2651
 7450TIP3   OH222294   0.717   0.787   3.385 -0.3373  0.1428  0.0082
 7450TIP3    H122295   0.777   0.718   3.357  0.8954 -0.0534  2.7828
 7450TIP3    H222296   0.767   0.868   3.377  0.2601  0.0187  1.9940
 7451TIP3   OH222297   3.065   5.061   1.113  0.3389  0.0123  0.4753
 7451TIP3    H122298   3.091   5.152   1.126  1.4252  0.1300 -2.0249
 7451TIP3    H222299   3.143   5.019   1.077 -0.9587 -1.2131 -1.0743
 7452TIP3   OH222300   5.153   1.787   1.928  0.3190  0.0124  1.0671
 7452TIP3    H122301   5.133   1.814   1.839 -1.6295  0.8482  1.7048
 7452TIP3    H222302   5.249   1.785   1.931  0.4878  1.9259 -0.4884
 7453TIP3   OH222303   7.315   3.314   2.659  0.1988  0.3493  0.1761
 7453TIP3    H122304   7.252   3.286   2.592  0.3063  1.3752 -0.3646
 7453TIP3    H222305   7.260   3.353   2.728  0.2290  1.0378 -0.1915
 7454TIP3   OH222306   1.720   0.282   4.637 -0.7812  0.6851 -0.3434
 7454TIP3    H122307   1.642   0.307   4.588 -1.0508 -0.4838 -0.5390
 7454TIP3    H222308   1.721   0.186   4.633  1.2448  0.7088 -1.2389
 7455TIP3   OH222309   3.917   5.738   5.808 -0.8570 -0.3904  0.0230
 7455TIP3    H122310   3.939   5.752   5.716 -1.2787 -0.5740 -0.1077
 7455TIP3    H222311   3.956   5.653   5.829 -0.3106 -0.1153  0.1670
 7456TIP3   OH222312   7.793   5.119   3.581  0.2781  0.0644  0.6354
 7456TIP3    H122313   7.827   5.076   3.503  0.1133  0.9575  0.0553
 7456TIP3    H222314   7.698   5.107   3.576  0.1943  0.8422  0.2487
 7457TIP3   OH222315   5.364   5.565   5.234  0.7875 -0.7656 -0.5312
 7457TIP3    H122316   5.425   5.589   5.304  0.9070  0.1483 -0.9282
 7457TIP3    H222317   5.393   5.480   5.204  0.5632 -1.3079  0.7211
 7458TIP3   OH222318   4.182   2.930   3.288  0.2594 -0.1176 -0.0911
 7458TIP3    H122319   4.097   2.916   3.330  1.0858  2.3102  2.7638
 7458TIP3    H222320   4.177   3.019   3.252  1.8964  0.5652  1.2135
 7459TIP3   OH222321   7.545   5.301   3.180 -0.2282 -0.3086 -0.3055
 7459TIP3    H122322   7.556   5.353   3.260  0.7307 -1.2435  0.2038
 7459TIP3    H222323   7.591   5.219   3.199  0.3219 -0.4101 -1.9565
 7460TIP3   OH222324   0.699   2.303   4.124  0.1019 -0.4870 -0.5419
 7460TIP3    H122325   0.780   2.319   4.075  0.7298 -0.2930  0.5388
 7460TIP3    H222326   0.632   2.348   4.073  0.6109 -0.8820 -1.6036
 7461TIP3   OH222327   4.197   4.457   1.190  0.3801  0.3721 -0.7803
 7461TIP3    H122328   4.204   4.423   1.280  1.8341  2.3211 -0.0830
 7461TIP3    H222329   4.243   4.391   1.137  0.0433 -0.4996 -0.0272
 7462TIP3   OH222330   7.970   2.065   1.397  0.1185  0.5841 -0.1550
 7462TIP3    H122331   7.883   2.026   1.391 -0.5530  2.0486 -0.4471
 7462TIP3    H222332   8.018   2.029   1.322  0.1597 -1.1193  0.6605
 7463TIP3   OH222333   6.889   2.651   2.589 -0.3019 -0.0884 -0.3686
 7463TIP3    H122334   6.918   2.613   2.671 -0.0594 -0.1439 -0.4785
 7463TIP3    H222335   6.924   2.593   2.522 -2.3227 -1.2987 -0.4615
 7464TIP3   OH222336   1.652   7.247   5.463  0.0224 -0.2623  0.0642
 7464TIP3    H122337   1.657   7.319   5.400 -2.1743 -0.8775 -0.9120
 7464TIP3    H222338   1.600   7.282   5.536 -1.2439 -0.8839 -0.5138
 7465TIP3   OH222339   1.533   2.079   1.674 -0.3315  0.5536  0.0131
 7465TIP3    H122340   1.590   2.004   1.692 -0.8234  0.8841  3.8779
 7465TIP3    H222341   1.476   2.050   1.603 -1.6571 -3.4792  2.4091
 7466TIP3   OH222342   3.152   5.771   1.108  0.6493 -0.4766  0.4835
 7466TIP3    H122343   3.150   5.791   1.015 -1.2684 -1.8167  0.1835
 7466TIP3    H222344   3.181   5.680   1.112  0.6282 -0.4552  1.1952
 7467TIP3   OH222345   5.711   4.440   5.540 -0.1497 -0.3705 -0.2129
 7467TIP3    H122346   5.674   4.468   5.456  0.8319  0.7463 -0.2881
 7467TIP3    H222347   5.803   4.464   5.535 -0.1872  0.1916  1.3890
 7468TIP3   OH222348   1.858   0.841   2.714  0.3388  0.4478  0.0094
 7468TIP3    H122349   1.807   0.875   2.640  0.2352  1.1054  0.3811
 7468TIP3    H222350   1.921   0.910   2.733 -0.1152  0.5989  1.0124
 7469TIP3   OH222351   4.041   3.658   5.843 -0.5316  0.5182  0.1327
 7469TIP3    H122352   4.113   3.640   5.903 -2.2374  0.3741  2.2881
 7469TIP3    H222353   4.021   3.573   5.803 -0.0267  0.3915  0.1520
 7470TIP3   OH222354   2.392   4.791   5.142  0.0052 -0.1077 -0.1536
 7470TIP3    H122355   2.382   4.789   5.237 -1.2844 -1.7757 -0.2743
 7470TIP3    H222356   2.449   4.866   5.125 -0.4863  0.7852  1.8532
 7471TIP3   OH222357   2.018   0.767   4.052 -0.3005  0.0964 -0.2485
 7471TIP3    H122358   1.942   0.710   4.044  0.4447 -0.7707 -1.4418
 7471TIP3    H222359   2.053   0.775   3.963 -0.1393  2.1062 -0.0658
 7472TIP3   OH222360   1.020   7.220   3.826 -0.3865 -0.1852  0.0394
 7472TIP3    H122361   0.977   7.152   3.774 -0.4738  0.4782 -0.7827
 7472TIP3    H222362   0.954   7.247   3.889 -0.9667  0.3565 -0.7794
 7473TIP3   OH222363   0.279   2.399   3.512 -0.1918  0.1951  0.1804
 7473TIP3    H122364   0.198   2.437   3.477  0.9356  2.3370 -0.3118
 7473TIP3    H222365   0.283   2.312   3.474 -2.4057 -0.1012  0.4861
 7474TIP3   OH222366   0.972   3.023   6.271 -0.5821 -0.0170  0.2606
 7474TIP3    H122367   0.910   2.974   6.217 -0.2028 -1.4057  1.0320
 7474TIP3    H222368   0.924   3.101   6.299 -1.0438  0.3328 -1.3941
 7475TIP3   OH222369   1.206   2.011   5.585 -0.6351 -0.2891  0.2587
 7475TIP3    H122370   1.283   1.966   5.549 -0.1982 -0.7605  1.6841
 7475TIP3    H222371   1.215   2.000   5.680 -2.7543 -0.8384  0.4544
 7476TIP3   OH222372   1.807   5.380   3.514 -0.2534  0.0166 -0.1716
 7476TIP3    H122373   1.842   5.296   3.486  0.6952  0.3670 -0.0939
 7476TIP3    H222374   1.848   5.444   3.455  0.3930  0.5825  0.8351
 7477TIP3   OH222375   1.210   2.003   6.097 -0.2275  0.3542  0.1763
 7477TIP3    H122376   1.197   2.043   6.183 -1.3094  0.5121 -0.0383
 7477TIP3    H222377   1.293   1.956   6.104 -1.2583 -1.3750  1.9914
 7478TIP3   OH222378   4.756   4.967   4.278 -0.2367  0.4575 -0.2519
 7478TIP3    H122379   4.849   4.964   4.302 -0.1167 -2.2502 -0.7461
 7478TIP3    H222380   4.755   4.958   4.183 -0.9985 -0.4589 -0.1721
 7479TIP3   OH222381   2.821   6.061   4.955 -0.2130  0.3659  0.3074
 7479TIP3    H122382   2.801   5.990   4.894  0.3174  0.8132 -0.4089
 7479TIP3    H222383   2.908   6.091   4.929  0.9700 -0.7951  2.6248
 7480TIP3   OH222384   5.874   4.833   5.414  0.0413 -0.3340 -0.7482
 7480TIP3    H122385   5.877   4.923   5.449  0.3361 -0.1175 -1.3152
 7480TIP3    H222386   5.801   4.792   5.460 -0.7309  0.4988 -1.2076
 7481TIP3   OH222387   6.705   6.285   3.613 -0.3208 -0.3227 -0.0170
 7481TIP3    H122388   6.620   6.252   3.583  0.2845 -1.3718 -0.6183
 7481TIP3    H222389   6.769   6.227   3.572  0.6957  0.4899  0.3907
 7482TIP3   OH222390   6.672   2.091   0.308 -0.2142  0.0157  0.3915
 7482TIP3    H122391   6.614   2.016   0.301 -1.2954  0.6817  1.7377
 7482TIP3    H222392   6.616   2.162   0.339  1.0814  0.9941  0.5942
 7483TIP3   OH222393   1.239   2.852   2.496 -0.4439 -0.6653 -0.4365
 7483TIP3    H122394   1.210   2.811   2.414 -1.6886  0.8704 -0.8181
 7483TIP3    H222395   1.237   2.946   2.478 -0.1021 -0.3165  1.1719
 7484TIP3   OH222396   8.100   2.451   0.879 -0.4089  0.1761 -0.4317
 7484TIP3    H122397   8.069   2.405   0.801 -0.4480  3.1598 -2.3381
 7484TIP3    H222398   8.196   2.448   0.872 -0.3974 -0.1442 -0.1846
 7485TIP3   OH222399   6.955   1.360   2.861 -0.0679  0.1435 -0.4164
 7485TIP3    H122400   6.889   1.291   2.870  0.0420  0.1066  0.0893
 7485TIP3    H222401   6.965   1.370   2.766  0.6994 -1.2882 -0.5227
 7486TIP3   OH222402   2.613   2.459   6.249  0.4522  0.4922  0.3341
 7486TIP3    H122403   2.668   2.527   6.288  0.5291 -0.1294  1.3498
 7486TIP3    H222404   2.528   2.469   6.292 -0.3633  1.6447 -1.4444
 7487TIP3   OH222405   4.517   7.685   5.853  0.3113 -0.2748 -0.5902
 7487TIP3    H122406   4.591   7.703   5.911 -0.5251  1.4680 -0.0130
 7487TIP3    H222407   4.451   7.645   5.909  0.2228 -0.3850 -0.7704
 7488TIP3   OH222408   5.679   0.873   0.445 -0.2428 -0.1650  0.0492
 7488TIP3    H122409   5.758   0.832   0.408 -1.1062  0.5507 -2.8384
 7488TIP3    H222410   5.620   0.799   0.461 -0.1708 -0.4503 -0.9197
 7489TIP3   OH222411   0.719   6.785   6.362 -0.7025 -0.6668  0.1857
 7489TIP3    H122412   0.642   6.796   6.306  0.1881  0.8588 -0.7972
 7489TIP3    H222413   0.788   6.756   6.303 -0.4849 -2.0671  1.0685
 7490TIP3   OH222414   3.897   5.550   6.746 -0.4008  0.2040 -0.2052
 7490TIP3    H122415   3.916   5.568   6.838 -0.5532 -1.5763  0.2095
 7490TIP3    H222416   3.960   5.603   6.698  0.4896  0.2434  0.9552
 7491TIP3   OH222417   2.892   5.380   3.888  0.8380  0.2189 -0.0376
 7491TIP3    H122418   2.820   5.370   3.826  1.1056 -4.6467  0.0289
 7491TIP3    H222419   2.849   5.402   3.971 -0.4429 -0.9842 -0.3447
 7492TIP3   OH222420   4.459   6.857   0.182 -0.0880 -0.2395  0.2511
 7492TIP3    H122421   4.547   6.826   0.202 -0.0359 -1.4171 -1.5476
 7492TIP3    H222422   4.406   6.832   0.257  1.1217  0.6108  1.4195
 7493TIP3   OH222423   6.739   2.352   1.375 -0.5115  0.6426 -0.1497
 7493TIP3    H122424   6.688   2.365   1.455 -0.9523 -0.2673 -0.2745
 7493TIP3    H222425   6.675   2.334   1.307 -0.1782  2.0652 -0.8696
 7494TIP3   OH222426   6.382   2.732   4.106  0.0230 -0.3223 -0.0327
 7494TIP3    H122427   6.446   2.773   4.164  0.6719 -0.0650 -0.9265
 7494TIP3    H222428   6.298   2.768   4.136  0.3653 -0.0227  0.6031
 7495TIP3   OH222429   4.188   5.219   0.054 -0.2684  0.5857  0.2700
 7495TIP3    H122430   4.274   5.260   0.053 -0.7609  1.7028  1.4994
 7495TIP3    H222431   4.148   5.247   0.136 -1.4524 -0.6792  0.1758
 7496TIP3   OH222432   0.187   1.125   0.122 -0.4320 -0.7870 -0.4009
 7496TIP3    H122433   0.280   1.121   0.099 -0.5441 -0.6594 -0.8873
 7496TIP3    H222434   0.181   1.078   0.206  0.0234 -1.0402 -0.5052
 7497TIP3   OH222435   8.020   2.873   1.017  0.1038  0.2566  0.1201
 7497TIP3    H122436   7.935   2.853   1.056  0.6258 -0.8300  0.7506
 7497TIP3    H222437   8.077   2.801   1.046  0.6935 -0.2482 -2.0993
 7498TIP3   OH222438   5.526   2.889   0.845  0.4653  0.2048 -0.3534
 7498TIP3    H122439   5.536   2.816   0.784 -0.8182  0.2848 -0.6825
 7498TIP3    H222440   5.524   2.848   0.932 -0.0217 -0.1374 -0.5221
 7499TIP3   OH222441   0.242   0.152   6.374  0.0978  0.2001 -0.2941
 7499TIP3    H122442   0.166   0.128   6.321 -0.0392  1.4684 -0.6893
 7499TIP3    H222443   0.316   0.116   6.326  0.0091  1.6297 -1.5853
 7500TIP3   OH222444   7.672   7.192   6.278  0.9480  0.0049 -0.3151
 7500TIP3    H122445   7.598   7.157   6.327 -0.0922  1.3933 -0.8025
 7500TIP3    H222446   7.647   7.283   6.259  3.6448  1.1703  1.2160
 7501TIP3   OH222447   2.804   3.761   0.674 -0.1619 -0.2529 -0.1952
 7501TIP3    H122448   2.893   3.736   0.651 -0.3900  0.0057 -1.3947
 7501TIP3    H222449   2.748   3.702   0.623 -0.6811 -0.2166  0.3168
 7502TIP3   OH222450   6.788   3.167   0.600  0.0917  0.5424 -0.3958
 7502TIP3    H122451   6.821   3.098   0.656  0.1801  1.3310  0.5517
 7502TIP3    H222452   6.726   3.216   0.655  2.7826  3.5152  0.2757
 7503TIP3   OH222453   7.005   0.181   1.641 -0.2771  0.2302  0.0656
 7503TIP3    H122454   6.913   0.203   1.625 -0.8028 -0.6475  1.6708
 7503TIP3    H222455   7.006   0.085   1.648  0.9930  0.1104 -1.1354
 7504TIP3   OH222456   4.767   1.698   2.490 -0.6493  0.1707  0.3755
 7504TIP3    H122457   4.784   1.662   2.577 -2.3666  0.2934  0.7975
 7504TIP3    H222458   4.759   1.792   2.503 -4.0543 -0.0321  0.7487
 7505TIP3   OH222459   0.564   2.717   1.972 -0.5645  0.2413 -0.0981
 7505TIP3    H122460   0.508   2.786   1.936 -1.4039 -1.0080 -1.2630
 7505TIP3    H222461   0.642   2.764   2.003 -2.0769  1.9744  1.2791
 7506TIP3   OH222462   2.242   2.981   6.745  0.0390 -0.3096  0.2269
 7506TIP3    H122463   2.226   2.920   6.818  0.6267  0.5694  1.1124
 7506TIP3    H222464   2.174   3.047   6.755  1.7558  1.3533  1.7140
 7507TIP3   OH222465   2.611   3.523   1.470  0.1923 -0.2362  0.2016
 7507TIP3    H122466   2.575   3.509   1.557  0.8795 -0.2487  0.4872
 7507TIP3    H222467   2.557   3.467   1.413  1.3226 -2.1979  0.9807
 7508TIP3   OH222468   5.378   7.336   2.943 -0.5676 -0.0815  0.0955
 7508TIP3    H122469   5.428   7.382   2.876 -2.4973  3.1722  0.6869
 7508TIP3    H222470   5.419   7.361   3.026 -2.6743  2.3171  0.5571
 7509TIP3   OH222471   6.139   4.289   2.461 -0.0185  0.1633 -0.2894
 7509TIP3    H122472   6.228   4.279   2.495 -0.7036 -0.1986  1.4638
 7509TIP3    H222473   6.126   4.214   2.403  0.1028 -0.9528  1.0954
 7510TIP3   OH222474   1.307   4.755   3.988  0.4454  0.4056  0.2572
 7510TIP3    H122475   1.402   4.766   3.975  0.0916  2.2573 -1.3003
 7510TIP3    H222476   1.299   4.674   4.038  2.8070 -0.2223 -0.2384
 7511TIP3   OH222477   7.452   6.605   2.032  0.5699  0.4008 -0.4017
 7511TIP3    H122478   7.366   6.597   2.073  0.7975  0.2659  0.0587
 7511TIP3    H222479   7.435   6.646   1.947 -0.0323 -0.3045 -0.6275
 7512TIP3   OH222480   5.857   0.797   1.843 -0.3551  0.2491 -0.0395
 7512TIP3    H122481   5.914   0.749   1.902 -0.6200  0.2527  0.2228
 7512TIP3    H222482   5.896   0.785   1.757 -0.4428 -0.4928  0.0084
 7513TIP3   OH222483   4.686   6.023   2.778  0.7004 -0.0236  0.1149
 7513TIP3    H122484   4.638   6.012   2.860 -0.6578 -2.2073 -0.8889
 7513TIP3    H222485   4.765   5.970   2.789  1.2611  0.8751  0.5261
 7514TIP3   OH222486   1.409   1.517   1.609 -0.1826 -0.3378 -0.3963
 7514TIP3    H122487   1.487   1.497   1.660 -0.1665  0.1194 -0.2413
 7514TIP3    H222488   1.434   1.502   1.518  0.3427  0.6417 -0.4173
 7515TIP3   OH222489   2.010   6.919   4.609 -0.3082 -0.2788 -0.5738
 7515TIP3    H122490   2.016   6.867   4.529 -0.3262 -0.2248 -0.6106
 7515TIP3    H222491   2.087   6.894   4.660 -0.2716 -0.2788 -0.6285
 7516TIP3   OH222492   2.622   7.496   3.648 -0.1427  0.1039 -0.5566
 7516TIP3    H122493   2.583   7.425   3.597  2.0800 -1.6035 -0.0702
 7516TIP3    H222494   2.561   7.512   3.719 -1.6114  0.0701 -1.7739
 7517TIP3   OH222495   6.783   4.746   2.144  0.5568 -0.0940 -0.7453
 7517TIP3    H122496   6.735   4.729   2.225  0.4805 -0.6647 -0.9055
 7517TIP3    H222497   6.743   4.688   2.079  0.2214  0.7845 -1.3448
 7518TIP3   OH222498   7.360   2.025   4.684 -0.4955 -0.0255 -0.0896
 7518TIP3    H122499   7.314   2.015   4.600  1.4969 -1.1134 -1.1430
 7518TIP3    H222500   7.339   1.945   4.732  1.1620 -1.1515 -1.1008
 7519TIP3   OH222501   0.638   6.995   0.300 -0.3757  0.5035  0.1951
 7519TIP3    H122502   0.725   7.020   0.331  0.2443 -1.9094  0.6401
 7519TIP3    H222503   0.652   6.965   0.210 -0.8723  0.7431  0.0359
 7520TIP3   OH222504   1.502   1.809   1.305 -0.1894  0.8133  0.6599
 7520TIP3    H122505   1.548   1.852   1.376  0.6402  2.0788 -0.5948
 7520TIP3    H222506   1.570   1.761   1.258 -0.6416  0.3765  0.4377
 7521TIP3   OH222507   5.129   7.524   4.763 -0.2332  0.0121  0.3093
 7521TIP3    H122508   5.068   7.581   4.716 -0.1205 -0.9641 -1.0732
 7521TIP3    H222509   5.175   7.477   4.694  0.1565 -1.2579  1.4059
 7522TIP3   OH222510   4.488   3.117   4.802 -0.3937  0.3202 -0.0820
 7522TIP3    H122511   4.396   3.108   4.776 -1.0337  0.9067  1.8197
 7522TIP3    H222512   4.536   3.119   4.719 -2.2140  1.2954 -1.1729
 7523TIP3   OH222513   0.912   5.516   4.441 -0.3318  0.3017  0.1891
 7523TIP3    H122514   0.914   5.531   4.346 -0.5275  1.5316  0.3619
 7523TIP3    H222515   0.924   5.422   4.450 -1.3792  0.0073 -1.1024
 7524TIP3   OH222516   8.216   4.977   4.382  0.1966 -0.5625 -0.0861
 7524TIP3    H122517   8.175   4.901   4.342 -1.6642 -1.1633  2.7005
 7524TIP3    H222518   8.162   5.051   4.356 -0.9385 -0.9331  1.1432
 7525TIP3   OH222519   7.990   0.571   4.550  0.2207 -0.0342 -0.0950
 7525TIP3    H122520   8.027   0.579   4.462 -1.8846 -2.3582 -1.3034
 7525TIP3    H222521   8.018   0.485   4.580  1.1755  0.8491  1.7168
 7526TIP3   OH222522   5.764   5.709   6.354 -0.4855  0.0050 -0.3345
 7526TIP3    H122523   5.718   5.669   6.280 -1.1968 -1.8302  1.0350
 7526TIP3    H222524   5.769   5.802   6.331 -1.7264 -0.3241 -2.1525
 7527TIP3   OH222525   8.116   4.994   1.965  0.5281 -0.5555  0.7245
 7527TIP3    H122526   8.069   5.030   1.890  0.9822 -1.0974  0.1726
 7527TIP3    H222527   8.095   5.053   2.037 -1.6502 -1.1949  0.7036
 7528TIP3   OH222528   2.733   3.790   4.781  0.4646  0.5324  0.1171
 7528TIP3    H122529   2.708   3.717   4.723  0.0168 -1.0788  2.2067
 7528TIP3    H222530   2.666   3.856   4.765 -0.5904 -0.5340 -0.0694
 7529TIP3   OH222531   3.252   5.290   0.889  0.0584 -0.0789  0.2861
 7529TIP3    H122532   3.236   5.373   0.933  0.7064  0.1241  0.1542
 7529TIP3    H222533   3.195   5.292   0.812 -0.7987 -0.2739  0.9087
 7530TIP3   OH222534   1.407   3.444   0.434 -0.3651  0.1197  0.0443
 7530TIP3    H122535   1.348   3.369   0.423  1.5831 -1.4341 -0.3833
 7530TIP3    H222536   1.420   3.450   0.528  0.2787 -0.7902  0.0304
 7531TIP3   OH222537   2.980   1.611   5.612  0.3551  0.0037  0.1585
 7531TIP3    H122538   2.895   1.653   5.621 -0.6090 -1.3719 -1.8606
 7531TIP3    H222539   3.034   1.675   5.566  0.0468  0.4339  0.3903
 7532TIP3   OH222540   3.457   5.630   6.021 -0.3377  0.2153  0.1317
 7532TIP3    H122541   3.419   5.681   5.949 -1.8896  0.3605  0.9939
 7532TIP3    H222542   3.410   5.660   6.099  0.2063 -1.0230  0.9751
 7533TIP3   OH222543   2.939   1.645   2.498  0.3440 -0.2611 -0.6004
 7533TIP3    H122544   2.902   1.557   2.500  1.1694 -0.6628 -2.0230
 7533TIP3    H222545   2.991   1.648   2.418 -0.0334  1.6740 -0.8337
 7534TIP3   OH222546   5.953   2.041   0.890 -0.1617 -0.2401 -0.1715
 7534TIP3    H122547   5.858   2.029   0.887 -0.3799  0.1455  2.4975
 7534TIP3    H222548   5.981   1.990   0.966  1.4029  1.5153  0.5061
 7535TIP3   OH222549   7.655   1.219   4.474 -0.4827  0.4210  0.1836
 7535TIP3    H122550   7.565   1.241   4.450 -0.6679 -0.0278  0.4502
 7535TIP3    H222551   7.684   1.292   4.528 -1.0642  0.0780  0.9906
 7536TIP3   OH222552   7.727   4.062   3.985 -0.0154 -1.9918 -0.4751
 7536TIP3    H122553   7.766   4.115   4.055 -0.1208 -0.4128 -1.5613
 7536TIP3    H222554   7.642   4.035   4.020 -0.4296 -0.5056 -0.2859
 7537TIP3   OH222555   1.581   7.279   0.774  0.2153 -0.0433  0.0471
 7537TIP3    H122556   1.550   7.250   0.859  0.7330 -0.9118 -0.0508
 7537TIP3    H222557   1.633   7.205   0.740  0.2757  0.4048 -0.8777
 7538TIP3   OH222558   2.446   1.656   3.110 -0.3365 -0.2516  0.1928
 7538TIP3    H122559   2.504   1.607   3.168 -1.0757 -1.1808  0.1556
 7538TIP3    H222560   2.433   1.599   3.034 -0.7660  0.2289 -0.1070
 7539TIP3   OH222561   2.602   0.628   5.825 -0.3295 -0.4149 -0.3190
 7539TIP3    H122562   2.674   0.575   5.793 -1.2459 -1.1779 -1.1749
 7539TIP3    H222563   2.593   0.698   5.760 -1.3833 -1.2528 -1.1153
 7540TIP3   OH222564   8.159   2.165   3.375  0.0480  0.5772  0.1973
 7540TIP3    H122565   8.117   2.082   3.352 -1.3042  1.4169 -0.4964
 7540TIP3    H222566   8.243   2.163   3.329 -0.6227  0.2252 -1.0640
 7541TIP3   OH222567   5.354   5.119   6.150 -0.1491 -0.2251  0.9138
 7541TIP3    H122568   5.323   5.082   6.067  1.1187 -2.3354  1.2992
 7541TIP3    H222569   5.278   5.114   6.208 -0.8874  0.7469  0.0709
 7542TIP3   OH222570   5.157   3.406   0.364 -0.3760 -0.2873  0.4565
 7542TIP3    H122571   5.240   3.359   0.360  0.0633  0.4161  1.1545
 7542TIP3    H222572   5.165   3.464   0.439 -0.4933  1.6356 -0.9234
 7543TIP3   OH222573   5.741   4.834   4.773  0.0750  0.0752 -0.1224
 7543TIP3    H122574   5.757   4.898   4.843 -0.9679 -0.7447  0.9190
 7543TIP3    H222575   5.719   4.887   4.697  0.1520  0.9766  0.4623
 7544TIP3   OH222576   3.583   6.775   0.809 -0.1020 -1.0127 -0.4643
 7544TIP3    H122577   3.558   6.757   0.899  0.6869 -1.0074 -0.2306
 7544TIP3    H222578   3.508   6.821   0.771 -0.0255 -0.0247  0.5240
 7545TIP3   OH222579   0.068   0.819   1.284  0.0028 -0.1329  0.0684
 7545TIP3    H122580   0.095   0.806   1.375 -1.7165 -0.7843  0.5447
 7545TIP3    H222581   0.051   0.913   1.277  0.8235  0.0333  0.1995
 7546TIP3   OH222582   3.659   6.550   0.006  0.2109 -0.7065  0.4336
 7546TIP3    H122583   3.669   6.459   0.032  0.2287 -0.1218  2.6186
 7546TIP3    H222584   3.565   6.565   0.008  0.2308 -0.5818  0.4410
 7547TIP3   OH222585   6.438   4.288   5.958  0.0572  0.6559  0.1578
 7547TIP3    H122586   6.504   4.225   5.927  0.0754  0.5479  0.4110
 7547TIP3    H222587   6.474   4.374   5.936  1.5788  0.7715  2.6652
 7548TIP3   OH222588   7.129   2.467   6.642  0.0369 -0.0139 -0.2596
 7548TIP3    H122589   7.163   2.384   6.676 -0.2524  0.8823  2.4806
 7548TIP3    H222590   7.034   2.460   6.653  0.0988  1.2239  1.6013
 7549TIP3   OH222591   0.152   4.160   1.170 -0.1950  0.2955 -0.6650
 7549TIP3    H122592   0.193   4.224   1.228 -0.7179 -3.2224  4.2420
 7549TIP3    H222593   0.059   4.183   1.171 -0.1634  0.4123 -0.3249
 7550TIP3   OH222594   2.305   2.773   6.524  0.9324 -0.5446 -0.5319
 7550TIP3    H122595   2.283   2.806   6.611  1.2046  0.3253 -0.7842
 7550TIP3    H222596   2.239   2.706   6.506  0.4699 -0.2531  0.0700
 7551TIP3   OH222597   2.843   5.652   4.857 -0.2791  0.0065  0.1207
 7551TIP3    H122598   2.903   5.583   4.828 -2.9312 -1.9712 -1.1000
 7551TIP3    H222599   2.775   5.606   4.906 -0.9288  2.1146  1.3340
 7552TIP3   OH222600   3.910   3.406   5.481 -0.5459  0.3466  0.9075
 7552TIP3    H122601   3.858   3.327   5.467 -1.2948  0.9407  0.3031
 7552TIP3    H222602   3.847   3.477   5.477  0.2401  1.0403  0.6944
 7553TIP3   OH222603   1.481   1.930   3.942 -0.3895 -0.3183 -0.3981
 7553TIP3    H122604   1.495   2.011   3.993  0.2712 -1.1572  0.8087
 7553TIP3    H222605   1.562   1.880   3.955 -1.4089 -1.8806  0.2331
 7554TIP3   OH222606   7.577   1.257   1.006  0.1790 -0.3387  0.2871
 7554TIP3    H122607   7.496   1.304   0.986  0.6752  0.0734 -0.8159
 7554TIP3    H222608   7.642   1.295   0.947  0.9147 -1.4408  0.3654
 7555TIP3   OH222609   8.082   0.314   4.633  0.1060 -0.2938 -0.2340
 7555TIP3    H122610   8.170   0.276   4.632  0.5357  0.6738  0.0760
 7555TIP3    H222611   8.062   0.328   4.726 -0.0386  0.2440 -0.3397
 7556TIP3   OH222612   6.795   5.419   1.172 -0.2511  0.2546 -0.0189
 7556TIP3    H122613   6.738   5.486   1.209 -1.4198 -0.3247 -0.7396
 7556TIP3    H222614   6.752   5.392   1.092  0.2374 -1.3056  0.2187
 7557TIP3   OH222615   7.735   0.039   2.705 -0.0142 -0.5040 -0.5017
 7557TIP3    H122616   7.765   0.130   2.709 -0.1286 -0.4471 -0.8616
 7557TIP3    H222617   7.749   0.014   2.613 -2.0111 -0.1348 -0.9562
 7558TIP3   OH222618   6.111   7.670   1.676 -0.0143  0.6498 -0.1733
 7558TIP3    H122619   6.062   7.590   1.697 -1.9931  1.8352  0.0473
 7558TIP3    H222620   6.091   7.729   1.748  0.1144  1.8792 -1.1184
 7559TIP3   OH222621   2.831   3.502   2.580  0.0221 -0.0031  0.0083
 7559TIP3    H122622   2.886   3.429   2.551 -1.1031 -0.9101  0.0816
 7559TIP3    H222623   2.836   3.498   2.676 -2.5905 -2.1102  0.1793
 7560TIP3   OH222624   2.369   3.797   4.839  0.0934  0.2924  0.1182
 7560TIP3    H122625   2.283   3.830   4.866  0.0766  0.5881 -0.3004
 7560TIP3    H222626   2.351   3.743   4.763  0.2210 -0.0471  0.3280
 7561TIP3   OH222627   1.690   4.885   3.013  0.6896  0.5014  0.5347
 7561TIP3    H122628   1.667   4.796   3.041  2.2302 -0.1169 -0.0061
 7561TIP3    H222629   1.764   4.872   2.953  1.9154  2.2350  1.5972
 7562TIP3   OH222630   8.070   6.345   4.337  0.2622  0.2909  0.0750
 7562TIP3    H122631   8.005   6.414   4.324 -0.2246 -0.4552 -1.7719
 7562TIP3    H222632   8.039   6.272   4.283  1.6252 -0.7878  0.6817
 7563TIP3   OH222633   1.082   1.015   2.782 -0.1232  0.7516  0.0897
 7563TIP3    H122634   1.160   1.015   2.726  0.3672  1.6704  0.7479
 7563TIP3    H222635   1.022   0.954   2.739  0.8850  0.1603 -0.5250
 7564TIP3   OH222636   1.648   6.764   3.866 -0.5922  0.5964 -0.1852
 7564TIP3    H122637   1.580   6.830   3.878  0.2599  1.4393  0.0881
 7564TIP3    H222638   1.713   6.783   3.933  0.9879  1.1656 -1.7968
 7565TIP3   OH222639   0.096   6.193   1.877 -0.0505 -0.3474  0.2206
 7565TIP3    H122640   0.118   6.273   1.925 -1.3498  0.2996 -0.2239
 7565TIP3    H222641   0.072   6.131   1.945  0.1298 -0.0907  0.5224
 7566TIP3   OH222642   0.746   2.517   4.812  0.6236  0.4163  0.4762
 7566TIP3    H122643   0.673   2.580   4.814  0.7789  0.5841  1.0742
 7566TIP3    H222644   0.729   2.460   4.887  1.5989  1.0221  1.1848
 7567TIP3   OH222645   6.248   0.916   4.805 -0.1664  0.4751 -0.6636
 7567TIP3    H122646   6.282   0.949   4.722 -0.4349 -2.4150 -2.0742
 7567TIP3    H222647   6.155   0.935   4.803  0.1295  2.1461 -0.0562
 7568TIP3   OH222648   4.963   5.206   2.579  0.3839  0.3073 -0.0519
 7568TIP3    H122649   4.932   5.290   2.613  0.9589  1.7272 -2.7611
 7568TIP3    H222650   5.008   5.165   2.653 -1.9918  1.2034  2.0580
 7569TIP3   OH222651   5.968   1.256   4.999  0.3769  0.2749  0.4258
 7569TIP3    H122652   5.903   1.267   4.929  1.5405 -0.7815 -0.8795
 7569TIP3    H222653   6.026   1.187   4.967  0.8926 -0.3199  2.5088
 7570TIP3   OH222654   0.628   4.262   3.060 -0.4936 -0.3932  0.5408
 7570TIP3    H122655   0.644   4.232   2.970 -0.2971 -0.4727  0.6016
 7570TIP3    H222656   0.716   4.269   3.098 -0.5712 -0.2401  0.6877
 7571TIP3   OH222657   4.904   0.579   2.144  0.0280  0.0422 -0.1731
 7571TIP3    H122658   4.897   0.494   2.187  0.9688  0.2615  0.4465
 7571TIP3    H222659   4.873   0.642   2.208  1.7301  0.4005  0.3395
 7572TIP3   OH222660   2.674   5.100   3.055 -0.2332 -0.0889 -0.1938
 7572TIP3    H122661   2.635   5.155   2.987  0.5249  0.9323  0.1713
 7572TIP3    H222662   2.723   5.034   3.007 -1.5397 -0.7651 -0.6436
 7573TIP3   OH222663   6.342   5.367   2.604  0.4339 -0.3959  0.4779
 7573TIP3    H122664   6.265   5.407   2.564  2.0020  1.8789 -0.4595
 7573TIP3    H222665   6.342   5.399   2.694 -0.6072 -1.8357  1.0350
 7574TIP3   OH222666   6.115   6.542   3.940 -0.1123  0.2730  0.6890
 7574TIP3    H122667   6.085   6.516   4.027 -0.4542  0.6163  0.6777
 7574TIP3    H222668   6.198   6.496   3.928 -0.5883 -0.6140  0.7617
 7575TIP3   OH222669   7.092   6.053   5.564  0.7578  0.0116 -0.3311
 7575TIP3    H122670   7.040   6.069   5.485  1.0613 -1.3919 -0.8453
 7575TIP3    H222671   7.038   5.992   5.616  0.0339  1.8067  1.1261
 7576TIP3   OH222672   4.111   5.254   6.400  0.0915  0.1297 -0.2116
 7576TIP3    H122673   4.198   5.294   6.409 -0.3164  0.6782  1.5581
 7576TIP3    H222674   4.080   5.283   6.314  1.8684 -0.5213 -1.1241
 7577TIP3   OH222675   4.507   0.857   5.889 -0.0786 -0.1486 -0.1411
 7577TIP3    H122676   4.485   0.871   5.981  2.2546 -0.2624  0.5233
 7577TIP3    H222677   4.518   0.945   5.853  3.4818  0.0653  1.0167
 7578TIP3   OH222678   7.351   2.364   6.009  0.0272  0.0702 -0.0408
 7578TIP3    H122679   7.398   2.305   5.951 -0.4871 -0.4235  0.0345
 7578TIP3    H222680   7.295   2.307   6.062  0.4082  0.5203  0.8756
 7579TIP3   OH222681   3.262   0.312   3.888  0.1827  0.2983  0.1370
 7579TIP3    H122682   3.312   0.328   3.808  0.4946  0.7194  0.4081
 7579TIP3    H222683   3.171   0.307   3.859  0.3953 -0.7432 -0.3999
 7580TIP3   OH222684   4.067   0.828   0.602  0.2537 -0.6301  0.1535
 7580TIP3    H122685   4.066   0.738   0.569  2.6577 -0.8599  0.5760
 7580TIP3    H222686   4.131   0.873   0.548 -0.0762  0.5458  0.7078
 7581TIP3   OH222687   5.472   7.621   1.223  0.2320 -0.3006 -0.2635
 7581TIP3    H122688   5.489   7.695   1.281  0.9714 -0.0338 -0.8122
 7581TIP3    H222689   5.451   7.548   1.282 -0.1216  0.2438  0.2912
 7582TIP3   OH222690   5.847   5.608   4.794 -0.4126 -0.2761 -0.2521
 7582TIP3    H122691   5.867   5.648   4.709  0.2872  0.4166  0.2314
 7582TIP3    H222692   5.925   5.556   4.815 -1.1343 -1.5661 -0.6660
 7583TIP3   OH222693   0.274   2.707   4.373  0.5098  0.1913  0.2230
 7583TIP3    H122694   0.369   2.711   4.382  0.8671 -0.6336 -2.4108
 7583TIP3    H222695   0.254   2.614   4.364 -0.6489  0.3080  1.2213
 7584TIP3   OH222696   7.213   3.073   3.528  0.0987  0.6710 -0.4728
 7584TIP3    H122697   7.246   3.158   3.559 -3.1911  2.1238 -0.5531
 7584TIP3    H222698   7.121   3.072   3.554  0.4743 -3.9417  1.5792
 7585TIP3   OH222699   6.734   3.605   6.122 -0.5871  0.0445  0.2437
 7585TIP3    H122700   6.741   3.614   6.217 -0.2239 -0.2501  0.2451
 7585TIP3    H222701   6.739   3.695   6.089  1.1256  0.0236  0.3847
 7586TIP3   OH222702   0.465   5.926   5.644  0.2420 -0.2027  0.0226
 7586TIP3    H122703   0.523   5.904   5.571  0.0213 -0.8773  0.0453
 7586TIP3    H222704   0.377   5.908   5.611  0.1299 -0.3769  0.4020
 7587TIP3   OH222705   5.182   2.427   3.464 -0.7608  0.1203 -0.1659
 7587TIP3    H122706   5.149   2.338   3.478 -1.7111  0.1459 -1.9589
 7587TIP3    H222707   5.116   2.468   3.408  0.0504  1.7253  0.0081
 7588TIP3   OH222708   1.752   5.286   2.238  0.4118 -0.9803  0.3441
 7588TIP3    H122709   1.747   5.242   2.154 -0.9058  1.8636 -1.1992
 7588TIP3    H222710   1.836   5.332   2.236 -0.7410  1.2731 -0.7298
 7589TIP3   OH222711   5.610   3.340   2.698 -0.4383 -0.1740  0.0603
 7589TIP3    H122712   5.567   3.300   2.622 -0.4641  1.1535 -0.6702
 7589TIP3    H222713   5.539   3.381   2.747 -0.3930 -0.8410  0.7054
 7590TIP3   OH222714   5.144   2.163   6.767 -0.0696  0.1421  0.8138
 7590TIP3    H122715   5.049   2.167   6.759 -0.0226 -0.6561 -0.3182
 7590TIP3    H222716   5.162   2.073   6.793  0.4493 -0.0954 -0.3187
 7591TIP3   OH222717   7.989   5.148   5.369  0.1436 -0.3154  0.3393
 7591TIP3    H122718   7.967   5.191   5.287 -1.8387 -0.7472  0.5982
 7591TIP3    H222719   8.072   5.103   5.351 -0.0147 -0.0138 -1.2673
 7592TIP3   OH222720   3.838   0.656   3.217  0.1242 -0.2902 -0.5188
 7592TIP3    H122721   3.852   0.744   3.182 -1.5583 -0.5119 -1.8706
 7592TIP3    H222722   3.909   0.644   3.280  0.1397  2.2052  0.0531
 7593TIP3   OH222723   0.462   4.513   4.314  0.2799 -0.4334  0.0142
 7593TIP3    H122724   0.513   4.450   4.365 -1.6489 -1.3857  0.8706
 7593TIP3    H222725   0.394   4.543   4.374  0.4608  1.6311 -0.7442
 7594TIP3   OH222726   2.419   0.204   6.312 -0.1429 -0.0421  0.0239
 7594TIP3    H122727   2.367   0.250   6.246  1.3348  2.1618  0.2747
 7594TIP3    H222728   2.355   0.157   6.365 -1.8545  2.1259  0.0025
 7595TIP3   OH222729   3.945   0.586   6.220 -0.1177  0.2868 -0.6579
 7595TIP3    H122730   3.968   0.619   6.307 -0.7877 -1.7206  0.3386
 7595TIP3    H222731   4.004   0.632   6.161  0.5217  1.5289  0.8793
 7596TIP3   OH222732   3.796   7.775   1.144  0.2028 -0.1655 -0.1313
 7596TIP3    H122733   3.742   7.708   1.186 -1.0693  2.1143  2.1517
 7596TIP3    H222734   3.734   7.844   1.121  1.5752  0.5956 -1.7113
 7597TIP3   OH222735   4.831   6.919   3.366 -0.0554  0.0558  0.3849
 7597TIP3    H122736   4.808   6.873   3.446 -0.0446  0.5514  0.6765
 7597TIP3    H222737   4.835   7.012   3.391 -0.9542  0.3166 -0.3852
 7598TIP3   OH222738   7.791   4.658   5.138 -0.3578 -0.7319  0.0734
 7598TIP3    H122739   7.805   4.736   5.192 -0.5184 -0.6343 -0.0248
 7598TIP3    H222740   7.875   4.643   5.095 -0.8351  0.5334 -1.4150
 7599TIP3   OH222741   5.160   6.883   0.956 -0.1732  0.1687 -0.0542
 7599TIP3    H122742   5.104   6.959   0.944 -0.4410  0.2928  1.6350
 7599TIP3    H222743   5.234   6.915   1.008  0.9153 -0.2393 -1.2826
 7600TIP3   OH222744   6.656   0.047   2.614  0.5589 -0.8699 -0.1118
 7600TIP3    H122745   6.579   0.067   2.668  0.9995 -2.5814  1.2586
 7600TIP3    H222746   6.623  -0.009   2.544  0.2676 -0.0414 -0.6522
 7601TIP3   OH222747   3.131   3.882   5.111  0.1802 -0.5339  0.1628
 7601TIP3    H122748   3.168   3.799   5.081 -1.4736 -1.2823  0.0737
 7601TIP3    H222749   3.055   3.896   5.054 -2.0553 -1.1191  2.7976
 7602TIP3   OH222750   7.627   0.296   3.289 -0.3536 -0.3450 -0.1282
 7602TIP3    H122751   7.609   0.386   3.263 -1.0526 -0.5210 -0.2859
 7602TIP3    H222752   7.720   0.283   3.269 -0.2661  0.3126 -0.1748
 7603TIP3   OH222753   4.046   5.412   3.686 -0.4083 -0.5767  0.1869
 7603TIP3    H122754   4.009   5.406   3.774  0.9775  1.4394  0.9961
 7603TIP3    H222755   4.006   5.492   3.649  0.5009 -0.3013 -0.2286
 7604TIP3   OH222756   7.346   6.788   2.641 -0.1991 -0.2118 -0.2977
 7604TIP3    H122757   7.330   6.832   2.558 -1.3516  1.1250  0.5692
 7604TIP3    H222758   7.334   6.695   2.623 -3.0654  0.2044 -1.1319
 7605TIP3   OH222759   4.613   4.750   0.458 -0.0034  0.3001  0.9425
 7605TIP3    H122760   4.674   4.812   0.417 -0.6361  1.1678  1.2691
 7605TIP3    H222761   4.556   4.722   0.386  0.4422 -0.1086  0.7423
 7606TIP3   OH222762   0.938   4.103   6.761  0.3516 -0.4275  0.3547
 7606TIP3    H122763   0.986   4.025   6.791  0.2762 -1.3204 -1.7172
 7606TIP3    H222764   0.969   4.118   6.672  0.4956  2.0773  0.7395
 7607TIP3   OH222765   5.586   6.481   1.076 -0.0866 -0.1720 -0.2647
 7607TIP3    H122766   5.559   6.555   1.022  0.2252  0.3612  0.2948
 7607TIP3    H222767   5.682   6.484   1.076 -0.0537  0.9643  1.7756
 7608TIP3   OH222768   1.222   1.296   5.073 -0.0133  0.2378 -0.6846
 7608TIP3    H122769   1.262   1.226   5.021 -0.2243 -0.2170 -0.2459
 7608TIP3    H222770   1.218   1.371   5.014  0.0949 -0.1616 -1.2053
 7609TIP3   OH222771   1.214   5.055   5.770  0.4905 -0.0783  0.3191
 7609TIP3    H122772   1.152   5.053   5.843  0.4829  2.9618  0.5287
 7609TIP3    H222773   1.297   5.027   5.808  0.2478  0.4014  1.2143
 7610TIP3   OH222774   0.812   4.604   2.988  0.5763 -0.0816 -0.4038
 7610TIP3    H122775   0.871   4.584   2.916  0.3970  1.9430 -1.2020
 7610TIP3    H222776   0.868   4.641   3.056  0.4743  0.1316 -0.4328
 7611TIP3   OH222777   4.756   5.774   0.223 -0.1910  0.2001  0.1994
 7611TIP3    H122778   4.671   5.758   0.265 -0.2169 -0.4205 -0.0783
 7611TIP3    H222779   4.767   5.701   0.162 -0.2022  1.1155 -0.9509
 7612TIP3   OH222780   3.772   3.949   5.201 -0.1070  0.4181 -0.4844
 7612TIP3    H122781   3.806   4.038   5.213 -0.6455  0.5106  0.5481
 7612TIP3    H222782   3.739   3.925   5.288 -0.2355 -0.6815 -0.8240
 7613TIP3   OH222783   8.092   2.171   3.014  0.0856 -0.3496 -0.4534
 7613TIP3    H122784   8.044   2.089   3.019  0.2489 -0.5676 -2.0489
 7613TIP3    H222785   8.184   2.144   3.014  0.2625  0.0264  1.8837
 7614TIP3   OH222786   5.604   4.588   4.497  0.0040  0.2726  0.0960
 7614TIP3    H122787   5.570   4.678   4.498 -0.0709  0.2434  0.7269
 7614TIP3    H222788   5.697   4.597   4.518  0.3882  0.3394 -1.4907
 7615TIP3   OH222789   7.884   6.740   2.859 -0.1690  0.0141 -0.0805
 7615TIP3    H122790   7.859   6.830   2.880 -0.2696 -0.4402  1.9873
 7615TIP3    H222791   7.910   6.743   2.767 -0.9746  1.9717 -0.2906
 7616TIP3   OH222792   5.360   3.377   0.942 -0.1863  0.3956 -0.0968
 7616TIP3    H122793   5.369   3.297   0.892  0.9568  0.6950 -0.4162
 7616TIP3    H222794   5.447   3.391   0.980 -0.7841  0.6594  1.2304
 7617TIP3   OH222795   3.139   0.155   4.516  0.0020 -0.3882  0.5941
 7617TIP3    H122796   3.151   0.175   4.609 -2.3045 -1.3802  1.2022
 7617TIP3    H222797   3.171   0.232   4.470 -1.6389  1.4918  2.3910
 7618TIP3   OH222798   4.857   5.585   2.464 -0.3350 -0.4266 -0.2403
 7618TIP3    H122799   4.913   5.650   2.422  0.2272 -1.5980 -1.3727
 7618TIP3    H222800   4.911   5.549   2.534 -0.1939 -0.5368 -0.4040
 7619TIP3   OH222801   2.503   2.587   2.346 -0.1305 -0.0141 -0.2021
 7619TIP3    H122802   2.440   2.575   2.276  0.6367  0.2769 -0.9604
 7619TIP3    H222803   2.460   2.647   2.407 -0.7363 -0.1283 -0.5138
 7620TIP3   OH222804   4.924   0.907   3.478  0.3543 -0.4368  0.0878
 7620TIP3    H122805   4.955   0.976   3.538 -2.8301  0.9655  0.3346
 7620TIP3    H222806   4.835   0.934   3.456 -0.1118 -3.2317 -1.8583
 7621TIP3   OH222807   1.158   2.962   1.294  0.2348  0.3296 -0.0629
 7621TIP3    H122808   1.093   2.959   1.364 -0.3286 -0.1115 -0.5906
 7621TIP3    H222809   1.150   3.050   1.257  0.0714  0.3436  0.0049
 7622TIP3   OH222810   7.230   3.053   4.534  0.3983 -0.1231 -0.0487
 7622TIP3    H122811   7.177   3.044   4.455  0.1231 -1.7228  0.2751
 7622TIP3    H222812   7.201   3.135   4.573 -0.0024  0.3054 -1.2035
 7623TIP3   OH222813   0.914   3.755   3.719  0.6787  0.4769 -0.6602
 7623TIP3    H122814   0.921   3.660   3.711  0.1717  0.3826 -0.0415
 7623TIP3    H222815   0.902   3.772   3.812 -1.8129  0.9321 -0.9778
 7624TIP3   OH222816   6.497   6.010   0.503  0.2622 -0.4290  0.0547
 7624TIP3    H122817   6.521   6.090   0.456  0.2331 -1.1206 -1.1804
 7624TIP3    H222818   6.581   5.974   0.533  0.6278 -1.6035 -2.2076
 7625TIP3   OH222819   4.925   2.399   2.997 -0.1554  0.5618 -0.3091
 7625TIP3    H122820   4.955   2.327   2.942 -1.2850 -0.7667  0.7691
 7625TIP3    H222821   4.988   2.403   3.069  1.1896  2.1554 -1.4646
 7626TIP3   OH222822   1.643   5.985   2.259  0.3814 -0.1388  0.1253
 7626TIP3    H122823   1.598   6.029   2.188 -0.0170 -0.6163  0.0791
 7626TIP3    H222824   1.589   5.908   2.278  1.0683 -0.6064  0.2028
 7627TIP3   OH222825   6.164   6.201   4.402  0.6759 -0.2429 -0.4163
 7627TIP3    H122826   6.167   6.150   4.483 -0.6005  0.1035 -0.1243
 7627TIP3    H222827   6.073   6.195   4.374  0.5248  1.7053 -0.4687
 7628TIP3   OH222828   3.937   7.445   0.221  0.2340  0.0957  0.0478
 7628TIP3    H122829   3.917   7.450   0.315 -0.1368 -3.6184  0.3359
 7628TIP3    H222830   4.028   7.416   0.217  0.2990  0.3835 -0.7561
 7629TIP3   OH222831   1.666   1.991   4.289  0.1282  0.3518  0.1636
 7629TIP3    H122832   1.726   2.023   4.356  1.7198  2.1477 -1.9951
 7629TIP3    H222833   1.721   1.943   4.228 -1.1153 -0.4126 -0.4007
 7630TIP3   OH222834   7.368   2.378   2.125  0.0247  0.4646 -0.5357
 7630TIP3    H122835   7.439   2.438   2.100 -0.3695  1.6451  1.0073
 7630TIP3    H222836   7.290   2.414   2.081 -0.0280  0.4983 -0.4147
 7631TIP3   OH222837   4.947   1.169   3.596  0.3216  0.4788  0.9688
 7631TIP3    H122838   4.974   1.148   3.685  1.0856 -0.8643  0.4426
 7631TIP3    H222839   4.891   1.247   3.605 -0.9431 -0.5792  2.7806
 7632TIP3   OH222840   6.088   2.644   0.291 -0.3969 -0.3953 -0.1569
 7632TIP3    H122841   6.182   2.627   0.287 -0.4889 -1.1174  0.4649
 7632TIP3    H222842   6.060   2.641   0.199  0.6902  3.1554 -0.7436
 7633TIP3   OH222843   6.459   4.944   5.382 -0.1204 -0.4496 -0.1635
 7633TIP3    H122844   6.364   4.939   5.398  0.0020  0.1043  0.8760
 7633TIP3    H222845   6.495   4.867   5.426 -0.0423 -0.3931 -0.1283
 7634TIP3   OH222846   4.232   1.135   1.417  0.6761  0.2092  0.1450
 7634TIP3    H122847   4.289   1.179   1.354 -1.1080  0.6194 -1.2375
 7634TIP3    H222848   4.265   1.045   1.420  0.4723  0.0398 -1.7999
 7635TIP3   OH222849   4.641   4.282   3.003 -0.0442  0.1068 -0.0927
 7635TIP3    H122850   4.631   4.290   2.908 -1.3057 -1.4660 -0.1397
 7635TIP3    H222851   4.629   4.371   3.036 -3.2141  0.2080 -1.1822
 7636TIP3   OH222852   0.365   5.460   3.805  0.4719 -0.3786  0.5540
 7636TIP3    H122853   0.352   5.551   3.833  1.6492  0.3492 -1.1131
 7636TIP3    H222854   0.290   5.413   3.842 -0.8668  1.5147  0.4105
 7637TIP3   OH222855   6.901   4.254   3.689 -0.2915  0.4641  0.2208
 7637TIP3    H122856   6.959   4.221   3.620 -0.4277  1.5972 -0.4732
 7637TIP3    H222857   6.859   4.176   3.725  0.0097 -0.1784 -0.7774
 7638TIP3   OH222858   6.390   5.396   4.478  0.3081  0.3598  0.6235
 7638TIP3    H122859   6.415   5.342   4.554  0.4630 -1.1990 -0.4987
 7638TIP3    H222860   6.465   5.454   4.464  0.2403  0.7319  1.7063
 7639TIP3   OH222861   3.122   7.812   4.362  0.9034 -0.1408 -0.0611
 7639TIP3    H122862   3.174   7.777   4.435  1.7662  0.6812 -0.2603
 7639TIP3    H222863   3.187   7.850   4.303  0.0701  0.8567 -0.3565
 7640TIP3   OH222864   1.494   6.678   6.406 -0.0764 -0.1171  0.5055
 7640TIP3    H122865   1.562   6.718   6.460 -0.1200  3.1443 -1.5418
 7640TIP3    H222866   1.542   6.629   6.339  0.0265 -2.1542  1.9946
 7641TIP3   OH222867   8.016   4.918   6.421 -0.6645  0.1013  0.6008
 7641TIP3    H122868   8.092   4.869   6.391 -1.1087 -0.9513  1.1567
 7641TIP3    H222869   7.942   4.880   6.373 -0.9220  0.7367  0.4820
 7642TIP3   OH222870   1.514   2.742   4.694  0.2593  0.6408 -0.7780
 7642TIP3    H122871   1.560   2.821   4.723 -0.1903  0.2286  1.2156
 7642TIP3    H222872   1.422   2.768   4.690  0.1631  0.3453 -0.5502
 7643TIP3   OH222873   5.452   0.774   6.593 -0.4304 -0.1925  0.2856
 7643TIP3    H122874   5.440   0.810   6.505 -2.6786  0.2812  0.7085
 7643TIP3    H222875   5.379   0.811   6.643 -1.3440 -3.2793  1.4316
 7644TIP3   OH222876   8.149   5.191   0.306 -0.6237 -0.0444 -0.4220
 7644TIP3    H122877   8.101   5.195   0.223  1.5708  0.7466 -1.7354
 7644TIP3    H222878   8.192   5.106   0.305  0.9846  0.7408 -1.0779
 7645TIP3   OH222879   4.238   5.520   1.604  0.1558  0.0144  0.0006
 7645TIP3    H122880   4.267   5.478   1.523 -0.8316 -4.7205  1.8011
 7645TIP3    H222881   4.315   5.570   1.634  1.6929 -0.9607 -2.1090
 7646TIP3   OH222882   5.665   1.377   1.969 -0.2239 -0.0192  0.1618
 7646TIP3    H122883   5.748   1.403   1.927  1.2838 -1.1580  2.2413
 7646TIP3    H222884   5.644   1.449   2.028 -1.6473  0.9889 -1.4749
 7647TIP3   OH222885   5.334   4.221   0.552  0.1069  0.2665 -0.1026
 7647TIP3    H122886   5.351   4.275   0.475 -1.6597 -1.8598 -2.1595
 7647TIP3    H222887   5.409   4.162   0.557  0.0151  0.1090 -0.5055
 7648TIP3   OH222888   4.491   1.194   4.728  0.5312 -0.0538 -0.2305
 7648TIP3    H122889   4.417   1.222   4.781  0.6887 -0.9107  0.4536
 7648TIP3    H222890   4.510   1.105   4.757  0.9704 -0.3444 -1.3402
 7649TIP3   OH222891   5.399   1.968   1.037 -0.5424 -0.1964 -0.2474
 7649TIP3    H122892   5.426   1.894   1.091 -1.6502  0.1614  0.8524
 7649TIP3    H222893   5.357   2.028   1.099  0.6440  1.5330 -1.0473
 7650TIP3   OH222894   2.710   4.592   2.754 -0.4154 -0.4386 -0.6669
 7650TIP3    H122895   2.742   4.520   2.699  1.5324 -0.1363 -0.0087
 7650TIP3    H222896   2.782   4.655   2.756 -0.4450 -0.3754  2.0984
 7651TIP3   OH222897   3.491   3.710   1.567 -0.4132 -0.1435 -0.3631
 7651TIP3    H122898   3.401   3.677   1.561 -0.4262  0.0038 -1.0264
 7651TIP3    H222899   3.503   3.727   1.661 -0.7475 -1.0620 -0.1420
 7652TIP3   OH222900   6.585   5.997   6.589 -0.4843  0.1454  0.2764
 7652TIP3    H122901   6.541   6.072   6.630 -2.5494 -0.6302 -0.3974
 7652TIP3    H222902   6.562   6.004   6.496  1.4096  0.0462 -0.2431
 7653TIP3   OH222903   7.948   0.529   0.732  0.6507  0.1573  0.8550
 7653TIP3    H122904   7.944   0.599   0.797 -0.3750 -0.7412  1.7997
 7653TIP3    H222905   8.041   0.520   0.712  0.9219  0.8818  1.7226
 7654TIP3   OH222906   8.011   3.586   0.568  0.8001 -0.4278 -0.7510
 7654TIP3    H122907   8.019   3.676   0.535  1.4166  0.0680  0.6878
 7654TIP3    H222908   8.057   3.586   0.652 -1.3345 -1.4392  0.5175
 7655TIP3   OH222909   1.500   4.609   2.049  0.0324  0.2646  0.1499
 7655TIP3    H122910   1.410   4.608   2.016 -0.1510 -0.1132  0.6387
 7655TIP3    H222911   1.517   4.517   2.072  1.0542  0.0517 -1.2830
 7656TIP3   OH222912   1.798   0.588   2.804  0.0522 -0.6578  0.6240
 7656TIP3    H122913   1.704   0.592   2.821  0.2280  1.0032  1.3933
 7656TIP3    H222914   1.817   0.670   2.759  1.1380 -1.0051  0.4231
 7657TIP3   OH222915   3.640   6.379   4.097  0.4184  0.1380  0.3131
 7657TIP3    H122916   3.640   6.297   4.146  0.0018  1.2069  2.2379
 7657TIP3    H222917   3.730   6.387   4.064  0.8461 -0.4425  1.2870
 7658TIP3   OH222918   3.309   0.159   2.430 -0.2222 -0.3560  0.5894
 7658TIP3    H122919   3.394   0.143   2.391  0.3076  0.8968  1.1717
 7658TIP3    H222920   3.268   0.225   2.373 -0.8963 -1.0773  0.2092
 7659TIP3   OH222921   3.806   3.265   3.741  0.3033 -0.0358  0.2141
 7659TIP3    H122922   3.824   3.353   3.773  0.7934 -0.3762  0.8960
 7659TIP3    H222923   3.713   3.266   3.719  0.2174  0.5344  0.5928
 7660TIP3   OH222924   5.508   4.567   0.546  0.0471 -0.1993  0.5383
 7660TIP3    H122925   5.440   4.604   0.491  0.9307  1.7085  0.6627
 7660TIP3    H222926   5.565   4.520   0.485 -0.0264  0.2761  0.0982
 7661TIP3   OH222927   2.357   2.431   3.525 -0.5656 -0.0223  0.2364
 7661TIP3    H122928   2.298   2.355   3.525  0.4938 -0.8778  0.9426
 7661TIP3    H222929   2.445   2.393   3.529  0.0343  1.2364 -0.3532
 7662TIP3   OH222930   3.722   3.276   1.446  0.5769 -0.2987  0.0239
 7662TIP3    H122931   3.806   3.232   1.431  0.2426 -0.4685 -1.5259
 7662TIP3    H222932   3.746   3.368   1.457  0.9794 -0.3251 -0.5478
 7663TIP3   OH222933   5.630   6.501   2.924  0.6573 -0.3620 -0.5672
 7663TIP3    H122934   5.586   6.418   2.908 -1.5655  0.8382 -1.0384
 7663TIP3    H222935   5.640   6.540   2.838  1.6342 -0.0774 -0.3405
 7664TIP3   OH222936   3.829   5.601   0.521 -0.1042 -0.3276 -0.0249
 7664TIP3    H122937   3.764   5.608   0.591  0.0585 -0.7794  0.1705
 7664TIP3    H222938   3.802   5.668   0.457 -1.0619 -0.8486 -0.1913
 7665TIP3   OH222939   5.709   1.124   3.477  0.1899 -0.3627 -0.2763
 7665TIP3    H122940   5.730   1.040   3.436  0.2559 -0.5320  0.1010
 7665TIP3    H222941   5.735   1.113   3.568  0.6090  0.2183 -0.3210
 7666TIP3   OH222942   2.650   5.878   2.130  0.6187  0.3488  0.4087
 7666TIP3    H122943   2.613   5.934   2.061 -2.5729 -2.2994 -0.2617
 7666TIP3    H222944   2.709   5.818   2.083 -0.5171 -0.5789  0.1168
 7667TIP3   OH222945   6.511   4.194   4.298  0.0479  0.0288  0.1239
 7667TIP3    H122946   6.599   4.225   4.319 -0.1602  0.7048  0.0355
 7667TIP3    H222947   6.525   4.116   4.245  0.5944  0.1010  0.1514
 7668TIP3   OH222948   7.201   5.086   4.686 -0.1748 -0.2955 -0.6476
 7668TIP3    H122949   7.225   5.176   4.663 -0.6655  0.1350  0.4520
 7668TIP3    H222950   7.168   5.092   4.775  2.0575 -1.9617  0.3706
 7669TIP3   OH222951   7.517   6.171   5.820  0.4021  0.2975 -0.0399
 7669TIP3    H122952   7.534   6.078   5.805  0.3291  0.2126  0.3955
 7669TIP3    H222953   7.514   6.209   5.732  0.6762 -0.0668 -0.2108
 7670TIP3   OH222954   1.756   3.733   2.007  0.3499  0.3364 -0.0086
 7670TIP3    H122955   1.785   3.781   2.085 -1.4020  1.1126  0.2119
 7670TIP3    H222956   1.662   3.747   2.004  0.3810  0.4825 -2.3716
 7671TIP3   OH222957   2.326   7.636   0.882 -0.0471  0.1806 -0.6448
 7671TIP3    H122958   2.345   7.664   0.972  0.8073 -1.6558 -0.2154
 7671TIP3    H222959   2.258   7.696   0.853 -0.8806  0.3624  1.4921
 7672TIP3   OH222960   5.009   3.248   0.638 -0.0525  0.4122  0.0685
 7672TIP3    H122961   4.995   3.211   0.550 -0.1339  1.0683 -0.2044
 7672TIP3    H222962   5.072   3.319   0.624 -2.8085  3.0199 -0.1300
 7673TIP3   OH222963   0.348   2.060   1.027 -1.3485  0.2346 -0.7083
 7673TIP3    H122964   0.370   2.010   1.105 -1.5117  0.6079 -0.4250
 7673TIP3    H222965   0.400   2.019   0.957 -1.9196 -0.7078 -0.6034
 7674TIP3   OH222966   3.020   7.219   1.771  0.3722 -0.4907 -0.5565
 7674TIP3    H122967   3.023   7.151   1.838 -2.0993  0.3948  0.5928
 7674TIP3    H222968   3.000   7.172   1.690  1.0352 -1.3402 -0.2391
 7675TIP3   OH222969   7.048   7.338   5.912  0.7401  0.2160  0.1296
 7675TIP3    H122970   7.078   7.353   5.822 -1.1654  0.8651 -0.4574
 7675TIP3    H222971   7.053   7.243   5.923 -1.5540 -0.2197 -1.7026
 7676TIP3   OH222972   0.865   1.400   5.664 -0.3172 -0.2164 -0.5275
 7676TIP3    H122973   0.922   1.388   5.740  0.8721  0.7663 -1.2360
 7676TIP3    H222974   0.777   1.382   5.698  0.2896 -0.8527  0.8140
 7677TIP3   OH222975   7.501   2.215   0.098 -0.4247  0.2900  0.0429
 7677TIP3    H122976   7.556   2.138   0.108 -0.6840 -0.1347 -1.5425
 7677TIP3    H222977   7.419   2.192   0.142 -2.1168 -2.1239 -3.9204
 7678TIP3   OH222978   7.788   2.281   6.155  0.3530 -0.3422 -0.3062
 7678TIP3    H122979   7.804   2.219   6.084 -1.6741 -1.6910  0.3294
 7678TIP3    H222980   7.764   2.227   6.230  0.3903  1.1420  0.8451
 7679TIP3   OH222981   4.380   5.572   0.523  0.0174 -0.3166 -0.0640
 7679TIP3    H122982   4.391   5.631   0.598 -2.5696 -0.3064  0.4062
 7679TIP3    H222983   4.323   5.503   0.556 -0.8547 -0.5254 -1.9199
 7680TIP3   OH222984   4.230   7.006   2.077 -0.1273 -0.0461 -0.7224
 7680TIP3    H122985   4.207   6.978   2.166 -2.9116 -1.8206 -1.8397
 7680TIP3    H222986   4.233   7.101   2.082 -0.3816 -0.0909  1.2431
 7681TIP3   OH222987   3.592   2.231   0.395  0.3009 -0.0232  0.5129
 7681TIP3    H122988   3.631   2.144   0.407  0.0399 -0.0659  1.0891
 7681TIP3    H222989   3.653   2.276   0.337 -0.1215 -0.9546 -0.6918
 7682TIP3   OH222990   5.488   3.874   5.734  0.3364 -0.0250  1.1728
 7682TIP3    H122991   5.441   3.802   5.776 -0.3637 -0.3650 -0.1530
 7682TIP3    H222992   5.535   3.834   5.661 -0.5590  0.9334  0.0358
 7683TIP3   OH222993   0.677   0.970   2.382  0.4100 -0.0380 -0.2446
 7683TIP3    H122994   0.658   0.906   2.314  1.3987  0.6272 -1.1704
 7683TIP3    H222995   0.697   0.917   2.460 -0.7080 -0.8023 -0.4601
 7684TIP3   OH222996   5.215   7.587   2.329 -0.0025  0.3413 -0.4018
 7684TIP3    H122997   5.220   7.526   2.402  0.1592  1.4183  0.5152
 7684TIP3    H222998   5.257   7.542   2.256 -1.4135 -1.3109 -0.2428
 7685TIP3   OH222999   7.918   2.046   0.580  0.2398  0.2857  0.3911
 7685TIP3    H123000   7.851   2.051   0.648  1.2780  0.5741  1.4182
 7685TIP3    H223001   7.934   1.952   0.569 -1.6101  0.0743 -1.2095
 7686TIP3   OH223002   0.177   7.504   0.207  0.8029 -0.0375  0.1903
 7686TIP3    H123003   0.138   7.417   0.213  0.1965  0.2545  0.5792
 7686TIP3    H223004   0.245   7.505   0.274  0.6602 -0.1374  0.3387
 7687TIP3   OH223005   1.278   7.141   0.773  0.3906  0.2036  0.0933
 7687TIP3    H123006   1.212   7.198   0.734 -1.9391 -1.5218  1.2442
 7687TIP3    H223007   1.320   7.099   0.698  1.3419  2.4376 -0.7175
 7688TIP3   OH223008   2.143   2.151   3.800 -0.6786 -0.2723 -0.1885
 7688TIP3    H123009   2.112   2.214   3.736 -0.6710  1.3160  1.3079
 7688TIP3    H223010   2.195   2.089   3.749  0.1072  1.4642 -1.5979
 7689TIP3   OH223011   4.414   0.194   2.448 -0.4737  0.3033  0.0732
 7689TIP3    H123012   4.464   0.124   2.406 -0.2600  0.2561  0.4080
 7689TIP3    H223013   4.323   0.164   2.445 -0.6021  0.7375 -1.2565
 7690TIP3   OH223014   4.254   6.252   0.367 -0.1709  0.0902  0.3317
 7690TIP3    H123015   4.286   6.227   0.454  0.6095 -1.4186 -0.3499
 7690TIP3    H223016   4.292   6.338   0.351 -1.0451  0.7955  1.8317
 7691TIP3   OH223017   6.768   4.809   1.743  0.7313  0.2210 -0.1815
 7691TIP3    H123018   6.856   4.826   1.711  0.7534  1.2443  0.3582
 7691TIP3    H223019   6.717   4.791   1.664  0.9261  2.0098 -0.7645
 7692TIP3   OH223020   0.970   5.601   1.652  0.2800 -0.0248  0.2682
 7692TIP3    H123021   0.981   5.593   1.557  0.2136  0.2431  0.2356
 7692TIP3    H223022   0.913   5.678   1.663  1.6412  0.9841  0.5771
 7693TIP3   OH223023   6.638   1.173   5.224  0.7729 -0.0447  0.3983
 7693TIP3    H123024   6.578   1.216   5.164 -0.2837  0.3237  1.6574
 7693TIP3    H223025   6.717   1.226   5.222  0.7106  0.0169 -0.5806
 7694TIP3   OH223026   0.971   2.650   5.638 -0.2350 -0.2536  0.5699
 7694TIP3    H123027   1.008   2.738   5.643 -0.4549 -0.1144 -0.1035
 7694TIP3    H223028   0.908   2.646   5.710  0.1848 -0.0551  0.9458
 7695TIP3   OH223029   3.645   4.494   1.515 -0.4468  0.1491 -0.0641
 7695TIP3    H123030   3.560   4.532   1.495 -1.2611 -0.5363  1.8982
 7695TIP3    H223031   3.631   4.399   1.508  0.5122  0.0578 -0.9915
 7696TIP3   OH223032   4.933   0.797   4.336 -0.0218 -0.0511  0.6220
 7696TIP3    H123033   4.925   0.720   4.280  0.5191  1.7969 -2.1862
 7696TIP3    H223034   4.844   0.830   4.345 -0.0820 -0.2404  0.7538
 7697TIP3   OH223035   0.890   6.685   1.903 -0.0015  0.0205  0.1466
 7697TIP3    H123036   0.926   6.654   1.820 -0.0518 -1.1712  0.5492
 7697TIP3    H223037   0.801   6.649   1.905 -0.0177  0.0877  0.6856
 7698TIP3   OH223038   0.469   5.079   2.431 -0.2847  0.1416  0.3252
 7698TIP3    H123039   0.506   5.005   2.478  1.3877  0.1101 -0.9396
 7698TIP3    H223040   0.387   5.046   2.394  0.8596 -1.3649 -0.9588
 7699TIP3   OH223041   1.771   6.269   0.023 -0.7569  0.2540 -0.1565
 7699TIP3    H123042   1.822   6.347   0.043 -1.4430  0.5970  0.2986
 7699TIP3    H223043   1.833   6.210  -0.021  0.6148 -0.1741  2.1580
 7700TIP3   OH223044   2.615   5.676   5.345  0.2322 -0.2135 -0.2751
 7700TIP3    H123045   2.669   5.599   5.364 -0.0093 -0.5085 -0.7505
 7700TIP3    H223046   2.559   5.686   5.421  1.4323  0.5320  0.5571
 7701TIP3   OH223047   0.818   0.889   3.725  0.4398  0.2791  0.3660
 7701TIP3    H123048   0.895   0.846   3.688  1.3250  2.5545 -0.6207
 7701TIP3    H223049   0.840   0.903   3.817  1.3524  1.1346  0.0362
 7702TIP3   OH223050   1.536   5.130   0.907  0.5207  0.6718  0.2883
 7702TIP3    H123051   1.586   5.169   0.835  0.0545 -0.3012 -0.5933
 7702TIP3    H223052   1.444   5.152   0.887  0.2968 -0.4601  0.0250
 7703TIP3   OH223053   7.833   1.216   3.980  0.1339 -0.0394 -0.5121
 7703TIP3    H123054   7.762   1.279   3.992  0.2140 -0.2445  1.3055
 7703TIP3    H223055   7.829   1.160   4.058  0.2292 -2.1506 -1.9251
 7704TIP3   OH223056   0.993   6.975   1.044  0.6238  0.5339 -0.4365
 7704TIP3    H123057   1.040   6.918   0.983 -0.6132 -2.1881  1.0124
 7704TIP3    H223058   0.902   6.972   1.014  0.1675 -0.0866  0.9491
 7705TIP3   OH223059   6.946   2.446   5.663 -0.1662  0.2282  0.1732
 7705TIP3    H123060   6.866   2.393   5.665 -0.0450  0.0397 -0.0472
 7705TIP3    H223061   6.976   2.442   5.573 -1.4222  2.5773 -0.4257
 7706TIP3   OH223062   4.860   3.280   2.282 -0.0175 -0.6790  0.1291
 7706TIP3    H123063   4.853   3.249   2.373 -0.4384 -0.1479  0.2875
 7706TIP3    H223064   4.798   3.225   2.234 -1.3886  0.4042  0.5568
 7707TIP3   OH223065   2.549   3.862   2.792 -0.2077 -0.6028 -0.0377
 7707TIP3    H123066   2.558   3.892   2.701  1.5129 -1.7166 -0.2722
 7707TIP3    H223067   2.628   3.893   2.835 -1.2368  0.3460  1.2545
 7708TIP3   OH223068   0.394   5.088   3.220  0.1503  0.5272  0.3936
 7708TIP3    H123069   0.407   5.002   3.179  2.2926  0.7982  0.3826
 7708TIP3    H223070   0.393   5.070   3.314 -2.1688  0.2156  0.3660
 7709TIP3   OH223071   3.566   2.212   2.093  0.0333 -0.0524  0.2763
 7709TIP3    H123072   3.630   2.163   2.042 -1.0155  0.5055 -1.7080
 7709TIP3    H223073   3.511   2.255   2.027 -2.3080 -0.4027  1.8608
 7710TIP3   OH223074   6.414   6.522   4.364 -0.4926 -0.1043 -0.3914
 7710TIP3    H123075   6.357   6.469   4.309 -0.3989  0.5681 -1.1553
 7710TIP3    H223076   6.443   6.593   4.307 -0.5016  0.6873  0.5660
 7711TIP3   OH223077   5.316   4.360   2.540  0.1140  0.5220  0.1894
 7711TIP3    H123078   5.272   4.380   2.623 -1.7082 -0.7132 -0.4280
 7711TIP3    H223079   5.264   4.405   2.474 -0.7638 -1.6066 -0.6402
 7712TIP3   OH223080   5.711   4.615   1.423 -0.0984  0.0674 -0.5060
 7712TIP3    H123081   5.747   4.544   1.371 -0.2528 -0.6800  0.3850
 7712TIP3    H223082   5.618   4.595   1.430  0.0375 -0.2616  0.6628
 7713TIP3   OH223083   4.931   3.112   3.199  0.0741  0.0348  0.4182
 7713TIP3    H123084   5.018   3.072   3.191 -0.2742 -0.4833 -0.9437
 7713TIP3    H223085   4.877   3.065   3.136 -1.3217  0.0573  1.5483
 7714TIP3   OH223086   1.348   4.548   0.553 -0.0490  0.0220 -0.3271
 7714TIP3    H123087   1.424   4.562   0.610  0.1405  0.3483 -0.6481
 7714TIP3    H223088   1.356   4.457   0.524  0.9153  0.3996 -1.3292
 7715TIP3   OH223089   4.424   5.214   5.230 -0.1482 -0.3672 -0.4290
 7715TIP3    H123090   4.336   5.190   5.258 -0.3889  1.0555  0.1289
 7715TIP3    H223091   4.411   5.278   5.160  0.3945  0.9609  0.6281
 7716TIP3   OH223092   2.540   4.550   2.961  0.4833 -0.8530  0.1407
 7716TIP3    H123093   2.608   4.585   2.902  1.7405 -0.5710  1.6832
 7716TIP3    H223094   2.473   4.618   2.963  0.0365 -1.1987 -1.5352
 7717TIP3   OH223095   0.538   7.662   1.290 -0.3990  0.3288 -0.7258
 7717TIP3    H123096   0.524   7.600   1.219 -0.4272  1.2939 -1.5827
 7717TIP3    H223097   0.627   7.643   1.322 -1.0661 -1.3495  0.2674
 7718TIP3   OH223098   2.860   6.907   3.195  0.1018  0.2795 -0.2527
 7718TIP3    H123099   2.927   6.893   3.262  0.0461  0.3397 -0.1847
 7718TIP3    H223100   2.889   6.985   3.147 -0.2099  0.6405  0.1373
 7719TIP3   OH223101   5.063   6.880   3.250 -0.6360 -0.0627 -0.2813
 7719TIP3    H123102   5.069   6.859   3.343  1.7331  2.2898  0.2367
 7719TIP3    H223103   4.972   6.907   3.237 -0.7363  0.7438  1.6894
 7720TIP3   OH223104   1.469   0.514   1.867  0.0985  0.0669  0.4340
 7720TIP3    H123105   1.511   0.430   1.852 -0.8703 -0.0008 -2.7432
 7720TIP3    H223106   1.541   0.578   1.862  0.3879 -0.3278 -1.3173
 7721TIP3   OH223107   0.260   5.520   0.086  0.7344 -0.2984  0.5568
 7721TIP3    H123108   0.354   5.521   0.070  0.6520 -0.2540  0.0434
 7721TIP3    H223109   0.233   5.611   0.075  0.5101 -0.4344 -0.1132
 7722TIP3   OH223110   7.527   2.817   0.561 -0.2414 -0.0342  0.3146
 7722TIP3    H123111   7.441   2.833   0.600 -1.1197 -2.3499 -0.4738
 7722TIP3    H223112   7.508   2.772   0.479  1.7187 -0.0594 -0.1711
 7723TIP3   OH223113   5.066   5.218   0.151  0.4505 -0.3337 -0.1780
 7723TIP3    H123114   5.127   5.164   0.201 -0.3238 -0.1772  0.9713
 7723TIP3    H223115   5.057   5.298   0.203 -0.2151 -0.0796 -0.6731
 7724TIP3   OH223116   7.138   3.143   2.890  0.2432  0.7562  0.2414
 7724TIP3    H123117   7.160   3.081   2.960 -0.1874 -1.5882 -1.5594
 7724TIP3    H223118   7.086   3.210   2.933  0.5048 -0.2540  2.2713
 7725TIP3   OH223119   7.952   4.420   3.328  0.0566  0.0858 -0.2419
 7725TIP3    H123120   8.029   4.366   3.311  0.0143 -0.6710  1.7384
 7725TIP3    H223121   7.981   4.481   3.396 -1.8339 -2.2471  2.9239
 7726TIP3   OH223122   6.586   5.571   4.390 -0.0180 -0.0895 -0.0911
 7726TIP3    H123123   6.646   5.544   4.321  0.3415  0.4663 -0.0077
 7726TIP3    H223124   6.625   5.651   4.425 -1.1065  0.6130 -0.4302
 7727TIP3   OH223125   7.924   4.821   3.725  0.9170  0.0257 -0.6342
 7727TIP3    H123126   7.855   4.758   3.748  1.6870 -0.5187  0.2617
 7727TIP3    H223127   7.948   4.861   3.808  0.7567  1.2030 -1.1323
 7728TIP3   OH223128   3.928   5.297   4.612  0.2195 -0.1681 -0.6626
 7728TIP3    H123129   3.972   5.295   4.697 -1.6458 -0.6220  0.3419
 7728TIP3    H223130   3.935   5.208   4.579  2.6002  0.4160 -1.9389
 7729TIP3   OH223131   2.437   4.710   3.248  0.2544 -0.2733  0.3718
 7729TIP3    H123132   2.412   4.799   3.275  3.2224  0.4757  1.0059
 7729TIP3    H223133   2.412   4.706   3.156  0.1507  1.2895  0.2973
 7730TIP3   OH223134   6.261   4.391   0.367  0.0582 -0.2330  0.0162
 7730TIP3    H123135   6.215   4.468   0.335 -1.0953 -0.6011  0.7228
 7730TIP3    H223136   6.353   4.411   0.354 -0.2896  0.4450 -1.6394
 7731TIP3   OH223137   8.015   3.310   3.003  0.6503 -0.7265  0.4959
 7731TIP3    H123138   8.099   3.266   3.014  2.2185  2.0079  0.2457
 7731TIP3    H223139   8.003   3.314   2.908  0.6566 -0.3456  0.5131
 7732TIP3   OH223140   1.094   5.427   6.437  0.9286  0.1484  0.4182
 7732TIP3    H123141   1.010   5.381   6.436  1.2053 -0.3536 -0.1819
 7732TIP3    H223142   1.077   5.509   6.390  0.3258  0.9071  1.8552
 7733TIP3   OH223143   6.795   7.279   6.234 -0.0633  0.1157  0.4122
 7733TIP3    H123144   6.711   7.310   6.268 -0.6792  0.2430 -1.1511
 7733TIP3    H223145   6.778   7.259   6.142  1.0844 -1.8736  0.5645
 7734TIP3   OH223146   5.766   1.670   4.720  0.3111 -0.1304  0.0807
 7734TIP3    H123147   5.681   1.627   4.713  0.0794  0.2421  0.5277
 7734TIP3    H223148   5.820   1.628   4.653 -1.0811  1.6510 -2.3241
 7735TIP3   OH223149   3.995   3.284   1.926 -0.0207  0.2855  0.2747
 7735TIP3    H123150   3.910   3.324   1.909 -1.1069 -1.9100  0.1701
 7735TIP3    H223151   4.058   3.344   1.886 -1.4759  2.0793  0.5389
 7736TIP3   OH223152   3.647   1.363   6.485 -0.4633  0.0623  0.3664
 7736TIP3    H123153   3.607   1.414   6.556 -1.4884 -1.5190  1.0015
 7736TIP3    H223154   3.722   1.321   6.527  0.2308  0.8339 -0.0866
 7737TIP3   OH223155   2.061   3.562   3.847  0.1532 -0.1766  0.2230
 7737TIP3    H123156   2.097   3.484   3.889 -0.3751 -0.9915 -0.8110
 7737TIP3    H223157   2.034   3.618   3.920  1.2966 -0.5844  0.9847
 7738TIP3   OH223158   2.917   0.248   6.184  0.1434 -0.0074 -0.1457
 7738TIP3    H123159   2.861   0.198   6.243  2.1907 -3.3127 -0.7555
 7738TIP3    H223160   2.996   0.265   6.235  0.2453  0.9105 -0.5957
 7739TIP3   OH223161   0.570   2.929   1.612  0.2414 -0.4014 -0.2370
 7739TIP3    H123162   0.534   2.922   1.701  0.9187 -1.1866 -0.0137
 7739TIP3    H223163   0.654   2.973   1.624  0.9459 -1.6826 -0.3028
 7740TIP3   OH223164   2.843   2.851   3.006  0.1462  0.1271  0.4480
 7740TIP3    H123165   2.793   2.889   3.079  0.8767 -1.5595  1.9258
 7740TIP3    H223166   2.811   2.761   3.001  0.4042  0.0984 -1.1054
 7741TIP3   OH223167   0.062   6.874   5.195 -0.6304 -0.1094  0.3402
 7741TIP3    H123168   0.109   6.858   5.277 -0.6742 -1.4319  0.1212
 7741TIP3    H223169  -0.030   6.884   5.221 -0.3936  1.5692  0.6634
 7742TIP3   OH223170   0.576   4.662   3.739  0.0236  0.3034 -0.2095
 7742TIP3    H123171   0.528   4.580   3.752 -0.4255  0.7346  0.9750
 7742TIP3    H223172   0.646   4.639   3.678 -1.1232 -0.5448 -1.2659
 7743TIP3   OH223173   5.353   7.760   3.505  0.0261 -0.0942 -0.2179
 7743TIP3    H123174   5.293   7.722   3.569 -1.5117  1.0903 -0.9004
 7743TIP3    H223175   5.440   7.739   3.538 -0.7053 -3.2031  0.0083
 7744TIP3   OH223176   2.292   2.563   5.873  0.2296  0.1147 -0.0099
 7744TIP3    H123177   2.294   2.568   5.969 -0.9903 -2.4235  0.2457
 7744TIP3    H223178   2.375   2.521   5.850 -0.1974 -0.8128  0.1099
 7745TIP3   OH223179   3.728   1.808   3.355  0.1855  0.0093 -0.4718
 7745TIP3    H123180   3.762   1.727   3.317 -1.1979 -0.8446  0.0618
 7745TIP3    H223181   3.784   1.823   3.432 -1.0306 -1.8120  0.8563
 7746TIP3   OH223182   5.700   3.748   0.239 -0.2880  0.3223  0.2415
 7746TIP3    H123183   5.644   3.671   0.250 -1.9612  1.6419  1.5113
 7746TIP3    H223184   5.658   3.797   0.168 -0.3879  1.0086  0.7697
 7747TIP3   OH223185   1.873   4.526   3.302  0.6009 -0.6327  0.1834
 7747TIP3    H123186   1.923   4.565   3.230 -0.5197  0.4145 -0.0568
 7747TIP3    H223187   1.924   4.548   3.380  0.9616 -0.3234 -0.1295
 7748TIP3   OH223188   3.414   0.653   4.546  0.0145 -0.0536 -0.6216
 7748TIP3    H123189   3.420   0.740   4.506 -1.4865 -0.1272 -1.0746
 7748TIP3    H223190   3.453   0.664   4.633 -2.0618  1.6405  0.1723
 7749TIP3   OH223191   0.701   1.477   3.190  0.6382  0.0981 -0.0389
 7749TIP3    H123192   0.631   1.412   3.186  0.4769  0.2751 -0.1326
 7749TIP3    H223193   0.761   1.453   3.119 -0.0224  0.7310 -0.8368
 7750TIP3   OH223194   0.134   6.198   6.374 -0.3146 -0.2079  0.4188
 7750TIP3    H123195   0.102   6.255   6.305  0.5911  0.4809  0.5535
 7750TIP3    H223196   0.196   6.140   6.330  0.0826  0.0724  0.6090
 7751TIP3   OH223197   0.630   3.786   2.390 -0.1108  0.1902  0.4911
 7751TIP3    H123198   0.710   3.836   2.377  0.3580 -0.8119 -0.6257
 7751TIP3    H223199   0.560   3.851   2.380  0.4345  0.5075 -2.0309
 7752TIP3   OH223200   5.052   7.579   0.311  0.1400  0.1282  0.0648
 7752TIP3    H123201   5.031   7.528   0.389 -1.0926 -0.4286 -0.6009
 7752TIP3    H223202   5.132   7.627   0.334 -0.0863 -0.1773  1.5829
 7753TIP3   OH223203   0.413   1.922   1.940 -0.0950 -0.0888 -0.4813
 7753TIP3    H123204   0.379   1.890   2.024 -1.0472  0.8720 -0.4795
 7753TIP3    H223205   0.507   1.931   1.955  0.0181 -1.5963 -0.0827
 7754TIP3   OH223206   1.699   6.437   5.667  0.2223  0.3291 -0.2307
 7754TIP3    H123207   1.763   6.479   5.609  2.5658  2.2699  3.3700
 7754TIP3    H223208   1.751   6.378   5.721 -1.6245 -0.5297  0.7039
 7755TIP3   OH223209   0.507   4.524   5.007 -0.3353  0.0498 -0.1173
 7755TIP3    H123210   0.522   4.429   5.010 -0.7526 -0.0557 -1.0295
 7755TIP3    H223211   0.473   4.546   5.094  1.3162 -0.3526  0.6631
 7756TIP3   OH223212   7.387   4.812   2.210 -0.1080 -0.4774  0.0298
 7756TIP3    H123213   7.471   4.786   2.246 -0.0947 -0.5977 -0.0872
 7756TIP3    H223214   7.322   4.765   2.263 -0.0757 -0.9479 -0.3416
 7757TIP3   OH223215   6.168   1.535   6.620 -0.3325 -0.8830 -0.5747
 7757TIP3    H123216   6.085   1.581   6.629  0.4392  0.4440  0.1398
 7757TIP3    H223217   6.162   1.462   6.682  0.3820  1.3464  2.3460
 7758TIP3   OH223218   3.208   6.289   2.815 -0.0158 -0.4846  0.2664
 7758TIP3    H123219   3.286   6.245   2.849  0.7084  1.0790  0.7065
 7758TIP3    H223220   3.242   6.356   2.756 -1.0368 -0.0173  0.1870
 7759TIP3   OH223221   3.242   4.592   2.235  0.3331  0.7159 -0.3594
 7759TIP3    H123222   3.238   4.511   2.184 -0.4095 -2.1759  3.7032
 7759TIP3    H223223   3.332   4.596   2.267  0.7562  2.3937 -1.6152
 7760TIP3   OH223224   0.774   4.354   1.367 -0.2671 -0.2289 -0.0744
 7760TIP3    H123225   0.758   4.353   1.461  1.3520  1.7515  0.3026
 7760TIP3    H223226   0.823   4.274   1.350  2.1069  0.7880  1.4104
 7761TIP3   OH223227   4.151   2.142   5.203  0.5032  0.2806  0.2445
 7761TIP3    H123228   4.095   2.075   5.242  0.0458  0.4885 -0.0485
 7761TIP3    H223229   4.144   2.126   5.108  1.4576 -0.1098  0.2257
 7762TIP3   OH223230   2.489   7.080   2.238  0.2137  0.2576 -0.0096
 7762TIP3    H123231   2.507   7.017   2.307 -0.4073  0.7714  0.6265
 7762TIP3    H223232   2.557   7.147   2.248 -0.6418  1.0005  0.9301
 7763TIP3   OH223233   2.855   0.379   3.342  0.6115  0.5775  0.2202
 7763TIP3    H123234   2.948   0.384   3.322  0.9356  1.5417  1.7587
 7763TIP3    H223235   2.844   0.437   3.418 -1.2379  0.4742  0.0747
 7764TIP3   OH223236   2.530   7.613   2.163  0.0683  0.4567  0.3876
 7764TIP3    H123237   2.599   7.639   2.224  0.3425  3.2603 -0.9587
 7764TIP3    H223238   2.470   7.688   2.162 -0.8554 -0.2438 -1.4355
 7765TIP3   OH223239   7.462   1.446   4.893 -0.1393 -0.5467  0.5552
 7765TIP3    H123240   7.503   1.524   4.855  0.8879 -0.8162  1.0675
 7765TIP3    H223241   7.466   1.460   4.987 -0.2702 -1.0516  0.6398
 7766TIP3   OH223242   4.580   3.205   2.839  0.1331  0.1385 -0.0937
 7766TIP3    H123243   4.489   3.192   2.865  0.3106 -0.6591  0.1498
 7766TIP3    H223244   4.605   3.287   2.881 -0.5892  0.5886 -0.5013
 7767TIP3   OH223245   3.309   3.399   0.879  0.3723  0.3755 -0.4759
 7767TIP3    H123246   3.318   3.404   0.974 -1.6143 -0.7965 -0.1732
 7767TIP3    H223247   3.268   3.482   0.855 -1.0072 -0.1220  0.0095
 7768TIP3   OH223248   6.327   5.594   2.355  0.3410  0.8480 -0.4629
 7768TIP3    H123249   6.249   5.611   2.301  0.2748  1.0476 -0.3083
 7768TIP3    H223250   6.308   5.640   2.437 -0.0410 -0.3676  0.1449
 7769TIP3   OH223251   4.630   4.207   3.431  0.0281  0.6284  0.1759
 7769TIP3    H123252   4.628   4.253   3.347  1.6862  0.5929  0.0804
 7769TIP3    H223253   4.598   4.271   3.494 -0.5380  0.8954 -0.3713
 7770TIP3   OH223254   2.049   1.872   0.380  0.0715  0.2535 -0.0563
 7770TIP3    H123255   2.085   1.949   0.335  0.2463  0.2947  0.1518
 7770TIP3    H223256   1.955   1.877   0.365  0.1260  0.2774 -0.4019
 7771TIP3   OH223257   0.212   3.383   2.548  0.3590 -0.5899 -0.2318
 7771TIP3    H123258   0.280   3.323   2.518  0.0502 -1.4291  0.7028
 7771TIP3    H223259   0.217   3.380   2.643 -0.1569  0.3078 -0.1653
 7772TIP3   OH223260   5.077   4.904   3.992 -1.0143 -0.0355 -0.0892
 7772TIP3    H123261   5.126   4.855   3.927  1.1139  1.7950  0.0264
 7772TIP3    H223262   5.138   4.972   4.022 -2.2207 -0.2520  3.1643
 7773TIP3   OH223263   1.439   7.248   0.528 -0.3940 -0.5875 -0.5195
 7773TIP3    H123264   1.491   7.185   0.478  0.0636 -0.1861 -0.5557
 7773TIP3    H223265   1.480   7.251   0.614  0.2941  0.5021 -0.8645
 7774TIP3   OH223266   7.821   2.677   1.497  0.2460  0.0491  0.0317
 7774TIP3    H123267   7.826   2.583   1.484  0.4533 -0.0594  0.8461
 7774TIP3    H223268   7.755   2.707   1.434  0.7277 -0.5261 -0.7554
 7775TIP3   OH223269   5.175   0.309   2.219  0.4335 -0.4651 -0.0655
 7775TIP3    H123270   5.250   0.339   2.167 -0.1649 -1.2914 -1.4399
 7775TIP3    H223271   5.214   0.283   2.303  1.2543  2.0283  0.4103
 7776TIP3   OH223272   5.147   0.018   6.257  0.1329  0.4153  0.1394
 7776TIP3    H123273   5.223  -0.028   6.295  0.0890  1.4561  1.5976
 7776TIP3    H223274   5.185   0.079   6.195  0.2729 -0.7912 -1.0048
 7777TIP3   OH223275   0.931   3.570   2.488 -0.1060  0.1795  0.4790
 7777TIP3    H123276   0.966   3.635   2.427 -1.1115  1.0619  0.8285
 7777TIP3    H223277   0.889   3.504   2.432  2.8102 -1.4388 -0.0393
 7778TIP3   OH223278   4.637   2.251   5.770  0.2218  0.1106 -0.5800
 7778TIP3    H123279   4.616   2.176   5.714  2.9255  0.4016 -2.1478
 7778TIP3    H223280   4.729   2.239   5.793 -0.0264  1.5416  1.4710
 7779TIP3   OH223281   4.744   5.049   1.220 -0.2648 -0.6056 -0.3322
 7779TIP3    H123282   4.718   5.008   1.138 -0.3626 -2.1800  0.4504
 7779TIP3    H223283   4.742   4.978   1.284  0.8108  0.3616  0.8295
 7780TIP3   OH223284   6.278   0.158   5.139 -0.1060 -0.4811 -0.1143
 7780TIP3    H123285   6.221   0.124   5.070 -0.1847  0.5909 -0.6133
 7780TIP3    H223286   6.221   0.168   5.215 -0.2829 -0.6274 -0.2255
 7781TIP3   OH223287   2.941   4.048   6.353 -0.1376 -0.3859  0.2493
 7781TIP3    H123288   2.884   4.109   6.399  1.9719  0.1694  2.3220
 7781TIP3    H223289   3.010   4.103   6.315  0.0675 -1.1954 -0.5963
 7782TIP3   OH223290   0.716   1.859   2.401  0.1910  0.7543  0.4148
 7782TIP3    H123291   0.647   1.798   2.426  1.0564 -0.8751 -0.9333
 7782TIP3    H223292   0.680   1.905   2.325  0.6322 -0.2744 -0.4449
 7783TIP3   OH223293   5.946   6.671   2.089  0.2224 -0.4186 -0.0486
 7783TIP3    H123294   5.964   6.762   2.068  1.9963 -0.5559  0.7267
 7783TIP3    H223295   5.886   6.674   2.163 -2.2385  0.0613 -1.9252
 7784TIP3   OH223296   6.056   7.538   5.450  0.0427 -0.2357  0.3257
 7784TIP3    H123297   5.984   7.566   5.394  2.5439  1.3251 -2.3221
 7784TIP3    H223298   6.093   7.461   5.406  1.3160  0.2803  0.4478
 7785TIP3   OH223299   4.471   0.008   6.264  0.4462  0.0898  0.1182
 7785TIP3    H123300   4.486   0.093   6.223  0.5559 -0.2447 -0.5363
 7785TIP3    H223301   4.480   0.026   6.358 -0.8105  1.0661  0.0773
 7786TIP3   OH223302   4.565   3.634   3.041  0.3508 -0.5799 -0.1860
 7786TIP3    H123303   4.509   3.710   3.026 -1.9689 -1.1281  4.1827
 7786TIP3    H223304   4.654   3.670   3.042 -0.6801  2.4101  2.4082
 7787TIP3   OH223305   1.292   3.835   3.321 -0.1265 -0.0248  0.1482
 7787TIP3    H123306   1.263   3.785   3.398  2.7092 -0.5846  0.9724
 7787TIP3    H223307   1.374   3.793   3.295 -0.3909  0.9384 -2.4802
 7788TIP3   OH223308   7.372   4.131   4.174  0.0653  0.1255  0.2751
 7788TIP3    H123309   7.441   4.092   4.119  0.9592  0.0287  1.4306
 7788TIP3    H223310   7.387   4.094   4.261 -0.8064  0.9198  0.7747
 7789TIP3   OH223311   3.281   5.947   3.809  0.2031  0.4551  0.2749
 7789TIP3    H123312   3.268   6.026   3.860 -1.3224  1.4268 -1.5160
 7789TIP3    H223313   3.232   5.961   3.729  0.7643 -1.8803 -0.5709
 7790TIP3   OH223314   4.523   2.781   0.813  0.3290  0.1565 -0.1222
 7790TIP3    H123315   4.453   2.837   0.780 -0.5796 -1.5536 -1.2483
 7790TIP3    H223316   4.586   2.776   0.742  0.4815 -0.0919  0.0274
 7791TIP3   OH223317   5.479   7.356   3.246  0.3592  0.4080 -0.1198
 7791TIP3    H123318   5.449   7.287   3.306 -1.1418  1.1045 -0.0304
 7791TIP3    H223319   5.412   7.423   3.251  0.6878  0.9137 -1.8743
 7792TIP3   OH223320   6.399   3.632   3.894  0.3316  0.6451 -0.0698
 7792TIP3    H123321   6.344   3.594   3.963 -0.5780 -1.8593 -1.9783
 7792TIP3    H223322   6.489   3.610   3.921 -0.0402 -0.8468  0.0801
 7793TIP3   OH223323   6.658   1.517   0.572  0.1849  0.0027 -0.8299
 7793TIP3    H123324   6.665   1.566   0.654 -0.9168  0.0514 -0.7452
 7793TIP3    H223325   6.730   1.454   0.576  0.7503  0.6650 -0.2895
 7794TIP3   OH223326   5.465   6.673   3.043 -0.3336 -0.0272 -1.0156
 7794TIP3    H123327   5.513   6.597   3.010 -0.6429 -0.8543  0.3560
 7794TIP3    H223328   5.376   6.641   3.056 -0.5086  0.6181 -0.5899
 7795TIP3   OH223329   3.561   0.792   0.747 -0.4280 -0.4232  0.5579
 7795TIP3    H123330   3.650   0.760   0.731 -1.0096 -2.3606  0.8734
 7795TIP3    H223331   3.557   0.805   0.841 -0.3727  0.0128  0.5000
 7796TIP3   OH223332   4.772   7.128   5.315  0.0445  0.5174 -0.4050
 7796TIP3    H123333   4.848   7.093   5.361 -0.3966  0.7797  0.5520
 7796TIP3    H223334   4.788   7.222   5.310 -0.5017  0.6623  0.3749
 7797TIP3   OH223335   5.592   3.524   4.973 -0.0486  0.2684  0.4053
 7797TIP3    H123336   5.540   3.595   4.936 -0.1257  0.9668  1.7875
 7797TIP3    H223337   5.527   3.458   4.999 -0.0389  0.0399 -0.1399
 7798TIP3   OH223338   7.801   6.313   5.722  0.4518 -0.2218 -0.0155
 7798TIP3    H123339   7.785   6.219   5.724 -0.7771 -0.0191  0.8132
 7798TIP3    H223340   7.819   6.337   5.813 -2.1191  0.7429  0.3483
 7799TIP3   OH223341   3.785   0.959   4.927  0.0617 -0.5702 -0.3229
 7799TIP3    H123342   3.812   0.888   4.869 -1.7365 -0.7462 -1.0103
 7799TIP3    H223343   3.749   0.915   5.004  0.2544 -0.3731 -0.1189
 7800TIP3   OH223344   2.720   7.206   0.387 -0.4912  0.4492  0.2134
 7800TIP3    H123345   2.734   7.114   0.365 -1.6619  0.7785 -2.1883
 7800TIP3    H223346   2.742   7.254   0.307  2.1683  2.5593  1.9991
 7801TIP3   OH223347   3.056   2.083   6.475  0.5046 -0.0198 -0.2548
 7801TIP3    H123348   2.984   2.146   6.480 -0.7090 -1.2955 -0.7722
 7801TIP3    H223349   3.049   2.046   6.387  1.8578 -0.1288 -0.3376
 7802TIP3   OH223350   4.222   3.602   2.574 -0.4194 -0.4375  0.2484
 7802TIP3    H123351   4.184   3.515   2.587 -0.7097 -0.3520 -0.0026
 7802TIP3    H223352   4.296   3.587   2.515 -1.8798 -0.2251 -1.7360
 7803TIP3   OH223353   6.153   2.958   1.110  0.1348 -0.3413  0.4070
 7803TIP3    H123354   6.135   3.049   1.084  0.0451 -0.7091 -0.8963
 7803TIP3    H223355   6.072   2.929   1.152  0.4303  0.4073  1.5454
 7804TIP3   OH223356   0.911   4.157   4.139 -0.2206  0.2347  0.3673
 7804TIP3    H123357   0.954   4.167   4.223  1.2839 -1.3094 -0.1804
 7804TIP3    H223358   0.861   4.239   4.128  0.8060  1.1312  2.0110
 7805TIP3   OH223359   1.666   4.617   5.201 -0.5231  0.3933  0.0636
 7805TIP3    H123360   1.696   4.638   5.289 -1.3430  2.0327 -0.0165
 7805TIP3    H223361   1.647   4.523   5.204  0.6804  0.1582  1.2431
 7806TIP3   OH223362   4.413   4.857   3.585  0.4511  0.6006 -0.2541
 7806TIP3    H123363   4.481   4.924   3.595  1.1912  0.4707 -3.5372
 7806TIP3    H223364   4.408   4.816   3.671  1.6149  3.2921  1.2356
 7807TIP3   OH223365   5.765   2.702   3.301 -0.3445  0.0186  0.1951
 7807TIP3    H123366   5.803   2.624   3.340 -0.6807 -0.5595 -0.6015
 7807TIP3    H223367   5.702   2.669   3.237 -1.2097  0.9411  0.5315
 7808TIP3   OH223368   3.042   2.965   5.851 -0.0738  0.1536 -0.7316
 7808TIP3    H123369   3.099   3.015   5.909  0.3274 -0.6086 -0.4490
 7808TIP3    H223370   2.989   2.911   5.910 -1.5600  1.3025 -0.9515
 7809TIP3   OH223371   0.659   4.555   4.619 -0.1387 -0.2511 -0.1032
 7809TIP3    H123372   0.716   4.574   4.693 -1.2604 -1.4102  1.1035
 7809TIP3    H223373   0.719   4.535   4.547  0.9632  0.4803  0.5860
 7810TIP3   OH223374   5.041   2.552   2.671 -0.8094 -0.0845 -0.0161
 7810TIP3    H123375   5.063   2.465   2.638  0.9465  0.2122  0.2807
 7810TIP3    H223376   5.106   2.610   2.630 -0.3767  0.7052  1.7088
 7811TIP3   OH223377   5.060   0.427   1.977  0.2048  0.8404 -0.3395
 7811TIP3    H123378   5.093   0.375   2.051 -0.5169 -0.4620 -0.9160
 7811TIP3    H223379   5.011   0.498   2.019  0.4699  0.5774  0.4438
 7812TIP3   OH223380   5.952   2.896   6.237  0.6436 -0.1516 -0.3652
 7812TIP3    H123381   5.997   2.927   6.315  1.6840  0.5740 -1.2242
 7812TIP3    H223382   6.022   2.863   6.180 -0.2185 -2.1148 -0.3946
 7813TIP3   OH223383   4.669   7.560   4.410 -0.5467  0.4842  0.6812
 7813TIP3    H123384   4.621   7.527   4.486  1.1633  0.8579  2.0170
 7813TIP3    H223385   4.659   7.655   4.415 -0.2266  0.5237  0.5886
 7814TIP3   OH223386   3.464   5.728   1.172 -0.3052  0.6570  0.0303
 7814TIP3    H123387   3.539   5.748   1.117  0.1210  0.5126  0.5593
 7814TIP3    H223388   3.401   5.797   1.151 -0.0918  0.6895 -0.5257
 7815TIP3   OH223389   6.254   3.063   4.595 -0.0177 -0.2066  0.0128
 7815TIP3    H123390   6.161   3.064   4.615 -0.1212  0.3435 -0.4867
 7815TIP3    H223391   6.281   2.973   4.612 -0.3462 -0.0649  1.4738
 7816TIP3   OH223392   3.997   6.710   3.083 -0.3591 -0.5718 -0.1845
 7816TIP3    H123393   3.957   6.775   3.142 -0.4506  0.8544 -1.7430
 7816TIP3    H223394   3.935   6.701   3.011  2.2254  2.2817 -3.0741
 7817TIP3   OH223395   5.829   1.711   2.856 -0.3244 -0.6149 -0.0505
 7817TIP3    H123396   5.830   1.717   2.760  1.9289 -1.1671 -0.1065
 7817TIP3    H223397   5.880   1.633   2.876 -1.4365 -0.9697  1.6083
 7818TIP3   OH223398   2.143   0.320   1.544 -0.7269  0.2275 -0.1237
 7818TIP3    H123399   2.236   0.339   1.562 -1.1930  1.7739  0.9468
 7818TIP3    H223400   2.133   0.227   1.564  0.6153  0.0112 -0.3636
 7819TIP3   OH223401   4.560   0.849   3.348 -0.4819 -0.1809 -0.2056
 7819TIP3    H123402   4.596   0.886   3.429  2.8546 -1.0678 -1.1157
 7819TIP3    H223403   4.592   0.907   3.280  0.8989 -2.0566 -1.2447
 7820TIP3   OH223404   7.804   1.789   1.506  0.1463 -0.7167  0.4828
 7820TIP3    H123405   7.716   1.754   1.494  0.4966 -1.2641 -0.5747
 7820TIP3    H223406   7.801   1.832   1.591 -0.6783 -2.1458  1.2127
 7821TIP3   OH223407   5.161   0.845   2.013  0.0546  0.1561 -0.1414
 7821TIP3    H123408   5.204   0.887   1.938 -0.1615  0.0508 -0.3276
 7821TIP3    H223409   5.072   0.829   1.982 -0.1400  0.4429  0.2658
 7822TIP3   OH223410   7.138   5.724   6.438  0.4137  0.2458  0.3170
 7822TIP3    H123411   7.187   5.776   6.502  0.2213  0.1574  0.5371
 7822TIP3    H223412   7.103   5.651   6.489  1.4891 -0.6338 -0.1657
 7823TIP3   OH223413   5.343   0.492   4.341  0.4953 -0.1996 -0.0372
 7823TIP3    H123414   5.340   0.528   4.252  0.0599  0.1820  0.1319
 7823TIP3    H223415   5.393   0.556   4.391 -0.0893  0.0624  0.2135
 7824TIP3   OH223416   1.380   1.211   2.575 -0.4270 -0.0673  0.1580
 7824TIP3    H123417   1.460   1.249   2.539  0.1256 -0.6347  0.7794
 7824TIP3    H223418   1.402   1.121   2.596 -0.5991  0.3312  2.2720
 7825TIP3   OH223419   0.650   0.448   1.194  0.5355  0.3599  0.1773
 7825TIP3    H123420   0.578   0.405   1.148  1.0187  1.4447 -1.6616
 7825TIP3    H223421   0.727   0.395   1.173  0.4131 -0.5309  1.7707
 7826TIP3   OH223422   8.206   5.430   5.197  0.3344  0.0740  0.2942
 7826TIP3    H123423   8.258   5.509   5.180  2.0738 -1.0844 -0.0831
 7826TIP3    H223424   8.248   5.390   5.273 -0.9025 -0.1777  0.8501
 7827TIP3   OH223425   6.365   2.116   3.630  0.3707 -0.0042 -0.1006
 7827TIP3    H123426   6.309   2.115   3.708  0.7455  0.2677  0.1780
 7827TIP3    H223427   6.304   2.117   3.556  0.0100  0.2131  0.1972
 7828TIP3   OH223428   4.757   2.663   2.602  0.2173 -0.5527 -0.4245
 7828TIP3    H123429   4.840   2.645   2.646 -0.1422 -0.0691  0.4610
 7828TIP3    H223430   4.690   2.639   2.665 -0.3093 -0.0757 -0.7905
 7829TIP3   OH223431   2.766   0.341   6.422  0.5054 -0.0248 -0.2930
 7829TIP3    H123432   2.832   0.279   6.453 -1.2909 -1.7450  0.3279
 7829TIP3    H223433   2.706   0.288   6.370 -0.4958  1.4414 -0.7051
 7830TIP3   OH223434   0.683   1.489   0.381  0.1722 -0.1381 -1.2811
 7830TIP3    H123435   0.594   1.517   0.404  0.5770  0.7439 -0.6942
 7830TIP3    H223436   0.737   1.567   0.397  1.4866 -1.4071  1.1196
 7831TIP3   OH223437   5.322   1.045   6.101  0.7688 -0.0483  0.1421
 7831TIP3    H123438   5.245   1.080   6.057  1.7642 -0.0708 -1.7182
 7831TIP3    H223439   5.340   0.962   6.057  1.4273 -0.4237  1.0566
 7832TIP3   OH223440   7.753   3.911   2.905  0.1838  0.1056 -0.5022
 7832TIP3    H123441   7.773   3.968   2.831  1.4000  0.2144 -0.1205
 7832TIP3    H223442   7.839   3.878   2.933 -0.2136  0.3016  1.0397
 7833TIP3   OH223443   3.241   7.830   1.699  0.1880 -0.3223  0.2710
 7833TIP3    H123444   3.153   7.801   1.722 -1.0386  2.1789 -0.9678
 7833TIP3    H223445   3.254   7.798   1.609  0.8449 -1.2280  0.6676
 7834TIP3   OH223446   4.982   4.092   3.176 -0.0959 -0.4344  0.1737
 7834TIP3    H123447   4.945   4.039   3.106 -1.6918 -0.0201  0.6550
 7834TIP3    H223448   4.996   4.178   3.136 -0.1857 -0.4438  0.1208
 7835TIP3   OH223449   2.829   2.455   0.454  0.4986  0.4228 -0.0986
 7835TIP3    H123450   2.818   2.533   0.509 -0.4498  0.1221  0.1689
 7835TIP3    H223451   2.767   2.392   0.491  0.5280 -0.1098 -0.9407
 7836TIP3   OH223452   6.739   5.767   5.633  0.2024 -0.0725 -0.2845
 7836TIP3    H123453   6.715   5.693   5.577  1.0465  0.0547 -0.8351
 7836TIP3    H223454   6.670   5.771   5.699  0.2111 -1.4176 -0.1812
 7837TIP3   OH223455   2.903   6.162   0.516 -0.1113 -0.4783  0.3369
 7837TIP3    H123456   2.997   6.181   0.516 -0.0914 -0.4353 -1.2434
 7837TIP3    H223457   2.864   6.234   0.566  0.6947 -0.5116  1.0273
 7838TIP3   OH223458   6.643   2.701   3.932  0.2759  0.1284 -0.4416
 7838TIP3    H123459   6.644   2.615   3.890 -1.9172 -0.7477  1.1071
 7838TIP3    H223460   6.550   2.718   3.948  0.7127  2.5929 -0.2685
 7839TIP3   OH223461   5.088   7.473   1.279  0.0669  0.2457 -0.1100
 7839TIP3    H123462   5.152   7.445   1.344 -0.2560 -1.3557 -0.4327
 7839TIP3    H223463   5.013   7.415   1.294 -1.4255  2.2008  0.3988
 7840TIP3   OH223464   5.237   0.666   5.342  0.3653 -0.3788  0.4707
 7840TIP3    H123465   5.189   0.718   5.277  0.6224  1.4663  1.7140
 7840TIP3    H223466   5.193   0.684   5.425  1.1484 -1.2937  1.1031
 7841TIP3   OH223467   2.476   5.469   1.123 -0.3723 -0.0539 -0.6543
 7841TIP3    H123468   2.482   5.471   1.028  0.4092 -1.3690 -0.6630
 7841TIP3    H223469   2.536   5.399   1.149 -0.8969 -0.0056  0.7760
 7842TIP3   OH223470   6.023   1.667   5.823 -0.0583 -0.9776  0.0427
 7842TIP3    H123471   5.956   1.623   5.771  0.5533 -0.6664 -1.0316
 7842TIP3    H223472   6.106   1.644   5.780  0.3627  0.2867  0.1311
 7843TIP3   OH223473   2.175   4.926   2.291 -0.0850  0.7306 -0.0733
 7843TIP3    H123474   2.080   4.922   2.291 -0.1237  1.3963 -0.9561
 7843TIP3    H223475   2.202   4.857   2.229 -0.0782  1.7656 -1.2569
 7844TIP3   OH223476   7.367   3.437   0.151  0.1538 -0.1186  0.0067
 7844TIP3    H123477   7.407   3.501   0.210  1.0659  0.3611 -1.1057
 7844TIP3    H223478   7.383   3.353   0.193  1.3575  0.1605  0.1437
 7845TIP3   OH223479   7.417   1.418   3.763 -0.0238  0.4484 -0.1292
 7845TIP3    H123480   7.420   1.507   3.728 -0.8628  0.4442 -0.2301
 7845TIP3    H223481   7.438   1.362   3.689 -1.1428  0.4776 -0.4887
 7846TIP3   OH223482   7.130   4.530   5.707  0.4073  0.2918  0.0658
 7846TIP3    H123483   7.035   4.521   5.700  0.5437 -0.6850 -0.7329
 7846TIP3    H223484   7.149   4.616   5.670 -0.0502 -0.1108 -1.1841
 7847TIP3   OH223485   1.741   2.451   2.907 -0.2504  0.0743 -0.6664
 7847TIP3    H123486   1.826   2.407   2.904 -0.9803 -1.3975 -0.6367
 7847TIP3    H223487   1.752   2.520   2.973  1.0933  0.3185 -1.1148
 7848TIP3   OH223488   2.748   7.730   3.740 -0.8879  0.2415 -0.0387
 7848TIP3    H123489   2.700   7.674   3.679 -0.2383 -1.4207  0.9146
 7848TIP3    H223490   2.836   7.737   3.702 -1.3409  1.8089 -0.8670
 7849TIP3   OH223491   6.442   0.269   3.859  0.5288  0.5810  0.5274
 7849TIP3    H123492   6.467   0.215   3.934  0.8035 -0.2960 -0.1911
 7849TIP3    H223493   6.469   0.219   3.782 -0.7486  0.9613 -0.2007
 7850TIP3   OH223494   4.666   7.184   5.035  0.0778  0.1813  0.4102
 7850TIP3    H123495   4.645   7.138   4.953 -2.2029 -1.2834  1.7128
 7850TIP3    H223496   4.735   7.131   5.074 -0.8222 -0.7787  0.7413
 7851TIP3   OH223497   1.593   7.426   3.664  0.2335  0.1436  0.3007
 7851TIP3    H123498   1.636   7.424   3.579  0.5215 -1.0916  0.4598
 7851TIP3    H223499   1.500   7.415   3.645  0.4762 -2.3878  0.2258
 7852TIP3   OH223500   6.300   4.314   1.221  0.1698  0.6170 -0.2474
 7852TIP3    H123501   6.348   4.245   1.175  0.3726 -0.0610  0.9655
 7852TIP3    H223502   6.353   4.332   1.299 -0.7794  0.9187  0.3330
 7853TIP3   OH223503   4.808   0.716   1.698 -0.5334 -0.3538  0.0240
 7853TIP3    H123504   4.898   0.749   1.698 -0.8877  0.7524 -1.7166
 7853TIP3    H223505   4.795   0.682   1.786  0.7734  1.7671  1.1288
 7854TIP3   OH223506   4.920   6.723   5.074  0.3406 -0.3458 -0.3181
 7854TIP3    H123507   4.839   6.773   5.087 -0.9203 -2.3331 -0.1381
 7854TIP3    H223508   4.948   6.699   5.162  2.9014  2.8065 -0.0881
 7855TIP3   OH223509   7.099   4.861   0.726  0.1110  0.0352 -0.0277
 7855TIP3    H123510   7.099   4.765   0.718 -0.3007  0.1838 -3.6662
 7855TIP3    H223511   7.154   4.878   0.802 -2.5433 -3.0994  2.9400
 7856TIP3   OH223512   3.476   3.226   0.261 -0.3715 -0.7639  0.0893
 7856TIP3    H123513   3.561   3.243   0.220 -0.6537 -4.3429 -2.5301
 7856TIP3    H223514   3.412   3.244   0.192 -1.5714 -0.0471  1.3612
 7857TIP3   OH223515   4.284   1.400   1.550  0.7403  0.0428 -0.0115
 7857TIP3    H123516   4.307   1.445   1.631  2.6904  2.0974 -1.5893
 7857TIP3    H223517   4.359   1.343   1.532 -0.3537 -1.5906  0.3591
 7858TIP3   OH223518   3.919   4.429   0.396 -0.2577 -0.5732 -0.3695
 7858TIP3    H123519   3.855   4.499   0.412  1.3901  0.9200  0.0876
 7858TIP3    H223520   3.913   4.413   0.302 -0.8798 -0.0292 -0.4364
 7859TIP3   OH223521   1.179   3.191   1.909  0.1108  0.1998  0.5675
 7859TIP3    H123522   1.102   3.247   1.900  0.0282  0.0537  0.3692
 7859TIP3    H223523   1.253   3.251   1.898  0.0412  0.4557  1.3844
 7860TIP3   OH223524   2.239   3.018   1.182 -0.6895 -0.0567  0.5018
 7860TIP3    H123525   2.248   2.925   1.202  0.3615 -0.0165  0.2732
 7860TIP3    H223526   2.145   3.031   1.168 -0.5690 -1.8009 -2.9482
 7861TIP3   OH223527   6.023   1.395   0.999 -0.0425  0.1454 -0.3592
 7861TIP3    H123528   6.085   1.462   1.029 -0.8381  0.4465  0.6934
 7861TIP3    H223529   5.977   1.368   1.079 -1.8459  0.5540 -1.2117
 7862TIP3   OH223530   7.737   2.738   5.009  0.1776 -0.6969 -0.2097
 7862TIP3    H123531   7.830   2.760   5.017  0.5073 -1.9253 -0.3848
 7862TIP3    H223532   7.735   2.665   4.947 -1.0047 -0.1110 -0.9197
 7863TIP3   OH223533   6.890   6.824   2.136  0.2241  0.1041  0.1281
 7863TIP3    H123534   6.936   6.789   2.212  1.9686  0.1673 -0.8604
 7863TIP3    H223535   6.859   6.747   2.088  1.5889 -0.0491 -0.5506
 7864TIP3   OH223536   3.666   5.445   6.728  0.5594 -0.2951 -0.0589
 7864TIP3    H123537   3.760   5.456   6.740  0.7151 -0.4991 -0.9900
 7864TIP3    H223538   3.652   5.462   6.635 -0.2717 -0.6442 -0.0069
 7865TIP3   OH223539   5.855   4.775   0.875 -0.2026 -0.3825 -0.2552
 7865TIP3    H123540   5.810   4.691   0.885 -0.0312 -0.3398  1.0714
 7865TIP3    H223541   5.945   4.756   0.901  0.0187  0.0469 -0.6975
 7866TIP3   OH223542   5.388   5.141   4.388  0.5075 -0.1873 -0.1789
 7866TIP3    H123543   5.394   5.121   4.481  0.6951  0.0772 -0.1339
 7866TIP3    H223544   5.478   5.161   4.362  0.9034 -2.6207 -0.9475
 7867TIP3   OH223545   3.211   3.644   5.018  0.1372 -0.4573  0.3237
 7867TIP3    H123546   3.281   3.584   5.046  1.5023  0.2386 -1.4339
 7867TIP3    H223547   3.142   3.587   4.985 -0.3124 -1.1701  2.3245
 7868TIP3   OH223548   6.904   7.031   4.651  0.2547 -0.9497 -0.2764
 7868TIP3    H123549   6.994   7.028   4.682  0.1332 -0.9831  0.0783
 7868TIP3    H223550   6.891   7.122   4.622  0.5670 -1.0780 -0.8389
 7869TIP3   OH223551   1.360   1.405   4.773  0.1078 -0.2110 -0.5236
 7869TIP3    H123552   1.293   1.449   4.825  1.2068  1.0113 -0.0792
 7869TIP3    H223553   1.334   1.421   4.683 -0.3211  0.0636 -0.3566
 7870TIP3   OH223554   2.615   6.487   2.456  0.2982  0.0877  0.1701
 7870TIP3    H123555   2.550   6.427   2.492 -0.2487  0.7316  0.2813
 7870TIP3    H223556   2.636   6.451   2.370  0.9751 -0.9901  0.7573
 7871TIP3   OH223557   4.217   3.932   4.088 -0.6055 -0.3073  0.1715
 7871TIP3    H123558   4.307   3.914   4.116 -0.5843  0.6621  0.7495
 7871TIP3    H223559   4.210   3.887   4.004  0.7404  0.3716 -0.3466
 7872TIP3   OH223560   1.521   7.313   3.127  0.4015 -0.4843 -0.5040
 7872TIP3    H123561   1.433   7.346   3.108  1.0682  1.6851 -0.0101
 7872TIP3    H223562   1.580   7.370   3.078  1.7534  0.9231  2.5282
 7873TIP3   OH223563   0.207   3.810   3.156 -0.5575 -0.6832 -0.4609
 7873TIP3    H123564   0.211   3.902   3.181 -0.7465 -1.4911  2.9195
 7873TIP3    H223565   0.208   3.812   3.060 -0.6134  2.7994 -0.5204
 7874TIP3   OH223566   6.003   0.315   3.277  0.0693 -0.1782  0.1891
 7874TIP3    H123567   6.096   0.304   3.296  0.2246  1.1211  0.2457
 7874TIP3    H223568   5.988   0.409   3.280 -0.8880 -0.2308 -1.5237
 7875TIP3   OH223569   7.931   0.927   6.484  0.4443  0.1617 -0.0870
 7875TIP3    H123570   7.999   0.903   6.547 -1.5656 -0.9974  1.8002
 7875TIP3    H223571   7.899   1.012   6.514 -1.3906 -0.9585  1.3918
 7876TIP3   OH223572   1.164   3.713   2.222 -0.2248 -0.5214  0.1676
 7876TIP3    H123573   1.229   3.663   2.272 -0.3462 -0.7657  0.0844
 7876TIP3    H223574   1.178   3.804   2.249  0.9362 -0.4115 -0.6961
 7877TIP3   OH223575   6.894   1.379   1.185  0.3086  0.2891 -0.0009
 7877TIP3    H123576   6.986   1.353   1.194  0.2330 -0.3444 -0.9570
 7877TIP3    H223577   6.899   1.473   1.164  0.8673 -0.1811 -2.1979
 7878TIP3   OH223578   7.467   2.971   6.608 -0.5522 -0.1509 -0.4018
 7878TIP3    H123579   7.475   2.910   6.535  1.3149 -1.4915  0.8423
 7878TIP3    H223580   7.373   2.972   6.627 -0.6697 -2.6109 -0.5260
 7879TIP3   OH223581   4.985   6.855   5.890  0.2059 -0.0605  0.4106
 7879TIP3    H123582   5.012   6.772   5.929 -1.0606 -0.5240  0.3443
 7879TIP3    H223583   4.892   6.843   5.870  0.5499  0.5026 -1.8278
 7880TIP3   OH223584   3.029   5.768   1.370  0.0565  0.4805 -0.4228
 7880TIP3    H123585   3.057   5.765   1.278  0.1466  0.0682 -0.3816
 7880TIP3    H223586   3.109   5.757   1.420  0.0466  0.9963 -0.2878
 7881TIP3   OH223587   6.074   7.852   2.720 -0.0075 -0.0374  0.9620
 7881TIP3    H123588   6.163   7.865   2.753  0.4645 -1.7062  0.4495
 7881TIP3    H223589   6.042   7.774   2.766 -0.8421 -0.0161  0.4399
 7882TIP3   OH223590   6.815   1.443   4.457  0.0721  0.4321  0.6883
 7882TIP3    H123591   6.830   1.374   4.521  0.0455  0.7128  1.0045
 7882TIP3    H223592   6.863   1.519   4.492 -0.0627  0.6296  0.4509
 7883TIP3   OH223593   2.591   0.369   1.849  0.6130  0.0106  0.0938
 7883TIP3    H123594   2.546   0.285   1.861 -0.2532  0.4606  0.0641
 7883TIP3    H223595   2.523   0.435   1.861  1.2742  0.7166  0.0690
 7884TIP3   OH223596   0.703   4.158   0.081  0.3217  0.0114  0.1236
 7884TIP3    H123597   0.681   4.183   0.170  1.3904  0.6189  0.2371
 7884TIP3    H223598   0.619   4.157   0.034 -0.1751  0.2242  0.9965
 7885TIP3   OH223599   3.200   5.556   5.293 -0.1446  0.2213 -0.1680
 7885TIP3    H123600   3.156   5.479   5.330 -1.4501  0.8083 -0.4288
 7885TIP3    H223601   3.292   5.531   5.288 -0.2837 -0.7231  1.2872
 7886TIP3   OH223602   2.135   0.773   3.754  0.0235  0.1968  0.3099
 7886TIP3    H123603   2.087   0.768   3.671 -1.4758  1.1602  1.0771
 7886TIP3    H223604   2.159   0.865   3.762  0.9566 -0.0616  0.5208
 7887TIP3   OH223605   2.834   3.854   6.168  0.7780  0.2684  0.3342
 7887TIP3    H123606   2.739   3.855   6.179  0.7775  0.5914  0.3193
 7887TIP3    H223607   2.866   3.922   6.227  1.0338 -0.0873  0.6122
 7888TIP3   OH223608   8.109   1.711   6.215 -0.0216 -0.4857  0.6294
 7888TIP3    H123609   8.183   1.752   6.169 -1.1949  0.7662 -0.2050
 7888TIP3    H223610   8.128   1.727   6.308 -0.2936  1.8586  0.3646
 7889TIP3   OH223611   6.739   7.037   2.961 -0.0735 -0.1189 -0.7319
 7889TIP3    H123612   6.659   7.024   2.911 -0.7393  0.6488  0.1106
 7889TIP3    H223613   6.727   7.120   3.005  1.0324 -0.1784 -0.2838
 7890TIP3   OH223614   0.530   5.866   0.826  0.3642  0.2385 -0.2797
 7890TIP3    H123615   0.510   5.840   0.736  1.2158 -0.8966 -0.1555
 7890TIP3    H223616   0.471   5.815   0.881  0.1886  0.5592 -0.1683
 7891TIP3   OH223617   5.928   2.146   5.213  0.0557 -0.3142  0.0887
 7891TIP3    H123618   5.897   2.055   5.214 -1.5527  0.1647 -1.3344
 7891TIP3    H223619   5.968   2.158   5.298 -1.7120 -1.7120  1.2061
 7892TIP3   OH223620   2.844   0.825   5.226  0.6820 -0.2364  0.1099
 7892TIP3    H123621   2.908   0.816   5.156  0.5851 -0.8359  0.0981
 7892TIP3    H223622   2.822   0.736   5.252 -1.1392 -0.1092 -0.7971
 7893TIP3   OH223623   0.702   3.585   4.982 -0.0178  0.2530  0.0368
 7893TIP3    H123624   0.670   3.618   4.899 -0.6911 -0.0275  0.1843
 7893TIP3    H223625   0.633   3.528   5.015  0.1054  0.5957  0.9337
 7894TIP3   OH223626   2.721   0.139   0.512 -0.4293  0.1083  0.2702
 7894TIP3    H123627   2.770   0.078   0.566  0.1890 -0.0242 -0.4338
 7894TIP3    H223628   2.715   0.218   0.566  3.2538  1.2651 -0.7151
 7895TIP3   OH223629   7.545   6.970   0.061  0.3452 -0.2903 -0.3224
 7895TIP3    H123630   7.450   6.967   0.052  0.2616  0.7544  0.0106
 7895TIP3    H223631   7.565   7.064   0.066  1.2169 -0.5153  1.2579
 7896TIP3   OH223632   2.515   3.371   4.157  0.2104 -0.0579  0.0109
 7896TIP3    H123633   2.586   3.346   4.097 -1.1422 -0.9480 -1.3264
 7896TIP3    H223634   2.463   3.291   4.166 -1.7604  1.0587 -0.7393
 7897TIP3   OH223635   8.281   1.255   4.369  0.0829  0.1983  0.0947
 7897TIP3    H123636   8.186   1.257   4.360 -0.0781  0.8535  1.5765
 7897TIP3    H223637   8.308   1.174   4.327 -0.8245  1.2122 -2.6361
 7898TIP3   OH223638   3.327   6.050   5.567 -0.0523 -0.0207 -0.2958
 7898TIP3    H123639   3.406   6.103   5.560  0.4397 -0.5946  0.6491
 7898TIP3    H223640   3.331   5.992   5.491  1.3215 -1.1576  0.5886
 7899TIP3   OH223641   7.592   3.920   3.127 -0.2610  0.3309  0.3202
 7899TIP3    H123642   7.646   3.922   3.047  1.2425  0.5073  1.2992
 7899TIP3    H223643   7.593   4.010   3.159 -1.4930  0.4172  0.1448
 7900TIP3   OH223644   3.463   6.050   1.121  0.3808 -0.0434  0.4215
 7900TIP3    H123645   3.447   6.135   1.078 -0.9199 -0.8727 -0.8160
 7900TIP3    H223646   3.417   6.056   1.204 -0.5125  0.1399 -0.0745
 7901TIP3   OH223647   5.129   0.850   6.175  0.0596 -0.2633 -0.2067
 7901TIP3    H123648   5.201   0.789   6.190 -0.5136 -0.5342  1.8099
 7901TIP3    H223649   5.130   0.908   6.252 -1.8664 -0.3100 -0.0829
 7902TIP3   OH223650   4.239   3.008   5.931  0.2613  0.0227 -0.3344
 7902TIP3    H123651   4.266   3.030   5.842 -0.8424 -0.0375 -0.7032
 7902TIP3    H223652   4.167   2.946   5.919 -0.9430  1.1950  0.5527
 7903TIP3   OH223653   4.508   6.655   3.748  0.7327 -0.1515 -0.1186
 7903TIP3    H123654   4.487   6.568   3.714  1.6386 -0.8405  1.0231
 7903TIP3    H223655   4.494   6.714   3.674  1.0575 -1.3923 -1.1945
 7904TIP3   OH223656   3.058   4.372   5.850 -0.2109  0.1122  0.1143
 7904TIP3    H123657   3.106   4.427   5.788 -0.8004 -0.0614 -0.5032
 7904TIP3    H223658   3.013   4.308   5.796  0.2921 -0.8632  0.8036
 7905TIP3   OH223659   6.594   2.487   1.664  0.1987  0.0378  0.2364
 7905TIP3    H123660   6.519   2.429   1.654 -0.9496  1.0913  2.0763
 7905TIP3    H223661   6.664   2.431   1.696 -0.7902 -0.4499  1.6689
 7906TIP3   OH223662   6.189   1.136   5.783  0.5702 -0.1615 -0.7468
 7906TIP3    H123663   6.139   1.213   5.758 -0.6564  0.2206  2.4253
 7906TIP3    H223664   6.281   1.162   5.772  0.1539  1.0335 -1.5887
 7907TIP3   OH223665   2.713   5.264   5.743  0.3086 -0.5776 -0.7303
 7907TIP3    H123666   2.630   5.240   5.703  0.3562 -1.9832 -0.0648
 7907TIP3    H223667   2.764   5.183   5.744  0.7507 -0.3333  1.0866
 7908TIP3   OH223668   4.028   3.682   3.783  0.1103 -0.3018  0.0425
 7908TIP3    H123669   4.070   3.768   3.783  0.4552 -0.3500  3.2658
 7908TIP3    H223670   4.093   3.624   3.745  1.6030  0.2321  1.6400
 7909TIP3   OH223671   6.524   3.647   4.189 -0.1730  0.8374  0.1552
 7909TIP3    H123672   6.513   3.629   4.282  0.1294 -0.6650 -0.0809
 7909TIP3    H223673   6.557   3.737   4.186  1.2738  0.4101  1.6014
 7910TIP3   OH223674   7.979   4.780   5.321  0.0234  0.1489 -0.0248
 7910TIP3    H123675   8.037   4.778   5.396  0.5488 -0.1970 -0.4346
 7910TIP3    H223676   8.035   4.802   5.247 -0.3587 -0.1921 -0.4255
 7911TIP3   OH223677   1.949   0.003   0.403 -0.8090 -0.0873 -0.0533
 7911TIP3    H123678   1.902   0.081   0.433  0.2708  0.1115  1.2080
 7911TIP3    H223679   1.916  -0.067   0.459 -0.3919 -0.1452  0.1258
 7912TIP3   OH223680   1.522   4.852   0.893 -0.0754 -0.0189 -0.2532
 7912TIP3    H123681   1.534   4.941   0.926 -0.7526 -0.2654  0.6860
 7912TIP3    H223682   1.451   4.816   0.946 -0.2421 -0.9051 -1.0580
 7913TIP3   OH223683   4.437   0.570   4.425  0.0339 -0.5583  0.1459
 7913TIP3    H123684   4.360   0.513   4.418 -0.6997  0.0639  2.2626
 7913TIP3    H223685   4.432   0.606   4.514  1.4736  1.3718 -0.4771
 7914TIP3   OH223686   1.259   5.417   6.641  0.2312 -0.2259 -0.0982
 7914TIP3    H123687   1.202   5.421   6.564 -1.3316 -0.5750  1.0013
 7914TIP3    H223688   1.214   5.469   6.707  1.3216 -0.3069  0.7495
 7915TIP3   OH223689   5.194   5.297   1.049  0.1408  0.0620 -0.2577
 7915TIP3    H123690   5.246   5.225   1.014 -1.0010 -1.0632  0.3196
 7915TIP3    H223691   5.246   5.332   1.122  0.4473 -0.5214 -0.1958
 7916TIP3   OH223692   7.268   7.785   2.328 -0.0440 -0.3839 -0.7883
 7916TIP3    H123693   7.344   7.730   2.310  1.0940  1.0458 -0.5686
 7916TIP3    H223694   7.301   7.852   2.388 -1.7379 -0.2949  0.1032
 7917TIP3   OH223695   2.591   1.760   0.369 -0.1170 -0.2353 -0.7151
 7917TIP3    H123696   2.575   1.810   0.449  0.9828  1.4406 -1.4753
 7917TIP3    H223697   2.567   1.820   0.298  3.8431  0.4088 -1.7495
 7918TIP3   OH223698   0.972   5.478   3.496 -0.2541  0.6441  0.2493
 7918TIP3    H123699   0.933   5.440   3.417  0.2557  0.4659  0.0717
 7918TIP3    H223700   0.938   5.426   3.568  0.4479 -0.1850  0.0076
 7919TIP3   OH223701   2.799   6.652   5.739 -0.4777  0.0192  0.7087
 7919TIP3    H123702   2.741   6.621   5.670 -0.4293  0.8136  0.3001
 7919TIP3    H223703   2.783   6.746   5.743 -0.6976 -0.0663  1.9972
 7920TIP3   OH223704   7.842   3.396   6.775  0.4054 -0.2388  0.4875
 7920TIP3    H123705   7.771   3.457   6.798 -0.6705 -2.0063  2.1868
 7920TIP3    H223706   7.796   3.321   6.737  1.4106 -1.1517  1.0376
 7921TIP3   OH223707   6.090   4.761   1.011  0.4149 -0.2645 -0.7920
 7921TIP3    H123708   6.100   4.669   1.035 -0.4152  0.1467  1.3626
 7921TIP3    H223709   6.179   4.797   1.016  0.6752 -0.8361 -1.2128
 7922TIP3   OH223710   0.019   2.139   4.231 -0.1758 -0.4562 -0.0745
 7922TIP3    H123711   0.092   2.164   4.288  0.3046 -0.7276 -0.5541
 7922TIP3    H223712  -0.050   2.110   4.291 -0.7968  2.0257  0.5207
 7923TIP3   OH223713   0.634   1.136   1.607  0.1710  0.2933  0.0315
 7923TIP3    H123714   0.555   1.140   1.554 -0.0466 -1.2656  0.1961
 7923TIP3    H223715   0.621   1.203   1.674 -1.4289 -0.5210  0.5845
 7924TIP3   OH223716   5.099   4.837   5.616  0.2750  0.0998 -0.4674
 7924TIP3    H123717   5.092   4.871   5.705 -2.3120  0.1893 -0.6304
 7924TIP3    H223718   5.178   4.878   5.581  0.9330  0.6418  1.5261
 7925TIP3   OH223719   3.673   5.719   2.675 -0.3796  0.1960 -0.3608
 7925TIP3    H123720   3.617   5.700   2.600 -1.2858  4.1041 -0.8884
 7925TIP3    H223721   3.615   5.708   2.751  0.0148 -1.8732 -0.2872
 7926TIP3   OH223722   2.372   2.797   0.561 -0.1281 -0.0697  0.0853
 7926TIP3    H123723   2.431   2.744   0.614 -0.5309  0.8131  1.4632
 7926TIP3    H223724   2.318   2.734   0.514  0.5369 -0.8762  0.3895
 7927TIP3   OH223725   7.207   5.550   2.422 -0.3166 -0.6057 -0.1460
 7927TIP3    H123726   7.185   5.636   2.459 -0.6612 -1.0611  0.7411
 7927TIP3    H223727   7.301   5.540   2.439  0.1288  0.3169 -1.8067
 7928TIP3   OH223728   3.678   4.436   2.258 -0.1233  0.2777 -0.8142
 7928TIP3    H123729   3.710   4.362   2.309  0.1705  1.2632  0.4796
 7928TIP3    H223730   3.741   4.444   2.185  0.3994 -0.1451 -0.4132
 7929TIP3   OH223731   8.249   6.013   2.132  0.1008 -0.2863  0.0635
 7929TIP3    H123732   8.202   5.952   2.075  1.9874 -2.3615  0.5663
 7929TIP3    H223733   8.341   5.993   2.116  0.7236  0.4194  2.4352
 7930TIP3   OH223734   1.161   4.505   2.649 -0.1045 -0.4473 -0.1620
 7930TIP3    H123735   1.120   4.495   2.563  0.5070 -1.7157 -0.3339
 7930TIP3    H223736   1.233   4.567   2.635 -1.0074  0.6197 -0.1842
 7931TIP3   OH223737   6.958   5.960   0.458 -0.2103 -0.2877  0.5031
 7931TIP3    H123738   7.039   5.996   0.424 -1.0976 -0.5621 -2.1088
 7931TIP3    H223739   6.915   6.034   0.502  0.5516  0.3535  0.1785
 7932TIP3   OH223740   4.945   6.606   3.331  0.1128  0.6215 -0.5189
 7932TIP3    H123741   4.995   6.663   3.273  0.8549  1.8707  1.2509
 7932TIP3    H223742   4.871   6.660   3.360  1.0737  0.9354  1.5395
 7933TIP3   OH223743   7.516   7.656   4.847 -0.3507  0.1571  0.2414
 7933TIP3    H123744   7.580   7.608   4.794 -0.2096  1.1936 -0.5377
 7933TIP3    H223745   7.434   7.609   4.833  0.3013 -1.5303  1.6907
 7934TIP3   OH223746   2.613   5.483   0.885  0.2712  0.3404  0.2493
 7934TIP3    H123747   2.538   5.431   0.856  0.0201  0.7513  0.1563
 7934TIP3    H223748   2.646   5.524   0.805  1.4393 -0.9150  0.0655
 7935TIP3   OH223749   2.083   0.420   6.258  0.0298  0.4670 -0.2140
 7935TIP3    H123750   2.151   0.487   6.266  1.6730 -1.2609  1.0873
 7935TIP3    H223751   2.126   0.348   6.211 -1.0910 -0.4185  0.0821
 7936TIP3   OH223752   2.962   7.112   0.929 -0.0424  0.4040  0.1066
 7936TIP3    H123753   3.050   7.150   0.930  0.6174 -0.9709 -1.5539
 7936TIP3    H223754   2.907   7.179   0.889  0.9126  0.0767 -1.8807
 7937TIP3   OH223755   3.058   2.947   4.029 -0.0123  0.1596  0.5793
 7937TIP3    H123756   3.000   2.983   4.095  0.2586  0.8003  0.4736
 7937TIP3    H223757   3.032   2.989   3.947  0.0582 -0.1694  0.3812
 7938TIP3   OH223758   1.582   4.098   6.266 -0.0589  0.2488  0.4633
 7938TIP3    H123759   1.615   4.098   6.356 -0.5918 -2.7885  0.7560
 7938TIP3    H223760   1.491   4.072   6.274 -1.3574  3.7383 -0.7510
 7939TIP3   OH223761   3.281   7.388   5.449  0.2765 -0.4044 -0.1502
 7939TIP3    H123762   3.288   7.306   5.400 -0.0186 -1.6925  1.8374
 7939TIP3    H223763   3.227   7.365   5.525  2.6738  0.8005  2.0898
 7940TIP3   OH223764   5.337   1.963   2.971  0.1042 -0.0254  0.1387
 7940TIP3    H123765   5.247   1.994   2.966  0.4452  0.9939 -0.0743
 7940TIP3    H223766   5.334   1.887   3.028 -0.8299  0.2286  0.4437
 7941TIP3   OH223767   1.465   7.788   2.529  0.3391  0.8972  0.5227
 7941TIP3    H123768   1.407   7.844   2.581  0.5176  0.0084  1.7230
 7941TIP3    H223769   1.425   7.786   2.443 -0.2442  2.0094  0.7394
 7942TIP3   OH223770   3.412   5.554   3.205 -0.2942  0.4951 -0.0375
 7942TIP3    H123771   3.360   5.626   3.169 -0.6492 -0.0246 -0.5960
 7942TIP3    H223772   3.461   5.520   3.130  1.2063  1.2512  0.5731
 7943TIP3   OH223773   6.587   5.155   4.391  0.1495 -0.2088 -0.1676
 7943TIP3    H123774   6.555   5.239   4.360  0.2729 -0.2571 -0.4247
 7943TIP3    H223775   6.507   5.105   4.411 -0.0294 -1.0517 -2.6984
 7944TIP3   OH223776   0.184   2.571   2.798 -0.2057 -0.1796 -0.1838
 7944TIP3    H123777   0.111   2.577   2.736 -0.1511  0.5793 -0.1802
 7944TIP3    H223778   0.231   2.654   2.788 -0.2179 -0.0328  0.9021
 7945TIP3   OH223779   5.174   6.778   6.588  0.6231  0.1118 -0.0148
 7945TIP3    H123780   5.159   6.684   6.574 -0.2589  0.2858 -0.2901
 7945TIP3    H223781   5.154   6.793   6.680 -1.3164  0.3978 -0.4449
 7946TIP3   OH223782   6.470   6.172   0.017 -0.2906 -0.7479 -0.7499
 7946TIP3    H123783   6.512   6.122   0.087  1.1107  1.1415 -0.1413
 7946TIP3    H223784   6.484   6.120  -0.061  1.2342 -1.2894 -0.1721
 7947TIP3   OH223785   4.228   7.733   2.934  0.2620 -0.1534  0.3779
 7947TIP3    H123786   4.171   7.809   2.943  0.1993 -0.3327  1.6676
 7947TIP3    H223787   4.245   7.727   2.840  0.6114  1.7123  0.2672
 7948TIP3   OH223788   3.978   1.337   3.555 -0.3774 -0.4357  0.0991
 7948TIP3    H123789   3.913   1.281   3.600 -1.2752 -0.2806 -0.9649
 7948TIP3    H223790   4.035   1.275   3.510 -0.4687 -0.5424  0.1287
 7949TIP3   OH223791   4.489   4.918   2.399 -0.5533 -0.2135  0.8501
 7949TIP3    H123792   4.566   4.971   2.420  0.2238 -1.1685  0.4827
 7949TIP3    H223793   4.424   4.943   2.465  0.4894 -0.2655  1.9397
 7950TIP3   OH223794   5.128   0.178   1.009  0.5315 -0.2708  0.3826
 7950TIP3    H123795   5.158   0.117   1.076  0.3810  0.7601  1.4247
 7950TIP3    H223796   5.094   0.253   1.058  0.1550  0.3936 -0.8443
 7951TIP3   OH223797   5.674   1.858   4.199 -0.5973 -0.1939  0.4908
 7951TIP3    H123798   5.602   1.797   4.183  0.5998 -1.1656 -1.5229
 7951TIP3    H223799   5.659   1.929   4.137  0.4518 -0.6873 -0.3588
 7952TIP3   OH223800   3.991   5.465   0.776  0.2607 -0.5065 -0.3176
 7952TIP3    H123801   4.046   5.506   0.842 -0.4293  0.2687 -0.2022
 7952TIP3    H223802   3.908   5.513   0.780  0.9298  1.1694 -3.3056
 7953TIP3   OH223803   6.128   6.002   3.774 -0.0720 -0.1493  0.0881
 7953TIP3    H123804   6.111   5.943   3.847 -1.2030  0.0518  0.0005
 7953TIP3    H223805   6.043   6.042   3.755  0.6943  1.6741  0.2873
 7954TIP3   OH223806   0.756   5.154   3.669 -0.1924 -0.0393 -0.2008
 7954TIP3    H123807   0.662   5.169   3.665  0.0848  1.6871 -1.7128
 7954TIP3    H223808   0.768   5.093   3.742 -2.5050 -0.6922 -0.2809
 7955TIP3   OH223809   4.660   7.102   6.099 -0.8356 -0.0328 -0.7013
 7955TIP3    H123810   4.578   7.057   6.080 -1.3267  0.2939  0.5282
 7955TIP3    H223811   4.729   7.041   6.072 -1.4020 -2.6618  2.9736
 7956TIP3   OH223812   2.266   6.496   4.221  0.0524  0.4850 -0.2182
 7956TIP3    H123813   2.332   6.547   4.268  1.6583 -1.0119 -0.7591
 7956TIP3    H223814   2.215   6.454   4.291  1.8937 -1.0603  0.2918
 7957TIP3   OH223815   2.251   4.538   3.371 -0.4391  0.1870  0.3149
 7957TIP3    H123816   2.328   4.588   3.345  1.5477 -0.9853  3.3707
 7957TIP3    H223817   2.205   4.595   3.433 -2.1825  0.8955 -1.5124
 7958TIP3   OH223818   1.656   5.990   6.493 -0.0091  0.2718  0.8337
 7958TIP3    H123819   1.660   5.987   6.398  1.3929  0.4364  0.8622
 7958TIP3    H223820   1.694   5.906   6.521  0.3837  0.5807  1.2478
 7959TIP3   OH223821   1.305   0.308   5.191  0.3572  0.1113  0.0812
 7959TIP3    H123822   1.380   0.303   5.251 -0.1097  1.3377  0.8019
 7959TIP3    H223823   1.242   0.365   5.235 -1.3937 -1.5531 -0.1241
 7960TIP3   OH223824   6.577   6.766   3.535  0.2191 -0.6052  0.2390
 7960TIP3    H123825   6.588   6.672   3.550 -1.1798 -0.8846 -0.2827
 7960TIP3    H223826   6.658   6.793   3.492  0.9922 -1.3858  1.1615
 7961TIP3   OH223827   1.681   1.884   1.509  0.0668  0.2405 -0.5204
 7961TIP3    H123828   1.771   1.900   1.480  0.3365  0.5489  0.4513
 7961TIP3    H223829   1.690   1.818   1.578 -0.3644  0.8501  0.1315
 7962TIP3   OH223830   1.110   6.418   5.875  0.3274 -0.2045 -0.4704
 7962TIP3    H123831   1.191   6.469   5.868  0.0260  0.2720 -0.4580
 7962TIP3    H223832   1.123   6.345   5.815  0.6784 -0.0119 -0.6319
 7963TIP3   OH223833   2.341   6.825   1.792  0.6228 -0.2526  0.1321
 7963TIP3    H123834   2.276   6.780   1.845 -1.7952  0.5572 -1.9632
 7963TIP3    H223835   2.388   6.881   1.854  0.4973 -2.0631  1.9750
 7964TIP3   OH223836   3.116   0.170   4.967  0.2753  0.0744  0.1782
 7964TIP3    H123837   3.194   0.199   5.014  0.9728 -0.4127 -0.6396
 7964TIP3    H223838   3.143   0.089   4.924 -1.1483 -0.9408  1.1104
 7965TIP3   OH223839   2.264   1.928   0.626  1.0895  0.6374  0.4568
 7965TIP3    H123840   2.186   1.909   0.678  0.7326  0.0768 -0.2605
 7965TIP3    H223841   2.273   2.023   0.630  0.3034  0.7211  0.4708
 7966TIP3   OH223842   6.357   5.898   5.973  0.4872  0.4668  0.4878
 7966TIP3    H123843   6.290   5.842   5.933  0.9701  0.9791 -1.0987
 7966TIP3    H223844   6.365   5.865   6.063  0.5355 -1.8427 -0.2957
 7967TIP3   OH223845   1.329   5.262   5.977 -0.0342 -0.2961 -0.1640
 7967TIP3    H123846   1.273   5.210   6.034  0.1904  0.2810  0.6036
 7967TIP3    H223847   1.392   5.199   5.942 -0.2773 -0.6875  0.0930
 7968TIP3   OH223848   5.686   0.195   4.768 -0.2122 -0.0803 -0.4910
 7968TIP3    H123849   5.758   0.224   4.825  0.9443  0.4561 -2.1414
 7968TIP3    H223850   5.617   0.170   4.828  1.1400 -0.0439  1.1644
 7969TIP3   OH223851   2.369   3.899   1.424 -0.4181 -0.1350 -0.4399
 7969TIP3    H123852   2.306   3.971   1.427  0.0410  0.2712 -0.6252
 7969TIP3    H223853   2.375   3.869   1.515 -0.6205  0.0470 -0.3651
 7970TIP3   OH223854   1.143   4.747   6.083  0.3752  0.2268 -0.2635
 7970TIP3    H123855   1.052   4.721   6.069  0.2145 -0.2857  1.4330
 7970TIP3    H223856   1.167   4.707   6.167  1.6994  1.5401  0.0471
 7971TIP3   OH223857   1.484   3.514   5.681  0.2438 -0.6003 -0.0817
 7971TIP3    H123858   1.436   3.551   5.607 -0.5254  0.0774  0.7252
 7971TIP3    H223859   1.508   3.426   5.653 -0.3621 -0.4844 -0.9932
 7972TIP3   OH223860   4.544   0.907   0.329 -0.2142 -0.4635  0.7213
 7972TIP3    H123861   4.511   0.866   0.249 -2.4328  1.0007  0.8131
 7972TIP3    H223862   4.617   0.962   0.299 -0.2140 -0.8988 -0.0957
 7973TIP3   OH223863   4.995   0.272   2.654 -0.1161  0.1815  0.1999
 7973TIP3    H123864   4.901   0.257   2.665  0.4454 -3.5117  1.5239
 7973TIP3    H223865   5.012   0.355   2.699 -2.4891  0.0150  1.5522
 7974TIP3   OH223866   3.776   1.659   5.799  0.0371 -0.3185  0.3477
 7974TIP3    H123867   3.796   1.717   5.872 -1.1879  0.8562 -0.1999
 7974TIP3    H223868   3.756   1.719   5.726  0.0339 -1.4452 -0.6133
 7975TIP3   OH223869   3.634   7.520   1.803  0.1459  0.5041  0.1892
 7975TIP3    H123870   3.699   7.495   1.738  0.6148 -0.5813  1.0420
 7975TIP3    H223871   3.684   7.548   1.879 -0.3938  2.1706 -0.0202
 7976TIP3   OH223872   0.839   6.928   2.718 -0.1811 -0.0119  1.1338
 7976TIP3    H123873   0.796   6.854   2.676 -0.7341  0.4266  0.9038
 7976TIP3    H223874   0.858   6.988   2.646  0.1745  0.1166  1.3303
 7977TIP3   OH223875   6.507   0.762   2.680 -0.2897 -0.4973  0.1818
 7977TIP3    H123876   6.468   0.835   2.728 -1.5647  0.8004 -2.5967
 7977TIP3    H223877   6.437   0.698   2.672 -0.0286 -0.7865  0.1623
 7978TIP3   OH223878   6.481   2.137   4.649 -0.6283 -0.1345 -0.4289
 7978TIP3    H123879   6.393   2.160   4.680  1.0113  1.3968  3.9951
 7978TIP3    H223880   6.495   2.048   4.681 -1.0253 -1.0055 -2.5406
 7979TIP3   OH223881   6.855   1.998   5.826 -0.1448 -0.1687  0.1300
 7979TIP3    H123882   6.768   2.038   5.829  0.1708  0.4978  1.7202
 7979TIP3    H223883   6.842   1.910   5.859  0.2142  0.9764  3.7615
 7980TIP3   OH223884   7.381   0.157   3.182 -0.2165  0.5587  0.2844
 7980TIP3    H123885   7.425   0.215   3.244 -0.8070  1.2485  0.0819
 7980TIP3    H223886   7.380   0.207   3.100  0.9466 -0.5126 -0.4183
 7981TIP3   OH223887   5.545   3.936   5.136  0.2501  0.4533 -0.1717
 7981TIP3    H123888   5.515   3.896   5.217 -1.6193  1.8567 -0.1233
 7981TIP3    H223889   5.627   3.890   5.116  0.9157  0.2621  2.6306
 7982TIP3   OH223890   7.586   6.157   5.418  0.1539  0.5881  0.2781
 7982TIP3    H123891   7.531   6.081   5.400  2.2122 -1.0302  0.4742
 7982TIP3    H223892   7.594   6.201   5.333  3.7570 -2.8658 -1.5031
 7983TIP3   OH223893   3.719   7.368   3.474  0.3464 -0.0122 -0.3890
 7983TIP3    H123894   3.795   7.338   3.424  1.3181 -0.8015  1.4466
 7983TIP3    H223895   3.668   7.289   3.491  1.1142 -0.1640  1.5326
 7984TIP3   OH223896   7.013   3.938   0.310  0.4975  0.0062  0.1588
 7984TIP3    H123897   6.981   3.907   0.394 -4.3048 -0.1965 -1.4138
 7984TIP3    H223898   7.042   3.859   0.265  1.6156 -0.0997  1.0459
 7985TIP3   OH223899   7.065   1.889   1.124 -0.4077 -0.9356  0.1745
 7985TIP3    H123900   7.114   1.895   1.206 -1.0847  1.0558  0.4681
 7985TIP3    H223901   7.035   1.798   1.121  0.8167 -1.4113  1.4225
 7986TIP3   OH223902   0.529   3.859   0.622 -0.4200  0.6919 -0.2043
 7986TIP3    H123903   0.539   3.805   0.701  1.0509  0.5748 -0.4348
 7986TIP3    H223904   0.584   3.815   0.557  0.4754  2.2325 -0.5193
 7987TIP3   OH223905   5.993   6.534   4.966  0.5144 -1.1030  0.4084
 7987TIP3    H123906   6.023   6.444   4.955  1.2207 -0.9976  1.3757
 7987TIP3    H223907   5.959   6.559   4.880 -2.0017 -3.1128  0.6925
 7988TIP3   OH223908   2.877   3.148   3.045 -1.0139  0.4927  0.2053
 7988TIP3    H123909   2.877   3.126   3.138 -2.0913  0.8476  0.3021
 7988TIP3    H223910   2.885   3.064   3.000  0.0169  0.3585  0.6103
 7989TIP3   OH223911   2.705   7.755   5.596 -0.2018  0.2851  0.7234
 7989TIP3    H123912   2.678   7.710   5.516 -0.6971 -0.0394  1.0666
 7989TIP3    H223913   2.765   7.823   5.566 -2.3970  1.9115 -0.2379
 7990TIP3   OH223914   5.425   1.724   1.875  0.1754  0.7112  0.3418
 7990TIP3    H123915   5.472   1.750   1.955  0.4900  1.1764  0.0132
 7990TIP3    H223916   5.433   1.629   1.873 -0.4095  0.6260  1.2153
 7991TIP3   OH223917   6.160   1.720   6.296 -0.0911 -0.0219  0.0626
 7991TIP3    H123918   6.210   1.685   6.222 -0.4220  0.9949 -0.6522
 7991TIP3    H223919   6.214   1.699   6.372  2.5342  2.7961 -0.8144
 7992TIP3   OH223920   2.766   1.821   1.961 -0.8283 -0.0575  0.0717
 7992TIP3    H123921   2.733   1.837   2.049  0.5310 -1.7709  0.9324
 7992TIP3    H223922   2.847   1.872   1.956  0.8167 -2.3863  1.0385
 7993TIP3   OH223923   1.033   1.988   5.892  0.0143 -0.6108  0.1170
 7993TIP3    H123924   1.039   1.906   5.844 -1.7119 -2.1767  2.3717
 7993TIP3    H223925   1.104   1.984   5.957  0.2776 -0.0363 -0.1245
 7994TIP3   OH223926   6.015   4.217   0.693  0.8826 -0.3748 -0.1772
 7994TIP3    H123927   6.008   4.157   0.767  0.9198 -0.3658 -0.1667
 7994TIP3    H223928   5.965   4.173   0.623 -0.4759  0.3457  0.3069
 7995TIP3   OH223929   5.682   3.409   1.359  0.0595 -0.2027  0.0901
 7995TIP3    H123930   5.753   3.344   1.368 -0.0931 -0.4528 -0.4408
 7995TIP3    H223931   5.683   3.457   1.441  3.1310  2.1223 -1.1378
 7996TIP3   OH223932   2.829   1.042   5.382  0.6471 -0.2723 -0.5584
 7996TIP3    H123933   2.914   1.058   5.423  0.4405 -0.3307 -0.0899
 7996TIP3    H223934   2.841   0.962   5.332  1.0995  0.1786 -1.1838
 7997TIP3   OH223935   3.908   4.899   5.288  0.2414  0.3194  0.1507
 7997TIP3    H123936   3.838   4.849   5.247  1.9000 -0.3722 -2.0160
 7997TIP3    H223937   3.940   4.842   5.359 -0.5749  0.1352  0.3804
 7998TIP3   OH223938   5.177   6.506   1.472  0.0772 -0.3704 -0.0928
 7998TIP3    H123939   5.114   6.576   1.488 -0.2806 -0.7559  0.2171
 7998TIP3    H223940   5.251   6.527   1.529 -0.2845 -0.5678  0.4579
 7999TIP3   OH223941   0.754   5.806   3.735  0.5684 -0.2792  0.2809
 7999TIP3    H123942   0.763   5.900   3.716  0.8887 -0.1391  1.0621
 7999TIP3    H223943   0.842   5.770   3.723  0.1244 -0.8308 -1.6744
 8000TIP3   OH223944   5.697   4.896   1.713 -0.0890  0.3377  0.6993
 8000TIP3    H123945   5.727   4.906   1.623  1.4560 -0.6722  1.0661
 8000TIP3    H223946   5.652   4.978   1.732  1.1645  1.3281 -0.3928
 8001TIP3   OH223947   1.035   3.056   2.102  0.1626  0.3739 -1.0521
 8001TIP3    H123948   1.097   3.085   2.168 -1.3924  1.7325 -0.0961
 8001TIP3    H223949   1.069   3.091   2.020  2.7349 -2.2981 -1.2761
 8002TIP3   OH223950   7.149   5.107   0.228  0.1834 -0.3778 -0.0542
 8002TIP3    H123951   7.131   5.105   0.322  2.3021 -1.3876  0.3981
 8002TIP3    H223952   7.130   5.017   0.198 -0.3099 -0.1101 -0.5791
 8003TIP3   OH223953   4.971   0.591   4.674 -0.6414  0.7008  0.6958
 8003TIP3    H123954   5.050   0.553   4.712 -0.9695 -1.0702 -0.2518
 8003TIP3    H223955   4.976   0.568   4.581 -2.8342 -0.5720  0.8275
 8004TIP3   OH223956   6.790   7.811   3.131  0.2508  0.3566  0.6880
 8004TIP3    H123957   6.698   7.783   3.124  0.0824  0.9549  0.4157
 8004TIP3    H223958   6.801   7.832   3.224 -0.0443  0.7934  0.6267
 8005TIP3   OH223959   6.956   1.024   0.662 -0.1572  0.5590 -0.0832
 8005TIP3    H123960   7.045   1.000   0.633  0.0287  0.7646  0.3177
 8005TIP3    H223961   6.932   0.957   0.725  0.0514  0.9843  0.4489
 8006TIP3   OH223962   2.440   7.296   2.485 -0.1530 -0.1107 -0.5951
 8006TIP3    H123963   2.488   7.256   2.412  0.1326  1.5009 -1.3241
 8006TIP3    H223964   2.394   7.370   2.446 -1.1652 -0.0798  0.6065
 8007TIP3   OH223965   3.100   2.435   6.479  0.3088 -0.2308 -0.7811
 8007TIP3    H123966   3.128   2.408   6.391 -0.5414  3.0292 -2.1816
 8007TIP3    H223967   3.158   2.507   6.502 -1.4348  1.0038 -0.0519
 8008TIP3   OH223968   6.586   6.795   0.619  0.2260 -0.6060  0.3832
 8008TIP3    H123969   6.558   6.740   0.546 -0.6616  1.4224 -0.9228
 8008TIP3    H223970   6.668   6.834   0.590  0.3883 -0.5668  0.8882
 8009TIP3   OH223971   2.027   6.612   0.415  0.3157  0.2544 -0.4787
 8009TIP3    H123972   1.989   6.529   0.387 -0.4042 -0.0627  1.2792
 8009TIP3    H223973   2.104   6.587   0.467 -0.5814  0.5625  1.0849
 8010TIP3   OH223974   5.117   1.189   2.075 -0.2944  0.6778 -0.0041
 8010TIP3    H123975   5.091   1.097   2.071  1.8844 -0.0038  0.0926
 8010TIP3    H223976   5.043   1.234   2.114 -0.7255 -1.3368  1.6379
 8011TIP3   OH223977   5.915   2.388   5.529  0.1089  0.2714 -0.5594
 8011TIP3    H123978   5.845   2.443   5.495 -0.2064 -1.0197 -2.1170
 8011TIP3    H223979   5.871   2.321   5.581  0.5530  1.9178  2.1064
 8012TIP3   OH223980   0.905   4.070   3.345 -0.3323  0.4836 -0.2411
 8012TIP3    H123981   0.958   4.023   3.409 -1.1647  0.1654  0.2372
 8012TIP3    H223982   0.815   4.047   3.368 -0.7859  2.3914  0.0488
 8013TIP3   OH223983   2.571   0.527   6.508  0.1689  0.2528  0.0867
 8013TIP3    H123984   2.642   0.475   6.471  1.0622  0.8233  0.9471
 8013TIP3    H223985   2.529   0.568   6.433 -0.5962 -1.7114 -0.6168
 8014TIP3   OH223986   3.903   0.053   1.326 -0.2799 -0.0164 -0.4031
 8014TIP3    H123987   3.863   0.135   1.295 -1.2869  0.0732  1.0223
 8014TIP3    H223988   3.829  -0.001   1.352  0.4299 -1.0239 -0.4292
 8015TIP3   OH223989   3.979   0.094   3.067  0.1721  0.2613 -0.6264
 8015TIP3    H123990   4.044   0.164   3.075  0.5278  0.0175 -1.2667
 8015TIP3    H223991   3.895   0.138   3.066  0.3400  0.6071 -0.1027
 8016TIP3   OH223992   3.144   6.935   0.406 -0.1547 -0.1151  0.1527
 8016TIP3    H123993   3.120   6.950   0.498  1.6940 -0.2923  0.7113
 8016TIP3    H223994   3.118   7.016   0.361  1.6883  1.3082  1.4562
 8017TIP3   OH223995   8.086   1.633   2.597  0.2021 -0.1092  0.3496
 8017TIP3    H123996   8.047   1.545   2.597  1.5501 -0.7405  1.1131
 8017TIP3    H223997   8.156   1.627   2.532 -0.4917  0.7978 -0.5066
 8018TIP3   OH223998   0.937   1.450   1.833  0.1159  0.4253 -0.1202
 8018TIP3    H123999   0.997   1.516   1.866  0.8288  0.0470 -0.6397
 8018TIP3    H224000   0.923   1.473   1.741 -1.6774  1.3378  0.3417
 8019TIP3   OH224001   8.236   6.530   5.781  0.6614  0.1380 -0.1644
 8019TIP3    H124002   8.181   6.547   5.858  0.9939 -0.2216  0.1622
 8019TIP3    H224003   8.193   6.455   5.738  1.7626 -1.2220  0.9927
 8020TIP3   OH224004   1.676   3.785   2.446 -0.1588  0.3286 -0.0200
 8020TIP3    H124005   1.666   3.704   2.396  0.4883 -1.3405  2.3749
 8020TIP3    H224006   1.735   3.839   2.394  3.2636 -2.6821  0.3772
 8021TIP3   OH224007   5.887   1.314   1.243  0.1766  0.1019 -0.0836
 8021TIP3    H124008   5.823   1.317   1.313  1.7314 -1.1934  1.4702
 8021TIP3    H224009   5.900   1.221   1.225  0.3366  0.3840 -1.6332
 8022TIP3   OH224010   0.080   7.424   0.806  0.2067  0.2230  0.4486
 8022TIP3    H124011   0.030   7.361   0.756  0.5889  1.9424 -2.2940
 8022TIP3    H224012   0.171   7.399   0.793  0.3355  1.0156 -0.2043
 8023TIP3   OH224013   0.398   3.513   0.443 -0.1499 -0.0500  0.1764
 8023TIP3    H124014   0.475   3.481   0.396 -1.4924  0.2621 -2.3785
 8023TIP3    H224015   0.427   3.596   0.481  1.5573 -1.2801  1.7091
 8024TIP3   OH224016   5.369   1.379   3.914  0.5386 -0.7045 -0.4449
 8024TIP3    H124017   5.357   1.451   3.853  0.8379 -0.5485 -0.3198
 8024TIP3    H224018   5.372   1.420   4.001 -2.9415 -1.1397  0.0313
 8025TIP3   OH224019   7.395   2.832   3.460  0.2582 -0.1853 -0.2551
 8025TIP3    H124020   7.473   2.801   3.412  0.0168  0.7950 -1.3172
 8025TIP3    H224021   7.340   2.754   3.467  0.0751 -0.2641 -2.0530
 8026TIP3   OH224022   5.863   0.251   4.954 -0.0715  0.0658 -0.0025
 8026TIP3    H124023   5.827   0.206   5.031 -0.0391 -2.1570 -1.2104
 8026TIP3    H224024   5.874   0.341   4.983  1.4358 -0.9756  3.1391
 8027TIP3   OH224025   2.278   3.712   1.222 -0.3778  0.6576 -0.3213
 8027TIP3    H124026   2.205   3.766   1.191 -1.4906  0.1595  1.2964
 8027TIP3    H224027   2.308   3.756   1.301  0.6622  0.4861 -0.6086
 8028TIP3   OH224028   2.177   6.034   3.435  0.3958 -0.0248 -0.2590
 8028TIP3    H124029   2.198   6.103   3.372  1.6403  0.8303  1.0138
 8028TIP3    H224030   2.126   6.078   3.503  1.9667 -0.0926  1.0255
 8029TIP3   OH224031   0.086   2.909   2.897 -0.0154  0.2055  0.7454
 8029TIP3    H124032   0.138   2.989   2.886  2.6656 -0.9725  3.4230
 8029TIP3    H224033   0.150   2.841   2.916 -2.3456 -2.2304  0.4735
 8030TIP3   OH224034   1.310   0.190   2.964 -0.3995  0.2780  0.7184
 8030TIP3    H124035   1.306   0.108   3.014  2.7292 -1.0254 -0.8996
 8030TIP3    H224036   1.353   0.252   3.023 -1.9461  0.5660  1.6118
 8031TIP3   OH224037   5.170   6.334   3.548  0.1453 -0.3160  0.2527
 8031TIP3    H124038   5.193   6.426   3.564  1.0010 -0.5861  0.6342
 8031TIP3    H224039   5.104   6.313   3.614 -1.5554  0.5707 -1.0669
 8032TIP3   OH224040   1.690   4.208   3.538  0.0966 -0.0871  0.5298
 8032TIP3    H124041   1.769   4.263   3.543 -0.4963  0.8858 -0.4439
 8032TIP3    H224042   1.619   4.265   3.567 -0.5942 -0.1588 -0.9205
 8033TIP3   OH224043   5.078   1.215   5.564 -0.3254  0.0334  0.2239
 8033TIP3    H124044   5.059   1.163   5.486  1.8520 -0.7352  0.1376
 8033TIP3    H224045   5.093   1.150   5.633  2.9495  0.3657  0.0049
 8034TIP3   OH224046   5.699   1.886   1.199  0.4085 -0.1068  0.3454
 8034TIP3    H124047   5.708   1.970   1.244  0.1655 -0.1818  0.5333
 8034TIP3    H224048   5.605   1.871   1.193  0.4362 -0.0620 -0.2553
 8035TIP3   OH224049   2.258   2.176   0.774 -0.9073 -0.6598 -0.0504
 8035TIP3    H124050   2.218   2.244   0.829  0.5923  0.8900 -0.7896
 8035TIP3    H224051   2.324   2.135   0.830 -0.7741 -0.4631 -0.0612
 8036TIP3   OH224052   5.863   5.074   5.611  0.6629 -0.1999  0.6077
 8036TIP3    H124053   5.773   5.108   5.609  1.7506  3.0536  0.3072
 8036TIP3    H224054   5.875   5.043   5.701 -0.2745  0.9033  1.1444
 8037TIP3   OH224055   6.397   2.614   0.326  0.2348 -0.2193 -0.2920
 8037TIP3    H124056   6.376   2.575   0.411 -1.2161  0.2340 -0.4063
 8037TIP3    H224057   6.445   2.546   0.279 -1.0685 -1.3922  0.0067
 8038TIP3   OH224058   0.490   7.090   1.329  0.3217 -0.2656  0.0789
 8038TIP3    H124059   0.436   7.068   1.253  0.7907 -0.2531 -0.2658
 8038TIP3    H224060   0.526   7.176   1.309  0.0033 -0.0141  0.5717
 8039TIP3   OH224061   0.105   4.123   4.153  0.0894  0.1980  0.4725
 8039TIP3    H124062   0.192   4.160   4.137  0.2417 -0.5495 -0.5039
 8039TIP3    H224063   0.121   4.049   4.212  0.0865  0.1766  0.4461
 8040TIP3   OH224064   3.751   7.757   2.422 -0.3762  0.2001  0.0526
 8040TIP3    H124065   3.780   7.809   2.348  0.2811 -1.7591 -1.1370
 8040TIP3    H224066   3.665   7.725   2.397  0.4429 -1.6486 -0.5631
 8041TIP3   OH224067   0.319   6.279   4.129 -0.3305  0.4314 -0.3237
 8041TIP3    H124068   0.321   6.224   4.208  1.9818  0.3039 -0.4063
 8041TIP3    H224069   0.300   6.218   4.058 -1.0054  0.3117 -0.0530
 8042TIP3   OH224070   8.166   5.978   5.754 -0.2169  0.3138 -0.5001
 8042TIP3    H124071   8.227   6.023   5.813  0.9959 -1.5866 -0.1994
 8042TIP3    H224072   8.187   6.011   5.667  0.7138  0.2980 -0.2950
 8043TIP3   OH224073   5.900   4.018   6.457 -0.3668 -0.4359  0.2699
 8043TIP3    H124074   5.921   4.091   6.516  0.7274 -1.3222  1.0090
 8043TIP3    H224075   5.838   3.964   6.507 -1.1615 -0.0508 -0.2708
 8044TIP3   OH224076   6.644   4.032   2.317  0.1262 -0.2771 -0.0598
 8044TIP3    H124077   6.692   3.973   2.259 -0.4119 -2.4208  1.5374
 8044TIP3    H224078   6.669   4.005   2.405 -2.5689 -0.2561  0.8141
 8045TIP3   OH224079   5.211   1.535   2.353  0.2500 -0.2533 -0.0619
 8045TIP3    H124080   5.242   1.457   2.306  2.0587 -0.5527  1.4717
 8045TIP3    H224081   5.153   1.500   2.421  0.3630 -0.1718  0.0765
 8046TIP3   OH224082   2.082   6.988   1.998  0.1294  0.4201  0.5919
 8046TIP3    H124083   2.057   7.080   2.002  0.6369  0.6233 -0.6522
 8046TIP3    H224084   2.130   6.973   2.080 -0.0095  1.2398  0.8334
 8047TIP3   OH224085   2.212   1.997   3.172 -0.3264 -0.1729  0.0962
 8047TIP3    H124086   2.179   1.950   3.249 -0.8436  0.7181  0.4373
 8047TIP3    H224087   2.182   1.945   3.098 -1.8066  0.1584  0.4314
 8048TIP3   OH224088   2.653   0.981   6.492 -0.1664  0.9469  0.4658
 8048TIP3    H124089   2.712   1.029   6.549  0.5678  0.2155  0.3455
 8048TIP3    H224090   2.703   0.903   6.467 -0.8590  0.7514 -0.3401
 8049TIP3   OH224091   0.613   1.998   5.799  0.1979 -0.4022 -0.1679
 8049TIP3    H124092   0.675   2.056   5.755 -0.2261  0.5521  0.4898
 8049TIP3    H224093   0.559   1.964   5.728 -0.8629  1.5854 -0.3646
 8050TIP3   OH224094   3.741   0.779   5.158 -0.2890  0.3660  0.0851
 8050TIP3    H124095   3.658   0.795   5.203 -1.0499 -0.0841 -1.0996
 8050TIP3    H224096   3.780   0.706   5.206 -1.6861 -0.9507 -0.6810
 8051TIP3   OH224097   6.601   5.624   1.232  0.6747 -0.0143  0.7690
 8051TIP3    H124098   6.604   5.631   1.328  0.4466  0.5356  0.7431
 8051TIP3    H224099   6.536   5.690   1.206  0.0005 -0.8424  0.2992
 8052TIP3   OH224100   8.125   7.752   1.524  0.2594  0.6400 -0.0548
 8052TIP3    H124101   8.177   7.774   1.447 -0.1700  1.5210 -0.1068
 8052TIP3    H224102   8.048   7.708   1.488  0.5447  0.1209 -0.0425
 8053TIP3   OH224103   3.227   6.076   2.012 -0.1954  0.0681 -0.0695
 8053TIP3    H124104   3.282   6.001   1.988 -1.6847 -0.8413 -0.7698
 8053TIP3    H224105   3.150   6.067   1.957 -0.2447  2.3608 -0.4442
 8054TIP3   OH224106   2.441   2.640   2.648 -0.0479  0.3654  0.2898
 8054TIP3    H124107   2.466   2.726   2.681  0.5921  0.4702 -0.4485
 8054TIP3    H224108   2.348   2.649   2.625  0.3219  1.2455 -0.9506
 8055TIP3   OH224109   2.460   1.053   6.302 -0.3351  0.5804 -0.4929
 8055TIP3    H124110   2.530   1.020   6.358 -1.2823  0.6309  0.7801
 8055TIP3    H224111   2.379   1.023   6.345 -1.0972  0.4175 -1.9779
 8056TIP3   OH224112   6.194   0.375   5.652 -0.6333 -0.3205 -0.2938
 8056TIP3    H124113   6.227   0.317   5.584 -0.1538 -0.4117  0.0096
 8056TIP3    H224114   6.273   0.410   5.694 -0.9230  0.1500 -0.1406
 8057TIP3   OH224115   0.168   1.978   1.735 -0.2187  0.5785 -0.1846
 8057TIP3    H124116   0.077   1.948   1.746 -0.0209 -0.3426 -0.9129
 8057TIP3    H224117   0.206   1.916   1.673  1.7833 -0.8791  2.3103
 8058TIP3   OH224118   4.078   6.531   4.975 -0.0061  0.0651  0.4002
 8058TIP3    H124119   4.018   6.477   4.922 -0.4874  0.4771  0.5127
 8058TIP3    H224120   4.157   6.537   4.923 -0.2865  0.0214 -0.0367
 8059TIP3   OH224121   0.805   5.993   4.827  0.2653  0.2738  0.6811
 8059TIP3    H124122   0.804   6.011   4.921 -0.3868 -0.2185  0.7721
 8059TIP3    H224123   0.713   5.997   4.801  0.4986  1.1239 -0.0821
 8060TIP3   OH224124   6.503   2.832   6.491  0.4145 -0.1220 -0.0308
 8060TIP3    H124125   6.509   2.901   6.425 -1.5032 -1.3142 -1.5559
 8060TIP3    H224126   6.559   2.761   6.457 -0.3938 -0.6493 -0.2887
 8061TIP3   OH224127   3.968   1.710   3.535 -0.4113 -0.0916 -0.6878
 8061TIP3    H124128   3.898   1.650   3.558 -1.8036  1.7340  0.0945
 8061TIP3    H224129   4.045   1.675   3.581 -1.0596 -1.4896 -0.6077
 8062TIP3   OH224130   3.011   6.230   3.104 -0.3837  0.6103  0.4293
 8062TIP3    H124131   2.937   6.275   3.063 -0.2912 -0.6283 -1.1756
 8062TIP3    H224132   3.089   6.276   3.071 -0.3759  1.0356  1.0239
 8063TIP3   OH224133   2.479   3.731   5.289  0.1330  0.1327  0.8110
 8063TIP3    H124134   2.448   3.641   5.303  1.7295 -0.6738 -0.4903
 8063TIP3    H224135   2.568   3.731   5.323  1.1303  0.4207 -1.6268
 8064TIP3   OH224136   7.222   6.373   0.723 -0.3837 -0.2602  0.4512
 8064TIP3    H124137   7.134   6.367   0.760 -0.0337  0.8806  1.5270
 8064TIP3    H224138   7.266   6.440   0.776  2.0438 -2.7107  1.7753
 8065TIP3   OH224139   0.827   7.229   6.678  0.2582 -0.6144  0.0934
 8065TIP3    H124140   0.785   7.169   6.616 -0.5625  2.5916 -2.7997
 8065TIP3    H224141   0.920   7.207   6.672  0.0477 -1.2770 -1.3290
 8066TIP3   OH224142   7.549   2.055   3.542  0.0302  0.7366  0.3059
 8066TIP3    H124143   7.469   2.026   3.586 -0.2606  2.3700  0.9253
 8066TIP3    H224144   7.538   2.028   3.451 -0.4540 -0.5457  0.7256
 8067TIP3   OH224145   6.696   1.139   3.660 -0.1591  0.1177 -0.2919
 8067TIP3    H124146   6.700   1.218   3.713  1.1991  0.0746 -0.3018
 8067TIP3    H224147   6.690   1.171   3.570 -1.2292  0.1948 -0.1997
 8068TIP3   OH224148   6.683   5.571   3.082 -0.1724  0.7029  0.2211
 8068TIP3    H124149   6.741   5.647   3.073  0.9734  0.0066  1.3397
 8068TIP3    H224150   6.599   5.601   3.048  0.0246  2.7496  1.3546
 8069TIP3   OH224151   6.547   4.626   6.501 -0.1324 -0.8049 -0.1274
 8069TIP3    H124152   6.513   4.643   6.589  1.0425  4.7598 -0.4145
 8069TIP3    H224153   6.637   4.597   6.515  0.3619  0.9488  0.6106
 8070TIP3   OH224154   7.996   5.877   4.405 -0.3278  0.2652  0.1453
 8070TIP3    H124155   7.921   5.867   4.464 -0.2007 -0.2440  0.2197
 8070TIP3    H224156   8.059   5.928   4.455 -0.1972 -0.2105  0.4720
 8071TIP3   OH224157   2.687   2.503   3.481  0.3990 -0.5409  0.1308
 8071TIP3    H124158   2.656   2.465   3.399 -0.7079  0.6008 -0.0088
 8071TIP3    H224159   2.652   2.446   3.549 -1.4197  0.2752 -0.0653
 8072TIP3   OH224160   6.321   3.874   2.443  0.1490 -0.1749  0.0005
 8072TIP3    H124161   6.398   3.847   2.494  0.5158  0.4997 -0.1927
 8072TIP3    H224162   6.330   3.969   2.433  0.4316 -0.3749 -1.8891
 8073TIP3   OH224163   6.591   6.481   6.112 -0.0242 -0.3025  0.3586
 8073TIP3    H124164   6.666   6.432   6.146  3.2515  0.4492 -4.7365
 8073TIP3    H224165   6.535   6.414   6.073  0.9572 -0.5307 -0.6976
 8074TIP3   OH224166   8.157   6.405   0.459 -0.4541 -0.0774  0.2916
 8074TIP3    H124167   8.242   6.446   0.444 -1.4836  1.2906 -2.8320
 8074TIP3    H224168   8.095   6.477   0.454 -1.9206 -1.2421  0.9119
 8075TIP3   OH224169   3.231   1.340   0.459  0.2108 -0.2818 -0.4006
 8075TIP3    H124170   3.231   1.344   0.364 -1.8257 -0.9508 -0.4706
 8075TIP3    H224171   3.139   1.355   0.484  0.7893  0.4193  1.4797
 8076TIP3   OH224172   7.064   6.714   3.036 -0.9508  0.3231  0.3141
 8076TIP3    H124173   7.091   6.644   2.976  0.3486  1.3955 -0.4139
 8076TIP3    H224174   6.979   6.743   3.004 -0.9362 -0.1067 -0.1193
 8077TIP3   OH224175   7.135   5.554   4.787 -0.7710 -0.3939  0.2114
 8077TIP3    H124176   7.136   5.512   4.873  0.9386 -0.2855  0.2789
 8077TIP3    H224177   7.178   5.638   4.801  0.6518 -0.8844 -0.9715
 8078TIP3   OH224178   7.097   2.332   5.465 -0.2013  0.1794 -0.8675
 8078TIP3    H124179   7.084   2.252   5.514  2.3975 -0.1541 -0.5455
 8078TIP3    H224180   7.075   2.309   5.375 -2.8296  0.1649 -0.2994
 8079TIP3   OH224181   7.290   1.702   0.453  0.2287 -0.6187  0.6362
 8079TIP3    H124182   7.351   1.726   0.523 -0.3996  0.1564  0.9431
 8079TIP3    H224183   7.293   1.776   0.392  0.0035 -0.8247  0.3715
 8080TIP3   OH224184   0.932   6.141   2.356  0.2614  0.3021  0.1378
 8080TIP3    H124185   1.003   6.196   2.389  0.0157  0.3880  0.5365
 8080TIP3    H224186   0.930   6.066   2.416 -0.9633  1.0369  1.0829
 8081TIP3   OH224187   8.116   3.743   1.084  0.1629  0.0518 -0.4458
 8081TIP3    H124188   8.074   3.809   1.139 -0.8087 -2.0387  1.4991
 8081TIP3    H224189   8.209   3.750   1.106 -0.3160 -1.5771  2.6428
 8082TIP3   OH224190   0.566   2.217   5.545 -0.0143 -0.4986  0.1873
 8082TIP3    H124191   0.571   2.291   5.484  0.8401 -0.2019  0.5900
 8082TIP3    H224192   0.656   2.208   5.578 -0.6552  0.1380  2.3019
 8083TIP3   OH224193   4.889   2.393   3.346  0.5830  0.4049  0.4236
 8083TIP3    H124194   4.889   2.312   3.294  1.4035  0.5131  0.2428
 8083TIP3    H224195   4.844   2.457   3.291  1.0573  0.4000  0.0247
 8084TIP3   OH224196   3.279   2.684   3.463 -0.1818  0.0855  0.3597
 8084TIP3    H124197   3.285   2.775   3.493 -1.2131  0.1376  0.4625
 8084TIP3    H224198   3.229   2.639   3.532 -0.2599 -0.3995 -0.0075
 8085TIP3   OH224199   3.476   6.203   4.782  0.2379 -0.6546 -0.3636
 8085TIP3    H124200   3.514   6.116   4.775  1.1730 -0.3114  0.1821
 8085TIP3    H224201   3.432   6.217   4.698 -0.9848 -2.1112 -0.0021
 8086TIP3   OH224202   3.387   2.611   0.502 -0.4326  0.1191 -0.3899
 8086TIP3    H124203   3.478   2.610   0.472  0.2032  1.3260  1.3416
 8086TIP3    H224204   3.373   2.523   0.537  0.4985  0.2957  0.4693
 8087TIP3   OH224205   5.666   3.157   0.958 -0.0023  0.3444  0.0715
 8087TIP3    H124206   5.746   3.198   0.926  0.6794 -0.2920  0.9059
 8087TIP3    H224207   5.665   3.071   0.916 -0.2046  0.3198  0.1252
 8088TIP3   OH224208   6.014   1.979   2.603 -0.6803 -0.5453  0.0218
 8088TIP3    H124209   5.997   2.073   2.596 -0.0910 -0.4806 -0.5808
 8088TIP3    H224210   6.080   1.971   2.671 -0.6923 -0.5196  0.0363
 8089TIP3   OH224211   7.412   5.400   4.394  0.2612 -0.3701 -0.3151
 8089TIP3    H124212   7.414   5.307   4.419  1.3410 -0.4919 -0.7978
 8089TIP3    H224213   7.353   5.403   4.319  0.4549 -0.7223 -0.4854
 8090TIP3   OH224214   6.260   3.479   6.178  0.4145 -0.0332  0.3116
 8090TIP3    H124215   6.193   3.541   6.150 -0.0662 -0.8707 -0.4466
 8090TIP3    H224216   6.323   3.478   6.106  0.4238 -0.4161  0.3216
 8091TIP3   OH224217   5.138   3.803   6.069  0.2980 -0.4543 -0.2957
 8091TIP3    H124218   5.183   3.733   6.116 -0.9365 -0.2917  1.2146
 8091TIP3    H224219   5.208   3.857   6.033  1.3989  0.1653  2.5147
 8092TIP3   OH224220   4.234   0.092   0.448  0.1189  0.5327 -0.3726
 8092TIP3    H124221   4.156   0.102   0.502  0.3851 -0.5981  0.2468
 8092TIP3    H224222   4.206   0.037   0.375  0.3242  0.1055 -0.1375
 8093TIP3   OH224223   1.119   7.058   5.258 -0.0766  0.0180  0.0210
 8093TIP3    H124224   1.058   7.014   5.317  0.5799 -2.8443 -1.2687
 8093TIP3    H224225   1.078   7.052   5.172  2.1685 -2.7393 -1.0337
 8094TIP3   OH224226   1.727   6.075   5.441  0.3164 -0.0392  0.0331
 8094TIP3    H124227   1.771   6.035   5.517 -1.3975  1.2900  1.8470
 8094TIP3    H224228   1.645   6.027   5.434  0.1069  0.3902 -0.4586
 8095TIP3   OH224229   0.752   2.621   4.065  0.4618 -0.1464 -0.0300
 8095TIP3    H124230   0.664   2.628   4.104 -0.5585  2.4929 -2.4483
 8095TIP3    H224231   0.736   2.615   3.971  2.9093  0.0392 -0.5218
 8096TIP3   OH224232   8.109   7.697   4.097  0.3602  0.3705  0.4654
 8096TIP3    H124233   8.033   7.716   4.153  0.2725  1.4802  0.0070
 8096TIP3    H224234   8.073   7.701   4.008  0.5617 -1.0560  0.3085
 8097TIP3   OH224235   6.432   3.589   6.368 -0.3164  0.5964 -0.0997
 8097TIP3    H124236   6.512   3.537   6.372 -1.5114 -1.2833  1.4111
 8097TIP3    H224237   6.391   3.564   6.285 -0.0377  0.4640 -0.1995
 8098TIP3   OH224238   3.557   3.694   1.833  0.5119  0.3526 -0.6922
 8098TIP3    H124239   3.620   3.689   1.904  2.4706 -0.6365 -2.3665
 8098TIP3    H224240   3.482   3.642   1.863  0.6260  1.2046  1.1805
 8099TIP3   OH224241   7.417   1.697   5.319  0.5658 -0.3651  0.3571
 8099TIP3    H124242   7.489   1.755   5.295 -0.8060  1.3847  0.2679
 8099TIP3    H224243   7.433   1.677   5.411  1.0724  0.1672  0.3925
 8100TIP3   OH224244   1.862   7.157   2.205  0.3300  0.4482 -0.2632
 8100TIP3    H124245   1.954   7.177   2.191  0.2632  0.7500 -0.2942
 8100TIP3    H224246   1.826   7.237   2.244  0.0971  0.3088 -0.1889
 8101TIP3   OH224247   3.580   1.974   4.808  0.2651 -0.1807 -0.3678
 8101TIP3    H124248   3.630   2.051   4.779 -1.0026  1.2427  1.0224
 8101TIP3    H224249   3.489   1.995   4.785 -0.2938 -0.6061  1.3326
 8102TIP3   OH224250   0.066   4.193   2.339 -0.3568 -0.2125 -0.4399
 8102TIP3    H124251   0.141   4.148   2.301 -0.1692  0.6345 -1.1175
 8102TIP3    H224252   0.005   4.205   2.266 -0.9837 -0.5391  0.0146
 8103TIP3   OH224253   3.727   0.736  -0.021  0.0809  0.2394 -0.2556
 8103TIP3    H124254   3.773   0.697   0.054  0.9832 -0.7721 -1.2882
 8103TIP3    H224255   3.727   0.830  -0.002  1.7325  0.1795  0.2733
 8104TIP3   OH224256   7.648   5.065   5.706 -0.3873 -0.5174  1.3916
 8104TIP3    H124257   7.692   5.057   5.621 -0.2302  0.3782  1.3830
 8104TIP3    H224258   7.555   5.069   5.684 -0.3649 -0.5850  1.2829
 8105TIP3   OH224259   4.911   0.720   6.298  0.3524  0.7004 -0.2236
 8105TIP3    H124260   4.981   0.778   6.328  1.5103 -0.5749 -0.3626
 8105TIP3    H224261   4.956   0.641   6.270 -1.0099  0.5014 -1.9863
 8106TIP3   OH224262   5.538   6.722   4.679  0.1599 -0.0923 -0.6684
 8106TIP3    H124263   5.612   6.752   4.626  0.7047  0.6474  0.4672
 8106TIP3    H224264   5.464   6.776   4.651  0.5488  0.5982 -0.3779
 8107TIP3   OH224265   3.748   5.902   2.919 -0.8786 -0.3487  0.4501
 8107TIP3    H124266   3.686   5.889   2.847  1.1932  0.0401 -1.5119
 8107TIP3    H224267   3.693   5.911   2.996 -3.3433  0.8848 -1.2909
 8108TIP3   OH224268   1.249   7.582   0.451  0.0302 -0.2147  0.1010
 8108TIP3    H124269   1.253   7.490   0.427 -0.1443  0.0683 -1.0809
 8108TIP3    H224270   1.164   7.612   0.418 -1.5796 -0.4252  3.5594
 8109TIP3   OH224271   1.053   0.316   1.012 -0.2377  0.0082  0.8062
 8109TIP3    H124272   1.066   0.408   0.992 -0.0675  0.6359  3.4200
 8109TIP3    H224273   1.105   0.301   1.091  0.2312 -2.5121  0.1163
 8110TIP3   OH224274   0.602   7.440   0.355  0.0157 -0.1005  0.3061
 8110TIP3    H124275   0.525   7.465   0.407  0.6640 -0.6585  1.6039
 8110TIP3    H224276   0.566   7.405   0.274 -1.1351 -0.6770  1.0229
 8111TIP3   OH224277   4.845   2.834   1.445  0.0170  0.3954  0.7270
 8111TIP3    H124278   4.844   2.801   1.535 -1.2212  0.5667  0.8004
 8111TIP3    H224279   4.762   2.803   1.408  0.8668 -0.3361 -0.6145
 8112TIP3   OH224280   4.740   4.510   0.443 -0.3437  0.1721 -0.4434
 8112TIP3    H124281   4.684   4.581   0.474 -0.2311 -0.7958  2.2351
 8112TIP3    H224282   4.690   4.469   0.372 -2.1932  0.4750  0.6231
 8113TIP3   OH224283   2.869   6.688   6.595  0.6225 -0.6333  0.1591
 8113TIP3    H124284   2.827   6.603   6.579  1.5179 -0.7425 -1.9170
 8113TIP3    H224285   2.816   6.728   6.664 -2.1149 -1.3316 -1.3935
 8114TIP3   OH224286   2.664   2.795   5.933  0.1960  0.3722  0.5807
 8114TIP3    H124287   2.596   2.850   5.971 -0.1425 -0.5087  1.2947
 8114TIP3    H224288   2.644   2.792   5.839 -1.4816 -0.8149  0.9182
 8115TIP3   OH224289   6.649   2.037   4.360  0.6869 -0.0268 -0.7620
 8115TIP3    H124290   6.600   2.020   4.440 -0.4600 -0.6669 -1.5685
 8115TIP3    H224291   6.700   2.115   4.379 -0.6540  0.6720  0.1178
 8116TIP3   OH224292   5.647   3.759   5.504 -0.5823  0.4594  0.5921
 8116TIP3    H124293   5.716   3.801   5.452 -1.8303  1.7278 -0.0950
 8116TIP3    H224294   5.693   3.690   5.553  0.9734  0.5317 -0.6809
 8117TIP3   OH224295   0.405   2.118   5.212  0.2167 -0.0227 -0.1157
 8117TIP3    H124296   0.385   2.024   5.216 -1.5919  0.2647 -1.2009
 8117TIP3    H224297   0.478   2.124   5.151 -0.0186 -0.6915 -0.4747
 8118TIP3   OH224298   5.285   3.346   5.083  0.4549 -0.5047  0.1604
 8118TIP3    H124299   5.219   3.281   5.107  0.0106 -0.1012  0.0346
 8118TIP3    H224300   5.292   3.403   5.160 -0.2520  0.1953 -0.2779
 8119TIP3   OH224301   6.765   4.231   2.873 -0.7152 -0.0279 -0.2375
 8119TIP3    H124302   6.742   4.263   2.961 -0.3452  0.3615 -0.2793
 8119TIP3    H224303   6.713   4.285   2.814  0.1120  0.6976 -0.3216
 8120TIP3   OH224304   4.306   6.216   0.920 -0.1194 -0.2039  0.6122
 8120TIP3    H124305   4.387   6.247   0.961  0.6306 -3.4994  1.9483
 8120TIP3    H224306   4.237   6.270   0.959  1.2414  1.5746  0.6767
 8121TIP3   OH224307   6.008   3.996   1.794  0.1888 -0.4446 -0.3107
 8121TIP3    H124308   5.967   3.948   1.866 -0.4006 -1.2018 -1.1324
 8121TIP3    H224309   5.949   4.069   1.777 -0.1492 -0.7759 -0.6030
 8122TIP3   OH224310   5.206   2.601   1.749  0.2231 -1.1931 -0.1436
 8122TIP3    H124311   5.157   2.583   1.669 -1.2057  0.2033  0.3693
 8122TIP3    H224312   5.216   2.517   1.792  1.8563 -2.1548 -2.2022
 8123TIP3   OH224313   1.339   4.408   1.125 -0.8768  0.1406  0.4230
 8123TIP3    H124314   1.413   4.422   1.067 -2.1329 -1.9991 -1.9036
 8123TIP3    H224315   1.306   4.496   1.144  0.1207  0.9603 -1.4065
 8124TIP3   OH224316   1.163   3.002   1.725  0.2544  0.0762  0.2320
 8124TIP3    H124317   1.187   3.076   1.781  0.5234 -0.0607  0.2981
 8124TIP3    H224318   1.240   2.988   1.669  0.1574 -0.0730  0.1355
 8125TIP3   OH224319   4.468   1.074   2.467 -0.2280  0.0927 -0.5209
 8125TIP3    H124320   4.516   1.119   2.536 -1.2303 -2.2136  1.8136
 8125TIP3    H224321   4.436   1.145   2.411  1.4820  1.9911  0.7506
 8126TIP3   OH224322   6.638   2.221   4.047  0.1640 -0.3985 -0.1594
 8126TIP3    H124323   6.582   2.258   4.115 -0.2157  0.5473 -0.9588
 8126TIP3    H224324   6.604   2.133   4.031  0.0287 -0.4873  0.6055
 8127TIP3   OH224325   5.355   4.913   2.640 -0.8317 -0.1252 -0.7711
 8127TIP3    H124326   5.417   4.900   2.569  0.2029  1.3144 -0.1828
 8127TIP3    H224327   5.408   4.945   2.713 -1.9401 -1.0503  0.4934
 8128TIP3   OH224328   6.075   7.327   2.764 -0.5138  0.2532 -0.0796
 8128TIP3    H124329   6.095   7.419   2.782  0.4509 -0.4599  3.3011
 8128TIP3    H224330   5.983   7.318   2.788 -0.7810  0.4597 -1.0201
 8129TIP3   OH224331   0.687   4.973   3.271 -1.1842 -0.0695 -0.1299
 8129TIP3    H124332   0.639   4.935   3.198 -0.8514  1.7172 -1.3480
 8129TIP3    H224333   0.690   5.067   3.252  0.7656  0.1738  1.0792
 8130TIP3   OH224334   2.499   1.679   6.270  0.6842 -0.1360  0.4931
 8130TIP3    H124335   2.473   1.768   6.295  1.4483  0.4622 -0.7448
 8130TIP3    H224336   2.573   1.659   6.327  1.3919  0.5823 -0.1455
 8131TIP3   OH224337   7.871   3.355   1.470  0.2829 -0.3792  0.1147
 8131TIP3    H124338   7.868   3.259   1.478 -1.1582 -0.4834 -1.1336
 8131TIP3    H224339   7.796   3.385   1.522 -0.6484 -0.1196 -1.3333
 8132TIP3   OH224340   2.237   6.185   2.409  0.7399 -0.2681  0.2556
 8132TIP3    H124341   2.227   6.092   2.388 -0.7006 -0.0653 -0.0425
 8132TIP3    H224342   2.171   6.201   2.477  0.3854  0.7227 -0.3085
 8133TIP3   OH224343   6.249   1.057   2.293 -0.2292 -0.8358  0.0552
 8133TIP3    H124344   6.173   1.113   2.277 -0.4175 -1.2358 -0.4957
 8133TIP3    H224345   6.316   1.116   2.328 -0.4326 -0.2718 -0.4944
 8134TIP3   OH224346   0.347   7.046   0.092 -0.0853  0.7676 -0.2440
 8134TIP3    H124347   0.345   6.951   0.090  1.8537  0.6804 -0.0456
 8134TIP3    H224348   0.267   7.073   0.047 -0.3799 -0.9392 -0.8082
 8135TIP3   OH224349   0.732   4.032   4.957 -0.1675 -0.3188  0.1125
 8135TIP3    H124350   0.667   4.062   4.893  0.6405  0.3846 -0.4095
 8135TIP3    H224351   0.683   3.979   5.019 -1.0527 -0.6358 -0.8435
 8136TIP3   OH224352   7.249   0.766   2.618 -0.1226 -0.0793 -0.1390
 8136TIP3    H124353   7.327   0.760   2.564  0.4186  1.3586  0.4403
 8136TIP3    H224354   7.178   0.781   2.555  0.0881 -1.1129 -0.6436
 8137TIP3   OH224355   4.865   7.387   5.226 -0.0244 -0.0809  0.0296
 8137TIP3    H124356   4.824   7.467   5.260  1.2261  0.4022  0.4535
 8137TIP3    H224357   4.865   7.399   5.131  1.8139  1.3111  0.1507
 8138TIP3   OH224358   5.382   6.964   1.765 -0.9655 -0.5234 -0.0001
 8138TIP3    H124359   5.453   7.002   1.816 -1.5961  2.0728 -0.9030
 8138TIP3    H224360   5.302   6.991   1.810 -1.4521 -0.6547 -0.7541
 8139TIP3   OH224361   2.865   0.132   4.685  0.3076  0.5645  0.2278
 8139TIP3    H124362   2.912   0.125   4.602 -1.8122  0.5726 -1.0316
 8139TIP3    H224363   2.883   0.220   4.716  0.2185  0.9642 -0.8215
 8140TIP3   OH224364   4.349   7.619   0.924 -0.1856  0.0643 -0.1885
 8140TIP3    H124365   4.362   7.714   0.921  2.0497 -0.1128  1.6340
 8140TIP3    H224366   4.304   7.604   1.008  0.6306 -0.5716  0.1445
 8141TIP3   OH224367   7.141   7.299   3.646  0.9725 -0.6407 -0.2600
 8141TIP3    H124368   7.189   7.270   3.568  0.7818  1.2203 -1.1461
 8141TIP3    H224369   7.209   7.316   3.711  1.2482 -1.0502 -0.4388
 8142TIP3   OH224370   6.774   7.779   2.254 -0.1963 -0.6520  1.2099
 8142TIP3    H124371   6.852   7.757   2.203 -1.1746 -1.4110  0.0124
 8142TIP3    H224372   6.807   7.792   2.343  1.1588 -1.9576  0.9294
 8143TIP3   OH224373   5.160   7.385   1.914 -1.0596 -0.0686 -0.0174
 8143TIP3    H124374   5.119   7.299   1.907 -0.9632 -0.0682 -0.6571
 8143TIP3    H224375   5.093   7.441   1.952 -1.5707 -0.1279 -0.8192
 8144TIP3   OH224376   7.265   0.234   1.066 -0.3983 -0.3312 -0.1734
 8144TIP3    H124377   7.196   0.215   1.130  0.3423 -0.0960  0.7154
 8144TIP3    H224378   7.289   0.148   1.031 -0.6151 -0.4938  0.0682
 8145TIP3   OH224379   0.148   3.378   1.730  0.3128 -0.4004  0.4702
 8145TIP3    H124380   0.225   3.371   1.787  0.1046 -0.9806  0.6813
 8145TIP3    H224381   0.103   3.295   1.741 -0.1461 -0.2049  0.0536
 8146TIP3   OH224382   2.507   1.840   1.301 -0.2318 -0.0991  0.1124
 8146TIP3    H124383   2.550   1.780   1.362  1.4344  0.9410  0.0015
 8146TIP3    H224384   2.578   1.891   1.263 -1.5551  1.6471 -0.1327
 8147TIP3   OH224385   2.807   3.975   5.164  0.1803 -0.9561  0.2577
 8147TIP3    H124386   2.832   3.982   5.072 -0.7550 -2.2894 -0.1321
 8147TIP3    H224387   2.758   4.055   5.182 -1.0725 -1.4111 -0.9170
 8148TIP3   OH224388   3.613   4.447   4.732 -0.0023 -0.2930  0.2907
 8148TIP3    H124389   3.697   4.401   4.730  1.2210  1.4186  3.7124
 8148TIP3    H224390   3.632   4.534   4.695 -1.5324 -1.2918 -3.2174
 8149TIP3   OH224391   7.275   6.086   2.186 -0.1492 -0.6668  0.1703
 8149TIP3    H124392   7.183   6.085   2.213 -0.3123 -2.6327 -0.3111
 8149TIP3    H224393   7.271   6.103   2.092  0.1434  1.3128  0.4698
 8150TIP3   OH224394   4.986   2.633   4.692  0.1250  0.3052 -0.0981
 8150TIP3    H124395   4.922   2.670   4.753 -0.3150 -2.0714  0.9915
 8150TIP3    H224396   5.071   2.658   4.726 -0.1688  0.5419  0.4607
 8151TIP3   OH224397   5.199   1.788   0.654  0.3367  0.2431 -0.1008
 8151TIP3    H124398   5.256   1.814   0.581 -0.7016 -2.2719 -1.9770
 8151TIP3    H224399   5.111   1.794   0.617 -0.2380 -0.7601  1.0781
 8152TIP3   OH224400   3.817   3.352   1.047 -0.3637  0.6292 -0.2609
 8152TIP3    H124401   3.831   3.258   1.038  1.7386  0.6472  1.7534
 8152TIP3    H224402   3.725   3.365   1.025 -0.0984 -1.4445 -3.1660
 8153TIP3   OH224403   0.349   0.647   1.984 -0.4868  0.2012  0.2533
 8153TIP3    H124404   0.419   0.673   2.043 -0.8295 -0.1810  0.8383
 8153TIP3    H224405   0.295   0.725   1.974  0.5267  0.7966 -0.9717
 8154TIP3   OH224406   1.540   3.967   3.540  0.2313 -0.0580 -0.2825
 8154TIP3    H124407   1.601   3.987   3.611 -0.1074 -0.4182  0.1153
 8154TIP3    H224408   1.527   4.051   3.495  0.2255  0.2329  0.2545
 8155TIP3   OH224409   7.981   1.498   4.488 -0.3438 -0.0126  0.6081
 8155TIP3    H124410   7.963   1.491   4.394 -0.8374  0.5006  0.6531
 8155TIP3    H224411   8.046   1.430   4.506  0.4793  0.5117 -0.2859
 8156TIP3   OH224412   5.894   6.125   3.750  0.3078  0.3147 -0.2629
 8156TIP3    H124413   5.911   6.217   3.767  1.6250 -0.2118  1.7292
 8156TIP3    H224414   5.799   6.119   3.744  0.1694  1.7257  0.1502
 8157TIP3   OH224415   2.146   0.073   4.809  0.5227  0.0783 -0.5670
 8157TIP3    H124416   2.122  -0.018   4.826  1.4647  0.1044  1.1121
 8157TIP3    H224417   2.084   0.124   4.862 -0.7822  0.5107 -2.4219
 8158TIP3   OH224418   1.789   0.935   4.253 -0.5045  0.1697 -0.1782
 8158TIP3    H124419   1.702   0.908   4.283 -0.1401 -1.6579 -0.6331
 8158TIP3    H224420   1.848   0.872   4.294  0.6253  1.4235  0.1604
 8159TIP3   OH224421   0.850   5.320   6.369 -0.0625  0.4330  0.5898
 8159TIP3    H124422   0.834   5.307   6.276 -0.4230  2.5463  0.2944
 8159TIP3    H224423   0.880   5.235   6.401 -0.6516 -0.5369 -1.2829
 8160TIP3   OH224424   5.668   2.926   1.311  0.0415  0.1768  0.4445
 8160TIP3    H124425   5.690   2.866   1.382 -0.5888  0.3879  0.8204
 8160TIP3    H224426   5.643   3.007   1.355  1.9761  1.1173 -0.0730
 8161TIP3   OH224427   5.394   1.751   2.777  0.1520 -0.1697 -0.0717
 8161TIP3    H124428   5.447   1.825   2.808 -2.3947  1.7189  0.0678
 8161TIP3    H224429   5.362   1.778   2.692  1.7734 -2.5824 -1.5761
 8162TIP3   OH224430   4.453   6.523   1.871  0.1461  0.0901  0.0172
 8162TIP3    H124431   4.437   6.428   1.870 -1.2917  0.3091  0.5144
 8162TIP3    H224432   4.366   6.562   1.874  0.7432  1.4024  1.9154
 8163TIP3   OH224433   1.023   6.541   5.265 -0.3802  0.1377  0.1150
 8163TIP3    H124434   1.081   6.542   5.341  0.8039  0.9495 -0.7591
 8163TIP3    H224435   0.950   6.598   5.291 -0.4543 -0.3362  0.9779
 8164TIP3   OH224436   2.340   4.731   0.604  0.0266 -0.0735  0.2070
 8164TIP3    H124437   2.333   4.811   0.552 -0.7218 -0.2209  0.0701
 8164TIP3    H224438   2.270   4.674   0.570  1.7304 -1.5640 -1.0267
 8165TIP3   OH224439   3.730   0.219   3.096 -0.4484  0.7415 -0.2514
 8165TIP3    H124440   3.643   0.204   3.133  0.2253 -1.0206  0.7213
 8165TIP3    H224441   3.768   0.286   3.152  0.3270 -1.4504  2.0648
 8166TIP3   OH224442   1.463   2.053   2.813  0.0407 -0.2484 -0.1372
 8166TIP3    H124443   1.483   2.126   2.871  0.7255  1.1119 -2.0117
 8166TIP3    H224444   1.405   1.997   2.865  2.2394 -0.2110  2.6099
 8167TIP3   OH224445   4.817   2.931   3.476  0.6138  0.2992  0.1977
 8167TIP3    H124446   4.736   2.925   3.427  0.7437 -0.8781  0.1199
 8167TIP3    H224447   4.868   2.999   3.431 -0.2795  1.0001  0.2141
 8168TIP3   OH224448   7.633   4.929   5.948  0.1174 -0.3052 -0.2669
 8168TIP3    H124449   7.657   4.965   5.863  0.8179 -0.6186 -0.2125
 8168TIP3    H224450   7.558   4.980   5.976 -0.3700 -0.4522 -1.2530
 8169TIP3   OH224451   5.025   2.678   5.860 -0.3359 -0.2105 -0.2826
 8169TIP3    H124452   4.987   2.640   5.939  0.6860  1.2533  0.9813
 8169TIP3    H224453   5.037   2.604   5.801 -0.7449 -1.4177  1.0909
 8170TIP3   OH224454   4.517   5.457   4.348  0.0763  0.5195  0.2886
 8170TIP3    H124455   4.569   5.377   4.339 -0.7185  0.2122 -2.7420
 8170TIP3    H224456   4.582   5.525   4.364  1.2229 -0.2149 -0.9209
 8171TIP3   OH224457   8.248   0.238   5.015 -0.2570 -0.0424  0.2371
 8171TIP3    H124458   8.227   0.331   5.012  0.5798  0.1371 -0.7165
 8171TIP3    H224459   8.343   0.235   5.028 -0.1528 -0.7342 -0.5759
 8172TIP3   OH224460   7.567   4.720   3.031 -0.5225  0.4357  0.2976
 8172TIP3    H124461   7.582   4.718   3.126 -0.2888 -0.1559  0.2479
 8172TIP3    H224462   7.500   4.654   3.016  0.5073 -0.5446 -0.1371
 8173TIP3   OH224463   1.638   5.697   0.305 -0.1090 -0.2867  0.3455
 8173TIP3    H124464   1.543   5.702   0.297 -0.1489  2.1764  1.3099
 8173TIP3    H224465   1.654   5.612   0.347 -2.0124 -0.1533  1.4939
 8174TIP3   OH224466   6.370   4.448   3.934 -0.0719  0.6389  0.6262
 8174TIP3    H124467   6.291   4.402   3.960  0.6590  0.3850  2.5468
 8174TIP3    H224468   6.442   4.389   3.958  0.8217  2.1308  1.7956
 8175TIP3   OH224469   7.652   6.326   2.461 -0.0776 -0.0157  0.1609
 8175TIP3    H124470   7.565   6.350   2.427  0.0580 -1.0401 -0.9994
 8175TIP3    H224471   7.633   6.270   2.536 -0.3996  0.9028  0.7824
 8176TIP3   OH224472   0.266   3.510   5.641 -0.0312  0.1156 -0.2873
 8176TIP3    H124473   0.223   3.544   5.720 -0.8160  1.3812 -1.2339
 8176TIP3    H224474   0.213   3.434   5.617 -0.8161  0.7292 -0.5445
 8177TIP3   OH224475   2.993   2.033   0.452  0.0099 -0.0344 -0.3406
 8177TIP3    H124476   3.036   2.117   0.437  0.5347 -0.1206  0.5577
 8177TIP3    H224477   2.933   2.022   0.379 -0.8392  1.6090  0.0719
 8178TIP3   OH224478   6.600   3.049   1.430 -0.4806  0.2854 -0.8334
 8178TIP3    H124479   6.664   3.102   1.383 -0.6296  0.6680 -0.6101
 8178TIP3    H224480   6.575   3.103   1.506 -0.9397  0.0755 -0.8293
 8179TIP3   OH224481   0.698   0.843   4.682  0.5377 -0.1445 -0.6489
 8179TIP3    H124482   0.609   0.845   4.717  0.7836 -0.5127  0.0153
 8179TIP3    H224483   0.717   0.750   4.671  0.6549 -0.0523 -1.2957
 8180TIP3   OH224484   0.123   7.631   3.397 -0.0545 -0.0635 -0.1630
 8180TIP3    H124485   0.173   7.711   3.412  1.6644 -1.0490 -0.3205
 8180TIP3    H224486   0.143   7.608   3.306  0.6613 -1.4191  0.3056
 8181TIP3   OH224487   6.846   4.564   5.631  0.2027 -0.9280 -0.3415
 8181TIP3    H124488   6.766   4.533   5.675  0.5453 -0.1396  0.8886
 8181TIP3    H224489   6.869   4.644   5.678  1.6694 -1.0910 -0.7564
 8182TIP3   OH224490   7.422   2.761   4.268  0.1248 -0.0308  0.8273
 8182TIP3    H124491   7.427   2.706   4.189 -0.4710 -1.5612  1.8175
 8182TIP3    H224492   7.508   2.755   4.308 -0.0918 -0.6922  1.2084
 8183TIP3   OH224493   0.101   3.872   4.631 -0.3329  0.2666 -0.7434
 8183TIP3    H124494   0.015   3.914   4.627 -0.2632  0.6331  1.0069
 8183TIP3    H224495   0.114   3.852   4.724  1.9373  1.2052 -0.8045
 8184TIP3   OH224496   4.453   2.205   3.735  0.2536  0.0463 -0.1554
 8184TIP3    H124497   4.423   2.248   3.655 -2.0705  1.7528  1.5141
 8184TIP3    H224498   4.523   2.261   3.767  2.0411 -1.2900 -1.5133
 8185TIP3   OH224499   6.584   5.961   1.633  0.5270 -0.1652 -0.5099
 8185TIP3    H124500   6.664   5.958   1.685  0.6428 -1.4906 -0.7381
 8185TIP3    H224501   6.561   6.054   1.629  1.4203  0.1109  0.5150
 8186TIP3   OH224502   6.864   2.419   4.814 -0.4922 -0.3040  0.1617
 8186TIP3    H124503   6.784   2.403   4.864 -0.6074 -1.2764 -0.3038
 8186TIP3    H224504   6.928   2.448   4.879 -1.6351  2.1595  0.3162
 8187TIP3   OH224505   2.268   3.233   2.643  0.3919  0.3307  0.5216
 8187TIP3    H124506   2.222   3.315   2.658 -1.4989 -0.5742 -0.0006
 8187TIP3    H224507   2.360   3.257   2.635 -0.0908  2.3394  0.6526
 8188TIP3   OH224508   7.573   7.656   0.778 -0.1017  0.1766  0.2870
 8188TIP3    H124509   7.577   7.739   0.731 -0.0840  0.3417  0.5777
 8188TIP3    H224510   7.514   7.673   0.852 -1.1576 -0.4329 -0.3934
 8189TIP3   OH224511   3.870   7.806   2.981 -0.2385  0.9219  0.4193
 8189TIP3    H124512   3.931   7.848   2.921 -1.1287  1.6431  0.0108
 8189TIP3    H224513   3.891   7.844   3.067  0.8591  0.0781  0.5538
 8190TIP3   OH224514   2.294   3.085   5.649  0.4817 -0.2149  0.2929
 8190TIP3    H124515   2.202   3.071   5.673 -0.1175 -0.9124 -2.1108
 8190TIP3    H224516   2.296   3.174   5.614  0.6354 -0.3033  0.0703
 8191TIP3   OH224517   0.740   6.426   5.218 -0.5422 -0.0466  0.1271
 8191TIP3    H124518   0.816   6.391   5.171  0.4184  1.3341  0.5783
 8191TIP3    H224519   0.730   6.368   5.293  0.1274 -0.2091  0.1013
 8192TIP3   OH224520   0.665   5.496   0.992  0.2111  0.0203  0.0591
 8192TIP3    H124521   0.692   5.446   0.915 -0.9214 -0.1128 -0.2663
 8192TIP3    H224522   0.733   5.562   1.003 -0.5530  1.3053 -2.2410
 8193TIP3   OH224523   0.103   6.385   0.235  0.1404  0.0322  0.5575
 8193TIP3    H124524   0.083   6.460   0.292  1.3417  0.2599  0.7120
 8193TIP3    H224525   0.092   6.309   0.292 -0.9107  0.0868  0.4493
 8194TIP3   OH224526   2.012   2.904   2.470 -0.4720  0.1089  0.4883
 8194TIP3    H124527   2.019   2.815   2.435  0.1282  0.6082 -0.7164
 8194TIP3    H224528   2.092   2.917   2.521 -1.0531 -0.3958  1.5630
 8195TIP3   OH224529   7.926   6.531   0.602 -0.0388 -0.2033  0.1851
 8195TIP3    H124530   7.865   6.566   0.536 -1.0788  0.6476  1.5405
 8195TIP3    H224531   7.869   6.494   0.669  1.0098 -1.1277  0.5762
 8196TIP3   OH224532   3.052   6.340   6.498  0.0553  0.0645 -0.3367
 8196TIP3    H124533   3.031   6.247   6.490  2.1216 -0.4808  0.0070
 8196TIP3    H224534   3.127   6.342   6.557 -0.3018  2.0135  0.1039
 8197TIP3   OH224535   1.835   7.176   4.409  0.3838 -0.2783  0.2490
 8197TIP3    H124536   1.917   7.223   4.421  0.0321  0.6057 -0.6273
 8197TIP3    H224537   1.767   7.243   4.423 -0.1735 -0.8827  0.4904
 8198TIP3   OH224538   7.534   4.508   5.857  0.5917 -0.2925  0.6476
 8198TIP3    H124539   7.500   4.575   5.797  1.3191 -1.0583 -0.6571
 8198TIP3    H224540   7.458   4.484   5.911  0.0101  0.6704  0.2871
 8199TIP3   OH224541   0.342   6.708   5.964 -0.2559 -0.3403 -0.6486
 8199TIP3    H124542   0.347   6.794   6.005  2.2424 -0.2206 -1.0478
 8199TIP3    H224543   0.402   6.714   5.889 -1.8217 -1.7187 -2.0949
 8200TIP3   OH224544   2.689   0.959   0.462 -0.8266  0.1992 -0.0861
 8200TIP3    H124545   2.761   1.022   0.450 -1.0419  0.4576 -0.0426
 8200TIP3    H224546   2.732   0.874   0.465 -0.6775  0.1342 -2.2203
 8201TIP3   OH224547   3.815   6.948   4.611  0.0791 -0.5905  0.4047
 8201TIP3    H124548   3.777   6.920   4.528  0.8719 -2.4515  0.6187
 8201TIP3    H224549   3.896   6.898   4.618  0.2297 -0.1628  2.1221
 8202TIP3   OH224550   0.712   3.936   4.435  0.0653  0.5364 -0.2727
 8202TIP3    H124551   0.625   3.911   4.466 -0.3935 -0.9396 -2.5168
 8202TIP3    H224552   0.703   4.026   4.405 -1.0182  0.0522 -1.4813
 8203TIP3   OH224553   2.083   4.464   5.653 -0.0039 -0.4375  1.0049
 8203TIP3    H124554   2.077   4.395   5.587  0.3805 -2.2715  2.7925
 8203TIP3    H224555   1.993   4.490   5.669 -0.1201 -0.1563  0.0034
 8204TIP3   OH224556   2.572   5.685   0.666 -0.1084 -0.7949  0.0340
 8204TIP3    H124557   2.642   5.626   0.639  0.5606 -0.1448  0.2984
 8204TIP3    H224558   2.498   5.663   0.609  1.1754  0.3766 -2.2217
 8205TIP3   OH224559   0.762   5.941   1.974  0.5145  0.3904  0.2605
 8205TIP3    H124560   0.703   5.990   2.031  0.5348  2.5751 -1.4465
 8205TIP3    H224561   0.835   6.002   1.958  1.8340 -1.1822  0.0661
 8206TIP3   OH224562   6.118   4.707   3.438 -0.0798  0.2040 -0.2772
 8206TIP3    H124563   6.077   4.746   3.361  0.3858 -1.3161 -1.3444
 8206TIP3    H224564   6.114   4.613   3.422  0.9040 -0.1033  1.1069
 8207TIP3   OH224565   0.668   3.548   6.524 -0.7874  0.2760 -0.2064
 8207TIP3    H124566   0.707   3.633   6.546  0.5300 -0.6312  1.2020
 8207TIP3    H224567   0.581   3.551   6.564 -0.3200  0.5470  0.8253
 8208TIP3   OH224568   2.471   7.766   3.427  1.0544  0.2206 -0.4737
 8208TIP3    H124569   2.556   7.805   3.448  1.3695 -0.8188  0.2973
 8208TIP3    H224570   2.471   7.683   3.475 -0.0837 -0.1503 -1.0889
 8209TIP3   OH224571   5.083   5.892   3.287 -0.2648 -0.4883 -0.4861
 8209TIP3    H124572   5.159   5.840   3.260 -0.5851 -1.2595  0.0264
 8209TIP3    H224573   5.102   5.915   3.378 -0.0703  0.4253 -0.7473
 8210TIP3   OH224574   3.649   1.186   6.091 -0.2049 -0.1596  0.5271
 8210TIP3    H124575   3.696   1.262   6.124  0.1556  0.2204 -0.7984
 8210TIP3    H224576   3.573   1.177   6.149  0.8833 -0.1128  2.0186
 8211TIP3   OH224577   1.210   1.995   3.270  0.3047  0.4681 -0.0515
 8211TIP3    H124578   1.173   1.911   3.295  1.8264 -0.1270  0.2734
 8211TIP3    H224579   1.138   2.057   3.280 -0.2948 -0.4566  1.6270
 8212TIP3   OH224580   3.039   7.636   3.631  0.0968  0.0612 -0.3920
 8212TIP3    H124581   3.098   7.697   3.675 -0.3569  0.4356 -0.3075
 8212TIP3    H224582   3.073   7.631   3.541  0.2380  0.2961 -0.3516
 8213TIP3   OH224583   1.954   0.105   4.386 -0.5132  0.3013  0.6681
 8213TIP3    H124584   1.901   0.068   4.316  0.4405  0.9304 -0.4292
 8213TIP3    H224585   2.028   0.045   4.394  0.6708  1.4978 -0.6298
 8214TIP3   OH224586   0.837   3.836   5.790 -0.6104 -0.2742 -0.0752
 8214TIP3    H124587   0.914   3.855   5.844  0.4993 -0.3436 -1.5718
 8214TIP3    H224588   0.823   3.742   5.798 -1.4828 -0.0527  1.3655
 8215TIP3   OH224589   3.680   1.718   2.277  0.0888 -0.5934  0.2425
 8215TIP3    H124590   3.672   1.628   2.309 -1.4853 -1.1859 -1.5971
 8215TIP3    H224591   3.636   1.770   2.344  0.3849 -1.2662  0.9854
 8216TIP3   OH224592   4.652   7.274   0.613 -0.1389 -0.3703 -0.1356
 8216TIP3    H124593   4.732   7.221   0.620  0.2940  0.4388  2.2424
 8216TIP3    H224594   4.593   7.236   0.678 -0.2465  1.2991  0.8000
 8217TIP3   OH224595   3.905   5.445   3.912  0.3492  0.6427 -0.2356
 8217TIP3    H124596   3.959   5.434   3.990 -1.2354 -1.7773  0.6545
 8217TIP3    H224597   3.825   5.489   3.943  0.0464  0.3856 -0.6317
 8218TIP3   OH224598   0.832   4.163   5.407 -0.4133  0.0260 -0.3864
 8218TIP3    H124599   0.801   4.195   5.492 -0.5831  1.3282 -0.9081
 8218TIP3    H224600   0.800   4.073   5.402 -0.5869  0.0035  0.8307
 8219TIP3   OH224601   2.791   0.449   3.910 -0.2202  0.1263 -0.6859
 8219TIP3    H124602   2.848   0.523   3.891 -0.1185  0.0311 -0.7537
 8219TIP3    H224603   2.707   0.488   3.931  0.0550  0.3028  0.1119
 8220TIP3   OH224604   6.330   3.362   1.123 -0.2483 -0.3547  0.2309
 8220TIP3    H124605   6.283   3.315   1.055  0.5922  0.5423 -1.0153
 8220TIP3    H224606   6.357   3.294   1.185 -2.4525 -0.9819  0.5775
 8221TIP3   OH224607   3.518   7.829   2.137  0.7342 -0.1087  0.1326
 8221TIP3    H124608   3.518   7.737   2.163 -1.9687 -0.8553 -2.0194
 8221TIP3    H224609   3.427   7.858   2.148  1.4122  2.1824  0.3023
 8222TIP3   OH224610   1.773   5.509   6.415  0.1555  0.4305  0.8095
 8222TIP3    H124611   1.696   5.472   6.457  0.8383 -0.0648  1.6650
 8222TIP3    H224612   1.800   5.580   6.474 -0.8858  2.0597 -0.5866
 8223TIP3   OH224613   0.941   4.719   5.355 -0.1316 -0.3154  0.2304
 8223TIP3    H124614   1.027   4.756   5.336 -0.5250 -0.4357 -2.0685
 8223TIP3    H224615   0.902   4.781   5.417  1.6313 -0.3692  1.4718
 8224TIP3   OH224616   5.879   3.466   3.778 -0.0980 -0.4200 -1.1941
 8224TIP3    H124617   5.969   3.449   3.806 -0.6893  0.5234  1.5180
 8224TIP3    H224618   5.843   3.523   3.845 -2.6253 -0.4109 -2.4421
 8225TIP3   OH224619   6.463   3.911   5.784 -0.1955  0.0252 -0.4493
 8225TIP3    H124620   6.472   3.906   5.689 -2.3406 -1.4290 -0.6452
 8225TIP3    H224621   6.469   3.819   5.813  0.3436  0.4439  0.8308
 8226TIP3   OH224622   4.152   7.600   6.226  0.5432 -0.1444 -0.3447
 8226TIP3    H124623   4.243   7.569   6.234 -0.1597 -2.3734 -0.3460
 8226TIP3    H224624   4.159   7.695   6.236  2.5446 -0.4597  2.7224
 8227TIP3   OH224625   1.276   3.908   3.672 -0.1058  0.0739  0.2373
 8227TIP3    H124626   1.279   3.849   3.747 -0.6837 -0.2694 -0.0036
 8227TIP3    H224627   1.367   3.929   3.654 -0.0043  0.9886  1.6770
 8228TIP3   OH224628   4.420   3.745   0.783  0.4438 -0.7903 -0.4571
 8228TIP3    H124629   4.434   3.663   0.830  0.1883 -0.6411 -0.1153
 8228TIP3    H224630   4.472   3.809   0.832 -2.8698  0.2183  2.0927
 8229TIP3   OH224631   4.589   7.119   4.160 -0.1339  0.5998 -0.3424
 8229TIP3    H124632   4.611   7.138   4.069  0.4036  3.3664  0.2808
 8229TIP3    H224633   4.673   7.123   4.206 -0.4174 -0.6668  0.3103
 8230TIP3   OH224634   1.945   5.333   3.879 -0.7286 -0.1855  0.3243
 8230TIP3    H124635   1.987   5.343   3.793  1.4210 -0.1186  1.3222
 8230TIP3    H224636   1.945   5.238   3.894 -0.8338 -0.1771  0.3738
 8231TIP3   OH224637   1.832   7.636   5.041  0.3783 -0.0679  0.6135
 8231TIP3    H124638   1.859   7.546   5.022 -0.0385  0.2172 -1.6694
 8231TIP3    H224639   1.913   7.681   5.064  0.8010 -0.7319  0.4542
 8232TIP3   OH224640   2.817   0.421   1.011  0.4687  0.1736 -0.0449
 8232TIP3    H124641   2.902   0.375   1.007  0.1070 -0.5340  0.2400
 8232TIP3    H224642   2.834   0.497   1.067  0.7286 -0.3832  0.6429
 8233TIP3   OH224643   8.202   5.753   5.895 -0.1221 -0.1365  0.4947
 8233TIP3    H124644   8.120   5.729   5.939  0.5295 -1.2557  1.1643
 8233TIP3    H224645   8.180   5.829   5.842 -1.7636 -0.8412  0.1128
 8234TIP3   OH224646   4.250   5.182   1.953  0.4404 -0.2160 -0.4765
 8234TIP3    H124647   4.234   5.106   1.898  0.9997 -0.8651  0.2352
 8234TIP3    H224648   4.338   5.211   1.930  0.8347 -0.7352  0.3476
 8235TIP3   OH224649   0.070   1.714   4.804 -0.0326  0.6208  0.9714
 8235TIP3    H124650   0.053   1.662   4.726  0.4548  0.0078  1.2708
 8235TIP3    H224651   0.116   1.792   4.772 -0.3101  0.6337  0.5910
 8236TIP3   OH224652   2.679   2.301   0.669 -0.1471  0.2627 -0.0547
 8236TIP3    H124653   2.729   2.220   0.666 -1.8076 -0.8304  0.4092
 8236TIP3    H224654   2.642   2.304   0.757 -1.0737  0.9155 -0.4429
 8237TIP3   OH224655   3.457   4.872   5.313 -0.3920 -0.3040  0.1776
 8237TIP3    H124656   3.442   4.942   5.249  0.3233  1.0656  1.4530
 8237TIP3    H224657   3.420   4.905   5.395 -0.3917 -1.5962  0.7357
 8238TIP3   OH224658   1.881   6.569   5.476 -0.6000  0.1004  0.2083
 8238TIP3    H124659   1.913   6.644   5.526  0.8563  0.4434 -1.1511
 8238TIP3    H224660   1.826   6.608   5.407 -0.3845 -0.1200 -0.0915
 8239TIP3   OH224661   7.155   7.704   1.100 -0.0659 -0.3019  0.1415
 8239TIP3    H124662   7.088   7.721   1.034  1.5573  1.3491 -1.2093
 8239TIP3    H224663   7.130   7.759   1.175  0.1932  0.9788 -0.6798
 8240TIP3   OH224664   5.948   6.692   5.333  0.0901  0.0501  0.3864
 8240TIP3    H124665   5.979   6.684   5.243 -1.6105  0.4698 -0.2688
 8240TIP3    H224666   5.867   6.743   5.327  0.5320  1.0911  2.2842
 8241TIP3   OH224667   7.818   0.048   3.005  0.3148 -0.3175  0.6388
 8241TIP3    H124668   7.810   0.065   3.099  0.7890 -0.7263  0.7558
 8241TIP3    H224669   7.752  -0.020   2.988 -0.8615  0.8575  0.3679
 8242TIP3   OH224670   4.281   2.197   5.909 -0.1161  0.0072 -0.6849
 8242TIP3    H124671   4.339   2.121   5.898 -1.1948 -0.6354 -2.1973
 8242TIP3    H224672   4.197   2.160   5.936 -0.1083  0.8614  0.6210
 8243TIP3   OH224673   0.339   1.149   4.238  0.2931  0.2464  0.1382
 8243TIP3    H124674   0.423   1.119   4.205  1.0642  2.3691 -0.0020
 8243TIP3    H224675   0.302   1.073   4.283  1.9447 -0.9369 -0.4109
 8244TIP3   OH224676   2.665   4.812   1.323 -0.0384 -0.2164 -0.3268
 8244TIP3    H124677   2.717   4.867   1.264 -0.3088  0.0659 -0.3043
 8244TIP3    H224678   2.650   4.731   1.273 -1.9038  0.7495 -1.4394
 8245TIP3   OH224679   6.220   6.377   0.475 -0.2332 -0.1879 -0.0617
 8245TIP3    H124680   6.218   6.450   0.412 -2.2945  0.3068  0.5004
 8245TIP3    H224681   6.234   6.420   0.560 -1.5265 -0.4150  0.2794
 8246TIP3   OH224682   5.123   2.786   1.932 -0.1328  0.1329 -0.2636
 8246TIP3    H124683   5.153   2.715   1.876  0.2222 -0.6024  0.8439
 8246TIP3    H224684   5.043   2.754   1.972 -0.0557  0.4243  0.1291
 8247TIP3   OH224685   4.234   5.081   2.331 -0.3148  0.1975  0.9342
 8247TIP3    H124686   4.219   5.018   2.402 -1.0651  0.5017  1.0485
 8247TIP3    H224687   4.181   5.157   2.354  0.0701  0.6204  0.4558
 8248TIP3   OH224688   7.363   6.153   0.823  0.0234 -0.0916  0.6691
 8248TIP3    H124689   7.397   6.114   0.742  0.7512 -0.6089  1.2048
 8248TIP3    H224690   7.284   6.200   0.797  0.3029 -0.1795 -0.3547
 8249TIP3   OH224691   0.470   1.470   4.631  0.4951  0.1972 -0.2505
 8249TIP3    H124692   0.479   1.400   4.695 -0.1498 -0.8782 -1.2961
 8249TIP3    H224693   0.476   1.426   4.547 -2.1773  0.9974 -0.9695
 8250TIP3   OH224694   7.110   1.843   5.241  0.2462 -0.3008  0.2500
 8250TIP3    H124695   7.056   1.898   5.297  0.5034 -0.8389  1.0437
 8250TIP3    H224696   7.198   1.881   5.247 -0.1954  1.2464 -1.9085
 8251TIP3   OH224697   4.017   0.715   1.269  0.4188  0.8304  0.1818
 8251TIP3    H124698   3.975   0.801   1.262  1.1218  1.2610  1.0599
 8251TIP3    H224699   3.990   0.683   1.355  1.2655  0.7787  0.4324
 8252TIP3   OH224700   6.448   4.729   0.169  0.6027  0.0170  0.5060
 8252TIP3    H124701   6.543   4.725   0.184  0.2884  0.2160  2.8060
 8252TIP3    H224702   6.410   4.686   0.245 -1.2067  0.5467 -0.0570
 8253TIP3   OH224703   3.176   5.559   0.592 -0.3887  0.3286 -0.1400
 8253TIP3    H124704   3.125   5.595   0.665 -0.0548 -0.8251  0.7074
 8253TIP3    H224705   3.172   5.464   0.605  1.3237  0.1741 -0.4812
 8254TIP3   OH224706   7.624   4.542   0.980  0.3170  0.2484  0.4286
 8254TIP3    H124707   7.587   4.562   1.066 -0.2827 -0.0611  0.2452
 8254TIP3    H224708   7.556   4.565   0.918  0.6329  0.1822  0.0515
 8255TIP3   OH224709   1.158   6.134   1.421  0.0164  0.1365  0.2232
 8255TIP3    H124710   1.211   6.057   1.402 -0.8515 -1.4359  3.3834
 8255TIP3    H224711   1.068   6.106   1.402 -0.1653  0.9569 -0.1497
 8256TIP3   OH224712   0.991   6.629   1.647 -0.1525  0.1895  0.2827
 8256TIP3    H124713   0.909   6.669   1.617 -0.2886 -0.3480 -0.0541
 8256TIP3    H224714   0.986   6.539   1.617  1.5139  0.6631 -1.6429
 8257TIP3   OH224715   7.759   0.989   3.433 -0.3287  0.5117  0.1359
 8257TIP3    H124716   7.742   1.073   3.389  1.7727  1.8798  1.7243
 8257TIP3    H224717   7.709   0.994   3.515 -1.9781 -0.8122 -0.7333
 8258TIP3   OH224718   7.090   0.100   4.890  0.0711 -0.1180  0.0440
 8258TIP3    H124719   7.132   0.086   4.975 -1.1457 -1.8346  0.4191
 8258TIP3    H224720   7.138   0.044   4.830  0.1857  0.2008 -0.1659
 8259TIP3   OH224721   1.396   3.567   2.318  0.5487 -0.3016  0.0396
 8259TIP3    H124722   1.412   3.536   2.407  0.2555 -0.6443 -0.0278
 8259TIP3    H224723   1.474   3.618   2.296  1.6526 -2.0746 -0.3428
 8260TIP3   OH224724   3.804   0.390   6.375  0.1579  0.5776 -0.0675
 8260TIP3    H124725   3.852   0.460   6.332  0.0860  0.2085 -0.7667
 8260TIP3    H224726   3.749   0.434   6.439  0.4393  1.1171 -0.1872
 8261TIP3   OH224727   0.080   2.136   3.255 -0.1153  0.0374  0.3649
 8261TIP3    H124728   0.172   2.146   3.276 -0.0752 -1.3411  0.9073
 8261TIP3    H224729   0.077   2.132   3.159  0.2111  1.4344  0.2657
 8262TIP3   OH224730   5.244   3.134   5.298  0.4981 -0.3060 -0.2959
 8262TIP3    H124731   5.244   3.204   5.364 -0.4287  0.6275 -1.2314
 8262TIP3    H224732   5.249   3.053   5.348  0.8604  0.4113  0.8617
 8263TIP3   OH224733   6.863   7.654   0.120 -0.3018 -0.2240  0.2825
 8263TIP3    H124734   6.842   7.561   0.131  0.0431 -0.6148 -1.9259
 8263TIP3    H224735   6.885   7.684   0.208 -0.9251 -2.0940  1.1325
 8264TIP3   OH224736   4.484   2.951   5.024  0.5622  0.1054  0.0232
 8264TIP3    H124737   4.576   2.944   5.051  0.4404  0.6817  0.5969
 8264TIP3    H224738   4.484   3.017   4.955  0.7739 -0.8951 -0.9718
 8265TIP3   OH224739   0.098   7.567   1.223 -0.0799 -0.0152 -0.1266
 8265TIP3    H124740   0.085   7.550   1.316  0.6885 -0.5119 -0.0990
 8265TIP3    H224741   0.039   7.640   1.203 -3.0361 -2.2143 -0.1235
 8266TIP3   OH224742   1.621   3.305   3.640  0.4388  0.6812 -0.5010
 8266TIP3    H124743   1.696   3.360   3.620 -0.5540  2.2844  0.0004
 8266TIP3    H224744   1.598   3.327   3.730 -0.5589  0.1398 -0.6049
 8267TIP3   OH224745   4.026   5.510   5.690  0.8579 -0.2414  0.6824
 8267TIP3    H124746   4.025   5.453   5.613 -2.2957 -1.4512  1.4987
 8267TIP3    H224747   4.038   5.451   5.764  1.1352  0.6087  1.3388
 8268TIP3   OH224748   5.180   1.108   4.904  0.1690  0.0197  0.0912
 8268TIP3    H124749   5.191   1.033   4.845 -0.8937 -0.7806  0.8638
 8268TIP3    H224750   5.179   1.184   4.847  0.0602 -0.6649 -0.8389
 8269TIP3   OH224751   5.869   1.973   2.925  1.3767 -0.3205  0.2666
 8269TIP3    H124752   5.953   1.972   2.970  0.4792  0.8670  2.0710
 8269TIP3    H224753   5.857   1.883   2.893  3.1389 -0.5865  0.2810
 8270TIP3   OH224754   5.009   1.623   3.825 -0.9180  0.0300 -0.5068
 8270TIP3    H124755   5.020   1.712   3.793 -0.9053  0.4404  0.5837
 8270TIP3    H224756   4.978   1.574   3.749  0.6212  0.5935 -1.5541
 8271TIP3   OH224757   6.743   6.300   5.661  0.0341  0.4013  0.5280
 8271TIP3    H124758   6.723   6.376   5.605 -0.4381  0.9947  1.4790
 8271TIP3    H224759   6.701   6.226   5.617 -0.7294  0.9383  0.3426
 8272TIP3   OH224760   1.489   1.166   3.953 -0.8013 -0.3807 -0.3103
 8272TIP3    H124761   1.428   1.221   3.903 -0.3851  0.1989 -0.1905
 8272TIP3    H224762   1.539   1.228   4.006 -1.0175 -0.9642  0.5894
 8273TIP3   OH224763   5.989   3.325   1.663 -0.1823 -1.0370  1.0535
 8273TIP3    H124764   5.905   3.341   1.708  0.2317 -0.7329  1.7290
 8273TIP3    H224765   6.053   3.376   1.712  0.2064 -0.2573 -0.2228
 8274TIP3   OH224766   5.061   5.813   1.409 -0.0427  0.3346 -0.7549
 8274TIP3    H124767   5.075   5.862   1.491  0.0314 -0.4958 -0.2618
 8274TIP3    H224768   4.973   5.838   1.381 -1.4012 -1.7910  1.3029
 8275TIP3   OH224769   6.568   3.803   4.787 -0.0704 -0.0704 -0.3783
 8275TIP3    H124770   6.649   3.817   4.737 -0.4380  1.5357 -0.5682
 8275TIP3    H224771   6.498   3.819   4.724 -0.5371  0.7418  0.3377
 8276TIP3   OH224772   5.077   2.704   4.193 -0.3188  0.1143 -0.1303
 8276TIP3    H124773   5.053   2.783   4.241 -1.3343  0.0543 -0.5289
 8276TIP3    H224774   5.097   2.735   4.104 -0.8851 -0.0855 -0.3345
 8277TIP3   OH224775   5.834   7.092   1.712  0.4831  0.1841  0.6612
 8277TIP3    H124776   5.838   7.096   1.808  0.7234 -0.5742  0.6951
 8277TIP3    H224777   5.776   7.164   1.687  0.3875  0.3670  1.3787
 8278TIP3   OH224778   5.180   4.519   2.735 -0.3553  1.1517 -0.5778
 8278TIP3    H124779   5.096   4.474   2.730 -0.2775  1.0584 -1.1799
 8278TIP3    H224780   5.201   4.541   2.644 -0.1349  1.9252 -0.3463
 8279TIP3   OH224781   6.596   7.588   6.012 -0.3854  0.2280 -0.0889
 8279TIP3    H124782   6.678   7.539   6.015 -1.5736 -1.8299  0.9161
 8279TIP3    H224783   6.597   7.631   5.926  1.6073  0.0694 -0.1862
 8280TIP3   OH224784   0.882   4.361   6.387  0.2569 -0.3857  0.0921
 8280TIP3    H124785   0.871   4.426   6.456  0.2206  0.3453 -0.5886
 8280TIP3    H224786   0.796   4.321   6.378 -0.0450  0.3437 -0.3353
 8281TIP3   OH224787   3.949   6.737   6.009  0.5055  0.3496  0.1675
 8281TIP3    H124788   3.929   6.702   5.922 -0.2908 -2.2157  1.2840
 8281TIP3    H224789   4.043   6.728   6.017  0.2963 -2.4394  0.6457
 8282TIP3   OH224790   5.011   5.893   0.580 -0.2911 -0.0594  0.5136
 8282TIP3    H124791   5.059   5.973   0.603 -1.3381  1.2073 -1.3745
 8282TIP3    H224792   4.948   5.882   0.651 -2.0631  2.5235 -0.5219
 8283TIP3   OH224793   1.419   0.040   4.482 -0.1247  0.7662  0.0075
 8283TIP3    H124794   1.457   0.063   4.397 -0.4372  0.8989 -0.0952
 8283TIP3    H224795   1.327   0.065   4.475 -0.0530  1.2149  0.5454
 8284TIP3   OH224796   7.844   1.712   3.205  0.1315 -0.3871  0.6850
 8284TIP3    H124797   7.851   1.645   3.273  1.2695 -1.5072 -0.4655
 8284TIP3    H224798   7.856   1.663   3.123  1.5442  1.2890 -0.1707
 8285TIP3   OH224799   2.869   4.615   5.650 -0.9579  0.5284  0.0210
 8285TIP3    H124800   2.869   4.697   5.599 -0.6794  0.8007  0.4474
 8285TIP3    H224801   2.961   4.588   5.649 -0.5756  1.5480  1.9527
 8286TIP3   OH224802   7.546   1.631   5.549 -0.4942  0.0096 -0.1721
 8286TIP3    H124803   7.563   1.706   5.605 -1.3752 -1.0152  1.5394
 8286TIP3    H224804   7.629   1.615   5.504  0.2194  0.8726  0.8121
 8287TIP3   OH224805   2.710   3.514   6.531 -0.2635  0.4728  0.3586
 8287TIP3    H124806   2.772   3.453   6.573 -1.0453  0.1343  1.0598
 8287TIP3    H224807   2.748   3.600   6.546  1.3243  0.1502 -1.4229
 8288TIP3   OH224808   5.790   7.314   4.514 -0.8167  0.2363 -0.3760
 8288TIP3    H124809   5.815   7.250   4.448 -1.3362  0.8080 -1.1410
 8288TIP3    H224810   5.736   7.264   4.576  1.1712 -0.7214  0.6561
 8289TIP3   OH224811   0.596   1.916   3.559  0.3931 -0.8625  0.0099
 8289TIP3    H124812   0.598   2.004   3.522  0.8104 -0.7026  0.4051
 8289TIP3    H224813   0.534   1.922   3.631 -0.5654 -1.2211 -0.7618
 8290TIP3   OH224814   1.116   1.734   6.678  0.2872  0.2316 -0.8718
 8290TIP3    H124815   1.050   1.724   6.610  0.1414  0.4768 -0.7670
 8290TIP3    H224816   1.120   1.828   6.695 -0.6698  0.0706  0.4314
 8291TIP3   OH224817   6.331   2.501   6.643  0.2345  0.1335  0.8209
 8291TIP3    H124818   6.309   2.595   6.641 -0.3816 -0.0121 -0.4874
 8291TIP3    H224819   6.426   2.499   6.658  0.5677  1.0637 -0.8281
 8292TIP3   OH224820   1.705   1.024   3.897 -0.0347  0.0336  0.5694
 8292TIP3    H124821   1.624   1.071   3.912 -0.1979 -0.7012  2.2049
 8292TIP3    H224822   1.763   1.051   3.969  2.1414  2.4399 -1.8568
 8293TIP3   OH224823   3.550   3.226   1.186  0.1814  0.5749  0.1458
 8293TIP3    H124824   3.484   3.292   1.165  0.7396  0.9564 -0.3987
 8293TIP3    H224825   3.563   3.235   1.281 -0.8873  0.1740  0.3470
 8294TIP3   OH224826   6.091   3.067   0.280 -0.2113  0.0659  0.3484
 8294TIP3    H124827   6.119   3.130   0.213 -1.3789 -1.1410 -1.3647
 8294TIP3    H224828   6.145   2.990   0.264 -1.6473 -0.8236 -0.3172
 8295TIP3   OH224829   4.145   1.296   0.585 -0.0627  0.2335 -0.2551
 8295TIP3    H124830   4.095   1.216   0.569 -0.3230  0.3534 -0.0541
 8295TIP3    H224831   4.188   1.315   0.502 -0.4221  0.1765 -0.4566
 8296TIP3   OH224832   5.265   2.526   2.930  0.2447 -0.0376 -0.1408
 8296TIP3    H124833   5.306   2.440   2.928  0.7556  0.1356  1.6202
 8296TIP3    H224834   5.171   2.508   2.927  0.2826 -0.7764  1.7489
 8297TIP3   OH224835   6.705   2.760   1.090  0.3646  0.2415 -0.7533
 8297TIP3    H124836   6.771   2.821   1.123  0.0540  0.4277 -0.4641
 8297TIP3    H224837   6.754   2.694   1.042  1.0232 -0.9284  1.3886
 8298TIP3   OH224838   0.397   1.910   3.343 -0.3423 -0.0555 -0.0751
 8298TIP3    H124839   0.397   1.920   3.439  2.5522  0.5017 -0.0134
 8298TIP3    H224840   0.433   1.823   3.329  1.1039  0.5923 -0.5990
 8299TIP3   OH224841   1.174   4.173   2.211 -0.0412 -0.0709 -0.3579
 8299TIP3    H124842   1.095   4.118   2.206  0.6416 -0.9847 -3.6600
 8299TIP3    H224843   1.153   4.248   2.156  0.3993  1.1565  1.1076
 8300TIP3   OH224844   3.608   6.324   4.469 -0.2408 -0.9365  0.4123
 8300TIP3    H124845   3.622   6.265   4.395 -1.0008  0.9061 -1.3114
 8300TIP3    H224846   3.553   6.275   4.530  0.0759 -2.3780 -0.4174
 8301TIP3   OH224847   7.871   2.117   0.894  0.1253 -0.0229 -0.1675
 8301TIP3    H124848   7.904   2.156   0.975 -0.8266 -1.7767  1.1421
 8301TIP3    H224849   7.949   2.097   0.843  0.9439 -1.2366  1.4823
 8302TIP3   OH224850   4.842   1.198   3.193 -0.6025 -0.2777  0.1685
 8302TIP3    H124851   4.880   1.228   3.276 -0.6515  0.3931 -0.0440
 8302TIP3    H224852   4.884   1.252   3.126 -2.5643  1.1509 -0.0002
 8303TIP3   OH224853   2.020   3.148   1.108 -0.1940  0.2672  0.7326
 8303TIP3    H124854   1.951   3.142   1.041 -0.0576 -0.3518  0.6423
 8303TIP3    H224855   2.079   3.216   1.076  0.2311 -0.4854 -0.1207
 8304TIP3   OH224856   7.297   3.326   3.581  0.5788  0.5184  0.0206
 8304TIP3    H124857   7.361   3.391   3.609 -0.1247  1.4305 -0.4103
 8304TIP3    H224858   7.212   3.369   3.593  0.1822  0.4817 -2.1707
 8305TIP3   OH224859   5.905   2.563   5.926 -0.0687  0.2764  0.0698
 8305TIP3    H124860   5.955   2.491   5.964  0.0964  0.7247  0.7289
 8305TIP3    H224861   5.956   2.590   5.850  0.5308  0.4961  0.5317
 8306TIP3   OH224862   0.081   6.070   3.474 -0.0665  0.8761 -0.3519
 8306TIP3    H124863   0.089   5.988   3.424 -0.6184  0.6736 -0.1049
 8306TIP3    H224864  -0.011   6.093   3.468  0.0136  1.2678 -0.0735
 8307TIP3   OH224865   5.394   5.652   4.003 -0.3703  0.3435 -0.2245
 8307TIP3    H124866   5.308   5.616   4.024  0.7697 -2.1651  0.5197
 8307TIP3    H224867   5.410   5.624   3.912 -0.3977  0.9815 -0.4324
 8308TIP3   OH224868   6.368   0.739   2.126 -0.4665 -0.0534 -0.0602
 8308TIP3    H124869   6.387   0.805   2.194  0.1808  1.7908 -1.9276
 8308TIP3    H224870   6.447   0.686   2.121 -0.6473 -0.4299  0.8287
 8309TIP3   OH224871   0.921   0.342   3.037 -0.4396  0.3282 -0.2137
 8309TIP3    H124872   0.981   0.358   3.111 -0.1557 -0.8944 -0.1568
 8309TIP3    H224873   0.838   0.318   3.078 -0.3570 -0.0908 -0.2900
 8310TIP3   OH224874   7.399   2.973   1.198  0.2030  0.4130 -0.1871
 8310TIP3    H124875   7.341   2.912   1.244  0.3174  0.5057  0.0823
 8310TIP3    H224876   7.374   3.059   1.231  1.5863  0.3346  1.1767
 8311TIP3   OH224877   2.326   7.770   5.035  0.4071 -0.0326 -0.5412
 8311TIP3    H124878   2.393   7.835   5.016  0.6710  0.5905  2.1351
 8311TIP3    H224879   2.375   7.690   5.055  0.1495 -0.6092 -2.0653
 8312TIP3   OH224880   3.417   7.329   0.058 -0.1144  0.5808 -0.3856
 8312TIP3    H124881   3.381   7.404   0.011  2.4306  3.0851  1.2626
 8312TIP3    H224882   3.475   7.287  -0.005 -0.1987  1.1149 -0.8273
 8313TIP3   OH224883   1.040   6.139   0.548  0.1590 -0.1427 -0.2874
 8313TIP3    H124884   0.997   6.153   0.463  0.3561  0.8650 -0.2304
 8313TIP3    H224885   1.120   6.191   0.543  1.1115 -1.5277 -0.1640
 8314TIP3   OH224886   1.708   3.866   6.771  0.7128  0.5636 -0.4704
 8314TIP3    H124887   1.747   3.927   6.833 -0.8249  2.4339 -1.2420
 8314TIP3    H224888   1.659   3.922   6.710  0.2416 -1.3691 -1.9581
 8315TIP3   OH224889   1.334   1.935   1.549 -0.0271  0.0850  0.1054
 8315TIP3    H124890   1.353   1.876   1.622 -0.4699 -0.8775 -0.5318
 8315TIP3    H224891   1.239   1.930   1.537 -0.0838  1.0101  0.1018
 8316TIP3   OH224892   8.084   6.309   5.703  0.3606 -0.5837 -0.3028
 8316TIP3    H124893   8.004   6.324   5.753  1.6513  3.1101  0.9647
 8316TIP3    H224894   8.053   6.292   5.614 -1.8840  0.5510  0.1839
 8317TIP3   OH224895   2.585   2.328   1.721 -0.2054 -0.5695  0.0905
 8317TIP3    H124896   2.523   2.386   1.765 -0.1480  0.1024 -0.6890
 8317TIP3    H224897   2.540   2.303   1.640  0.0725 -1.0387  0.0761
 8318TIP3   OH224898   5.739   7.245   0.567 -0.1154 -0.0719 -0.0847
 8318TIP3    H124899   5.732   7.150   0.556 -0.6170  0.1831 -2.8125
 8318TIP3    H224900   5.663   7.269   0.621 -0.0101 -1.1910  0.5909
 8319TIP3   OH224901   6.641   2.718   2.699 -0.1927 -0.2848 -0.5388
 8319TIP3    H124902   6.568   2.741   2.641  0.1206 -0.8913 -1.1994
 8319TIP3    H224903   6.701   2.669   2.642  0.5298 -0.1479  0.0996
 8320TIP3   OH224904   0.612   7.669   2.327 -0.1391 -0.0249 -0.0673
 8320TIP3    H124905   0.591   7.639   2.238 -0.0481  0.9701 -0.4434
 8320TIP3    H224906   0.664   7.748   2.313  0.9399 -0.5467  0.8733
 8321TIP3   OH224907   5.166   6.112   0.230  0.5659 -0.2910 -0.2449
 8321TIP3    H124908   5.256   6.091   0.203  0.2169 -1.8712 -0.2615
 8321TIP3    H224909   5.117   6.031   0.216 -0.3187 -0.2527  2.1986
 8322TIP3   OH224910   8.051   3.115   6.403  0.2283  0.0984 -0.1704
 8322TIP3    H124911   7.997   3.042   6.372 -0.2916  0.8206 -1.0310
 8322TIP3    H224912   7.989   3.188   6.412  0.7921  0.5203  0.3465
 8323TIP3   OH224913   6.584   6.786   0.111 -0.4966  0.1083  0.2696
 8323TIP3    H124914   6.497   6.774   0.072 -0.7570 -0.9685  1.1434
 8323TIP3    H224915   6.570   6.850   0.181 -0.8455 -0.9546  1.1928
 8324TIP3   OH224916   7.471   4.181   3.217 -0.2580  0.0515 -0.5147
 8324TIP3    H124917   7.445   4.264   3.256 -2.2686 -0.3964 -0.7839
 8324TIP3    H224918   7.400   4.159   3.157  0.3841 -1.6899 -0.7181
 8325TIP3   OH224919   1.408   3.412   5.083  0.2932 -0.2008 -0.1469
 8325TIP3    H124920   1.330   3.431   5.135  0.1708  0.6651 -0.6302
 8325TIP3    H224921   1.400   3.468   5.007  1.3069 -0.2350 -0.2885
 8326TIP3   OH224922   8.089   4.442   2.649  0.0956  0.1851 -0.2382
 8326TIP3    H124923   8.039   4.515   2.687 -2.1749 -0.2448 -2.1905
 8326TIP3    H224924   8.087   4.457   2.555 -0.8771 -2.5983 -0.7624
 8327TIP3   OH224925   2.101   7.476   3.370 -0.0272  0.0054  0.1524
 8327TIP3    H124926   2.166   7.524   3.318 -0.8796  0.8632 -0.1423
 8327TIP3    H224927   2.133   7.386   3.370  0.0812 -0.0050 -1.7565
 8328TIP3   OH224928   2.141   4.549   2.166  0.4282 -0.2891 -0.5865
 8328TIP3    H124929   2.210   4.497   2.208 -0.7421 -1.9342 -0.6140
 8328TIP3    H224930   2.062   4.529   2.215 -0.2127  0.8829 -1.1053
 8329TIP3   OH224931   3.910   4.520   6.099  0.5397  0.4974 -0.0020
 8329TIP3    H124932   3.858   4.441   6.088 -1.8094  1.6716  1.8333
 8329TIP3    H224933   3.978   4.495   6.163  0.9009 -0.4491 -0.7285
 8330TIP3   OH224934   2.572   0.907   5.375 -0.3288  0.1974  0.3511
 8330TIP3    H124935   2.507   0.972   5.350 -0.0732  0.4628  0.3669
 8330TIP3    H224936   2.638   0.910   5.306 -1.0340 -1.0962 -0.4318
 8331TIP3   OH224937   5.489   1.157   4.896 -0.1427  0.4359  0.2138
 8331TIP3    H124938   5.421   1.195   4.841 -0.6170  0.9790  1.1551
 8331TIP3    H224939   5.447   1.084   4.941  0.0689  0.3666  0.3004
 8332TIP3   OH224940   8.045   1.009   2.295  0.1517  0.6452 -0.2091
 8332TIP3    H124941   7.975   1.074   2.298  1.2102  1.7615  1.1853
 8332TIP3    H224942   8.117   1.047   2.345  0.3959 -2.0778  1.7924
 8333TIP3   OH224943   4.481   5.187   2.542  0.3831 -0.1149 -0.0773
 8333TIP3    H124944   4.565   5.226   2.518  0.3212 -0.7997 -1.5345
 8333TIP3    H224945   4.416   5.249   2.509  0.3085 -0.3445 -0.3638
 8334TIP3   OH224946   8.231   6.939   6.347 -0.3137  0.1454 -0.2997
 8334TIP3    H124947   8.153   6.921   6.294  1.4098 -0.6017 -2.7797
 8334TIP3    H224948   8.253   6.854   6.387 -0.5905  0.2895  0.1671
 8335TIP3   OH224949   5.081   1.975   4.692 -0.6204 -0.5340  0.1881
 8335TIP3    H124950   5.074   1.952   4.599 -1.2388 -1.0443  0.3473
 8335TIP3    H224951   5.165   1.939   4.719  0.5215  1.3731 -0.6301
 8336TIP3   OH224952   1.070   1.822   6.360  0.0667  0.1926 -0.0171
 8336TIP3    H124953   1.104   1.912   6.359 -0.4096  0.3961  0.8512
 8336TIP3    H224954   1.145   1.768   6.338  0.0326  0.8882 -2.0453
 8337TIP3   OH224955   4.096   4.594   2.071 -0.9097 -0.3876 -0.0690
 8337TIP3    H124956   4.082   4.592   1.977 -1.1284 -0.2224 -0.0406
 8337TIP3    H224957   4.128   4.683   2.089 -1.3282 -0.2622  0.0739
 8338TIP3   OH224958   5.065   5.771   2.445 -0.6615 -0.0791 -0.0358
 8338TIP3    H124959   5.061   5.864   2.423  1.5420 -0.1232 -0.8840
 8338TIP3    H224960   5.104   5.769   2.532  2.4582 -0.2143 -1.3191
 8339TIP3   OH224961   4.210   0.574   0.164 -0.2285  0.2321 -0.5842
 8339TIP3    H124962   4.138   0.512   0.153 -0.1395  0.3313 -1.8772
 8339TIP3    H224963   4.282   0.521   0.199 -0.5829 -0.1046 -0.3647
 8340TIP3   OH224964   5.943   1.170   0.530  0.2715 -0.1267 -0.1631
 8340TIP3    H124965   5.978   1.083   0.510  0.1301  0.0606 -1.3021
 8340TIP3    H224966   5.921   1.167   0.623 -0.6014 -1.6047 -0.3929
 8341TIP3   OH224967   6.964   3.162   1.975 -0.6242 -0.0767 -0.1011
 8341TIP3    H124968   6.907   3.101   2.022 -1.3742  1.4403  1.0497
 8341TIP3    H224969   6.910   3.194   1.903 -1.1524  1.1158  0.7983
 8342TIP3   OH224970   4.566   7.604   5.266 -0.8890  0.0147 -0.3618
 8342TIP3    H124971   4.561   7.570   5.176  0.8485 -1.4186  0.0169
 8342TIP3    H224972   4.500   7.556   5.314 -0.5765 -0.5763 -0.5077
 8343TIP3   OH224973   8.106   2.224   4.844  0.4612  0.0524 -0.2104
 8343TIP3    H124974   8.061   2.141   4.828  0.1903  0.3528 -1.0539
 8343TIP3    H224975   8.164   2.205   4.918 -0.5097 -0.5381  0.4230
 8344TIP3   OH224976   4.194   3.679   3.352 -0.2598  0.0962  0.1535
 8344TIP3    H124977   4.133   3.606   3.362 -1.4127  0.7376 -1.5591
 8344TIP3    H224978   4.188   3.702   3.259 -0.3478  2.6738  0.7098
 8345TIP3   OH224979   6.675   2.624   6.395  0.2339 -0.3823  0.7464
 8345TIP3    H124980   6.703   2.547   6.346 -1.2432 -0.3187 -0.2677
 8345TIP3    H224981   6.748   2.686   6.386  0.8858 -1.1705  0.4720
 8346TIP3   OH224982   3.219   5.486   2.035  0.6492  0.3743  0.1023
 8346TIP3    H124983   3.240   5.431   1.959 -1.8152  0.3236 -0.6156
 8346TIP3    H224984   3.278   5.455   2.103  0.4070 -2.1605 -0.7128
 8347TIP3   OH224985   5.566   5.074   3.889  0.7689  0.1103  0.4653
 8347TIP3    H124986   5.643   5.127   3.868  0.1899  0.3843 -1.0826
 8347TIP3    H224987   5.492   5.135   3.883  0.1270 -0.7494 -1.0683
 8348TIP3   OH224988   5.132   5.231   5.937  0.1302 -0.5451  0.0094
 8348TIP3    H124989   5.162   5.237   5.847  0.8960 -0.1820  0.2794
 8348TIP3    H224990   5.037   5.246   5.932  0.2970  0.3486 -0.6397
 8349TIP3   OH224991   6.083   4.584   0.592  0.3454  0.1092 -0.5076
 8349TIP3    H124992   6.130   4.666   0.582  0.4996  0.2400  1.1131
 8349TIP3    H224993   6.143   4.527   0.641 -0.5914 -0.2295  0.2700
 8350TIP3   OH224994   4.566   4.501   2.059 -0.1992 -0.4275  0.5297
 8350TIP3    H124995   4.542   4.579   2.111 -0.7941 -0.5159  0.3960
 8350TIP3    H224996   4.660   4.509   2.046 -0.2586  0.2840  0.5024
 8351TIP3   OH224997   1.211   2.471   4.014  0.1772  0.2777 -0.4423
 8351TIP3    H124998   1.146   2.530   4.052  1.3527  2.6434 -1.7908
 8351TIP3    H224999   1.202   2.484   3.919  0.4585 -1.8145 -0.7931
 8352TIP3   OH225000   2.620   5.884   6.353  0.1887  0.1247 -0.5792
 8352TIP3    H125001   2.629   5.795   6.388  0.7011  1.4635  2.9913
 8352TIP3    H225002   2.526   5.900   6.355  0.1504 -0.0797 -0.6311
 8353TIP3   OH225003   1.865   0.035   1.389  0.2345 -0.4504 -0.3320
 8353TIP3    H125004   1.802   0.105   1.373  0.3942 -0.0491  0.7015
 8353TIP3    H225005   1.812  -0.039   1.417  0.1478 -0.4200 -0.4144
 8354TIP3   OH225006   6.094   7.413   3.895 -0.1300  0.4892 -0.2778
 8354TIP3    H125007   6.080   7.325   3.861  1.7803  0.1088 -0.1886
 8354TIP3    H225008   6.072   7.408   3.988  0.4909 -0.0494 -0.1535
 8355TIP3   OH225009   7.680   6.364   0.547 -0.1986 -0.0889  0.3027
 8355TIP3    H125010   7.746   6.385   0.481  2.2624 -0.6736  2.3922
 8355TIP3    H225011   7.644   6.280   0.520  3.0375 -1.9187  1.1380
 8356TIP3   OH225012   6.368   0.915   1.639 -0.5042 -0.4288 -0.0726
 8356TIP3    H125013   6.404   0.827   1.650 -1.2968 -0.9668 -1.4037
 8356TIP3    H225014   6.319   0.910   1.556  0.6231  1.6664 -0.9354
 8357TIP3   OH225015   1.918   1.528   0.442 -0.1619  0.2147 -0.0479
 8357TIP3    H125016   1.881   1.559   0.359  0.2694  0.2360 -0.2316
 8357TIP3    H225017   1.857   1.461   0.471 -0.6270  0.6087 -0.0917
 8358TIP3   OH225018   5.454   1.534   6.245  0.1550 -0.2300  0.4211
 8358TIP3    H125019   5.426   1.508   6.157 -0.7459 -0.4036  0.7524
 8358TIP3    H225020   5.492   1.621   6.233  1.0834 -0.7021 -0.3193
 8359TIP3   OH225021   2.476   6.132   5.799 -0.1327  0.0986 -0.3915
 8359TIP3    H125022   2.518   6.089   5.873  0.0697 -0.1887 -0.6692
 8359TIP3    H225023   2.477   6.066   5.729 -2.4686 -0.4870  0.0626
 8360TIP3   OH225024   1.701   5.227   1.767  0.0828  0.0228  0.3962
 8360TIP3    H125025   1.655   5.144   1.756  0.0006  0.2480 -1.1896
 8360TIP3    H225026   1.656   5.288   1.708  1.7043  0.5186 -0.3974
 8361TIP3   OH225027   6.688   4.918   3.399 -0.3027 -0.0262  0.0979
 8361TIP3    H125028   6.699   4.949   3.489 -3.7103  1.8420  0.0402
 8361TIP3    H225029   6.612   4.861   3.403  0.0765 -0.6796 -1.4813
 8362TIP3   OH225030   8.106   1.961   0.128  0.8150 -0.5242 -0.0762
 8362TIP3    H125031   8.014   1.940   0.118  0.4052  0.9509  0.2817
 8362TIP3    H225032   8.114   2.052   0.098  1.4707  0.5265  2.8391
 8363TIP3   OH225033   2.767   7.492   1.287  0.0026  0.0048 -0.0643
 8363TIP3    H125034   2.738   7.403   1.303  0.4075  0.1181  1.3951
 8363TIP3    H225035   2.686   7.542   1.278 -0.2431 -0.2490  0.6764
 8364TIP3   OH225036   4.306   1.965   2.262  0.0340 -0.2246 -0.0588
 8364TIP3    H125037   4.264   1.880   2.259 -1.1747  0.3716 -1.6180
 8364TIP3    H225038   4.393   1.948   2.299 -1.5579 -1.4682  3.5906
 8365TIP3   OH225039   4.800   5.464   6.736  0.4613 -0.6233  0.8815
 8365TIP3    H125040   4.712   5.500   6.732  0.3036 -0.9157  1.6274
 8365TIP3    H225041   4.827   5.475   6.827  1.7020  0.6526  0.4010
 8366TIP3   OH225042   0.495   0.020   5.030  0.5868 -0.6494  0.0108
 8366TIP3    H125043   0.561  -0.026   4.978  0.5177  0.1692 -0.8379
 8366TIP3    H225044   0.541   0.096   5.065 -0.1801  0.6503 -1.6588
 8367TIP3   OH225045   6.476   6.720   4.190 -0.0657  0.0303  0.3662
 8367TIP3    H125046   6.550   6.765   4.230 -0.7127  0.6332  0.9171
 8367TIP3    H225047   6.430   6.787   4.140 -0.1352 -0.3835 -0.1367
 8368TIP3   OH225048   4.696   4.893   5.639  0.4001  0.5439 -0.0348
 8368TIP3    H125049   4.708   4.798   5.636  0.7423  0.4617  1.9904
 8368TIP3    H225050   4.688   4.920   5.548  0.8019 -1.3662 -0.6764
 8369TIP3   OH225051   3.717   3.279   6.317 -0.1974 -0.6377 -0.0929
 8369TIP3    H125052   3.662   3.358   6.321 -1.6043 -1.5788  0.0552
 8369TIP3    H225053   3.780   3.290   6.389 -1.6992 -0.5617  1.2791
 8370TIP3   OH225054   5.231   4.659   1.207 -0.4398 -0.3871 -0.0319
 8370TIP3    H125055   5.211   4.748   1.236  1.2681 -0.2752  0.9043
 8370TIP3    H225056   5.223   4.605   1.286 -0.6142 -0.9229 -0.4074
 8371TIP3   OH225057   8.268   2.587   4.660 -0.6340 -0.2565 -0.1381
 8371TIP3    H125058   8.332   2.607   4.728  0.4710 -1.0698 -0.8879
 8371TIP3    H225059   8.262   2.492   4.660 -1.9652 -0.1841 -0.0004
 8372TIP3   OH225060   6.906   0.727   2.465 -0.2084  0.3792  0.3117
 8372TIP3    H125061   6.943   0.799   2.516  0.7592  0.0685  0.0774
 8372TIP3    H225062   6.978   0.697   2.410 -0.8785 -0.1227 -0.3143
 8373TIP3   OH225063   1.605   3.045   3.524  0.0775  0.4153 -0.0199
 8373TIP3    H125064   1.524   3.049   3.473 -0.4853 -0.2085  0.8036
 8373TIP3    H225065   1.611   3.130   3.567 -1.0535 -0.1183  1.2536
 8374TIP3   OH225066   3.658   5.977   5.200 -0.2922 -0.2024  0.0896
 8374TIP3    H125067   3.713   5.986   5.122 -0.4101  1.2436  0.1467
 8374TIP3    H225068   3.573   6.013   5.174  0.2316  2.2221  1.4129
 8375TIP3   OH225069   0.503   1.981   2.555  0.4418 -0.6829  0.4345
 8375TIP3    H125070   0.595   2.003   2.566  0.1257  0.1176  1.7776
 8375TIP3    H225071   0.462   2.062   2.525  0.5314 -1.6820 -2.6487
 8376TIP3   OH225072   6.678   6.505   2.756 -0.3065  0.7942  0.1604
 8376TIP3    H125073   6.635   6.421   2.745  1.4105 -0.3567  1.7276
 8376TIP3    H225074   6.609   6.570   2.740 -1.5537 -0.8479 -1.5545
 8377TIP3   OH225075   3.462   5.594   1.851  0.2283  0.6899  0.1081
 8377TIP3    H125076   3.457   5.538   1.773  4.5773  0.9928 -0.6509
 8377TIP3    H225077   3.533   5.557   1.902 -1.4050  1.5119  3.2052
 8378TIP3   OH225078   6.174   2.430   5.409  0.1027  0.2668 -0.3795
 8378TIP3    H125079   6.140   2.480   5.335 -0.8560  1.4017  0.7764
 8378TIP3    H225080   6.098   2.420   5.467  0.9365 -0.2028  0.6562
 8379TIP3   OH225081   3.746   7.364   4.618 -0.0269  0.3213  0.2543
 8379TIP3    H125082   3.658   7.402   4.622  1.2821  3.6774  0.6207
 8379TIP3    H225083   3.751   7.308   4.696 -1.4446  0.9976  0.8808
 8380TIP3   OH225084   8.120   1.705   5.002  0.1202  0.1991 -0.5425
 8380TIP3    H125085   8.130   1.611   5.019  0.1418  0.3538  0.3381
 8380TIP3    H225086   8.184   1.724   4.934  0.5946 -0.2960 -0.2445
 8381TIP3   OH225087   1.609   4.312   3.994 -0.5380  0.0847  0.4652
 8381TIP3    H125088   1.687   4.360   3.969  0.0576 -0.6296  0.9287
 8381TIP3    H225089   1.593   4.338   4.085 -0.8872  0.2853  0.3492
 8382TIP3   OH225090   7.935   3.703   6.495  0.0256 -0.1967  0.3935
 8382TIP3    H125091   7.847   3.741   6.491  0.9424  1.9836 -1.2860
 8382TIP3    H225092   7.966   3.726   6.583 -0.0294  1.7561 -0.0360
 8383TIP3   OH225093   0.731   4.882   4.737 -0.1812 -0.1770 -0.6139
 8383TIP3    H125094   0.670   4.848   4.803 -0.2036 -0.2076 -0.6500
 8383TIP3    H225095   0.678   4.886   4.656  0.5691 -2.7676 -1.3211
 8384TIP3   OH225096   2.575   6.560   1.945  0.3093 -0.5194 -0.1670
 8384TIP3    H125097   2.616   6.505   1.878  2.3004  0.3462  0.2911
 8384TIP3    H225098   2.560   6.501   2.019  1.0359 -0.7895 -0.2271
 8385TIP3   OH225099   3.194   1.985   2.315 -0.2677 -0.9609 -0.0109
 8385TIP3    H125100   3.256   1.984   2.387  0.3746 -0.0693 -0.5240
 8385TIP3    H225101   3.249   1.992   2.236 -1.0187  1.2830 -0.4006
 8386TIP3   OH225102   1.410   0.624   0.590  0.1260  0.0488 -0.4680
 8386TIP3    H125103   1.403   0.529   0.590  2.0345 -0.1185 -0.7634
 8386TIP3    H225104   1.345   0.652   0.655  0.9585 -1.5864  1.1567
 8387TIP3   OH225105   6.180   4.581   3.742 -0.2099  0.7841  0.0472
 8387TIP3    H125106   6.145   4.661   3.702  0.1448  0.6054 -0.6502
 8387TIP3    H225107   6.254   4.611   3.795 -0.3554  0.9692  0.1444
 8388TIP3   OH225108   4.273   4.497   3.458  0.0742 -0.3798  0.2311
 8388TIP3    H125109   4.281   4.591   3.443 -0.1091 -0.4362 -0.2375
 8388TIP3    H225110   4.321   4.457   3.386  0.0088 -0.6468  0.3350
 8389TIP3   OH225111   3.422   1.500   1.171  0.0623  0.4373 -0.7266
 8389TIP3    H125112   3.351   1.562   1.182  1.1682  1.4782  1.0120
 8389TIP3    H225113   3.475   1.536   1.100  0.2552  1.0501 -0.2740
 8390TIP3   OH225114   5.456   2.473   0.588 -0.1558 -0.1630 -0.0976
 8390TIP3    H125115   5.530   2.523   0.623 -1.4040  0.1697  2.3127
 8390TIP3    H225116   5.469   2.473   0.493  2.2091  0.9847  0.1596
 8391TIP3   OH225117   0.841   4.677   2.601  0.3575 -0.7691 -0.1101
 8391TIP3    H125118   0.917   4.734   2.609  1.1748 -1.7132 -0.8786
 8391TIP3    H225119   0.871   4.605   2.546 -0.7625 -1.7580  0.5389
 8392TIP3   OH225120   1.847   3.710   2.839  0.0091 -0.2414 -0.2719
 8392TIP3    H125121   1.878   3.797   2.815 -0.4300  0.6512  2.1898
 8392TIP3    H225122   1.769   3.697   2.785  0.4740  0.5501 -1.1771
 8393TIP3   OH225123   5.343   1.080   1.520  0.8881  0.5867 -0.6260
 8393TIP3    H125124   5.295   1.033   1.452  0.2466 -1.1452  0.9460
 8393TIP3    H225125   5.425   1.032   1.529  0.4883  0.0963  0.5700
 8394TIP3   OH225126   5.035   1.229   1.452  0.0552 -0.7038  0.3641
 8394TIP3    H125127   5.090   1.152   1.467 -2.1952 -3.1166 -2.4189
 8394TIP3    H225128   5.056   1.256   1.363  0.1957  1.4443  1.0104
 8395TIP3   OH225129   3.591   5.434   2.879 -0.0170  0.1039  0.5275
 8395TIP3    H125130   3.504   5.407   2.908 -0.7349 -0.2309 -1.7485
 8395TIP3    H225131   3.592   5.529   2.894 -0.3079 -0.0453  1.6266
 8396TIP3   OH225132   3.699   2.718   5.363  0.1819 -0.0375 -0.1196
 8396TIP3    H125133   3.674   2.629   5.390 -0.7577 -0.1123 -1.1796
 8396TIP3    H225134   3.783   2.707   5.319  0.4957 -0.2696  0.5274
 8397TIP3   OH225135   5.137   3.859   6.539 -0.2290  0.6115  0.3686
 8397TIP3    H125136   5.142   3.905   6.623 -0.2662  0.5300  0.4147
 8397TIP3    H225137   5.066   3.796   6.550  2.0359 -1.9639  1.5300
 8398TIP3   OH225138   0.243   1.588   2.214  0.0142 -0.3716  0.0267
 8398TIP3    H125139   0.300   1.522   2.254  0.8772  0.0515 -0.4682
 8398TIP3    H225140   0.184   1.538   2.158  0.1195 -0.7898  0.2791
 8399TIP3   OH225141   2.887   5.344   2.738  0.0610  0.0729 -0.2958
 8399TIP3    H125142   2.970   5.316   2.698  0.5466 -1.1484  1.4386
 8399TIP3    H225143   2.827   5.272   2.719 -0.0995  0.1417 -0.0454
 8400TIP3   OH225144   7.996   6.850   6.686  0.0593  0.0023  0.3268
 8400TIP3    H125145   7.989   6.932   6.735  0.3388  0.2491 -0.0370
 8400TIP3    H225146   7.909   6.835   6.651  0.1947  0.5934 -0.3032
 8401TIP3   OH225147   5.678   4.873   4.067  0.0767 -0.2440 -0.2129
 8401TIP3    H125148   5.688   4.927   4.145 -0.4083 -0.9080  0.3241
 8401TIP3    H225149   5.633   4.930   4.004  2.4838  1.0553 -0.8571
 8402TIP3   OH225150   4.725   7.763   4.173 -0.4149  0.0697 -0.0307
 8402TIP3    H125151   4.671   7.828   4.219  0.7835  0.2905  1.1330
 8402TIP3    H225152   4.794   7.741   4.235 -0.6609 -2.2010 -0.4639
 8403TIP3   OH225153   5.303   3.768   2.468 -0.1384  0.2685  0.2128
 8403TIP3    H125154   5.314   3.851   2.516 -1.1611  0.5888 -0.0770
 8403TIP3    H225155   5.390   3.728   2.469 -0.3433 -0.3397  3.4057
 8404TIP3   OH225156   4.509   0.660   4.159 -0.0358 -0.4408 -0.3573
 8404TIP3    H125157   4.549   0.576   4.181 -1.0215 -0.5127  1.3377
 8404TIP3    H225158   4.494   0.702   4.243 -1.7492  0.3939 -1.0245
 8405TIP3   OH225159   5.546   2.846   5.789  0.1449 -0.2122  1.0181
 8405TIP3    H125160   5.571   2.833   5.880  0.0182  2.3143  1.4806
 8405TIP3    H225161   5.454   2.873   5.793  0.1379 -0.0690  0.1465
 8406TIP3   OH225162   5.933   1.857   5.538  0.4687  0.2644  1.1645
 8406TIP3    H125163   5.938   1.775   5.489 -0.1460  1.0727 -0.3144
 8406TIP3    H225164   5.844   1.888   5.523  0.6509  1.1304  1.8185
 8407TIP3   OH225165   3.654   6.951   1.585  0.1814  0.4759  0.5813
 8407TIP3    H125166   3.587   6.993   1.640 -0.3662  1.3870 -0.7158
 8407TIP3    H225167   3.732   7.005   1.599  0.6975 -0.5818  2.0889
 8408TIP3   OH225168   2.133   6.550   6.706  0.2566  0.0009  0.2661
 8408TIP3    H125169   2.118   6.558   6.612 -0.2563 -0.8241  0.2609
 8408TIP3    H225170   2.067   6.487   6.735 -0.3874  1.1459  1.3936
 8409TIP3   OH225171   4.659   6.299   2.061  0.0400  0.0148 -0.2024
 8409TIP3    H125172   4.589   6.268   2.003 -1.4270  1.4924  0.6765
 8409TIP3    H225173   4.651   6.244   2.138  0.6681 -0.6198 -0.5813
 8410TIP3   OH225174   5.261   1.285   2.696 -0.4790  0.2327 -0.1701
 8410TIP3    H125175   5.282   1.198   2.660 -1.1315  0.5949 -1.4995
 8410TIP3    H225176   5.341   1.336   2.682 -0.7326  0.3781 -1.1838
 8411TIP3   OH225177   1.594   4.357   5.228  0.0747 -0.1548  0.1900
 8411TIP3    H125178   1.636   4.280   5.191  1.2216  0.6048 -0.1497
 8411TIP3    H225179   1.505   4.354   5.194  0.4547 -0.6831 -0.8270
 8412TIP3   OH225180   0.153   7.090   6.264 -0.3697 -0.4148 -0.1805
 8412TIP3    H125181   0.232   7.054   6.225  0.4035 -0.0519  1.0008
 8412TIP3    H225182   0.104   7.013   6.295  1.4031 -0.5605  2.5843
 8413TIP3   OH225183   7.018   6.174   3.617  0.1284 -0.2834 -0.0927
 8413TIP3    H125184   7.095   6.120   3.634  1.0302  0.8361 -0.4715
 8413TIP3    H225185   7.050   6.264   3.621 -1.3036  0.2355  0.3789
 8414TIP3   OH225186   1.938   3.955   4.270  0.0834 -0.1615  0.0001
 8414TIP3    H125187   1.959   3.970   4.362 -0.8681  0.9892  0.0563
 8414TIP3    H225188   1.938   3.860   4.260  0.2597 -0.2946  1.1790
 8415TIP3   OH225189   4.338   0.366   2.680 -0.5348  0.1774  0.1669
 8415TIP3    H125190   4.374   0.308   2.613 -2.5818 -1.2091  0.1691
 8415TIP3    H225191   4.317   0.308   2.754 -1.7262  1.0519  0.5541
 8416TIP3   OH225192   4.447   0.320   3.373 -0.1985 -0.4962 -0.4654
 8416TIP3    H125193   4.354   0.336   3.386 -0.2280 -2.1447  2.1667
 8416TIP3    H225194   4.478   0.396   3.324 -2.7138  0.6183 -0.4738
 8417TIP3   OH225195   7.966   0.406   5.919  0.0083 -0.1678  0.3138
 8417TIP3    H125196   7.906   0.349   5.968  0.1488 -1.4553 -0.9292
 8417TIP3    H225197   7.908   0.466   5.871 -0.2944 -1.0552 -0.4646
 8418TIP3   OH225198   0.780   7.491   1.797 -0.0258  0.2908 -0.0028
 8418TIP3    H125199   0.843   7.455   1.735 -1.3699 -0.5379 -0.9315
 8418TIP3    H225200   0.789   7.436   1.875  0.5820  0.3659 -0.0141
 8419TIP3   OH225201   2.409   1.650   2.568  0.4792  0.1114 -0.2033
 8419TIP3    H125202   2.500   1.679   2.574  0.3003  0.6991 -0.3168
 8419TIP3    H225203   2.373   1.667   2.655  0.5711 -0.4667 -0.0432
 8420TIP3   OH225204   4.327   7.482   1.464 -0.4644  0.1003 -0.4216
 8420TIP3    H125205   4.232   7.474   1.458 -0.5872  0.3875  0.8220
 8420TIP3    H225206   4.348   7.452   1.553  0.7624 -1.3178 -1.1392
 8421TIP3   OH225207   1.031   4.345   3.025 -0.7446  0.0939 -0.6929
 8421TIP3    H125208   0.961   4.339   3.089 -0.5254  1.2452 -0.3232
 8421TIP3    H225209   1.086   4.268   3.042 -0.2560  0.7978  1.0228
 8422TIP3   OH225210   2.219   3.398   1.428 -0.3576 -0.0291  0.3897
 8422TIP3    H125211   2.206   3.437   1.515  1.3738  2.5622 -0.3940
 8422TIP3    H225212   2.158   3.445   1.371 -0.0564 -0.2629 -0.1298
 8423TIP3   OH225213   4.517   5.196   6.543 -0.0454 -0.0641 -0.2576
 8423TIP3    H125214   4.446   5.249   6.579 -1.1379 -0.1376 -2.2113
 8423TIP3    H225215   4.483   5.106   6.542  0.6447 -0.3462  0.1364
 8424TIP3   OH225216   7.030   2.549   5.158 -1.2053  0.1268  0.3628
 8424TIP3    H125217   7.089   2.618   5.188  0.3864 -1.5370  1.2750
 8424TIP3    H225218   6.945   2.592   5.148 -0.1710  2.2905  0.4145
 8425TIP3   OH225219   4.333   0.361   4.107  0.0262 -0.2956  0.3506
 8425TIP3    H125220   4.284   0.409   4.040  0.4573  0.3749  0.5042
 8425TIP3    H225221   4.409   0.326   4.061  0.9687  1.1943  0.7199
 8426TIP3   OH225222   4.549   0.795   1.601  0.4414 -0.0769 -0.0403
 8426TIP3    H125223   4.582   0.874   1.559 -1.1976  0.3199 -0.6607
 8426TIP3    H225224   4.627   0.750   1.633  1.3978  1.8092  0.3951
 8427TIP3   OH225225   6.611   7.196   0.384 -0.2609 -0.5798  0.3350
 8427TIP3    H125226   6.593   7.105   0.409 -1.1275  0.1105  2.3928
 8427TIP3    H225227   6.538   7.246   0.421  1.3572  1.2332  1.2543
 8428TIP3   OH225228   6.715   4.841   5.088  0.3752  0.5231 -0.2879
 8428TIP3    H125229   6.650   4.787   5.042 -0.3437  0.5937  0.6171
 8428TIP3    H225230   6.748   4.901   5.021  0.9475 -0.7972 -1.2350
 8429TIP3   OH225231   4.418   0.537   6.116  0.1345  0.2192 -0.4858
 8429TIP3    H125232   4.471   0.467   6.155 -1.2365 -1.0163 -0.7672
 8429TIP3    H225233   4.458   0.618   6.148  2.4230 -0.6211 -0.9906
 8430TIP3   OH225234   6.276   5.286   4.992  0.1289 -0.3021 -0.3309
 8430TIP3    H125235   6.331   5.228   5.046  1.4874  0.2517 -1.0754
 8430TIP3    H225236   6.255   5.360   5.050 -1.7125 -1.5103  0.6644
 8431TIP3   OH225237   8.054   0.920   0.289 -0.4925 -0.2773  0.2053
 8431TIP3    H125238   8.131   0.976   0.278 -1.0407  0.4107 -0.1968
 8431TIP3    H225239   8.067   0.848   0.228 -0.3646  0.0627 -0.1717
 8432TIP3   OH225240   7.990   2.611   4.630 -0.3091  0.2350 -0.5223
 8432TIP3    H125241   8.081   2.601   4.658 -0.6507  1.0581  1.0225
 8432TIP3    H225242   7.945   2.537   4.673 -0.2852 -0.5565 -1.8149
 8433TIP3   OH225243   1.625   5.395   1.567 -0.3178 -0.2386  0.3296
 8433TIP3    H125244   1.598   5.352   1.485  0.2526 -0.2658  0.1547
 8433TIP3    H225245   1.546   5.442   1.595 -0.2775  0.4942 -0.7063
 8434TIP3   OH225246   0.551   5.935   2.816 -0.1708 -0.1602 -0.1783
 8434TIP3    H125247   0.570   5.846   2.845  0.0540  0.7360  2.7194
 8434TIP3    H225248   0.482   5.965   2.875  0.3876  1.8848 -0.4960
 8435TIP3   OH225249   7.638   3.250   5.299 -0.2895 -0.4386 -0.4637
 8435TIP3    H125250   7.689   3.281   5.374 -1.9513  0.3606  0.4040
 8435TIP3    H225251   7.680   3.168   5.274  0.2782 -0.7855  1.4104
 8436TIP3   OH225252   0.157   1.477   1.970 -0.2222 -0.7421 -0.1862
 8436TIP3    H125253   0.200   1.560   1.950 -0.9334 -0.0222  1.1283
 8436TIP3    H225254   0.212   1.411   1.929  2.6419  0.0319  2.1214
 8437TIP3   OH225255   6.544   6.417   2.149 -0.2086 -0.2050 -0.5568
 8437TIP3    H125256   6.634   6.404   2.178  0.1245 -0.2996 -1.5948
 8437TIP3    H225257   6.535   6.512   2.140 -0.0729 -0.2261 -0.8989
 8438TIP3   OH225258   0.062   5.165   0.919  0.3293  0.5025 -1.1118
 8438TIP3    H125259   0.005   5.216   0.861 -0.8061  1.1243  0.4752
 8438TIP3    H225260   0.135   5.223   0.937  0.5878  0.3828 -1.7323
 8439TIP3   OH225261   6.783   7.418   1.121  0.3486  0.4423 -0.1186
 8439TIP3    H125262   6.846   7.395   1.053 -1.8323 -0.3328 -2.0220
 8439TIP3    H225263   6.715   7.468   1.075 -1.1231  0.0513  1.5239
 8440TIP3   OH225264   2.897   1.862   5.762  0.3956  0.7697  0.3140
 8440TIP3    H125265   2.979   1.846   5.808  1.0347 -0.0186 -1.0355
 8440TIP3    H225266   2.921   1.861   5.669 -1.5225 -1.9731 -0.2547
 8441TIP3   OH225267   0.961   5.251   4.447 -0.3641 -0.0973 -0.3762
 8441TIP3    H125268   0.876   5.244   4.404 -1.7264  0.0786  2.0993
 8441TIP3    H225269   0.975   5.165   4.486  0.7728 -0.2237 -1.0401
 8442TIP3   OH225270   6.220   2.006   2.805  0.0571 -0.0015  0.2022
 8442TIP3    H125271   6.296   2.060   2.782  1.1502 -1.6535 -0.2015
 8442TIP3    H225272   6.229   1.991   2.899 -0.1098  0.2938  0.2675
 8443TIP3   OH225273   4.399   2.031   0.167 -0.2013 -0.2956 -0.0391
 8443TIP3    H125274   4.420   1.963   0.231 -1.3421 -0.4326  0.2190
 8443TIP3    H225275   4.309   2.055   0.187 -0.2775  0.3011 -1.0272
 8444TIP3   OH225276   5.392   2.256   4.069  0.5644 -0.5672  0.3261
 8444TIP3    H125277   5.427   2.308   4.141 -2.0038  0.6164  0.8001
 8444TIP3    H225278   5.301   2.283   4.060  0.1509 -2.3208 -1.8998
 8445TIP3   OH225279   2.408   4.391   6.419 -0.1717 -0.2521  0.2814
 8445TIP3    H125280   2.376   4.454   6.483 -0.2644  0.5740 -0.5647
 8445TIP3    H225281   2.342   4.322   6.418 -0.9207  0.4510  0.0104
 8446TIP3   OH225282   5.265   7.414   5.249 -0.7552  0.4877  0.0829
 8446TIP3    H125283   5.254   7.476   5.177 -0.1567 -0.1969 -0.6136
 8446TIP3    H225284   5.279   7.329   5.206 -1.7030 -0.1767  1.0048
 8447TIP3   OH225285   5.598   1.094   5.830  0.4341 -0.3043  0.0719
 8447TIP3    H125286   5.686   1.058   5.823 -0.1477 -1.5897 -1.1536
 8447TIP3    H225287   5.544   1.036   5.777 -1.1430  0.5209  0.6959
 8448TIP3   OH225288   6.582   3.184   3.777 -0.0481  0.2641 -0.3550
 8448TIP3    H125289   6.516   3.172   3.846  0.7836  0.6368  0.5234
 8448TIP3    H225290   6.566   3.112   3.716 -0.4342 -0.4243  0.5309
 8449TIP3   OH225291   1.391   1.022   4.164  0.1109  0.5325 -0.2117
 8449TIP3    H125292   1.448   1.087   4.206 -0.3302  1.6083 -1.2343
 8449TIP3    H225293   1.377   1.055   4.075 -3.3970  1.1633  0.4450
 8450TIP3   OH225294   1.467   4.995   3.110 -0.0656  0.2755 -0.8129
 8450TIP3    H125295   1.475   5.074   3.164  1.0663  0.7171 -1.5731
 8450TIP3    H225296   1.553   4.986   3.069 -0.5097 -0.7656 -1.5494
 8451TIP3   OH225297   5.287   5.764   3.177  0.1302  0.4174  0.1869
 8451TIP3    H125298   5.307   5.703   3.105 -0.5115  2.3125 -1.7003
 8451TIP3    H225299   5.373   5.799   3.203  0.2124  1.4929 -1.3728
 8452TIP3   OH225300   8.169   6.790   5.706 -0.1263  0.8940 -0.0264
 8452TIP3    H125301   8.206   6.710   5.743 -0.1864  1.3038  0.9560
 8452TIP3    H225302   8.171   6.854   5.778 -0.3125  1.7027 -0.7142
 8453TIP3   OH225303   6.719   6.304   6.460 -0.1678 -0.2369 -0.0132
 8453TIP3    H125304   6.633   6.326   6.495 -0.3490 -0.9668  0.0197
 8453TIP3    H225305   6.701   6.244   6.387  0.2281  0.8620 -1.0472
 8454TIP3   OH225306   6.279   0.335   0.301  0.1904 -0.6916 -0.0594
 8454TIP3    H125307   6.197   0.288   0.315 -0.9752  0.7247 -1.7877
 8454TIP3    H225308   6.288   0.342   0.206  0.6041  2.0062  0.1077
 8455TIP3   OH225309   3.274   5.267   4.577  0.1568 -0.4697  0.0143
 8455TIP3    H125310   3.216   5.259   4.501  1.2575 -0.2772 -0.8660
 8455TIP3    H225311   3.361   5.248   4.543  0.5106 -1.7489  1.5328
 8456TIP3   OH225312   0.343   7.335   0.713  0.6612  0.5288  0.1818
 8456TIP3    H125313   0.302   7.279   0.647  0.7154 -0.4930  1.0091
 8456TIP3    H225314   0.435   7.310   0.712  0.6641  0.5200  0.6374
 8457TIP3   OH225315   1.056   7.521   5.369 -0.1670  0.4462  0.5325
 8457TIP3    H125316   1.115   7.581   5.323  0.7149  0.3782  1.5394
 8457TIP3    H225317   0.969   7.561   5.360  0.4562  2.1743  1.5976
 8458TIP3   OH225318   6.096   4.103   2.243  0.2298  0.8301  0.2663
 8458TIP3    H125319   6.011   4.083   2.203 -0.1716  0.2892  1.3488
 8458TIP3    H225320   6.158   4.050   2.194  0.1145  1.9962 -1.2131
 8459TIP3   OH225321   4.073   4.713   4.616  0.1907  0.6360 -0.3291
 8459TIP3    H125322   4.041   4.709   4.526  0.1242 -0.5859 -0.2686
 8459TIP3    H225323   4.024   4.784   4.656 -2.4945 -1.1398 -0.2449
 8460TIP3   OH225324   5.375   3.901   0.686 -0.4210 -0.0222 -0.2162
 8460TIP3    H125325   5.434   3.912   0.612 -1.1125 -0.3387 -0.8296
 8460TIP3    H225326   5.403   3.818   0.726  1.1487  1.0387  1.0267
 8461TIP3   OH225327   0.379   3.768   4.613  0.3837  0.2259  0.2420
 8461TIP3    H125328   0.300   3.788   4.563 -0.0033  0.6996  1.0396
 8461TIP3    H225329   0.385   3.836   4.679 -0.8006 -2.0054  2.8533
 8462TIP3   OH225330   4.472   4.401   0.616  0.2967  0.7277 -0.1001
 8462TIP3    H125331   4.394   4.449   0.590 -0.6157  0.3059  1.6915
 8462TIP3    H225332   4.514   4.456   0.683  0.2240 -0.1153  0.6589
 8463TIP3   OH225333   1.419   6.259   1.852 -0.3418  0.6277  0.2739
 8463TIP3    H125334   1.394   6.193   1.916  0.9215  0.3360  0.4811
 8463TIP3    H225335   1.491   6.220   1.803  0.7881  2.0257  0.7413
 8464TIP3   OH225336   5.115   2.699   4.929  0.6437  0.5599 -0.1695
 8464TIP3    H125337   5.110   2.737   5.017  1.4025  0.2678  0.0046
 8464TIP3    H225338   5.190   2.640   4.933  0.5821  0.4249 -0.9720
 8465TIP3   OH225339   5.923   3.717   4.682  0.2907 -0.0320  0.0332
 8465TIP3    H125340   5.901   3.626   4.703  0.5450 -0.8631 -2.9073
 8465TIP3    H225341   6.019   3.717   4.674  0.5150  1.0462  2.0518
 8466TIP3   OH225342   0.568   5.554   0.091  0.1383 -0.3196  0.3382
 8466TIP3    H125343   0.648   5.505   0.111  0.7404  0.2567 -0.5518
 8466TIP3    H225344   0.575   5.634   0.142  0.5472  0.1060 -0.3692
 8467TIP3   OH225345   0.041   0.603   2.202 -0.4866  0.2381  0.4511
 8467TIP3    H125346   0.136   0.615   2.204 -0.5993  1.5188 -0.6821
 8467TIP3    H225347   0.019   0.575   2.291  0.8142  1.1729  1.1099
 8468TIP3   OH225348   6.696   0.350   3.667  0.1931  0.1488 -0.2722
 8468TIP3    H125349   6.743   0.360   3.584 -0.0020 -0.4486 -0.4611
 8468TIP3    H225350   6.638   0.275   3.653 -1.6018  1.4929 -0.4108
 8469TIP3   OH225351   6.423   0.569   6.441 -0.1364 -0.1813 -0.0507
 8469TIP3    H125352   6.382   0.553   6.356 -3.3610  4.6133  0.2364
 8469TIP3    H225353   6.376   0.512   6.501 -2.0716  0.6266 -0.7225
 8470TIP3   OH225354   0.543   1.699   5.034 -0.7797  0.8073 -0.0506
 8470TIP3    H125355   0.510   1.642   5.103 -0.7391 -0.8086 -1.3063
 8470TIP3    H225356   0.589   1.640   4.974  0.2335  2.3260 -0.8374
 8471TIP3   OH225357   3.265   3.516   4.447  0.7762 -0.2715  0.4901
 8471TIP3    H125358   3.206   3.562   4.507 -0.4402  0.4220 -1.1857
 8471TIP3    H225359   3.210   3.449   4.406  1.6076 -0.7725  0.1612
 8472TIP3   OH225360   3.832   4.689   1.052  0.2291  0.8583  0.1737
 8472TIP3    H125361   3.865   4.602   1.031 -1.6701  0.0892  0.2544
 8472TIP3    H225362   3.819   4.731   0.968  0.3576  0.7569  0.1032
 8473TIP3   OH225363   8.011   5.909   3.472  0.1974  0.6638  0.4061
 8473TIP3    H125364   8.041   5.867   3.552  1.5989 -0.1421 -0.5069
 8473TIP3    H225365   7.916   5.893   3.470  0.5743 -1.9253  0.4306
 8474TIP3   OH225366   3.712   4.862   6.690 -0.3567 -0.0040 -0.2086
 8474TIP3    H125367   3.695   4.846   6.597  1.6292  0.6491 -0.7373
 8474TIP3    H225368   3.784   4.802   6.711 -0.4433  0.2303  0.7665
 8475TIP3   OH225369   7.437   2.210   3.879  0.3122  0.2403 -0.4166
 8475TIP3    H125370   7.482   2.234   3.798  1.4196 -1.7886 -0.4587
 8475TIP3    H225371   7.454   2.117   3.890 -0.9684  0.1669  1.4506
 8476TIP3   OH225372   1.948   4.498   0.623 -0.2895 -0.1652 -0.3197
 8476TIP3    H125373   1.879   4.510   0.558  0.1381 -1.0342 -0.9483
 8476TIP3    H225374   2.030   4.504   0.573  0.0721 -0.0712  0.2688
 8477TIP3   OH225375   7.972   6.615   5.413  0.2060 -0.3058  0.4182
 8477TIP3    H125376   8.046   6.636   5.470  0.1752  1.5783 -0.1702
 8477TIP3    H225377   7.894   6.632   5.467  0.1797  1.3101 -0.0741
 8478TIP3   OH225378   1.396   3.120   5.344  0.1590 -0.2547  0.4092
 8478TIP3    H125379   1.336   3.047   5.325 -1.5951  1.4096 -0.7682
 8478TIP3    H225380   1.351   3.197   5.311  2.5962  1.2145  0.2965
 8479TIP3   OH225381   7.077   1.961   3.863  0.5673 -0.1318  0.0925
 8479TIP3    H125382   7.047   1.870   3.864 -2.0425  0.6324  1.4325
 8479TIP3    H225383   7.019   2.004   3.800  1.4868  0.7181 -0.1982
 8480TIP3   OH225384   5.832   1.394   5.417 -0.1644 -0.0644 -0.4369
 8480TIP3    H125385   5.827   1.308   5.457 -1.3846  0.8111  1.4668
 8480TIP3    H225386   5.748   1.405   5.371 -0.3497  0.3806 -0.0093
 8481TIP3   OH225387   0.956   0.937   3.019  0.0983 -0.3437  0.2483
 8481TIP3    H125388   1.010   0.911   2.944  0.1971 -1.1713  0.5961
 8481TIP3    H225389   0.964   1.032   3.022  0.0067 -0.2873 -0.8551
 8482TIP3   OH225390   7.794   3.019   3.444 -0.2631 -0.2783  0.2152
 8482TIP3    H125391   7.832   3.037   3.530  0.5742  0.9301 -0.3569
 8482TIP3    H225392   7.818   3.096   3.392 -3.2980  0.4352 -0.3003
 8483TIP3   OH225393   5.575   0.104   3.032  0.4167  0.0879  0.1337
 8483TIP3    H125394   5.615   0.170   3.088  0.2820 -1.1044  1.6781
 8483TIP3    H225395   5.605   0.020   3.068  0.6161 -0.7299 -1.7949
 8484TIP3   OH225396   4.256   7.739   1.623  0.1700 -0.3062 -0.0018
 8484TIP3    H125397   4.193   7.672   1.648  0.6127 -0.7110  0.0362
 8484TIP3    H225398   4.318   7.694   1.565 -0.6194  0.5085 -1.5525
 8485TIP3   OH225399   5.078   5.878   0.155  0.1690  0.5817  0.1845
 8485TIP3    H125400   5.130   5.878   0.075  0.9315 -1.7186  0.6078
 8485TIP3    H225401   4.988   5.864   0.125  0.4562 -0.3503 -0.2953
 8486TIP3   OH225402   2.059   6.087   2.792  0.3611 -0.6799  0.3096
 8486TIP3    H125403   2.052   6.153   2.723 -0.8175 -0.8233  0.2772
 8486TIP3    H225404   2.121   6.125   2.855  0.5617 -0.0428 -0.2555
 8487TIP3   OH225405   1.849   7.640   6.054 -0.1959  0.4488 -0.5245
 8487TIP3    H125406   1.798   7.570   6.094 -2.4059  1.5168 -1.2941
 8487TIP3    H225407   1.827   7.718   6.105  1.0200  0.8749 -0.6246
 8488TIP3   OH225408   1.992   1.804   0.702  0.2142 -0.1154 -0.1856
 8488TIP3    H125409   1.908   1.846   0.723 -0.2102 -1.0186  0.0015
 8488TIP3    H225410   2.000   1.814   0.607  1.2111  2.3081  0.0776
 8489TIP3   OH225411   6.503   0.180   4.429  0.4147  0.4950 -0.0462
 8489TIP3    H125412   6.462   0.097   4.406  0.2732  0.0213  1.8136
 8489TIP3    H225413   6.439   0.224   4.486  0.3003  2.0950 -1.3078
 8490TIP3   OH225414   7.091   3.361   6.593 -0.8672 -0.3786  0.2478
 8490TIP3    H125415   7.015   3.360   6.535 -0.4522 -0.3500 -0.3106
 8490TIP3    H225416   7.119   3.453   6.593 -1.0749 -0.3145  0.7757
 8491TIP3   OH225417   0.079   5.096   6.207 -0.0339 -0.1512  0.0042
 8491TIP3    H125418   0.126   5.119   6.288  0.0428  0.2956 -0.1684
 8491TIP3    H225419  -0.004   5.143   6.214  0.4049  0.7446 -0.6707
 8492TIP3   OH225420   4.910   0.440   0.378 -0.3261  0.0104 -0.5156
 8492TIP3    H125421   4.833   0.406   0.424  0.6724 -2.7435 -0.7130
 8492TIP3    H225422   4.979   0.443   0.444 -0.6837  3.2195 -0.1427
 8493TIP3   OH225423   4.600   6.202   4.876  0.0159 -0.0497  0.8529
 8493TIP3    H125424   4.524   6.146   4.863 -0.0772  0.2060  0.2396
 8493TIP3    H225425   4.674   6.142   4.880 -0.1181 -0.2436  0.5019
 8494TIP3   OH225426   6.417   3.939   4.997 -0.0930 -0.0281  0.0500
 8494TIP3    H125427   6.449   3.883   4.927 -0.3619 -2.5374  1.7994
 8494TIP3    H225428   6.322   3.924   4.999 -0.1563  0.4007  0.6507
 8495TIP3   OH225429   7.710   4.843   4.671  0.0392 -0.0586  0.3142
 8495TIP3    H125430   7.696   4.891   4.590 -1.6997 -0.4008  0.3787
 8495TIP3    H225431   7.642   4.776   4.671 -0.6393  0.5562  2.5213
 8496TIP3   OH225432   5.606   7.541   4.387  0.3503  0.0691 -0.6612
 8496TIP3    H125433   5.674   7.543   4.454 -0.5377  0.7896  0.2532
 8496TIP3    H225434   5.650   7.507   4.309  1.1003 -2.0825  0.6179
 8497TIP3   OH225435   7.385   7.042   5.793  0.2188  0.1587 -0.0904
 8497TIP3    H125436   7.361   7.119   5.846  0.4519 -0.7656  1.4160
 8497TIP3    H225437   7.452   7.074   5.734 -1.2599  1.6468 -1.0685
 8498TIP3   OH225438   5.713   4.040   4.693 -0.5651  0.3914 -0.4850
 8498TIP3    H125439   5.756   4.066   4.612  0.4808  1.1020  0.2835
 8498TIP3    H225440   5.783   4.008   4.750 -1.0143  1.5349  0.7797
 8499TIP3   OH225441   2.731   7.493   6.773  0.9761  0.0632 -0.3286
 8499TIP3    H125442   2.819   7.499   6.810  0.6507 -1.6210  0.7800
 8499TIP3    H225443   2.738   7.426   6.705 -0.0845 -2.5439  1.9507
 8500TIP3   OH225444   4.199   1.313   3.753  0.1678 -0.2093 -0.0547
 8500TIP3    H125445   4.207   1.247   3.822 -0.4467 -0.7998 -0.5349
 8500TIP3    H225446   4.105   1.319   3.736  0.1425  1.3542  0.5018
 8501TIP3   OH225447   7.091   6.274   0.114 -0.6810  0.7551  0.8050
 8501TIP3    H125448   7.130   6.349   0.160  0.3964  1.5597 -1.2822
 8501TIP3    H225449   7.138   6.270   0.031 -1.6697 -1.4258  0.2851
 8502TIP3   OH225450   4.000   2.608   6.401 -0.4898  0.0060  0.2059
 8502TIP3    H125451   4.090   2.579   6.387 -0.2667  0.5869  0.4195
 8502TIP3    H225452   4.003   2.656   6.484 -1.0036 -0.0114  0.2374
 8503TIP3   OH225453   5.463   1.764   5.304 -0.2640 -0.2468 -0.0051
 8503TIP3    H125454   5.401   1.795   5.370 -0.0620  0.9663 -0.3719
 8503TIP3    H225455   5.496   1.843   5.263  2.4306 -0.7815  0.9663
 8504TIP3   OH225456   4.021   6.280   0.613 -0.3240  0.3075  0.3080
 8504TIP3    H125457   3.930   6.275   0.645 -1.0143 -1.6382 -1.7131
 8504TIP3    H225458   4.054   6.191   0.622  1.3653  0.9467  0.8067
 8505TIP3   OH225459   7.280   5.532   5.630 -0.6479  0.3643  0.5565
 8505TIP3    H125460   7.292   5.451   5.581 -1.1967  1.3563 -1.3263
 8505TIP3    H225461   7.185   5.543   5.636 -0.5813  0.7562  1.0096
 8506TIP3   OH225462   2.533   2.063   6.100 -0.1735 -0.0523 -0.1535
 8506TIP3    H125463   2.547   2.046   6.194  0.6986  0.5888 -0.1514
 8506TIP3    H225464   2.590   2.000   6.056  2.0920  1.8455 -0.1645
 8507TIP3   OH225465   3.693   3.732   4.759 -0.1948 -0.2641  0.4533
 8507TIP3    H125466   3.787   3.718   4.775 -0.9400 -2.8304  3.6936
 8507TIP3    H225467   3.672   3.813   4.805  0.2573 -0.0785  0.3387
 8508TIP3   OH225468   1.497   1.365   1.886 -0.5284 -0.0509 -0.2108
 8508TIP3    H125469   1.523   1.439   1.831 -0.4400 -0.6658 -1.0046
 8508TIP3    H225470   1.558   1.295   1.862 -1.0124 -0.5739  0.0824
 8509TIP3   OH225471   1.590   7.530   0.445  0.4649 -0.0431  0.4421
 8509TIP3    H125472   1.539   7.495   0.518 -0.7640  0.3912 -0.1798
 8509TIP3    H225473   1.594   7.459   0.381  1.2751 -0.3161  0.7754
 8510TIP3   OH225474   0.012   5.171   4.562  0.5382  0.6533 -0.1290
 8510TIP3    H125475  -0.052   5.242   4.557  0.1968  0.3176 -0.6659
 8510TIP3    H225476   0.092   5.209   4.525  0.3744  0.7763 -0.3617
 8511TIP3   OH225477   5.452   2.248   6.358  0.0872  0.3767 -0.0337
 8511TIP3    H125478   5.498   2.292   6.287 -0.0515 -3.4971 -2.8412
 8511TIP3    H225479   5.360   2.275   6.347  0.2922  0.9675 -0.3421
 8512TIP3   OH225480   0.301   1.477   6.589  0.4727  0.1190  0.3795
 8512TIP3    H125481   0.392   1.446   6.584  0.7667  1.1189 -1.3668
 8512TIP3    H225482   0.250   1.398   6.607  1.4320 -0.9735 -1.4123
 8513TIP3   OH225483   5.170   6.001   3.994 -0.9380 -0.2593  0.0067
 8513TIP3    H125484   5.188   6.063   4.064 -0.5296  0.5600 -0.8133
 8513TIP3    H225485   5.112   5.936   4.034 -0.2682 -0.1100  1.2467
 8514TIP3   OH225486   2.133   6.145   0.934  0.1474 -0.4301  0.1188
 8514TIP3    H125487   2.134   6.236   0.907 -1.5214 -0.6815 -0.9424
 8514TIP3    H225488   2.223   6.127   0.963  0.4779  1.5417  0.4325
 8515TIP3   OH225489   4.909   2.720   2.108  0.3442  0.0424  0.0663
 8515TIP3    H125490   4.928   2.670   2.187 -1.5872 -2.6167 -0.9804
 8515TIP3    H225491   4.819   2.752   2.121  0.0397 -0.3417 -0.9877
 8516TIP3   OH225492   7.242   6.942  -0.002  0.4203  0.2221 -0.0350
 8516TIP3    H125493   7.188   6.900   0.064  1.6329  0.7554  1.3525
 8516TIP3    H225494   7.185   7.009  -0.040  0.0573  0.7563  1.3730
 8517TIP3   OH225495   8.237   6.756   6.651 -0.5611 -0.3835 -0.4533
 8517TIP3    H125496   8.149   6.793   6.648 -0.7086 -0.5381  1.1984
 8517TIP3    H225497   8.233   6.688   6.719  1.0727  0.2643  0.3568
 8518TIP3   OH225498   4.002   3.280   5.058 -0.2329  0.4928  0.2060
 8518TIP3    H125499   4.018   3.319   4.973  1.5173  0.5559  0.5390
 8518TIP3    H225500   3.907   3.265   5.060 -0.2628  0.1132 -1.8923
 8519TIP3   OH225501   5.037   3.611   3.915  0.1456 -0.1536  0.0725
 8519TIP3    H125502   5.128   3.613   3.885  0.6364 -0.4399  1.4960
 8519TIP3    H225503   4.988   3.580   3.838  1.6117 -2.8545  0.0902
 8520TIP3   OH225504   3.885   6.754   1.349  0.1311 -0.1251  0.2316
 8520TIP3    H125505   3.931   6.670   1.352 -0.2728 -0.4861 -1.9440
 8520TIP3    H225506   3.904   6.795   1.433  1.1384 -1.9697  0.9578
 8521TIP3   OH225507   4.358   0.598   2.232  0.3686  0.0657 -0.2853
 8521TIP3    H125508   4.305   0.541   2.288 -0.0582  1.4759  0.8176
 8521TIP3    H225509   4.365   0.680   2.281  1.8603  0.6217 -1.3324
 8522TIP3   OH225510   5.728   3.650   1.185 -0.6721 -0.2557 -0.5458
 8522TIP3    H125511   5.764   3.739   1.184  0.9301 -0.8699 -1.5468
 8522TIP3    H225512   5.785   3.601   1.244 -2.1969 -0.4168  0.8656
 8523TIP3   OH225513   1.309   4.936   3.585 -0.5963  0.2208 -0.6882
 8523TIP3    H125514   1.398   4.968   3.570 -0.0395 -0.8742  0.1491
 8523TIP3    H225515   1.258   5.015   3.605 -0.0201  0.9621 -2.0176
 8524TIP3   OH225516   2.248   4.913   3.879  0.1509  0.4236  0.1720
 8524TIP3    H125517   2.229   4.819   3.887  1.5717  0.1075  0.2615
 8524TIP3    H225518   2.252   4.945   3.969  1.0449  0.2463  0.2050
 8525TIP3   OH225519   1.915   0.175   1.773 -0.1617 -0.1198 -0.4169
 8525TIP3    H125520   1.910   0.268   1.749 -0.2289 -0.0900 -0.2844
 8525TIP3    H225521   1.998   0.145   1.735 -0.5082 -0.1964 -1.1303
 8526TIP3   OH225522   7.540   3.242   5.558 -0.1440 -0.1814  0.1551
 8526TIP3    H125523   7.470   3.235   5.492 -0.9980  0.0899  1.0053
 8526TIP3    H225524   7.601   3.172   5.534  0.0876  0.5372 -1.5037
 8527TIP3   OH225525   1.218   7.522   4.359 -0.1710 -0.0330 -0.1904
 8527TIP3    H125526   1.179   7.448   4.312 -0.9702  0.0597  0.3078
 8527TIP3    H225527   1.167   7.598   4.330 -0.2406  0.1200  0.3379
 8528TIP3   OH225528   7.661   6.913   0.329 -0.7019  0.2764  0.3333
 8528TIP3    H125529   7.577   6.882   0.296 -0.3696 -0.5831  0.2565
 8528TIP3    H225530   7.657   7.008   0.319 -0.7205  0.0957 -1.9991
 8529TIP3   OH225531   0.740   6.522   6.185  0.0977  0.3233  0.7143
 8529TIP3    H125532   0.648   6.543   6.197  0.3055  1.0609  1.1198
 8529TIP3    H225533   0.751   6.436   6.226 -0.2580  0.5561  1.2997
 8530TIP3   OH225534   6.118   0.729   4.266  0.0768  0.5977  0.5414
 8530TIP3    H125535   6.078   0.689   4.343  0.9714 -0.2866  0.5544
 8530TIP3    H225536   6.161   0.807   4.299 -0.1649  0.6228  0.8075
 8531TIP3   OH225537   6.082   0.984   2.601  0.4996  0.5182  0.1816
 8531TIP3    H125538   6.151   1.047   2.585 -0.4559  1.3341 -0.8908
 8531TIP3    H225539   6.125   0.898   2.595  1.9547  1.0246  2.3361
 8532TIP3   OH225540   1.751   6.733   3.400 -0.0531 -0.6457  0.0865
 8532TIP3    H125541   1.763   6.827   3.413 -0.4765 -0.6231  0.3673
 8532TIP3    H225542   1.796   6.714   3.318  1.9941 -0.6305  1.1443
 8533TIP3   OH225543   1.429   7.295   4.653 -0.1035 -0.5175  0.3589
 8533TIP3    H125544   1.406   7.231   4.721  3.4677 -2.5858 -0.1465
 8533TIP3    H225545   1.511   7.333   4.682 -1.8375  3.7610  0.3790
 8534TIP3   OH225546   3.463   2.929   6.217  0.4367  0.0436 -0.4777
 8534TIP3    H125547   3.545   2.885   6.238 -0.2171 -0.1985  1.9188
 8534TIP3    H225548   3.488   3.019   6.198  1.2356  0.1682  1.0121
 8535TIP3   OH225549   4.637   4.713   5.366 -0.0329  1.1379 -0.0445
 8535TIP3    H125550   4.671   4.675   5.285 -1.8005  1.9538 -1.2286
 8535TIP3    H225551   4.664   4.805   5.362 -1.9442  1.7104 -0.8282
 8536TIP3   OH225552   2.537   3.573   3.111 -0.2820  0.2515  0.2727
 8536TIP3    H125553   2.493   3.647   3.069 -0.3104 -0.3258 -0.7650
 8536TIP3    H225554   2.476   3.543   3.178  0.2415  1.8923  1.5486
 8537TIP3   OH225555   8.133   2.295   5.815  0.3014 -0.4742 -0.0340
 8537TIP3    H125556   8.141   2.385   5.849  0.1077 -0.5637  0.2571
 8537TIP3    H225557   8.120   2.306   5.721  0.4909 -0.2051 -0.0291
 8538TIP3   OH225558   1.648   1.498   4.708 -0.6231  0.2468  0.4047
 8538TIP3    H125559   1.586   1.461   4.771 -0.1815  1.5692  1.6605
 8538TIP3    H225560   1.734   1.486   4.748 -0.0926 -0.8151 -0.9463
 8539TIP3   OH225561   6.213   0.603   1.821  0.2718 -0.0629  0.0094
 8539TIP3    H125562   6.289   0.638   1.774  1.3009  0.1510  1.7346
 8539TIP3    H225563   6.250   0.538   1.881 -0.9507 -0.2383  0.5936
 8540TIP3   OH225564   2.917   4.459   3.495 -0.3377 -0.7918 -0.1180
 8540TIP3    H125565   2.989   4.433   3.552  0.4968  0.1307 -0.7289
 8540TIP3    H225566   2.935   4.416   3.412  0.6055  0.9692 -0.8799
 8541TIP3   OH225567   3.894   1.221   1.407  0.6880 -0.2848 -0.2593
 8541TIP3    H125568   3.989   1.218   1.405  0.7776  0.5819  1.5612
 8541TIP3    H225569   3.872   1.313   1.421 -0.4382 -0.4338 -0.8962
 8542TIP3   OH225570   5.646   1.592   2.412 -0.4964 -0.1722  0.0013
 8542TIP3    H125571   5.698   1.665   2.380 -1.2893  0.5960  0.4108
 8542TIP3    H225572   5.560   1.629   2.429 -0.8695 -1.1632  0.3893
 8543TIP3   OH225573   6.527   0.939   2.477  0.0889 -0.3351 -0.0408
 8543TIP3    H125574   6.457   1.000   2.502  0.5255  0.0383  0.3046
 8543TIP3    H225575   6.525   0.871   2.545  0.7740  0.2703  0.6108
 8544TIP3   OH225576   0.888   6.347   0.153  0.4659 -0.4602  0.2033
 8544TIP3    H125577   0.806   6.299   0.141  0.4295 -0.2243 -0.5877
 8544TIP3    H225578   0.921   6.359   0.064  0.5202  0.8981  0.3884
 8545TIP3   OH225579   0.198   5.853   5.594 -0.0724 -0.2622 -0.5472
 8545TIP3    H125580   0.144   5.912   5.542  0.5845  0.0576 -0.8805
 8545TIP3    H225581   0.205   5.773   5.541 -0.2874 -0.3390 -0.4620
 8546TIP3   OH225582   0.602   4.737   0.936 -0.6264  0.3981  0.6363
 8546TIP3    H125583   0.574   4.740   1.028 -2.3294  0.5426  0.1534
 8546TIP3    H225584   0.563   4.656   0.902 -1.6666  1.3172 -0.4348
 8547TIP3   OH225585   2.850   0.349   4.188 -0.2826  0.1331  0.1824
 8547TIP3    H125586   2.866   0.268   4.237  3.2939  1.8808  2.3051
 8547TIP3    H225587   2.867   0.325   4.097  1.5291 -1.4089  0.8396
 8548TIP3   OH225588   5.136   2.328   3.165 -0.2490 -0.2145 -0.9408
 8548TIP3    H125589   5.113   2.257   3.225  0.7634  0.4062  0.2446
 8548TIP3    H225590   5.205   2.292   3.109  1.5942  0.2945  0.8592
 8549TIP3   OH225591   3.171   0.967   2.526  0.4315 -0.2281 -0.0131
 8549TIP3    H125592   3.263   0.964   2.552  0.0571  0.4456  1.5275
 8549TIP3    H225593   3.131   0.890   2.567 -0.0542  0.5125  0.9379
 8550TIP3   OH225594   7.230   3.336   6.011  0.5888 -0.3993  0.1058
 8550TIP3    H125595   7.202   3.369   6.096  1.2358 -0.1924  0.2469
 8550TIP3    H225596   7.231   3.241   6.021  1.4096 -0.3535  0.5851
 8551TIP3   OH225597   3.856   7.545   3.067  0.3521  0.1655 -0.1261
 8551TIP3    H125598   3.946   7.525   3.095 -0.4974 -2.2536  1.1555
 8551TIP3    H225599   3.865   7.626   3.016  3.0648  0.7388  1.0373
 8552TIP3   OH225600   6.473   5.817   3.772 -1.0573 -0.3509 -0.3792
 8552TIP3    H125601   6.452   5.733   3.731 -0.9826 -1.4183  1.6804
 8552TIP3    H225602   6.424   5.818   3.854 -0.3548  1.2245  0.0720
 8553TIP3   OH225603   2.047   2.745   0.789  0.5102 -0.1851 -0.7020
 8553TIP3    H125604   1.951   2.749   0.795  0.5420 -0.7856  0.7263
 8553TIP3    H225605   2.074   2.836   0.783 -0.2193 -0.0700 -3.1328
 8554TIP3   OH225606   6.476   6.126   6.042 -0.2363 -0.1067  0.3608
 8554TIP3    H125607   6.497   6.181   5.966  1.2536  2.1472  2.2359
 8554TIP3    H225608   6.473   6.037   6.008  4.7078  0.2179 -1.7010
 8555TIP3   OH225609   3.117   7.694   4.080 -0.3523  0.6266 -0.5303
 8555TIP3    H125610   3.059   7.723   4.009 -2.0176 -1.4025 -0.1164
 8555TIP3    H225611   3.077   7.730   4.159  0.1645  0.9542 -0.4155
 8556TIP3   OH225612   4.898   6.656   1.897 -0.4523  0.0090 -0.0991
 8556TIP3    H125613   4.950   6.660   1.977 -0.4096 -0.6974 -0.0846
 8556TIP3    H225614   4.948   6.598   1.839 -0.5505  0.4038 -0.5874
 8557TIP3   OH225615   1.299   1.940   3.015  0.1286  0.0707 -0.1149
 8557TIP3    H125616   1.392   1.935   3.039  0.5306  2.4801 -0.9452
 8557TIP3    H225617   1.256   1.981   3.090 -0.0491  0.1137 -0.2390
 8558TIP3   OH225618   6.314   2.700   4.934 -0.3075  0.1896 -0.4301
 8558TIP3    H125619   6.263   2.782   4.933 -0.4315  0.1075 -0.9004
 8558TIP3    H225620   6.391   2.719   4.881 -0.4140 -0.0505 -0.6688
 8559TIP3   OH225621   4.634   2.291   4.510 -0.1953  0.0627 -0.2558
 8559TIP3    H125622   4.602   2.229   4.576 -0.4493  2.7785  2.4189
 8559TIP3    H225623   4.725   2.266   4.496 -0.0731 -0.4989  1.2943
 8560TIP3   OH225624   2.318   5.049   3.490 -0.3880 -0.6785 -0.4821
 8560TIP3    H125625   2.304   5.137   3.455 -1.6681 -0.7382 -0.1728
 8560TIP3    H225626   2.293   4.990   3.418  1.5860 -0.8327 -1.1120
 8561TIP3   OH225627   0.625   0.361   6.117  0.1333 -0.1836  0.2200
 8561TIP3    H125628   0.650   0.284   6.170 -0.4878 -0.5019  0.0603
 8561TIP3    H225629   0.576   0.416   6.178 -1.5629 -1.0698 -0.2693
 8562TIP3   OH225630   7.717   1.812   5.695 -0.0240  0.1600 -0.0242
 8562TIP3    H125631   7.687   1.813   5.786 -0.8732  0.1995 -0.2879
 8562TIP3    H225632   7.741   1.902   5.676 -0.4823  0.2831 -0.0331
 8563TIP3   OH225633   3.684   1.116   5.450 -0.4681  0.0589 -0.0568
 8563TIP3    H125634   3.621   1.161   5.393 -1.2689 -1.6518 -0.5834
 8563TIP3    H225635   3.769   1.131   5.409 -0.3651  2.9695  1.0190
 8564TIP3   OH225636   3.765   0.693   2.315  0.3372  0.3078 -0.8317
 8564TIP3    H125637   3.745   0.781   2.347 -0.0474  0.4260 -1.3901
 8564TIP3    H225638   3.834   0.661   2.374  0.3497  0.9094 -0.5152
 8565TIP3   OH225639   3.132   4.744   3.263 -0.1889  0.4257 -0.2908
 8565TIP3    H125640   3.216   4.772   3.227 -1.2159  1.1532 -2.2887
 8565TIP3    H225641   3.067   4.794   3.214 -1.9219 -2.1588 -0.8260
 8566TIP3   OH225642   4.061   7.720   0.631  0.0721 -0.6770  0.0655
 8566TIP3    H125643   4.150   7.753   0.631  0.2601 -1.1671 -0.3638
 8566TIP3    H225644   4.012   7.781   0.687  0.7343 -0.5808  0.5541
 8567TIP3   OH225645   0.023   3.023   0.661  0.1238  0.2103 -0.0417
 8567TIP3    H125646   0.016   3.119   0.661 -0.5999  0.2302 -2.4268
 8567TIP3    H225647   0.117   3.006   0.665  0.3144  1.0672 -0.5350
 8568TIP3   OH225648   0.200   0.898   5.833 -0.2128 -0.0230  0.3751
 8568TIP3    H125649   0.177   0.980   5.788  0.2074 -0.3401 -0.4335
 8568TIP3    H225650   0.156   0.830   5.781 -1.3328 -0.2521  1.5737
 8569TIP3   OH225651   2.260   6.577   0.189 -0.0569 -0.1182  0.2055
 8569TIP3    H125652   2.240   6.623   0.107  0.0261 -0.8017 -0.2077
 8569TIP3    H225653   2.338   6.621   0.222 -1.1090  1.3458  0.8683
 8570TIP3   OH225654   0.876   7.137   1.609  0.5493 -0.0770 -0.7345
 8570TIP3    H125655   0.803   7.114   1.666  0.2340  0.7119 -0.8076
 8570TIP3    H225656   0.940   7.179   1.667 -0.1923  1.6393 -1.0774
 8571TIP3   OH225657   3.407   1.811   1.643  0.0032  0.2231  0.2773
 8571TIP3    H125658   3.474   1.802   1.575  0.1774  1.4404  0.2655
 8571TIP3    H225659   3.457   1.820   1.724 -0.1282  1.1620  0.2659
 8572TIP3   OH225660   8.083   4.988   5.795 -0.0241  0.1611  0.1628
 8572TIP3    H125661   8.169   4.993   5.838 -0.8775  1.0472  1.8620
 8572TIP3    H225662   8.033   4.926   5.849 -0.8648  0.6550 -0.0427
 8573TIP3   OH225663   6.782   3.737   4.983  0.1940  0.4236 -0.1151
 8573TIP3    H125664   6.796   3.658   5.035 -2.6848  0.0420  0.2752
 8573TIP3    H225665   6.765   3.805   5.048 -1.5928  0.3550 -0.4528
 8574TIP3   OH225666   7.464   7.248   5.620 -0.0915 -1.1461 -0.5096
 8574TIP3    H125667   7.542   7.282   5.664 -0.2423 -2.1053  0.5238
 8574TIP3    H225668   7.435   7.321   5.564 -0.5785  0.5828  1.8203
 8575TIP3   OH225669   0.473   6.324   0.107 -0.3984  0.5796  0.3540
 8575TIP3    H125670   0.528   6.388   0.152 -0.1722  0.5789  0.0808
 8575TIP3    H225671   0.424   6.376   0.043  0.7404  0.3109 -0.7768
 8576TIP3   OH225672   7.427   6.501   2.622 -0.7942  0.0836  0.5873
 8576TIP3    H125673   7.451   6.437   2.689  0.1092  0.6195  0.7929
 8576TIP3    H225674   7.496   6.494   2.556 -0.4895  1.0994  0.7890
 8577TIP3   OH225675   0.097   3.051   0.096 -0.0487 -0.8235 -0.1767
 8577TIP3    H125676   0.045   2.973   0.074  0.5738 -1.2900 -0.0121
 8577TIP3    H225677   0.032   3.116   0.120 -0.5467 -1.5597  0.5350
 8578TIP3   OH225678   8.163   5.155   6.361 -0.2088 -0.5400 -0.2464
 8578TIP3    H125679   8.084   5.102   6.347  0.2337 -0.9379 -1.3805
 8578TIP3    H225680   8.144   5.238   6.318 -0.2545 -0.4051  0.0365
 8579TIP3   OH225681   7.849   5.202   6.501  0.2360 -0.5921 -0.2002
 8579TIP3    H125682   7.759   5.177   6.524 -0.5550 -0.3912 -2.7348
 8579TIP3    H225683   7.904   5.155   6.563 -1.5974 -1.2560  0.9900
 8580TIP3   OH225684   7.195   6.009   6.297 -0.3130  0.5962 -0.1936
 8580TIP3    H125685   7.190   6.066   6.220 -1.8727 -0.2475 -0.7666
 8580TIP3    H225686   7.110   5.966   6.301  0.5282 -1.1140  0.6601
 8581TIP3   OH225687   6.296   6.713   5.194 -0.3059 -0.4873  0.2392
 8581TIP3    H125688   6.351   6.764   5.136 -1.7717 -1.2873 -1.9948
 8581TIP3    H225689   6.296   6.761   5.277  2.7519  0.1115  0.0083
 8582TIP3   OH225690   2.511   1.981   2.635  0.5630 -0.7887 -0.3496
 8582TIP3    H125691   2.464   1.960   2.715  0.8119  0.6221  0.1969
 8582TIP3    H225692   2.570   1.907   2.621 -1.1728 -2.2027 -0.5951
 8583TIP3   OH225693   7.676   6.011   0.234 -0.1696  0.5578 -0.0447
 8583TIP3    H125694   7.678   6.046   0.146 -1.0991  3.0111  0.8190
 8583TIP3    H225695   7.673   5.916   0.222  0.7589  0.7802 -2.5847
 8584TIP3   OH225696   1.823   1.999   0.355 -0.0611 -0.1732 -0.0590
 8584TIP3    H125697   1.842   2.089   0.381 -2.2336 -0.1446  1.7123
 8584TIP3    H225698   1.765   2.008   0.280  1.2300 -0.1751 -1.0958
 8585TIP3   OH225699   7.368   3.064   0.939 -0.3735  0.0370  0.4106
 8585TIP3    H125700   7.287   3.020   0.911  0.1208 -0.2725 -0.5889
 8585TIP3    H225701   7.385   3.028   1.026 -1.4703  0.3407  0.7741
 8586TIP3   OH225702   1.740   2.233   5.610 -0.0583  0.5123  0.4417
 8586TIP3    H125703   1.653   2.197   5.627 -0.4919  0.9198 -0.7924
 8586TIP3    H225704   1.766   2.193   5.526 -0.1030  2.2229 -0.4262
 8587TIP3   OH225705   1.979   6.993   0.092 -0.1095  0.1026 -0.2493
 8587TIP3    H125706   1.922   6.956   0.024 -0.7899  1.0451 -0.2095
 8587TIP3    H225707   1.958   6.942   0.170 -1.2134  0.6882 -0.1361
 8588TIP3   OH225708   3.247   1.748   6.471  0.2329  0.5182 -0.2629
 8588TIP3    H125709   3.241   1.667   6.522 -4.0928  0.2655 -0.8233
 8588TIP3    H225710   3.233   1.818   6.534 -2.4469  0.3587 -0.5988
 8589TIP3   OH225711   0.845   4.107   6.009 -0.0733 -0.5591 -1.0142
 8589TIP3    H125712   0.773   4.081   6.066 -0.5902  1.7138 -0.5085
 8589TIP3    H225713   0.804   4.153   5.936  0.8090  1.0062 -0.5892
 8590TIP3   OH225714   5.694   4.999   4.985  0.0464 -0.1487  0.0811
 8590TIP3    H125715   5.726   5.080   5.026  2.0521  0.6570 -2.7659
 8590TIP3    H225716   5.599   5.012   4.979  0.1120  1.1981  1.2009
 8591TIP3   OH225717   1.321   5.269   2.799  0.4268  0.0439 -0.2507
 8591TIP3    H125718   1.402   5.289   2.845 -0.9621  0.3436  2.2668
 8591TIP3    H225719   1.258   5.249   2.869 -1.0594 -2.6218 -2.1623
 8592TIP3   OH225720   3.370   0.690   4.219 -0.1792 -0.2942  0.0753
 8592TIP3    H125721   3.334   0.765   4.171 -1.8009 -0.8201  0.4445
 8592TIP3    H225722   3.317   0.615   4.191 -0.0175 -0.9203  1.3672
 8593TIP3   OH225723   2.351   7.493   6.731 -0.3587 -0.2324  0.7581
 8593TIP3    H125724   2.320   7.517   6.819 -0.4722  0.9637  0.4104
 8593TIP3    H225725   2.404   7.415   6.745 -0.5862 -0.2109  1.8587
 8594TIP3   OH225726   1.539   5.728   0.919  0.8824 -0.0343 -0.3756
 8594TIP3    H125727   1.459   5.776   0.899 -0.0803 -2.5074 -3.1443
 8594TIP3    H225728   1.609   5.778   0.876  0.2484  0.0836 -1.2832
 8595TIP3   OH225729   3.928   7.048   4.306 -0.3610 -0.1464  0.2241
 8595TIP3    H125730   3.887   6.963   4.322 -1.1474  0.3755  1.0639
 8595TIP3    H225731   3.888   7.081   4.226 -1.2318  0.1376  0.7700
 8596TIP3   OH225732   4.732   6.422   4.274  0.5044  0.0059  0.1251
 8596TIP3    H125733   4.647   6.453   4.305  0.7200 -1.0864  1.9922
 8596TIP3    H225734   4.762   6.490   4.214 -2.9179 -0.8815 -2.9521
 8597TIP3   OH225735   0.755   2.659   5.121  0.4357 -0.3165 -0.4980
 8597TIP3    H125736   0.662   2.640   5.109  0.5910 -1.6751  0.2397
 8597TIP3    H225737   0.780   2.609   5.199  1.4186  1.3453  0.3119
 8598TIP3   OH225738   3.903   0.548   5.270 -0.4483 -0.7567  0.6024
 8598TIP3    H125739   3.817   0.507   5.264 -0.1038 -1.5578  0.9286
 8598TIP3    H225740   3.957   0.484   5.317  0.0676  0.1507  1.2797
 8599TIP3   OH225741   2.329   7.224   3.055  0.0522  0.3047  0.6318
 8599TIP3    H125742   2.328   7.235   2.960 -0.5027  1.7776  0.7727
 8599TIP3    H225743   2.422   7.225   3.079  0.1978 -0.1605  0.1027
 8600TIP3   OH225744   3.905   3.656   0.946  0.1874  0.6450  0.7342
 8600TIP3    H125745   3.987   3.645   0.898 -0.9687 -0.7458 -1.0188
 8600TIP3    H225746   3.872   3.567   0.959 -1.6481  1.2180  0.2848
 8601TIP3   OH225747   4.161   4.016   0.929 -0.2157 -0.0035 -0.3157
 8601TIP3    H125748   4.169   4.081   0.860 -1.3100  0.3232 -0.1487
 8601TIP3    H225749   4.168   4.066   1.010 -2.3504  0.1253 -0.1690
 8602TIP3   OH225750   5.729   2.080   2.301  0.1585 -0.1944 -0.2642
 8602TIP3    H125751   5.815   2.114   2.325 -0.4380 -0.4837  2.7664
 8602TIP3    H225752   5.680   2.156   2.271  0.7647  0.4364  0.3156
 8603TIP3   OH225753   7.219   4.407   0.879  0.2803  0.7144  0.3802
 8603TIP3    H125754   7.208   4.464   0.803 -0.8502  0.4441  0.3236
 8603TIP3    H225755   7.161   4.446   0.946 -2.0815 -1.4080 -0.2759
 8604TIP3   OH225756   5.189   2.635   3.239 -0.1008 -0.6597  0.3434
 8604TIP3    H125757   5.204   2.544   3.214  2.6615  0.6597 -3.7974
 8604TIP3    H225758   5.267   2.661   3.287 -0.4892 -0.2141  0.7495
 8605TIP3   OH225759   0.213   6.826   4.390  0.1955  0.2801 -0.2745
 8605TIP3    H125760   0.232   6.743   4.434 -1.7983 -0.1792 -0.1780
 8605TIP3    H225761   0.239   6.812   4.299  0.4477 -0.2354 -0.1257
 8606TIP3   OH225762   3.524   7.241   0.488 -0.1993  0.6742 -0.0413
 8606TIP3    H125763   3.614   7.208   0.480  0.2211  1.9259 -0.5733
 8606TIP3    H225764   3.485   7.186   0.557  0.7968 -0.2341 -0.1751
 8607TIP3   OH225765   4.254   2.666   4.381  0.8930  0.4333 -0.0526
 8607TIP3    H125766   4.292   2.748   4.349 -0.8294  0.8433 -1.1882
 8607TIP3    H225767   4.329   2.616   4.415  2.0130  2.3207  0.3594
 8608TIP3   OH225768   8.158   2.647   6.711  0.7036 -0.0793 -0.7653
 8608TIP3    H125769   8.216   2.579   6.744 -0.7165 -1.6262 -1.3054
 8608TIP3    H225770   8.082   2.600   6.677 -1.7161  1.8458  1.4819
 8609TIP3   OH225771   7.947   7.500   5.282 -0.4521 -0.4181  0.5311
 8609TIP3    H125772   7.959   7.450   5.201 -0.2049 -0.0685  0.3482
 8609TIP3    H225773   8.036   7.523   5.309 -0.5962  0.6148  0.1722
 8610TIP3   OH225774   7.616   1.962   1.290 -0.1452  0.4336  0.3265
 8610TIP3    H125775   7.591   2.051   1.266  0.4072  0.2862 -0.8629
 8610TIP3    H225776   7.684   1.939   1.228 -0.0030 -0.6858  0.8767
 8611TIP3   OH225777   0.354   1.859   5.292 -0.5417 -0.1566 -0.5109
 8611TIP3    H125778   0.320   1.814   5.215 -0.2050 -2.8806  0.8164
 8611TIP3    H225779   0.285   1.851   5.358 -0.0831  0.4480  0.0716
 8612TIP3   OH225780   0.491   2.456   5.115 -0.0974  0.4736  0.4706
 8612TIP3    H125781   0.405   2.449   5.074 -0.5329  2.1342  1.0237
 8612TIP3    H225782   0.544   2.391   5.070 -1.9090 -1.4003  0.8522
 8613TIP3   OH225783   0.037   3.175   1.390 -0.0753  0.2546  0.5280
 8613TIP3    H125784   0.063   3.195   1.480  0.4561 -0.6366  0.5865
 8613TIP3    H225785   0.097   3.105   1.363 -1.7016 -1.1026  0.2794
 8614TIP3   OH225786   5.696   1.264   3.204 -0.0664  0.2073  0.3502
 8614TIP3    H125787   5.691   1.224   3.291 -0.8242 -1.0972 -0.2632
 8614TIP3    H225788   5.608   1.298   3.188 -0.2875 -0.6652 -0.3873
 8615TIP3   OH225789   3.251   1.828   6.215  0.6688  0.2107  0.3908
 8615TIP3    H125790   3.268   1.918   6.243  0.3081  0.6946 -0.8766
 8615TIP3    H225791   3.255   1.777   6.296 -1.0762  1.6398  1.4674
 8616TIP3   OH225792   0.302   7.732   1.896  0.8412  0.0763 -0.0003
 8616TIP3    H125793   0.306   7.732   1.992 -0.2611 -0.7843  0.0754
 8616TIP3    H225794   0.385   7.693   1.869  1.3935  0.8221  0.5744
 8617TIP3   OH225795   4.232   7.612   4.684  0.8044 -0.2529 -0.5099
 8617TIP3    H125796   4.150   7.617   4.733  0.5909  0.3609 -0.9204
 8617TIP3    H225797   4.206   7.580   4.597  1.2269 -1.6969 -0.1315
 8618TIP3   OH225798   7.846   2.543   5.372 -0.0577  0.4658 -0.4126
 8618TIP3    H125799   7.779   2.602   5.408 -1.2295  0.6552 -2.7323
 8618TIP3    H225800   7.799   2.488   5.310  1.6366 -0.7108 -0.7181
 8619TIP3   OH225801   7.842   5.891   4.649 -0.5491 -0.2925  0.4201
 8619TIP3    H125802   7.880   5.929   4.729 -0.7403  2.3524 -0.6383
 8619TIP3    H225803   7.751   5.920   4.650 -0.1431  1.2747 -1.5417
 8620TIP3   OH225804   6.174   1.345   3.307  0.2130 -0.3531 -0.0502
 8620TIP3    H125805   6.217   1.294   3.376 -0.1251 -0.4697  0.0791
 8620TIP3    H225806   6.230   1.421   3.294 -0.2522  0.2079  1.0878
 8621TIP3   OH225807   7.834   0.808   5.171 -0.2753 -0.3213  0.4364
 8621TIP3    H125808   7.921   0.823   5.210  0.2697  0.2145 -0.9202
 8621TIP3    H225809   7.794   0.895   5.168 -0.7829 -0.5339  0.8442
 8622TIP3   OH225810   5.585   2.581   4.702  0.2290 -0.2596  0.7387
 8622TIP3    H125811   5.619   2.634   4.630 -0.5364 -0.7411 -0.0044
 8622TIP3    H225812   5.523   2.638   4.747 -1.8134 -0.9456 -1.0292
 8623TIP3   OH225813   5.322   1.791   4.169  0.4163  0.5253  0.0235
 8623TIP3    H125814   5.244   1.847   4.173 -1.1855 -1.6252  3.5987
 8623TIP3    H225815   5.288   1.705   4.144  1.7183 -0.2950  0.9816
 8624TIP3   OH225816   1.894   2.443   1.694 -0.0081  0.2827  0.0590
 8624TIP3    H125817   1.987   2.431   1.709  0.6581  0.8537 -2.9198
 8624TIP3    H225818   1.875   2.389   1.617 -2.4964 -0.8736  1.3338
 8625TIP3   OH225819   1.748   3.524   0.992 -0.0881  0.1452  0.1806
 8625TIP3    H125820   1.839   3.544   1.014  0.3361  0.3228 -1.6155
 8625TIP3    H225821   1.731   3.574   0.912 -1.6149 -0.2807  0.2136
 8626TIP3   OH225822   2.253   3.110   6.107  0.0535 -1.0166 -0.4434
 8626TIP3    H125823   2.252   3.042   6.175 -0.8925 -0.8129 -0.2298
 8626TIP3    H225824   2.160   3.130   6.092  0.3297  0.8870  0.1457
 8627TIP3   OH225825   4.638   4.142   1.531 -0.3143 -0.2346  0.7728
 8627TIP3    H125826   4.664   4.129   1.440 -1.4940 -1.1915  0.5462
 8627TIP3    H225827   4.688   4.219   1.559 -0.2441  0.3465 -0.8094
 8628TIP3   OH225828   4.613   4.138   3.804  0.0006 -0.2325 -0.6341
 8628TIP3    H125829   4.675   4.120   3.875  0.7469  1.2667 -0.8678
 8628TIP3    H225830   4.591   4.230   3.815 -1.1556 -0.4076 -1.3776
 8629TIP3   OH225831   5.284   7.006   2.426  0.8274  0.0735  0.3740
 8629TIP3    H125832   5.363   7.050   2.395  1.2489 -0.9532 -0.0450
 8629TIP3    H225833   5.246   7.067   2.489  1.1647  1.2306 -0.4917
 8630TIP3   OH225834   3.086   5.156   0.063  0.1506  0.4160 -0.1938
 8630TIP3    H125835   3.169   5.196   0.089  0.5126 -0.3931 -0.0833
 8630TIP3    H225836   3.023   5.187   0.128  1.0543 -1.6555  1.8102
 8631TIP3   OH225837   2.619   6.608   5.369 -0.0625  0.1228  0.4533
 8631TIP3    H125838   2.557   6.536   5.356  0.7132 -0.1483 -2.6274
 8631TIP3    H225839   2.702   6.564   5.389 -0.2751  0.3651  1.9604
 8632TIP3   OH225840   2.408   5.911   4.825  0.1518 -0.4690 -0.1323
 8632TIP3    H125841   2.433   5.912   4.917 -0.3939  0.2072  0.0194
 8632TIP3    H225842   2.407   6.003   4.799 -1.6475 -0.4769 -0.2555
 8633TIP3   OH225843   5.650   2.302   1.990 -0.5174 -0.0108  0.7116
 8633TIP3    H125844   5.659   2.304   1.895  1.8797  0.3190  0.8741
 8633TIP3    H225845   5.739   2.313   2.023 -1.4405  1.4726  3.0250
 8634TIP3   OH225846   3.124   4.535   5.615  0.0792 -0.3233  0.4768
 8634TIP3    H125847   3.214   4.563   5.594 -0.4428  0.1484 -1.3309
 8634TIP3    H225848   3.096   4.485   5.538 -1.9202  1.2902  0.0752
 8635TIP3   OH225849   3.812   6.831   5.108 -0.0136  0.8880 -0.0732
 8635TIP3    H125850   3.810   6.766   5.037  0.3761 -0.4019  1.0392
 8635TIP3    H225851   3.724   6.828   5.146  0.0077  0.9938 -0.0159
 8636TIP3   OH225852   2.538   7.167   1.795  0.0373 -0.5347 -0.1051
 8636TIP3    H125853   2.553   7.125   1.710  1.2028  0.6038 -0.4776
 8636TIP3    H225854   2.509   7.095   1.851  1.1101 -1.6747 -0.9592
 8637TIP3   OH225855   4.600   0.627   0.574  0.4920  0.1260  0.3251
 8637TIP3    H125856   4.660   0.683   0.525  1.2109  0.1119  1.1715
 8637TIP3    H225857   4.635   0.538   0.562 -0.3345 -0.1062 -0.5598
 8638TIP3   OH225858   1.493   4.970   2.770 -0.1542  0.3012 -0.1001
 8638TIP3    H125859   1.412   4.979   2.820  0.3632 -0.9573  1.0212
 8638TIP3    H225860   1.537   4.894   2.808 -0.4156 -1.7115 -3.4555
 8639TIP3   OH225861   5.532   6.194   4.194 -0.0329  0.2091  0.1815
 8639TIP3    H125862   5.518   6.195   4.289  1.6873  0.3825  0.4732
 8639TIP3    H225863   5.461   6.247   4.159 -0.7213  0.1199  1.3697
 8640TIP3   OH225864   0.200   7.593   2.373  0.2867 -0.2492  0.1279
 8640TIP3    H125865   0.216   7.508   2.414 -1.4884 -0.8441 -0.3092
 8640TIP3    H225866   0.186   7.653   2.446 -0.1201 -0.7104  0.4378
 8641TIP3   OH225867   0.085   3.964   1.910 -0.0492  0.2781 -0.4568
 8641TIP3    H125868   0.112   3.874   1.894 -1.1571 -0.0638 -0.5357
 8641TIP3    H225869   0.035   3.960   1.991 -0.7891  0.6610 -0.8755
 8642TIP3   OH225870   8.221   5.537   0.342 -0.2161  0.2046 -0.5333
 8642TIP3    H125871   8.256   5.506   0.259  1.5802 -0.2048  0.3280
 8642TIP3    H225872   8.164   5.610   0.318  0.2292  0.0700 -2.1251
 8643TIP3   OH225873   2.632   1.357   5.219  0.4148  0.5263 -0.7383
 8643TIP3    H125874   2.704   1.409   5.254 -0.3545  0.4425  1.0924
 8643TIP3    H225875   2.559   1.418   5.209 -0.0120  0.1303 -0.1249
 8644TIP3   OH225876   5.593   3.013   6.597 -0.3758  0.1463 -0.2891
 8644TIP3    H125877   5.617   2.935   6.548  0.4492 -0.6788  1.3345
 8644TIP3    H225878   5.499   3.004   6.613 -0.3688 -0.3006 -0.4940
 8645TIP3   OH225879   2.881   5.745   1.738 -0.2037  0.0090 -0.5502
 8645TIP3    H125880   2.824   5.724   1.813 -0.9510  1.6444 -0.6273
 8645TIP3    H225881   2.941   5.670   1.732 -0.7305 -0.5851  1.0933
 8646TIP3   OH225882   6.973   1.158   1.783  0.4068  0.4201 -0.1148
 8646TIP3    H125883   7.030   1.173   1.708  1.3439  0.0402  0.5086
 8646TIP3    H225884   6.928   1.241   1.796 -0.5925  0.1925 -1.7496
 8647TIP3   OH225885   7.483   6.580   0.291  0.3164 -0.5848  0.9124
 8647TIP3    H125886   7.491   6.497   0.243 -0.0541 -0.4323  0.5849
 8647TIP3    H225887   7.390   6.601   0.287  0.7668  1.4084 -1.6562
 8648TIP3   OH225888   1.218   4.876   5.554 -0.1280  0.1218  0.2660
 8648TIP3    H125889   1.235   4.794   5.600 -0.3259  0.3231  0.7081
 8648TIP3    H225890   1.244   4.944   5.616  0.5025  0.3953 -0.2832
 8649TIP3   OH225891   3.928   0.367   2.075 -0.1895 -0.0786  0.1547
 8649TIP3    H125892   4.011   0.344   2.033 -0.1282 -0.1926  0.3391
 8649TIP3    H225893   3.932   0.462   2.085  1.1946 -0.3137  2.7885
 8650TIP3   OH225894   2.784   1.547   5.947 -1.0602  0.3087  0.1220
 8650TIP3    H125895   2.775   1.583   5.859  1.0800 -2.1681 -1.2532
 8650TIP3    H225896   2.825   1.618   5.997 -0.0602  0.9866 -1.5549
 8651TIP3   OH225897   0.306   6.130   5.297  0.1331 -0.6651  0.2018
 8651TIP3    H125898   0.400   6.145   5.283  0.1423 -0.7499  0.1664
 8651TIP3    H225899   0.272   6.213   5.329  0.5160 -1.0700  1.7212
 8652TIP3   OH225900   4.218   0.622   4.125  0.1114  0.2659  0.5028
 8652TIP3    H125901   4.203   0.560   4.196 -0.1050 -0.1091  0.1348
 8652TIP3    H225902   4.313   0.624   4.114  0.1117 -0.1049  0.4235
 8653TIP3   OH225903   4.054   0.248   5.833 -0.2264 -0.0654  0.1493
 8653TIP3    H125904   4.022   0.262   5.922 -1.7633  0.3754 -0.4286
 8653TIP3    H225905   4.112   0.322   5.816  0.6596 -0.5444  1.0272
 8654TIP3   OH225906   1.922   3.157   4.216  0.5706  0.2230  0.1878
 8654TIP3    H125907   1.974   3.076   4.211  1.4899  0.8427 -0.8048
 8654TIP3    H225908   1.962   3.207   4.286  1.2440  0.6275 -0.4665
 8655TIP3   OH225909   5.497   5.545   3.784 -0.4808 -0.0508  0.2796
 8655TIP3    H125910   5.494   5.555   3.689  0.0456 -0.0203  0.2631
 8655TIP3    H225911   5.577   5.590   3.810 -1.2572  1.0361  0.8778
 8656TIP3   OH225912   0.390   0.362   6.577  0.1441  0.5898  0.0084
 8656TIP3    H125913   0.372   0.283   6.526 -1.2893  0.7201  0.2491
 8656TIP3    H225914   0.477   0.348   6.613 -0.8390 -1.8886  1.7708
 8657TIP3   OH225915   0.886   5.890   5.350  0.2991  0.0693  0.0397
 8657TIP3    H125916   0.903   5.943   5.272  0.0347 -0.6522 -0.5221
 8657TIP3    H225917   0.889   5.952   5.422 -1.0406  1.0561 -0.6997
 8658TIP3   OH225918   0.709   2.838   4.498  0.5607  0.1745  0.0023
 8658TIP3    H125919   0.771   2.900   4.460  1.1937 -0.0950  0.5854
 8658TIP3    H225920   0.763   2.775   4.545 -0.2127  0.7260  1.6870
 8659TIP3   OH225921   5.324   1.225   5.821 -0.0664  0.1243 -0.5131
 8659TIP3    H125922   5.410   1.182   5.819 -0.1503 -0.0192 -1.3149
 8659TIP3    H225923   5.329   1.291   5.753  0.9431  3.1661  2.2694
 8660TIP3   OH225924   2.423   1.908   1.976  0.5177 -0.3840  0.0924
 8660TIP3    H125925   2.410   1.870   1.889 -3.6783 -1.3336  0.8842
 8660TIP3    H225926   2.432   2.002   1.960  2.5157 -0.7729 -1.4338
 8661TIP3   OH225927   8.282   4.731   1.583  0.5438  0.0475 -0.6093
 8661TIP3    H125928   8.277   4.785   1.662 -0.7235  0.8907 -1.2299
 8661TIP3    H225929   8.294   4.794   1.512  2.6294 -0.7549 -1.0515
 8662TIP3   OH225930   0.357   2.919   0.133  0.0597  0.0724  0.1069
 8662TIP3    H125931   0.303   2.841   0.145 -0.7782  0.4418 -1.1454
 8662TIP3    H225932   0.295   2.991   0.127  0.7765  0.7132  0.2114
 8663TIP3   OH225933   5.696   3.171   6.305  0.3377 -0.6448  0.2422
 8663TIP3    H125934   5.677   3.082   6.276  1.2655 -0.8689  0.3208
 8663TIP3    H225935   5.720   3.162   6.397  1.8841 -0.5189 -0.1227
 8664TIP3   OH225936   4.856   7.307   5.799 -0.1986 -0.4103 -0.6711
 8664TIP3    H125937   4.844   7.395   5.764 -0.0289  0.2275  0.7849
 8664TIP3    H225938   4.779   7.259   5.771 -1.9905  1.1419  1.1914
 8665TIP3   OH225939   5.311   0.994   2.631 -0.2687 -0.3332  0.2717
 8665TIP3    H125940   5.354   0.924   2.679  0.4135  0.2851  0.6006
 8665TIP3    H225941   5.342   0.985   2.541  1.0237  0.4296  0.6120
 8666TIP3   OH225942   0.458   4.721   2.377 -0.1923 -0.0389  0.0190
 8666TIP3    H125943   0.522   4.768   2.430 -0.7908  1.4284 -0.5277
 8666TIP3    H225944   0.389   4.696   2.439  0.2224 -0.3820  0.3475
 8667TIP3   OH225945   4.778   4.937   6.601 -0.4199 -0.3844 -0.5839
 8667TIP3    H125946   4.707   4.955   6.539 -0.5667  1.4567  0.0401
 8667TIP3    H225947   4.783   5.016   6.655  2.4292 -0.2182 -0.9093
 8668TIP3   OH225948   6.079   4.897   2.395  0.0299  0.0339  0.2186
 8668TIP3    H125949   6.149   4.937   2.446  0.3555 -0.1483 -0.0777
 8668TIP3    H225950   5.999   4.935   2.430  0.2362 -0.1732  0.9377
 8669TIP3   OH225951   4.412   4.134   3.133 -0.0805  0.1355  0.1579
 8669TIP3    H125952   4.487   4.139   3.074 -1.6120  2.2700 -1.7702
 8669TIP3    H225953   4.399   4.224   3.163 -1.0775 -0.4287  1.5330
 8670TIP3   OH225954   5.939   3.694   1.878 -0.9653 -0.1242 -0.0636
 8670TIP3    H125955   5.932   3.624   1.942 -1.9331 -0.7133 -0.7803
 8670TIP3    H225956   5.848   3.717   1.858 -0.6900  2.2151  1.0689
 8671TIP3   OH225957   0.604   0.984   6.721  0.5861 -0.0562  0.1692
 8671TIP3    H125958   0.673   1.036   6.680  0.3614 -0.7762 -1.1969
 8671TIP3    H225959   0.643   0.897   6.730 -0.3520 -0.6615 -1.2985
 8672TIP3   OH225960   1.834   2.097   6.661 -0.0764 -0.3874  0.1915
 8672TIP3    H125961   1.851   2.162   6.593 -2.3143  0.3043  0.2098
 8672TIP3    H225962   1.830   2.014   6.615 -0.4425 -0.0687 -0.3626
 8673TIP3   OH225963   2.592   1.124   1.259  0.0726 -0.1360 -0.4167
 8673TIP3    H125964   2.686   1.110   1.271  0.3628 -0.0362 -2.2108
 8673TIP3    H225965   2.582   1.219   1.256  0.0607 -0.1489 -1.0275
 8674TIP3   OH225966   1.021   7.197   6.266 -0.4488 -0.1906  0.0294
 8674TIP3    H125967   0.972   7.151   6.198 -2.0136  2.3217 -0.6812
 8674TIP3    H225968   1.076   7.130   6.306 -0.0538 -1.9308 -3.1565
 8675TIP3   OH225969   7.857   7.677   6.749  0.6250 -0.1879 -0.0889
 8675TIP3    H125970   7.944   7.684   6.788  0.6718 -0.8449 -0.0597
 8675TIP3    H225971   7.818   7.599   6.791  0.6539 -0.8818 -1.3038
 8676TIP3   OH225972   2.926   6.234   1.851  0.4487  0.3324  0.1576
 8676TIP3    H125973   2.901   6.225   1.759  0.6675 -1.9825  0.2749
 8676TIP3    H225974   2.980   6.157   1.869  1.0742  1.1484  2.0270
 8677TIP3   OH225975   5.345   3.223   0.443 -0.1683  0.2790 -0.9353
 8677TIP3    H125976   5.412   3.262   0.500 -0.4726  1.1735 -1.1752
 8677TIP3    H225977   5.302   3.157   0.498  1.0288 -0.4504 -0.8360
 8678TIP3   OH225978   4.748   6.554   0.437  0.0036  0.5208 -0.0560
 8678TIP3    H125979   4.798   6.495   0.494  0.5243 -0.2187 -1.2353
 8678TIP3    H225980   4.776   6.642   0.462  2.3341  0.1312 -1.0092
 8679TIP3   OH225981   1.216   1.919   1.837  0.0150 -0.1622  0.1487
 8679TIP3    H125982   1.286   1.858   1.814  1.1178  1.5648 -1.3337
 8679TIP3    H225983   1.261   2.003   1.850 -1.8826  1.3362 -2.2550
 8680TIP3   OH225984   7.692   5.762   6.327  0.2327 -0.2196  0.3465
 8680TIP3    H125985   7.612   5.776   6.278 -0.0119  0.5842  0.9575
 8680TIP3    H225986   7.753   5.724   6.264  0.4595  2.2819 -1.0485
 8681TIP3   OH225987   7.240   0.835   0.945 -0.4339  0.2123 -0.3201
 8681TIP3    H125988   7.283   0.750   0.952  0.7589  0.7984 -0.3206
 8681TIP3    H225989   7.266   0.883   1.023 -1.0875  0.5970 -0.3242
 8682TIP3   OH225990   3.110   5.793   4.473 -0.5671  0.0891 -0.1320
 8682TIP3    H125991   3.022   5.826   4.492 -0.7911 -0.2657 -0.5502
 8682TIP3    H225992   3.168   5.857   4.514 -1.0027  0.7305 -0.5005
 8683TIP3   OH225993   8.239   6.219   4.774  0.2547 -0.6903  0.0661
 8683TIP3    H125994   8.237   6.309   4.807 -1.8356 -0.4637 -0.5550
 8683TIP3    H225995   8.322   6.184   4.806  1.3798  1.6126 -0.1087
 8684TIP3   OH225996   6.358   6.384   3.910 -0.0809 -0.1577  0.0937
 8684TIP3    H125997   6.337   6.301   3.952  0.7280 -0.5357 -0.2371
 8684TIP3    H225998   6.445   6.407   3.943 -0.5226  0.8559  0.6268
 8685TIP3   OH225999   0.497   0.641   0.735  0.3555 -0.0781 -0.0893
 8685TIP3    H126000   0.518   0.614   0.824 -0.0260 -0.7442 -0.1959
 8685TIP3    H226001   0.402   0.657   0.736  0.0641 -1.6175 -0.7506
 8686TIP3   OH226002   6.530   6.198   4.078 -0.0559 -0.1582  0.3185
 8686TIP3    H126003   6.544   6.233   4.166 -4.0057  0.6382  0.8093
 8686TIP3    H226004   6.436   6.180   4.074 -0.3058  0.9791 -4.1385
 8687TIP3   OH226005   6.684   0.564   3.858 -0.0816  0.1952 -0.2222
 8687TIP3    H126006   6.688   0.495   3.792  2.6320  1.0893 -1.1018
 8687TIP3    H226007   6.625   0.629   3.821 -0.0973 -0.1734 -0.8683
 8688TIP3   OH226008   7.353   0.952   3.719  0.1597  0.0474  0.5106
 8688TIP3    H126009   7.289   0.927   3.786  0.6808  0.2060  1.0758
 8688TIP3    H226010   7.373   0.870   3.673  0.3628 -0.1973  1.0378
 8689TIP3   OH226011   0.072   0.800   1.759 -0.5758 -0.6976 -0.3289
 8689TIP3    H126012   0.019   0.873   1.727 -0.5527 -0.1882  0.7419
 8689TIP3    H226013   0.122   0.837   1.831  0.9464 -1.2788 -1.0478
 8690TIP3   OH226014   4.989   6.440   0.110  0.3851 -0.2352 -0.2279
 8690TIP3    H126015   4.984   6.350   0.077 -1.3332  0.4604 -2.0771
 8690TIP3    H226016   5.060   6.480   0.059  1.6579 -0.6848  1.1184
 8691TIP3   OH226017   1.909   6.106   3.875  0.3268  0.2549 -0.2173
 8691TIP3    H126018   1.824   6.085   3.835  0.4368 -0.9217  0.1145
 8691TIP3    H226019   1.917   6.044   3.948  1.1926  0.7755  0.1481
 8692TIP3   OH226020   4.311   6.908   3.620 -0.6895 -0.2758  0.6059
 8692TIP3    H126021   4.261   6.861   3.687  0.3435 -0.1691  1.4837
 8692TIP3    H226022   4.355   6.978   3.668  1.0869 -0.9702  0.0427
 8693TIP3   OH226023   2.777   5.891   4.727 -0.1729  0.3888  0.2872
 8693TIP3    H126024   2.788   5.898   4.632  1.6331  1.3085  0.5238
 8693TIP3    H226025   2.803   5.801   4.748  0.1742  0.4238  0.0025
 8694TIP3   OH226026   7.599   0.154   1.008 -0.5319  0.4971  1.0139
 8694TIP3    H126027   7.624   0.168   1.099 -1.5562  1.7399  1.1268
 8694TIP3    H226028   7.647   0.219   0.958 -0.0859 -0.0837  0.6710
 8695TIP3   OH226029   3.751   6.608   0.665  0.0341  0.0711  0.0661
 8695TIP3    H126030   3.757   6.652   0.580 -2.3943  0.3411 -0.0432
 8695TIP3    H226031   3.683   6.657   0.712 -0.2947 -1.4782  1.2661
 8696TIP3   OH226032   0.851   5.255   1.205 -0.0330 -0.3216 -0.3141
 8696TIP3    H126033   0.774   5.210   1.169  0.7493 -1.6028 -0.4447
 8696TIP3    H226034   0.901   5.281   1.128 -0.1295  0.1325 -0.2212
 8697TIP3   OH226035   1.968   4.179   0.322  0.1473  0.1926  0.5414
 8697TIP3    H126036   2.006   4.095   0.296  0.5741  0.4472  0.3368
 8697TIP3    H226037   2.018   4.205   0.399  0.7562  0.7936 -0.0512
 8698TIP3   OH226038   8.121   4.406   0.440 -0.1140  0.2432 -0.3393
 8698TIP3    H126039   8.034   4.446   0.447  0.7359  1.9616  1.2698
 8698TIP3    H226040   8.174   4.472   0.396  0.1243 -1.3659 -2.6756
 8699TIP3   OH226041   7.466   4.045   4.394 -0.2195  0.6947 -1.0328
 8699TIP3    H126042   7.508   4.119   4.437 -0.5132  0.1154  0.3084
 8699TIP3    H226043   7.534   3.978   4.389 -0.7784 -0.0293  0.5913
 8700TIP3   OH226044   4.869   5.771   1.825 -0.4476 -0.4475  0.3967
 8700TIP3    H126045   4.842   5.681   1.807 -0.6710 -0.4799  0.8794
 8700TIP3    H226046   4.919   5.766   1.906 -2.3718  0.1462  1.7043
 8701TIP3   OH226047   4.858   5.875   6.540 -0.2664  0.1812  0.3971
 8701TIP3    H126048   4.839   5.852   6.631 -1.4557 -0.9868 -0.1109
 8701TIP3    H226049   4.805   5.815   6.488  2.1814 -0.7924 -1.1380
 8702TIP3   OH226050   3.935   1.427   5.765 -0.1346 -0.3225  0.1122
 8702TIP3    H126051   3.892   1.511   5.776  0.0013 -0.1669 -0.5301
 8702TIP3    H226052   3.864   1.364   5.756 -0.2549 -0.0226 -1.3001
 8703TIP3   OH226053   4.399   5.857   5.162  0.0958 -0.0336  0.5035
 8703TIP3    H126054   4.484   5.855   5.206  0.2802 -0.8762  0.1081
 8703TIP3    H226055   4.416   5.828   5.073 -0.5899 -0.0999  0.3862
 8704TIP3   OH226056   4.465   6.615   2.378  0.5292 -0.1131 -0.2411
 8704TIP3    H126057   4.502   6.602   2.291  0.5572 -1.7085 -0.0209
 8704TIP3    H226058   4.502   6.545   2.431  0.7917  1.0310  1.1695
 8705TIP3   OH226059   6.126   3.963   0.474  0.1810 -0.0633  0.6007
 8705TIP3    H126060   6.064   3.934   0.541 -0.3387  0.8568  0.5520
 8705TIP3    H226061   6.121   3.896   0.406 -0.0875 -0.4652  1.0100
 8706TIP3   OH226062   3.219   0.815   5.869  0.9718  0.0639 -0.0954
 8706TIP3    H126063   3.127   0.807   5.893  1.3217 -0.2978  1.1909
 8706TIP3    H226064   3.245   0.901   5.900  1.2739 -0.1683  0.3122
 8707TIP3   OH226065   5.786   4.750   0.568 -0.2894  0.4511  0.3013
 8707TIP3    H126066   5.705   4.779   0.610  0.2219  1.8386  0.3675
 8707TIP3    H226067   5.844   4.728   0.640  0.1223  1.5271  0.3065
 8708TIP3   OH226068   2.472   4.903   2.147 -0.0632 -0.1919  0.5372
 8708TIP3    H126069   2.399   4.847   2.122  0.2041  0.3252 -1.6577
 8708TIP3    H226070   2.432   4.984   2.176 -0.3817 -0.2840  0.3582
 8709TIP3   OH226071   1.291   3.273   4.067  0.1080  0.1395 -0.1645
 8709TIP3    H126072   1.258   3.335   4.001  2.3634  0.8061 -0.7472
 8709TIP3    H226073   1.272   3.187   4.029  0.9281  0.5102 -1.5091
 8710TIP3   OH226074   2.647   4.539   3.348 -0.1397 -0.3430  0.5088
 8710TIP3    H126075   2.566   4.578   3.316  0.6073  0.6028 -0.2902
 8710TIP3    H226076   2.686   4.498   3.271  1.7417  2.0644  0.0338
 8711TIP3   OH226077   1.319   6.369   5.111  0.0690  0.1702 -0.0029
 8711TIP3    H126078   1.236   6.413   5.092 -0.3112 -0.3148  0.4864
 8711TIP3    H226079   1.378   6.440   5.135 -0.1037  0.5542 -0.6795
 8712TIP3   OH226080   1.719   0.718   3.505  0.8473  0.3615 -0.0513
 8712TIP3    H126081   1.684   0.711   3.594  0.6595  0.6355 -0.1009
 8712TIP3    H226082   1.813   0.708   3.515  0.8046  0.1660  0.1534
 8713TIP3   OH226083   2.222   4.443   1.521 -0.0536 -0.6409 -0.4413
 8713TIP3    H126084   2.220   4.408   1.610 -2.3756 -1.3657 -0.7283
 8713TIP3    H226085   2.132   4.435   1.489 -0.5030  4.1980 -1.1180
 8714TIP3   OH226086   3.413   2.173   6.040 -1.0007 -0.4666 -0.3647
 8714TIP3    H126087   3.381   2.113   5.972  0.8517 -0.5531 -1.2230
 8714TIP3    H226088   3.428   2.255   5.993 -0.4754 -0.2867  0.1195
 8715TIP3   OH226089   7.485   1.106   5.606  0.1566 -0.4276  0.5062
 8715TIP3    H126090   7.537   1.072   5.678  0.0093 -1.8757 -0.0438
 8715TIP3    H226091   7.488   1.201   5.617  1.8647 -0.5339  1.2090
 8716TIP3   OH226092   1.620   6.481   3.006  0.1429 -0.0245 -0.0871
 8716TIP3    H126093   1.678   6.476   2.930 -1.8844  0.0991 -1.7131
 8716TIP3    H226094   1.575   6.397   3.008  0.4656 -0.1944  1.2663
 8717TIP3   OH226095   1.915   5.028   0.790  0.3530 -0.5862  0.2729
 8717TIP3    H126096   2.002   4.997   0.818  0.5003 -1.3399 -0.9589
 8717TIP3    H226097   1.918   5.122   0.804  0.8716 -0.7677  1.5455
 8718TIP3   OH226098   2.825   5.641   6.036 -0.1223  0.4316  0.2585
 8718TIP3    H126099   2.908   5.637   5.989  0.4200  0.4849  1.1862
 8718TIP3    H226100   2.793   5.730   6.020  1.1804  1.2433  1.8077
 8719TIP3   OH226101   0.124   0.101   4.262  0.0267  0.0834 -0.1678
 8719TIP3    H126102   0.180   0.035   4.303 -0.0923  0.3332  0.4172
 8719TIP3    H226103   0.035   0.066   4.272 -0.0158  0.2174 -0.0692
 8720TIP3   OH226104   1.478   0.632   3.891 -0.3426 -0.6291  0.0178
 8720TIP3    H126105   1.546   0.692   3.861 -1.2577 -0.2544 -1.3769
 8720TIP3    H226106   1.395   0.674   3.867 -1.0634 -1.4997  0.8586
 8721TIP3   OH226107   1.155   0.604   2.127 -0.1731 -0.3777  0.3105
 8721TIP3    H126108   1.174   0.605   2.033  1.6660 -3.5324  0.5025
 8721TIP3    H226109   1.068   0.564   2.133 -0.0262 -0.7680 -0.0562
 8722TIP3   OH226110   5.058   7.215   1.398  0.2485 -0.0391 -0.4446
 8722TIP3    H126111   5.046   7.211   1.492  0.3278 -0.3060 -0.4448
 8722TIP3    H226112   5.131   7.157   1.380  1.3017  1.2406 -0.4898
 8723TIP3   OH226113   6.427   5.401   5.766 -0.2108 -0.3159  0.3719
 8723TIP3    H126114   6.365   5.405   5.692  1.1556  1.6929 -0.7774
 8723TIP3    H226115   6.373   5.375   5.841 -2.6057  1.7088 -0.4739
 8724TIP3   OH226116   2.318   3.771   4.446  0.4248  0.2470  0.0325
 8724TIP3    H126117   2.369   3.706   4.398 -1.5293  0.5638 -2.7400
 8724TIP3    H226118   2.355   3.855   4.421 -0.7527  0.4275 -1.2526
 8725TIP3   OH226119   3.993   3.705   1.705 -0.5217  0.2966 -0.1283
 8725TIP3    H126120   4.086   3.697   1.685 -0.6313  1.2995 -1.1067
 8725TIP3    H226121   3.972   3.796   1.688 -1.8113 -0.0438 -0.4773
 8726TIP3   OH226122   7.386   7.219   4.435  0.3045  0.5995 -0.0073
 8726TIP3    H126123   7.423   7.307   4.441 -0.1744  0.8940 -1.0416
 8726TIP3    H226124   7.292   7.233   4.444  0.1179  0.3556 -1.3741
 8727TIP3   OH226125   5.529   2.354   6.775  0.6009 -0.0034 -0.7635
 8727TIP3    H126126   5.568   2.385   6.856 -1.2102  0.1956  0.0768
 8727TIP3    H226127   5.602   2.351   6.713  1.7808  1.0606  0.5063
 8728TIP3   OH226128   5.280   7.571   3.280  0.0424  0.7769  0.1572
 8728TIP3    H126129   5.329   7.648   3.310 -1.6963  1.8078  0.4926
 8728TIP3    H226130   5.203   7.568   3.336 -0.0435 -1.1242  0.0169
 8729TIP3   OH226131   6.588   7.694   5.745 -0.4777  0.3363  0.3325
 8729TIP3    H126132   6.505   7.661   5.711 -0.7333  1.5121 -0.2292
 8729TIP3    H226133   6.655   7.658   5.687 -0.3819 -1.9577  1.7295
 8730TIP3   OH226134   5.831   6.028   3.312  0.3106  0.1619 -0.4625
 8730TIP3    H126135   5.923   6.035   3.338 -0.2292  1.0273  1.3743
 8730TIP3    H226136   5.783   6.023   3.395 -1.2922 -0.5461 -1.3832
 8731TIP3   OH226137   2.212   6.689   1.592  0.5350 -0.4843  0.2332
 8731TIP3    H126138   2.264   6.744   1.650 -2.2707  1.9112  0.7266
 8731TIP3    H226139   2.138   6.744   1.567 -2.2521 -3.8225  0.2907
 8732TIP3   OH226140   4.404   6.280   2.299 -0.0647 -0.1892 -0.1449
 8732TIP3    H126141   4.437   6.306   2.385 -0.7831  2.2703 -0.5309
 8732TIP3    H226142   4.401   6.185   2.302  0.5205 -0.1929  2.3190
 8733TIP3   OH226143   8.051   7.501   2.849  0.7407  0.2445  0.9498
 8733TIP3    H126144   8.080   7.545   2.929  2.4505  0.7453  0.1125
 8733TIP3    H226145   8.056   7.569   2.782 -0.7906 -0.1312  0.4166
 8734TIP3   OH226146   5.224   4.667   6.056  0.1515 -0.4422  0.5970
 8734TIP3    H126147   5.302   4.664   6.113  1.1203 -0.0159 -0.6519
 8734TIP3    H226148   5.247   4.611   5.982 -0.6681 -0.1526  0.1185
 8735TIP3   OH226149   2.582   0.783   4.917 -0.0509  0.2848  0.2304
 8735TIP3    H126150   2.670   0.747   4.917  0.1048  0.6299  1.3384
 8735TIP3    H226151   2.543   0.751   4.835  1.8301  1.9437 -1.4423
 8736TIP3   OH226152   3.181   3.111   4.477 -0.0414 -0.1442  0.2243
 8736TIP3    H126153   3.228   3.043   4.428  0.7627  1.4235 -1.2911
 8736TIP3    H226154   3.207   3.193   4.434 -3.2715  0.9206  0.0739
 8737TIP3   OH226155   0.921   1.183   2.529  0.2322 -0.3297  0.4414
 8737TIP3    H126156   0.941   1.099   2.488 -2.0759 -0.5346 -0.3807
 8737TIP3    H226157   0.888   1.160   2.616 -0.0911 -0.2597  0.3389
 8738TIP3   OH226158   4.435   7.579   2.673 -0.0596 -0.0061 -0.7709
 8738TIP3    H126159   4.517   7.570   2.721  0.2993 -3.5830 -1.7232
 8738TIP3    H226160   4.426   7.673   2.658  2.9625  0.6771  0.8317
 8739TIP3   OH226161   3.574   0.902   4.457 -0.0075  0.2043 -0.2474
 8739TIP3    H126162   3.626   0.874   4.382 -0.4864  0.0578 -0.5256
 8739TIP3    H226163   3.536   0.986   4.431 -0.6620 -0.1386 -0.4003
 8740TIP3   OH226164   0.874   7.741   1.866 -0.3820  0.4506  0.4567
 8740TIP3    H126165   0.821   7.661   1.866 -0.5733  0.5769  0.0605
 8740TIP3    H226166   0.937   7.727   1.936 -0.9753  0.3207  0.9775
 8741TIP3   OH226167   5.333   2.755   0.587  0.0709 -0.1827 -0.3391
 8741TIP3    H126168   5.373   2.732   0.503  1.2283  0.3813  0.0460
 8741TIP3    H226169   5.393   2.720   0.653 -0.2336  0.4065  0.2579
 8742TIP3   OH226170   4.679   0.992   3.550 -0.4839 -0.8473 -0.2080
 8742TIP3    H126171   4.657   0.978   3.642  0.5882 -2.4999 -0.1578
 8742TIP3    H226172   4.642   1.078   3.529 -0.1665 -0.1218  1.9503
 8743TIP3   OH226173   6.209   2.909   0.018 -0.1309 -0.6263 -0.0771
 8743TIP3    H126174   6.125   2.868   0.037  0.6496 -1.7402  1.1676
 8743TIP3    H226175   6.252   2.917   0.104  2.1403 -2.6212 -0.9338
 8744TIP3   OH226176   1.096   1.802   2.648 -0.0505  0.2794 -0.0185
 8744TIP3    H126177   1.169   1.758   2.605 -1.0581 -1.4168 -0.0901
 8744TIP3    H226178   1.031   1.814   2.579 -0.7378 -0.3285  0.4973
 8745TIP3   OH226179   6.866   6.405   1.708  0.3611  0.3130 -0.9982
 8745TIP3    H126180   6.894   6.473   1.770  1.3327 -0.6590 -0.3214
 8745TIP3    H226181   6.925   6.414   1.634  0.6900  0.0144 -0.7736
 8746TIP3   OH226182   2.239   4.648   1.175 -0.2667  0.0236 -0.1885
 8746TIP3    H126183   2.291   4.647   1.255 -0.2508  0.0745 -0.1980
 8746TIP3    H226184   2.177   4.576   1.185  1.3051 -1.5385 -1.1607
 8747TIP3   OH226185   8.012   4.021   2.107 -0.7765  0.2098  0.0090
 8747TIP3    H126186   8.062   4.099   2.081 -1.2950  0.5112 -0.0950
 8747TIP3    H226187   8.005   4.029   2.202 -1.4574  0.6775 -0.0751
 8748TIP3   OH226188   3.105   5.280   5.505  0.1908  0.6591  0.2875
 8748TIP3    H126189   3.087   5.348   5.570  1.0033 -0.0918  1.3437
 8748TIP3    H226190   3.200   5.276   5.500  0.1523  1.0490 -1.3693
 8749TIP3   OH226191   3.408   3.978   6.096  0.7932 -0.5634 -0.0630
 8749TIP3    H126192   3.331   3.977   6.040 -1.6549 -1.0018  3.0512
 8749TIP3    H226193   3.458   3.901   6.069 -0.6486 -1.1754 -1.1381
 8750TIP3   OH226194   4.708   7.236   3.947  0.1240 -0.7837 -0.5482
 8750TIP3    H126195   4.708   7.312   4.006 -1.0571 -0.1144 -1.3466
 8750TIP3    H226196   4.759   7.265   3.871 -0.7963 -0.5574 -1.0992
 8751TIP3   OH226197   5.492   1.103   4.220 -0.2249 -0.6216  0.3726
 8751TIP3    H126198   5.463   1.111   4.129  0.0567  0.6341  0.3744
 8751TIP3    H226199   5.558   1.033   4.218  1.7752  1.1734 -0.9479
 8752TIP3   OH226200   3.607   6.010   3.119 -0.0173 -0.1886 -0.0637
 8752TIP3    H126201   3.527   6.024   3.069  0.4489 -2.4717 -1.5990
 8752TIP3    H226202   3.581   6.027   3.210 -1.7129  0.9935 -0.7165
 8753TIP3   OH226203   6.778   7.676   3.859 -0.0255 -0.0780 -0.0506
 8753TIP3    H126204   6.814   7.734   3.926 -2.0219  0.2370  0.8408
 8753TIP3    H226205   6.732   7.608   3.909 -1.0013 -0.2007 -1.0812
 8754TIP3   OH226206   7.501   3.661   2.656  0.0268 -0.4963  0.0514
 8754TIP3    H126207   7.460   3.580   2.624  0.4289 -0.1890 -1.2652
 8754TIP3    H226208   7.589   3.634   2.682  0.0067 -0.5675  0.0471
 8755TIP3   OH226209   6.734   4.531   3.249  0.1081 -0.0309  0.1472
 8755TIP3    H126210   6.776   4.608   3.211 -1.0155  0.1033 -0.8856
 8755TIP3    H226211   6.806   4.470   3.264  0.7707  0.4477 -0.9286
 8756TIP3   OH226212   0.112   0.906   6.118 -0.3397 -0.3291  0.0375
 8756TIP3    H126213   0.147   0.888   6.031 -0.4546  0.5258 -0.1934
 8756TIP3    H226214   0.074   0.994   6.111 -0.4589 -0.3008  0.9165
 8757TIP3   OH226215   1.225   7.671   1.726  0.4786 -0.2279 -0.9013
 8757TIP3    H126216   1.183   7.602   1.777 -1.0846  1.4181  0.1512
 8757TIP3    H226217   1.166   7.746   1.733  1.7949  1.0513 -2.5246
 8758TIP3   OH226218   2.089   3.090   4.963 -0.2214 -0.5006 -0.4402
 8758TIP3    H126219   2.076   3.109   5.056  0.0572 -0.4201 -0.4170
 8758TIP3    H226220   2.110   2.997   4.960  0.9658 -0.2661 -0.2926
 8759TIP3   OH226221   2.275   2.322   5.149  0.4082 -0.2167 -0.2961
 8759TIP3    H126222   2.257   2.361   5.063  2.8883  1.7613 -0.0339
 8759TIP3    H226223   2.188   2.304   5.185 -0.7528  0.8088 -2.3716
 8760TIP3   OH226224   6.136   6.263   6.638  0.7354  0.0171  0.1022
 8760TIP3    H126225   6.159   6.175   6.608  1.9956  0.5791 -0.6725
 8760TIP3    H226226   6.166   6.321   6.567  1.1641  1.1664  1.1812
 8761TIP3   OH226227   4.338   4.944   4.024 -0.1224  0.1341 -0.3066
 8761TIP3    H126228   4.411   5.006   4.012 -0.7927  1.0071 -0.0153
 8761TIP3    H226229   4.344   4.886   3.948  1.8721 -0.8816  0.5512
 8762TIP3   OH226230   1.073   4.655   4.270 -0.0133  0.4240  0.4788
 8762TIP3    H126231   1.062   4.748   4.288  1.6069  0.6690  0.3443
 8762TIP3    H226232   1.162   4.635   4.297  0.1322 -0.7797 -0.7493
 8763TIP3   OH226233   4.941   7.109   5.061  0.5492 -0.1606  0.3864
 8763TIP3    H126234   5.022   7.079   5.104  0.4444 -0.4675  0.3676
 8763TIP3    H226235   4.925   7.195   5.100  1.8138  0.6586 -0.8357
 8764TIP3   OH226236   3.852   2.460   1.795  0.2716  0.4726 -0.5676
 8764TIP3    H126237   3.838   2.381   1.848  2.9270  0.1501 -0.2421
 8764TIP3    H226238   3.764   2.498   1.787 -0.5655 -0.5172  2.3876
 8765TIP3   OH226239   4.796   7.724   6.628 -0.3892 -0.8863  0.1277
 8765TIP3    H126240   4.767   7.710   6.538 -0.6527  2.1117 -0.3670
 8765TIP3    H226241   4.859   7.653   6.644  1.0260 -0.5501 -3.0535
 8766TIP3   OH226242   7.954   6.042   6.701  0.0889 -0.3170  0.0475
 8766TIP3    H126243   7.928   6.030   6.610 -0.2971 -0.7053  0.2105
 8766TIP3    H226244   7.974   6.136   6.708 -0.5707 -0.1546 -0.2534
 8767TIP3   OH226245   8.222   4.635   3.182  0.0949 -0.4924 -0.0172
 8767TIP3    H126246   8.240   4.557   3.235  2.4591 -0.0154 -0.0294
 8767TIP3    H226247   8.234   4.708   3.242  2.9179  0.0641 -1.1201
 8768TIP3   OH226248   1.752   3.254   2.616  0.0916 -0.4841  0.1133
 8768TIP3    H126249   1.812   3.187   2.648 -0.6383 -1.7368 -1.0410
 8768TIP3    H226250   1.744   3.237   2.522 -1.2685  0.2936  0.0616
 8769TIP3   OH226251   6.498   0.164   1.441 -0.4632  0.0421 -0.6163
 8769TIP3    H126252   6.483   0.159   1.346 -0.4807  0.0219 -0.6123
 8769TIP3    H226253   6.459   0.084   1.476 -0.8922  0.2880 -0.5321
 8770TIP3   OH226254   0.913   5.233   2.024  0.1372  0.3765  0.0697
 8770TIP3    H126255   0.849   5.162   2.028 -0.0968  0.5985  0.2297
 8770TIP3    H226256   0.880   5.291   1.955 -0.2532  0.8996  0.6904
 8771TIP3   OH226257   5.544   2.721   6.029 -0.0092  0.1093 -0.1746
 8771TIP3    H126258   5.469   2.670   5.998 -0.6579 -1.3682  3.3907
 8771TIP3    H226259   5.618   2.660   6.025 -0.0078  0.0474  0.6583
 8772TIP3   OH226260   4.844   4.566   2.136  0.1508 -0.2704 -0.1236
 8772TIP3    H126261   4.898   4.487   2.133 -0.4308 -0.6805 -0.0481
 8772TIP3    H226262   4.902   4.636   2.105  0.6443 -0.7425 -0.2897
 8773TIP3   OH226263   0.141   3.958   3.424  0.0110 -0.1249  0.5809
 8773TIP3    H126264   0.050   3.973   3.450 -0.0094 -1.3583  1.3068
 8773TIP3    H226265   0.149   3.999   3.338 -1.2700 -0.1418  0.4406
 8774TIP3   OH226266   7.755   2.767   4.501  0.1289  0.4985  0.2996
 8774TIP3    H126267   7.671   2.734   4.532  0.5885 -1.6575 -0.5782
 8774TIP3    H226268   7.820   2.722   4.554  0.7680  1.7815  0.6427
 8775TIP3   OH226269   2.648   0.082   5.051 -0.5879  0.1427  0.2075
 8775TIP3    H126270   2.592   0.053   5.123  0.9326  0.7912  1.7196
 8775TIP3    H226271   2.729   0.111   5.093  2.0652 -3.2595 -2.0024
 8776TIP3   OH226272   0.273   4.013   2.184 -0.5222 -0.5654 -0.0872
 8776TIP3    H126273   0.241   3.959   2.112  0.8932 -1.6036  0.0189
 8776TIP3    H226274   0.310   4.090   2.143 -2.1624  0.1779 -0.2681
 8777TIP3   OH226275   3.537   0.443   4.434 -0.1911 -0.9933  0.0739
 8777TIP3    H126276   3.497   0.526   4.460  0.1141 -0.6446 -0.5621
 8777TIP3    H226277   3.529   0.388   4.512  0.4716 -0.0542  0.8360
 8778TIP3   OH226278   0.925   3.272   2.823  0.1657 -0.3730  0.0736
 8778TIP3    H126279   0.980   3.262   2.745  0.4336  0.6757  0.1196
 8778TIP3    H226280   0.963   3.347   2.870 -2.9157  2.2257 -1.2647
 8779TIP3   OH226281   6.817   4.034   0.718 -0.0385 -0.0585  0.0755
 8779TIP3    H126282   6.788   4.094   0.786  2.1718  2.1910 -0.8184
 8779TIP3    H226283   6.831   4.089   0.641  1.2187 -1.8573 -1.0648
 8780TIP3   OH226284   6.982   3.720   3.578  0.5598 -0.4078  0.0657
 8780TIP3    H126285   7.013   3.746   3.664  1.6049 -2.1437  0.2644
 8780TIP3    H226286   6.983   3.800   3.525  0.2221  0.6033  1.5501
 8781TIP3   OH226287   6.210   0.800   1.424 -0.1681 -0.1885 -0.1410
 8781TIP3    H126288   6.143   0.826   1.488 -0.6120 -1.6285  0.0200
 8781TIP3    H226289   6.160   0.770   1.348  0.3602  1.3260 -1.1173
 8782TIP3   OH226290   1.015   3.756   4.704  0.6461 -0.3316 -0.0720
 8782TIP3    H126291   1.040   3.712   4.785 -1.3287 -2.9801 -0.7515
 8782TIP3    H226292   1.076   3.722   4.638 -0.3071 -1.4653 -0.4173
 8783TIP3   OH226293   2.244   4.078   2.538 -0.2423 -0.0833  0.1174
 8783TIP3    H126294   2.177   4.022   2.577  0.1143 -0.2397  0.5098
 8783TIP3    H226295   2.285   4.023   2.471 -0.5661  0.0440 -0.1888
 8784TIP3   OH226296   0.411   0.674   5.935  0.6635 -0.2448  0.0361
 8784TIP3    H126297   0.331   0.629   5.962  0.7950 -1.2705 -1.2031
 8784TIP3    H226298   0.379   0.746   5.879  0.5616 -0.0863  0.2968
 8785TIP3   OH226299   1.036   2.290   3.353  0.3890  0.1963 -0.0559
 8785TIP3    H126300   1.115   2.288   3.407 -0.1994 -1.5408  0.8186
 8785TIP3    H226301   0.972   2.239   3.402 -0.8128  0.2933 -1.4554
 8786TIP3   OH226302   6.113   4.744   2.990 -0.3131 -0.1451  1.2192
 8786TIP3    H126303   6.206   4.727   3.007 -0.1467  0.6477  1.1227
 8786TIP3    H226304   6.077   4.768   3.075 -0.1124  0.9419  1.0142
 8787TIP3   OH226305   4.655   0.174   2.128 -0.5174 -0.3536 -0.1204
 8787TIP3    H126306   4.677   0.199   2.038  0.5792 -1.6902 -0.2507
 8787TIP3    H226307   4.620   0.254   2.167  1.7036  1.0812 -0.8745
 8788TIP3   OH226308   5.293   3.639   5.567 -0.0915 -0.0084  0.2331
 8788TIP3    H126309   5.338   3.576   5.624 -0.9738 -0.3937  0.5145
 8788TIP3    H226310   5.229   3.681   5.624  1.0810  1.8307  0.2859
 8789TIP3   OH226311   3.153   7.368   5.102 -0.1866 -0.3821 -0.2441
 8789TIP3    H126312   3.095   7.306   5.059 -0.0598  0.4021 -1.6049
 8789TIP3    H226313   3.094   7.435   5.137 -0.2500 -0.7199  0.2990
 8790TIP3   OH226314   5.532   3.331   0.123 -0.0406 -0.2077  0.0695
 8790TIP3    H126315   5.525   3.237   0.113  2.1525 -0.4300  0.0564
 8790TIP3    H226316   5.505   3.367   0.039  0.7213 -0.9564 -0.5171
 8791TIP3   OH226317   0.304   4.565   0.164  0.2784  0.0982  0.5203
 8791TIP3    H126318   0.279   4.612   0.084  1.0942 -1.4705 -0.7145
 8791TIP3    H226319   0.358   4.627   0.212  1.9940  0.2416 -1.4375
 8792TIP3   OH226320   7.825   0.415   3.877 -0.1955 -0.1783 -0.0341
 8792TIP3    H126321   7.818   0.329   3.919  0.3752 -0.4198 -0.4318
 8792TIP3    H226322   7.842   0.475   3.949  1.3353 -0.6654  0.0457
 8793TIP3   OH226323   7.208   1.557   1.985  0.5080 -0.2040  0.1702
 8793TIP3    H126324   7.137   1.533   2.043  0.2978  1.0706  0.4819
 8793TIP3    H226325   7.165   1.593   1.907  0.7846 -1.9172 -0.8164
 8794TIP3   OH226326   2.189   5.067   1.654  0.0451 -0.3166 -0.5902
 8794TIP3    H126327   2.211   4.974   1.656 -0.1302 -0.3614 -0.7037
 8794TIP3    H226328   2.178   5.087   1.561 -1.2192 -0.4978 -0.4971
 8795TIP3   OH226329   3.495   1.533   5.127 -0.5184 -0.2049 -0.0148
 8795TIP3    H126330   3.446   1.601   5.173 -1.2428 -0.5781 -0.2194
 8795TIP3    H226331   3.439   1.509   5.053  0.5895  0.3359 -1.0622
 8796TIP3   OH226332   1.399   5.351   4.754  0.2316  0.1474  0.7157
 8796TIP3    H126333   1.443   5.314   4.678 -0.2962 -0.2745  0.6134
 8796TIP3    H226334   1.470   5.369   4.816  0.8339  1.8305 -0.3984
 8797TIP3   OH226335   6.251   1.597   0.300 -0.0012 -0.5128  0.1764
 8797TIP3    H126336   6.286   1.683   0.275  0.7985 -1.0578 -0.6325
 8797TIP3    H226337   6.235   1.553   0.217  0.0462 -1.3219  0.5929
 8798TIP3   OH226338   7.895   7.169   4.866 -0.0273 -0.1785 -0.4134
 8798TIP3    H126339   7.939   7.103   4.920  0.4300  0.2419 -0.2636
 8798TIP3    H226340   7.807   7.134   4.852 -0.0262 -0.4704  0.2836
 8799TIP3   OH226341   2.100   5.222   2.464 -0.0364  0.6567  0.4602
 8799TIP3    H126342   2.062   5.275   2.394  0.4083  2.0238  1.2032
 8799TIP3    H226343   2.058   5.255   2.544  0.4146  0.0278  0.9701
 8800TIP3   OH226344   1.735   1.350   0.516 -0.0830  0.2181  0.0332
 8800TIP3    H126345   1.640   1.350   0.529 -0.3471  1.0404 -1.5940
 8800TIP3    H226346   1.758   1.259   0.502 -0.3473 -0.2032  2.0618
 8801TIP3   OH226347   2.999   3.773   6.423  0.0462  0.2367 -0.6018
 8801TIP3    H126348   2.977   3.866   6.416 -1.7227 -0.1852 -1.2904
 8801TIP3    H226349   2.954   3.733   6.349  2.7685 -0.8784 -1.7424
 8802TIP3   OH226350   2.071   5.092   1.084 -0.0290  0.0286  0.3116
 8802TIP3    H126351   2.133   5.042   1.137  0.8290  0.3165 -0.4087
 8802TIP3    H226352   1.986   5.051   1.103  0.3336 -0.2326  1.4647
 8803TIP3   OH226353   3.285   4.503   3.289  0.1053 -0.1319 -0.0355
 8803TIP3    H126354   3.306   4.478   3.199  2.0217  1.0440  0.0301
 8803TIP3    H226355   3.212   4.563   3.281 -0.0719 -0.4318 -0.7546
 8804TIP3   OH226356   4.860   5.446   3.689  0.0105 -0.0586 -0.0066
 8804TIP3    H126357   4.905   5.368   3.722  0.5855 -0.3541 -1.3811
 8804TIP3    H226358   4.767   5.426   3.698  0.1374 -1.2059 -0.9091
 8805TIP3   OH226359   3.595   3.729   5.158 -0.7621  0.0731 -0.2289
 8805TIP3    H126360   3.529   3.748   5.226 -1.8077  1.0098 -1.4377
 8805TIP3    H226361   3.629   3.815   5.134 -1.9459  0.0368 -2.3296
 8806TIP3   OH226362   4.227   5.652   0.848  0.0822  0.2782 -0.4490
 8806TIP3    H126363   4.182   5.655   0.764 -1.4518  1.4371  0.3564
 8806TIP3    H226364   4.242   5.744   0.871  0.9184 -0.0302  0.3329
 8807TIP3   OH226365   5.843   6.849   3.006 -0.3123  0.4022  0.1433
 8807TIP3    H126366   5.843   6.772   2.948 -0.2200 -0.0151  0.6923
 8807TIP3    H226367   5.925   6.842   3.055 -0.9911  0.0405  1.2576
 8808TIP3   OH226368   4.156   0.166   3.869  0.2258 -0.1227 -0.0412
 8808TIP3    H126369   4.086   0.152   3.805  0.7128  0.2646 -0.6751
 8808TIP3    H226370   4.185   0.255   3.853  1.4024 -0.5435 -0.3246
 8809TIP3   OH226371   4.230   0.940   4.867  0.0016 -0.0864  0.3585
 8809TIP3    H126372   4.255   0.849   4.884 -0.9230 -0.2387  0.9536
 8809TIP3    H226373   4.166   0.934   4.796  0.8064  0.2121 -0.4108
 8810TIP3   OH226374   7.211   4.059   2.187 -0.4062 -0.4966 -0.0828
 8810TIP3    H126375   7.231   4.085   2.277  1.3629  0.0300 -0.5885
 8810TIP3    H226376   7.291   4.018   2.155 -0.3052  1.0754 -2.0341
 8811TIP3   OH226377   1.635   6.753   0.346 -0.1085 -0.2906 -0.5081
 8811TIP3    H126378   1.706   6.776   0.287  1.6448 -0.5524  1.4003
 8811TIP3    H226379   1.646   6.660   0.363 -0.1147 -0.0695  0.7960
 8812TIP3   OH226380   8.019   0.088   0.232 -0.1693  0.1268 -0.2861
 8812TIP3    H126381   8.006   0.153   0.163 -0.0514 -0.4109 -0.8152
 8812TIP3    H226382   8.042   0.007   0.186 -1.7003 -0.6624  0.2864
 8813TIP3   OH226383   0.660   5.811   6.610  0.0877 -0.6890 -0.0959
 8813TIP3    H126384   0.669   5.752   6.685  0.8177 -0.5052 -0.0294
 8813TIP3    H226385   0.732   5.786   6.551 -0.4958 -0.8545 -0.7562
 8814TIP3   OH226386   2.207   5.017   6.419 -0.0052 -0.5189  0.7178
 8814TIP3    H126387   2.115   4.999   6.405 -0.0096  0.5522 -0.7557
 8814TIP3    H226388   2.238   4.941   6.469 -1.2327 -1.8839 -0.4824
 8815TIP3   OH226389   5.740   5.307   5.785 -0.3637  0.2412  0.2408
 8815TIP3    H126390   5.711   5.386   5.831 -0.6745  0.3404 -0.1197
 8815TIP3    H226391   5.828   5.328   5.754  0.7516 -0.5738  2.5846
 8816TIP3   OH226392   1.816   6.508   5.976 -0.0697  0.9896  0.2571
 8816TIP3    H126393   1.833   6.424   5.933  1.3230  0.1663  2.2481
 8816TIP3    H226394   1.724   6.526   5.959  0.2047  0.3044 -2.2697
 8817TIP3   OH226395   5.180   1.392   6.225  0.6324  0.5443  0.0146
 8817TIP3    H126396   5.084   1.388   6.222  0.6710 -0.4365 -0.5626
 8817TIP3    H226397   5.204   1.421   6.137  0.8679  0.3092 -0.0004
 8818TIP3   OH226398   0.952   5.513   5.718 -0.1037 -0.2219  0.0253
 8818TIP3    H126399   0.967   5.577   5.649 -0.7028  0.8967  0.8937
 8818TIP3    H226400   0.878   5.548   5.768 -1.3500 -2.2792 -0.2731
 8819TIP3   OH226401   2.614   2.172   5.379  0.1197 -0.1005 -0.2684
 8819TIP3    H126402   2.683   2.119   5.340  2.1899  0.3157  2.5397
 8819TIP3    H226403   2.650   2.261   5.383 -0.2240  0.0124  1.8097
 8820TIP3   OH226404   7.719   7.105   5.626 -0.0072  0.8222  0.6702
 8820TIP3    H126405   7.650   7.088   5.561  0.3406  0.7748  0.3095
 8820TIP3    H226406   7.763   7.184   5.594  0.0137  0.9372  0.9798
 8821TIP3   OH226407   3.972   4.936   4.780  0.0219 -0.3643  0.0033
 8821TIP3    H126408   3.889   4.916   4.824  0.4017 -0.1286  0.8406
 8821TIP3    H226409   4.029   4.967   4.850 -0.0747  2.2638 -0.9714
 8822TIP3   OH226410   1.938   4.463   2.814 -0.1069 -0.3313  0.0504
 8822TIP3    H126411   1.982   4.448   2.730  0.2890  0.8710  0.0365
 8822TIP3    H226412   1.861   4.515   2.792  0.2723  0.4299  0.4812
 8823TIP3   OH226413   1.542   7.527   1.151 -0.0995 -0.1540 -0.6991
 8823TIP3    H126414   1.567   7.548   1.061  1.0647  0.8540 -0.1735
 8823TIP3    H226415   1.558   7.608   1.200 -0.2059 -0.8357  0.5024
 8824TIP3   OH226416   3.555   7.565   2.341 -0.3706  0.7104  0.1254
 8824TIP3    H126417   3.629   7.506   2.327 -0.6818  0.0238  1.2324
 8824TIP3    H226418   3.501   7.556   2.263  0.0442  0.2207 -0.1123
 8825TIP3   OH226419   4.957   0.375   0.670 -0.0990  0.2312 -0.1879
 8825TIP3    H126420   4.954   0.284   0.641  2.2992  0.4946 -1.5386
 8825TIP3    H226421   4.877   0.387   0.721 -1.0921 -2.2555 -1.0278
 8826TIP3   OH226422   7.451   5.101   6.087 -0.7647  0.3285  0.6913
 8826TIP3    H126423   7.425   5.012   6.112  1.9934 -0.4827  0.9773
 8826TIP3    H226424   7.463   5.147   6.170  1.5408 -0.2469  0.7312
 8827TIP3   OH226425   4.129   1.259   4.265  0.3708  0.5034 -0.2228
 8827TIP3    H126426   4.143   1.286   4.356  0.5801  0.6214 -0.2895
 8827TIP3    H226427   4.035   1.273   4.251  0.3409  0.5039 -0.0317
 8828TIP3   OH226428   0.237   5.714   1.854 -0.0686 -0.4396  0.6301
 8828TIP3    H126429   0.184   5.665   1.916 -1.4179  0.2238  0.0519
 8828TIP3    H226430   0.274   5.786   1.904 -0.4831 -0.3824  0.8614
 8829TIP3   OH226431   6.528   3.906   5.508  0.5589  0.3728 -0.0274
 8829TIP3    H126432   6.505   3.828   5.458 -1.6128  0.1912  1.1176
 8829TIP3    H226433   6.500   3.979   5.452  0.0370  0.2335  0.0453
 8830TIP3   OH226434   4.732   0.303   2.932  0.1588  0.1130 -0.2149
 8830TIP3    H126435   4.718   0.301   3.026  1.2848  1.2022  0.0141
 8830TIP3    H226436   4.754   0.395   2.913 -0.0754 -0.0825 -1.5340
 8831TIP3   OH226437   7.610   3.198   3.615  0.0766 -0.0225  0.2993
 8831TIP3    H126438   7.529   3.177   3.663 -0.3663 -2.4426 -1.3576
 8831TIP3    H226439   7.674   3.134   3.647  0.9191  0.8704  0.4447
 8832TIP3   OH226440   3.966   3.814   0.523  0.0379  0.4733 -0.3064
 8832TIP3    H126441   3.895   3.811   0.587 -0.1243  0.8379 -0.4656
 8832TIP3    H226442   3.937   3.758   0.451 -0.3103  1.0062 -0.5899
 8833TIP3   OH226443   7.461   4.714   5.686 -0.0758  0.4221 -0.1969
 8833TIP3    H126444   7.514   4.787   5.656 -0.8776  1.3230  0.5264
 8833TIP3    H226445   7.373   4.732   5.653 -0.0328 -0.9227 -1.1622
 8834TIP3   OH226446   2.378   2.106   1.589 -0.4977 -0.0989 -0.0363
 8834TIP3    H126447   2.295   2.089   1.634  0.6406 -0.1921  2.1859
 8834TIP3    H226448   2.440   2.044   1.628  1.1441  1.5340  0.1278
 8835TIP3   OH226449   7.909   5.249   2.898  0.6354  0.2071 -1.0308
 8835TIP3    H126450   7.860   5.179   2.941 -1.5501  1.0274 -2.0285
 8835TIP3    H226451   7.847   5.288   2.837  1.0830  4.1729  0.6986
 8836TIP3   OH226452   5.027   7.149   1.683 -0.1779  0.2980 -0.1640
 8836TIP3    H126453   5.068   7.063   1.678 -1.3798 -0.2146 -2.1952
 8836TIP3    H226454   4.989   7.152   1.771  0.9097 -0.7187  0.3780
 8837TIP3   OH226455   4.956   5.300   0.901  0.1217 -0.2364 -0.2444
 8837TIP3    H126456   4.912   5.219   0.927  0.3147  0.0173  0.9510
 8837TIP3    H226457   5.039   5.299   0.948  0.4794  0.2817 -0.8443
 8838TIP3   OH226458   7.825   3.047   6.161 -0.5823  0.1169 -0.3595
 8838TIP3    H126459   7.759   3.065   6.228  0.2354  1.1244  0.2000
 8838TIP3    H226460   7.846   3.132   6.124  1.8866  0.1435  0.9178
 8839TIP3   OH226461   7.611   5.113   0.297 -0.0208 -0.3864  0.0398
 8839TIP3    H126462   7.603   5.019   0.281 -1.2597 -0.2918 -0.0191
 8839TIP3    H226463   7.632   5.121   0.390 -1.4771 -0.6933  0.4152
 8840TIP3   OH226464   7.245   5.944   5.949 -0.3509  0.7315 -0.2873
 8840TIP3    H126465   7.294   5.955   5.867 -0.7997  1.2715 -0.4890
 8840TIP3    H226466   7.208   6.030   5.966 -2.4392  0.0252 -0.9032
 8841TIP3   OH226467   6.248   1.827   3.774 -0.0216  0.0206 -0.0419
 8841TIP3    H126468   6.162   1.828   3.731 -0.9566 -1.4037  1.6642
 8841TIP3    H226469   6.241   1.891   3.844 -0.1595 -0.9967  0.8946
 8842TIP3   OH226470   1.377   5.499   0.547  0.3265  0.1076  0.0394
 8842TIP3    H126471   1.359   5.593   0.550  1.9965  0.4308  0.9525
 8842TIP3    H226472   1.406   5.477   0.636 -1.3331 -1.5732  0.2202
 8843TIP3   OH226473   3.345   2.296   2.252  0.0180  0.1704  0.0443
 8843TIP3    H126474   3.427   2.323   2.293  1.4173 -0.0738 -2.3946
 8843TIP3    H226475   3.364   2.210   2.214 -1.6886 -0.3377  0.2461
 8844TIP3   OH226476   7.727   0.696   6.373 -0.4209  0.2506  0.3189
 8844TIP3    H126477   7.721   0.789   6.352  1.9401  0.4996  0.4854
 8844TIP3    H226478   7.821   0.676   6.368 -0.9309 -2.3392 -0.5870
 8845TIP3   OH226479   7.526   7.411   6.769  0.8311  0.1080  0.7581
 8845TIP3    H126480   7.610   7.431   6.811  0.2487 -0.5465  2.2985
 8845TIP3    H226481   7.485   7.497   6.754  1.6432  0.4137  0.2221
 8846TIP3   OH226482   2.115   1.162   0.247  0.1476  0.3156 -0.1854
 8846TIP3    H126483   2.181   1.098   0.223 -0.2908 -0.2284  0.0287
 8846TIP3    H226484   2.147   1.245   0.212  0.0732 -0.2533 -1.6490
 8847TIP3   OH226485   4.610   7.123   2.809 -0.5725 -0.6471 -0.1220
 8847TIP3    H126486   4.695   7.079   2.811 -0.3380 -0.1944 -0.0533
 8847TIP3    H226487   4.549   7.058   2.845  0.2497  0.1323  3.0604
 8848TIP3   OH226488   0.446   4.304   6.755  0.2387 -0.2506  0.5166
 8848TIP3    H126489   0.432   4.399   6.756  1.8326  0.0153  0.3589
 8848TIP3    H226490   0.538   4.293   6.778  0.3169 -1.7154 -0.3514
 8849TIP3   OH226491   0.158   4.469   0.607 -0.4539  0.3092  0.2068
 8849TIP3    H126492   0.121   4.553   0.579  0.6078  1.1455  1.2221
 8849TIP3    H226493   0.161   4.416   0.528 -3.0228  0.4858 -0.0937
 8850TIP3   OH226494   3.877   5.610   4.285  0.6214  0.0587 -0.0084
 8850TIP3    H126495   3.953   5.556   4.265  2.1321  2.2672 -0.6479
 8850TIP3    H226496   3.826   5.611   4.205  1.5151  0.9126 -0.6034
 8851TIP3   OH226497   5.020   7.761   3.249  0.2374 -0.0897  0.1330
 8851TIP3    H126498   4.959   7.801   3.310  0.2463  0.1399 -0.0102
 8851TIP3    H226499   5.029   7.671   3.280 -1.1258 -0.4957 -0.5511
 8852TIP3   OH226500   3.572   0.613   1.010  0.7415  0.4177 -0.0083
 8852TIP3    H126501   3.502   0.676   1.028  2.1294  1.2575  3.1800
 8852TIP3    H226502   3.562   0.546   1.078  1.2248 -1.1085 -1.3859
 8853TIP3   OH226503   1.276   2.401   4.432  0.0433  0.4712 -0.5226
 8853TIP3    H126504   1.324   2.318   4.424  0.1168  0.3523  0.8409
 8853TIP3    H226505   1.343   2.468   4.424 -0.0191  0.4170 -1.6567
 8854TIP3   OH226506   2.937   3.973   5.441  0.4127 -0.2959 -0.2976
 8854TIP3    H126507   2.909   3.981   5.350 -0.3271  0.3970 -0.0281
 8854TIP3    H226508   3.023   4.015   5.443  1.0654 -1.5501 -0.9411
 8855TIP3   OH226509   6.135   7.157   1.724  0.0349 -0.3525  0.1316
 8855TIP3    H126510   6.077   7.085   1.748 -0.4002 -0.9401 -2.3688
 8855TIP3    H226511   6.201   7.117   1.669 -0.2294  1.1296 -1.3554
 8856TIP3   OH226512   5.387   3.502   4.695  0.0361 -0.6772  0.4309
 8856TIP3    H126513   5.339   3.468   4.771  0.0643 -0.5801  0.4926
 8856TIP3    H226514   5.435   3.427   4.661  1.4263 -0.3461  1.5684
 8857TIP3   OH226515   8.080   1.676   5.277  0.3724 -0.8528 -0.3746
 8857TIP3    H126516   7.985   1.683   5.267  0.2584 -1.1382  0.3943
 8857TIP3    H226517   8.114   1.673   5.187 -0.3295 -0.5782 -0.6556
 8858TIP3   OH226518   3.371   7.268   2.528  0.1915  0.3581  0.0313
 8858TIP3    H126519   3.418   7.278   2.611 -0.9471 -0.9002  0.8820
 8858TIP3    H226520   3.302   7.335   2.532 -0.1276  0.0149  0.3011
 8859TIP3   OH226521   3.208   6.153   3.994  0.1671  0.1831 -0.0503
 8859TIP3    H126522   3.154   6.191   4.063  1.2546  0.5268  0.6333
 8859TIP3    H226523   3.286   6.207   3.992  0.2432  0.0489 -1.4284
 8860TIP3   OH226524   7.037   7.657   0.445 -0.4637  0.1280 -0.0725
 8860TIP3    H126525   7.055   7.600   0.519  1.8341  0.4589 -0.3207
 8860TIP3    H226526   6.968   7.716   0.477 -1.6067 -1.5791  0.7720
 8861TIP3   OH226527   6.734   4.897   2.753 -0.3725 -0.9897  0.2507
 8861TIP3    H126528   6.804   4.908   2.688 -2.0186  1.8811 -1.2413
 8861TIP3    H226529   6.758   4.956   2.824 -0.2544 -1.5986  0.7235
 8862TIP3   OH226530   2.661   3.046   2.282  0.0298 -0.0049  0.2106
 8862TIP3    H126531   2.713   3.017   2.357 -0.8034  0.2019  0.8907
 8862TIP3    H226532   2.724   3.059   2.212  0.6876 -1.3665  0.5147
 8863TIP3   OH226533   5.659   7.062   3.137  0.6258 -0.2998 -0.4457
 8863TIP3    H126534   5.637   7.067   3.043  3.3756 -0.6219 -1.1955
 8863TIP3    H226535   5.694   6.974   3.148  0.8508 -0.0662  0.7986
 8864TIP3   OH226536   1.309   7.748   4.857 -0.7102 -0.0052  0.1811
 8864TIP3    H126537   1.312   7.837   4.892  1.0190 -0.1550  0.5279
 8864TIP3    H226538   1.216   7.727   4.850 -1.1446  0.9344  2.4039
 8865TIP3   OH226539   1.457   3.479   2.561 -0.2467 -0.3223  0.3842
 8865TIP3    H126540   1.384   3.421   2.543  0.1759 -0.7662  0.0546
 8865TIP3    H226541   1.447   3.505   2.653 -0.1002 -1.4136  0.7162
 8866TIP3   OH226542   1.684   5.472   0.493 -0.0187  0.3239 -0.1476
 8866TIP3    H126543   1.755   5.408   0.484 -0.0456  0.2772 -0.0260
 8866TIP3    H226544   1.605   5.423   0.469 -0.3796 -0.3919  2.2718
 8867TIP3   OH226545   7.889   1.754   3.549  0.2783 -0.0142 -0.2061
 8867TIP3    H126546   7.966   1.808   3.536  1.2020 -1.0984  0.5507
 8867TIP3    H226547   7.903   1.678   3.493 -0.0836 -0.3690  0.1686
 8868TIP3   OH226548   6.133   3.199   3.378  0.3818 -0.2597 -0.7999
 8868TIP3    H126549   6.165   3.140   3.310  0.2311  0.6110 -1.6511
 8868TIP3    H226550   6.083   3.143   3.437  0.8870 -1.1048 -1.1561
 8869TIP3   OH226551   8.108   4.233   1.402  0.0663 -0.2944 -0.4028
 8869TIP3    H126552   8.140   4.213   1.314  0.4508 -0.5408 -0.2113
 8869TIP3    H226553   8.024   4.276   1.388  0.5847  0.5765 -0.9307
 8870TIP3   OH226554   7.712   3.161   4.866 -0.0888  0.6328 -0.0268
 8870TIP3    H126555   7.723   3.083   4.812  0.0464  1.0647 -0.6289
 8870TIP3    H226556   7.712   3.234   4.804 -0.8943  1.0635  0.4616
 8871TIP3   OH226557   1.384   5.288   2.277 -0.1016 -0.6828 -0.4657
 8871TIP3    H126558   1.378   5.220   2.211 -1.6025 -1.2420  0.1850
 8871TIP3    H226559   1.339   5.251   2.354  0.8552  0.2549  0.5822
 8872TIP3   OH226560   0.318   1.306   1.848  0.6360  0.1546  0.7710
 8872TIP3    H126561   0.336   1.214   1.870 -0.1549  0.1333  1.3718
 8872TIP3    H226562   0.405   1.347   1.845  0.9741 -0.5407  0.8166
 8873TIP3   OH226563   0.192   5.555   6.581 -0.1872  0.1939 -0.3720
 8873TIP3    H126564   0.109   5.557   6.534 -0.4653 -0.0532  0.0963
 8873TIP3    H226565   0.169   5.528   6.670  0.2875  0.9523 -0.0053
 8874TIP3   OH226566   4.884   3.050   1.067  0.0130  0.5314  0.2152
 8874TIP3    H126567   4.844   3.122   1.116 -0.5976  0.4710 -0.1737
 8874TIP3    H226568   4.816   2.982   1.066 -0.0243  0.5684 -0.7733
 8875TIP3   OH226569   4.307   5.252   3.737  0.0120 -0.1945 -0.1354
 8875TIP3    H126570   4.231   5.304   3.712 -0.6323 -1.1602 -0.2341
 8875TIP3    H226571   4.349   5.302   3.807  0.0159  0.9640 -0.9478
 8876TIP3   OH226572   4.297   5.646   4.965 -0.0291 -0.0219  0.1192
 8876TIP3    H126573   4.297   5.622   5.057 -0.6480  1.1857  0.4577
 8876TIP3    H226574   4.210   5.621   4.934 -0.2420  0.6241  0.1720
 8877TIP3   OH226575   1.975   0.376   5.439  0.1670 -0.2483  0.0487
 8877TIP3    H126576   2.067   0.349   5.443  0.1683 -0.3950 -0.7223
 8877TIP3    H226577   1.934   0.334   5.514  0.8004  0.1032  0.5956
 8878TIP3   OH226578   2.623   4.241   4.319  0.3940  0.5695 -0.5767
 8878TIP3    H126579   2.717   4.260   4.327  0.5259 -0.3443  0.3944
 8878TIP3    H226580   2.590   4.305   4.257  1.8299  0.3834 -1.5835
 8879TIP3   OH226581   6.053   5.672   2.923 -0.3102  0.6393  0.0510
 8879TIP3    H126582   6.042   5.620   3.002  0.5796  1.8263  0.9868
 8879TIP3    H226583   5.990   5.744   2.932 -1.4674 -0.1697 -1.1851
 8880TIP3   OH226584   6.303   5.014   3.212 -0.1042  0.6782  0.3352
 8880TIP3    H126585   6.340   5.065   3.140 -2.4680  2.0203 -0.0317
 8880TIP3    H226586   6.332   4.925   3.195 -0.7305  0.9145 -2.4216
 8881TIP3   OH226587   1.112   3.069   4.272 -0.4284 -0.1898 -0.1517
 8881TIP3    H126588   1.199   3.077   4.310 -1.1439 -0.1493  1.5496
 8881TIP3    H226589   1.126   3.081   4.178  1.3459  0.1578  0.1221
 8882TIP3   OH226590   5.935   4.489   3.717  0.3434  0.3169 -0.0171
 8882TIP3    H126591   6.021   4.527   3.734 -0.0063  0.3044  2.1380
 8882TIP3    H226592   5.954   4.403   3.678  1.4269 -0.4184  1.9766
 8883TIP3   OH226593   2.446   7.402   1.077  0.7561  0.5546  0.0954
 8883TIP3    H126594   2.487   7.318   1.097  2.3041  0.8540 -1.4973
 8883TIP3    H226595   2.394   7.423   1.154 -0.5106 -2.3347  0.1283
 8884TIP3   OH226596   2.451   0.578   1.951  0.2323 -0.0875 -0.5946
 8884TIP3    H126597   2.404   0.631   1.886 -1.8214  0.1913  1.0368
 8884TIP3    H226598   2.417   0.607   2.035  3.2612  0.0024  0.7345
 8885TIP3   OH226599   2.737   5.322   3.660 -0.1005  0.0926 -0.9335
 8885TIP3    H126600   2.657   5.272   3.673  0.5737 -0.5799  1.0866
 8885TIP3    H226601   2.805   5.255   3.647  0.3211  0.6044 -1.4214
 8886TIP3   OH226602   3.408   6.007   1.670  0.5280  0.5953  0.5766
 8886TIP3    H126603   3.430   5.975   1.757 -2.0509  0.0155  1.1167
 8886TIP3    H226604   3.427   6.101   1.674  3.0532  0.1487  0.7680
 8887TIP3   OH226605   1.166   1.288   2.239 -0.3919 -0.2456 -0.4289
 8887TIP3    H126606   1.109   1.214   2.258 -0.2071 -0.3225 -0.1710
 8887TIP3    H226607   1.239   1.249   2.191  0.1397 -0.3781  0.4606
 8888TIP3   OH226608   4.564   7.507   1.991 -0.4106  0.0588  0.1908
 8888TIP3    H126609   4.650   7.523   2.030  0.3113 -0.9596 -0.9201
 8888TIP3    H226610   4.582   7.484   1.901 -2.0478  2.8288 -1.0013
 8889TIP3   OH226611   3.145   3.846   3.197 -0.2444  0.4022 -0.3634
 8889TIP3    H126612   3.211   3.914   3.186  1.2378 -1.2045 -2.1063
 8889TIP3    H226613   3.187   3.766   3.165 -1.4114 -1.6817  2.7880
 8890TIP3   OH226614   2.990   0.284   3.837 -0.3283 -0.3199 -0.4067
 8890TIP3    H126615   2.936   0.212   3.802  1.0046 -0.9598 -1.2332
 8890TIP3    H226616   2.927   0.355   3.853 -1.5982 -1.4559 -0.1151
 8891TIP3   OH226617   3.542   1.196   4.808 -0.2687  0.6386  0.0564
 8891TIP3    H126618   3.519   1.105   4.787 -1.1771  0.6686  0.8365
 8891TIP3    H226619   3.486   1.218   4.882  1.7500  0.9849  1.5931
 8892TIP3   OH226620   3.096   0.674   4.362 -0.5271  0.3661  0.3325
 8892TIP3    H126621   3.183   0.711   4.373 -0.4204  0.1990  0.0665
 8892TIP3    H226622   3.111   0.581   4.344 -0.5634  0.8287 -2.7118
 8893TIP3   OH226623   6.293   4.100   5.832 -0.8770 -0.1386 -0.2927
 8893TIP3    H126624   6.367   4.041   5.818 -1.3718 -0.5208 -1.4320
 8893TIP3    H226625   6.332   4.184   5.853 -0.0862 -0.0390 -2.0541
 8894TIP3   OH226626   5.089   5.479   0.277  0.0932 -0.1130  0.3207
 8894TIP3    H126627   5.170   5.448   0.317  1.1303  1.7554 -0.2301
 8894TIP3    H226628   5.055   5.545   0.337 -0.6608 -0.3725  0.1977
 8895TIP3   OH226629   8.295   7.143   5.665  0.7005  0.4236 -0.5640
 8895TIP3    H126630   8.290   7.204   5.591  0.2148  0.1624 -0.7511
 8895TIP3    H226631   8.322   7.060   5.626  0.3937  0.2720 -0.4589
 8896TIP3   OH226632   4.830   6.950   2.892 -0.0134 -0.3078  0.2346
 8896TIP3    H126633   4.852   6.973   2.982  1.9009 -2.0295  0.2652
 8896TIP3    H226634   4.769   6.877   2.900 -1.1808  0.6176  0.0990
 8897TIP3   OH226635   4.174   5.689   4.367 -0.1705  0.4999 -0.4275
 8897TIP3    H126636   4.159   5.603   4.406 -1.2126  0.4316 -0.9467
 8897TIP3    H226637   4.094   5.738   4.387  1.0863  1.9571  1.3940
 8898TIP3   OH226638   1.198   1.827   0.248  0.0674  0.2810 -0.6556
 8898TIP3    H126639   1.163   1.770   0.315  0.0089 -1.5984 -2.1862
 8898TIP3    H226640   1.122   1.870   0.210 -0.0438  0.2730 -0.4393
 8899TIP3   OH226641   7.985   6.518   6.255 -0.5801 -0.1187 -0.0802
 8899TIP3    H126642   7.991   6.573   6.334  2.0325 -2.1888  1.3302
 8899TIP3    H226643   7.901   6.474   6.263 -0.9526  0.7051  0.8348
 8900TIP3   OH226644   7.935   6.378   6.539  0.3087 -0.1263  0.1351
 8900TIP3    H126645   7.918   6.383   6.634  2.2094  0.2131  0.5026
 8900TIP3    H226646   7.908   6.464   6.506 -0.0173 -0.1113  0.4371
 8901TIP3   OH226647   3.806   1.192   1.951  0.2779 -0.2431 -0.0801
 8901TIP3    H126648   3.732   1.210   2.008  1.0797 -2.5009  1.8469
 8901TIP3    H226649   3.787   1.106   1.913  1.6886 -0.6707  0.1245
 8902TIP3   OH226650   0.644   3.182   3.200  0.7447 -0.1238  0.7579
 8902TIP3    H126651   0.578   3.245   3.171  1.5075  0.5463  0.4184
 8902TIP3    H226652   0.596   3.101   3.212 -0.2325  0.4791  1.0348
 8903TIP3   OH226653   5.809   4.920   3.635 -0.7457  0.0357  0.0663
 8903TIP3    H126654   5.745   4.856   3.605 -0.4811  0.0652 -0.5800
 8903TIP3    H226655   5.763   5.004   3.633 -0.3145  0.2730 -1.7249
 8904TIP3   OH226656   1.036   0.363   4.119  0.3083  0.1626 -0.7851
 8904TIP3    H126657   1.084   0.445   4.111 -0.6700  0.9548  0.9289
 8904TIP3    H226658   0.944   0.386   4.104 -0.1218 -0.3651  0.8103
 8905TIP3   OH226659   2.451   0.826   0.415 -0.3037 -0.0214  0.5830
 8905TIP3    H126660   2.526   0.885   0.415  0.6554 -1.2171 -0.0511
 8905TIP3    H226661   2.447   0.793   0.505  2.2213 -2.7178 -0.1539
 8906TIP3   OH226662   5.614   2.470   5.869  0.0741 -0.4757  0.2679
 8906TIP3    H126663   5.596   2.428   5.785 -0.2565 -1.6523  0.9081
 8906TIP3    H226664   5.709   2.461   5.880  0.3472  0.9480 -0.6088
 8907TIP3   OH226665   5.684   1.851   0.647  0.5851  0.2340  0.2073
 8907TIP3    H126666   5.733   1.839   0.728  0.4884  0.8922  0.3648
 8907TIP3    H226667   5.734   1.916   0.598  0.9581 -0.5745 -0.5242
 8908TIP3   OH226668   4.029   7.659   5.950  0.0666  0.0658 -0.0812
 8908TIP3    H126669   4.017   7.596   5.880  0.8534 -0.8000  0.5395
 8908TIP3    H226670   4.087   7.615   6.012  1.2797  1.6767 -0.0032
 8909TIP3   OH226671   1.719   0.414   3.079 -0.2773 -0.0537 -0.1442
 8909TIP3    H126672   1.759   0.495   3.047  0.4969 -0.3010  0.1656
 8909TIP3    H226673   1.748   0.347   3.017 -1.9586  0.0892 -1.1506
 8910TIP3   OH226674   3.893   0.441   4.589  0.5588 -0.1335 -0.0008
 8910TIP3    H126675   3.863   0.369   4.534 -0.6808  0.4347 -0.1099
 8910TIP3    H226676   3.847   0.429   4.672  1.2064 -0.0993  0.3641
 8911TIP3   OH226677   1.130   5.048   5.068 -0.0472  0.1972 -0.0139
 8911TIP3    H126678   1.214   5.075   5.032  0.4566 -1.4403 -0.1514
 8911TIP3    H226679   1.149   4.968   5.117 -1.6515 -0.7703 -0.8661
 8912TIP3   OH226680   5.814   0.429   2.631  0.2620 -0.1771 -0.1634
 8912TIP3    H126681   5.720   0.420   2.648  0.3241  0.6482  0.6815
 8912TIP3    H226682   5.819   0.498   2.565  0.1218 -2.3003 -2.5478
 8913TIP3   OH226683   0.631   0.663   5.639 -0.1798  0.0687  0.0687
 8913TIP3    H126684   0.568   0.602   5.600 -1.2808  2.0806 -1.5391
 8913TIP3    H226685   0.653   0.624   5.724 -0.4912 -2.7095 -0.9979
 8914TIP3   OH226686   5.518   5.096   1.783  0.9772  0.4972 -0.1883
 8914TIP3    H126687   5.524   5.125   1.874 -0.8886  0.9501 -0.1748
 8914TIP3    H226688   5.468   5.164   1.739  0.7583 -0.3241 -1.2569
 8915TIP3   OH226689   3.339   2.771   1.486  0.5434  0.2428 -0.6872
 8915TIP3    H126690   3.377   2.686   1.463  2.2592 -0.1509  2.8543
 8915TIP3    H226691   3.408   2.834   1.469  0.2092  0.5560 -0.8969
 8916TIP3   OH226692   4.518   4.815   5.823  0.0569  0.5717 -0.4943
 8916TIP3    H126693   4.479   4.873   5.889  0.0263  1.3962 -1.2105
 8916TIP3    H226694   4.567   4.874   5.765  0.2254 -0.1493 -1.1075
 8917TIP3   OH226695   4.183   6.539   4.109  0.1279  0.4655 -0.0742
 8917TIP3    H126696   4.199   6.633   4.095 -1.8072  0.6800 -1.2211
 8917TIP3    H226697   4.129   6.536   4.189 -0.4651  0.4191 -0.4683
 8918TIP3   OH226698   8.188   1.296   2.967  0.4744 -0.2135 -0.4329
 8918TIP3    H126699   8.184   1.390   2.986 -0.3333 -0.8050  2.9630
 8918TIP3    H226700   8.265   1.265   3.015  0.5694 -1.3539 -1.2750
 8919TIP3   OH226701   5.159   6.492   4.970 -0.1005  0.0718 -0.2005
 8919TIP3    H126702   5.212   6.571   4.978  1.7531 -1.1460  0.0601
 8919TIP3    H226703   5.156   6.456   5.058 -1.2169 -0.0234 -0.2537
 8920TIP3   OH226704   5.909   5.914   3.940 -0.1103  0.1119 -0.0172
 8920TIP3    H126705   5.854   5.989   3.919 -1.3170 -0.1053  2.0766
 8920TIP3    H226706   5.915   5.914   4.035 -0.6712 -2.7603  0.1138
 8921TIP3   OH226707   1.878   5.307   5.079  0.1403 -0.3661 -0.3015
 8921TIP3    H126708   1.791   5.315   5.117 -0.5232  1.2397 -1.9866
 8921TIP3    H226709   1.899   5.214   5.084 -0.1683 -0.3496  3.2265
 8922TIP3   OH226710   1.393   4.241   2.371 -0.1950 -0.1963 -0.2741
 8922TIP3    H126711   1.430   4.165   2.415  0.0002  0.3401  0.5183
 8922TIP3    H226712   1.309   4.211   2.337 -0.4639 -0.5582  0.6909
 8923TIP3   OH226713   3.218   4.199   6.344 -0.2346  0.2302 -0.6888
 8923TIP3    H126714   3.162   4.268   6.381 -0.8139 -0.0127 -1.0986
 8923TIP3    H226715   3.203   4.205   6.250 -0.4106 -0.5554 -0.7165
 8924TIP3   OH226716   0.612   6.371   3.874  0.4789  0.3388  0.9246
 8924TIP3    H126717   0.627   6.345   3.965  3.5941 -0.2357  0.3840
 8924TIP3    H226718   0.546   6.310   3.842  1.4206 -1.3928  2.0674
 8925TIP3   OH226719   3.369   1.349   2.512 -0.3254  0.0478  0.3160
 8925TIP3    H126720   3.424   1.283   2.553 -0.7460  0.2074  1.1672
 8925TIP3    H226721   3.338   1.309   2.431  0.6894 -0.1957  0.0415
 8926TIP3   OH226722   7.516   5.884   6.629  0.1582 -0.0247  0.1447
 8926TIP3    H126723   7.422   5.866   6.633 -0.1621  1.7092  1.1829
 8926TIP3    H226724   7.531   5.916   6.540  0.1572 -2.0429 -0.6508
 8927TIP3   OH226725   6.643   4.511   0.666  0.1790  0.0799  0.3856
 8927TIP3    H126726   6.596   4.577   0.716  1.1701  1.0808  0.0192
 8927TIP3    H226727   6.589   4.432   0.675 -0.1504  0.4739  2.2244
 8928TIP3   OH226728   4.619   2.384   4.855 -0.1316  0.8509  0.3086
 8928TIP3    H126729   4.701   2.364   4.811 -0.3281 -1.4621  0.8802
 8928TIP3    H226730   4.643   2.395   4.947 -0.5574 -1.0844  0.6971
 8929TIP3   OH226731   2.112   4.085   3.132 -0.2386 -0.4691 -0.2167
 8929TIP3    H126732   2.093   4.058   3.222  2.4283 -0.3581  0.4617
 8929TIP3    H226733   2.053   4.159   3.117 -3.1035 -2.4904  0.1771
 8930TIP3   OH226734   2.927   6.366   4.722 -0.0312 -0.2430  0.3144
 8930TIP3    H126735   2.857   6.360   4.786  0.2693 -2.5309  0.5065
 8930TIP3    H226736   2.899   6.436   4.662 -2.6460 -1.3129  0.1804
 8931TIP3   OH226737   0.225   5.374   5.483 -0.6323 -0.5132  0.4924
 8931TIP3    H126738   0.280   5.365   5.561  0.1434  0.8145  0.1220
 8931TIP3    H226739   0.137   5.348   5.513  0.2380 -3.1894  0.9529
 8932TIP3   OH226740   6.958   3.074   3.643  0.0732 -0.5691 -0.3722
 8932TIP3    H126741   6.889   3.125   3.601  1.0046  1.1916  0.1643
 8932TIP3    H226742   6.932   3.069   3.735 -0.1992 -1.4345 -0.4802
 8933TIP3   OH226743   0.827   0.571   4.517 -0.0200 -0.3850 -0.5181
 8933TIP3    H126744   0.889   0.622   4.466  0.1818 -0.9949 -0.8938
 8933TIP3    H226745   0.879   0.534   4.589  0.3250 -1.8344 -1.4782
 8934TIP3   OH226746   6.126   6.735   3.110  0.0063 -0.8402 -0.7658
 8934TIP3    H126747   6.194   6.737   3.177 -0.5047 -0.5991 -0.2445
 8934TIP3    H226748   6.091   6.646   3.113  0.8699 -1.2263 -1.6316
 8935TIP3   OH226749   5.999   7.678   2.065 -0.1343  0.2072  0.1061
 8935TIP3    H126750   6.092   7.692   2.049 -0.6256  1.8550 -1.7075
 8935TIP3    H226751   5.975   7.744   2.130 -0.5347  1.6925 -1.4713
 8936TIP3   OH226752   6.454   5.313   5.342  0.0614 -0.1043 -0.3221
 8936TIP3    H126753   6.533   5.307   5.396 -1.0327 -2.8009  1.1687
 8936TIP3    H226754   6.473   5.260   5.265  0.3457  0.8107 -0.8961
 8937TIP3   OH226755   3.239   2.793   4.860 -0.6362  0.1207 -0.1614
 8937TIP3    H126756   3.154   2.827   4.832 -0.3214  1.4634  0.4409
 8937TIP3    H226757   3.250   2.826   4.949  0.6716  0.2775 -0.3647
 8938TIP3   OH226758   1.305   0.185   6.315 -0.4559  0.0917  0.0777
 8938TIP3    H126759   1.250   0.216   6.386 -0.3849 -1.5376  0.8990
 8938TIP3    H226760   1.345   0.263   6.279 -1.1004  1.0246  1.3238
 8939TIP3   OH226761   1.521   3.626   1.337  0.2496 -0.4455 -0.4026
 8939TIP3    H126762   1.576   3.548   1.334 -0.6576 -1.0708 -1.9365
 8939TIP3    H226763   1.525   3.662   1.249  0.1387  0.8973  0.1148
 8940TIP3   OH226764   7.464   6.126   4.127 -0.1099  0.1320 -0.5488
 8940TIP3    H126765   7.489   6.056   4.067 -0.3733  0.2225 -0.7678
 8940TIP3    H226766   7.375   6.102   4.155  0.0651  0.0156 -0.0828
 8941TIP3   OH226767   2.926   6.551   1.604  0.8782 -0.1885 -0.1138
 8941TIP3    H126768   2.965   6.473   1.564  0.2858 -0.2669 -0.5614
 8941TIP3    H226769   2.899   6.605   1.529 -0.3906 -0.4090  0.1584
 8942TIP3   OH226770   8.087   7.651   3.086  0.0148  0.5353  0.2266
 8942TIP3    H126771   8.030   7.727   3.094 -0.2904  0.2935  0.3613
 8942TIP3    H226772   8.122   7.639   3.175 -0.7773 -0.1320  0.4557
 8943TIP3   OH226773   8.167   4.949   0.218  0.5521 -0.0001  0.1336
 8943TIP3    H126774   8.248   4.900   0.207  0.7584  0.2301  0.6074
 8943TIP3    H226775   8.164   5.008   0.143 -0.5596 -1.8968 -1.4104
 8944TIP3   OH226776   4.507   3.730   4.613 -0.9031  0.1042 -0.2898
 8944TIP3    H126777   4.521   3.727   4.518  1.1881  0.6722 -0.0584
 8944TIP3    H226778   4.466   3.646   4.634 -1.5195  0.0258 -1.6981
 8945TIP3   OH226779   4.950   4.556   1.111 -0.0736 -0.3114 -0.0069
 8945TIP3    H126780   4.965   4.481   1.169 -0.2039 -0.8044 -0.5991
 8945TIP3    H226781   5.024   4.614   1.127  0.0764 -0.6110  0.3964
 8946TIP3   OH226782   4.582   2.829   6.612 -0.3760 -0.4127 -0.5708
 8946TIP3    H126783   4.566   2.857   6.523  0.2843 -0.1441 -0.6122
 8946TIP3    H226784   4.549   2.900   6.667  1.3654  0.5167 -0.6767
 8947TIP3   OH226785   7.276   2.183   5.664 -0.2302  0.2524 -0.0186
 8947TIP3    H126786   7.181   2.172   5.655 -0.3755  0.3066  1.2941
 8947TIP3    H226787   7.289   2.277   5.671  0.4373  0.8030 -4.9529
 8948TIP3   OH226788   5.922   3.744   4.215  0.0772 -0.5986  0.0455
 8948TIP3    H126789   5.971   3.705   4.288 -0.8236  1.4246  1.8200
 8948TIP3    H226790   5.955   3.833   4.208  0.8029 -1.0057 -2.7184
 8949TIP3   OH226791   6.627   1.584   0.865  0.1897  0.2573 -0.0579
 8949TIP3    H126792   6.671   1.669   0.870  0.2176  0.2515 -0.2028
 8949TIP3    H226793   6.578   1.577   0.947  0.8817  0.0284  0.3470
 8950TIP3   OH226794   6.185   7.193   3.743 -0.1456  0.1085 -0.4242
 8950TIP3    H126795   6.150   7.118   3.694 -2.7777  0.9483  0.0262
 8950TIP3    H226796   6.216   7.253   3.676 -0.5869 -0.2116 -0.9234
 8951TIP3   OH226797   3.588   0.408   0.518  0.8889  0.2794 -0.4959
 8951TIP3    H126798   3.608   0.433   0.608 -1.1849 -3.7703  1.3482
 8951TIP3    H226799   3.494   0.420   0.510  0.9808  0.1459 -2.0082
 8952TIP3   OH226800   2.937   7.657   1.419 -0.0162 -0.0412 -0.4351
 8952TIP3    H126801   2.916   7.617   1.504 -0.4059 -0.3561 -0.6761
 8952TIP3    H226802   2.897   7.599   1.355  1.4047 -0.5451 -0.9078
 8953TIP3   OH226803   0.779   2.692   1.063 -0.4030  0.3414 -0.1269
 8953TIP3    H126804   0.739   2.654   1.141  0.7955  0.7081  0.7034
 8953TIP3    H226805   0.840   2.758   1.097 -0.5772  1.2117 -1.4220
 8954TIP3   OH226806   2.852   4.506   1.948 -0.9262  0.4216 -0.3018
 8954TIP3    H126807   2.887   4.594   1.960 -0.6962  0.3750 -0.6367
 8954TIP3    H226808   2.927   4.452   1.926 -1.2017  0.3229 -1.0294
 8955TIP3   OH226809   8.153   7.367   3.718 -0.4634  0.1004  0.4133
 8955TIP3    H126810   8.215   7.438   3.704  0.0771 -0.3048  0.7106
 8955TIP3    H226811   8.203   7.299   3.763 -0.9127 -0.5649 -0.0640
 8956TIP3   OH226812   6.497   2.934   3.547  0.3482 -0.0209  0.3415
 8956TIP3    H126813   6.549   2.984   3.484  2.2263 -2.0544  0.1453
 8956TIP3    H226814   6.510   2.843   3.520  0.1273 -0.8574  2.8764
 8957TIP3   OH226815   6.476   3.082   2.694 -0.5368 -0.2122  0.4979
 8957TIP3    H126816   6.438   3.126   2.618  0.4039  1.9499  1.2027
 8957TIP3    H226817   6.569   3.072   2.672 -0.5979 -1.1593  0.6633
 8958TIP3   OH226818   3.505   3.096   5.836 -0.0359  0.8071  0.3734
 8958TIP3    H126819   3.554   3.146   5.770 -2.6739  1.4722 -1.2444
 8958TIP3    H226820   3.483   3.160   5.904  4.0987 -0.2183  2.9799
 8959TIP3   OH226821   1.752   5.029   0.305 -0.8138  0.6677  0.0772
 8959TIP3    H126822   1.806   4.972   0.359  0.1379  1.0867 -0.4078
 8959TIP3    H226823   1.791   5.024   0.218 -0.1676  2.6660  0.1810
 8960TIP3   OH226824   2.628   3.559   0.606  0.4867 -0.3787  0.4680
 8960TIP3    H126825   2.653   3.475   0.567  1.7623  0.1482  0.0933
 8960TIP3    H226826   2.652   3.551   0.698 -1.1277 -1.0737  0.8686
 8961TIP3   OH226827   7.302   0.617   3.365  0.5837  0.4348 -0.1542
 8961TIP3    H126828   7.375   0.560   3.389  2.3941  1.9256 -1.7386
 8961TIP3    H226829   7.226   0.558   3.359  1.6592 -1.2015  1.3988
 8962TIP3   OH226830   0.006   6.888   4.083 -0.0572 -0.0013  0.1323
 8962TIP3    H126831  -0.042   6.902   4.002 -4.1672 -1.1031  2.1268
 8962TIP3    H226832   0.065   6.963   4.089 -1.1628  1.2575 -2.7566
 8963TIP3   OH226833   7.940   5.202   0.117 -0.5459  0.1509 -0.4145
 8963TIP3    H126834   7.848   5.197   0.144 -1.8417  0.3156 -4.2122
 8963TIP3    H226835   7.959   5.295   0.114 -0.0163  0.1074  0.8570
 8964TIP3   OH226836   1.707   0.932   6.137 -0.0302  0.1271  0.1272
 8964TIP3    H126837   1.697   0.941   6.042 -0.5547  1.1197  0.2652
 8964TIP3    H226838   1.686   0.841   6.154 -1.2486  0.2558 -0.5573
 8965TIP3   OH226839   4.432   2.942   2.575 -0.0288 -0.0094 -0.3316
 8965TIP3    H126840   4.516   2.925   2.532  1.3780 -0.6239  2.4177
 8965TIP3    H226841   4.398   2.855   2.595 -1.8481  0.1972 -2.1523
 8966TIP3   OH226842   6.762   0.107   3.212 -0.1492 -0.1985  0.6028
 8966TIP3    H126843   6.759   0.203   3.214 -1.6562 -0.1864 -0.4608
 8966TIP3    H226844   6.823   0.084   3.282  0.3177  1.5337  0.8202
 8967TIP3   OH226845   3.713   3.034   6.541  0.0899 -0.7449 -0.0430
 8967TIP3    H126846   3.756   3.119   6.528  1.3676 -1.5323 -1.2781
 8967TIP3    H226847   3.732   2.985   6.461 -2.0464 -1.6267 -0.0821
 8968TIP3   OH226848   4.788   5.187   6.733 -0.1709 -0.5524  0.3941
 8968TIP3    H126849   4.753   5.189   6.822 -1.6542 -1.8892 -0.0971
 8968TIP3    H226850   4.785   5.278   6.704 -0.1926 -0.1848  1.5203
 8969TIP3   OH226851   6.018   7.381   0.995 -0.4684  0.2303 -0.6310
 8969TIP3    H126852   6.042   7.471   0.972 -0.8649  0.8109  1.0538
 8969TIP3    H226853   5.942   7.362   0.940  0.2295  0.5510 -1.7272
 8970TIP3   OH226854   6.456   4.250   3.202  0.4130 -0.8191  0.3421
 8970TIP3    H126855   6.373   4.205   3.215 -0.1563  0.0699 -0.1606
 8970TIP3    H226856   6.449   4.292   3.117  1.7260 -1.4524 -0.1133
 8971TIP3   OH226857   4.258   7.296   1.838 -0.1265  0.2473 -0.1900
 8971TIP3    H126858   4.311   7.279   1.916 -0.4811  0.3851  0.0802
 8971TIP3    H226859   4.323   7.312   1.769  0.1918 -0.2200 -0.0068
 8972TIP3   OH226860   7.655   6.839   6.259 -0.5458 -0.2533 -0.1932
 8972TIP3    H126861   7.584   6.902   6.244  0.7445  1.1367 -0.7616
 8972TIP3    H226862   7.661   6.834   6.355  0.5474  2.0416 -0.0598
 8973TIP3   OH226863   4.464   2.324   0.863  0.4800 -0.1906  0.2779
 8973TIP3    H126864   4.408   2.248   0.882  0.2832  0.0543  0.6771
 8973TIP3    H226865   4.423   2.366   0.787 -0.1285  0.2382  0.8381
 8974TIP3   OH226866   1.275   0.202   2.111 -0.0899 -0.2476  0.0220
 8974TIP3    H126867   1.362   0.181   2.146 -0.1339  0.2187  0.4195
 8974TIP3    H226868   1.220   0.211   2.189 -0.2297  0.6234 -0.1706
 8975TIP3   OH226869   3.599   6.856   3.561 -0.4441  0.0198  0.4488
 8975TIP3    H126870   3.691   6.843   3.537 -0.5208  0.5465 -0.1826
 8975TIP3    H226871   3.601   6.923   3.629 -0.3514 -0.0422  0.5065
 8976TIP3   OH226872   3.963   2.164   2.452 -0.0393 -0.1105  0.0806
 8976TIP3    H126873   3.921   2.160   2.365 -0.2921  1.2187  0.1175
 8976TIP3    H226874   3.991   2.255   2.460 -0.1046 -0.2027  1.4461
 8977TIP3   OH226875   5.602   5.504   3.501 -0.0885 -0.3861  0.4301
 8977TIP3    H126876   5.649   5.457   3.432  1.6855  0.7460  0.7991
 8977TIP3    H226877   5.549   5.568   3.454  0.9180  0.2107  0.0621
 8978TIP3   OH226878   6.166   5.260   0.933  0.3728 -0.4928  0.2941
 8978TIP3    H126879   6.089   5.206   0.914  0.4167 -0.0169 -1.3637
 8978TIP3    H226880   6.217   5.207   0.994 -0.4160 -1.5831  0.0460
 8979TIP3   OH226881   5.754   7.620   2.628 -0.0881  0.2963  0.6971
 8979TIP3    H126882   5.775   7.701   2.581 -0.5579 -0.2593 -0.5051
 8979TIP3    H226883   5.678   7.585   2.582  0.2851 -0.9676  1.0140
 8980TIP3   OH226884   3.126   7.282   5.661  0.2422 -0.0998  0.4041
 8980TIP3    H126885   3.077   7.304   5.740  0.0153 -1.7432  0.7665
 8980TIP3    H226886   3.130   7.186   5.662  0.0335 -0.1779 -1.6951
 8981TIP3   OH226887   5.349   3.554   1.406 -0.4748 -0.1895  0.0575
 8981TIP3    H126888   5.347   3.503   1.325  0.2008 -1.4228  0.7916
 8981TIP3    H226889   5.431   3.603   1.400 -1.2377  1.0483 -0.7575
 8982TIP3   OH226890   2.284   7.081   0.446 -0.7899 -0.0063 -0.1435
 8982TIP3    H126891   2.249   7.088   0.535 -2.2281 -0.8141 -0.6105
 8982TIP3    H226892   2.328   7.165   0.430  0.9628 -0.4678  1.9002
 8983TIP3   OH226893   3.132   2.686   2.447 -0.2885 -0.3716  0.4083
 8983TIP3    H126894   3.181   2.642   2.517  1.3107  0.7285  0.0245
 8983TIP3    H226895   3.172   2.653   2.366 -0.7175 -0.0490  0.0622
 8984TIP3   OH226896   3.879   3.033   1.978  0.8242  0.1364 -0.1843
 8984TIP3    H126897   3.919   2.961   2.026  0.6552  0.3130  0.2200
 8984TIP3    H226898   3.949   3.098   1.970  0.8336  0.1340 -0.1224
 8985TIP3   OH226899   7.242   4.612   4.857 -0.5408 -0.0340 -0.2773
 8985TIP3    H126900   7.235   4.524   4.820 -0.3590 -1.3591  2.5595
 8985TIP3    H226901   7.279   4.599   4.944 -0.1483  2.9252  0.1166
 8986TIP3   OH226902   5.899   1.075   5.237  0.1623  0.3880  0.0128
 8986TIP3    H126903   5.878   1.001   5.180 -1.1148  0.2830  0.5652
 8986TIP3    H226904   5.925   1.145   5.178  2.3455 -0.7605 -0.4633
 8987TIP3   OH226905   7.659   0.949   5.733  0.2256 -0.6613  0.1129
 8987TIP3    H126906   7.752   0.938   5.754  0.1597 -1.1554  0.1567
 8987TIP3    H226907   7.613   0.909   5.806 -0.0124 -1.3120 -0.3815
 8988TIP3   OH226908   7.329   6.416   3.389  0.3991  0.6160  0.4590
 8988TIP3    H126909   7.365   6.504   3.405  1.6001  0.0447  1.0133
 8988TIP3    H226910   7.282   6.425   3.306  0.9150  1.6733  0.2501
 8989TIP3   OH226911   4.990   3.378   3.209 -0.3890 -0.2906 -0.2191
 8989TIP3    H126912   4.973   3.293   3.250  0.1563 -0.3424 -0.0868
 8989TIP3    H226913   4.951   3.441   3.268  0.0549 -0.3910  0.1874
 8990TIP3   OH226914   2.854   4.632   3.129 -0.2010 -0.0811 -0.1377
 8990TIP3    H126915   2.848   4.540   3.156 -0.3735 -0.3426 -1.0175
 8990TIP3    H226916   2.903   4.628   3.046 -0.5513  0.5821 -0.3757
 8991TIP3   OH226917   5.338   2.548   5.584  0.2974 -0.1517 -0.1350
 8991TIP3    H126918   5.347   2.515   5.495 -0.5357  1.1949 -0.7426
 8991TIP3    H226919   5.245   2.539   5.604  0.7040 -1.9921  1.2609
 8992TIP3   OH226920   2.897   5.162   3.497  0.2289 -0.6223  0.3033
 8992TIP3    H126921   2.864   5.196   3.413  0.6032 -0.4220  0.2333
 8992TIP3    H226922   2.867   5.071   3.499 -1.5642 -0.0574  0.9062
 8993TIP3   OH226923   4.323   5.097   1.466 -0.1827 -0.3295 -0.1975
 8993TIP3    H126924   4.283   5.171   1.420  1.4615  0.0446 -1.1106
 8993TIP3    H226925   4.415   5.121   1.475  0.4170 -2.2697 -0.5947
 8994TIP3   OH226926   1.863   2.064   3.350  0.2849  0.5289 -0.3707
 8994TIP3    H126927   1.898   1.981   3.317  0.6515  0.6551 -0.3051
 8994TIP3    H226928   1.782   2.039   3.396 -0.1942  0.3480 -1.2958
 8995TIP3   OH226929   2.796   2.957   4.179  0.2284  0.5883 -0.0249
 8995TIP3    H126930   2.783   2.957   4.274 -0.6980  0.7812 -0.1459
 8995TIP3    H226931   2.719   2.912   4.144  0.3896  0.8291 -0.7046
 8996TIP3   OH226932   2.848   2.390   1.654  0.2643 -0.3452 -0.2021
 8996TIP3    H126933   2.810   2.434   1.578  1.2497  0.9176  0.0013
 8996TIP3    H226934   2.773   2.361   1.705 -0.4094 -0.6919 -1.3627
 8997TIP3   OH226935   0.872   0.063   3.427  0.3622 -0.2145 -0.2474
 8997TIP3    H126936   0.857   0.017   3.510 -0.6003  0.8156  0.1814
 8997TIP3    H226937   0.784   0.078   3.392  0.7479 -0.2993 -1.2657
 8998TIP3   OH226938   4.453   0.346   4.673 -0.4829  0.1431 -0.1053
 8998TIP3    H126939   4.428   0.435   4.695  1.3508  0.5567  0.5053
 8998TIP3    H226940   4.426   0.294   4.749 -1.5634  0.1577 -0.4682
 8999TIP3   OH226941   7.401   0.866   0.709 -0.1950  0.1943  0.3139
 8999TIP3    H126942   7.484   0.819   0.700 -1.2509 -2.8662  3.9607
 8999TIP3    H226943   7.411   0.915   0.790 -0.8504  2.6549 -1.0063
 9000TIP3   OH226944   6.138   6.749   3.627 -0.2733  0.2708 -0.4992
 9000TIP3    H126945   6.092   6.683   3.576  1.3302 -1.3756  0.0939
 9000TIP3    H226946   6.208   6.701   3.672  0.6741  2.2917  0.3214
 9001TIP3   OH226947   4.585   7.243   6.667  0.1814  0.1966  0.2390
 9001TIP3    H126948   4.602   7.177   6.734  0.1667 -1.0366 -0.9311
 9001TIP3    H226949   4.669   7.253   6.622 -0.3869 -0.8167 -1.1131
 9002TIP3   OH226950   5.987   6.661   1.589 -0.0127  0.5718  0.2074
 9002TIP3    H126951   6.041   6.711   1.528 -0.5333 -1.6085 -2.1773
 9002TIP3    H226952   5.898   6.672   1.557 -0.3390 -0.3692  0.7428
 9003TIP3   OH226953   3.600   1.108   1.605 -0.5831 -0.4596  0.2810
 9003TIP3    H126954   3.622   1.038   1.666 -1.8121 -1.0218  0.1040
 9003TIP3    H226955   3.539   1.164   1.653 -0.8867 -0.4263 -0.1359
 9004TIP3   OH226956   2.090   0.203   2.375  0.0230 -0.2511 -0.0066
 9004TIP3    H126957   2.112   0.277   2.432 -0.4642 -0.2499  0.1836
 9004TIP3    H226958   2.000   0.181   2.399  0.1682 -0.9091 -0.0645
 9005TIP3   OH226959   7.923   5.569   2.448  0.4839  0.1169  0.1603
 9005TIP3    H126960   7.892   5.614   2.370  1.4522  0.2595 -0.1527
 9005TIP3    H226961   7.973   5.635   2.497  1.0079 -0.3210  0.2294
 9006TIP3   OH226962   4.244   7.115   2.868  0.3325 -0.3601  0.0193
 9006TIP3    H126963   4.264   7.198   2.825  0.6103 -0.6800 -0.4610
 9006TIP3    H226964   4.320   7.097   2.923 -0.6145  0.7940  1.8327
 9007TIP3   OH226965   6.738   4.308   5.098  0.4597 -0.1019  0.4896
 9007TIP3    H126966   6.705   4.228   5.057 -0.1603  1.1338 -1.6050
 9007TIP3    H226967   6.700   4.308   5.186 -2.2669 -0.5318 -0.5836
 9008TIP3   OH226968   5.598   5.145   5.538 -0.4398 -0.1451  0.0003
 9008TIP3    H126969   5.574   5.185   5.621 -0.2287 -2.1106  1.0703
 9008TIP3    H226970   5.523   5.088   5.516  0.0463 -0.6143 -0.4795
 9009TIP3   OH226971   4.053   0.652   3.375  0.1027  0.3170 -0.0264
 9009TIP3    H126972   4.114   0.701   3.429  0.9885 -1.3058  0.5296
 9009TIP3    H226973   4.036   0.572   3.425 -1.5909  0.2059 -0.7023
 9010TIP3   OH226974   7.979   4.233   4.388 -0.0600  0.3173  0.0375
 9010TIP3    H126975   8.008   4.271   4.306  0.1183 -1.9469 -1.0378
 9010TIP3    H226976   8.060   4.220   4.438  0.1988 -0.8192 -0.6249
 9011TIP3   OH226977   4.164   0.608   3.121 -0.2207 -0.1330 -0.3010
 9011TIP3    H126978   4.128   0.626   3.208 -1.1693  0.2199 -0.7492
 9011TIP3    H226979   4.233   0.544   3.136 -0.6889 -0.4276  0.6556
 9012TIP3   OH226980   4.278   3.160   0.401 -0.2880  0.7340  0.6148
 9012TIP3    H126981   4.293   3.098   0.329 -0.1627 -0.2305  1.4394
 9012TIP3    H226982   4.207   3.120   0.451  0.8351  0.4347  2.0368
 9013TIP3   OH226983   4.378   6.159   5.119 -0.2401 -0.4588  0.4338
 9013TIP3    H126984   4.316   6.208   5.066  1.8706  0.2255 -1.5916
 9013TIP3    H226985   4.346   6.069   5.118 -0.1786 -0.5227 -2.2853
 9014TIP3   OH226986   0.657   0.248   3.117 -0.1630  0.1827 -0.3238
 9014TIP3    H126987   0.655   0.192   3.194  0.0837 -1.6249 -1.5790
 9014TIP3    H226988   0.622   0.332   3.147  1.3122  0.0281  2.1153
 9015TIP3   OH226989   4.465   3.920   1.398 -0.0044  0.0116  0.2667
 9015TIP3    H126990   4.538   3.979   1.419 -1.3295  2.3465 -1.2223
 9015TIP3    H226991   4.506   3.846   1.354  1.6806  0.0223  1.6996
 9016TIP3   OH226992   4.343   0.747   2.674 -0.1346 -0.9224 -0.0797
 9016TIP3    H126993   4.413   0.774   2.734 -0.2639 -0.2668 -0.2191
 9016TIP3    H226994   4.263   0.758   2.725 -0.3695  0.8685 -0.7497
 9017TIP3   OH226995   0.265   7.362   6.549  0.1395  0.3282 -0.3741
 9017TIP3    H126996   0.199   7.390   6.485 -0.8148  1.3823  1.0077
 9017TIP3    H226997   0.287   7.442   6.597  0.7389 -0.4507  0.6864
 9018TIP3   OH226998   7.180   4.423   1.771  0.4683 -0.2476  0.3683
 9018TIP3    H126999   7.203   4.355   1.834 -0.9077 -1.0808  0.0131
 9018TIP3    H227000   7.090   4.446   1.791  0.7357  1.1265  0.1404
 9019TIP3   OH227001   7.293   7.099   5.017  0.7094 -0.5352 -0.2013
 9019TIP3    H127002   7.236   7.031   5.054 -0.1302 -1.4837 -2.9628
 9019TIP3    H227003   7.381   7.062   5.023  0.6575 -0.4768  1.1548
 9020TIP3   OH227004   2.068   3.189   1.583 -0.4209  0.2427  0.5676
 9020TIP3    H127005   2.046   3.233   1.501  0.4462 -0.2793  0.0404
 9020TIP3    H227006   2.108   3.258   1.637  1.9508 -0.0532 -0.6609
 9021TIP3   OH227007   5.721   6.976   2.429 -0.2020  0.2063  0.2512
 9021TIP3    H127008   5.699   7.036   2.358  1.0625 -0.4867 -0.7604
 9021TIP3    H227009   5.659   6.998   2.499  0.3446  2.8375  0.0121
 9022TIP3   OH227010   5.698   0.448   3.112 -0.0527 -0.3093 -0.5352
 9022TIP3    H127011   5.625   0.505   3.136  0.6959  0.4088  0.1249
 9022TIP3    H227012   5.737   0.489   3.035  0.2527 -0.1158 -0.2856
 9023TIP3   OH227013   6.390   5.685   4.234  0.1031  0.5000 -0.1012
 9023TIP3    H127014   6.434   5.618   4.286 -0.7171 -0.8176 -1.0607
 9023TIP3    H227015   6.297   5.674   4.255 -0.0382  1.4616 -0.1599
 9024TIP3   OH227016   8.163   7.580   3.325  0.6709  0.3756  0.0522
 9024TIP3    H127017   8.258   7.594   3.318  0.8153  0.6054  2.0961
 9024TIP3    H227018   8.135   7.638   3.395 -0.8752 -0.2871  0.0271
 9025TIP3   OH227019   3.580   2.313   6.449 -0.3805 -0.0330 -0.0863
 9025TIP3    H127020   3.595   2.268   6.366 -1.0785 -0.6885  0.1325
 9025TIP3    H227021   3.496   2.279   6.480 -0.2014  0.3147  0.8143
 9026TIP3   OH227022   3.975   1.173   6.109  0.0379  0.0772  0.2942
 9026TIP3    H127023   3.920   1.246   6.079 -1.6166 -0.5738  1.5516
 9026TIP3    H227024   3.912   1.105   6.135  1.4903 -1.1790  0.6622
 9027TIP3   OH227025   7.305   0.667   4.814  0.3757 -0.1514  0.1559
 9027TIP3    H127026   7.222   0.710   4.837  0.0259 -0.9447  0.4131
 9027TIP3    H227027   7.314   0.680   4.720  1.2686  2.1838  0.4909
 9028TIP3   OH227028   2.871   4.981   2.627 -0.1271  0.3233 -0.0855
 9028TIP3    H127029   2.890   4.902   2.575 -1.0860  0.5328 -0.7673
 9028TIP3    H227030   2.845   5.047   2.563  1.1135  1.3566  0.4318
 9029TIP3   OH227031   2.727   1.421   0.525 -0.6327  0.0224 -0.9111
 9029TIP3    H127032   2.797   1.356   0.527 -1.2787 -0.7703  1.9911
 9029TIP3    H227033   2.771   1.504   0.508  0.5944 -0.8089 -1.9659
 9030TIP3   OH227034   1.423   6.185   4.133 -0.2774 -0.3077 -0.3315
 9030TIP3    H127035   1.374   6.195   4.215  1.2337  0.8303  0.4814
 9030TIP3    H227036   1.495   6.126   4.156 -0.6131 -1.0765 -1.2162
 9031TIP3   OH227037   0.027   1.798   2.772  0.1979  0.5409 -0.2592
 9031TIP3    H127038   0.032   1.722   2.713  0.5684 -0.0037  0.4623
 9031TIP3    H227039  -0.035   1.857   2.730 -0.1492 -0.1930 -0.7935
 9032TIP3   OH227040   1.085   3.964   3.979 -0.2103 -0.0764 -0.2049
 9032TIP3    H127041   1.022   4.020   4.025  1.6766  0.9017  1.3480
 9032TIP3    H227042   1.108   4.014   3.901 -2.8716 -1.4132 -1.9982
 9033TIP3   OH227043   4.250   0.594   1.990  0.2203  0.5844  0.9973
 9033TIP3    H127044   4.159   0.606   2.018  0.2104  1.6525  0.5581
 9033TIP3    H227045   4.299   0.588   2.072 -0.0292  1.8623  1.2641
 9034TIP3   OH227046   3.034   2.014   6.197 -0.3033  0.4937  0.2203
 9034TIP3    H127047   3.091   1.939   6.186 -2.8415 -1.3243 -1.7845
 9034TIP3    H227048   3.054   2.071   6.123  2.9181  2.9421  2.7020
 9035TIP3   OH227049   3.116   4.289   4.097  0.3921 -0.3150 -0.2469
 9035TIP3    H127050   3.163   4.313   4.177  0.8221 -0.8810 -0.3266
 9035TIP3    H227051   3.111   4.370   4.047 -0.4313  0.1914  0.6308
 9036TIP3   OH227052   0.534   1.948   0.821  0.4405  0.1849  0.5071
 9036TIP3    H127053   0.622   1.945   0.858  0.2609 -0.2825  0.9001
 9036TIP3    H227054   0.542   2.005   0.744  1.2255 -0.3711  0.1647
 9037TIP3   OH227055   6.170   4.913   5.448 -0.2261  0.2936  0.2327
 9037TIP3    H127056   6.113   4.837   5.450  0.2233 -0.0364  0.7847
 9037TIP3    H227057   6.182   4.937   5.540  2.3411 -1.0268  0.3353
 9038TIP3   OH227058   8.160   5.560   4.829  0.4047  0.1303  0.5849
 9038TIP3    H127059   8.071   5.565   4.792  1.1623 -1.4663 -1.6772
 9038TIP3    H227060   8.187   5.652   4.837 -0.9162  0.6134 -0.0714
 9039TIP3   OH227061   7.407   6.399   6.172 -0.2006 -0.6785  0.7846
 9039TIP3    H127062   7.365   6.412   6.257  0.1403  0.1045  0.8360
 9039TIP3    H227063   7.472   6.469   6.165 -1.8354  0.7777 -1.1444
 9040TIP3   OH227064   2.164   6.790   4.205  0.3879 -0.3811  0.0361
 9040TIP3    H127065   2.224   6.726   4.244 -0.4903 -1.6963 -0.7010
 9040TIP3    H227066   2.089   6.791   4.265  0.8922  0.8530  0.6676
 9041TIP3   OH227067   6.778   4.182   0.941 -0.3069  0.4129  0.0302
 9041TIP3    H127068   6.797   4.159   1.032  0.2592  0.1226 -0.1534
 9041TIP3    H227069   6.793   4.276   0.936 -1.9628  0.7525  0.6246
 9042TIP3   OH227070   4.221   4.576   5.407 -0.2529  0.2411 -0.3667
 9042TIP3    H127071   4.202   4.532   5.490 -0.8268  0.1861 -0.5254
 9042TIP3    H227072   4.200   4.511   5.340  1.9819 -0.4025 -0.5346
 9043TIP3   OH227073   6.318   7.200   3.078  0.0859  0.3727  0.5045
 9043TIP3    H127074   6.317   7.214   2.983 -0.2061 -1.4074  0.2047
 9043TIP3    H227075   6.260   7.124   3.091  0.1669  0.5555  2.0983
 9044TIP3   OH227076   2.407   5.284   5.248 -0.5202 -0.2249  0.1325
 9044TIP3    H127077   2.416   5.228   5.171  1.3287 -0.9288  0.8159
 9044TIP3    H227078   2.453   5.237   5.318  1.9146  2.4645  0.5459
 9045TIP3   OH227079   5.963   0.061   3.096 -0.0776  0.0734  0.0794
 9045TIP3    H127080   5.947   0.138   3.150 -1.4876 -1.6572  2.2983
 9045TIP3    H227081   6.040   0.020   3.135 -1.1670 -1.2493  0.9126
 9046TIP3   OH227082   7.622   4.651   4.489  0.1173 -0.4769 -0.3843
 9046TIP3    H127083   7.661   4.729   4.450 -0.2905 -1.1912 -2.3520
 9046TIP3    H227084   7.697   4.597   4.514  0.4045  0.5431  1.1024
 9047TIP3   OH227085   2.006   4.746   4.115  0.2697  0.4532  0.4630
 9047TIP3    H127086   1.989   4.707   4.201  0.6715 -0.4642  0.1314
 9047TIP3    H227087   2.032   4.836   4.134  0.7784  0.1281  1.3248
 9048TIP3   OH227088   1.897   3.254   5.678  0.4914 -0.6557  0.3535
 9048TIP3    H127089   1.816   3.250   5.627  1.9503 -4.7768 -2.1067
 9048TIP3    H227090   1.949   3.323   5.637 -0.5754 -0.0033  0.0589
 9049TIP3   OH227091   5.677   3.784   6.115 -0.1614 -0.0304 -0.0171
 9049TIP3    H127092   5.643   3.872   6.097  2.2266  0.6559 -1.5926
 9049TIP3    H227093   5.697   3.747   6.028  3.9676  0.0916  0.6666
 9050TIP3   OH227094   1.120   2.412   2.677  0.1793 -0.1355  0.8411
 9050TIP3    H127095   1.085   2.475   2.614 -0.6979 -1.0111  0.4198
 9050TIP3    H227096   1.210   2.440   2.693 -0.5448  1.9137  1.5825
 9051TIP3   OH227097   8.095   1.420   2.290  0.8096  0.3099  0.0234
 9051TIP3    H127098   8.064   1.401   2.379 -0.2033  0.2946 -0.3160
 9051TIP3    H227099   8.020   1.462   2.248  1.2360  0.1895 -0.8706
 9052TIP3   OH227100   4.267   4.254   2.217  0.3564  0.3767 -0.2675
 9052TIP3    H127101   4.198   4.288   2.160 -0.1486  0.0549  0.1322
 9052TIP3    H227102   4.253   4.159   2.216  0.1029  0.3892  0.6630
 9053TIP3   OH227103   5.575   5.103   5.862 -0.4278  0.1717 -0.0064
 9053TIP3    H127104   5.622   5.181   5.832  0.2579  0.3666  1.4726
 9053TIP3    H227105   5.626   5.072   5.937 -0.9748 -1.4168 -0.2460
 9054TIP3   OH227106   4.202   2.540   0.358  0.0941  0.2643 -0.6879
 9054TIP3    H127107   4.251   2.560   0.279 -1.0398  1.7614 -1.0585
 9054TIP3    H227108   4.110   2.543   0.332 -0.3734  2.0096  0.8618
 9055TIP3   OH227109   6.207   3.894   6.097 -0.6634 -0.3834 -0.2586
 9055TIP3    H127110   6.113   3.898   6.118 -0.7605 -1.6586 -0.3541
 9055TIP3    H227111   6.215   3.817   6.040  0.3674  0.0351 -0.6992
 9056TIP3   OH227112   8.097   1.609   5.782 -0.3924 -0.0174 -0.7905
 9056TIP3    H127113   8.036   1.548   5.742  0.3627 -0.3698 -1.4384
 9056TIP3    H227114   8.181   1.590   5.739  1.0261 -1.9615  2.4036
 9057TIP3   OH227115   4.380   0.279   5.610 -0.3177 -0.2008  0.3219
 9057TIP3    H127116   4.442   0.229   5.556 -1.4921 -1.0938 -0.2508
 9057TIP3    H227117   4.350   0.349   5.552  1.3180  1.2423  1.1211
 9058TIP3   OH227118   4.402   6.180   4.237 -0.0819  0.2338 -0.0677
 9058TIP3    H127119   4.403   6.148   4.327 -0.9166  0.6165  0.0879
 9058TIP3    H227120   4.375   6.105   4.184  2.7370 -0.7060 -0.3322
 9059TIP3   OH227121   6.101   3.325   5.113 -0.4475 -0.1473  0.2112
 9059TIP3    H127122   6.015   3.319   5.072 -0.7988  2.6494  0.3545
 9059TIP3    H227123   6.091   3.391   5.181  1.4668 -0.8643  1.2721
 9060TIP3   OH227124   5.899   1.733   6.612 -0.5907  0.8776  0.1635
 9060TIP3    H127125   5.874   1.646   6.582 -0.0492  0.6151  0.4593
 9060TIP3    H227126   5.847   1.793   6.558  0.2175  0.4108 -1.2009
 9061TIP3   OH227127   3.668   2.487   5.544  0.1567 -0.3279  0.1355
 9061TIP3    H127128   3.746   2.502   5.597  0.8494 -1.2095 -0.6045
 9061TIP3    H227129   3.632   2.405   5.577 -0.2177 -0.1471  0.1825
 9062TIP3   OH227130   6.927   3.119   4.632 -0.3602  0.2790 -0.7500
 9062TIP3    H127131   6.939   3.156   4.719 -1.8219  0.4653 -0.6070
 9062TIP3    H227132   6.938   3.193   4.572 -0.0448  0.2851 -0.6875
 9063TIP3   OH227133   8.124   5.228   6.749  0.0640 -0.3773  0.0259
 9063TIP3    H127134   8.066   5.155   6.728 -0.8997  0.5370 -0.4961
 9063TIP3    H227135   8.191   5.226   6.680 -0.2903 -0.4077 -0.3171
 9064TIP3   OH227136   3.435   1.081   2.912  0.3001  0.2149 -0.0688
 9064TIP3    H127137   3.488   1.161   2.905  0.5750 -0.0117 -0.6755
 9064TIP3    H227138   3.347   1.109   2.889  0.2315  0.5053  0.5138
 9065TIP3   OH227139   7.693   1.901   6.463  0.2932 -0.7478 -0.2765
 9065TIP3    H127140   7.688   1.860   6.550 -3.8134  1.3114  0.6938
 9065TIP3    H227141   7.629   1.854   6.410 -0.2077  0.6178 -0.9179
 9066TIP3   OH227142   5.858   4.958   2.092 -0.0824 -0.4709  0.7298
 9066TIP3    H127143   5.896   5.039   2.125 -1.5687  0.3080  0.6076
 9066TIP3    H227144   5.803   4.926   2.163  0.4757 -1.4006  0.7739
 9067TIP3   OH227145   5.540   4.512   5.748  0.0924  0.4272 -0.0469
 9067TIP3    H127146   5.593   4.547   5.676  0.1547  1.5730  0.5304
 9067TIP3    H227147   5.604   4.488   5.816 -0.0425  0.5977  0.1420
 9068TIP3   OH227148   1.789   7.337   1.067  0.4549 -0.0303 -0.0422
 9068TIP3    H127149   1.771   7.428   1.041  0.3987  0.0558  0.2883
 9068TIP3    H227150   1.704   7.293   1.060  0.3246  0.1237  0.5101
 9069TIP3   OH227151   0.545   2.442   3.293  0.5279 -0.0742  0.3290
 9069TIP3    H127152   0.529   2.534   3.315  1.2887  0.2349 -0.3482
 9069TIP3    H227153   0.607   2.446   3.220  1.5701 -1.1423  1.1110
 9070TIP3   OH227154   3.065   2.229   0.250  0.1469  0.3537  0.7177
 9070TIP3    H127155   3.091   2.272   0.168  0.6620 -1.8975 -0.3865
 9070TIP3    H227156   2.994   2.170   0.224  2.6160 -3.0891  0.9830
 9071TIP3   OH227157   0.247   6.027   3.982  0.1171  0.3915 -0.7560
 9071TIP3    H127158   0.336   5.992   3.987 -0.9559 -2.3624  0.6841
 9071TIP3    H227159   0.228   6.030   3.888  0.5154 -2.4264 -0.9986
 9072TIP3   OH227160   3.435   1.983   5.384 -0.6117 -0.5946  0.2520
 9072TIP3    H127161   3.481   2.066   5.397  0.1409 -1.2737  2.3452
 9072TIP3    H227162   3.360   2.005   5.329  0.5846  1.1008 -0.7869
 9073TIP3   OH227163   6.784   2.409   6.232  0.2344 -0.1701  0.1815
 9073TIP3    H127164   6.858   2.368   6.278  0.6482 -0.0075 -0.3275
 9073TIP3    H227165   6.787   2.370   6.145 -1.5028 -1.6826  0.7237
 9074TIP3   OH227166   0.195   6.091   3.719 -0.3709 -0.3302  0.2101
 9074TIP3    H127167   0.170   6.079   3.627  1.2984  1.9792 -0.6492
 9074TIP3    H227168   0.124   6.145   3.756 -0.0133  0.5524 -0.3560
 9075TIP3   OH227169   4.571   7.439   5.030 -0.7669  0.1710 -0.0193
 9075TIP3    H127170   4.630   7.495   4.979 -0.4019 -1.3868 -1.3726
 9075TIP3    H227171   4.614   7.354   5.032 -0.9685  0.0394  2.6047
 9076TIP3   OH227172   0.490   7.093   2.541 -0.3601  0.3677 -0.3224
 9076TIP3    H127173   0.547   7.070   2.467  0.7698 -0.1115  0.6725
 9076TIP3    H227174   0.460   7.182   2.521  0.5001  0.5194 -1.0093
 9077TIP3   OH227175   1.760   3.868   4.038 -0.6529 -0.2262 -0.1488
 9077TIP3    H127176   1.725   3.884   4.125  0.1761 -0.1631  0.1779
 9077TIP3    H227177   1.807   3.948   4.015 -0.1988 -0.5371 -0.3209
 9078TIP3   OH227178   1.629   4.060   3.790 -0.2488  0.5017 -0.1696
 9078TIP3    H127179   1.558   4.099   3.841 -0.5546  0.5764 -0.6421
 9078TIP3    H227180   1.654   4.129   3.728 -1.5756 -0.4106 -1.7970
 9079TIP3   OH227181   2.482   0.007   5.768  0.3661 -0.2331 -0.1354
 9079TIP3    H127182   2.530   0.085   5.798  0.2114  0.4958 -1.6923
 9079TIP3    H227183   2.521  -0.013   5.683  0.0311 -1.5588  0.0101
 9080TIP3   OH227184   1.247   1.666   2.884 -0.3197 -0.2533  0.2987
 9080TIP3    H127185   1.287   1.584   2.856 -0.3372 -0.0576 -0.3205
 9080TIP3    H227186   1.256   1.724   2.808 -0.6490  0.1918  0.5958
 9081TIP3   OH227187   2.424   0.121   0.396  0.3681  0.1534  0.8925
 9081TIP3    H127188   2.435   0.207   0.354  0.5025  0.3116  1.2449
 9081TIP3    H227189   2.511   0.098   0.428  0.3506 -0.1592  0.7177
 9082TIP3   OH227190   4.444   0.456   5.064 -0.3992  0.0155  0.4274
 9082TIP3    H127191   4.446   0.396   4.990  0.5780 -1.4282  1.5697
 9082TIP3    H227192   4.513   0.425   5.122 -0.8678  1.3553  1.7747
 9083TIP3   OH227193   5.101   4.825   6.497 -0.0229 -0.4782  0.0971
 9083TIP3    H127194   5.030   4.825   6.561 -1.4681 -1.9449 -1.4268
 9083TIP3    H227195   5.091   4.908   6.450 -0.2847 -0.3545  0.3705
 9084TIP3   OH227196   2.643   5.517   1.501  0.4094 -0.0230  0.0612
 9084TIP3    H127197   2.724   5.486   1.460  0.6413  0.5547  0.0721
 9084TIP3    H227198   2.642   5.611   1.482 -1.3430 -0.3534 -1.8119
 9085TIP3   OH227199   3.486   1.236   6.301 -0.2048 -0.4287 -0.3873
 9085TIP3    H127200   3.558   1.283   6.344 -0.8670 -1.3914  1.9511
 9085TIP3    H227201   3.411   1.295   6.309 -0.7944 -1.3356  1.6661
 9086TIP3   OH227202   2.486   2.353   0.451  0.1971 -0.1112  0.4920
 9086TIP3    H127203   2.419   2.418   0.473  1.0854  0.4481  1.6072
 9086TIP3    H227204   2.541   2.348   0.528  2.8447  1.1738 -1.1565
 9087TIP3   OH227205   4.447   4.802   1.736 -0.7447  0.3929 -0.7551
 9087TIP3    H127206   4.456   4.831   1.827 -0.0519  0.3797 -0.8114
 9087TIP3    H227207   4.353   4.809   1.717 -0.9652 -0.1508  0.1322
 9088TIP3   OH227208   3.534   1.553   6.683 -0.6906 -0.3979  0.0494
 9088TIP3    H127209   3.600   1.597   6.629 -0.7563 -2.3939 -1.8309
 9088TIP3    H227210   3.584   1.494   6.739 -0.6731  1.1694  1.7704
 9089TIP3   OH227211   2.580   5.831   3.098  0.2774 -0.5651  0.9019
 9089TIP3    H127212   2.552   5.878   3.177 -1.3421  1.3999 -0.7186
 9089TIP3    H227213   2.657   5.880   3.067 -0.0026 -0.4013  0.4600
 9090TIP3   OH227214   0.769   4.676   0.528 -0.2947 -0.2678  0.1283
 9090TIP3    H127215   0.731   4.597   0.567  1.8254 -1.4784 -0.1004
 9090TIP3    H227216   0.769   4.741   0.598 -1.5925 -0.6196  0.4776
 9091TIP3   OH227217   8.138   1.376   5.389 -0.1833  0.1449  0.5775
 9091TIP3    H127218   8.120   1.456   5.340 -0.2470  0.2717  0.8054
 9091TIP3    H227219   8.231   1.360   5.374 -0.3209 -0.1158 -0.0204
 9092TIP3   OH227220   7.563   0.696   2.479 -0.2879 -0.3102 -0.7752
 9092TIP3    H127221   7.599   0.784   2.496  0.3722 -0.8263  0.7007
 9092TIP3    H227222   7.519   0.704   2.394  1.2507  0.9910 -1.5095
 9093TIP3   OH227223   1.376   2.902   5.604  0.3148  0.1197 -0.1331
 9093TIP3    H127224   1.300   2.911   5.547  0.0408  1.9290  0.4595
 9093TIP3    H227225   1.349   2.942   5.687  0.6358 -2.6073  1.4099
 9094TIP3   OH227226   0.973   3.149   0.859 -0.1382 -0.1986 -0.0592
 9094TIP3    H127227   0.922   3.100   0.924  0.3135 -1.0086 -0.3072
 9094TIP3    H227228   1.064   3.127   0.879  0.0954  0.8260  0.0480
 9095TIP3   OH227229   1.696   0.688   1.868 -0.5968 -0.4318 -0.1659
 9095TIP3    H127230   1.701   0.763   1.927  1.3347 -1.0021  0.4654
 9095TIP3    H227231   1.781   0.686   1.824 -1.9462 -0.0270 -3.0640
 9096TIP3   OH227232   2.821   5.899   2.915  0.1020 -0.3493 -0.1281
 9096TIP3    H127233   2.900   5.952   2.924 -0.5839  0.7110 -0.1442
 9096TIP3    H227234   2.754   5.961   2.886 -0.4411 -1.4737 -1.3739
 9097TIP3   OH227235   4.221   1.277   6.129 -0.8766 -0.6407  0.2156
 9097TIP3    H127236   4.140   1.228   6.142 -1.5651  0.3566 -0.1696
 9097TIP3    H227237   4.199   1.341   6.061  0.4408 -0.8124 -0.4064
 9098TIP3   OH227238   7.860   3.000   1.832 -0.2215 -1.0256  1.0453
 9098TIP3    H127239   7.943   3.005   1.784 -0.1053  1.0656  1.3779
 9098TIP3    H227240   7.834   2.908   1.825  2.0493 -1.7158  0.8429
 9099TIP3   OH227241   0.120   7.078   2.247 -0.1807 -0.0614  0.0917
 9099TIP3    H127242   0.143   7.155   2.193 -0.1637 -0.0911  0.0565
 9099TIP3    H227243   0.205   7.044   2.277 -0.2539  0.8777  1.4353
 9100TIP3   OH227244   1.810   2.817   6.734  0.3996  0.1160 -0.0989
 9100TIP3    H127245   1.888   2.821   6.789 -0.4647  1.5074  1.0949
 9100TIP3    H227246   1.744   2.869   6.781 -1.3825 -1.3212 -0.8702
 9101TIP3   OH227247   4.768   4.267   0.604  0.0335 -0.4806 -0.0267
 9101TIP3    H127248   4.699   4.207   0.575 -0.4255 -0.0794  0.2200
 9101TIP3    H227249   4.725   4.352   0.610  0.4939 -0.2693  0.3583
 9102TIP3   OH227250   2.993   2.879   4.768  0.2907 -0.1007 -0.0263
 9102TIP3    H127251   2.907   2.860   4.806 -0.3387  0.7257 -0.9755
 9102TIP3    H227252   3.006   2.972   4.787  0.0363  0.2881 -1.6469
 9103TIP3   OH227253   5.453   4.164   5.045 -0.3718  0.1984  0.4996
 9103TIP3    H127254   5.469   4.082   5.093 -1.2578  1.2118  2.6315
 9103TIP3    H227255   5.462   4.139   4.953  1.0097 -1.9280  1.1284
 9104TIP3   OH227256   7.320   5.518   1.920 -0.4631 -0.7825  0.9441
 9104TIP3    H127257   7.397   5.464   1.902 -1.2957 -1.0587 -2.4806
 9104TIP3    H227258   7.280   5.476   1.996  0.2260 -3.6392 -0.1049
 9105TIP3   OH227259  -0.009   3.730   1.417 -0.2899 -0.0572 -0.2397
 9105TIP3    H127260   0.026   3.804   1.467 -0.4225  1.9029 -2.8574
 9105TIP3    H227261   0.052   3.720   1.344 -0.8593 -1.9089 -0.5014
 9106TIP3   OH227262   6.047   5.329   0.258 -0.3149 -0.9284 -0.1110
 9106TIP3    H127263   5.989   5.380   0.315  0.7183  1.5388 -1.1507
 9106TIP3    H227264   6.083   5.261   0.315 -0.7571  0.2765  1.6768
 9107TIP3   OH227265   4.883   1.344   6.573  0.0016  0.0104  0.0214
 9107TIP3    H127266   4.918   1.335   6.485  1.0568  1.3272  0.2838
 9107TIP3    H227267   4.934   1.414   6.613  0.9404 -1.8614  2.3660
 9108TIP3   OH227268   6.481   2.354   2.378  0.0903  0.5327  0.5390
 9108TIP3    H127269   6.388   2.333   2.385  0.0543  1.1150  2.0182
 9108TIP3    H227270   6.511   2.301   2.304 -1.1313 -0.6395  0.8444
 9109TIP3   OH227271   7.744   7.396   3.438  0.1360 -0.3240 -0.3596
 9109TIP3    H127272   7.723   7.309   3.402  0.4526 -0.7398  0.4428
 9109TIP3    H227273   7.829   7.384   3.481  0.1525  0.3766 -0.1910
 9110TIP3   OH227274   6.341   5.269   6.394 -0.0653 -0.3746 -0.1810
 9110TIP3    H127275   6.341   5.231   6.482  1.8569 -1.5185 -0.6284
 9110TIP3    H227276   6.432   5.292   6.378 -0.5310  0.6219 -1.5616
 9111TIP3   OH227277   1.326   2.777   0.251  0.5130  0.4906  0.6949
 9111TIP3    H127278   1.306   2.833   0.176 -0.4846  0.0288  0.6003
 9111TIP3    H227279   1.393   2.825   0.300  0.7630  1.0598 -0.1791
 9112TIP3   OH227280   2.838   5.307   0.904  0.3608  0.6056 -1.0474
 9112TIP3    H127281   2.753   5.350   0.907  0.5121  0.8804  1.4338
 9112TIP3    H227282   2.819   5.214   0.919  0.5550  0.8746  1.1437
 9113TIP3   OH227283   3.215   5.123   6.087  0.6240  0.6102 -0.1963
 9113TIP3    H127284   3.300   5.097   6.123  0.2998 -0.1903  0.0147
 9113TIP3    H227285   3.235   5.160   6.001  1.0644 -0.8174 -0.7363
 9114TIP3   OH227286   6.570   5.883   5.260  0.1597  0.0141  0.4248
 9114TIP3    H127287   6.656   5.845   5.240  1.2269  1.0826  2.6411
 9114TIP3    H227288   6.567   5.963   5.207  0.1313 -0.4524 -0.2990
 9115TIP3   OH227289   3.049   3.946   1.353 -0.0246 -0.3384  0.2864
 9115TIP3    H127290   3.103   3.939   1.432  2.2113  0.4897 -1.0858
 9115TIP3    H227291   3.060   3.862   1.309  2.8824  0.8711 -1.5663
 9116TIP3   OH227292   6.661   4.472   2.473 -0.0265  0.2467  0.4826
 9116TIP3    H127293   6.569   4.461   2.445 -0.2158  3.1343 -0.3222
 9116TIP3    H227294   6.711   4.427   2.404 -0.7728 -0.2874  0.2610
 9117TIP3   OH227295   2.804   2.842   0.035  0.0423  0.3611 -0.0506
 9117TIP3    H127296   2.802   2.783  -0.040  1.6853  1.7256 -1.2360
 9117TIP3    H227297   2.742   2.911   0.013 -0.2985  0.1976  0.3758
 9118TIP3   OH227298   0.312   5.770   4.165  0.5646  0.1035 -0.4922
 9118TIP3    H127299   0.297   5.681   4.197 -0.5188  0.2188 -0.6156
 9118TIP3    H227300   0.332   5.758   4.072  0.6745 -0.0328 -0.4510
 9119TIP3   OH227301   2.056   4.974   3.669  0.1270  0.1569  0.1832
 9119TIP3    H127302   2.036   4.939   3.583 -0.0155  1.4369 -0.3307
 9119TIP3    H227303   2.149   4.957   3.681 -0.0945 -1.0657  0.2967
 9120TIP3   OH227304   5.763   1.402   1.597 -0.1510  0.0233  0.1636
 9120TIP3    H127305   5.784   1.453   1.675 -2.6774 -0.4012  1.2302
 9120TIP3    H227306   5.749   1.468   1.528  1.0486  0.4615  0.3257
 9121TIP3   OH227307   6.888   7.572   5.819 -0.7409  0.5044  0.2790
 9121TIP3    H127308   6.918   7.524   5.896 -0.4918  0.7664  0.3472
 9121TIP3    H227309   6.847   7.506   5.764  0.9951 -0.0873 -0.3683
 9122TIP3   OH227310   5.516   1.840   3.572 -0.0350  0.8238  0.3606
 9122TIP3    H127311   5.535   1.841   3.478  1.5066 -0.4547  0.6292
 9122TIP3    H227312   5.435   1.890   3.580  0.2672  1.7214 -1.5418
 9123TIP3   OH227313   2.563   1.827   4.289 -0.3830  0.0607 -1.0347
 9123TIP3    H127314   2.469   1.835   4.304 -0.0802  0.2361  1.0922
 9123TIP3    H227315   2.578   1.734   4.274 -0.9427  0.1062 -1.9350
 9124TIP3   OH227316   2.772   0.547   5.224 -0.8452 -0.2313 -0.5521
 9124TIP3    H127317   2.680   0.545   5.251 -1.2552  0.3346 -1.8474
 9124TIP3    H227318   2.770   0.529   5.130  0.3557 -0.0346 -0.6263
 9125TIP3   OH227319   5.934   5.483   1.894  0.4731  0.1212  0.6468
 9125TIP3    H127320   5.873   5.507   1.825  0.3097  0.9549  1.0703
 9125TIP3    H227321   5.905   5.396   1.922  0.1130  0.0764  0.1386
 9126TIP3   OH227322   4.002   0.271   1.062  0.3712 -0.1735 -0.2354
 9126TIP3    H127323   4.026   0.307   1.147  0.8258 -1.1854  0.0667
 9126TIP3    H227324   3.909   0.250   1.070 -0.3736  2.4393 -0.9583
 9127TIP3   OH227325   2.739   6.984   3.802 -0.0792 -0.2500  0.1249
 9127TIP3    H127326   2.806   7.043   3.834 -0.5491  0.5037 -0.2548
 9127TIP3    H227327   2.677   7.040   3.755  0.8263 -1.3389 -2.5360
 9128TIP3   OH227328   5.076   0.795   2.498  0.1544 -0.1348 -0.3686
 9128TIP3    H127329   5.120   0.761   2.420 -0.4786  0.2778 -0.9171
 9128TIP3    H227330   4.999   0.739   2.508  0.2407 -0.1960 -0.0239
 9129TIP3   OH227331   7.622   2.321   3.414  0.2251  0.4776  0.0935
 9129TIP3    H127332   7.717   2.320   3.402  0.3162 -0.4464  0.7875
 9129TIP3    H227333   7.591   2.248   3.361  0.0324  0.0328  0.8138
 9130TIP3   OH227334   0.096   2.170   1.549 -0.1824  0.0672  0.0716
 9130TIP3    H127335   0.147   2.107   1.601 -0.9669 -1.9900 -1.4926
 9130TIP3    H227336   0.008   2.168   1.589  0.3592  2.0659  1.4998
 9131TIP3   OH227337   7.876   4.517   3.870 -0.4510  0.4143  0.0772
 9131TIP3    H127338   7.871   4.466   3.789 -1.0169 -1.3890  1.1883
 9131TIP3    H227339   7.811   4.586   3.858 -0.7247  0.0112 -0.8942
 9132TIP3   OH227340   0.923   3.731   5.019  0.2315 -0.1670  0.1378
 9132TIP3    H127341   0.879   3.789   5.079 -0.0390 -0.8082  0.5704
 9132TIP3    H227342   0.859   3.663   4.999  0.2560  0.1209 -1.0097
 9133TIP3   OH227343   6.117   6.434   5.493  0.4074 -0.0362 -0.7358
 9133TIP3    H127344   6.130   6.456   5.401 -0.5609 -0.5822 -1.0220
 9133TIP3    H227345   6.132   6.516   5.540  1.0211  0.2224 -1.3579
 9134TIP3   OH227346   2.965   1.322   5.492  0.5324 -0.1232  0.4849
 9134TIP3    H127347   2.955   1.417   5.502  1.3264  0.0504 -0.2396
 9134TIP3    H227348   3.054   1.311   5.458  0.0513 -1.0405 -0.5456
 9135TIP3   OH227349   0.304   1.670   1.848  0.9910  0.3308 -0.1045
 9135TIP3    H127350   0.384   1.641   1.890  2.7743  1.6966 -2.3153
 9135TIP3    H227351   0.333   1.728   1.778 -1.9379  0.7964 -1.0907
 9136TIP3   OH227352   3.641   2.457   3.486  0.3653 -0.0877 -0.2635
 9136TIP3    H127353   3.712   2.518   3.467 -2.1893  2.5286 -2.3501
 9136TIP3    H227354   3.607   2.485   3.571  1.4448 -1.0488  0.5166
 9137TIP3   OH227355   3.417   4.994   3.100 -0.1657 -0.5975  0.7623
 9137TIP3    H127356   3.500   5.039   3.117 -0.4027 -0.0720  0.5488
 9137TIP3    H227357   3.443   4.906   3.072  0.2861 -0.7357  1.6087
 9138TIP3   OH227358   0.481   1.415   0.175  0.6157 -0.2664 -0.1200
 9138TIP3    H127359   0.519   1.490   0.130 -2.0438  1.6078  0.5126
 9138TIP3    H227360   0.528   1.410   0.258  0.4254  1.1659  0.1005
 9139TIP3   OH227361   0.913   7.079   2.495  0.0321  0.4475 -0.2645
 9139TIP3    H127362   0.863   7.046   2.420 -0.3105 -0.5196  0.3626
 9139TIP3    H227363   0.983   7.131   2.457 -0.3328  0.2423 -1.2421
 9140TIP3   OH227364   3.335   6.166   1.344 -0.0792  0.5691 -0.8677
 9140TIP3    H127365   3.350   6.259   1.362 -0.1798  0.6412 -1.1464
 9140TIP3    H227366   3.354   6.122   1.427  1.8662  0.6214 -1.2464
 9141TIP3   OH227367   1.668   1.723   4.527 -0.0075  0.4409  0.2500
 9141TIP3    H127368   1.663   1.806   4.573  1.0326  0.3498  0.5465
 9141TIP3    H227369   1.647   1.657   4.594 -0.2064  0.4250  0.1717
 9142TIP3   OH227370   2.630   4.989   1.916  0.3259  0.0612 -0.1872
 9142TIP3    H127371   2.579   5.032   1.848 -0.3857 -0.9568 -0.3159
 9142TIP3    H227372   2.566   4.958   1.979  0.7759 -1.0813 -0.2605
 9143TIP3   OH227373   5.067   5.392   4.932  0.4499  0.4307  0.1104
 9143TIP3    H127374   5.006   5.385   4.858  1.4669  1.1454 -0.8454
 9143TIP3    H227375   5.125   5.464   4.907  0.8053  0.7071  1.6421
 9144TIP3   OH227376   0.762   0.209   4.136  0.4438 -0.4731 -0.3347
 9144TIP3    H127377   0.795   0.163   4.059 -1.1646  0.1645 -1.4511
 9144TIP3    H227378   0.687   0.156   4.165 -0.4777  0.5683 -0.7212
 9145TIP3   OH227379   8.010   3.750   0.248 -0.3818 -0.2370 -0.5442
 9145TIP3    H127380   8.051   3.798   0.320 -1.7353 -1.4388  1.1149
 9145TIP3    H227381   8.076   3.686   0.221 -0.1264 -0.2852  0.1727
 9146TIP3   OH227382   3.861   3.771   1.342  0.2404 -0.6013  0.9398
 9146TIP3    H127383   3.869   3.866   1.354  1.1703 -0.5934  0.3885
 9146TIP3    H227384   3.824   3.761   1.254 -1.0872 -0.7389  1.5005
 9147TIP3   OH227385   2.012   1.427   6.714  0.5968 -0.1175 -0.6249
 9147TIP3    H127386   1.953   1.401   6.644 -0.5047 -0.5888  0.4338
 9147TIP3    H227387   2.001   1.360   6.781 -0.8443  1.9595  1.3696
 9148TIP3   OH227388   0.615   7.042   0.694  0.1755 -0.2674  0.3402
 9148TIP3    H127389   0.610   7.136   0.678  2.1229 -0.1560  0.1117
 9148TIP3    H227390   0.587   7.002   0.612 -4.5967 -0.0949  1.5877
 9149TIP3   OH227391   4.679   5.049   3.325 -0.5346 -0.1583 -0.4284
 9149TIP3    H127392   4.607   5.035   3.263 -1.8594  3.6462  0.0251
 9149TIP3    H227393   4.734   5.115   3.284  1.4196 -1.2238  0.3445
 9150TIP3   OH227394   3.237   6.100   2.538  0.1684 -0.3582  0.2037
 9150TIP3    H127395   3.323   6.093   2.578 -0.2879 -0.3821  1.2172
 9150TIP3    H227396   3.191   6.021   2.564 -0.7710  0.4962  1.2311
 9151TIP3   OH227397   7.859   5.812   1.611  0.0393  0.5165 -0.1785
 9151TIP3    H127398   7.872   5.878   1.543 -1.1050  0.3856 -0.5512
 9151TIP3    H227399   7.791   5.849   1.668 -2.4798 -1.3108 -1.7855
 9152TIP3   OH227400   3.775   4.432   3.842  0.5247 -0.1278 -0.0914
 9152TIP3    H127401   3.835   4.432   3.768  2.0003  0.2325  1.0630
 9152TIP3    H227402   3.715   4.504   3.824  0.7329 -0.1662 -1.0176
 9153TIP3   OH227403   8.271   7.536   5.833  0.6882 -0.4214  0.3751
 9153TIP3    H127404   8.244   7.562   5.921 -0.2553 -0.8062  0.2061
 9153TIP3    H227405   8.193   7.545   5.779  1.4912  0.7386 -0.6513
 9154TIP3   OH227406   1.341   3.965   6.309 -0.0985 -0.1082  0.1545
 9154TIP3    H127407   1.250   3.952   6.335  0.2476 -1.2579  0.8352
 9154TIP3    H227408   1.381   3.879   6.315  1.1063  0.4197  0.1092
 9155TIP3   OH227409   3.520   5.214   6.745  0.0471  0.0751  0.5102
 9155TIP3    H127410   3.562   5.299   6.736  0.1977 -0.0768 -0.3711
 9155TIP3    H227411   3.510   5.183   6.655  1.5242 -1.5731  0.8510
 9156TIP3   OH227412   7.013   2.187   6.630  0.3038  0.2948  0.4517
 9156TIP3    H127413   7.090   2.154   6.584 -0.4541 -0.7201 -0.1307
 9156TIP3    H227414   6.997   2.121   6.698 -0.0730  0.4859  0.5473
 9157TIP3   OH227415   1.980   1.424   1.811 -0.1939 -0.0499  0.2203
 9157TIP3    H127416   2.071   1.425   1.841 -0.1022  0.3289 -0.0597
 9157TIP3    H227417   1.983   1.388   1.723 -0.0323  1.9612 -0.6351
 9158TIP3   OH227418   5.977   6.591   0.868  0.0655 -0.0063  0.4068
 9158TIP3    H127419   5.922   6.634   0.933  1.9699  0.6661  1.6770
 9158TIP3    H227420   6.050   6.652   0.855  1.6846 -1.8171  0.5342
 9159TIP3   OH227421   6.394   7.352   1.311 -0.1103  0.0181  0.4044
 9159TIP3    H127422   6.307   7.380   1.338 -0.4633  0.2501 -0.8856
 9159TIP3    H227423   6.450   7.429   1.321 -0.1721  0.0200  0.7251
 9160TIP3   OH227424   2.997   2.888   3.450  0.2372 -0.0394 -0.4368
 9160TIP3    H127425   2.928   2.844   3.400  0.3244  0.6107 -1.1570
 9160TIP3    H227426   3.048   2.817   3.488 -0.0316 -0.5525 -1.0077
 9161TIP3   OH227427   1.375   5.552   0.038 -0.4215  0.1948 -0.3909
 9161TIP3    H127428   1.308   5.616   0.062  0.2831  0.3435  1.3064
 9161TIP3    H227429   1.395   5.506   0.120  1.0870 -0.2793 -1.0006
 9162TIP3   OH227430   5.776   2.016   6.239 -0.3140  0.0786  0.0733
 9162TIP3    H127431   5.863   1.977   6.228 -0.4740  0.0601 -1.2519
 9162TIP3    H227432   5.786   2.105   6.205 -0.6249  0.3249  0.6267
 9163TIP3   OH227433   0.215   1.254   1.094  0.3697  0.6239  0.3207
 9163TIP3    H127434   0.239   1.269   1.185  0.6775 -0.4973  0.4370
 9163TIP3    H227435   0.284   1.197   1.060  0.2548  1.0283 -0.6152
 9164TIP3   OH227436   4.101   4.720   3.606 -0.1280 -0.2722 -0.5455
 9164TIP3    H127437   4.155   4.661   3.658  1.5697  0.8103 -1.0101
 9164TIP3    H227438   4.076   4.790   3.667 -2.2678 -1.4790  0.0464
 9165TIP3   OH227439   3.615   3.541   6.304 -0.2995 -0.1991  0.7911
 9165TIP3    H127440   3.552   3.607   6.274 -1.3934 -1.4440  0.2591
 9165TIP3    H227441   3.675   3.589   6.360 -0.5869  1.4101 -0.2230
 9166TIP3   OH227442   1.293   1.451   5.823  0.3335  0.1603  0.0629
 9166TIP3    H127443   1.354   1.440   5.896 -0.5514  0.4149  0.8556
 9166TIP3    H227444   1.280   1.546   5.817 -0.0608  0.1024 -0.0277
 9167TIP3   OH227445   3.406   3.637   2.139 -0.4639 -0.6131 -0.2372
 9167TIP3    H127446   3.495   3.602   2.133  0.8626  1.8675  2.4851
 9167TIP3    H227447   3.368   3.592   2.214 -1.1389 -0.8459 -0.7068
 9168TIP3   OH227448   6.667   6.388   1.185  0.2002 -0.1265 -0.4650
 9168TIP3    H127449   6.727   6.354   1.251 -0.4922  0.4002  0.4516
 9168TIP3    H227450   6.656   6.315   1.123  0.9423 -0.5880 -0.0688
 9169TIP3   OH227451   2.703   0.927   5.641 -0.0748 -0.0391  0.3070
 9169TIP3    H127452   2.695   0.888   5.554  0.1657 -1.7272  0.9876
 9169TIP3    H227453   2.771   0.994   5.632  0.8691 -1.0662 -0.5319
 9170TIP3   OH227454   2.881   3.752   1.198 -0.0936 -0.1009 -0.1621
 9170TIP3    H127455   2.972   3.723   1.184 -0.6308 -1.6334 -0.6467
 9170TIP3    H227456   2.855   3.790   1.113 -0.2250 -0.5758 -0.3363
 9171TIP3   OH227457   7.308   6.079   1.204 -0.3506 -0.0369  0.4541
 9171TIP3    H127458   7.390   6.115   1.238 -1.1374  2.0721  0.2834
 9171TIP3    H227459   7.270   6.151   1.154 -2.1507 -1.0819  0.2605
 9172TIP3   OH227460   6.341   7.251   5.773 -0.1648 -0.1131 -0.2034
 9172TIP3    H127461   6.394   7.204   5.838 -2.7430 -1.6503  0.9201
 9172TIP3    H227462   6.300   7.322   5.822  0.1922  0.5879 -0.8930
 9173TIP3   OH227463   3.246   2.844   1.994  0.0282 -0.4492  0.2664
 9173TIP3    H127464   3.300   2.796   2.056  0.5271  0.5473  0.6308
 9173TIP3    H227465   3.308   2.880   1.931 -0.3242 -0.2069  0.0525
 9174TIP3   OH227466   1.998   1.530   3.462 -0.2431 -0.4055 -0.2943
 9174TIP3    H127467   2.088   1.547   3.490 -0.0374  2.1048 -2.1651
 9174TIP3    H227468   1.965   1.615   3.434 -3.5725 -1.0464  1.1667
 9175TIP3   OH227469   4.263   6.677   5.434  0.5644  0.2394  0.1449
 9175TIP3    H127470   4.254   6.582   5.443  1.7558  0.2217  1.5077
 9175TIP3    H227471   4.173   6.710   5.443  0.2370 -0.7005  0.5119
 9176TIP3   OH227472   6.579   7.465   2.415 -0.0033  0.6843  0.5485
 9176TIP3    H127473   6.569   7.376   2.448 -1.5612  0.6560  0.0595
 9176TIP3    H227474   6.659   7.498   2.458  0.2465 -0.7197  1.1946
 9177TIP3   OH227475   7.497   7.713   3.519 -0.5011  0.2359 -0.3713
 9177TIP3    H127476   7.516   7.657   3.595 -1.7782  0.8602  0.4675
 9177TIP3    H227477   7.493   7.653   3.445  2.4209 -0.1834 -0.2828
 9178TIP3   OH227478   1.705   2.284   0.793 -0.2394 -0.5760 -0.0013
 9178TIP3    H127479   1.767   2.349   0.826 -0.6315 -0.3262  0.2497
 9178TIP3    H227480   1.683   2.315   0.705 -0.6805 -0.1825  0.2430
 9179TIP3   OH227481   7.538   5.452   3.417 -0.4826  0.4229  0.2140
 9179TIP3    H127482   7.626   5.463   3.451 -0.4748  0.3293  0.2242
 9179TIP3    H227483   7.498   5.539   3.425  0.4892  1.1970 -2.2885
 9180TIP3   OH227484   0.386   0.844   6.638  0.4668  0.0999  0.4418
 9180TIP3    H127485   0.389   0.852   6.542  0.0626  0.4105  0.4537
 9180TIP3    H227486   0.443   0.913   6.670  1.2943 -0.5468  0.4118
 9181TIP3   OH227487   5.786   6.739   1.305 -0.2964  0.3914 -0.0422
 9181TIP3    H127488   5.803   6.813   1.364  0.8626 -1.3548  1.9905
 9181TIP3    H227489   5.789   6.662   1.363 -0.3125 -1.3492 -2.2357
 9182TIP3   OH227490   1.712   0.670   6.141  0.0172  0.2687 -0.7517
 9182TIP3    H127491   1.794   0.631   6.112  0.1607  2.1641 -3.2693
 9182TIP3    H227492   1.650   0.597   6.144  1.4970 -1.0015  0.0863
 9183TIP3   OH227493   8.093   2.600   2.896 -0.2605  0.5358 -0.3601
 9183TIP3    H127494   8.109   2.674   2.838 -2.3075  0.2508 -1.3503
 9183TIP3    H227495   8.083   2.525   2.838 -3.0584  0.3570  0.2141
 9184TIP3   OH227496   5.042   1.919   5.496  0.3901 -0.0239  0.3929
 9184TIP3    H127497   5.035   1.840   5.443  0.7668 -1.5083  2.4798
 9184TIP3    H227498   4.952   1.946   5.511  0.2631 -0.0232 -0.3206
 9185TIP3   OH227499   1.154   5.368   1.258 -0.0698  0.3267  0.1927
 9185TIP3    H127500   1.124   5.312   1.186  0.5000 -0.1994  0.3582
 9185TIP3    H227501   1.110   5.332   1.336  0.1432  0.2350  0.2699
 9186TIP3   OH227502   7.090   3.705   0.151 -0.0689 -0.3198  0.2666
 9186TIP3    H127503   7.088   3.623   0.102  0.6845 -0.8789  1.1318
 9186TIP3    H227504   7.168   3.751   0.119 -1.8799  1.3691 -2.1631
 9187TIP3   OH227505   2.388   7.041   2.595  0.5385 -0.2479  0.1145
 9187TIP3    H127506   2.413   7.130   2.574  0.7949 -0.5344 -0.8489
 9187TIP3    H227507   2.292   7.042   2.597  0.5304 -0.0650 -0.4096
 9188TIP3   OH227508   3.688   1.960   6.339 -0.1074 -0.0830  0.0775
 9188TIP3    H127509   3.650   1.949   6.426  1.2324  1.3348  0.9095
 9188TIP3    H227510   3.672   2.052   6.318  1.9539  0.3389  0.0857
 9189TIP3   OH227511   7.423   0.353   6.218 -0.1301 -0.2516 -0.0439
 9189TIP3    H127512   7.329   0.341   6.220 -0.0802 -1.3073 -1.6981
 9189TIP3    H227513   7.440   0.426   6.277 -1.8396 -0.8055  1.1890
 9190TIP3   OH227514   7.388   4.063   0.399 -0.0069  0.2773  0.8544
 9190TIP3    H127515   7.455   4.131   0.389 -0.4277  0.5462 -0.2100
 9190TIP3    H227516   7.438   3.981   0.399  0.3989  0.5197  1.0098
 9191TIP3   OH227517   6.931   1.267   4.637  0.1842 -0.6235 -0.1321
 9191TIP3    H127518   7.024   1.281   4.618 -0.2038  0.4207 -1.3622
 9191TIP3    H227519   6.922   1.291   4.729  1.0737 -0.3999 -0.0950
 9192TIP3   OH227520   7.996   1.349   3.706 -0.3101  0.3232 -0.8321
 9192TIP3    H127521   7.952   1.427   3.741  0.1295  1.6106 -2.9794
 9192TIP3    H227522   7.925   1.289   3.685 -0.7965  0.9179 -0.9254
 9193TIP3   OH227523   3.900   7.287   0.806  0.1920  0.3974 -0.3461
 9193TIP3    H127524   3.946   7.224   0.861 -0.6487 -0.7727 -0.9320
 9193TIP3    H227525   3.937   7.371   0.830  1.4807 -0.3305  0.3349
 9194TIP3   OH227526   3.831   0.123   3.909  0.3911 -0.7582 -0.1572
 9194TIP3    H127527   3.866   0.208   3.936  1.9345 -1.7030  0.9631
 9194TIP3    H227528   3.737   0.138   3.900  0.4811  0.8174  1.0278
 9195TIP3   OH227529   3.205   6.233   3.499  0.5564  0.2605 -0.0030
 9195TIP3    H127530   3.265   6.211   3.427  0.6657  0.7404 -0.0605
 9195TIP3    H227531   3.233   6.320   3.528  0.2766  0.2243  0.3756
 9196TIP3   OH227532   4.179   7.210   6.168 -0.2892 -0.1674  0.4039
 9196TIP3    H127533   4.246   7.203   6.101 -0.7678  2.1125 -0.4076
 9196TIP3    H227534   4.100   7.176   6.126 -0.2550 -0.2017  0.3668
 9197TIP3   OH227535   3.810   3.904   2.911  0.3179  0.0285 -0.0754
 9197TIP3    H127536   3.801   3.932   2.820  0.1006 -1.1586 -0.4288
 9197TIP3    H227537   3.851   3.979   2.955  0.6414  0.5224 -1.1859
 9198TIP3   OH227538   1.779   5.198   5.771 -0.2517 -0.6290 -0.1675
 9198TIP3    H127539   1.772   5.293   5.783 -2.7072 -0.6091 -1.1107
 9198TIP3    H227540   1.761   5.162   5.857  0.3226 -0.2568  0.1157
 9199TIP3   OH227541   7.693   1.787   4.095 -0.3694  0.1656  0.2250
 9199TIP3    H127542   7.742   1.828   4.165 -1.7521 -0.2544  1.4903
 9199TIP3    H227543   7.718   1.695   4.098 -0.3700  0.1605  0.1000
 9200TIP3   OH227544   3.554   1.607   4.076 -0.0942 -0.0759 -0.2285
 9200TIP3    H127545   3.625   1.646   4.127  0.3413 -0.0225 -0.8539
 9200TIP3    H227546   3.479   1.665   4.091 -1.0242 -1.8932  3.0732
 9201TIP3   OH227547   2.991   6.508   0.380 -0.0558  0.0652  0.3500
 9201TIP3    H127548   2.898   6.519   0.360  0.0529  2.9638  1.0867
 9201TIP3    H227549   3.023   6.450   0.310 -2.4943 -1.5750  0.4634
 9202TIP3   OH227550   2.261   4.517   4.805  0.3062 -0.3396  0.5479
 9202TIP3    H127551   2.188   4.576   4.822  0.6513  0.7333 -1.4620
 9202TIP3    H227552   2.293   4.494   4.893 -1.2615  0.6236  1.4294
 9203TIP3   OH227553   3.567   5.892   3.784  0.0346 -0.0616  0.5798
 9203TIP3    H127554   3.567   5.897   3.689  2.2857  2.2729  0.5944
 9203TIP3    H227555   3.477   5.914   3.809 -0.4270 -0.0595 -0.9671
 9204TIP3   OH227556   2.591   5.381   0.236  0.5445 -0.5738 -0.9790
 9204TIP3    H127557   2.587   5.414   0.146  0.2450  1.0588 -0.3922
 9204TIP3    H227558   2.540   5.299   0.233 -1.5920  0.6930 -1.8129
 9205TIP3   OH227559   6.082   5.452   2.503 -0.3212 -0.2656 -0.0379
 9205TIP3    H127560   6.040   5.527   2.544 -2.5007 -0.5526 -1.5768
 9205TIP3    H227561   6.070   5.466   2.409  2.2113 -0.9058 -0.5452
 9206TIP3   OH227562   1.992   2.333   2.427  0.3224 -0.3481  0.2363
 9206TIP3    H127563   1.979   2.370   2.340  0.9948  1.0250  0.6947
 9206TIP3    H227564   1.955   2.397   2.487  2.0887 -0.0616  1.0907
 9207TIP3   OH227565   4.840   6.757   1.274 -0.2937 -0.1159 -0.1917
 9207TIP3    H127566   4.872   6.737   1.186  0.8256  0.0770  0.1510
 9207TIP3    H227567   4.751   6.724   1.275 -0.0244 -0.9338 -1.1131
 9208TIP3   OH227568   5.665   0.718   5.489  0.2915  0.2700  0.1597
 9208TIP3    H127569   5.618   0.781   5.543  0.0092 -0.0079  0.2398
 9208TIP3    H227570   5.753   0.754   5.482  0.0453  0.8429 -0.0696
 9209TIP3   OH227571   3.252   4.878   2.190  0.2060 -0.6877  0.3267
 9209TIP3    H127572   3.338   4.888   2.231 -0.1197 -1.2033  1.1661
 9209TIP3    H227573   3.259   4.798   2.137  0.6198 -0.0350 -0.6249
 9210TIP3   OH227574   6.003   7.381   4.133  0.1706  0.1791  0.3359
 9210TIP3    H127575   5.988   7.450   4.198 -1.9341  0.0864  0.0114
 9210TIP3    H227576   5.978   7.300   4.178  0.6465 -0.1262  0.0574
 9211TIP3   OH227577   0.173   6.896   3.787 -0.4612  0.7390 -0.0461
 9211TIP3    H127578   0.150   6.896   3.694 -1.7138  0.6396  0.2519
 9211TIP3    H227579   0.235   6.823   3.795 -2.0119 -0.7121 -0.4420
 9212TIP3   OH227580   3.100   6.351   1.462 -0.2633  0.0609 -0.0922
 9212TIP3    H127581   3.163   6.377   1.394 -0.9360  0.5836 -0.5245
 9212TIP3    H227582   3.153   6.344   1.541  0.6617 -1.1952 -0.7749
 9213TIP3   OH227583   3.410   4.594   6.439 -1.1510 -0.4702  0.8520
 9213TIP3    H127584   3.345   4.611   6.370  0.2399 -1.0878 -0.6938
 9213TIP3    H227585   3.399   4.501   6.459 -1.5245 -0.3011  1.4828
 9214TIP3   OH227586   0.481   2.265   3.932 -0.4089  0.3185  0.5423
 9214TIP3    H127587   0.408   2.204   3.917 -0.7674  1.3195 -2.5684
 9214TIP3    H227588   0.442   2.351   3.919  0.7996  1.0407  1.5323
 9215TIP3   OH227589   5.515   0.505   5.002  0.1546 -0.5927 -0.5403
 9215TIP3    H127590   5.421   0.491   5.003  0.0479  0.1098  0.3043
 9215TIP3    H227591   5.530   0.576   5.064  1.2222 -0.5704 -0.7966
 9216TIP3   OH227592   4.445   5.897   1.398  0.1549  0.6835 -0.7850
 9216TIP3    H127593   4.436   5.905   1.303 -0.9531  0.4977 -0.7083
 9216TIP3    H227594   4.497   5.974   1.423  0.0168  1.0138 -1.4799
 9217TIP3   OH227595   7.110   5.395   5.981 -0.2155  0.9104  0.4178
 9217TIP3    H127596   7.077   5.448   6.053 -0.2902  0.2777  0.8598
 9217TIP3    H227597   7.140   5.458   5.916 -1.0088  1.4895  0.6010
 9218TIP3   OH227598   3.347   4.472   3.007 -0.1188  0.1442  0.1139
 9218TIP3    H127599   3.274   4.445   2.951  1.8257 -1.2197 -1.8840
 9218TIP3    H227600   3.421   4.419   2.978  1.5038  0.8643  2.6466
 9219TIP3   OH227601   7.372   5.750   2.102  0.3397 -0.2307  0.0419
 9219TIP3    H127602   7.355   5.711   2.016  1.3686  1.3876 -0.9431
 9219TIP3    H227603   7.285   5.766   2.138 -0.1371 -2.8212  0.2788
 9220TIP3   OH227604   7.386   4.917   4.883 -0.3609 -0.3637  0.4426
 9220TIP3    H127605   7.424   4.969   4.812 -2.0746  1.0005  0.4493
 9220TIP3    H227606   7.367   4.832   4.843  1.9097 -0.8551  0.2654
 9221TIP3   OH227607   1.730   7.059   0.743  0.1827  0.4752 -0.1165
 9221TIP3    H127608   1.698   6.974   0.772 -2.1635  1.4687  0.4012
 9221TIP3    H227609   1.700   7.066   0.652  2.0232  0.0168 -0.8084
 9222TIP3   OH227610   0.332   5.348   4.897  0.0141  0.7887  0.1839
 9222TIP3    H127611   0.379   5.387   4.823  0.7513  0.4805  0.4804
 9222TIP3    H227612   0.274   5.418   4.927  0.7030  1.3770  0.1685
 9223TIP3   OH227613   7.206   4.783   5.603  0.0514 -0.1637 -0.0666
 9223TIP3    H127614   7.136   4.816   5.546 -0.7276 -0.4099  0.7211
 9223TIP3    H227615   7.202   4.838   5.681 -0.0224 -0.9151  0.4694
 9224TIP3   OH227616   0.437   4.965   1.920 -0.4630  0.0322 -0.2068
 9224TIP3    H127617   0.390   4.942   1.841  1.1405 -1.0475 -0.9077
 9224TIP3    H227618   0.380   4.938   1.992 -2.6388  2.4377 -0.8887
 9225TIP3   OH227619   3.197   6.391   4.666  0.2330  0.0544  0.0203
 9225TIP3    H127620   3.203   6.391   4.570  0.0725 -1.3368 -0.0055
 9225TIP3    H227621   3.111   6.356   4.685  1.2322 -2.2345  0.6760
 9226TIP3   OH227622   4.276   7.816   3.383  0.4970 -0.1636  0.3789
 9226TIP3    H127623   4.308   7.762   3.310 -0.4917 -0.0093 -0.1884
 9226TIP3    H227624   4.198   7.771   3.413 -1.0446  1.5192 -0.8810
 9227TIP3   OH227625   1.125   3.299   2.289  0.3991 -0.4057 -0.1920
 9227TIP3    H127626   1.167   3.353   2.222 -0.3625  0.8459  0.2977
 9227TIP3    H227627   1.033   3.326   2.288 -0.3428 -2.7861 -0.9431
 9228TIP3   OH227628   4.858   1.974   0.286  0.3559  0.0977  0.1195
 9228TIP3    H127629   4.926   1.906   0.282 -1.5542 -1.8948 -2.1991
 9228TIP3    H227630   4.873   2.027   0.208 -0.8432 -0.5040 -0.5371
 9229TIP3   OH227631   5.115   6.778   2.467  0.0921  0.1686 -0.1742
 9229TIP3    H127632   5.163   6.838   2.524 -0.2769  0.2266  0.0735
 9229TIP3    H227633   5.046   6.831   2.428  0.6498  0.2571 -1.0771
 9230TIP3   OH227634   4.641   7.356   5.977  0.1778 -0.4641 -0.1120
 9230TIP3    H127635   4.653   7.273   6.023  0.4979  0.2846  1.2295
 9230TIP3    H227636   4.724   7.370   5.931  1.2995  0.4898  2.0569
 9231TIP3   OH227637   4.742   1.103   0.218  0.4697 -0.6110  0.4666
 9231TIP3    H127638   4.795   1.080   0.141 -1.0692 -0.4851 -0.6928
 9231TIP3    H227639   4.804   1.145   0.278  1.5519  0.1455 -1.0999
 9232TIP3   OH227640   1.866   1.193   0.889 -0.3028  0.4522  0.2775
 9232TIP3    H127641   1.779   1.184   0.849  0.1389 -0.5626 -0.4769
 9232TIP3    H227642   1.892   1.104   0.909  0.4983  0.7698  0.6645
 9233TIP3   OH227643   6.248   3.618   4.115 -0.1986 -0.5985  0.8440
 9233TIP3    H127644   6.191   3.693   4.132 -1.1252 -0.6110 -1.8302
 9233TIP3    H227645   6.337   3.653   4.128 -0.6421  0.7150  0.5247
 9234TIP3   OH227646   2.803   2.485   4.523 -0.1262 -0.1350 -0.2806
 9234TIP3    H127647   2.846   2.548   4.582 -0.5587 -0.9846  0.9964
 9234TIP3    H227648   2.783   2.536   4.444  0.1880  1.1372  0.4221
 9235TIP3   OH227649   5.313   4.757   0.842 -0.3084  0.4640  0.0817
 9235TIP3    H127650   5.320   4.836   0.788  0.3716 -1.7134 -3.3327
 9235TIP3    H227651   5.222   4.729   0.834 -0.2291  0.1759  0.1576
 9236TIP3   OH227652   6.335   4.767   2.045 -0.4631 -0.1190  0.1077
 9236TIP3    H127653   6.386   4.804   2.117  0.2747 -0.3806 -0.2588
 9236TIP3    H227654   6.332   4.837   1.980 -0.4131 -0.1637  0.0567
 9237TIP3   OH227655   1.761   0.122   4.957 -0.2435 -0.2960 -0.6971
 9237TIP3    H127656   1.686   0.144   4.901 -0.2858 -1.6142 -1.1821
 9237TIP3    H227657   1.732   0.147   5.045 -0.4529  1.1134 -1.1345
 9238TIP3   OH227658   5.485   2.171   1.717 -0.1445  0.3391 -0.7574
 9238TIP3    H127659   5.575   2.204   1.717 -0.4704  1.3648  1.0478
 9238TIP3    H227660   5.494   2.076   1.731  0.6560  0.2679 -1.6214
 9239TIP3   OH227661   7.556   2.273   5.451 -0.1914 -0.3385 -0.2767
 9239TIP3    H127662   7.486   2.288   5.388 -0.6487  1.3848  0.5968
 9239TIP3    H227663   7.629   2.240   5.398 -1.0200 -0.3000 -1.4802
 9240TIP3   OH227664   0.518   1.042   6.403 -0.1105 -0.2106  0.1699
 9240TIP3    H127665   0.488   1.103   6.336  0.8355  0.6311  0.4922
 9240TIP3    H227666   0.561   1.097   6.468  1.1463 -1.2420  0.2564
 9241TIP3   OH227667   0.212   0.258   4.989  0.1327  0.0515  0.1191
 9241TIP3    H127668   0.196   0.324   4.922  0.0611  1.5741  1.5599
 9241TIP3    H227669   0.266   0.191   4.946  0.9018  1.4585 -1.1711
 9242TIP3   OH227670   2.616   0.246   2.220 -0.3108 -0.4206 -0.1481
 9242TIP3    H127671   2.664   0.328   2.210 -1.7735  0.3630 -1.0267
 9242TIP3    H227672   2.586   0.246   2.311 -0.4534  0.1029 -0.1931
 9243TIP3   OH227673   4.918   1.365   4.712  0.0809  0.5805  0.0809
 9243TIP3    H127674   4.858   1.352   4.639  0.4252  0.7863 -0.2469
 9243TIP3    H227675   4.938   1.277   4.743 -0.3578  0.5083  0.1711
 9244TIP3   OH227676   2.637   7.671   0.235 -0.0924 -0.0461  0.7895
 9244TIP3    H127677   2.591   7.704   0.313  0.6327 -1.2988  1.7933
 9244TIP3    H227678   2.568   7.629   0.184 -0.2972 -0.8158  1.6684
 9245TIP3   OH227679   3.767   3.349   3.427 -0.0340  0.0216  0.2891
 9245TIP3    H127680   3.759   3.405   3.504 -0.9424 -0.2693  0.4197
 9245TIP3    H227681   3.677   3.331   3.401  0.2581 -0.3702 -0.4927
 9246TIP3   OH227682   4.742   6.754   5.856  0.2035  0.3027  0.3220
 9246TIP3    H127683   4.692   6.836   5.856  1.5969  1.1950  0.8136
 9246TIP3    H227684   4.691   6.694   5.910 -0.7779  0.8842  0.0628
 9247TIP3   OH227685   3.086   6.023   3.625 -0.4623 -0.3041 -0.0230
 9247TIP3    H127686   3.014   6.076   3.659  1.3771  0.2499  3.3752
 9247TIP3    H227687   3.144   6.086   3.583 -0.1200 -0.1780  0.6351
 9248TIP3   OH227688   6.868   3.187   4.151 -0.0502 -0.0003 -0.1838
 9248TIP3    H127689   6.861   3.112   4.092 -1.0456 -0.4681  0.4903
 9248TIP3    H227690   6.915   3.153   4.227 -0.7275 -0.0293  0.2329
 9249TIP3   OH227691   1.405   0.995   1.222 -0.1045  0.2181 -0.3265
 9249TIP3    H127692   1.368   0.930   1.282  0.2595  0.9854  0.7582
 9249TIP3    H227693   1.369   1.078   1.251  1.1861  0.7847 -0.2479
 9250TIP3   OH227694   5.502   5.247   0.794 -0.0274 -0.6052 -0.2512
 9250TIP3    H127695   5.571   5.206   0.742  2.0438  1.6643  0.5012
 9250TIP3    H227696   5.539   5.253   0.882 -2.2929 -1.6872  0.8668
 9251TIP3   OH227697   5.344   0.554   6.065  0.1697  0.1911  0.3284
 9251TIP3    H127698   5.265   0.513   6.029  0.1596  1.3626 -1.0576
 9251TIP3    H227699   5.415   0.493   6.045 -0.2838 -0.6319  1.1380
 9252TIP3   OH227700   2.557   1.530   1.935  0.4024 -0.2536  0.2186
 9252TIP3    H127701   2.632   1.567   1.890 -0.1763  1.5798  0.6832
 9252TIP3    H227702   2.550   1.579   2.017 -2.7030  1.4343 -0.8636
 9253TIP3   OH227703   3.758   5.657   0.773 -0.0066  0.4426 -0.2759
 9253TIP3    H127704   3.747   5.751   0.761  1.6988  0.5910 -0.8152
 9253TIP3    H227705   3.670   5.622   0.760 -0.4986  1.8600 -1.0399
 9254TIP3   OH227706   0.466   4.014   5.375 -0.1230 -0.5747  0.4374
 9254TIP3    H127707   0.520   3.953   5.326  0.3526 -1.4842  2.0368
 9254TIP3    H227708   0.423   3.961   5.442 -0.5753  0.6556  1.1713
 9255TIP3   OH227709   7.889   3.751   0.825  0.5432 -0.6590  0.5996
 9255TIP3    H127710   7.975   3.793   0.828  0.4125 -0.4156  1.3792
 9255TIP3    H227711   7.847   3.777   0.908 -1.6860  2.1962 -1.1883
 9256TIP3   OH227712   2.004   2.214   3.128  0.0675  0.6671 -0.1606
 9256TIP3    H127713   1.994   2.123   3.157 -1.4474  0.5867 -0.7935
 9256TIP3    H227714   1.974   2.266   3.202 -2.1930  0.5111 -0.8785
 9257TIP3   OH227715   1.922   2.502   0.289  0.1771 -0.0023  0.2497
 9257TIP3    H127716   1.835   2.489   0.251  1.7093 -1.2437 -3.2162
 9257TIP3    H227717   1.933   2.597   0.292 -0.8021  0.1461 -0.5038
 9258TIP3   OH227718   2.662   1.735   2.587  0.4247 -0.0072  0.1602
 9258TIP3    H127719   2.651   1.697   2.674  0.7390 -0.8561 -0.1589
 9258TIP3    H227720   2.756   1.730   2.571  0.5522  1.4401  0.3286
 9259TIP3   OH227721   2.065   2.727   5.845  0.1907 -0.2101  0.2222
 9259TIP3    H127722   2.068   2.797   5.910  0.2884  0.1651 -0.1725
 9259TIP3    H227723   2.082   2.772   5.762 -0.7760 -0.5349 -0.1692
 9260TIP3   OH227724   7.198   0.901   5.400  0.7537 -0.7832 -0.2507
 9260TIP3    H127725   7.255   0.833   5.364  1.3293  0.5426 -1.9804
 9260TIP3    H227726   7.193   0.967   5.331 -1.5300 -0.0537  0.5309
 9261TIP3   OH227727   3.473   6.627   2.616 -0.4745 -0.4143  0.4168
 9261TIP3    H127728   3.523   6.629   2.534 -1.6644 -0.9165 -0.3508
 9261TIP3    H227729   3.521   6.565   2.671 -0.3189 -1.0130 -0.3662
 9262TIP3   OH227730   7.593   7.099   3.966  0.4643  0.2003 -0.9863
 9262TIP3    H127731   7.605   7.014   3.923  2.3995 -1.5147  2.4189
 9262TIP3    H227732   7.512   7.088   4.017  1.4979 -0.3105  0.6454
 9263TIP3   OH227733   7.135   7.529   6.671  0.3981 -0.4528 -0.7465
 9263TIP3    H127734   7.143   7.438   6.642  3.8824 -0.6934  0.5103
 9263TIP3    H227735   7.148   7.580   6.591 -2.6671 -0.9325 -1.6665
 9264TIP3   OH227736   2.913   3.522   3.990  0.1741 -0.6537  0.0800
 9264TIP3    H127737   2.955   3.606   3.971 -0.9569  0.0473  0.6107
 9264TIP3    H227738   2.844   3.514   3.924 -1.6671  0.2711  1.8048
 9265TIP3   OH227739   5.679   3.396   4.356  0.3785  0.3508 -0.0949
 9265TIP3    H127740   5.748   3.344   4.397  1.6743  0.1148 -2.3957
 9265TIP3    H227741   5.700   3.487   4.379 -0.7983  0.0756  2.3498
 9266TIP3   OH227742   3.714   5.633   4.497  0.1926 -0.3804 -0.3735
 9266TIP3    H127743   3.630   5.620   4.453  0.0622  2.0149 -0.9423
 9266TIP3    H227744   3.780   5.621   4.429  0.2012 -0.2947 -0.3802
 9267TIP3   OH227745   2.509   3.929   4.636 -0.5033 -0.2200 -0.9521
 9267TIP3    H127746   2.472   4.016   4.620  0.1529  0.0798 -0.8742
 9267TIP3    H227747   2.466   3.898   4.715 -0.2591  0.3132 -0.6096
 9268TIP3   OH227748   5.984   5.405   5.753 -0.4106  0.3678  0.1312
 9268TIP3    H127749   6.028   5.344   5.812 -2.3455 -1.9258 -0.5931
 9268TIP3    H227750   6.017   5.382   5.666 -0.8768  0.5846 -0.1082
 9269TIP3   OH227751   5.184   6.654   3.067  0.2440 -0.6311 -0.6124
 9269TIP3    H127752   5.148   6.727   3.017 -1.3933 -1.6041 -0.9328
 9269TIP3    H227753   5.191   6.687   3.156  1.2751  0.4836 -1.0861
 9270TIP3   OH227754   4.683   1.344   2.915 -0.8788 -0.3767 -0.4287
 9270TIP3    H127755   4.756   1.296   2.874 -1.5956 -0.4093 -1.7350
 9270TIP3    H227756   4.725   1.414   2.965  0.0393  0.3803 -2.1695
 9271TIP3   OH227757   5.374   1.121   3.941  0.2824 -0.3386 -0.3066
 9271TIP3    H127758   5.392   1.215   3.943 -1.4421  0.0306 -0.2598
 9271TIP3    H227759   5.319   1.109   3.864 -1.6476 -0.8470  1.0809
 9272TIP3   OH227760   1.156   3.144   6.592 -0.2750 -0.2608  0.4371
 9272TIP3    H127761   1.224   3.094   6.636  0.5287  0.4668  0.0476
 9272TIP3    H227762   1.103   3.181   6.662  1.4680  1.5637  0.8784
 9273TIP3   OH227763   1.220   5.635   1.230 -0.2336 -0.3378  0.3782
 9273TIP3    H127764   1.211   5.630   1.135 -1.5101  0.9036  0.3998
 9273TIP3    H227765   1.193   5.548   1.261 -0.2220 -0.6097 -0.3627
 9274TIP3   OH227766   7.134   2.965   1.623  0.5632 -0.4881 -0.4808
 9274TIP3    H127767   7.041   2.958   1.645  0.9986 -0.8980  1.4115
 9274TIP3    H227768   7.144   2.912   1.544 -0.9517  0.3249 -1.2699
 9275TIP3   OH227769   5.810   2.726   1.502  0.1840  0.0297 -0.8505
 9275TIP3    H127770   5.807   2.633   1.525  3.5720  0.1323  0.4938
 9275TIP3    H227771   5.784   2.771   1.582  3.2039  0.2274  0.1200
 9276TIP3   OH227772   0.834   7.432   1.085 -0.0530 -0.0402  0.2783
 9276TIP3    H127773   0.834   7.512   1.137  0.6940 -0.5331  1.0648
 9276TIP3    H227774   0.905   7.444   1.022  1.1693 -0.7136  1.4588
 9277TIP3   OH227775   7.509   7.666   4.046  0.1163  0.1513 -0.1812
 9277TIP3    H127776   7.445   7.596   4.048 -1.5326  1.5486 -1.4583
 9277TIP3    H227777   7.594   7.621   4.040 -0.8917 -1.7138 -1.2926
 9278TIP3   OH227778   2.385   4.055   3.632  0.0298 -0.4721  0.0685
 9278TIP3    H127779   2.356   4.105   3.555 -1.4753 -1.4767 -0.0487
 9278TIP3    H227780   2.435   3.982   3.595  1.9583  0.7043  0.2258
 9279TIP3   OH227781   3.364   2.029   2.557  0.0607  0.1425 -0.2481
 9279TIP3    H127782   3.278   2.037   2.598  0.7147  0.1188  1.1597
 9279TIP3    H227783   3.404   2.115   2.568 -0.3307  0.6251 -2.2360
 9280TIP3   OH227784   6.421   1.696   3.997  0.0757  0.2910 -0.0404
 9280TIP3    H127785   6.334   1.725   3.969 -0.5758 -0.0844  1.4896
 9280TIP3    H227786   6.437   1.743   4.079  1.0974 -0.0460 -0.0283
 9281TIP3   OH227787   0.066   4.702   5.440  0.4441  0.2388  0.0461
 9281TIP3    H127788   0.095   4.773   5.382 -1.3763  0.6140 -0.4935
 9281TIP3    H227789  -0.010   4.738   5.486  1.4205 -0.2972  2.2055
 9282TIP3   OH227790   0.431   3.794   2.007  0.9348 -0.0244  0.1643
 9282TIP3    H127791   0.364   3.784   1.939 -0.1764  0.7573  1.1063
 9282TIP3    H227792   0.457   3.704   2.028  0.7692 -0.3046 -0.7668
 9283TIP3   OH227793   2.339   2.759   1.215 -0.0827 -0.3788 -0.5556
 9283TIP3    H127794   2.297   2.702   1.152  0.7255 -3.8536  1.7734
 9283TIP3    H227795   2.420   2.787   1.172 -1.6694  1.2766 -2.6949
 9284TIP3   OH227796   3.228   6.702   5.092 -0.1749  0.0405  0.1716
 9284TIP3    H127797   3.191   6.651   5.020 -0.0293  1.2189 -0.7712
 9284TIP3    H227798   3.322   6.687   5.086 -0.1034  0.6140 -0.2899
 9285TIP3   OH227799   0.117   1.961   6.355 -0.2411  0.0271  0.0060
 9285TIP3    H127800   0.112   1.935   6.263 -0.0183  0.7314 -0.2100
 9285TIP3    H227801   0.208   1.942   6.380 -0.1525  0.3371 -0.0754
 9286TIP3   OH227802   5.285   5.305   4.080 -0.0353 -0.4016  0.1357
 9286TIP3    H127803   5.283   5.217   4.118 -0.3676  0.3375  1.9419
 9286TIP3    H227804   5.308   5.362   4.154 -0.7950  1.1339 -0.7679
 9287TIP3   OH227805   3.419   4.507   1.849 -0.0682  0.3220 -0.5428
 9287TIP3    H127806   3.482   4.492   1.778  0.9843  0.9731  0.2162
 9287TIP3    H227807   3.455   4.458   1.923  0.2048  1.6534  0.2391
 9288TIP3   OH227808   4.636   1.758   0.097  0.0938 -0.0817 -0.2124
 9288TIP3    H127809   4.669   1.845   0.120  0.8055 -0.8494  1.9587
 9288TIP3    H227810   4.650   1.706   0.176 -1.4249 -1.8697 -1.0501
 9289TIP3   OH227811   1.379   2.443   2.716 -0.1790 -0.1621  0.1171
 9289TIP3    H127812   1.458   2.402   2.681 -0.3016 -0.3217  0.0278
 9289TIP3    H227813   1.389   2.436   2.811  0.4259  0.7875  0.1343
 9290TIP3   OH227814   7.738   3.603   5.878  0.1610 -0.4516  0.0965
 9290TIP3    H127815   7.703   3.601   5.789  2.2291 -0.1709 -0.7947
 9290TIP3    H227816   7.692   3.533   5.924 -1.4146 -0.1722 -0.9965
 9291TIP3   OH227817   3.138   1.415   6.081  0.2077 -0.2688 -0.0147
 9291TIP3    H127818   3.100   1.437   5.996  1.6033 -1.2105 -0.9301
 9291TIP3    H227819   3.063   1.409   6.141 -0.7618  0.8213 -1.0598
 9292TIP3   OH227820   1.616   5.276  -0.002  0.9556  0.1454  0.4907
 9292TIP3    H127821   1.553   5.303   0.064  0.9881  0.0226  0.5725
 9292TIP3    H227822   1.622   5.351  -0.062  1.2123  0.4069  0.8378
 9293TIP3   OH227823   1.204   5.342   1.910 -0.3673 -0.0840  0.5631
 9293TIP3    H127824   1.149   5.286   1.964 -1.2736 -1.4763 -1.6955
 9293TIP3    H227825   1.261   5.282   1.863 -0.2166  0.9961 -0.6901
 9294TIP3   OH227826   8.132   1.952   6.725 -0.0955 -0.5156 -0.3721
 9294TIP3    H127827   8.092   1.953   6.638 -1.1648 -0.1477  0.1058
 9294TIP3    H227828   8.214   1.904   6.713  0.2610  0.3855 -1.7846
 9295TIP3   OH227829   1.883   5.577   1.966 -0.1195  0.2512  0.3745
 9295TIP3    H127830   1.793   5.546   1.957  0.3122 -0.9365 -0.0380
 9295TIP3    H227831   1.925   5.552   1.883  0.3306  1.7293  0.1228
 9296TIP3   OH227832   5.289   6.608   1.889 -0.0801  0.0420  0.2388
 9296TIP3    H127833   5.290   6.703   1.892  0.3408  0.0269  1.1489
 9296TIP3    H227834   5.326   6.586   1.804 -0.7142  0.6888 -0.2166
 9297TIP3   OH227835   6.266   2.635   5.931  0.0249  0.7615 -0.0487
 9297TIP3    H127836   6.333   2.594   5.986 -1.7529 -1.7766  0.4203
 9297TIP3    H227837   6.239   2.566   5.870 -1.8900  1.7688 -0.4364
 9298TIP3   OH227838   5.096   3.527   6.678 -0.0662  0.2211  0.3867
 9298TIP3    H127839   5.159   3.537   6.749 -1.0590 -0.7070  1.4333
 9298TIP3    H227840   5.020   3.578   6.707 -0.4853 -0.1832  0.0014
 9299TIP3   OH227841   7.248   4.177   1.039 -0.0777 -0.2856  0.6588
 9299TIP3    H127842   7.172   4.149   0.987  0.2895  0.8975 -0.5949
 9299TIP3    H227843   7.250   4.272   1.028  1.1916 -0.2271  1.2411
 9300TIP3   OH227844   3.594   3.872   6.608 -0.8259 -0.1094  0.5225
 9300TIP3    H127845   3.526   3.848   6.545 -0.3140  0.5076 -0.2885
 9300TIP3    H227846   3.561   3.951   6.650  0.5993  2.0107 -2.0032
 9301TIP3   OH227847   0.271   2.848   1.364 -0.4899  0.0164  0.2400
 9301TIP3    H127848   0.264   2.753   1.353 -0.5405 -0.0269  0.6220
 9301TIP3    H227849   0.208   2.884   1.302  0.3383 -0.1522 -0.7351
 9302TIP3   OH227850   7.659   6.972   2.649 -0.0306 -0.4818 -0.0536
 9302TIP3    H127851   7.688   6.938   2.564 -1.2083 -0.6028 -0.4273
 9302TIP3    H227852   7.609   6.900   2.688 -1.4989  0.3508 -0.3111
 9303TIP3   OH227853   6.151   6.481   5.214 -0.4864 -0.8215 -0.1244
 9303TIP3    H127854   6.192   6.420   5.153 -1.4884  0.0729 -1.7888
 9303TIP3    H227855   6.200   6.563   5.204 -2.9311  0.5141 -2.7414
 9304TIP3   OH227856   6.798   4.957   4.860 -0.4910 -0.6887  0.4101
 9304TIP3    H127857   6.853   4.878   4.858 -0.1844 -0.4708  0.1731
 9304TIP3    H227858   6.785   4.980   4.768  0.4321  0.2392  0.4991
 9305TIP3   OH227859   1.289   7.177   2.415  0.2248  0.4096  0.4160
 9305TIP3    H127860   1.244   7.154   2.333  0.8143  1.6661 -0.2815
 9305TIP3    H227861   1.239   7.131   2.483 -0.5476 -0.2976 -0.5885
 9306TIP3   OH227862   3.043   7.123   6.708  0.0943  0.8188  0.2449
 9306TIP3    H127863   2.997   7.063   6.768  0.9404 -0.2739 -0.1790
 9306TIP3    H227864   2.973   7.166   6.659 -0.5148 -1.3812 -0.9302
 9307TIP3   OH227865   0.176   2.501   4.176  0.2440  0.0274  0.3562
 9307TIP3    H127866   0.123   2.556   4.118 -0.7773  0.0644  1.3066
 9307TIP3    H227867   0.113   2.459   4.234  1.2190 -0.3245  1.1858
 9308TIP3   OH227868   5.375   1.268   6.431  0.2891  0.3303 -0.7116
 9308TIP3    H127869   5.338   1.303   6.350 -1.2472 -1.2802 -0.7410
 9308TIP3    H227870   5.402   1.346   6.480 -3.1441  1.6517 -0.6803
 9309TIP3   OH227871   6.765   3.127   6.522  0.1624 -0.2745  0.0518
 9309TIP3    H127872   6.683   3.102   6.564  0.0614 -1.5776 -0.8453
 9309TIP3    H227873   6.833   3.099   6.582 -0.0264  1.3866  1.0968
 9310TIP3   OH227874   0.867   1.784   1.946  0.1097  0.2168 -0.1637
 9310TIP3    H127875   0.953   1.743   1.935  0.3749  0.5529  0.5762
 9310TIP3    H227876   0.867   1.815   2.037 -1.2488 -0.7997  0.2075
 9311TIP3   OH227877   0.018   2.872   2.575  0.0260 -0.3320  0.7854
 9311TIP3    H127878   0.102   2.918   2.577 -1.3214  2.3525  0.2755
 9311TIP3    H227879  -0.013   2.884   2.485  0.2568 -3.7267  0.1203
 9312TIP3   OH227880   8.028   0.135   2.674 -0.2592  0.5210 -0.5748
 9312TIP3    H127881   8.007   0.170   2.588 -0.8651  1.4258 -0.0780
 9312TIP3    H227882   8.121   0.156   2.686 -0.0584 -0.0024 -1.1815
 9313TIP3   OH227883   5.795   5.414   4.467  0.6930  0.4151 -0.5054
 9313TIP3    H127884   5.815   5.390   4.557 -0.9113  0.8419 -0.0056
 9313TIP3    H227885   5.743   5.494   4.474 -0.9753 -0.4841 -1.6690
 9314TIP3   OH227886   7.491   4.364   2.885  0.3095  0.1442  0.0926
 9314TIP3    H127887   7.469   4.294   2.947  1.8676  0.1206  0.6684
 9314TIP3    H227888   7.587   4.359   2.877  0.3802  1.7515 -0.4007
 9315TIP3   OH227889   6.491   7.742   3.731  0.0489  0.2685  0.2627
 9315TIP3    H127890   6.460   7.651   3.725 -1.5849  0.7368  0.9930
 9315TIP3    H227891   6.576   7.735   3.773 -0.1652 -0.9292  0.5414
 9316TIP3   OH227892   8.082   5.796   0.297  0.3849 -0.2720  0.4299
 9316TIP3    H127893   8.129   5.854   0.357  0.5336  0.1327 -0.0727
 9316TIP3    H227894   8.006   5.847   0.270  1.0580  0.1047 -0.8215
 9317TIP3   OH227895   6.447   1.870   2.977 -0.3106  0.1393  0.0303
 9317TIP3    H127896   6.462   1.776   2.980 -1.8102 -0.0958  1.2156
 9317TIP3    H227897   6.440   1.889   2.883  0.0123 -0.9245 -0.2289
 9318TIP3   OH227898   6.484   6.058   6.327 -0.0964  0.3186 -0.3721
 9318TIP3    H127899   6.495   6.113   6.249 -1.1871  0.1092 -0.6878
 9318TIP3    H227900   6.396   6.020   6.317  0.5235 -1.2789 -0.0357
 9319TIP3   OH227901   2.074   4.694   4.873 -0.3706 -0.4206  0.2428
 9319TIP3    H127902   1.986   4.662   4.895 -1.0026  1.1732  0.1811
 9319TIP3    H227903   2.080   4.779   4.917  0.8996 -0.2109 -0.2951
 9320TIP3   OH227904   5.437   3.536   1.978  0.0194 -0.7240 -0.1873
 9320TIP3    H127905   5.383   3.463   1.946  1.1981 -1.3609 -0.7809
 9320TIP3    H227906   5.510   3.494   2.024  0.1076  0.1192  0.4707
 9321TIP3   OH227907   7.426   2.995   2.755 -0.0952 -0.3148  0.2790
 9321TIP3    H127908   7.366   3.053   2.708  2.2166  0.0201 -2.5338
 9321TIP3    H227909   7.413   2.909   2.715 -0.1000 -0.6941  1.0750
 9322TIP3   OH227910   1.683   2.643   3.075 -0.2364 -0.1767 -0.2117
 9322TIP3    H127911   1.598   2.624   3.034 -0.2715 -1.4822  0.4190
 9322TIP3    H227912   1.689   2.582   3.147  1.4563 -0.4048 -0.5040
 9323TIP3   OH227913   6.496   6.527   5.215 -0.0215  0.5381 -0.4142
 9323TIP3    H127914   6.567   6.576   5.172  0.3709  0.2752 -0.0738
 9323TIP3    H227915   6.422   6.588   5.215  0.9381  1.7904  1.4860
 9324TIP3   OH227916   3.599   1.233   2.645 -0.4009  0.0010  0.6292
 9324TIP3    H127917   3.629   1.252   2.734 -0.0956 -0.0188  0.5315
 9324TIP3    H227918   3.679   1.232   2.593 -0.6454  0.7138  0.2281
 9325TIP3   OH227919   3.625   1.883   1.022  0.0720 -0.4390 -0.3760
 9325TIP3    H127920   3.529   1.881   1.015  0.0112 -1.0959  0.4638
 9325TIP3    H227921   3.655   1.905   0.934 -0.8641  0.1928 -0.5498
 9326TIP3   OH227922   7.995   5.522   2.085  0.1710 -0.1982  0.6049
 9326TIP3    H127923   8.069   5.461   2.075 -0.3191 -1.1272  2.2980
 9326TIP3    H227924   7.933   5.496   2.016  0.4524 -0.8865  0.6042
 9327TIP3   OH227925   4.712   4.133   6.298  0.3211 -0.1232 -0.3306
 9327TIP3    H127926   4.705   4.228   6.284 -1.5920  0.2007  2.1282
 9327TIP3    H227927   4.797   4.122   6.340 -0.3914  0.9066  1.5201
 9328TIP3   OH227928   6.711   0.749   3.580 -0.2252  0.4701 -0.2839
 9328TIP3    H127929   6.646   0.764   3.649  0.5159  1.2405  0.2798
 9328TIP3    H227930   6.661   0.717   3.505 -1.0600 -0.3410  0.5922
 9329TIP3   OH227931   4.111   4.443   2.702  0.2944  0.4486 -0.0774
 9329TIP3    H127932   4.104   4.521   2.756  1.3314 -1.0758  2.4570
 9329TIP3    H227933   4.202   4.443   2.671  0.2840  0.2559 -0.1125
 9330TIP3   OH227934   3.959   6.057   3.462 -0.4174 -0.3571  0.4409
 9330TIP3    H127935   3.876   6.104   3.475 -0.9416 -1.2089  0.2981
 9330TIP3    H227936   3.989   6.086   3.376 -0.4445  0.1372  0.5949
 9331TIP3   OH227937   2.300   5.222   0.056  0.2290 -0.4836 -0.0897
 9331TIP3    H127938   2.301   5.316   0.075  0.8881 -0.3802 -0.5802
 9331TIP3    H227939   2.232   5.187   0.112 -1.4981  0.5978 -1.4112
 9332TIP3   OH227940   0.181   0.865   3.587 -0.0101  0.0669  0.7766
 9332TIP3    H127941   0.221   0.791   3.633 -0.4440  0.6073  2.0877
 9332TIP3    H227942   0.144   0.919   3.657  0.1487  1.4385 -0.1578
 9333TIP3   OH227943   6.748   3.525   4.802 -0.6139  0.1914 -0.1747
 9333TIP3    H127944   6.771   3.526   4.709  0.0935  0.3627 -0.0008
 9333TIP3    H227945   6.748   3.618   4.828 -2.4744  0.2929 -0.3938
 9334TIP3   OH227946   1.712   4.793   2.713  0.3712 -0.5564  0.0723
 9334TIP3    H127947   1.699   4.699   2.702  0.1782 -0.5701  0.4037
 9334TIP3    H227948   1.684   4.831   2.630 -1.4357 -0.6207  0.6032
 9335TIP3   OH227949   7.528   3.393   0.584  0.0545  0.5262 -0.5929
 9335TIP3    H127950   7.516   3.374   0.677  1.3633  1.2711 -0.2338
 9335TIP3    H227951   7.621   3.416   0.577  0.4963 -1.5247 -2.4522
 9336TIP3   OH227952   4.076   1.968   0.881  0.2240  0.0094  0.1277
 9336TIP3    H127953   4.086   1.878   0.914  0.0097  0.3964  1.2801
 9336TIP3    H227954   4.083   1.959   0.785  0.6204 -1.1748  0.2492
 9337TIP3   OH227955   3.677   4.211   4.498  0.0644 -0.4558 -0.1374
 9337TIP3    H127956   3.714   4.178   4.416  0.6316 -0.2980  0.0490
 9337TIP3    H227957   3.743   4.191   4.564 -1.1542 -2.2368  0.6289
 9338TIP3   OH227958   6.339   6.079   2.208 -0.1089 -0.3426  0.5467
 9338TIP3    H127959   6.385   6.063   2.291  1.4464  1.7799  0.1642
 9338TIP3    H227960   6.271   6.142   2.230  1.6845  1.9515 -0.0642
 9339TIP3   OH227961   6.986   1.859   0.431  0.3155  0.7157 -0.0040
 9339TIP3    H127962   7.017   1.872   0.341  1.3425  2.1446  0.5055
 9339TIP3    H227963   6.948   1.944   0.455 -0.2876  0.2305  0.7845
 9340TIP3   OH227964   7.479   1.909   1.537 -0.2890  0.0921  0.1607
 9340TIP3    H127965   7.559   1.911   1.485 -0.3732 -1.3464 -0.0662
 9340TIP3    H227966   7.510   1.908   1.628 -0.1110  1.0574  0.1287
 9341TIP3   OH227967   1.673   5.836   5.113  0.1811  0.2927  0.1724
 9341TIP3    H127968   1.633   5.876   5.036  1.4153  3.0165  0.8501
 9341TIP3    H227969   1.622   5.869   5.187 -1.6128 -3.0485  0.6413
 9342TIP3   OH227970   0.062   3.302   3.262  0.5389  0.1618 -0.1239
 9342TIP3    H127971   0.068   3.393   3.289 -0.7823  1.0082 -2.4368
 9342TIP3    H227972  -0.029   3.277   3.280 -0.1121  0.4581 -2.6063
 9343TIP3   OH227973   2.037   1.147   5.549 -0.1522 -0.0328 -0.1227
 9343TIP3    H127974   2.111   1.177   5.497 -0.2670  0.3335 -0.0773
 9343TIP3    H227975   1.961   1.162   5.493 -0.2603  0.2218  0.0904
 9344TIP3   OH227976   1.704   1.161   5.153 -0.3982  0.4079  0.1195
 9344TIP3    H127977   1.704   1.177   5.059 -1.4903 -1.7745 -0.3135
 9344TIP3    H227978   1.788   1.119   5.171  0.0892  1.4199  0.2601
 9345TIP3   OH227979   1.332   6.518   6.551 -0.2809  0.3917 -0.1836
 9345TIP3    H127980   1.333   6.440   6.496  1.5631  0.2501 -0.0376
 9345TIP3    H227981   1.373   6.586   6.497 -0.6801  0.9003  0.1471
 9346TIP3   OH227982   1.151   7.464   3.893 -0.3384 -0.1779  0.4782
 9346TIP3    H127983   1.141   7.410   3.815 -0.3037 -1.1452  1.1250
 9346TIP3    H227984   1.070   7.515   3.899 -0.0639  0.3957 -0.5407
 9347TIP3   OH227985   3.116   4.075   4.416  0.5980 -0.5635 -0.3457
 9347TIP3    H127986   3.150   4.149   4.466  0.4111  0.2748 -1.4209
 9347TIP3    H227987   3.194   4.021   4.398  0.6735 -0.8533  0.7679
 9348TIP3   OH227988   7.719   0.566   1.210  0.2180 -0.5266 -0.3532
 9348TIP3    H127989   7.644   0.506   1.207 -0.3782  0.2264 -0.9659
 9348TIP3    H227990   7.725   0.593   1.301 -0.2603 -0.5869 -0.3011
 9349TIP3   OH227991   5.890   4.699   6.471  0.7893  0.4763 -0.8127
 9349TIP3    H127992   5.896   4.666   6.382 -0.4257 -0.0905 -0.7038
 9349TIP3    H227993   5.819   4.764   6.468  0.8358  0.5589 -0.2960
 9350TIP3   OH227994   5.144   2.863   1.516  0.3395 -0.4402  0.1911
 9350TIP3    H127995   5.064   2.843   1.565  0.9345  0.1391  1.4770
 9350TIP3    H227996   5.114   2.897   1.432 -0.8974  1.9614  1.4885
 9351TIP3   OH227997   6.953   0.626   3.872 -0.2532  0.7142  0.4031
 9351TIP3    H127998   6.859   0.617   3.887  0.0488  0.6865  2.4380
 9351TIP3    H227999   6.983   0.536   3.858 -0.6687  0.8194 -1.4358
 9352TIP3   OH228000   1.605   1.411   2.503 -0.4501  0.4958 -0.0996
 9352TIP3    H128001   1.691   1.430   2.540 -1.2784 -0.4704  2.5818
 9352TIP3    H228002   1.584   1.488   2.449  0.9490  1.9978  1.3775
 9353TIP3   OH228003   8.027   7.245   1.647  0.1933  0.0329  0.1478
 9353TIP3    H128004   7.974   7.247   1.727  0.4078  0.8089  0.2845
 9353TIP3    H228005   8.118   7.247   1.678  0.3009  2.3435 -0.0867
 9354TIP3   OH228006   0.282   5.713   2.813  0.2840 -0.0447  0.7154
 9354TIP3    H128007   0.279   5.788   2.873  0.1715 -0.5777  1.3917
 9354TIP3    H228008   0.345   5.653   2.853 -0.0707 -0.5730  0.4920
 9355TIP3   OH228009   4.974   7.529   5.998 -0.4837 -0.6343 -0.5561
 9355TIP3    H128010   5.020   7.479   5.931 -0.0128 -2.1261  0.8344
 9355TIP3    H228011   5.042   7.580   6.041 -0.6355 -0.4256 -0.5613
 9356TIP3   OH228012   7.131   3.383   1.041  0.3513 -0.3788 -0.4505
 9356TIP3    H128013   7.055   3.334   1.010 -0.4521  0.1461  0.6408
 9356TIP3    H228014   7.106   3.416   1.127  1.3042  0.9477 -0.6396
 9357TIP3   OH228015   5.351   4.638   5.274 -0.5964  0.1549  0.1297
 9357TIP3    H128016   5.419   4.589   5.228 -0.3748  0.0562  0.5628
 9357TIP3    H228017   5.392   4.721   5.299  0.1999 -0.9270  2.6868
 9358TIP3   OH228018   6.037   0.750   5.713  0.1042  1.1164 -0.0765
 9358TIP3    H128019   6.019   0.675   5.657  0.5214  0.4091  0.7134
 9358TIP3    H228020   6.009   0.722   5.801  0.2381  1.8928  0.2228
 9359TIP3   OH228021   6.532   2.498   5.752 -0.1968 -0.0413  0.6867
 9359TIP3    H128022   6.559   2.559   5.821 -0.5801  1.2904 -0.2845
 9359TIP3    H228023   6.440   2.481   5.770  0.1409 -1.1070  1.4941
 9360TIP3   OH228024   5.773   3.926   1.121  0.4846  0.3708 -0.5976
 9360TIP3    H128025   5.814   3.941   1.207 -0.2017 -0.8602 -0.0210
 9360TIP3    H228026   5.713   4.000   1.110  1.8458  1.4702 -0.8393
 9361TIP3   OH228027   2.787   6.911   6.279  0.6145  0.6310  0.3500
 9361TIP3    H128028   2.827   6.849   6.339 -0.9970 -1.5225 -0.6742
 9361TIP3    H228029   2.836   6.900   6.197 -1.0248 -0.9811 -0.4833
 9362TIP3   OH228030   2.526   6.023   1.885  0.1010 -0.2159  0.8508
 9362TIP3    H128031   2.584   6.093   1.856 -1.0080  0.3196 -0.1630
 9362TIP3    H228032   2.458   6.020   1.818 -1.8328  0.1215  2.7140
 9363TIP3   OH228033   5.099   6.590   3.920  0.5274  0.4992 -0.2519
 9363TIP3    H128034   5.120   6.661   3.981  0.2930  1.4049 -1.1946
 9363TIP3    H228035   5.021   6.548   3.958  1.8287 -0.5910  1.3758
 9364TIP3   OH228036   5.251   5.876   1.863 -0.2708  0.2850  0.0312
 9364TIP3    H128037   5.323   5.812   1.859 -0.5747 -0.1646  1.2296
 9364TIP3    H228038   5.292   5.955   1.899 -0.1436  0.3899 -0.3418
 9365TIP3   OH228039   0.803   7.125   0.011  0.0683  0.4908 -0.4432
 9365TIP3    H128040   0.808   7.173   0.094 -1.1733 -1.1206  0.6391
 9365TIP3    H228041   0.784   7.192  -0.055  1.2614  1.8338  0.5123
 9366TIP3   OH228042   7.688   6.334   1.662 -0.6415 -0.1474  0.0524
 9366TIP3    H128043   7.600   6.300   1.643 -1.4030  2.9160 -3.0585
 9366TIP3    H228044   7.686   6.355   1.755 -4.1040  1.8474 -0.2901
 9367TIP3   OH228045   1.624   7.043   2.412 -0.2473 -0.2084 -0.1510
 9367TIP3    H128046   1.673   7.097   2.351 -0.4561 -0.5801 -0.6538
 9367TIP3    H228047   1.625   7.092   2.494 -1.1707  0.9826 -0.8193
 9368TIP3   OH228048   2.047   0.677   4.960  0.1650  0.5862  0.2964
 9368TIP3    H128049   1.961   0.717   4.941  0.2826 -0.3331 -2.6973
 9368TIP3    H228050   2.039   0.647   5.050 -1.9453  2.2621  0.7802
 9369TIP3   OH228051   4.360   3.312   1.702  0.3563  0.3755  0.1153
 9369TIP3    H128052   4.439   3.320   1.649 -0.1579 -0.0950 -0.7534
 9369TIP3    H228053   4.294   3.276   1.642  0.1279 -1.5652  1.4151
 9370TIP3   OH228054   5.854   5.525   4.011 -0.0567  0.3331 -0.0920
 9370TIP3    H128055   5.941   5.512   3.975  0.4801  0.6420  1.0437
 9370TIP3    H228056   5.850   5.467   4.087 -0.8245  0.3478 -0.1082
 9371TIP3   OH228057   8.290   6.755   6.096 -0.5475  0.0900 -0.0903
 9371TIP3    H128058   8.290   6.835   6.043  1.2417 -0.7908 -1.5212
 9371TIP3    H228059   8.199   6.726   6.097 -0.9171  1.1543 -1.0814
 9372TIP3   OH228060   4.624   6.701   5.342  0.2878  0.0037  0.0729
 9372TIP3    H128061   4.617   6.608   5.317 -0.8910 -0.4475  1.8758
 9372TIP3    H228062   4.647   6.746   5.261 -0.9218 -1.6441 -1.2591
 9373TIP3   OH228063   0.940   5.095   1.711  0.5511  0.4488 -0.0189
 9373TIP3    H128064   0.901   5.108   1.797  0.4219  0.3104 -0.0550
 9373TIP3    H228065   1.028   5.063   1.728  0.6520  0.7722  0.0642
 9374TIP3   OH228066   3.151   5.196   3.656 -0.2501 -0.2922 -0.2362
 9374TIP3    H128067   3.102   5.113   3.656  0.4753 -0.7316 -0.4618
 9374TIP3    H228068   3.123   5.240   3.577 -0.9561 -0.1264  0.0978
 9375TIP3   OH228069   6.797   6.374   2.319 -0.3924 -0.1159 -0.5240
 9375TIP3    H128070   6.844   6.390   2.238 -1.1057 -0.9041 -1.1039
 9375TIP3    H228071   6.855   6.317   2.370  0.2675  0.7731 -0.2604
 9376TIP3   OH228072   6.443   7.419   3.153 -0.0100  0.0913 -0.7079
 9376TIP3    H128073   6.405   7.360   3.087  0.1034 -1.2242  0.3601
 9376TIP3    H228074   6.483   7.361   3.217 -0.5623  1.3091  0.8174
 9377TIP3   OH228075   1.928   4.341   3.571  0.4528  0.1327 -0.2518
 9377TIP3    H128076   2.000   4.297   3.616  1.2913 -0.1664 -1.8134
 9377TIP3    H228077   1.960   4.429   3.554  0.4097  0.0335 -0.8511
 9378TIP3   OH228078   1.663   5.120   6.358  0.7809  0.0854  0.1614
 9378TIP3    H128079   1.621   5.078   6.433  0.0292  0.8897  0.2073
 9378TIP3    H228080   1.630   5.210   6.359 -0.3107 -0.2363 -1.9421
 9379TIP3   OH228081   2.468   0.345   6.697  0.2298  0.0214  0.5309
 9379TIP3    H128082   2.469   0.405   6.622  0.2957  0.7842  1.1314
 9379TIP3    H228083   2.458   0.258   6.658 -2.1315  0.5710 -0.2558
 9380TIP3   OH228084   3.541   2.894   3.755 -0.1831  0.3527  0.0951
 9380TIP3    H128085   3.599   2.938   3.816  2.5256  0.6491 -2.4488
 9380TIP3    H228086   3.549   2.801   3.777  0.5896  0.4680  0.3323
 9381TIP3   OH228087   7.283   5.372   4.657 -0.0548 -0.0819 -0.4639
 9381TIP3    H128088   7.320   5.402   4.574  3.4305 -1.0852  0.5818
 9381TIP3    H228089   7.241   5.449   4.694 -1.8288  0.3757 -3.1063
 9382TIP3   OH228090   5.576   5.842   2.232 -0.7747  0.0813  0.4347
 9382TIP3    H128091   5.633   5.919   2.235  0.3316 -0.7132  0.0545
 9382TIP3    H228092   5.592   5.797   2.315  1.3981 -1.6913 -0.8417
 9383TIP3   OH228093   0.117   6.626   5.419 -0.1670  0.2016 -0.3682
 9383TIP3    H128094   0.138   6.542   5.459 -0.0551 -0.2347 -1.3242
 9383TIP3    H228095   0.200   6.674   5.417 -0.1751  0.2283 -0.0793
 9384TIP3   OH228096   7.941   6.298   3.329  0.4691 -0.4867 -0.0784
 9384TIP3    H128097   7.951   6.243   3.251 -0.2370 -1.8381  0.7452
 9384TIP3    H228098   7.861   6.349   3.312  0.1192 -1.0327 -0.1076
 9385TIP3   OH228099   3.975   4.036   3.922  0.2200  0.3696  0.0907
 9385TIP3    H128100   3.887   4.052   3.957  0.3019  1.1927 -0.0731
 9385TIP3    H228101   4.029   4.019   4.000  0.1406  0.9487  0.2745
 9386TIP3   OH228102   2.370   4.924   4.143 -0.0954 -0.4978 -0.2064
 9386TIP3    H128103   2.452   4.890   4.107 -1.6522 -2.0450 -2.5999
 9386TIP3    H228104   2.344   4.859   4.207  0.4675 -0.0557  0.4842
 9387TIP3   OH228105   1.317   3.694   3.814  0.4439 -0.5166 -0.5522
 9387TIP3    H128106   1.354   3.695   3.902 -1.0868  0.2753  0.1214
 9387TIP3    H228107   1.390   3.668   3.758  1.4550 -1.0240  0.9338
 9388TIP3   OH228108   1.707   3.559   2.308 -0.1578  0.0263  0.6782
 9388TIP3    H128109   1.762   3.500   2.360 -1.3972 -0.0991  1.9254
 9388TIP3    H228110   1.689   3.510   2.228  1.8918  0.2729  0.0103
 9389TIP3   OH228111   1.556   5.736   2.501 -0.2940 -0.5037 -0.5674
 9389TIP3    H128112   1.561   5.641   2.507 -0.1063 -0.8025 -3.9298
 9389TIP3    H228113   1.564   5.755   2.408  2.2423  2.9815  0.1731
 9390TIP3   OH228114   4.838   6.054   1.993 -0.0849 -0.0926  0.5909
 9390TIP3    H128115   4.805   6.092   1.912  1.1514  0.6863  0.4267
 9390TIP3    H228116   4.873   5.969   1.968 -1.5811 -0.7809  0.7075
 9391TIP3   OH228117   5.539   2.779   1.115  0.9222 -0.1920  0.4950
 9391TIP3    H128118   5.592   2.841   1.166  0.0915  0.2832  0.7913
 9391TIP3    H228119   5.533   2.702   1.171  0.7261  0.0118  0.7572
 9392TIP3   OH228120   3.619   5.620   0.128  0.3603 -0.1727  0.5290
 9392TIP3    H128121   3.683   5.634   0.057 -0.1586  1.1726  0.3019
 9392TIP3    H228122   3.625   5.527   0.147 -0.9813 -1.0636 -2.7533
 9393TIP3   OH228123   7.971   4.389   2.113  0.0714 -0.0456 -0.4169
 9393TIP3    H128124   7.905   4.328   2.080  1.5690 -0.7653 -2.2501
 9393TIP3    H228125   7.947   4.473   2.074  0.2961 -0.3379 -1.2080
 9394TIP3   OH228126   6.163   0.184   1.888  0.2800  0.6398 -0.1699
 9394TIP3    H128127   6.102   0.154   1.821  0.8897  0.9273 -0.8643
 9394TIP3    H228128   6.240   0.129   1.876  0.5737  1.0204 -0.0209
 9395TIP3   OH228129   5.908   0.847   5.047  0.4581  0.4207 -0.0035
 9395TIP3    H128130   5.988   0.822   5.093  0.7368 -2.3851 -1.8013
 9395TIP3    H228131   5.938   0.901   4.974  0.3514  1.9155  1.0163
 9396TIP3   OH228132   3.696   1.159   3.718  0.0752  0.9559  0.1079
 9396TIP3    H128133   3.787   1.140   3.741  0.3481  1.4950 -0.4724
 9396TIP3    H228134   3.661   1.204   3.795 -0.1837 -0.6200  0.9572
 9397TIP3   OH228135   8.084   7.584   0.796 -0.0156  0.3342  0.4282
 9397TIP3    H128136   8.151   7.517   0.808  0.7188  1.4454  3.3117
 9397TIP3    H228137   8.093   7.641   0.873 -1.1605  3.2457 -1.4160
 9398TIP3   OH228138   4.190   5.131   4.152 -0.6104  0.1841 -0.3986
 9398TIP3    H128139   4.142   5.171   4.079 -0.8380  0.8070  0.0825
 9398TIP3    H228140   4.223   5.048   4.116  1.0018  1.3720 -1.8426
 9399TIP3   OH228141   7.185   0.514   5.101 -0.3867  0.3366 -0.1026
 9399TIP3    H128142   7.274   0.488   5.124 -0.3759  0.5513  0.1086
 9399TIP3    H228143   7.170   0.476   5.015 -0.1186  0.2341 -0.1050
 9400TIP3   OH228144   2.858   7.622   0.411 -0.1626  0.0363  0.1027
 9400TIP3    H128145   2.810   7.613   0.329  0.4224  0.2852 -0.2783
 9400TIP3    H228146   2.791   7.619   0.479 -0.5171 -1.6708 -0.2910
 9401TIP3   OH228147   5.290   7.042   1.377  0.1504 -0.0718  0.6302
 9401TIP3    H128148   5.365   7.091   1.410  1.5766 -1.0434 -1.0229
 9401TIP3    H228149   5.279   6.970   1.439 -0.9487  1.3405  2.1696
 9402TIP3   OH228150   0.719   3.941   5.567 -0.3156  0.1773  0.3382
 9402TIP3    H128151   0.727   3.864   5.511  0.4960  0.6178 -0.1626
 9402TIP3    H228152   0.779   3.923   5.640  0.5739  0.7183 -0.2391
 9403TIP3   OH228153   5.238   7.666   3.723 -0.7022 -0.8250  0.3731
 9403TIP3    H128154   5.249   7.741   3.782  0.5012 -0.2412 -0.5546
 9403TIP3    H228155   5.192   7.601   3.776  0.3399 -0.3217  1.9893
 9404TIP3   OH228156   2.467   6.555   0.617  0.3641  0.0118  0.2437
 9404TIP3    H128157   2.473   6.638   0.569 -0.7173  0.1283  0.2912
 9404TIP3    H228158   2.392   6.566   0.675 -0.0961 -1.1893 -0.1015
 9405TIP3   OH228159   5.969   3.270   6.132 -0.4340  0.1481 -0.2265
 9405TIP3    H128160   5.997   3.278   6.041  0.0235 -2.6436 -0.4228
 9405TIP3    H228161   5.874   3.285   6.129 -0.4750 -0.2238 -1.2372
 9406TIP3   OH228162   6.160   3.674   3.005  0.0873  0.3950 -0.0820
 9406TIP3    H128163   6.207   3.758   3.003  0.0396  0.4500  0.7805
 9406TIP3    H228164   6.076   3.694   3.045  0.5801 -0.2889  1.3769
 9407TIP3   OH228165   3.554   4.360   0.728 -0.6668  0.6231  0.0439
 9407TIP3    H128166   3.519   4.393   0.645 -1.4980 -0.1968  0.0438
 9407TIP3    H228167   3.649   4.360   0.716 -0.7380  1.2736 -0.6107
 9408TIP3   OH228168   7.592   1.223   5.136 -0.2046 -0.3365 -0.1916
 9408TIP3    H128169   7.570   1.172   5.214 -1.8306 -1.0948 -1.0912
 9408TIP3    H228170   7.543   1.304   5.146  0.2527 -0.0781 -0.0322
 9409TIP3   OH228171   6.588   0.169   1.840 -0.1514  0.2471 -0.7761
 9409TIP3    H128172   6.666   0.180   1.786  1.1103 -1.2141  0.6429
 9409TIP3    H228173   6.590   0.243   1.901 -0.5214  0.8354 -1.4654
 9410TIP3   OH228174   1.349   3.490   3.093  0.2923 -0.2342  0.1066
 9410TIP3    H128175   1.267   3.500   3.142  0.9921 -0.0046  1.2826
 9410TIP3    H228176   1.356   3.396   3.077 -0.8592 -0.1196 -1.2082
 9411TIP3   OH228177   0.884   0.563   6.061 -0.5866 -0.0037  0.3721
 9411TIP3    H128178   0.908   0.585   5.971 -0.6902  0.9488  0.5663
 9411TIP3    H228179   0.803   0.612   6.076 -1.3572 -1.2784  0.5216
 9412TIP3   OH228180   3.087   6.320   0.202 -0.3481  0.0274 -0.3191
 9412TIP3    H128181   3.167   6.307   0.151  0.7214  1.9123  0.7946
 9412TIP3    H228182   3.101   6.270   0.283  0.6490  2.0028  0.7840
 9413TIP3   OH228183   7.251   1.055   1.826  0.2660  0.0829  0.3448
 9413TIP3    H128184   7.156   1.062   1.840  0.2599 -1.1396  1.0106
 9413TIP3    H228185   7.290   1.092   1.905  0.3782  1.3015 -0.2566
 9414TIP3   OH228186   1.939   3.945   5.992 -0.7579  0.8668  0.5533
 9414TIP3    H128187   2.030   3.931   5.967 -1.1133 -0.1631 -0.2584
 9414TIP3    H228188   1.895   3.971   5.911 -1.3830  0.2683  0.6847
 9415TIP3   OH228189   5.954   5.691   5.546  0.4168 -0.6892 -0.2752
 9415TIP3    H128190   5.947   5.778   5.507 -0.8906 -0.4286  0.4669
 9415TIP3    H228191   6.033   5.653   5.507 -0.4937 -0.2598 -2.7289
 9416TIP3   OH228192   2.579   2.274   3.575  0.2735 -0.2723 -0.3053
 9416TIP3    H128193   2.561   2.246   3.665 -0.4935 -0.6811 -0.5721
 9416TIP3    H228194   2.659   2.227   3.550  1.3909  1.0443  0.6814
 9417TIP3   OH228195   3.047   1.324   2.739  0.1440  0.5085  0.3544
 9417TIP3    H128196   3.033   1.403   2.791  0.3199 -0.3559  1.7692
 9417TIP3    H228197   3.116   1.276   2.786  0.2644 -0.3470 -0.6472
 9418TIP3   OH228198   6.442   2.762   2.137 -0.6824  0.3520 -0.7427
 9418TIP3    H128199   6.412   2.703   2.068 -1.8641 -1.1536  0.9761
 9418TIP3    H228200   6.373   2.828   2.144 -0.6236  0.4309 -0.9002
 9419TIP3   OH228201   5.806   3.596   6.717 -0.4134  0.2340  0.1818
 9419TIP3    H128202   5.900   3.577   6.719 -0.6386 -1.2287 -0.9100
 9419TIP3    H228203   5.779   3.591   6.808  0.1176 -2.0707  0.2725
 9420TIP3   OH228204   4.038   7.781   1.256 -0.5352 -0.0314 -0.2162
 9420TIP3    H128205   3.964   7.766   1.197  1.5784 -0.9564 -2.8031
 9420TIP3    H228206   4.030   7.873   1.281 -0.6690  0.8918 -3.2991
 9421TIP3   OH228207   3.117   1.447   4.621  0.8342 -0.2535  0.2285
 9421TIP3    H128208   3.150   1.482   4.539 -1.2149  0.1297 -0.4912
 9421TIP3    H228209   3.171   1.488   4.689  1.2938  0.9139 -0.8191
 9422TIP3   OH228210   6.874   1.748   5.497  0.3847 -0.2461  0.6649
 9422TIP3    H128211   6.797   1.723   5.446  0.9997  0.1136 -0.4709
 9422TIP3    H228212   6.945   1.695   5.461  0.9115  0.3044  0.8787
 9423TIP3   OH228213   5.526   3.758   1.336 -0.0030  0.0457 -0.1564
 9423TIP3    H128214   5.593   3.712   1.285 -0.2399 -0.3729 -0.1011
 9423TIP3    H228215   5.476   3.808   1.271  0.5429  0.5911 -0.1603
 9424TIP3   OH228216   2.416   6.723   4.334  0.1721 -0.3777 -0.1249
 9424TIP3    H128217   2.417   6.808   4.378 -0.1117 -0.7162  0.5522
 9424TIP3    H228218   2.478   6.670   4.384  1.1842 -0.2508 -1.2098
 9425TIP3   OH228219   2.289   0.069   0.862 -0.2718  0.5064 -0.3983
 9425TIP3    H128220   2.285   0.066   0.766 -1.6460  0.6601 -0.3769
 9425TIP3    H228221   2.340  -0.008   0.887 -0.3828  0.1520 -1.2383
 9426TIP3   OH228222   1.399   1.815   1.005  0.0766  0.5824  0.3726
 9426TIP3    H128223   1.390   1.892   1.062  2.1304 -0.1764  1.8294
 9426TIP3    H228224   1.437   1.748   1.062 -0.3598 -1.0914 -1.2286
 9427TIP3   OH228225   4.113   0.299   3.170 -0.3139 -0.5444  0.0538
 9427TIP3    H128226   4.142   0.315   3.260  0.1433 -0.8603 -0.0325
 9427TIP3    H228227   4.023   0.331   3.168  0.0461  0.5176  0.3115
 9428TIP3   OH228228   2.433   5.725   2.404  0.0770  0.4985 -0.6746
 9428TIP3    H128229   2.390   5.709   2.488 -2.1802  1.9438 -1.4699
 9428TIP3    H228230   2.455   5.638   2.371  0.2579 -0.1326  1.0022
 9429TIP3   OH228231   1.108   5.719   2.613  0.3438 -0.0874 -0.3301
 9429TIP3    H128232   1.046   5.650   2.637 -0.5805  0.4989 -0.9605
 9429TIP3    H228233   1.194   5.679   2.625 -0.0544 -0.3481  2.4160
 9430TIP3   OH228234   5.975   2.028   0.205  0.7150  0.2389 -0.1980
 9430TIP3    H128235   5.938   1.941   0.193  0.6459  0.1732  0.4719
 9430TIP3    H228236   5.957   2.073   0.122  2.7200 -1.0822 -1.4355
 9431TIP3   OH228237   4.617   0.556   2.082 -0.4448 -0.0046  0.2823
 9431TIP3    H128238   4.571   0.536   2.163 -0.5798 -0.6844  0.0411
 9431TIP3    H228239   4.709   0.536   2.101 -0.3108  0.8229  0.5851
 9432TIP3   OH228240   3.853   4.160   1.072 -0.0730 -0.6938  0.1659
 9432TIP3    H128241   3.891   4.109   1.001  0.4055 -0.2779  0.1176
 9432TIP3    H228242   3.876   4.250   1.051  0.2957 -0.5926  0.9768
 9433TIP3   OH228243   0.912   0.459   1.997  0.5718 -0.5378 -0.4556
 9433TIP3    H128244   0.894   0.477   2.089  1.1950  1.2911 -0.6544
 9433TIP3    H228245   0.826   0.451   1.957  0.2572  0.5903 -0.0466
 9434TIP3   OH228246   2.761   6.340   4.073  0.0279  0.9868 -0.3081
 9434TIP3    H128247   2.727   6.252   4.087 -2.0579  2.0037  1.6040
 9434TIP3    H228248   2.769   6.349   3.978 -2.1621 -0.4090 -0.6804
 9435TIP3   OH228249   0.942   0.283   0.192  0.1631  0.0447 -0.5118
 9435TIP3    H128250   0.928   0.304   0.100  1.0937  1.9969 -0.2407
 9435TIP3    H228251   0.911   0.360   0.240  0.8194 -0.4376  0.7388
 9436TIP3   OH228252   7.642   3.963   3.559  0.8228  0.3326  0.0866
 9436TIP3    H128253   7.561   3.975   3.510  1.0352  1.2950 -0.0592
 9436TIP3    H228254   7.632   3.878   3.602 -0.1836  0.3581 -0.0701
 9437TIP3   OH228255   0.081   5.480   4.965 -0.1774  0.2101  0.4672
 9437TIP3    H128256  -0.011   5.473   4.937  0.3195  1.0437 -1.5854
 9437TIP3    H228257   0.078   5.531   5.046 -1.4855  0.8087  0.0689
 9438TIP3   OH228258   2.493   6.786   0.495  1.1537 -0.1134 -0.3073
 9438TIP3    H128259   2.585   6.799   0.469  1.0295  1.6299 -0.0490
 9438TIP3    H228260   2.444   6.795   0.414  1.0449  1.7365 -0.0959
 9439TIP3   OH228261   1.537   7.331   5.166  0.6109 -0.7723  0.1351
 9439TIP3    H128262   1.515   7.353   5.075 -1.6347 -1.4965  0.4393
 9439TIP3    H228263   1.459   7.287   5.199  0.5414  1.2701  3.0572
 9440TIP3   OH228264   5.589   6.675   4.226 -0.4165  0.0311  0.2616
 9440TIP3    H128265   5.650   6.704   4.158 -1.7852  0.6250 -0.7757
 9440TIP3    H228266   5.540   6.604   4.185 -2.1672  1.2649  0.1015
 9441TIP3   OH228267   6.272   3.861   0.959  0.5568 -0.5110  0.1585
 9441TIP3    H128268   6.311   3.776   0.981  0.4649 -1.1107 -1.8139
 9441TIP3    H228269   6.307   3.882   0.873  0.0067  1.1203  0.3081
 9442TIP3   OH228270   2.578   4.471   4.196  0.5432  0.4843  0.5644
 9442TIP3    H128271   2.626   4.508   4.270  1.4784  0.2079  0.1166
 9442TIP3    H228272   2.615   4.517   4.119 -1.2885  1.6998  0.3462
 9443TIP3   OH228273   1.130   6.417   1.828  0.0861 -0.4779 -0.1739
 9443TIP3    H128274   1.124   6.365   1.908 -0.7163  2.1550  1.6221
 9443TIP3    H228275   1.039   6.428   1.799  0.1286  0.7053  0.0750
 9444TIP3   OH228276   3.133   4.273   4.701  0.7675  0.4656 -0.3068
 9444TIP3    H128277   3.062   4.310   4.648  1.0460 -0.3678 -1.2922
 9444TIP3    H228278   3.199   4.342   4.704 -0.1420  1.3352  0.8015
 9445TIP3   OH228279   0.248   2.167   3.808 -0.1219  0.2037  0.4956
 9445TIP3    H128280   0.160   2.142   3.779 -0.4265  1.0700  0.6401
 9445TIP3    H228281   0.241   2.261   3.826  1.0116  0.4296 -0.1569
 9446TIP3   OH228282   5.535   3.411   3.171  0.0240 -0.2168  0.0566
 9446TIP3    H128283   5.536   3.317   3.150 -1.0490  0.3724 -3.1128
 9446TIP3    H228284   5.446   3.439   3.153  0.2828  1.4179  1.1317
 9447TIP3   OH228285   2.958   0.524   0.370  0.5007 -0.3136  0.1389
 9447TIP3    H128286   3.017   0.559   0.437  0.0537  0.1915  0.2865
 9447TIP3    H228287   2.882   0.492   0.420 -0.2681  0.9504 -0.1676
 9448TIP3   OH228288   4.711   1.572   4.920 -0.5372 -0.3116  0.8494
 9448TIP3    H128289   4.695   1.542   5.009 -0.5062 -1.0950  0.5953
 9448TIP3    H228290   4.679   1.663   4.919  0.2672 -0.0023  1.8869
 9449TIP3   OH228291   8.090   2.360   2.768 -0.0563  0.1160  0.0181
 9449TIP3    H128292   8.107   2.328   2.680  1.0742  0.9136 -0.0746
 9449TIP3    H228293   8.127   2.293   2.825 -0.8679 -0.4429 -0.1001
 9450TIP3   OH228294   5.083   0.604   0.579 -1.0394  0.2528 -0.2349
 9450TIP3    H128295   5.113   0.542   0.512 -1.5363 -0.6866  0.3816
 9450TIP3    H228296   5.025   0.552   0.635 -1.0352  1.1451  0.6250
 9451TIP3   OH228297   1.313   0.935   0.688 -0.1770 -0.0174  0.0804
 9451TIP3    H128298   1.398   0.935   0.731 -0.0263  0.2931 -0.2082
 9451TIP3    H228299   1.289   1.028   0.683 -0.8069 -0.1402  0.6920
 9452TIP3   OH228300   6.773   0.880   5.991  0.1298  0.4892 -0.0652
 9452TIP3    H128301   6.792   0.958   6.043  0.0741  0.3355  0.1872
 9452TIP3    H228302   6.850   0.869   5.935 -1.2253  2.7037 -2.5895
 9453TIP3   OH228303   5.667   1.350   6.352  0.6150  1.1149 -0.2797
 9453TIP3    H128304   5.631   1.367   6.439 -0.1325  0.1862 -0.3893
 9453TIP3    H228305   5.593   1.365   6.292  1.1597  1.8805 -0.7710
 9454TIP3   OH228306   1.168   6.748   0.464 -0.5129  0.2727 -0.5076
 9454TIP3    H128307   1.102   6.681   0.484 -0.2069  0.4784  1.3584
 9454TIP3    H228308   1.243   6.698   0.432 -0.8707 -0.1267 -0.7489
 9455TIP3   OH228309   6.544   0.403   2.878 -0.4655  0.6761 -0.6978
 9455TIP3    H128310   6.568   0.372   2.791 -1.4532 -2.0912 -0.0988
 9455TIP3    H228311   6.625   0.397   2.929 -0.5108 -0.5943 -0.7335
 9456TIP3   OH228312   0.965   2.602   5.946  0.0426 -0.1427  0.1228
 9456TIP3    H128313   0.895   2.665   5.931  1.5400  1.2971 -1.1606
 9456TIP3    H228314   1.021   2.642   6.012  0.0960 -0.9159  0.5614
 9457TIP3   OH228315   2.350   5.913   6.372  0.4900  0.1999 -0.1646
 9457TIP3    H128316   2.260   5.899   6.400  1.4480 -3.0772  1.7790
 9457TIP3    H228317   2.366   6.006   6.389 -2.7654  1.1696 -1.6539
 9458TIP3   OH228318   7.964   5.039   0.900 -0.3869 -0.0473  0.0858
 9458TIP3    H128319   7.915   4.957   0.909 -0.6833  0.1280  0.0468
 9458TIP3    H228320   8.020   5.024   0.824 -0.5656 -0.1502 -0.0257
 9459TIP3   OH228321   5.452   5.428   3.242 -0.2824  0.3281 -0.1442
 9459TIP3    H128322   5.473   5.355   3.299 -0.5510 -0.3263 -0.8612
 9459TIP3    H228323   5.387   5.479   3.290 -0.8469 -0.4694 -0.0584
 9460TIP3   OH228324   5.097   4.916   1.253 -0.6080 -0.1826 -0.0504
 9460TIP3    H128325   5.089   4.900   1.347  2.8421 -0.8046  0.2587
 9460TIP3    H228326   5.010   4.897   1.218 -1.2475 -2.8694  2.6172
 9461TIP3   OH228327   1.123   1.166   3.810 -0.5693 -0.3660 -0.0114
 9461TIP3    H128328   1.122   1.159   3.714  0.3987 -0.3641 -0.0370
 9461TIP3    H228329   1.202   1.216   3.829  0.4152 -2.1525  0.8869
 9462TIP3   OH228330   0.925   7.850   1.582 -0.3050  1.1682 -0.5959
 9462TIP3    H128331   0.865   7.798   1.529 -0.6442  1.8738 -0.9214
 9462TIP3    H228332   0.930   7.804   1.666 -1.8114  1.4404 -0.3329
 9463TIP3   OH228333   5.941   1.068   0.178 -0.0206  0.3722 -0.4129
 9463TIP3    H128334   5.945   1.134   0.247  0.6550  0.2653 -0.3469
 9463TIP3    H228335   5.992   0.995   0.212 -1.3580 -0.4897 -0.1721
 9464TIP3   OH228336   4.458   3.779   1.978  0.2301 -0.2723 -0.3608
 9464TIP3    H128337   4.458   3.739   2.066 -1.7782  2.0695  0.8062
 9464TIP3    H228338   4.388   3.734   1.932 -0.8464  0.6262  0.3524
 9465TIP3   OH228339   0.110   7.345   1.084 -0.4101  0.5007 -0.7409
 9465TIP3    H128340   0.100   7.381   0.996  0.3239  2.5479 -0.0477
 9465TIP3    H228341   0.093   7.419   1.142  0.0692 -0.5668  0.8206
 9466TIP3   OH228342   7.379   3.654   3.804 -0.1599 -0.3048 -0.0019
 9466TIP3    H128343   7.363   3.630   3.896  0.3880 -0.1255  0.1426
 9466TIP3    H228344   7.428   3.579   3.769  0.0858 -0.1462 -0.0027
 9467TIP3   OH228345   3.003   1.014   1.660  0.4674 -0.7137  0.1476
 9467TIP3    H128346   2.963   0.931   1.635  0.5621 -0.7726  0.1910
 9467TIP3    H228347   3.097   1.001   1.646  0.3187  0.1499 -2.1682
 9468TIP3   OH228348   6.625   2.672   3.509 -0.2127  0.7387 -0.4341
 9468TIP3    H128349   6.660   2.610   3.445 -0.4008 -1.1894  1.2307
 9468TIP3    H228350   6.699   2.728   3.532 -0.0922  1.3297 -2.1187
 9469TIP3   OH228351   6.776   3.567   5.837 -0.0804  0.0981  0.1699
 9469TIP3    H128352   6.788   3.614   5.920  2.0125  0.4244 -0.2715
 9469TIP3    H228353   6.737   3.632   5.779  0.7813  0.6602  0.1968
 9470TIP3   OH228354   7.444   2.861   1.576 -0.7460 -0.5702  0.2740
 9470TIP3    H128355   7.514   2.821   1.524 -0.5897  0.0330  0.0166
 9470TIP3    H228356   7.365   2.815   1.549 -0.7599  0.1479 -0.9544
 9471TIP3   OH228357   6.977   7.551   2.420 -0.1169 -0.3790 -0.3147
 9471TIP3    H128358   6.960   7.581   2.331  0.1684 -0.4201 -0.3819
 9471TIP3    H228359   7.072   7.544   2.426 -0.2011 -1.7143 -0.4378
 9472TIP3   OH228360   6.077   5.175   2.158  0.0997  0.0190  0.2629
 9472TIP3    H128361   6.051   5.156   2.248  0.7953  0.3198  0.5286
 9472TIP3    H228362   6.156   5.228   2.166  0.0766  0.1836 -0.5234
 9473TIP3   OH228363   6.675   6.505   5.479  0.0496 -0.0473  0.1277
 9473TIP3    H128364   6.610   6.548   5.422 -1.2744 -0.4973  1.2498
 9473TIP3    H228365   6.667   6.551   5.562 -1.1800 -2.1610  1.2746
 9474TIP3   OH228366   4.066   5.969   5.922  0.4704 -0.2597 -0.0154
 9474TIP3    H128367   4.147   5.918   5.914  0.4060 -0.2554 -0.7872
 9474TIP3    H228368   4.091   6.046   5.972  0.4795 -1.2199  1.5344
 9475TIP3   OH228369   5.771   2.631   2.943  0.0581 -0.2904 -0.0169
 9475TIP3    H128370   5.721   2.566   2.893 -0.4221  1.4830 -2.0016
 9475TIP3    H228371   5.707   2.700   2.961  0.9377  0.3827  0.5760
 9476TIP3   OH228372   0.606   7.316   1.255 -0.0462 -0.1227  0.1791
 9476TIP3    H128373   0.665   7.382   1.219 -0.8774  0.8504  0.5610
 9476TIP3    H228374   0.613   7.326   1.350  0.4867 -1.1906  0.2641
 9477TIP3   OH228375   7.302   7.206   2.224 -0.6026  0.0095 -0.2525
 9477TIP3    H128376   7.354   7.166   2.154 -0.2540 -1.7029  0.9118
 9477TIP3    H228377   7.221   7.155   2.225 -0.6739  0.1328  0.4790
 9478TIP3   OH228378   3.996   7.344   3.817 -0.2954  0.1037 -0.7759
 9478TIP3    H128379   3.910   7.301   3.818 -0.2073 -0.0913 -1.3763
 9478TIP3    H228380   4.056   7.276   3.787  0.2462 -0.0708  0.6526
 9479TIP3   OH228381   0.161   0.930   5.424 -0.1240 -0.4490 -0.3414
 9479TIP3    H128382   0.076   0.973   5.430 -0.3010 -0.9435  1.1652
 9479TIP3    H228383   0.142   0.840   5.397 -0.0924 -0.5742  0.0443
 9480TIP3   OH228384   6.162   2.382   3.599  0.5754  0.6872 -0.0781
 9480TIP3    H128385   6.160   2.294   3.561 -1.7660  0.5873  0.1368
 9480TIP3    H228386   6.226   2.429   3.546  1.6723 -1.0401 -0.3844
 9481TIP3   OH228387   5.844   4.323   3.951 -0.4855 -0.1241  0.1914
 9481TIP3    H128388   5.872   4.385   3.883 -0.0380  0.1125  0.5831
 9481TIP3    H228389   5.764   4.362   3.987 -0.1495  0.2897  0.5071
 9482TIP3   OH228390   7.707   1.146   1.775  0.3898  0.3153  0.4764
 9482TIP3    H128391   7.685   1.170   1.865  0.6055 -1.2613  0.9669
 9482TIP3    H228392   7.658   1.066   1.759  0.7355  0.3130 -0.6580
 9483TIP3   OH228393   2.411   4.165   4.583 -0.0281  0.3224 -0.4088
 9483TIP3    H128394   2.348   4.176   4.511 -2.4656  1.0691  1.6905
 9483TIP3    H228395   2.426   4.254   4.614  2.6014  0.2152 -1.1934
 9484TIP3   OH228396   6.036   6.316   1.511  0.3482 -0.1640 -0.5177
 9484TIP3    H128397   5.962   6.377   1.505 -0.2439 -0.8832 -0.5324
 9484TIP3    H228398   6.033   6.266   1.429  0.2158 -0.9134 -0.0591
 9485TIP3   OH228399   5.308   7.431   4.486  0.4768  0.0364  0.2983
 9485TIP3    H128400   5.254   7.384   4.422 -0.4889 -0.2444  1.2896
 9485TIP3    H228401   5.386   7.377   4.496  1.2139  0.6856 -1.5089
 9486TIP3   OH228402   1.754   4.643   1.252  0.0575 -0.4461 -0.1386
 9486TIP3    H128403   1.829   4.667   1.197  1.6835 -2.2800  1.1620
 9486TIP3    H228404   1.769   4.688   1.335 -1.0279  0.2437 -0.2952
 9487TIP3   OH228405   8.114   4.433   2.359  0.1045  0.3916  0.4375
 9487TIP3    H128406   8.041   4.424   2.298  1.8271 -1.2158 -1.5912
 9487TIP3    H228407   8.188   4.460   2.303  1.1184  1.9387  2.3716
 9488TIP3   OH228408   2.534   3.717   6.136  0.4817  1.0062 -0.0912
 9488TIP3    H128409   2.453   3.699   6.087  1.6468 -2.0825 -1.1239
 9488TIP3    H228410   2.510   3.788   6.196 -3.4466 -0.7657  0.7452
 9489TIP3   OH228411   2.230   6.294   5.918  0.2852  0.3339  0.1941
 9489TIP3    H128412   2.215   6.384   5.946 -0.2509  0.2561  0.1614
 9489TIP3    H228413   2.321   6.293   5.888  0.7522  0.5180  1.5548
 9490TIP3   OH228414   2.495   5.890   4.069  0.5608  0.4231  0.1699
 9490TIP3    H128415   2.546   5.813   4.042  0.3291 -0.3280  1.6998
 9490TIP3    H228416   2.415   5.853   4.106  0.8910  1.3010  1.9030
 9491TIP3   OH228417   3.606   6.583   2.386 -0.3180 -0.0535  0.0236
 9491TIP3    H128418   3.699   6.590   2.364 -0.1152 -0.1136  0.8294
 9491TIP3    H228419   3.561   6.584   2.302  0.0703  4.0448 -0.3304
 9492TIP3   OH228420   2.973   6.681   1.876 -0.1696 -0.2303  0.4925
 9492TIP3    H128421   2.969   6.610   1.940 -4.4050  0.2319  1.0597
 9492TIP3    H228422   2.986   6.637   1.792  3.9387 -0.9666  1.3310
 9493TIP3   OH228423   2.569   2.913   4.372 -0.2705  0.1326  0.1276
 9493TIP3    H128424   2.484   2.950   4.397 -0.6342 -1.4444  1.4361
 9493TIP3    H228425   2.561   2.897   4.278 -0.7210  1.7171 -0.1232
 9494TIP3   OH228426   0.007   7.074   2.838  0.0486 -0.0012 -0.2104
 9494TIP3    H128427   0.099   7.063   2.862  0.1258 -1.1579 -0.9499
 9494TIP3    H228428  -0.041   7.046   2.916  0.3229 -0.5668 -0.2343
 9495TIP3   OH228429   7.440   1.980   5.481 -0.3145 -0.0708  0.0714
 9495TIP3    H128430   7.535   1.995   5.479 -0.1332 -1.1727  0.0078
 9495TIP3    H228431   7.403   2.066   5.501  0.6785  0.4413 -0.2338
 9496TIP3   OH228432   4.768   5.465   4.933 -0.3401  0.7742 -0.4002
 9496TIP3    H128433   4.804   5.401   4.871  0.2629  1.2504 -0.5491
 9496TIP3    H228434   4.837   5.478   4.998 -0.6746  0.8553 -0.0582
 9497TIP3   OH228435   4.879   7.693   0.127 -0.0836  0.2545  0.7159
 9497TIP3    H128436   4.798   7.650   0.156 -0.0656 -0.3101 -0.0462
 9497TIP3    H228437   4.942   7.673   0.195  0.4290 -2.5137 -0.4424
 9498TIP3   OH228438   6.035   6.419   6.158  0.0767  0.2407 -0.1214
 9498TIP3    H128439   6.107   6.415   6.095  0.2657 -0.6404  0.1350
 9498TIP3    H228440   6.003   6.329   6.164  0.1877  0.2685  1.1661
 9499TIP3   OH228441   8.072   7.307   2.658 -0.1887  0.1215 -0.3819
 9499TIP3    H128442   8.163   7.292   2.631  0.3590  0.3808  1.2478
 9499TIP3    H228443   8.079   7.351   2.743 -1.8408  0.8366 -0.5825
 9500TIP3   OH228444   5.714   5.694   3.840 -0.3432 -0.4052  0.0767
 9500TIP3    H128445   5.774   5.627   3.872  0.9072  0.2286 -0.8577
 9500TIP3    H228446   5.742   5.775   3.884 -0.0050  0.0479 -0.9486
 9501TIP3   OH228447   0.450   6.025   4.404 -0.0393 -0.3435  0.2904
 9501TIP3    H128448   0.379   6.059   4.458 -0.8032 -0.3574 -0.6664
 9501TIP3    H228449   0.435   5.931   4.401  0.7799 -0.5067  1.1316
 9502TIP3   OH228450   5.773   6.497   4.437 -0.2904 -0.2937  0.2764
 9502TIP3    H128451   5.802   6.408   4.417  0.8493  0.3503 -1.0290
 9502TIP3    H228452   5.728   6.526   4.358  0.1831  0.6261  0.3323
 9503TIP3   OH228453   4.503   6.376   2.960  0.3114 -0.3160 -0.3691
 9503TIP3    H128454   4.489   6.422   2.878 -1.6208  0.8050  0.5385
 9503TIP3    H228455   4.593   6.342   2.954  0.1832 -0.3275 -2.9346
 9504TIP3   OH228456   6.667   6.868   4.620 -0.1304  0.4636  0.3103
 9504TIP3    H128457   6.685   6.802   4.687  1.1635  0.6197  0.1463
 9504TIP3    H228458   6.747   6.920   4.616 -0.2269  0.5331 -1.2523
 9505TIP3   OH228459   1.640   7.064   3.638  0.1543  0.2760  0.2898
 9505TIP3    H128460   1.620   7.106   3.722 -1.1939  0.0922  0.0782
 9505TIP3    H228461   1.562   7.013   3.618  0.9627 -0.6857 -0.4751
 9506TIP3   OH228462   6.238   2.397   2.961  0.2030  0.0352  0.1439
 9506TIP3    H128463   6.301   2.458   2.923  0.2879 -1.2432 -1.9129
 9506TIP3    H228464   6.289   2.345   3.023  0.8170  0.0534 -0.3431
 9507TIP3   OH228465   5.660   3.435   3.401  0.0718 -0.1684 -0.3304
 9507TIP3    H128466   5.745   3.420   3.360 -0.1726 -0.2789 -0.7994
 9507TIP3    H228467   5.597   3.428   3.330 -0.6136 -2.7361  0.4159
 9508TIP3   OH228468   6.332   4.186   1.945 -0.1591 -0.2280  0.0665
 9508TIP3    H128469   6.296   4.122   2.006  0.5546  1.9955  3.0124
 9508TIP3    H228470   6.259   4.206   1.886 -1.2219 -1.6393  0.8466
 9509TIP3   OH228471   0.140   4.562   3.984  0.5045 -0.3415 -0.4446
 9509TIP3    H128472   0.045   4.554   3.993  0.7927 -3.2723  1.4392
 9509TIP3    H228473   0.162   4.645   4.025 -1.2358  0.4272 -1.0054
 9510TIP3   OH228474   1.895   4.986   4.598  0.3867 -0.2997 -0.3266
 9510TIP3    H128475   1.890   4.891   4.597  1.4045 -0.3599 -1.2593
 9510TIP3    H228476   1.906   5.011   4.506 -0.8532  0.7946 -0.2138
 9511TIP3   OH228477   2.751   4.372   6.112 -0.0810 -0.3512 -0.7062
 9511TIP3    H128478   2.815   4.442   6.097 -1.5791  1.7843  2.0782
 9511TIP3    H228479   2.718   4.352   6.024  2.0223  0.7775 -1.8464
 9512TIP3   OH228480   5.694   5.367   5.412 -0.1957 -0.2597  0.4496
 9512TIP3    H128481   5.663   5.279   5.432 -0.6590  0.1255  1.5254
 9512TIP3    H228482   5.783   5.371   5.445 -0.4190 -0.1146  1.0471
 9513TIP3   OH228483   5.518   7.202   2.322 -0.3613 -0.3703  0.0824
 9513TIP3    H128484   5.550   7.160   2.242  1.2329  1.0776 -0.0953
 9513TIP3    H228485   5.559   7.288   2.322  1.1227 -0.9196  3.3365
 9514TIP3   OH228486   8.072   3.334   4.005  0.9940 -0.0354 -0.1108
 9514TIP3    H128487   8.120   3.258   3.971  1.6935  0.1768  0.3650
 9514TIP3    H228488   8.108   3.408   3.957  0.1454 -0.0188 -0.7436
 9515TIP3   OH228489   0.308   7.233   5.628 -0.7691 -0.3534 -0.0566
 9515TIP3    H128490   0.260   7.228   5.710 -1.4757 -0.3847 -0.4650
 9515TIP3    H228491   0.364   7.310   5.637 -0.1269 -0.9126  0.8254
 9516TIP3   OH228492   4.613   0.379   1.110  0.5533 -0.1864  0.1090
 9516TIP3    H128493   4.525   0.344   1.098  1.1995 -1.4178 -1.4965
 9516TIP3    H228494   4.600   0.473   1.122 -0.9807 -0.3577  0.0020
 9517TIP3   OH228495   3.833   3.379   5.818  0.2749  0.0641 -0.1731
 9517TIP3    H128496   3.803   3.422   5.898  0.5986  0.0465 -0.0382
 9517TIP3    H228497   3.899   3.316   5.848  0.2049 -0.1311 -0.4259
 9518TIP3   OH228498   3.942   0.209   3.673 -0.2634 -0.5119 -0.6460
 9518TIP3    H128499   3.889   0.171   3.744  1.9755 -1.2737  0.7182
 9518TIP3    H228500   3.939   0.144   3.604 -1.7236 -0.1829 -0.9235
 9519TIP3   OH228501   1.644   3.406   2.085 -0.4804 -0.4309 -0.2599
 9519TIP3    H128502   1.674   3.410   1.994 -0.3054 -1.1071 -0.2406
 9519TIP3    H228503   1.591   3.327   2.089  0.0105 -0.7437  0.3653
 9520TIP3   OH228504   1.267   5.977   1.000 -0.3033 -0.3279  0.1754
 9520TIP3    H128505   1.280   5.999   0.908 -0.2456  0.0410  0.2698
 9520TIP3    H228506   1.181   5.935   1.004 -0.0816 -0.8190 -0.1254
 9521TIP3   OH228507   5.152   6.090   0.739  0.2108 -0.2125  0.0604
 9521TIP3    H128508   5.189   6.174   0.712 -1.7343  1.2477  1.5916
 9521TIP3    H228509   5.207   6.061   0.812  0.5400  0.0364 -0.0897
 9522TIP3   OH228510   2.717   1.693   1.035  0.1283  0.1491 -0.3248
 9522TIP3    H128511   2.708   1.633   0.961  0.7050  0.8650 -0.9821
 9522TIP3    H228512   2.630   1.734   1.043  0.9863  2.8923 -3.0901
 9523TIP3   OH228513   3.523   0.587   3.397  0.0718 -1.0713  0.1713
 9523TIP3    H128514   3.615   0.591   3.421 -0.0861  0.6771  0.7133
 9523TIP3    H228515   3.521   0.595   3.302  0.4584  0.7088  0.2795
 9524TIP3   OH228516   4.175   7.074   4.400  0.8318 -0.0452 -0.1429
 9524TIP3    H128517   4.226   7.038   4.327  1.1625  0.4268 -0.1439
 9524TIP3    H228518   4.087   7.088   4.363  0.5272 -1.3946  0.0108
 9525TIP3   OH228519   2.220   4.879   3.283  0.3989 -0.0903 -0.9382
 9525TIP3    H128520   2.199   4.855   3.193 -0.8020  1.3173 -1.0804
 9525TIP3    H228521   2.135   4.901   3.322  1.0670  0.9107  0.0231
 9526TIP3   OH228522   4.225   6.962   0.466  0.2694  0.0774  0.0643
 9526TIP3    H128523   4.236   6.991   0.556 -0.1865  0.8675 -0.1204
 9526TIP3    H228524   4.242   7.040   0.413 -0.1513 -0.1977 -0.4936
 9527TIP3   OH228525   3.253   1.089   0.921  0.0769 -0.5489  0.0819
 9527TIP3    H128526   3.306   1.011   0.904  0.0437  0.1810 -4.4578
 9527TIP3    H228527   3.317   1.158   0.938  0.3368 -0.6875 -0.3179
 9528TIP3   OH228528   4.054   7.664   2.371  0.6873  0.0686  0.5323
 9528TIP3    H128529   4.117   7.697   2.434  1.3941 -1.2006  0.5275
 9528TIP3    H228530   4.103   7.600   2.319  0.3201  1.5131 -1.7531
 9529TIP3   OH228531   2.829   7.514   4.326 -0.3156 -0.5476  0.4363
 9529TIP3    H128532   2.736   7.492   4.335 -0.6603  0.4854 -0.4096
 9529TIP3    H228533   2.854   7.473   4.243 -0.1254 -0.4411  0.4434
 9530TIP3   OH228534   7.990   3.322   2.734 -0.4030  0.0995 -0.2410
 9530TIP3    H128535   7.928   3.322   2.661 -0.1985  0.0245 -0.4164
 9530TIP3    H228536   8.060   3.262   2.705  1.3167  2.4948 -1.3598
 9531TIP3   OH228537   1.913   1.920   3.121  0.3889 -0.1842 -0.2679
 9531TIP3    H128538   1.840   1.956   3.070  0.0309 -0.8066 -0.2010
 9531TIP3    H228539   1.988   1.922   3.061  0.3570  0.5765 -0.2951
 9532TIP3   OH228540   4.947   6.298   2.079 -0.2288  0.6260  0.4579
 9532TIP3    H128541   4.864   6.327   2.040 -0.4112 -1.0182 -0.4772
 9532TIP3    H228542   4.934   6.204   2.095  0.6110  0.8213  2.5729
 9533TIP3   OH228543   7.063   7.641   2.185  0.4871  0.0293  0.3153
 9533TIP3    H128544   7.111   7.603   2.112  2.4990  0.5879  1.2662
 9533TIP3    H228545   7.129   7.691   2.234 -0.4914 -1.1597  3.0887
 9534TIP3   OH228546   0.858   2.303   6.164  0.0161 -0.1407  0.0716
 9534TIP3    H128547   0.792   2.244   6.128 -0.0412 -0.4226  0.6166
 9534TIP3    H228548   0.882   2.360   6.091 -1.2590  0.3661  0.0080
 9535TIP3   OH228549   7.509   4.634   3.501 -0.4275  0.6283  0.5201
 9535TIP3    H128550   7.461   4.620   3.420 -0.0613 -2.0693  0.7025
 9535TIP3    H228551   7.441   4.649   3.567 -0.7934  1.0170  0.0618
 9536TIP3   OH228552   8.175   3.974   5.595 -0.8796  0.2345 -0.0764
 9536TIP3    H128553   8.106   4.040   5.588 -0.1215  1.0244 -0.2985
 9536TIP3    H228554   8.247   4.009   5.543 -0.4553 -0.7760 -0.1964
 9537TIP3   OH228555   5.066   2.556   5.359  0.0975  0.1485  0.0976
 9537TIP3    H128556   5.020   2.639   5.374 -0.2159 -0.0286  0.1081
 9537TIP3    H228557   5.051   2.506   5.439  0.0423 -0.0356 -0.0294
 9538TIP3   OH228558   4.447   2.209   3.089  0.1889 -0.1869 -0.0317
 9538TIP3    H128559   4.534   2.232   3.055  0.2683  0.4363  0.5642
 9538TIP3    H228560   4.404   2.294   3.102 -0.8013 -0.5143 -1.0577
 9539TIP3   OH228561   1.642   7.370   4.403 -0.0202 -0.1590  0.1114
 9539TIP3    H128562   1.562   7.321   4.424 -0.3558  0.3218 -0.0227
 9539TIP3    H228563   1.635   7.389   4.310  0.0165  0.2939  0.1979
 9540TIP3   OH228564   4.256   1.349   4.544  0.0953 -0.1597 -0.2926
 9540TIP3    H128565   4.161   1.355   4.537 -0.0034 -1.6100 -0.6086
 9540TIP3    H228566   4.271   1.274   4.602  1.0448 -0.1903 -0.5508
 9541TIP3   OH228567   0.163   6.490   0.725  0.1822  0.0323 -0.0360
 9541TIP3    H128568   0.125   6.485   0.638  1.0808  0.4051 -0.4667
 9541TIP3    H228569   0.100   6.540   0.777  0.0653  0.5914 -0.7138
 9542TIP3   OH228570   1.413   0.495   4.101 -0.0235  0.1485 -0.3327
 9542TIP3    H128571   1.426   0.402   4.082  0.0721 -0.0383  0.6078
 9542TIP3    H228572   1.431   0.539   4.018  0.7368 -0.6028 -0.5800
 9543TIP3   OH228573   1.948   7.709   0.607 -0.1439  0.0873 -0.3129
 9543TIP3    H128574   1.865   7.747   0.579  0.9298  1.2895 -2.1011
 9543TIP3    H228575   1.958   7.737   0.698 -0.4997  2.2162 -0.8676
 9544TIP3   OH228576   1.317   0.190   1.818  0.4623  0.2522 -0.1801
 9544TIP3    H128577   1.247   0.245   1.783 -1.1897 -1.7576 -0.2208
 9544TIP3    H228578   1.314   0.204   1.913 -0.3251 -0.1561 -0.1373
 9545TIP3   OH228579   3.145   0.996   2.245  0.5688  0.0351 -0.4522
 9545TIP3    H128580   3.154   0.971   2.336 -2.0313 -0.4081 -0.2622
 9545TIP3    H228581   3.160   0.915   2.196 -1.0156 -0.4331 -0.2132
 9546TIP3   OH228582   8.226   1.375   0.431  0.0393  0.1946  0.4875
 9546TIP3    H128583   8.173   1.453   0.413  0.1033  0.4666  1.4426
 9546TIP3    H228584   8.300   1.407   0.482 -0.3377 -0.5948  1.5631
 9547TIP3   OH228585   6.172   0.829   0.807 -0.0454 -0.3951 -0.9146
 9547TIP3    H128586   6.076   0.826   0.808 -0.0580 -0.4783  1.0152
 9547TIP3    H228587   6.193   0.922   0.795 -0.3348 -0.5015 -2.3694
 9548TIP3   OH228588   7.318   3.848   3.606 -0.6090  0.7611  0.3998
 9548TIP3    H128589   7.351   3.836   3.517 -1.7111  0.3796  0.0244
 9548TIP3    H228590   7.350   3.772   3.654 -0.4736  0.6808  0.1827
 9549TIP3   OH228591   1.773   3.978   5.771  0.0881  0.1076 -0.3999
 9549TIP3    H128592   1.783   4.007   5.681 -0.0517 -0.2589 -0.5373
 9549TIP3    H228593   1.688   4.012   5.799  0.9730  1.8814  0.2455
 9550TIP3   OH228594   2.929   2.447   6.161 -0.6523  0.3297  0.7592
 9550TIP3    H128595   2.884   2.374   6.118  0.6633 -0.1094  0.0659
 9550TIP3    H228596   2.899   2.444   6.251 -0.0446 -1.5793  0.9521
 9551TIP3   OH228597   4.850   3.485   4.541  0.0744  0.0303  0.2477
 9551TIP3    H128598   4.923   3.423   4.544  0.9751  1.0308 -0.5239
 9551TIP3    H228599   4.841   3.506   4.448 -2.8493 -1.9700 -0.0560
 9552TIP3   OH228600   7.875   1.551   2.206  0.5878 -0.3440 -0.7087
 9552TIP3    H128601   7.890   1.634   2.160  0.4378  0.0452 -0.0596
 9552TIP3    H228602   7.784   1.529   2.186 -0.5515  1.4550  1.9171
 9553TIP3   OH228603   7.372   7.095   0.641  0.2034 -0.0164 -0.5326
 9553TIP3    H128604   7.371   7.002   0.618  2.9734 -0.5667  1.1334
 9553TIP3    H228605   7.353   7.096   0.735  0.6351  1.0469 -0.4418
 9554TIP3   OH228606   5.559   6.674   0.608 -0.5436 -0.1010 -0.0453
 9554TIP3    H128607   5.470   6.665   0.574 -0.0328  1.4451 -1.9691
 9554TIP3    H228608   5.613   6.621   0.549 -0.0485 -0.2290  0.5116
 9555TIP3   OH228609   7.796   1.328   4.922 -0.0893 -0.5832 -0.2288
 9555TIP3    H128610   7.784   1.349   4.829 -0.8376  0.9655  0.1841
 9555TIP3    H228611   7.709   1.301   4.952 -0.8158  2.6027  0.8534
 9556TIP3   OH228612   3.633   0.861   6.167 -0.0437 -0.1710  0.3298
 9556TIP3    H128613   3.639   0.935   6.227 -0.4325  0.2274 -0.1127
 9556TIP3    H228614   3.627   0.901   6.081 -1.7733 -0.6572  0.1852
 9557TIP3   OH228615   2.844   0.688   4.895 -0.1503  0.0802  0.1473
 9557TIP3    H128616   2.810   0.599   4.906 -2.4739  0.8264 -0.4602
 9557TIP3    H228617   2.931   0.685   4.933 -0.4291 -2.2942  0.7417
 9558TIP3   OH228618   6.128   1.928   2.110 -0.0427  0.6601  0.5352
 9558TIP3    H128619   6.148   2.021   2.123  1.3392  0.0964  3.3990
 9558TIP3    H228620   6.177   1.904   2.032  0.6968  2.0623  0.5303
 9559TIP3   OH228621   1.794   3.277   4.539 -0.3708 -0.2628 -0.0651
 9559TIP3    H128622   1.738   3.297   4.614 -0.6259 -0.1899 -0.2724
 9559TIP3    H228623   1.761   3.334   4.469  1.1752  1.2107  0.3315
 9560TIP3   OH228624   0.945   0.272   5.477 -0.2531 -0.0822 -0.5471
 9560TIP3    H128625   0.869   0.220   5.502  0.2781 -0.5604  0.0926
 9560TIP3    H228626   0.912   0.362   5.471 -1.4789 -0.6088 -2.9694
 9561TIP3   OH228627   1.513   3.920   0.808  0.2907  0.8668  0.7146
 9561TIP3    H128628   1.551   3.974   0.738 -0.0156  0.2460  0.0484
 9561TIP3    H228629   1.482   3.842   0.762  0.2535  0.3656  1.5863
 9562TIP3   OH228630   3.351   4.688   6.006  0.5191 -0.2924  0.4298
 9562TIP3    H128631   3.272   4.741   6.015  1.0314  0.6088 -0.3005
 9562TIP3    H228632   3.322   4.598   6.025 -0.8125 -0.0648 -0.4202
 9563TIP3   OH228633   7.876   2.787   6.746  0.1484 -0.0144  0.2470
 9563TIP3    H128634   7.919   2.871   6.737  0.8755 -0.2997  0.9668
 9563TIP3    H228635   7.886   2.745   6.660 -3.0914  1.8992 -1.2651
 9564TIP3   OH228636   1.114   3.151   5.211 -0.3640 -0.1317 -0.0863
 9564TIP3    H128637   1.154   3.236   5.230  1.2047 -1.1789  1.5757
 9564TIP3    H228638   1.022   3.163   5.235 -0.2643  1.1832 -0.2486
 9565TIP3   OH228639   1.739   3.540   6.149  0.4091  0.3822  0.1556
 9565TIP3    H128640   1.820   3.590   6.143 -0.4541  1.7397 -0.7947
 9565TIP3    H228641   1.678   3.598   6.195 -0.6083  0.2417 -0.9624
 9566TIP3   OH228642   7.220   6.375   4.598 -0.1636  0.1360 -0.1708
 9566TIP3    H128643   7.199   6.415   4.514  0.6684  0.8287 -0.0620
 9566TIP3    H228644   7.269   6.442   4.645  2.4941 -1.4274 -0.5055
 9567TIP3   OH228645   4.302   1.767   1.179 -0.2246 -0.2540  0.4319
 9567TIP3    H128646   4.356   1.824   1.124 -0.1794 -1.0176 -0.3520
 9567TIP3    H228647   4.330   1.784   1.268  0.6142  0.0832  0.1070
 9568TIP3   OH228648   2.416   1.574   1.177 -0.5271  0.2591  0.4450
 9568TIP3    H128649   2.455   1.586   1.264  0.2463  1.5960 -0.0686
 9568TIP3    H228650   2.435   1.482   1.156  1.6146  0.6018  0.6067
 9569TIP3   OH228651   2.906   6.735   4.071  0.6513  0.2950  0.2039
 9569TIP3    H128652   2.894   6.799   4.140  0.3759  0.6610 -0.1757
 9569TIP3    H228653   2.850   6.661   4.095  0.5855  0.4068  0.3867
 9570TIP3   OH228654   1.323   3.436   3.502 -0.2613 -0.0494  0.1312
 9570TIP3    H128655   1.384   3.423   3.575 -0.7294  0.8683  0.7123
 9570TIP3    H228656   1.303   3.530   3.505  0.8911  0.3254 -2.1439
 9571TIP3   OH228657   0.036   3.108   1.708  0.0864  0.0926  0.0162
 9571TIP3    H128658   0.122   3.088   1.673  0.1984  1.3316 -0.4787
 9571TIP3    H228659   0.042   3.089   1.802  0.5262 -0.9268 -0.2068
 9572TIP3   OH228660   0.444   1.437   5.222  0.1132  0.3175 -0.2677
 9572TIP3    H128661   0.518   1.414   5.166 -0.6231 -2.0458 -0.3844
 9572TIP3    H228662   0.419   1.354   5.264 -2.5640  0.9657 -0.3784
 9573TIP3   OH228663   0.160   0.683   4.646 -0.4469  0.0792  0.0937
 9573TIP3    H128664   0.082   0.736   4.663  0.8566  1.6058  1.7133
 9573TIP3    H228665   0.143   0.642   4.561 -2.5843  1.1309 -0.0546
 9574TIP3   OH228666   3.583   4.589   1.177 -0.0061 -0.6066 -0.3761
 9574TIP3    H128667   3.653   4.638   1.134  0.7293 -0.8235  0.5474
 9574TIP3    H228668   3.579   4.506   1.130  0.8577 -0.8815  0.0230
 9575TIP3   OH228669   7.125   6.982   3.655  0.4343  0.5587  0.0083
 9575TIP3    H128670   7.159   6.989   3.744 -0.8146  2.0198  0.4168
 9575TIP3    H228671   7.154   7.063   3.612 -1.6459  1.4111  0.1033
 9576TIP3   OH228672   1.356   3.806   0.070 -0.4037 -0.2920 -0.0376
 9576TIP3    H128673   1.397   3.890   0.090  1.1568 -0.9483 -0.3821
 9576TIP3    H228674   1.277   3.830   0.021 -0.6216  1.0121  0.8901
 9577TIP3   OH228675   0.203   5.137   0.402  0.2326  0.2119  0.7814
 9577TIP3    H128676   0.293   5.162   0.378  1.2009 -1.0431  2.8386
 9577TIP3    H228677   0.162   5.113   0.319  2.0222  0.1417 -0.1278
 9578TIP3   OH228678   7.741   7.156   3.323 -0.3607  0.3616  0.5055
 9578TIP3    H128679   7.811   7.093   3.308  0.0557  0.9327 -0.0215
 9578TIP3    H228680   7.744   7.214   3.247  0.3698  2.0231  1.7271
 9579TIP3   OH228681   4.650   6.518   6.147 -0.2478 -0.3325 -0.1394
 9579TIP3    H128682   4.582   6.569   6.192 -0.8543 -2.3378  1.3514
 9579TIP3    H228683   4.642   6.430   6.184  1.3945 -1.2891 -1.9104
 9580TIP3   OH228684   1.328   4.124   3.320  0.2014  0.1440 -0.1521
 9580TIP3    H128685   1.333   4.029   3.330  0.5091  0.1965  0.2424
 9580TIP3    H228686   1.413   4.148   3.283  0.5754  0.3866  0.8349
 9581TIP3   OH228687   6.124   4.889   5.959 -0.0575  0.1563 -0.1011
 9581TIP3    H128688   6.172   4.903   6.040 -0.1448 -2.3163  0.4369
 9581TIP3    H228689   6.034   4.912   5.979 -0.1304 -0.7278  0.5966
 9582TIP3   OH228690   4.197   3.755   2.817  0.0797  0.7147 -0.0621
 9582TIP3    H128691   4.228   3.713   2.736  2.1108  0.6553  0.6921
 9582TIP3    H228692   4.182   3.847   2.792 -1.9720  0.1541 -1.1138
 9583TIP3   OH228693   4.536   1.520  -0.019  0.3414 -0.3930 -0.5016
 9583TIP3    H128694   4.569   1.584   0.044 -0.0874  0.6697 -1.3222
 9583TIP3    H228695   4.546   1.436   0.025 -3.0070  0.4944  2.3814
 9584TIP3   OH228696   7.321   6.244   1.475 -0.2108 -0.8909  0.2447
 9584TIP3    H128697   7.392   6.265   1.415 -0.7175  0.5243  0.0976
 9584TIP3    H228698   7.301   6.327   1.518 -1.9907 -1.1603  0.0228
 9585TIP3   OH228699   2.367   1.784   6.541 -0.3536 -0.4737  0.5300
 9585TIP3    H128700   2.276   1.757   6.551 -1.4843  2.5673 -0.4034
 9585TIP3    H228701   2.390   1.826   6.624  0.3625 -1.5427  0.8947
 9586TIP3   OH228702   2.943   4.398   4.553  0.2581  0.3894  0.4391
 9586TIP3    H128703   2.951   4.370   4.461 -0.9618  1.3737  0.0039
 9586TIP3    H228704   2.848   4.399   4.569  0.1566  3.9561  0.4509
 9587TIP3   OH228705   2.556   3.404   2.875 -0.2749  0.3302  0.1020
 9587TIP3    H128706   2.522   3.473   2.819 -2.6376 -1.0363 -0.2974
 9587TIP3    H228707   2.546   3.438   2.964 -1.7086  0.4145 -0.0723
 9588TIP3   OH228708   4.142   3.998   0.412  0.0623 -0.5830 -0.1748
 9588TIP3    H128709   4.110   3.914   0.446  0.0155 -0.2785  0.5348
 9588TIP3    H228710   4.063   4.043   0.383  0.1698 -1.1819 -1.5161
 9589TIP3   OH228711   7.358   1.036   4.344 -0.2387 -0.2244 -0.3587
 9589TIP3    H128712   7.305   1.011   4.269 -0.3947 -0.9750 -0.0037
 9589TIP3    H228713   7.404   1.115   4.316  0.2804 -0.9237 -1.5138
 9590TIP3   OH228714   7.646   3.126   2.449  0.0095 -0.3007 -0.1099
 9590TIP3    H128715   7.582   3.057   2.464  0.5793 -0.5639  1.2884
 9590TIP3    H228716   7.718   3.084   2.401  0.0661 -0.5240  0.1697
 9591TIP3   OH228717   5.185   0.802   6.719  0.2444 -0.6164 -0.4118
 9591TIP3    H128718   5.130   0.869   6.678  1.0799 -0.0001 -0.5496
 9591TIP3    H228719   5.137   0.777   6.798 -1.0070 -1.2468 -1.3216
 9592TIP3   OH228720   2.274   2.913   0.921  0.1748  0.1358  0.0781
 9592TIP3    H128721   2.298   2.981   0.985  3.0157  1.8350 -2.5392
 9592TIP3    H228722   2.209   2.955   0.865 -0.1874 -0.3321  0.1463
 9593TIP3   OH228723   4.520   4.340   2.273 -0.9867 -0.0744  0.0000
 9593TIP3    H128724   4.439   4.292   2.254 -0.1337 -0.6656 -2.5039
 9593TIP3    H228725   4.522   4.410   2.208  1.0886 -0.8494 -0.8349
 9594TIP3   OH228726   6.648   7.694   5.298 -0.0380  0.3967  0.2431
 9594TIP3    H128727   6.560   7.698   5.337  0.1256 -1.4195  0.9226
 9594TIP3    H228728   6.666   7.783   5.270 -1.8012  0.9664  0.7600
 9595TIP3   OH228729   3.287   5.518   1.235 -0.2738  0.1076 -0.2912
 9595TIP3    H128730   3.353   5.587   1.246 -0.1612 -0.0644  0.1207
 9595TIP3    H228731   3.332   5.450   1.186 -0.4790  0.4528 -0.9779
 9596TIP3   OH228732   7.459   6.307   2.898  0.9442 -0.1926  0.5269
 9596TIP3    H128733   7.511   6.238   2.857 -0.5430 -0.4566 -1.0628
 9596TIP3    H228734   7.523   6.364   2.940  2.7174  0.3513 -2.5993
 9597TIP3   OH228735   7.776   1.911   1.075 -0.2420 -0.3119  0.5944
 9597TIP3    H128736   7.777   1.977   1.006  3.7866 -0.2207  0.4864
 9597TIP3    H228737   7.829   1.839   1.040 -2.4952 -2.6536  1.6492
 9598TIP3   OH228738   3.585   0.927   3.917 -0.2385 -0.7758 -0.1236
 9598TIP3    H128739   3.614   1.015   3.890 -1.4144 -1.0746 -2.6799
 9598TIP3    H228740   3.504   0.942   3.965  0.2407 -0.4083  0.5897
 9599TIP3   OH228741   2.765   3.488   0.136 -0.3077 -0.2247  0.3322
 9599TIP3    H128742   2.791   3.576   0.161  0.8200 -0.0746 -1.2552
 9599TIP3    H228743   2.736   3.496   0.045  0.3126 -1.5768 -0.0139
 9600TIP3   OH228744   3.533   3.498   4.497  0.7406  0.4947 -0.4374
 9600TIP3    H128745   3.617   3.545   4.493  0.4366  1.1729  0.7143
 9600TIP3    H228746   3.467   3.567   4.495  0.2709  0.0949  0.5839
 9601TIP3   OH228747   0.996   7.097   5.017  0.4784 -0.0049  0.6003
 9601TIP3    H128748   1.062   7.110   4.949 -0.5414  0.2159 -0.3873
 9601TIP3    H228749   0.936   7.032   4.980 -1.3816  1.7868  0.2586
 9602TIP3   OH228750   3.661   2.840   2.160 -0.1433 -0.2150 -0.0392
 9602TIP3    H128751   3.590   2.904   2.163 -2.6858 -2.8747  0.5092
 9602TIP3    H228752   3.701   2.854   2.074 -2.1061  0.6051 -0.8793
 9603TIP3   OH228753   5.122   6.048   5.416  0.3052 -0.1340 -0.0370
 9603TIP3    H128754   5.121   5.957   5.387 -0.8666 -0.7331  1.7236
 9603TIP3    H228755   5.210   6.062   5.451  0.0466 -1.0425  0.9999
 9604TIP3   OH228756   6.395   7.546   0.092 -0.1444 -0.4523  0.0633
 9604TIP3    H128757   6.470   7.597   0.124 -0.2198  0.0304 -0.5189
 9604TIP3    H228758   6.428   7.456   0.088  0.0189 -0.4502  1.0069
 9605TIP3   OH228759   3.236   1.406   5.408  0.0975 -0.1960 -0.3109
 9605TIP3    H128760   3.260   1.440   5.494  0.4786  0.0408 -0.5061
 9605TIP3    H228761   3.256   1.478   5.348 -0.3945 -0.2697 -0.5703
 9606TIP3   OH228762   7.634   0.872   1.717  0.0173 -0.1306 -0.2586
 9606TIP3    H128763   7.557   0.904   1.671  0.6839  1.1899 -0.4968
 9606TIP3    H228764   7.678   0.816   1.653 -0.2093 -0.0727 -0.4664
 9607TIP3   OH228765   7.348   7.729   0.915 -0.8146  0.0804 -0.3766
 9607TIP3    H128766   7.313   7.808   0.874  0.2930  1.1473  0.6604
 9607TIP3    H228767   7.291   7.714   0.990  0.4065  1.3443  0.8403
 9608TIP3   OH228768   1.129   2.284   3.075 -0.0702 -0.1740 -0.7020
 9608TIP3    H128769   1.058   2.308   3.015  0.9994  1.3334 -1.4016
 9608TIP3    H228770   1.091   2.297   3.162 -0.9053 -0.1718 -1.0502
 9609TIP3   OH228771   7.565   0.502   2.915 -0.0335 -0.7966  0.3368
 9609TIP3    H128772   7.633   0.441   2.944  0.1668  0.3696  2.4886
 9609TIP3    H228773   7.521   0.530   2.995 -2.1465 -0.4226 -0.8738
 9610TIP3   OH228774   3.230   5.450   2.409  0.4605 -0.5753  0.1099
 9610TIP3    H128775   3.265   5.440   2.498 -0.4146 -0.2456  0.5046
 9610TIP3    H228776   3.295   5.407   2.353  1.9071  0.7009  0.7193
 9611TIP3   OH228777   5.466   7.444   6.660 -0.5993 -0.1508  0.7937
 9611TIP3    H128778   5.428   7.369   6.615 -0.1775 -0.8339  1.5519
 9611TIP3    H228779   5.404   7.515   6.644 -1.0431 -0.6726  0.1317
 9612TIP3   OH228780   7.625   0.133   5.517  0.3019 -0.2157  0.5493
 9612TIP3    H128781   7.588   0.054   5.478  1.6500 -1.0490  0.8987
 9612TIP3    H228782   7.610   0.123   5.611  1.4524 -0.6037  0.7019
 9613TIP3   OH228783   0.860   6.655   1.082 -0.4236  0.2398  0.1694
 9613TIP3    H128784   0.932   6.593   1.070  0.4754  0.8524  2.0794
 9613TIP3    H228785   0.798   6.609   1.139 -0.2304  0.7209  0.7717
 9614TIP3   OH228786   0.008   2.429   1.498 -0.2027 -0.4645  0.5730
 9614TIP3    H128787  -0.045   2.432   1.419 -0.1865  2.3875  0.5755
 9614TIP3    H228788   0.046   2.341   1.498 -0.2419 -0.5986 -2.5435
 9615TIP3   OH228789   6.336   0.180   6.278 -0.3467  0.5915 -0.9402
 9615TIP3    H128790   6.303   0.110   6.223 -0.8872  0.4837 -0.4895
 9615TIP3    H228791   6.258   0.230   6.302 -0.4292 -0.4443  1.2229
 9616TIP3   OH228792   5.032   5.288   6.485 -0.0009  0.0109 -0.0836
 9616TIP3    H128793   4.944   5.263   6.457 -0.1014  0.1321  0.1267
 9616TIP3    H228794   5.021   5.375   6.522  0.2039  0.0153 -0.0359
 9617TIP3   OH228795   6.013   3.112   4.777  0.1430  0.0229 -0.4386
 9617TIP3    H128796   6.064   3.041   4.814 -0.0417  0.3593  0.4856
 9617TIP3    H228797   6.058   3.192   4.805 -0.6647  0.3135  0.0687
 9618TIP3   OH228798   5.583   3.110   5.050  0.1632  0.4393  0.3714
 9618TIP3    H128799   5.642   3.037   5.070  0.1958  0.5021  0.5059
 9618TIP3    H228800   5.495   3.073   5.059  0.0979 -0.6612 -3.3162
 9619TIP3   OH228801   3.346   1.269   1.609  0.1550 -0.3669 -0.2910
 9619TIP3    H128802   3.396   1.338   1.566 -0.3604 -0.0404 -0.3647
 9619TIP3    H228803   3.347   1.292   1.702  0.5802 -0.6421 -0.2219
 9620TIP3   OH228804   4.090   3.616   1.450 -0.2989 -0.6054  0.2790
 9620TIP3    H128805   4.007   3.598   1.495 -0.7761  1.0766  0.1562
 9620TIP3    H228806   4.078   3.577   1.363 -1.1267 -0.0749  0.1396
 9621TIP3   OH228807   8.218   4.270   4.902  0.5061 -0.2441  0.0641
 9621TIP3    H128808   8.236   4.269   4.808 -0.1811 -1.4423 -0.0878
 9621TIP3    H228809   8.197   4.179   4.922  1.7499 -0.2211  1.6153
 9622TIP3   OH228810   1.708   6.928   2.022 -0.4494 -0.5989  0.1861
 9622TIP3    H128811   1.731   6.984   1.948  0.0257 -1.6582 -0.4824
 9622TIP3    H228812   1.758   6.964   2.096 -1.0264  0.5431  0.0467
 9623TIP3   OH228813   6.478   6.522   3.275  0.3585 -0.0236 -0.7090
 9623TIP3    H128814   6.410   6.583   3.303  0.9399  1.1845 -1.8263
 9623TIP3    H228815   6.463   6.512   3.180  0.1577 -1.7844 -0.5212
 9624TIP3   OH228816   6.087   7.654   0.528  0.3805  0.0225  0.1353
 9624TIP3    H128817   6.087   7.560   0.547 -0.2989  0.1939  1.0969
 9624TIP3    H228818   6.180   7.677   0.521  0.5359 -0.9154 -1.2575
 9625TIP3   OH228819   0.023   5.001   4.870 -0.5640  0.0420  0.4381
 9625TIP3    H128820   0.006   5.079   4.817  1.6633 -1.2020 -2.4043
 9625TIP3    H228821   0.107   5.019   4.913 -0.7042 -0.2756  0.8550
 9626TIP3   OH228822   2.021   6.942   0.690 -0.4899  0.0180  0.8222
 9626TIP3    H128823   1.965   7.016   0.713 -0.3346 -0.2861  2.3160
 9626TIP3    H228824   1.962   6.876   0.655 -0.6770  0.7077 -0.1839
 9627TIP3   OH228825   3.476   0.962   4.718  0.4763 -0.8142 -0.0222
 9627TIP3    H128826   3.543   0.898   4.745  1.5452  0.7299  1.1773
 9627TIP3    H228827   3.469   0.951   4.623  2.6466 -0.8774 -0.2267
 9628TIP3   OH228828   6.462   0.317   4.814 -0.3906  0.5545 -0.5317
 9628TIP3    H128829   6.434   0.375   4.884  2.0075  2.4900 -1.0341
 9628TIP3    H228830   6.390   0.318   4.751 -0.8559  2.1659 -0.0219
 9629TIP3   OH228831   2.225   6.068   6.103 -0.7674 -0.3382  0.3905
 9629TIP3    H128832   2.237   6.139   6.041  0.9971 -0.7993  0.1622
 9629TIP3    H228833   2.272   6.096   6.182  0.0391 -1.2817  0.2603
 9630TIP3   OH228834   0.923   0.241   6.535  0.0708 -0.0049 -0.3089
 9630TIP3    H128835   0.895   0.149   6.537  1.2829 -0.3830 -0.1530
 9630TIP3    H228836   0.856   0.285   6.482  0.0706 -1.1855 -1.3375
 9631TIP3   OH228837   7.941   6.468   5.172  0.5484 -0.5782  0.4845
 9631TIP3    H128838   7.940   6.513   5.256 -1.2364 -0.5228  0.4731
 9631TIP3    H228839   7.985   6.528   5.113  3.5133 -1.3717  1.7184
 9632TIP3   OH228840   1.542   0.907   1.813  0.0923  0.0326 -0.0108
 9632TIP3    H128841   1.598   0.833   1.789  1.9469  1.9443 -1.9840
 9632TIP3    H228842   1.479   0.914   1.741 -1.8860 -1.1942  1.4882
 9633TIP3   OH228843   1.995   1.034   4.085  0.3205 -0.4458 -0.2310
 9633TIP3    H128844   1.938   1.015   4.159 -1.1331 -0.3467 -1.2736
 9633TIP3    H228845   2.024   0.948   4.054  2.2957 -0.4522  1.3912
 9634TIP3   OH228846   7.075   0.468   1.235 -0.3492 -0.5718  0.3921
 9634TIP3    H128847   7.102   0.492   1.324  1.1336 -1.1741  0.1392
 9634TIP3    H228848   7.050   0.376   1.241 -1.3688 -0.3091  0.3965
 9635TIP3   OH228849   3.707   1.625   2.954  0.0880  0.0282 -0.1796
 9635TIP3    H128850   3.649   1.577   2.894 -1.1387 -0.7694  1.5592
 9635TIP3    H228851   3.678   1.599   3.041  2.1035  0.8138  0.7871
 9636TIP3   OH228852   5.218   2.414   0.963  0.2569  0.2361 -0.1228
 9636TIP3    H128853   5.191   2.485   0.904 -0.7923  0.6377  0.7973
 9636TIP3    H228854   5.145   2.352   0.960  1.6648 -1.4586 -1.8487
 9637TIP3   OH228855   1.603   2.735   0.440  0.1128  0.2967  0.3067
 9637TIP3    H128856   1.688   2.717   0.479  0.5045  2.2328  0.4376
 9637TIP3    H228857   1.571   2.650   0.411  3.0250 -0.2487 -1.7172
 9638TIP3   OH228858   5.700   4.192   6.248 -0.3281  0.1617 -0.6005
 9638TIP3    H128859   5.736   4.256   6.309  1.5384 -0.2589 -1.2087
 9638TIP3    H228860   5.661   4.125   6.304  0.7638  0.1191  0.1477
 9639TIP3   OH228861   8.063   5.456   2.682  0.2370 -0.0823  0.0460
 9639TIP3    H128862   8.011   5.421   2.754  1.4345  0.8485  1.4235
 9639TIP3    H228863   8.020   5.422   2.603 -0.4906 -2.0098  1.1930
 9640TIP3   OH228864   4.312   7.039   6.717  0.1616 -0.5430 -0.3873
 9640TIP3    H128865   4.366   7.084   6.652 -2.0129 -0.5475 -2.3446
 9640TIP3    H228866   4.271   7.109   6.767  2.8972 -0.5458  2.0376
 9641TIP3   OH228867   7.084   3.809   2.208 -0.1698 -0.0200  0.3197
 9641TIP3    H128868   7.150   3.743   2.231 -1.0219 -0.3692  1.9398
 9641TIP3    H228869   7.113   3.844   2.124  0.9140 -1.6685 -0.0377
 9642TIP3   OH228870   4.884   5.263   4.768  0.9304 -0.5596  0.2149
 9642TIP3    H128871   4.924   5.197   4.711  0.7750 -1.0077  0.6219
 9642TIP3    H228872   4.801   5.284   4.725 -0.4005 -2.7527  1.5229
 9643TIP3   OH228873   7.900   3.957   3.808  0.8790  0.1117  0.7810
 9643TIP3    H128874   7.972   3.951   3.871 -0.3244 -0.1292  2.1990
 9643TIP3    H228875   7.830   4.000   3.857  0.1386  0.5852 -0.6505
 9644TIP3   OH228876   0.238   2.678   0.834 -0.1670  0.5383 -0.1105
 9644TIP3    H128877   0.169   2.744   0.831 -1.6337 -0.9643 -0.6324
 9644TIP3    H228878   0.269   2.671   0.743 -0.0395  0.4766 -0.0629
 9645TIP3   OH228879   2.932   4.556   6.029  0.4111 -0.7132 -0.3022
 9645TIP3    H128880   2.972   4.497   5.964  0.5795  0.2565 -1.0942
 9645TIP3    H228881   2.862   4.600   5.982  1.4989  1.1266 -0.2979
 9646TIP3   OH228882   7.844   5.693   6.536 -0.3628  0.2431  0.2285
 9646TIP3    H128883   7.798   5.749   6.473  0.8703 -1.1607 -2.0469
 9646TIP3    H228884   7.791   5.613   6.540 -0.8644  0.6120  1.6655
 9647TIP3   OH228885   2.159   5.810   3.261 -0.4409 -0.4640 -0.2626
 9647TIP3    H128886   2.188   5.836   3.173 -0.0446  0.2901  0.0790
 9647TIP3    H228887   2.194   5.878   3.318  0.8362 -1.8851  0.7224
 9648TIP3   OH228888   6.910   1.664   1.124  0.2012 -0.2314  0.3046
 9648TIP3    H128889   6.844   1.674   1.192 -0.6117  2.1061 -0.7213
 9648TIP3    H228890   6.864   1.684   1.042  2.0458  1.1912 -0.4804
 9649TIP3   OH228891   2.802   4.927   2.891 -0.6887 -0.5237  0.7016
 9649TIP3    H128892   2.744   4.859   2.858 -1.5395  0.5550 -0.0974
 9649TIP3    H228893   2.841   4.966   2.812 -0.9435  0.5306  1.0786
 9650TIP3   OH228894   0.998   1.781   2.940  0.0430 -0.0576 -0.2446
 9650TIP3    H128895   1.023   1.856   2.887  0.9237 -0.1390  0.0309
 9650TIP3    H228896   1.075   1.723   2.937  0.8724  0.7258  2.5228
 9651TIP3   OH228897   7.027   3.512   5.391  0.0845 -0.0085  0.1482
 9651TIP3    H128898   6.968   3.571   5.344 -1.5805  0.9672  3.2289
 9651TIP3    H228899   6.984   3.427   5.388 -0.7386  0.3559  1.0117
 9652TIP3   OH228900   5.516   6.748   3.656 -0.3027 -0.2633  0.9352
 9652TIP3    H128901   5.549   6.818   3.712  1.8647  0.9160 -1.5915
 9652TIP3    H228902   5.422   6.766   3.647 -0.0852  1.3458  1.6571
 9653TIP3   OH228903   7.697   3.783   1.395  0.2358  0.4955  0.1613
 9653TIP3    H128904   7.661   3.851   1.337  1.4004  1.5212  0.5877
 9653TIP3    H228905   7.714   3.829   1.477 -2.5490 -1.1845  1.8578
 9654TIP3   OH228906   6.431   7.482   3.739 -0.3483 -0.2437  0.1320
 9654TIP3    H128907   6.400   7.412   3.796  0.5484 -0.3867  0.4611
 9654TIP3    H228908   6.380   7.472   3.658 -1.4791 -0.1674  0.8168
 9655TIP3   OH228909   0.061   2.238   6.422  0.0895 -0.6719  0.2554
 9655TIP3    H128910   0.063   2.143   6.407 -1.9470 -0.6073 -0.7417
 9655TIP3    H228911   0.134   2.271   6.371  0.8588 -1.6925  0.6523
 9656TIP3   OH228912   2.356   5.505   0.090 -0.0846 -0.0008  0.1058
 9656TIP3    H128913   2.434   5.501   0.036 -0.1801 -1.5525  0.0548
 9656TIP3    H228914   2.388   5.520   0.179  0.2058  0.2232 -0.0363
 9657TIP3   OH228915   5.140   5.674   6.120  0.4812  0.6562 -0.2311
 9657TIP3    H128916   5.128   5.595   6.174 -0.2911  0.4649 -0.6680
 9657TIP3    H228917   5.197   5.730   6.173  1.5932 -0.4530 -0.1804
 9658TIP3   OH228918   2.283   6.172   1.480  0.9229  0.3057  0.0620
 9658TIP3    H128919   2.203   6.177   1.532  0.2407  1.3086 -1.0299
 9658TIP3    H228920   2.345   6.229   1.526 -0.1116  2.3106 -0.8831
 9659TIP3   OH228921   5.175   6.726   4.676 -0.0418  0.2005 -0.1070
 9659TIP3    H128922   5.146   6.657   4.617 -0.1087  0.4362 -0.3496
 9659TIP3    H228923   5.163   6.807   4.627 -1.9760  0.6076  0.9028
 9660TIP3   OH228924   4.044   1.965   3.401 -0.1796 -0.1719  0.8035
 9660TIP3    H128925   4.015   1.899   3.464 -0.2963  0.9729  2.0056
 9660TIP3    H228926   4.080   2.035   3.456 -1.7059  1.5612 -0.3083
 9661TIP3   OH228927   6.587   4.039   6.338  0.1926 -0.1145 -0.0438
 9661TIP3    H128928   6.532   4.015   6.263  0.1300 -0.5939  0.1539
 9661TIP3    H228929   6.631   4.119   6.310  1.1938 -0.9958 -1.1236
 9662TIP3   OH228930   7.125   1.566   2.360  0.4315  0.6518 -0.3608
 9662TIP3    H128931   7.213   1.528   2.359  0.2674  0.0824  1.7472
 9662TIP3    H228932   7.079   1.521   2.290  1.3899 -0.1821 -0.4796
 9663TIP3   OH228933   2.554   2.104   3.795  0.4731 -0.4001 -0.6018
 9663TIP3    H128934   2.607   2.036   3.754  1.0630 -0.2458 -0.1071
 9663TIP3    H228935   2.534   2.068   3.882  0.4623 -0.1049 -0.4824
 9664TIP3   OH228936   0.232   1.379   0.076 -0.2195  0.3408 -0.2729
 9664TIP3    H128937   0.193   1.292   0.075  0.1387 -0.0047  3.0565
 9664TIP3    H228938   0.313   1.368   0.127  0.2982  2.4346 -0.5540
 9665TIP3   OH228939   0.545   2.718   4.885  0.7889 -0.4449 -0.0869
 9665TIP3    H128940   0.588   2.803   4.888 -0.0433  0.0522 -1.4296
 9665TIP3    H228941   0.480   2.722   4.956  0.7481  0.0402 -0.1459
 9666TIP3   OH228942   6.032   7.354   6.157 -0.5222 -0.2986  0.4692
 9666TIP3    H128943   6.065   7.438   6.189  0.9403 -0.7529  0.2044
 9666TIP3    H228944   6.021   7.367   6.063  0.2422 -0.5654  0.3389
 9667TIP3   OH228945   4.727   6.428   1.724  0.1122 -0.8210  0.5287
 9667TIP3    H128946   4.819   6.435   1.750  0.7573  0.7189 -1.8749
 9667TIP3    H228947   4.681   6.487   1.784  0.9067 -0.5037  0.8416
 9668TIP3   OH228948   8.125   3.004   6.638 -0.5969  0.1478  0.6209
 9668TIP3    H128949   8.186   2.940   6.601 -0.4774  1.3869 -1.5258
 9668TIP3    H228950   8.095   3.055   6.562 -2.8230  0.8441  1.8623
 9669TIP3   OH228951   7.153   5.707   4.512  0.2561 -0.3912  0.0337
 9669TIP3    H128952   7.071   5.661   4.492 -0.1574  0.4192 -0.1901
 9669TIP3    H228953   7.191   5.726   4.426  0.9313 -1.1772  0.1427
 9670TIP3   OH228954   8.288   0.612   2.475 -0.1076  0.2982  0.5483
 9670TIP3    H128955   8.219   0.670   2.441  0.2375  0.6471  0.4402
 9670TIP3    H228956   8.251   0.577   2.556 -1.2623 -1.1338 -0.5287
 9671TIP3   OH228957   8.163   2.696   1.304 -0.0322 -0.4012  0.1940
 9671TIP3    H128958   8.228   2.689   1.234 -1.2313 -1.0081 -0.8946
 9671TIP3    H228959   8.130   2.607   1.315 -0.7390 -0.0894  0.6825
 9672TIP3   OH228960   3.982   2.586   5.237 -0.1211  0.1158 -0.0208
 9672TIP3    H128961   3.928   2.507   5.231  1.8549 -1.5936  2.4399
 9672TIP3    H228962   4.072   2.553   5.228  0.6889  2.4427 -1.0886
 9673TIP3   OH228963   4.792   0.458   5.979  0.0467 -0.0288 -0.3236
 9673TIP3    H128964   4.887   0.456   5.965  0.2505  0.6439  0.8526
 9673TIP3    H228965   4.778   0.536   6.034 -1.2972  0.4305 -1.2769
 9674TIP3   OH228966   4.168   2.105   6.744 -0.6103  0.1844  0.4982
 9674TIP3    H128967   4.190   2.191   6.782 -0.2862 -0.8717  2.8868
 9674TIP3    H228968   4.074   2.110   6.730 -0.4696  1.2223 -0.2365
 9675TIP3   OH228969   2.382   0.271   1.016  0.5217 -0.2755  0.4891
 9675TIP3    H128970   2.453   0.267   0.952 -0.3347  2.0832 -0.7459
 9675TIP3    H228971   2.329   0.193   0.998  0.7734 -0.1067 -1.0985
 9676TIP3   OH228972   5.332   2.984   4.035 -0.6756  0.1403  0.8367
 9676TIP3    H128973   5.239   3.006   4.044 -0.8034  0.1070 -0.2107
 9676TIP3    H228974   5.354   2.940   4.117 -1.6614 -0.1019  0.9933
 9677TIP3   OH228975   3.015   0.797   1.028  0.0286  0.1294 -0.1566
 9677TIP3    H128976   2.946   0.771   1.089 -0.7294 -0.4070 -1.2278
 9677TIP3    H228977   3.063   0.866   1.075 -1.1095  0.3850  0.6728
 9678TIP3   OH228978   1.891   3.001   5.911 -0.5624  0.0150  0.5987
 9678TIP3    H128979   1.802   3.032   5.930 -0.5455  1.1539 -0.9850
 9678TIP3    H228980   1.944   3.080   5.908  0.0564 -0.4223 -0.6735
 9679TIP3   OH228981   5.875   2.584   1.170  0.3966 -0.0413 -0.5147
 9679TIP3    H128982   5.860   2.647   1.101 -0.1957  2.3914  1.6770
 9679TIP3    H228983   5.788   2.561   1.202  0.6200  2.2436  2.1436
 9680TIP3   OH228984   0.276   3.696   3.408  0.2859 -0.7534  0.6940
 9680TIP3    H128985   0.311   3.739   3.330 -0.5205 -0.6315  0.3934
 9680TIP3    H228986   0.245   3.768   3.463  0.7048 -0.8479  1.0607
 9681TIP3   OH228987   2.842   4.887   0.738 -0.1292  0.9479 -0.7219
 9681TIP3    H128988   2.811   4.798   0.757 -0.8412  0.9567 -1.7354
 9681TIP3    H228989   2.936   4.878   0.726  0.2036  0.7578  1.5574
 9682TIP3   OH228990   1.049   4.337   3.959  0.3278  0.6309 -0.6054
 9682TIP3    H128991   1.063   4.317   3.866  2.0073 -2.0524  0.1145
 9682TIP3    H228992   1.007   4.259   3.994 -0.8983  1.8716  0.8057
 9683TIP3   OH228993   8.321   7.280   4.306  0.0367 -0.0659  0.2500
 9683TIP3    H128994   8.333   7.292   4.400  0.0325 -2.5345  0.6293
 9683TIP3    H228995   8.240   7.230   4.299  0.5788 -0.8047 -0.9854
 9684TIP3   OH228996   8.024   2.176   3.903 -0.0522  0.1292 -0.0319
 9684TIP3    H128997   7.949   2.118   3.914  0.6647 -0.4326  2.3580
 9684TIP3    H228998   8.055   2.158   3.814 -2.5674  0.2519 -1.0401
 9685TIP3   OH228999   5.551   5.143   0.386 -0.2237 -0.7829 -0.2179
 9685TIP3    H129000   5.551   5.065   0.442 -1.2330 -0.4814  0.2354
 9685TIP3    H229001   5.607   5.205   0.431  0.1930 -1.0721 -0.3299
 9686TIP3   OH229002   3.671   5.525   5.438  0.0681 -0.3978 -0.0877
 9686TIP3    H129003   3.669   5.594   5.372  1.1795 -1.0019 -0.7898
 9686TIP3    H229004   3.636   5.566   5.517 -1.7484  0.1989 -1.1510
 9687TIP3   OH229005   2.530   7.707   6.643 -0.3651  0.8942 -0.2415
 9687TIP3    H129006   2.467   7.635   6.644 -0.4651  0.9653 -0.9476
 9687TIP3    H229007   2.599   7.678   6.703  0.2251 -0.3782 -1.4702
 9688TIP3   OH229008   7.634   1.812   3.683 -0.5512  0.0444 -0.3802
 9688TIP3    H129009   7.654   1.897   3.643 -0.8396  0.1095 -0.3908
 9688TIP3    H229010   7.718   1.767   3.686 -0.2190  0.6960  0.4877
 9689TIP3   OH229011   2.563   2.494   5.843 -0.0619 -0.4913  0.7758
 9689TIP3    H129012   2.657   2.476   5.848  0.1501  0.7105  1.7703
 9689TIP3    H229013   2.559   2.589   5.829 -1.1279 -0.6124  0.2287
 9690TIP3   OH229014   1.649   1.524   1.737  0.3879 -0.5150 -0.6999
 9690TIP3    H129015   1.696   1.536   1.654  1.5334  0.3852  0.0319
 9690TIP3    H229016   1.716   1.542   1.804 -0.9144  0.4047  0.3954
 9691TIP3   OH229017   8.243   3.105   2.174 -0.0638 -0.0324 -0.3709
 9691TIP3    H129018   8.240   3.090   2.268 -0.7099 -0.6379 -0.4822
 9691TIP3    H229019   8.220   3.198   2.164  0.8568  0.2597  0.1147
 9692TIP3   OH229020   1.590   2.024   0.537 -0.0231 -0.3904 -0.0505
 9692TIP3    H129021   1.586   2.120   0.533 -0.5301 -0.4180 -0.2968
 9692TIP3    H229022   1.630   1.999   0.454  1.9199 -0.3103  0.8051
 9693TIP3   OH229023   7.922   3.452   4.496  0.3886  0.1968 -0.7598
 9693TIP3    H129024   7.938   3.431   4.405 -0.9300 -2.5750 -0.4594
 9693TIP3    H229025   7.856   3.389   4.524  0.4040  1.2517  1.9948
 9694TIP3   OH229026   3.692   6.866   6.711 -0.0650  0.0326 -0.1369
 9694TIP3    H129027   3.719   6.952   6.743 -0.8744 -0.2215  1.3049
 9694TIP3    H229028   3.664   6.882   6.621  2.4882  0.7252 -0.8922
 9695TIP3   OH229029   0.294   7.132   5.118  0.4569 -0.3459  0.3633
 9695TIP3    H129030   0.345   7.083   5.182  0.2415  1.3691  1.9377
 9695TIP3    H229031   0.203   7.109   5.137  0.3993  0.0900  0.6502
 9696TIP3   OH229032   4.780   6.856   6.130  0.9803  0.1936 -0.5629
 9696TIP3    H129033   4.738   6.792   6.188 -0.0170 -1.1035 -2.5975
 9696TIP3    H229034   4.872   6.831   6.131  0.6354 -1.2192 -1.1869
 9697TIP3   OH229035   2.342   3.632   4.015  0.4746 -0.1027  0.3697
 9697TIP3    H129036   2.395   3.666   3.943 -1.2544  1.4618 -0.2382
 9697TIP3    H229037   2.350   3.537   4.008  0.7372  0.0354 -1.5998
 9698TIP3   OH229038   0.234   7.577   6.013 -0.3261 -0.3897  0.1091
 9698TIP3    H129039   0.176   7.646   6.045 -1.6133 -1.1844 -0.4320
 9698TIP3    H229040   0.197   7.496   6.050  2.2559 -0.6993  2.3738
 9699TIP3   OH229041   5.950   7.003   3.875  0.7278  0.0036 -0.2254
 9699TIP3    H129042   5.953   6.909   3.862  2.3329  0.1033 -0.7544
 9699TIP3    H229043   5.903   7.036   3.799 -0.1775 -0.3759  0.1498
 9700TIP3   OH229044   5.912   7.458   1.247 -0.0850 -0.0865  0.2132
 9700TIP3    H129045   5.863   7.536   1.223 -0.4906  0.5292  2.7230
 9700TIP3    H229046   5.963   7.436   1.169 -1.6041  1.3692 -1.2774
 9701TIP3   OH229047   5.201   0.258   3.909 -0.0041 -0.1554 -0.0168
 9701TIP3    H129048   5.164   0.199   3.844 -1.9782 -0.4432  1.2807
 9701TIP3    H229049   5.145   0.336   3.906  0.0175 -0.0733  1.1590
 9702TIP3   OH229050   4.035   7.827   2.129 -0.3802  0.3986 -0.4465
 9702TIP3    H129051   4.023   7.778   2.210 -0.5115 -1.5376 -1.5579
 9702TIP3    H229052   3.949   7.865   2.111 -1.3756 -2.0870 -1.4072
 9703TIP3   OH229053   8.253   3.429   5.515  0.3839 -0.4095  0.6811
 9703TIP3    H129054   8.180   3.468   5.564  0.8174  0.1455  0.9055
 9703TIP3    H229055   8.294   3.369   5.577  0.9827  0.3543  1.0494
 9704TIP3   OH229056   2.809   6.636   6.017  0.1216  0.3090 -0.0246
 9704TIP3    H129057   2.797   6.587   5.935  0.0603  2.0452 -1.1095
 9704TIP3    H229058   2.877   6.700   5.997  0.5403  0.3800  1.4980
 9705TIP3   OH229059   7.614   2.104   0.657 -0.0945  0.6384 -0.3454
 9705TIP3    H129060   7.602   2.163   0.582 -0.2541 -0.1282 -0.9419
 9705TIP3    H229061   7.528   2.100   0.698  0.0461  1.2320  0.0135
 9706TIP3   OH229062   4.789   1.124   5.483 -0.0547  0.4051 -0.5138
 9706TIP3    H129063   4.706   1.078   5.469 -0.9110  2.3574 -2.3818
 9706TIP3    H229064   4.796   1.134   5.578 -1.0825 -1.2841 -0.2331
 9707TIP3   OH229065   2.556   1.946   5.553 -0.2691  0.9024  0.8373
 9707TIP3    H129066   2.574   1.995   5.472  0.6967  0.5610  0.8449
 9707TIP3    H229067   2.573   2.009   5.623  0.6761  0.6680  0.8339
 9708TIP3   OH229068   2.092   3.600   6.448  0.3374  0.1002 -0.2722
 9708TIP3    H129069   2.068   3.531   6.386 -1.1625  2.7929 -2.9755
 9708TIP3    H229070   2.023   3.666   6.439  0.7436  1.2602  3.4553
 9709TIP3   OH229071   3.291   3.123   5.532  0.1982 -0.6440 -0.3935
 9709TIP3    H129072   3.237   3.200   5.516  0.2098 -0.2259  1.3779
 9709TIP3    H229073   3.234   3.049   5.510 -0.4868 -0.1698 -0.2503
 9710TIP3   OH229074   5.709   1.127   1.896 -0.2633  0.1610 -0.3808
 9710TIP3    H129075   5.754   1.111   1.979  0.6584  0.1123 -0.8718
 9710TIP3    H229076   5.664   1.210   1.909  0.3017  0.4175 -0.0026
 9711TIP3   OH229077   2.398   6.940   1.398 -0.4678  0.6621 -0.5164
 9711TIP3    H129078   2.412   6.932   1.304  0.7201 -2.6545 -0.1672
 9711TIP3    H229079   2.361   6.856   1.425 -0.9262  1.5691  1.9764
 9712TIP3   OH229080   1.232   4.796   3.375 -0.0494  0.1490  0.5732
 9712TIP3    H129081   1.167   4.739   3.417 -0.9706  0.2007 -0.7532
 9712TIP3    H229082   1.257   4.857   3.444  0.6956 -1.5928  1.9371
 9713TIP3   OH229083   1.670   3.161   6.767 -0.7747 -0.8008 -0.3517
 9713TIP3    H129084   1.707   3.137   6.682  1.3483 -1.1110  0.5910
 9713TIP3    H229085   1.688   3.086   6.823 -2.4641 -0.7389  0.3320
 9714TIP3   OH229086   1.330   6.897   4.799  0.1276 -0.1933  0.3449
 9714TIP3    H129087   1.328   6.813   4.843 -1.6831  0.0170  0.7552
 9714TIP3    H229088   1.359   6.877   4.710  3.0918 -0.7231  1.3167
 9715TIP3   OH229089   7.607   5.248   2.479 -0.5059  0.2977 -0.2746
 9715TIP3    H129090   7.518   5.277   2.459 -0.0080 -0.5289 -4.7762
 9715TIP3    H229091   7.662   5.288   2.411  2.0424 -1.6194  0.4832
 9716TIP3   OH229092   0.123   3.025   5.154 -0.0830 -0.2017 -0.4337
 9716TIP3    H129093   0.050   3.007   5.094 -0.2014 -1.8909  0.1400
 9716TIP3    H229094   0.094   3.100   5.205 -0.7188  0.1646 -1.3019
 9717TIP3   OH229095   1.726   7.525   3.899  0.5979 -0.4358 -0.2708
 9717TIP3    H129096   1.659   7.479   3.848 -1.7819  1.1879  1.2083
 9717TIP3    H229097   1.712   7.617   3.881  4.1631 -0.0511 -1.8296
 9718TIP3   OH229098   4.469   3.349   3.064  0.4266  0.2998  0.1256
 9718TIP3    H129099   4.427   3.428   3.031  1.0301  0.0704 -1.2316
 9718TIP3    H229100   4.556   3.378   3.091  1.3469 -0.1961 -2.1139
 9719TIP3   OH229101   7.772   1.972   1.712 -0.6623 -0.3738 -0.1396
 9719TIP3    H129102   7.771   2.046   1.652 -0.1458 -1.2924 -1.3256
 9719TIP3    H229103   7.826   2.001   1.786 -2.4281  1.2532  0.5905
 9720TIP3   OH229104   4.612   3.200   5.702 -0.6236 -0.5288 -0.5204
 9720TIP3    H129105   4.578   3.166   5.785 -2.3815 -0.9101 -1.3321
 9720TIP3    H229106   4.678   3.264   5.727 -1.3552 -0.3833  1.1809
 9721TIP3   OH229107   1.318   6.164   6.003  0.3462  0.1921  0.0161
 9721TIP3    H129108   1.352   6.176   5.914 -0.8242  0.2157 -0.4518
 9721TIP3    H229109   1.224   6.149   5.990 -0.1626  1.8591  1.3455
 9722TIP3   OH229110   1.043   1.373   5.467  0.3500 -0.2849  0.0562
 9722TIP3    H129111   1.077   1.462   5.454  0.9325 -0.4150  0.6386
 9722TIP3    H229112   0.969   1.383   5.526  0.1805 -0.1485 -0.1771
 9723TIP3   OH229113   5.428   1.197   3.198 -0.3024  0.5136  0.1830
 9723TIP3    H129114   5.369   1.122   3.183 -0.4180  0.2881  1.6475
 9723TIP3    H229115   5.406   1.259   3.128 -1.1711 -0.2341 -0.2278
 9724TIP3   OH229116   4.225   0.163   6.340 -0.4968 -0.3565  0.6660
 9724TIP3    H129117   4.238   0.088   6.281  0.9710  0.2567  0.1803
 9724TIP3    H229118   4.204   0.236   6.282 -1.2679 -0.2324  1.0909
 9725TIP3   OH229119   2.294   1.135   3.290  0.0682  0.0605  0.2123
 9725TIP3    H129120   2.317   1.060   3.235  2.7019  0.9558 -0.0428
 9725TIP3    H229121   2.213   1.108   3.334 -1.2608 -1.3443 -2.8002
 9726TIP3   OH229122   4.556   6.819   3.521 -0.0526 -0.2571 -0.2197
 9726TIP3    H129123   4.544   6.774   3.437  0.5297 -0.4796 -0.1915
 9726TIP3    H229124   4.480   6.877   3.528  1.1363  1.6844 -2.1089
 9727TIP3   OH229125   3.036   5.232   2.208 -0.2739  0.0092 -0.1078
 9727TIP3    H129126   3.073   5.296   2.146 -1.1894  3.8538  2.9108
 9727TIP3    H229127   2.950   5.210   2.171  0.1043  0.4269 -1.2954
 9728TIP3   OH229128   6.107   2.172   6.231  0.6912 -0.4035  0.3000
 9728TIP3    H129129   6.105   2.086   6.189  0.3725 -0.4124  0.3357
 9728TIP3    H229130   6.122   2.153   6.324 -0.9605 -0.5058  0.5615
 9729TIP3   OH229131   4.747   2.882   0.638 -0.8436 -0.0241 -0.9700
 9729TIP3    H129132   4.816   2.905   0.699 -1.8791 -0.2544  0.3385
 9729TIP3    H229133   4.789   2.885   0.552  1.0649 -1.2796 -0.1389
 9730TIP3   OH229134   6.006   5.903   1.521  0.3934 -0.1910  0.1743
 9730TIP3    H129135   6.061   5.845   1.468  0.6023 -1.0120  1.2396
 9730TIP3    H229136   6.016   5.870   1.610  0.2351  1.2921  0.7678
 9731TIP3   OH229137   3.178   4.542   3.963 -0.2764 -0.0444  0.5870
 9731TIP3    H129138   3.188   4.625   4.010  1.9319 -0.8483  1.6751
 9731TIP3    H229139   3.197   4.564   3.871  0.5061  0.6101  0.8965
 9732TIP3   OH229140   5.863   3.219   4.113 -0.0408 -0.2665 -0.0363
 9732TIP3    H129141   5.907   3.240   4.196 -0.0869  0.7053 -0.2479
 9732TIP3    H229142   5.801   3.290   4.100 -1.2450 -1.2983 -0.0672
 9733TIP3   OH229143   8.197   3.315   6.206 -0.0022 -0.1649  0.0524
 9733TIP3    H129144   8.214   3.275   6.291  1.6610  1.1447  0.3856
 9733TIP3    H229145   8.135   3.386   6.225  0.3472  0.1093  0.1850
 9734TIP3   OH229146   7.561   2.131   2.469  0.3600 -0.8641 -0.3995
 9734TIP3    H129147   7.539   2.049   2.425 -1.6694 -0.3022 -0.5251
 9734TIP3    H229148   7.607   2.103   2.549  0.3307 -2.0793 -0.7859
 9735TIP3   OH229149   0.367   4.308   0.200  0.6457  0.1690  0.1726
 9735TIP3    H129150   0.443   4.298   0.257  0.8554  0.5569 -0.0335
 9735TIP3    H229151   0.356   4.403   0.191  0.1530  0.1125  0.1797
 9736TIP3   OH229152   5.069   1.926   4.413  0.7735 -0.5558  0.4751
 9736TIP3    H129153   5.111   1.843   4.391 -0.1840 -0.2317 -3.2444
 9736TIP3    H229154   5.126   1.992   4.374 -1.2053  0.0862 -1.5782
 9737TIP3   OH229155   4.042   2.042   3.927 -0.2959  0.1166 -0.3692
 9737TIP3    H129156   4.057   1.955   3.888  2.0857 -0.5381  1.7375
 9737TIP3    H229157   4.002   2.023   4.012  0.4121  1.0542  0.1893
 9738TIP3   OH229158   5.846   3.043   1.555  0.3412 -0.5344 -0.4845
 9738TIP3    H129159   5.753   3.024   1.561  0.2278 -0.4226 -1.6573
 9738TIP3    H229160   5.888   2.975   1.608 -0.3191 -1.4589 -1.1060
 9739TIP3   OH229161   8.183   0.085   0.636  0.5162  0.1383 -0.9970
 9739TIP3    H129162   8.103   0.082   0.689  1.6821 -1.7974  0.8138
 9739TIP3    H229163   8.163   0.029   0.561 -0.4375  1.1854 -1.5512
 9740TIP3   OH229164   5.156   5.644   1.221 -0.1547 -0.3365 -0.2917
 9740TIP3    H129165   5.125   5.710   1.283 -0.7594  1.1624 -2.0990
 9740TIP3    H229166   5.174   5.567   1.275  2.0476  1.7103  2.1394
 9741TIP3   OH229167   1.458   5.528   6.396 -0.3362  0.6617  0.1414
 9741TIP3    H129168   1.445   5.601   6.456 -1.0797  0.6742 -0.0128
 9741TIP3    H229169   1.399   5.460   6.429  2.3179 -0.9276  1.9017
 9742TIP3   OH229170   1.285   0.482   2.342 -0.2776  0.0322 -0.2988
 9742TIP3    H129171   1.378   0.466   2.329 -0.6241 -1.8369 -0.8747
 9742TIP3    H229172   1.254   0.515   2.257 -0.6103 -2.1086 -1.0851
 9743TIP3   OH229173   4.220   6.705   5.845  0.3864  0.2027 -0.6286
 9743TIP3    H129174   4.141   6.666   5.807  1.7510 -0.9752 -2.4642
 9743TIP3    H229175   4.208   6.799   5.837 -0.7107  0.0256 -1.1286
 9744TIP3   OH229176   5.757   3.725   0.886  0.4082  0.9742 -0.3923
 9744TIP3    H129177   5.850   3.711   0.902  0.0038 -2.0355 -0.1373
 9744TIP3    H229178   5.724   3.761   0.969  0.9346 -0.3140  0.4010
 9745TIP3   OH229179   4.960   0.129   2.017 -0.1695  0.5770 -0.5190
 9745TIP3    H129180   4.907   0.066   1.968  1.5870  0.7431 -2.7960
 9745TIP3    H229181   4.923   0.214   1.992 -1.4724  0.5904  1.2547
 9746TIP3   OH229182   6.205   0.605   0.346 -0.5219 -0.1715  0.1257
 9746TIP3    H129183   6.165   0.621   0.431 -0.2315  2.2310 -0.1339
 9746TIP3    H229184   6.239   0.515   0.352  0.6307  0.3461  3.0120
 9747TIP3   OH229185   4.798   3.134   6.208  0.1976  0.2618  0.0691
 9747TIP3    H129186   4.841   3.209   6.166  1.4091  0.2885  1.2931
 9747TIP3    H229187   4.789   3.160   6.299 -0.0860 -0.7865  0.3486
 9748TIP3   OH229188   4.356   2.895   5.334 -0.1277  0.1062  0.3562
 9748TIP3    H129189   4.279   2.895   5.391  0.1612 -0.1012  0.7473
 9748TIP3    H229190   4.429   2.919   5.392  0.1947 -0.2875  0.1137
 9749TIP3   OH229191   1.524   4.674   3.413  0.4881 -0.0502  0.2510
 9749TIP3    H129192   1.483   4.594   3.380  1.0794 -0.8459  1.3675
 9749TIP3    H229193   1.459   4.743   3.399  0.0874 -0.6641 -0.9969
 9750TIP3   OH229194   8.137   5.591   4.406 -0.0245 -0.2191  0.2173
 9750TIP3    H129195   8.231   5.600   4.394  0.0709 -0.0199  1.0460
 9750TIP3    H229196   8.101   5.675   4.376 -0.0677 -0.7262 -1.2288
 9751TIP3   OH229197   3.589   2.949   1.415  0.8839  0.7132 -0.2030
 9751TIP3    H129198   3.614   2.947   1.322 -0.5965 -3.2709 -0.7142
 9751TIP3    H229199   3.644   2.882   1.456 -1.5198 -0.7636  0.7836
 9752TIP3   OH229200   4.528   4.656   3.431  0.6502  0.4847 -0.1677
 9752TIP3    H129201   4.483   4.732   3.468 -0.9450 -0.1333 -0.7414
 9752TIP3    H229202   4.508   4.660   3.337  2.1060  0.3642 -0.5027
 9753TIP3   OH229203   6.302   0.404   1.984  0.2153  0.3140 -0.0101
 9753TIP3    H129204   6.391   0.381   2.010  0.9426  0.0063 -2.5629
 9753TIP3    H229205   6.261   0.321   1.959  0.0300  0.7447 -1.1723
 9754TIP3   OH229206   2.546   6.012   0.757  0.1164 -0.3166  0.1150
 9754TIP3    H129207   2.463   6.004   0.711  1.2630 -2.3567 -1.7863
 9754TIP3    H229208   2.550   5.934   0.813  1.7337 -1.5715 -1.6408
 9755TIP3   OH229209   4.206   0.932   4.103  0.5136 -0.0090  0.7157
 9755TIP3    H129210   4.228   0.999   4.167  0.6375 -0.5079  1.1987
 9755TIP3    H229211   4.224   0.849   4.147  0.2042 -0.3669  0.1842
 9756TIP3   OH229212   4.160   3.892   1.889  0.1181 -0.1538 -0.1875
 9756TIP3    H129213   4.072   3.891   1.927 -0.1773 -0.4660 -0.8611
 9756TIP3    H229214   4.219   3.891   1.965 -0.4376  1.6369  0.3038
 9757TIP3   OH229215   1.277   4.289   6.607 -0.1661  0.0494  0.4013
 9757TIP3    H129216   1.356   4.300   6.554 -0.6058  1.2717 -0.0401
 9757TIP3    H229217   1.307   4.247   6.687  0.8661  0.1722  0.0874
 9758TIP3   OH229218   6.424   6.668   6.443  0.7387 -0.1012 -0.1202
 9758TIP3    H129219   6.399   6.716   6.364 -0.4852  2.0591  1.4521
 9758TIP3    H229220   6.495   6.720   6.481 -0.6159  0.5679  1.6297
 9759TIP3   OH229221   7.882   5.191   3.869 -0.5092 -0.2703  0.0448
 9759TIP3    H129222   7.926   5.108   3.889  0.4984  0.0416 -0.7944
 9759TIP3    H229223   7.889   5.200   3.774 -0.4163  0.8782  0.1529
 9760TIP3   OH229224   0.420   6.786   2.491  0.3947 -0.3638  0.1826
 9760TIP3    H129225   0.347   6.777   2.552  1.1412 -0.5666  1.0516
 9760TIP3    H229226   0.393   6.857   2.432 -0.6779 -0.7134  0.2354
 9761TIP3   OH229227   0.968   0.303   6.050 -0.0696  0.4395  0.0032
 9761TIP3    H129228   0.898   0.239   6.034  0.0480  0.4815 -0.7090
 9761TIP3    H229229   0.922   0.382   6.077 -0.2221  0.0861  0.8134
 9762TIP3   OH229230   4.773   6.032   3.506 -0.4795 -0.0844  0.3733
 9762TIP3    H129231   4.820   5.986   3.575 -0.3192  0.5105  0.6706
 9762TIP3    H229232   4.756   5.966   3.439 -0.7976 -0.6981  1.0614
 9763TIP3   OH229233   0.345   7.470   0.432  0.6051  0.5051 -0.2065
 9763TIP3    H129234   0.280   7.405   0.461 -1.3072  1.4613 -2.0335
 9763TIP3    H229235   0.325   7.548   0.485  0.3629  0.7393 -0.6355
 9764TIP3   OH229236   4.859   5.219   1.883  0.3165  0.2240 -0.0934
 9764TIP3    H129237   4.944   5.197   1.922  0.4100  0.5543 -0.1146
 9764TIP3    H229238   4.797   5.209   1.955  0.3665 -0.0499 -0.0859
 9765TIP3   OH229239   7.064   6.613   1.738  0.4619  0.0509  0.0678
 9765TIP3    H129240   7.157   6.598   1.752  0.4994  1.7057  2.1725
 9765TIP3    H229241   7.058   6.652   1.651  1.5474 -1.2141 -0.6079
 9766TIP3   OH229242   7.553   7.739   2.360 -0.6160 -0.4444 -0.0686
 9766TIP3    H129243   7.617   7.810   2.362 -0.9601 -0.1040 -0.7632
 9766TIP3    H229244   7.603   7.660   2.380 -0.0223 -0.1515 -0.3799
 9767TIP3   OH229245   1.603   7.246   3.860 -0.2165  0.0476  0.0242
 9767TIP3    H129246   1.604   7.293   3.777 -0.1798  2.9378  1.5447
 9767TIP3    H229247   1.539   7.293   3.914 -2.4534 -3.4893  0.7931
 9768TIP3   OH229248   6.867   1.311   1.545 -0.0314  0.4091  0.0588
 9768TIP3    H129249   6.957   1.279   1.537 -0.1583 -0.2769  1.1777
 9768TIP3    H229250   6.813   1.234   1.531 -0.4002  0.5066  0.9115
 9769TIP3   OH229251   0.480   1.665   2.421 -0.4379 -0.4074  0.6777
 9769TIP3    H129252   0.546   1.625   2.477  0.2812 -0.5007 -0.1969
 9769TIP3    H229253   0.444   1.736   2.472 -1.6866 -2.0879  2.2492
 9770TIP3   OH229254   3.910   5.523   2.652  0.1876 -0.5652 -0.5170
 9770TIP3    H129255   3.910   5.546   2.745 -0.7246  1.0724 -0.8860
 9770TIP3    H229256   4.002   5.533   2.625  0.1542  0.8697 -0.1959
 9771TIP3   OH229257   7.974   2.406   1.313 -0.3885 -0.3397  0.3403
 9771TIP3    H129258   8.000   2.376   1.226 -0.5244  0.4738  0.0068
 9771TIP3    H229259   7.943   2.328   1.358  1.3150 -1.0956  0.2732
 9772TIP3   OH229260   2.900   0.738   2.259 -0.0490  0.5349  0.3035
 9772TIP3    H129261   2.992   0.760   2.246 -0.1798  1.4664  0.8359
 9772TIP3    H229262   2.879   0.773   2.346 -0.9554  0.5184  0.1075
 9773TIP3   OH229263   7.550   0.947   4.818  0.3464 -0.2475  0.7618
 9773TIP3    H129264   7.550   0.890   4.895  1.3039  0.6063  1.4190
 9773TIP3    H229265   7.528   1.034   4.852 -1.8107 -0.3063 -0.3405
 9774TIP3   OH229266   2.618   1.097   4.406 -0.3729 -0.3620 -0.2518
 9774TIP3    H129267   2.553   1.109   4.476  0.0190 -0.9042  0.2091
 9774TIP3    H229268   2.674   1.174   4.413 -0.5181 -0.2613 -0.1734
 9775TIP3   OH229269   5.713   0.215   2.143  0.0859  0.1226 -0.2605
 9775TIP3    H129270   5.716   0.122   2.166  2.6970  0.1405 -0.1906
 9775TIP3    H229271   5.643   0.222   2.078 -0.6640 -1.7389  0.2897
 9776TIP3   OH229272   4.509   5.790   0.350  0.1972 -0.0675 -0.3922
 9776TIP3    H129273   4.505   5.884   0.368 -1.1096 -0.3769  1.0843
 9776TIP3    H229274   4.523   5.749   0.435  1.4243 -1.2143 -1.0982
 9777TIP3   OH229275   2.705   6.222   0.012 -0.0195  0.0447  0.1403
 9777TIP3    H129276   2.677   6.131   0.017  0.3447 -0.0141  1.2034
 9777TIP3    H229277   2.688   6.258   0.099  0.3730  0.8432 -0.1010
 9778TIP3   OH229278   8.065   4.227   6.394  0.5467 -0.1949  0.3238
 9778TIP3    H129279   8.131   4.194   6.455  0.7740 -0.3472  0.0023
 9778TIP3    H229280   8.071   4.322   6.401  0.1695 -0.2158  0.9613
 9779TIP3   OH229281   5.137   7.110   0.348 -0.5871 -0.5786 -0.2204
 9779TIP3    H129282   5.183   7.029   0.371 -0.5389 -0.3485  0.5316
 9779TIP3    H229283   5.047   7.083   0.333 -0.4035 -0.8926 -0.7985
 9780TIP3   OH229284   1.263   7.389   6.165 -0.0432 -0.3958 -0.6328
 9780TIP3    H129285   1.337   7.411   6.109  1.1686 -1.4260  0.4920
 9780TIP3    H229286   1.277   7.298   6.189 -0.9243 -0.2113  0.7228
 9781TIP3   OH229287   2.851   5.647   3.649  0.2123  0.1160  0.4371
 9781TIP3    H129288   2.907   5.579   3.613  0.0156  0.1112  0.1431
 9781TIP3    H229289   2.762   5.614   3.638  0.1432  0.1742  0.8000
 9782TIP3   OH229290   4.616   7.481   2.462  0.2619  0.0831  0.2870
 9782TIP3    H129291   4.659   7.538   2.526  0.7182 -0.8290  0.8136
 9782TIP3    H229292   4.571   7.415   2.515 -0.6076  0.1869 -0.3024
 9783TIP3   OH229293   5.928   0.488   0.804 -0.1163  0.0538 -0.0923
 9783TIP3    H129294   5.850   0.480   0.749 -0.5683 -1.1205  0.6814
 9783TIP3    H229295   5.895   0.520   0.888  0.3191  0.1370  0.0464
 9784TIP3   OH229296   1.960   7.756   1.653  0.2078  0.2657 -0.1350
 9784TIP3    H129297   1.919   7.702   1.721  1.4143 -1.2386 -0.5535
 9784TIP3    H229298   1.978   7.695   1.582  0.8443  1.4047 -0.9800
 9785TIP3   OH229299   2.180   2.947   1.613  0.3841 -0.4204  0.3250
 9785TIP3    H129300   2.150   3.028   1.571  1.3061 -0.1764  0.1103
 9785TIP3    H229301   2.252   2.976   1.670  1.3628 -1.2087 -0.4696
 9786TIP3   OH229302   6.338   4.366   0.020 -0.8934  0.0288 -0.1470
 9786TIP3    H129303   6.433   4.363   0.005 -0.7007  0.8582  0.7614
 9786TIP3    H229304   6.329   4.416   0.102 -2.0460 -1.0877  0.4440
 9787TIP3   OH229305   2.451   3.478   1.682 -0.1090  0.6179  0.2644
 9787TIP3    H129306   2.481   3.399   1.728  1.8419  0.3684 -1.2930
 9787TIP3    H229307   2.357   3.466   1.672  0.0003 -1.0512  0.9008
 9788TIP3   OH229308   3.764   7.198   3.785 -0.4690  0.3219 -0.2419
 9788TIP3    H129309   3.677   7.158   3.776 -0.5943  0.9650 -2.7948
 9788TIP3    H229310   3.825   7.126   3.768 -0.5286  0.1534  0.2370
 9789TIP3   OH229311   7.461   1.536   5.981  0.3097 -0.0630  0.6688
 9789TIP3    H129312   7.513   1.609   6.014  0.4568 -0.5089  1.4488
 9789TIP3    H229313   7.423   1.496   6.059 -2.1284  0.9175  0.0881
 9790TIP3   OH229314   1.063   3.510   2.906 -0.4790  0.6094  0.3969
 9790TIP3    H129315   1.149   3.486   2.940  0.6364  2.4841 -0.9081
 9790TIP3    H229316   1.078   3.590   2.855 -2.9549  0.8592 -0.1017
 9791TIP3   OH229317   6.262   3.633   4.959  0.3400  0.4882 -0.0549
 9791TIP3    H129318   6.193   3.682   4.916 -0.6144 -0.0096  0.8595
 9791TIP3    H229319   6.284   3.563   4.898 -0.5183  0.1910 -0.0316
 9792TIP3   OH229320   7.629   5.061   2.118 -0.4548  0.0089  0.0020
 9792TIP3    H129321   7.536   5.078   2.130 -0.2486  0.0583  1.7895
 9792TIP3    H229322   7.665   5.058   2.206  1.0228 -1.2659 -0.5848
 9793TIP3   OH229323   4.877   0.983   6.626  0.0309  0.0628 -0.2225
 9793TIP3    H129324   4.814   1.055   6.628 -0.8430 -0.6798 -0.4051
 9793TIP3    H229325   4.923   0.989   6.710  0.5416  1.3076 -0.5627
 9794TIP3   OH229326   3.788   1.515   3.545  0.5775  0.1355  0.2708
 9794TIP3    H129327   3.850   1.462   3.594 -0.4718 -0.5749  0.8643
 9794TIP3    H229328   3.785   1.476   3.458 -0.5232 -1.1063  0.8307
 9795TIP3   OH229329   1.024   4.155   6.516 -0.1524 -0.4806 -0.6729
 9795TIP3    H129330   1.108   4.197   6.536  0.1687 -0.8420 -1.2195
 9795TIP3    H229331   0.974   4.222   6.470 -1.1083  0.5421  1.7064
 9796TIP3   OH229332   4.235   1.345   3.142 -0.2535  0.1394 -0.4355
 9796TIP3    H129333   4.250   1.259   3.180 -0.4594  0.3314  0.0820
 9796TIP3    H229334   4.301   1.352   3.072 -0.1753 -0.3942 -0.4223
 9797TIP3   OH229335   7.934   2.964   4.007 -0.4975 -0.0664 -0.2489
 9797TIP3    H129336   7.884   2.953   4.088 -0.9249  0.9997 -0.3599
 9797TIP3    H229337   7.999   3.031   4.027 -0.1504 -0.2963 -0.5889
 9798TIP3   OH229338   3.679   0.173   4.539  0.7085  0.3312  0.0586
 9798TIP3    H129339   3.726   0.194   4.458 -0.9696 -0.6557 -1.2582
 9798TIP3    H229340   3.704   0.083   4.558 -0.1196  0.0101 -0.3076
 9799TIP3   OH229341   4.128   1.024   5.536 -0.3559  0.2662 -0.0632
 9799TIP3    H129342   4.081   0.958   5.485 -0.3906 -0.0908  0.4227
 9799TIP3    H229343   4.065   1.095   5.547 -0.3677  0.3220 -0.4589
 9800TIP3   OH229344   6.548   4.480   0.367  0.4544 -0.1799  0.1256
 9800TIP3    H129345   6.606   4.413   0.332 -0.0956 -0.1434 -0.9008
 9800TIP3    H229346   6.597   4.562   0.357  0.0725 -0.0791 -1.2145
 9801TIP3   OH229347   0.749   6.920   0.990  0.0630  0.3495 -0.0149
 9801TIP3    H129348   0.664   6.940   0.950  0.6125  0.9070 -0.9561
 9801TIP3    H229349   0.729   6.852   1.055 -1.2754  1.3050  0.6263
 9802TIP3   OH229350   3.235   0.991   4.872 -0.3436 -0.3058  0.2793
 9802TIP3    H129351   3.291   0.997   4.949  0.5311  1.6348 -0.4586
 9802TIP3    H229352   3.295   0.969   4.801 -0.8980 -0.4661 -0.1461
 9803TIP3   OH229353   6.997   0.652   2.216 -0.0590  0.3257  0.2180
 9803TIP3    H129354   6.990   0.570   2.263 -0.1995  0.0745 -0.2326
 9803TIP3    H229355   7.043   0.630   2.135 -2.1193  0.2079 -0.9966
 9804TIP3   OH229356   1.307   1.236   1.440  0.0516  0.7110 -0.4814
 9804TIP3    H129357   1.248   1.282   1.500  1.3246  2.7033 -0.6585
 9804TIP3    H229358   1.333   1.302   1.376  1.1878 -0.5438 -1.3806
 9805TIP3   OH229359   3.126   3.768   5.487  0.1976  0.3302 -0.5672
 9805TIP3    H129360   3.209   3.777   5.440 -0.0482  0.6254 -0.9399
 9805TIP3    H229361   3.064   3.737   5.421  0.2781 -1.0548 -0.0377
 9806TIP3   OH229362   4.067   2.654   4.182  0.2685  0.9226  0.2213
 9806TIP3    H129363   4.032   2.568   4.160  2.8168 -0.1384 -0.0567
 9806TIP3    H229364   4.095   2.646   4.274  1.5659  1.0211 -0.1392
 9807TIP3   OH229365   7.589   0.139   4.651 -0.1453  0.4175  0.1031
 9807TIP3    H129366   7.543   0.202   4.706 -2.0439  0.4599 -1.4040
 9807TIP3    H229367   7.678   0.172   4.645 -0.7443  2.1881  0.5091
 9808TIP3   OH229368   5.071   3.062   6.316  0.2782 -0.1361 -0.2310
 9808TIP3    H129369   5.151   3.079   6.365  0.4145  1.9186 -1.0497
 9808TIP3    H229370   5.009   3.031   6.381  0.4362  2.5452  1.3272
 9809TIP3   OH229371   2.688   1.264   3.484 -0.0406 -0.0634  0.1427
 9809TIP3    H129372   2.626   1.192   3.478  0.2647 -0.4175  1.0902
 9809TIP3    H229373   2.695   1.297   3.394 -1.5359 -0.0501  0.0128
 9810TIP3   OH229374   0.281   6.167   2.527  0.0738  0.0194  0.4586
 9810TIP3    H129375   0.196   6.208   2.545 -0.0529 -0.1977  0.3597
 9810TIP3    H229376   0.298   6.186   2.435 -0.0343 -0.2334  0.3841
 9811TIP3   OH229377   7.421   2.468   0.045 -0.0960 -0.3048 -0.9757
 9811TIP3    H129378   7.429   2.373   0.056  1.3394 -0.0904  0.0671
 9811TIP3    H229379   7.379   2.498   0.126  1.5322  0.1880 -0.2885
 9812TIP3   OH229380   5.214   5.763   0.954 -0.3707 -0.3567 -0.3039
 9812TIP3    H129381   5.265   5.709   0.894 -2.0376 -2.5183  0.0917
 9812TIP3    H229382   5.188   5.703   1.024 -1.9918  1.0664  0.3872
 9813TIP3   OH229383   0.389   6.804   3.296  0.1036  0.2247  0.2018
 9813TIP3    H129384   0.461   6.774   3.241  1.2252  2.1892  0.5051
 9813TIP3    H229385   0.362   6.888   3.256 -2.4042 -0.6766 -0.2165
 9814TIP3   OH229386   1.386   5.777   3.640 -0.9287  0.4109  0.1728
 9814TIP3    H129387   1.390   5.768   3.735 -1.5817  0.7631  0.2447
 9814TIP3    H229388   1.380   5.688   3.607  0.3058  0.2381  0.4004
 9815TIP3   OH229389   0.856   3.049   1.075  0.0483 -0.1027 -0.0622
 9815TIP3    H129390   0.892   2.961   1.088 -0.9212 -0.4986  0.0257
 9815TIP3    H229391   0.820   3.073   1.161 -1.9728 -0.6954 -0.6788
 9816TIP3   OH229392   3.083   3.368   4.323  0.5215 -0.3608 -0.3302
 9816TIP3    H129393   3.072   3.353   4.230  1.9444  0.2270 -0.6214
 9816TIP3    H229394   2.995   3.361   4.360 -0.3834  1.4069 -2.0177
 9817TIP3   OH229395   4.926   6.498   6.090  0.4432 -0.6091 -0.5993
 9817TIP3    H129396   4.939   6.505   5.995  0.3824  1.0350 -0.5178
 9817TIP3    H229397   4.831   6.505   6.101  0.5338  0.4708 -0.3614
 9818TIP3   OH229398   0.543   3.755   6.184 -0.0190 -0.3259 -0.0316
 9818TIP3    H129399   0.451   3.782   6.177 -0.2627 -0.9360  0.6835
 9818TIP3    H229400   0.541   3.660   6.168  0.2919 -0.5846  1.3558
 9819TIP3   OH229401   0.668   6.265   2.498 -0.7525  0.2383 -0.6380
 9819TIP3    H129402   0.658   6.171   2.511 -0.8207  0.2912 -0.3045
 9819TIP3    H229403   0.762   6.277   2.483 -0.9559 -0.1091 -2.5765
 9820TIP3   OH229404   2.635   3.602   2.238  0.2558  0.4134 -0.3250
 9820TIP3    H129405   2.562   3.631   2.183  0.5188 -0.6836 -1.3009
 9820TIP3    H229406   2.675   3.530   2.189  1.7298  0.6989  0.4031
 9821TIP3   OH229407   3.903   0.861   6.063  0.1629  0.2248 -0.1694
 9821TIP3    H129408   3.836   0.826   6.122 -0.0932 -0.9861 -1.1297
 9821TIP3    H229409   3.970   0.897   6.122 -0.2515 -0.6284  0.8621
 9822TIP3   OH229410   6.699   5.141   3.232 -0.1998 -0.3884 -0.1069
 9822TIP3    H129411   6.712   5.069   3.293  0.5768 -1.3997 -1.3963
 9822TIP3    H229412   6.788   5.173   3.213 -0.4599  0.2065 -0.3461
 9823TIP3   OH229413   3.856   6.652   0.124 -0.2547 -0.0806 -0.2559
 9823TIP3    H129414   3.787   6.624   0.064 -1.8932  1.6218  0.7060
 9823TIP3    H229415   3.929   6.592   0.108 -0.5906  0.2641 -3.9178
 9824TIP3   OH229416   6.123   1.699   0.568  0.3895 -0.5147  0.7139
 9824TIP3    H129417   6.041   1.686   0.520  0.0837 -0.1152  1.1213
 9824TIP3    H229418   6.134   1.794   0.572  0.6152 -0.5526  1.0891
 9825TIP3   OH229419   4.018   5.746   6.585 -0.4991 -0.1560 -0.2715
 9825TIP3    H129420   3.939   5.792   6.557 -1.0047 -0.3923  0.7399
 9825TIP3    H229421   4.063   5.725   6.503 -0.8155  1.1386 -0.8024
 9826TIP3   OH229422   6.908   0.274   5.671 -0.5409 -0.3708 -0.9259
 9826TIP3    H129423   6.982   0.217   5.649 -0.9173 -0.5008 -1.9625
 9826TIP3    H229424   6.869   0.234   5.748  0.9902  0.2168  0.2026
 9827TIP3   OH229425   1.157   3.641   1.703  0.2374  0.2234  0.7489
 9827TIP3    H129426   1.195   3.690   1.630  1.3849 -2.5299 -0.6611
 9827TIP3    H229427   1.102   3.575   1.661  0.9510 -1.4636  2.3148
 9828TIP3   OH229428   5.571   4.857   4.532 -0.1906 -0.0654  0.2991
 9828TIP3    H129429   5.566   4.888   4.442 -2.9106 -3.6044 -0.9907
 9828TIP3    H229430   5.512   4.915   4.581 -2.7408 -1.0993 -1.3567
 9829TIP3   OH229431   4.927   7.805   2.441  0.4707  0.2981 -0.0099
 9829TIP3    H129432   4.993   7.823   2.374  1.4315  3.4407  1.5763
 9829TIP3    H229433   4.844   7.831   2.400  0.8964  1.1532 -0.3481
 9830TIP3   OH229434   4.533   2.719   3.504 -0.4171  0.2667  0.1553
 9830TIP3    H129435   4.555   2.781   3.435  0.3273  0.7946  0.8507
 9830TIP3    H229436   4.438   2.725   3.513 -0.3331  1.4847  0.3682
 9831TIP3   OH229437   0.272   7.057   0.964 -0.1057 -0.0494  0.0814
 9831TIP3    H129438   0.324   7.137   0.969  1.1656 -0.9186  1.2867
 9831TIP3    H229439   0.335   6.988   0.941 -1.1738 -0.7238 -0.9375
 9832TIP3   OH229440   5.160   0.972   1.363 -0.7235  0.3811  0.2141
 9832TIP3    H129441   5.076   0.928   1.373 -2.0395  2.1213 -2.1529
 9832TIP3    H229442   5.188   0.951   1.274  0.0945  1.8194  0.1062
 9833TIP3   OH229443   6.958   6.161   2.162 -0.1082  0.7695 -0.6604
 9833TIP3    H129444   6.987   6.183   2.250 -0.3409 -0.1138 -0.3603
 9833TIP3    H229445   6.930   6.070   2.167 -0.7663  0.9124 -1.4904
 9834TIP3   OH229446   8.215   7.759   2.247  0.2363 -0.1281  0.2290
 9834TIP3    H129447   8.181   7.710   2.321 -1.6690  0.9987  0.1713
 9834TIP3    H229448   8.234   7.846   2.282  2.4269 -0.4881  0.0678
 9835TIP3   OH229449   6.608   7.705   1.790 -0.1689 -0.3811  0.0255
 9835TIP3    H129450   6.570   7.736   1.872 -1.4648 -0.2251 -0.6126
 9835TIP3    H229451   6.566   7.757   1.722  0.4878 -0.8730 -0.7814
 9836TIP3   OH229452   6.785   2.480   4.156  0.3570  0.1747 -0.0121
 9836TIP3    H129453   6.833   2.495   4.075 -0.6392 -0.3090 -0.7077
 9836TIP3    H229454   6.708   2.537   4.150  1.5156  2.0473  1.7426
 9837TIP3   OH229455   7.433   3.399   4.357 -0.0869 -0.0649 -0.4293
 9837TIP3    H129456   7.487   3.478   4.361  0.4020 -0.3308 -1.5542
 9837TIP3    H229457   7.495   3.327   4.358 -0.5472 -0.4730  0.9518
 9838TIP3   OH229458   0.146   1.369   3.846 -0.1839  0.3597  0.5446
 9838TIP3    H129459   0.084   1.305   3.881 -1.9468  2.7328  2.0527
 9838TIP3    H229460   0.223   1.361   3.903  0.0171 -1.0091  0.1193
 9839TIP3   OH229461   0.277   0.580   1.745 -0.4838 -0.2954  0.0136
 9839TIP3    H129462   0.297   0.583   1.839 -1.4728 -0.6573  0.2414
 9839TIP3    H229463   0.247   0.668   1.725  2.0515  0.5453 -0.5327
 9840TIP3   OH229464   0.481   4.548   0.431  0.1617 -0.5818 -0.2959
 9840TIP3    H129465   0.459   4.631   0.389 -2.3367 -1.3895 -0.7274
 9840TIP3    H229466   0.488   4.570   0.524  2.3136  0.5579 -0.6416
 9841TIP3   OH229467   6.955   5.460   2.282  1.0880  0.1400  0.5124
 9841TIP3    H129468   7.031   5.466   2.340  0.5679  0.7946  1.1431
 9841TIP3    H229469   6.909   5.381   2.309  2.8708 -1.7428 -1.5524
 9842TIP3   OH229470   2.045   5.605   4.077 -0.2478  0.0424 -0.2860
 9842TIP3    H129471   2.080   5.640   3.995 -1.5738  2.4034  0.0757
 9842TIP3    H229472   1.970   5.552   4.051  0.2311 -0.4718 -0.6596
 9843TIP3   OH229473   6.094   0.729   5.243 -0.3864  0.2697  0.4383
 9843TIP3    H129474   6.139   0.680   5.312  0.9056 -0.2726 -0.7434
 9843TIP3    H229475   6.040   0.792   5.290 -1.6057 -1.8025  2.0105
 9844TIP3   OH229476   7.024   6.228   2.444  0.2734 -1.0855 -0.0051
 9844TIP3    H129477   7.052   6.158   2.503  0.9395 -0.2863  0.6489
 9844TIP3    H229478   7.074   6.305   2.472 -0.6112 -0.2831 -0.5564
 9845TIP3   OH229479   2.757   7.095   0.696 -0.3576  0.3920  0.0840
 9845TIP3    H129480   2.730   7.087   0.605 -0.4056  0.2283  0.1123
 9845TIP3    H229481   2.719   7.178   0.725  0.5644  0.9826 -0.3552
 9846TIP3   OH229482   1.899   7.126   3.901 -0.2187 -0.5391 -0.2058
 9846TIP3    H129483   1.912   7.053   3.840 -0.1403 -0.5516 -0.1729
 9846TIP3    H229484   1.860   7.085   3.979 -2.5560 -0.2284 -1.1055
 9847TIP3   OH229485   2.706   7.392   5.616  0.3546 -0.1307  0.6163
 9847TIP3    H129486   2.636   7.374   5.553 -0.8379  1.7128  1.3398
 9847TIP3    H229487   2.752   7.308   5.625 -2.2300 -1.6401  0.6764
 9848TIP3   OH229488   0.341   3.568   1.526 -0.3410 -0.7936  0.4499
 9848TIP3    H129489   0.276   3.554   1.594 -0.9445  0.4809  0.1595
 9848TIP3    H229490   0.414   3.612   1.571 -0.3495 -0.7822  0.4524
 9849TIP3   OH229491   1.393   4.684   1.506  0.8791  0.1378  0.4159
 9849TIP3    H129492   1.313   4.735   1.524  0.3270 -0.2911 -0.7147
 9849TIP3    H229493   1.428   4.723   1.425 -0.5508 -2.3419 -1.5501
 9850TIP3   OH229494   7.441   5.699   0.715 -0.1722  0.3804 -0.5047
 9850TIP3    H129495   7.489   5.722   0.794  1.4409 -0.6239 -1.1474
 9850TIP3    H229496   7.420   5.606   0.726 -1.3195  0.6202 -0.5780
 9851TIP3   OH229497   1.424   0.352   0.087 -0.2285  0.5269 -0.2043
 9851TIP3    H129498   1.413   0.325  -0.004  1.2824 -0.9724  0.0115
 9851TIP3    H229499   1.384   0.281   0.138 -0.7063  1.1617  0.3327
 9852TIP3   OH229500   4.063   4.116   1.442  0.0657  0.0428 -0.1598
 9852TIP3    H129501   4.114   4.178   1.494  0.2061 -0.5133  0.3716
 9852TIP3    H229502   4.125   4.084   1.376  0.0992  0.1698 -0.1906
 9853TIP3   OH229503   2.205   3.735   3.677  0.6171  0.7215  0.2999
 9853TIP3    H129504   2.157   3.726   3.594  2.6015  0.6960 -0.9184
 9853TIP3    H229505   2.139   3.721   3.744 -0.9217 -0.0462 -1.2787
 9854TIP3   OH229506   4.386   3.976   4.580 -0.4526 -0.2498 -0.2155
 9854TIP3    H129507   4.430   3.891   4.588  0.5588  0.1988 -0.8559
 9854TIP3    H229508   4.297   3.960   4.612  0.4620 -0.9364  2.1797
 9855TIP3   OH229509   2.835   4.327   2.679 -0.5252 -0.1441  0.1873
 9855TIP3    H129510   2.912   4.285   2.642 -0.0354  1.1672 -0.3257
 9855TIP3    H229511   2.838   4.304   2.772 -1.2956 -2.7470 -0.3465
 9856TIP3   OH229512   0.193   4.501   6.014 -0.4122  0.4366 -0.4651
 9856TIP3    H129513   0.268   4.454   5.976 -0.9112 -2.1993  1.4610
 9856TIP3    H229514   0.227   4.588   6.035  1.7171 -0.2327 -0.8897
 9857TIP3   OH229515   0.701   2.649   0.503  0.2118 -0.0570 -0.0462
 9857TIP3    H129516   0.743   2.617   0.423  1.5694 -0.8655  0.9418
 9857TIP3    H229517   0.743   2.733   0.519 -2.0716  1.5090 -1.6549
 9858TIP3   OH229518   6.480   0.781   4.875 -0.6051  0.8923  0.4926
 9858TIP3    H129519   6.424   0.858   4.866 -0.5318  1.6168  4.2644
 9858TIP3    H229520   6.419   0.708   4.881 -0.9674  1.2137  0.8708
 9859TIP3   OH229521   3.176   1.635   3.033  0.2447 -0.0004 -0.1392
 9859TIP3    H129522   3.219   1.678   2.959 -0.5563  0.3290 -0.4242
 9859TIP3    H229523   3.199   1.688   3.109  0.6040 -0.0155 -0.2350
 9860TIP3   OH229524   4.726   6.157   1.762 -0.1128  0.4988  0.0134
 9860TIP3    H129525   4.695   6.247   1.753  2.2452  1.4013  0.2220
 9860TIP3    H229526   4.799   6.151   1.701  0.1644 -1.0954  0.4597
 9861TIP3   OH229527   3.344   0.547   2.504 -0.7572 -0.0077 -0.0272
 9861TIP3    H129528   3.315   0.475   2.448 -2.4335 -0.0438  0.8572
 9861TIP3    H229529   3.410   0.507   2.562 -2.2700 -1.0716  1.0260
 9862TIP3   OH229530   1.440   4.850   4.408 -0.8129 -0.7412 -0.0637
 9862TIP3    H129531   1.387   4.926   4.429  0.3801  0.1139 -0.0388
 9862TIP3    H229532   1.486   4.875   4.327  0.0220 -1.2022  0.2600
 9863TIP3   OH229533   7.139   0.692   6.799  0.2305 -0.2069  0.0986
 9863TIP3    H129534   7.152   0.693   6.704  0.8872 -1.3685  0.1722
 9863TIP3    H229535   7.044   0.698   6.810  0.0148 -1.8477 -0.6861
 9864TIP3   OH229536   2.349   1.795   1.009  0.0368  0.6610  0.0194
 9864TIP3    H129537   2.351   1.733   0.936 -3.6069 -1.3600  1.3559
 9864TIP3    H229538   2.384   1.747   1.083 -0.9441  0.8898  0.6517
 9865TIP3   OH229539   5.879   1.942   3.427  0.5994 -0.1300  0.1207
 9865TIP3    H129540   5.840   1.962   3.342  0.3061 -1.0459  0.0288
 9865TIP3    H229541   5.833   1.999   3.488  0.1374 -0.1584 -0.1967
 9866TIP3   OH229542   6.686   4.057   2.021  0.4865  0.0545 -0.4440
 9866TIP3    H129543   6.656   4.070   1.931  1.5101 -1.3660 -1.0232
 9866TIP3    H229544   6.777   4.028   2.012  0.4346 -0.6604  1.0340
 9867TIP3   OH229545   0.603   3.580   4.198 -0.0734  0.2066  0.2694
 9867TIP3    H129546   0.569   3.669   4.199  0.7580  0.5382  0.2767
 9867TIP3    H229547   0.698   3.591   4.190 -0.0036 -0.6916 -0.2696
 9868TIP3   OH229548   4.859   3.251   6.492  0.0243  0.3563 -0.2275
 9868TIP3    H129549   4.901   3.313   6.432 -1.7057  1.6301 -0.2071
 9868TIP3    H229550   4.827   3.306   6.564  0.4395 -0.8997  0.9477
 9869TIP3   OH229551   6.321   6.366   1.901  1.0270  0.0213 -0.6103
 9869TIP3    H129552   6.351   6.277   1.885  0.9104  0.0325 -0.9008
 9869TIP3    H229553   6.252   6.380   1.835 -1.3156 -0.8433  1.4718
 9870TIP3   OH229554   1.919   6.957   1.133  0.0344 -0.3986 -0.0156
 9870TIP3    H129555   1.864   6.886   1.099  0.3852 -1.3803  1.3639
 9870TIP3    H229556   1.960   6.995   1.055 -0.0852 -1.7831 -0.7892
 9871TIP3   OH229557   3.120   6.110   2.265  0.6756 -0.3468  0.1880
 9871TIP3    H129558   3.177   6.074   2.196  1.1990  1.3538 -0.3532
 9871TIP3    H229559   3.150   6.069   2.346  1.8817 -0.3913 -0.2625
 9872TIP3   OH229560   1.041   0.168   1.952 -0.2374 -0.3988 -0.5827
 9872TIP3    H129561   1.034   0.220   2.032 -0.3399 -0.8648 -0.2861
 9872TIP3    H229562   1.135   0.155   1.940 -0.2734 -1.4838  0.2213
 9873TIP3   OH229563   6.912   4.313   3.361  0.1233  0.0735  0.1160
 9873TIP3    H129564   6.921   4.274   3.274 -0.5740  2.3039 -1.0426
 9873TIP3    H229565   6.990   4.284   3.409  0.0324 -1.9930 -0.9025
 9874TIP3   OH229566   1.690   5.744   3.888  0.8520  0.4023  0.3917
 9874TIP3    H129567   1.742   5.674   3.851  0.4231 -0.2859  1.0635
 9874TIP3    H229568   1.696   5.815   3.824  2.1976  0.1673  0.2278
 9875TIP3   OH229569   4.011   3.469   3.323 -0.2481 -0.4586 -0.1665
 9875TIP3    H129570   3.920   3.463   3.351 -0.5432  0.0793 -0.9706
 9875TIP3    H229571   4.055   3.399   3.370 -0.5721  0.7883  2.1234
 9876TIP3   OH229572   4.508   4.591   1.567  0.1748  0.1076  0.1434
 9876TIP3    H129573   4.435   4.569   1.509 -0.6288  0.1229  1.1418
 9876TIP3    H229574   4.477   4.665   1.619  0.8626  0.0428  0.6616
 9877TIP3   OH229575   3.177   3.610   6.049 -0.4630 -0.2807  0.3573
 9877TIP3    H129576   3.125   3.637   5.974  1.0036  1.2963 -0.1443
 9877TIP3    H229577   3.116   3.562   6.104 -1.9910 -0.0176 -1.0366
 9878TIP3   OH229578   4.469   4.641   0.836  0.1221  0.0008  0.7054
 9878TIP3    H129579   4.394   4.635   0.894  0.1467  2.3342  1.0784
 9878TIP3    H229580   4.431   4.654   0.749  0.1058  0.0001  0.7124
 9879TIP3   OH229581   7.740   5.435   6.411 -0.4278  0.5886 -0.3352
 9879TIP3    H129582   7.794   5.359   6.434  1.7487  2.1870  0.1128
 9879TIP3    H229583   7.665   5.429   6.471  0.9638  0.1137  1.4540
 9880TIP3   OH229584   2.863   6.038   0.264  0.4128 -0.6361 -0.0130
 9880TIP3    H129585   2.897   6.104   0.324 -0.6518  0.8573 -0.9707
 9880TIP3    H229586   2.781   6.008   0.303 -0.5271  0.6823 -0.8592
 9881TIP3   OH229587   6.003   1.568   5.010 -0.4539 -0.5790 -0.4707
 9881TIP3    H129588   5.912   1.579   5.039  0.3166 -0.3187  2.0901
 9881TIP3    H229589   5.997   1.505   4.938 -2.6749 -0.3622 -0.5590
 9882TIP3   OH229590   8.106   4.214   1.853 -0.2326  0.0897 -0.2186
 9882TIP3    H129591   8.155   4.262   1.787 -0.6236  0.3678 -0.3077
 9882TIP3    H229592   8.016   4.245   1.845 -0.4060 -0.3305  0.0215
 9883TIP3   OH229593   5.747   3.760   5.052 -0.6188 -0.0638  0.1609
 9883TIP3    H129594   5.696   3.679   5.057  0.2250 -0.6632 -0.5387
 9883TIP3    H229595   5.810   3.752   5.124  0.8681 -1.0641 -1.1898
 9884TIP3   OH229596   3.458   4.315   6.458 -0.5410  0.4160 -0.3539
 9884TIP3    H129597   3.460   4.323   6.553  1.3855 -0.1738 -0.3006
 9884TIP3    H229598   3.373   4.275   6.439  0.4217 -2.9247  1.4689
 9885TIP3   OH229599   7.914   1.603   3.790 -0.1266 -0.1519 -0.3247
 9885TIP3    H129600   7.925   1.668   3.860 -1.5998  0.4235 -0.6061
 9885TIP3    H229601   7.912   1.655   3.709  1.0921 -0.7753 -0.7840
 9886TIP3   OH229602   4.912   1.910   3.341  0.5234 -0.0411 -0.2130
 9886TIP3    H129603   4.912   1.865   3.256  0.5013  0.7519 -0.6465
 9886TIP3    H229604   4.852   1.858   3.395 -0.6816  0.3039 -1.1712
 9887TIP3   OH229605   4.279   1.856   6.729 -0.4286 -0.0217 -0.5267
 9887TIP3    H129606   4.368   1.857   6.693  0.4571 -0.3743  1.5359
 9887TIP3    H229607   4.258   1.948   6.744 -0.3062  0.0445 -0.7536
 9888TIP3   OH229608   8.087   5.897   4.124 -1.0712 -0.3234 -0.3306
 9888TIP3    H129609   8.176   5.932   4.129 -1.4664  0.7148 -0.2916
 9888TIP3    H229610   8.063   5.878   4.215  0.0650 -3.2278 -0.5042
 9889TIP3   OH229611   7.481   1.870   2.104  0.1312 -0.2562 -0.3998
 9889TIP3    H129612   7.459   1.963   2.108  0.0491 -0.2739 -0.4362
 9889TIP3    H229613   7.513   1.857   2.015  0.6199 -0.1585 -0.2415
 9890TIP3   OH229614   1.404   4.759   6.031  0.1073 -0.0023 -0.5407
 9890TIP3    H129615   1.410   4.804   6.115 -2.0725 -1.2905  0.3958
 9890TIP3    H229616   1.310   4.742   6.020  0.5215 -1.4197 -2.3911
 9891TIP3   OH229617   7.075   0.454   3.379  0.1696  0.2595 -0.4328
 9891TIP3    H129618   7.088   0.374   3.328  0.1151  0.3145 -0.5335
 9891TIP3    H229619   7.072   0.424   3.470  1.2095  0.2731 -0.3869
 9892TIP3   OH229620   4.854   6.679   5.615  0.2544 -0.1655  0.3733
 9892TIP3    H129621   4.766   6.648   5.595 -0.5325  2.0586  0.2225
 9892TIP3    H229622   4.842   6.744   5.684  1.4317  2.1615 -1.5000
 9893TIP3   OH229623   1.826   5.019   3.194  0.1746 -0.9200  0.1834
 9893TIP3    H129624   1.776   4.954   3.146  0.6545 -1.5159  0.4762
 9893TIP3    H229625   1.850   5.084   3.128 -1.8720 -0.0359  0.2254
 9894TIP3   OH229626   7.835   3.289   1.760 -0.2931 -0.0507 -0.1904
 9894TIP3    H129627   7.812   3.200   1.787  0.7470 -0.1001  0.5766
 9894TIP3    H229628   7.930   3.290   1.758 -0.1960  1.5793  1.7974
 9895TIP3   OH229629   0.071   0.348   2.051  0.0881 -0.0465  0.0416
 9895TIP3    H129630   0.029   0.434   2.050  1.3747  0.6575  1.6153
 9895TIP3    H229631   0.156   0.362   2.010 -0.2556 -0.9264 -1.0143
 9896TIP3   OH229632   1.281   3.417   2.116 -0.1126 -0.0466 -0.8880
 9896TIP3    H129633   1.266   3.472   2.039 -0.9739  0.0523 -0.6665
 9896TIP3    H229634   1.352   3.461   2.163 -0.9186  1.0099 -0.6161
 9897TIP3   OH229635   6.988   0.358   5.190 -0.0624  0.4884  0.1596
 9897TIP3    H129636   6.932   0.387   5.119 -0.0224 -1.8224 -0.9135
 9897TIP3    H229637   7.071   0.405   5.177 -0.0663  0.1322 -1.3327
 9898TIP3   OH229638   0.462   4.818   0.320  0.3417  0.0122 -0.0189
 9898TIP3    H129639   0.514   4.890   0.358  0.3458  0.9526 -1.7062
 9898TIP3    H229640   0.393   4.862   0.270 -0.8421 -1.2108  0.4789
 9899TIP3   OH229641   8.234   0.611   1.176  0.1473 -0.1461 -0.0044
 9899TIP3    H129642   8.277   0.674   1.233  2.1425  0.6103 -2.2240
 9899TIP3    H229643   8.142   0.613   1.204  0.8444  0.8746  2.4770
 9900TIP3   OH229644   3.751   3.147   4.410  0.4366 -0.4442  0.2765
 9900TIP3    H129645   3.775   3.238   4.395 -1.8458  0.1708 -0.0224
 9900TIP3    H229646   3.703   3.122   4.331 -1.6435 -0.8961  1.6256
 9901TIP3   OH229647   7.912   5.757   5.040 -0.2390  0.0121  0.2265
 9901TIP3    H129648   7.941   5.670   5.011 -1.7408  0.3240 -2.5398
 9901TIP3    H229649   7.816   5.753   5.036 -0.4152  1.1895  2.1075
 9902TIP3   OH229650   3.297   1.684   3.862 -0.2608  0.3498  0.4523
 9902TIP3    H129651   3.369   1.620   3.859  0.6287  1.2923  1.0644
 9902TIP3    H229652   3.226   1.642   3.813  0.1490 -1.2975  1.1831
 9903TIP3   OH229653   4.039   4.032   4.268  0.0980  0.7992 -0.4953
 9903TIP3    H129654   3.973   3.963   4.266  1.8042 -0.9062 -0.1314
 9903TIP3    H229655   4.109   4.001   4.210  2.0842  0.8962  1.6953
 9904TIP3   OH229656   1.176   0.901   0.278 -0.2518 -0.1395 -0.4169
 9904TIP3    H129657   1.210   0.951   0.204 -0.5775  2.3391  0.9783
 9904TIP3    H229658   1.250   0.893   0.338 -1.1934  3.0147  1.4678
 9905TIP3   OH229659   2.288   0.996   0.754  0.8812 -0.2458 -0.1622
 9905TIP3    H129660   2.297   1.081   0.711 -0.0304  1.8079  3.3248
 9905TIP3    H229661   2.286   1.016   0.847 -2.5536 -3.7884  0.8061
 9906TIP3   OH229662   7.312   2.196   0.728  0.1861 -0.1240  0.4380
 9906TIP3    H129663   7.382   2.261   0.723  1.3156 -1.2137  1.3756
 9906TIP3    H229664   7.233   2.246   0.747  0.5726  1.1973 -1.2135
 9907TIP3   OH229665   7.800   7.586   3.271  0.6250  0.5998  0.2951
 9907TIP3    H129666   7.894   7.567   3.269  0.2562 -1.8441  2.0485
 9907TIP3    H229667   7.762   7.517   3.325 -1.7377  3.5167  2.7021
 9908TIP3   OH229668   1.069   7.676   0.682 -0.0103 -0.0193 -0.4787
 9908TIP3    H129669   0.990   7.676   0.627 -0.2639 -0.4524 -0.1247
 9908TIP3    H229670   1.141   7.660   0.620 -0.1989  0.3627 -0.8003
 9909TIP3   OH229671   2.731   6.555   4.233  0.7440  0.2135  0.1808
 9909TIP3    H129672   2.719   6.539   4.327 -3.8616 -0.2504 -0.2474
 9909TIP3    H229673   2.743   6.468   4.195  1.3820  0.2857  0.2120
 9910TIP3   OH229674   6.834   2.852   5.665  0.2367 -0.1205  0.1320
 9910TIP3    H129675   6.915   2.821   5.704 -0.5242 -0.8975  1.1538
 9910TIP3    H229676   6.765   2.822   5.724 -0.8399  0.1160 -0.9421
 9911TIP3   OH229677   2.071   7.446   4.439  0.0821  0.2548  0.3849
 9911TIP3    H129678   2.106   7.376   4.494 -0.1700 -0.4866 -0.3853
 9911TIP3    H229679   2.069   7.409   4.351 -0.0339  1.2418 -0.0433
 9912TIP3   OH229680   4.239   6.866   4.579  0.0067  0.3906  0.4881
 9912TIP3    H129681   4.219   6.784   4.533  1.5406 -0.1178  0.6681
 9912TIP3    H229682   4.216   6.935   4.517 -0.2957 -0.2086 -0.0828
 9913TIP3   OH229683   3.206   1.356   3.049 -0.3550 -0.8975 -0.0728
 9913TIP3    H129684   3.179   1.447   3.038  1.5900 -0.2708  0.0512
 9913TIP3    H229685   3.252   1.354   3.133  0.6773 -1.7044 -0.6303
 9914TIP3   OH229686   6.086   2.573   5.727  0.3281 -0.4563  0.3895
 9914TIP3    H129687   6.016   2.534   5.675 -0.6668 -0.2609  1.5398
 9914TIP3    H229688   6.165   2.558   5.675 -0.5728 -0.5086 -1.0382
 9915TIP3   OH229689   5.454   0.133   5.825 -0.2097 -0.8217  0.1775
 9915TIP3    H129690   5.422   0.060   5.773 -1.0222  0.0177 -0.5429
 9915TIP3    H229691   5.458   0.206   5.764  1.9532 -0.5812  0.5464
 9916TIP3   OH229692   4.078   5.678   2.341 -0.2538  0.4924  0.0728
 9916TIP3    H129693   4.002   5.679   2.399 -2.3155  0.3715 -2.3980
 9916TIP3    H229694   4.080   5.765   2.303  0.1682  0.1679 -0.6701
 9917TIP3   OH229695   5.912   4.766   1.503  0.3326  0.0911 -0.0300
 9917TIP3    H129696   5.837   4.710   1.484  0.3651  0.5282 -1.6281
 9917TIP3    H229697   5.923   4.819   1.423  2.7392 -0.4210 -0.1138
 9918TIP3   OH229698   7.461   3.356   0.854  0.2151  0.3706 -0.6330
 9918TIP3    H129699   7.381   3.304   0.852  0.4986 -0.0569 -1.3196
 9918TIP3    H229700   7.439   3.433   0.907 -0.9952  0.8244 -1.7423
 9919TIP3   OH229701   6.449   3.148   5.226  0.1146  0.1835  0.1461
 9919TIP3    H129702   6.368   3.166   5.274 -0.3002 -1.0631 -0.0250
 9919TIP3    H229703   6.488   3.074   5.273 -0.2645 -1.0231 -1.3215
 9920TIP3   OH229704   1.274   5.246   0.921  0.4461 -0.2166 -0.1702
 9920TIP3    H129705   1.231   5.283   0.844 -0.3839 -1.0003 -0.0975
 9920TIP3    H229706   1.203   5.210   0.973  0.8346  1.3916  1.6109
 9921TIP3   OH229707   3.211   2.329   6.259 -0.2791 -0.2519  0.2937
 9921TIP3    H129708   3.250   2.243   6.272  2.4145  0.5658 -1.5452
 9921TIP3    H229709   3.173   2.324   6.171  1.0586  0.7632 -0.3766
 9922TIP3   OH229710   1.346   3.279   6.023  0.0234  0.3065  0.5405
 9922TIP3    H129711   1.421   3.335   6.039 -0.7431  1.1073  1.5052
 9922TIP3    H229712   1.351   3.212   6.090  1.2887 -1.2274 -0.9961
 9923TIP3   OH229713   6.934   5.426   0.578 -0.1287 -0.5592  0.0265
 9923TIP3    H129714   6.934   5.511   0.622 -1.5585 -1.4523  1.8831
 9923TIP3    H229715   6.948   5.447   0.486  0.4593  1.6018  0.5470
 9924TIP3   OH229716   6.978   6.738   4.219 -0.5602  0.0124  0.3315
 9924TIP3    H129717   6.977   6.833   4.203  0.2039  0.0300  0.3509
 9924TIP3    H229718   7.064   6.721   4.257 -0.5121 -0.7630 -0.1088
 9925TIP3   OH229719   4.493   4.405   1.315 -0.0662  0.0039  0.2539
 9925TIP3    H129720   4.563   4.366   1.367 -0.3105 -1.5147 -0.4883
 9925TIP3    H229721   4.525   4.399   1.225 -1.4873 -1.5589 -0.1956
 9926TIP3   OH229722   2.655   2.787   2.115  0.1876 -0.5256  0.3737
 9926TIP3    H129723   2.736   2.794   2.065 -0.4527 -0.4580 -0.6838
 9926TIP3    H229724   2.633   2.878   2.136 -0.9918 -0.2716 -1.6634
 9927TIP3   OH229725   4.488   4.368   5.790  0.0808  0.0976 -0.7915
 9927TIP3    H129726   4.493   4.358   5.885 -0.8562  0.8603 -0.6396
 9927TIP3    H229727   4.431   4.297   5.761  0.8693 -0.5161 -0.8763
 9928TIP3   OH229728   2.655   4.773   2.403 -0.5938  0.0669 -0.0190
 9928TIP3    H129729   2.668   4.678   2.400  0.8070  0.2170  0.5460
 9928TIP3    H229730   2.675   4.802   2.314  2.3209  0.1636  0.5739
 9929TIP3   OH229731   7.017   1.579   4.682  0.4670  0.4466 -0.1176
 9929TIP3    H129732   7.079   1.510   4.657  0.6152 -0.5353  2.6851
 9929TIP3    H229733   7.066   1.635   4.742 -0.9548  0.3828  1.1548
 9930TIP3   OH229734   4.102   1.828   5.739  0.4988 -0.3465  0.2689
 9930TIP3    H129735   4.114   1.789   5.826  1.5921 -2.1671 -0.6257
 9930TIP3    H229736   4.069   1.756   5.685 -0.4248  0.8193 -0.7894
 9931TIP3   OH229737   0.259   5.815   4.430 -0.2752 -0.3763 -0.1286
 9931TIP3    H129738   0.281   5.801   4.338  0.6054 -1.3036  0.2048
 9931TIP3    H229739   0.190   5.751   4.448 -0.3264 -0.3125 -0.0982
 9932TIP3   OH229740   3.577   7.426   0.962  0.0810  0.5739 -0.1201
 9932TIP3    H129741   3.586   7.435   0.867  0.2671 -2.3646 -0.4976
 9932TIP3    H229742   3.493   7.465   0.982  0.9620  3.1596 -1.1001
 9933TIP3   OH229743   7.299   1.316   3.091  0.4994 -0.0647  0.1433
 9933TIP3    H129744   7.209   1.347   3.100  0.2711 -0.7134  0.1558
 9933TIP3    H229745   7.352   1.396   3.085  0.0235  0.3281  1.0050
 9934TIP3   OH229746   3.886   3.656   4.017 -0.3195  0.3247  0.5189
 9934TIP3    H129747   3.807   3.604   4.005 -0.0844 -0.3796  1.8907
 9934TIP3    H229748   3.923   3.664   3.929 -0.8923 -0.9704  0.1466
 9935TIP3   OH229749   3.409   7.845   5.677  0.2314 -0.2560  0.2358
 9935TIP3    H129750   3.379   7.761   5.712  0.0287 -0.6401 -0.8039
 9935TIP3    H229751   3.450   7.889   5.751  3.5267 -2.7387  0.1034
 9936TIP3   OH229752   2.499   5.531   6.328 -0.3989 -0.4968  0.1588
 9936TIP3    H129753   2.589   5.564   6.333 -0.6705  0.5053 -1.0121
 9936TIP3    H229754   2.483   5.492   6.414  0.6351  0.6914  0.9330
 9937TIP3   OH229755   0.037   6.576   2.822 -0.1366  0.2213  0.0091
 9937TIP3    H129756   0.064   6.487   2.799  1.0223  0.6616 -0.4404
 9937TIP3    H229757   0.077   6.592   2.907 -2.3173 -0.5014  1.2369
 9938TIP3   OH229758   7.409   1.841   2.392 -0.0254  0.3341 -0.0788
 9938TIP3    H129759   7.503   1.839   2.376  0.2477 -0.4837  1.4947
 9938TIP3    H229760   7.370   1.824   2.306  1.2835 -0.4649 -0.5385
 9939TIP3   OH229761   6.594   7.024   1.040  0.6040 -0.8163 -0.2474
 9939TIP3    H129762   6.609   6.966   1.115  2.5104  0.2615  0.2704
 9939TIP3    H229763   6.681   7.039   1.004 -0.0795  0.1962 -1.5419
 9940TIP3   OH229764   2.643   4.870   5.330  0.0483  0.2552 -0.4720
 9940TIP3    H129765   2.675   4.908   5.248 -1.7572  2.4022 -0.2778
 9940TIP3    H229766   2.575   4.809   5.303 -0.7655  1.1951 -0.5924
 9941TIP3   OH229767   2.441   6.172   4.770  0.2092 -0.3084  0.2004
 9941TIP3    H129768   2.400   6.240   4.717 -0.3957 -1.2000 -0.5207
 9941TIP3    H229769   2.528   6.205   4.788  0.6095 -0.1426 -1.7685
 9942TIP3   OH229770   4.751   5.539   6.407  0.3184 -0.0690 -0.6991
 9942TIP3    H129771   4.758   5.445   6.424 -0.2657  0.0048  0.0230
 9942TIP3    H229772   4.741   5.578   6.494  1.0294  0.7110 -0.9548
 9943TIP3   OH229773   6.856   6.187   4.799 -0.2780  0.0163 -0.2428
 9943TIP3    H129774   6.892   6.179   4.888  2.1360  0.7873 -1.0620
 9943TIP3    H229775   6.928   6.160   4.742 -1.4767  0.3925 -2.0071
 9944TIP3   OH229776   7.879   3.075   3.700  0.4585  0.4072  0.2510
 9944TIP3    H129777   7.957   3.094   3.752  0.1045 -1.5856  1.6374
 9944TIP3    H229778   7.838   3.002   3.745 -0.9804 -0.1105 -1.7654
 9945TIP3   OH229779   7.899   6.679   1.362 -0.3109  0.3357 -0.0443
 9945TIP3    H129780   7.986   6.693   1.324 -1.0424  0.6269 -1.6723
 9945TIP3    H229781   7.853   6.762   1.350 -0.8856  0.1271  0.6260
 9946TIP3   OH229782   6.371   3.685   3.631 -0.0425  0.9410 -0.2162
 9946TIP3    H129783   6.400   3.701   3.721 -1.7887 -1.3957  0.8612
 9946TIP3    H229784   6.424   3.611   3.601 -0.7273  0.5083 -0.3952
 9947TIP3   OH229785   2.217   4.295   1.769  0.2495  0.0599  0.0905
 9947TIP3    H129786   2.181   4.304   1.858 -0.9368 -0.2925 -0.3315
 9947TIP3    H229787   2.240   4.202   1.762  0.0699  0.0276 -0.0704
 9948TIP3   OH229788   0.404   3.537   4.929 -0.0829 -0.2233  0.0038
 9948TIP3    H129789   0.444   3.549   4.843 -1.0438 -0.0781 -0.4365
 9948TIP3    H229790   0.331   3.477   4.914 -1.0659  0.8201  0.4703
 9949TIP3   OH229791   4.014   0.346   1.339 -0.7824 -0.0817 -0.0875
 9949TIP3    H129792   4.085   0.383   1.391 -1.2088 -1.3309  1.4796
 9949TIP3    H229793   3.935   0.389   1.372 -0.9735 -0.3034 -0.2487
 9950TIP3   OH229794   5.400   6.214   4.439 -0.3281  0.4718 -0.5587
 9950TIP3    H129795   5.385   6.273   4.513  0.5453  1.4927 -1.1759
 9950TIP3    H229796   5.472   6.157   4.467 -0.4209  0.4376 -0.3893
 9951TIP3   OH229797   4.236   7.280   4.586 -0.0945  0.1185 -0.3492
 9951TIP3    H129798   4.201   7.356   4.539 -0.2697 -0.7969 -1.7634
 9951TIP3    H229799   4.201   7.205   4.539 -1.3703 -0.9110  2.0472
 9952TIP3   OH229800   3.993   4.731   6.720 -0.1125  0.4050 -0.3663
 9952TIP3    H129801   4.083   4.700   6.713  0.2972  1.8252 -1.7407
 9952TIP3    H229802   4.000   4.825   6.732 -1.4192  0.6455 -1.2283
 9953TIP3   OH229803   0.323   2.743   3.851  0.3465 -0.2828  0.1560
 9953TIP3    H129804   0.367   2.659   3.847  1.9936  0.5147  0.8958
 9953TIP3    H229805   0.369   2.798   3.787  0.5132  0.6006  1.0163
 9954TIP3   OH229806   0.985   2.243   6.382 -0.3994  0.4836 -0.5633
 9954TIP3    H129807   0.953   2.260   6.293  0.2168  1.7207 -0.5653
 9954TIP3    H229808   0.998   2.330   6.420 -0.6264 -0.0258  0.7366
 9955TIP3   OH229809   5.131   4.890   1.585  0.0207  0.5296  0.2145
 9955TIP3    H129810   5.089   4.806   1.599  1.1978  0.0722  1.0924
 9955TIP3    H229811   5.156   4.920   1.672  1.0662  1.0173 -0.2379
 9956TIP3   OH229812   0.915   3.710   2.121  0.1437  0.2116  0.4437
 9956TIP3    H129813   0.998   3.689   2.162 -0.1487 -1.3124  0.3214
 9956TIP3    H229814   0.850   3.663   2.172 -0.5639  0.7745  0.0855
 9957TIP3   OH229815   1.407   0.841   0.407  0.2638  0.6623  0.4977
 9957TIP3    H129816   1.424   0.784   0.483 -0.5833 -0.0003  0.2040
 9957TIP3    H229817   1.462   0.805   0.338 -0.4330  0.0349  0.2491
 9958TIP3   OH229818   1.120   2.806   4.133 -0.4020 -0.0503 -0.3146
 9958TIP3    H129819   1.159   2.830   4.217  1.2637 -1.5771 -0.5892
 9958TIP3    H229820   1.092   2.715   4.145 -0.7570 -0.0684 -1.2065
 9959TIP3   OH229821   2.342   1.479   6.419  0.2933  0.2004 -0.5133
 9959TIP3    H129822   2.288   1.541   6.469  0.2593  1.3804 -1.9501
 9959TIP3    H229823   2.390   1.534   6.357  2.2947 -0.9398 -0.0694
 9960TIP3   OH229824   7.059   3.710   4.901  0.0946  0.7251  0.0541
 9960TIP3    H129825   7.062   3.775   4.831 -0.2168 -0.7070 -1.3372
 9960TIP3    H229826   6.966   3.696   4.918  0.0607 -0.8971 -1.2009
 9961TIP3   OH229827   1.199   2.782   4.646 -0.8332  0.9789 -0.9287
 9961TIP3    H129828   1.145   2.861   4.652 -2.4909 -0.1307 -0.5302
 9961TIP3    H229829   1.138   2.715   4.615  0.3225 -0.3447 -0.3854
 9962TIP3   OH229830   7.965   6.746   0.854  0.2742 -0.4861  0.7162
 9962TIP3    H129831   7.903   6.813   0.884  0.6421  0.6924 -1.0036
 9962TIP3    H229832   7.918   6.697   0.788  0.7009 -0.5295  0.4406
 9963TIP3   OH229833   5.843   1.177   2.987 -0.1225  0.3984 -0.9778
 9963TIP3    H129834   5.930   1.198   3.022  0.4117 -1.5401 -1.0118
 9963TIP3    H229835   5.784   1.189   3.062  0.0755  2.1404 -1.0630
 9964TIP3   OH229836   2.319   0.924   6.700 -0.0585  0.4081  0.1621
 9964TIP3    H129837   2.305   0.939   6.607 -0.6831  1.1054  0.3523
 9964TIP3    H229838   2.376   0.847   6.705  0.0344  0.4110 -0.7896
 9965TIP3   OH229839   7.406   4.213   1.756  0.4744  0.0292 -0.3576
 9965TIP3    H129840   7.448   4.169   1.829 -0.4864  0.7360  0.6491
 9965TIP3    H229841   7.314   4.189   1.762  0.3291  0.3477 -1.1466
 9966TIP3   OH229842   4.593   5.074   3.901 -0.1442 -0.1338 -0.1134
 9966TIP3    H129843   4.610   5.160   3.939  0.1133 -0.1522 -0.1869
 9966TIP3    H229844   4.559   5.092   3.814 -0.8958 -0.0861  0.1840
 9967TIP3   OH229845   0.604   7.300   0.615  0.0089 -0.2228  0.9499
 9967TIP3    H129846   0.678   7.343   0.658  0.2871 -0.5388  0.7928
 9967TIP3    H229847   0.584   7.354   0.539  0.8059 -0.7352  0.3604
 9968TIP3   OH229848   3.347   5.043   0.673  0.3133  0.1793  0.4855
 9968TIP3    H129849   3.294   5.068   0.748  0.2939 -3.2049  1.8066
 9968TIP3    H229850   3.287   5.043   0.599 -0.6293 -0.0457  1.2350
 9969TIP3   OH229851   2.832   2.601   0.852  0.0446  0.2576  0.0521
 9969TIP3    H129852   2.866   2.656   0.922 -1.5857  0.2073  0.9493
 9969TIP3    H229853   2.900   2.534   0.839  0.5744  0.5175  1.2999
 9970TIP3   OH229854   8.142   3.273   0.857  0.1557  0.5882 -0.1135
 9970TIP3    H129855   8.098   3.354   0.881 -0.4866 -0.0414  0.8741
 9970TIP3    H229856   8.072   3.212   0.834  0.6726  0.8416 -2.7767
 9971TIP3   OH229857   0.868   0.891   1.455 -0.0834 -0.0845 -0.0774
 9971TIP3    H129858   0.929   0.940   1.400  0.9627 -2.1549 -0.8716
 9971TIP3    H229859   0.793   0.872   1.398 -0.0726 -0.1772 -0.0620
 9972TIP3   OH229860   0.158   3.112   1.979  0.8440  0.2830  0.2717
 9972TIP3    H129861   0.199   3.195   2.004 -0.7841  1.1037  0.3624
 9972TIP3    H229862   0.104   3.089   2.055  0.8658 -0.5966  0.0312
 9973TIP3   OH229863   6.227   2.170   4.795 -0.7327 -0.1615 -0.7374
 9973TIP3    H129864   6.152   2.205   4.748 -2.2849 -0.1473  1.5912
 9973TIP3    H229865   6.192   2.096   4.845  1.2288 -1.3593 -0.9955
 9974TIP3   OH229866   4.790   2.660   6.642  0.1925  0.0866 -0.3851
 9974TIP3    H129867   4.732   2.728   6.607 -0.5919  0.1110  0.8951
 9974TIP3    H229868   4.835   2.702   6.715 -0.2846 -0.7406  0.4015
 9975TIP3   OH229869   1.726   1.246   1.308 -0.1161  0.3574  0.6904
 9975TIP3    H129870   1.719   1.283   1.220  1.8763  0.6414  0.6086
 9975TIP3    H229871   1.781   1.169   1.297  1.2224  1.1030  1.8509
 9976TIP3   OH229872   3.958   7.007   3.724  0.1758  0.0066 -0.4220
 9976TIP3    H129873   3.945   6.970   3.637  1.9722 -0.1214 -0.6716
 9976TIP3    H229874   4.039   7.057   3.717  1.2132 -1.2673  1.5495
 9977TIP3   OH229875   3.479   4.899   5.880 -0.4131 -0.3005 -0.1880
 9977TIP3    H129876   3.548   4.925   5.941 -2.4102  1.2713  1.5513
 9977TIP3    H229877   3.436   4.826   5.923 -1.4949  0.4645  0.0623
 9978TIP3   OH229878   3.283   0.879   4.007 -0.3191  0.2784  0.2798
 9978TIP3    H129879   3.285   0.968   4.045 -2.2033  1.4145 -2.0003
 9978TIP3    H229880   3.227   0.888   3.930  0.5288 -2.6539 -0.7813
 9979TIP3   OH229881   7.683   0.711   3.882  0.0089  0.0667 -0.0068
 9979TIP3    H129882   7.760   0.683   3.932 -0.4764 -0.7175  0.3035
 9979TIP3    H229883   7.619   0.737   3.948 -0.4154 -0.3915 -0.2393
 9980TIP3   OH229884   7.364   2.330   2.720 -0.4295 -0.6117  0.0780
 9980TIP3    H129885   7.311   2.302   2.795 -0.6658 -1.0497 -0.2435
 9980TIP3    H229886   7.314   2.301   2.644 -2.0425  2.9867 -0.4457
 9981TIP3   OH229887   7.974   4.201   0.574 -0.2165 -0.2167  0.0137
 9981TIP3    H129888   7.931   4.280   0.606  0.2411  0.3973 -0.8436
 9981TIP3    H229889   7.906   4.133   0.579 -1.6762  0.9431 -2.2283
 9982TIP3   OH229890   4.936   1.363   0.891 -0.1090  0.2464 -0.3003
 9982TIP3    H129891   4.997   1.391   0.824  0.3639 -0.7397 -0.3038
 9982TIP3    H229892   4.971   1.398   0.973 -0.4230  1.0340 -0.4923
 9983TIP3   OH229893   4.600   5.815   0.999 -0.5078 -0.4696  0.5750
 9983TIP3    H129894   4.587   5.724   0.972 -0.7357 -0.7602  1.6196
 9983TIP3    H229895   4.612   5.862   0.917  2.1161 -1.8089  0.0860
 9984TIP3   OH229896   3.586   0.990   6.668 -0.2981  0.0859  0.4806
 9984TIP3    H129897   3.515   1.043   6.704 -0.3184  0.2221  0.2434
 9984TIP3    H229898   3.663   1.016   6.719 -0.2071  0.7041  0.0457
 9985TIP3   OH229899   4.201   7.578   1.149  0.0307 -0.4278 -0.3747
 9985TIP3    H129900   4.169   7.657   1.191  2.5380 -0.6995  2.3927
 9985TIP3    H229901   4.131   7.514   1.161 -0.3586  0.2489  1.1480
 9986TIP3   OH229902   5.774   7.532   5.326 -0.4176 -1.0978 -0.0477
 9986TIP3    H129903   5.703   7.503   5.269 -0.1790 -1.6014 -0.1000
 9986TIP3    H229904   5.811   7.451   5.361  1.8485 -1.1019 -2.1141
 9987TIP3   OH229905   3.227   0.730   2.855 -0.1890  0.5831  0.2151
 9987TIP3    H129906   3.280   0.653   2.836  0.4851  0.4848  2.2768
 9987TIP3    H229907   3.177   0.745   2.775  1.5109 -0.4794 -1.0970
 9988TIP3   OH229908   5.704   0.850   3.385  0.2383  0.3989 -0.0128
 9988TIP3    H129909   5.618   0.810   3.392  0.4445 -0.2516 -0.9439
 9988TIP3    H229910   5.765   0.776   3.386  0.6899  0.7412 -0.8104
 9989TIP3   OH229911   0.942   0.944   5.737 -0.0187  0.0015  0.0548
 9989TIP3    H129912   0.894   1.008   5.685 -1.0249 -1.1607 -0.5233
 9989TIP3    H229913   1.020   0.924   5.686 -0.2639 -0.0506 -0.2981
 9990TIP3   OH229914   6.978   1.809   4.119 -0.0440 -0.1138  0.1557
 9990TIP3    H129915   6.990   1.861   4.198 -1.4236  0.4122  0.0458
 9990TIP3    H229916   6.888   1.827   4.091 -0.3631 -2.0386 -0.2514
 9991TIP3   OH229917   6.405   0.607   4.591 -0.0402  0.3982 -0.6948
 9991TIP3    H129918   6.497   0.604   4.615 -0.2508 -0.6312  0.0654
 9991TIP3    H229919   6.371   0.685   4.636  0.0217 -0.3933  0.7856
 9992TIP3   OH229920   4.559   5.750   2.083  0.5427 -0.6094 -0.2841
 9992TIP3    H129921   4.641   5.748   2.132  0.2430  2.4431  0.5452
 9992TIP3    H229922   4.551   5.841   2.054 -2.4044 -0.8762 -0.5844
 9993TIP3   OH229923   3.189   3.943   1.571 -0.1683  0.1567 -0.5543
 9993TIP3    H129924   3.255   3.879   1.595  1.3550  1.5632 -0.8266
 9993TIP3    H229925   3.167   3.987   1.653 -0.4534 -0.0119 -0.5378
 9994TIP3   OH229926   3.247   5.386   4.823 -0.1508  0.2396  0.2187
 9994TIP3    H129927   3.288   5.334   4.754  0.6611  0.2130  0.7111
 9994TIP3    H229928   3.204   5.458   4.777  0.5322  0.3189 -0.3031
 9995TIP3   OH229929   5.651   7.525   2.955 -0.2422  0.1002 -0.1412
 9995TIP3    H129930   5.718   7.572   3.004 -1.4861  0.7248  1.0393
 9995TIP3    H229931   5.572   7.578   2.966 -0.7790 -0.1757 -2.1711
 9996TIP3   OH229932   6.263   5.920   4.108 -1.2100 -0.2900 -0.1558
 9996TIP3    H129933   6.280   5.827   4.093  2.2138  0.4418 -1.9025
 9996TIP3    H229934   6.335   5.949   4.163 -0.8967  1.6958 -1.4926
 9997TIP3   OH229935   2.351   5.290   0.855  0.3564 -0.7790 -0.0736
 9997TIP3    H129936   2.372   5.327   0.769  0.4727 -2.0123 -0.5904
 9997TIP3    H229937   2.267   5.247   0.843  0.9573 -2.0536  0.0669
 9998TIP3   OH229938   0.713   3.601   1.478 -0.2853  0.1295 -0.7332
 9998TIP3    H129939   0.649   3.572   1.412  1.5688 -2.1176 -1.7066
 9998TIP3    H229940   0.797   3.597   1.433  0.8377  0.4504  1.2189
 9999TIP3   OH229941   1.348   2.345   6.592 -0.2777  0.2995 -0.5476
 9999TIP3    H129942   1.376   2.334   6.683  1.0550  0.2858 -0.9453
 9999TIP3    H229943   1.313   2.434   6.588  0.7339  0.7164 -0.2814
10000TIP3   OH229944   2.838   7.625   5.867 -0.3108  0.3785  0.0954
10000TIP3    H129945   2.806   7.540   5.838 -0.4687  0.8798 -1.2798
10000TIP3    H229946   2.825   7.683   5.791 -0.5193  1.7026  1.0989
10001TIP3   OH229947   7.931   1.716   2.838 -0.4204 -0.0885  0.1237
10001TIP3    H129948   7.924   1.633   2.886  0.0591 -0.7985 -0.9901
10001TIP3    H229949   8.011   1.707   2.786  0.4310  1.6540  1.0432
10002TIP3   OH229950   2.326   0.435   2.411  0.3080 -0.5583 -0.5593
10002TIP3    H129951   2.283   0.503   2.359  1.1851 -0.4513 -1.1757
10002TIP3    H229952   2.292   0.447   2.499  1.3663  1.5072 -0.3679
10003TIP3   OH229953   6.849   3.928   3.094 -0.3374  0.2017 -0.3854
10003TIP3    H129954   6.776   3.909   3.153 -0.5866 -0.1602 -0.8121
10003TIP3    H229955   6.831   4.017   3.061  0.2814  0.7870  0.7860
10004TIP3   OH229956   2.254   2.233   5.671  0.1938  0.5096 -0.2059
10004TIP3    H129957   2.338   2.266   5.702  0.8393 -0.1109 -1.2238
10004TIP3    H229958   2.274   2.188   5.589 -1.1276  0.3130 -0.4572
10005TIP3   OH229959   3.935   5.227   1.374  0.2347 -0.2780 -0.2186
10005TIP3    H129960   3.926   5.194   1.284  1.1275 -1.2490  0.0241
10005TIP3    H229961   3.884   5.308   1.375  3.9446  2.4337 -2.9337
10006TIP3   OH229962   3.078   5.026   2.006 -0.2353  0.2525  0.3130
10006TIP3    H129963   3.092   4.970   2.083 -0.5248  0.5069  0.5493
10006TIP3    H229964   3.166   5.056   1.983 -0.2402  0.8575  1.0550
10007TIP3   OH229965   2.779   5.949   2.591 -0.8877 -0.4992 -0.2144
10007TIP3    H129966   2.704   5.939   2.532 -1.5519 -1.3551  0.7351
10007TIP3    H229967   2.740   5.970   2.676 -0.1598 -2.2028  0.5939
10008TIP3   OH229968   4.329   4.406   3.203  0.3150  0.5457  0.5816
10008TIP3    H129969   4.384   4.429   3.128  0.9490  1.1375  1.2167
10008TIP3    H229970   4.239   4.417   3.171  0.5396 -0.5365 -0.4946
10009TIP3   OH229971   7.486   1.923   3.910  0.5927  0.1743 -0.3258
10009TIP3    H129972   7.478   1.872   3.830  0.6946 -1.2483  0.5316
10009TIP3    H229973   7.546   1.873   3.965  0.6556  1.1963  0.5920
10010TIP3   OH229974   3.304   6.773   1.970 -0.2703  0.3092 -0.7530
10010TIP3    H129975   3.254   6.727   1.903 -0.4086 -0.1244 -0.3602
10010TIP3    H229976   3.343   6.847   1.924 -0.6961  0.2524 -1.2195
10011TIP3   OH229977   2.625   4.618   4.452 -0.2915  0.0489  0.0505
10011TIP3    H129978   2.715   4.649   4.441 -0.1938 -0.5559 -0.9000
10011TIP3    H229979   2.633   4.544   4.513  0.1596 -1.3535 -1.6367
10012TIP3   OH229980   8.327   3.566   6.145  0.0232 -0.7615  0.2389
10012TIP3    H129981   8.291   3.648   6.178  0.2266 -0.0817 -1.1404
10012TIP3    H229982   8.294   3.499   6.204 -2.1824  0.0179 -0.0381
10013TIP3   OH229983   0.519   4.559   4.043  0.1611 -0.1967 -0.3002
10013TIP3    H129984   0.579   4.633   4.050  0.0763  0.0720 -1.9288
10013TIP3    H229985   0.478   4.552   4.129  0.5644  1.3080  0.0360
10014TIP3   OH229986   4.482   4.873   1.990 -0.9743 -0.4870  0.0560
10014TIP3    H129987   4.500   4.946   2.050 -0.8208 -0.9941  0.6299
10014TIP3    H229988   4.518   4.796   2.034  0.2312 -0.6882 -1.2328
10015TIP3   OH229989   0.380   3.319   5.310 -0.2285 -0.8448 -0.0431
10015TIP3    H129990   0.333   3.358   5.236  0.7757 -1.3532 -0.9646
10015TIP3    H229991   0.472   3.339   5.294  0.1252 -1.9945  0.4386
10016TIP3   OH229992   6.670   0.554   6.706  0.2988  0.7341 -0.1129
10016TIP3    H129993   6.588   0.596   6.683  0.2228  0.3613 -0.5342
10016TIP3    H229994   6.705   0.521   6.623  0.7848  0.7359  0.0867
10017TIP3   OH229995   1.347   7.750   1.467 -0.1761  0.5909 -0.7400
10017TIP3    H129996   1.267   7.781   1.423 -0.9227  3.6530  2.3571
10017TIP3    H229997   1.316   7.716   1.551  1.6821  0.6053 -0.0094
10018TIP3   OH229998   1.116   0.259   5.708  0.1328  0.3319 -0.2990
10018TIP3    H129999   1.088   0.263   5.616  0.5022  1.7195 -0.3811
10018TIP3    H230000   1.058   0.321   5.753  1.2533  1.1895  0.0181
10019TIP3   OH230001   5.068   1.486   2.806 -0.3366  0.2272  0.4008
10019TIP3    H130002   5.147   1.505   2.858  0.9513 -1.5276 -0.8102
10019TIP3    H230003   5.102   1.452   2.723 -2.3819  0.7338 -0.6959
10020TIP3   OH230004   7.281   7.526   2.497 -0.5859 -0.2533  0.1000
10020TIP3    H130005   7.319   7.524   2.409 -0.9612  0.3130 -0.0772
10020TIP3    H230006   7.334   7.463   2.547 -0.2452 -0.4335 -0.4744
10021TIP3   OH230007   1.884   3.027   3.576 -0.1365  0.2966  0.2414
10021TIP3    H130008   1.882   2.932   3.589  1.9179 -0.1422 -1.8671
10021TIP3    H230009   1.793   3.051   3.564 -0.5713 -1.8370 -1.4865
10022TIP3   OH230010   0.433   0.512   3.468 -0.5161 -0.3383 -0.4593
10022TIP3    H130011   0.361   0.497   3.530 -1.0859 -0.2744 -1.0902
10022TIP3    H230012   0.482   0.586   3.505  0.8428 -2.0637  1.3765
10023TIP3   OH230013   5.986   5.464   1.522 -0.2167 -0.1341  0.2583
10023TIP3    H130014   6.044   5.402   1.477 -0.5753 -0.0833 -0.2830
10023TIP3    H230015   6.045   5.529   1.561  0.1660 -0.8175  0.8483
10024TIP3   OH230016   6.038   5.840   1.781 -0.0883  0.6004  0.2746
10024TIP3    H130017   6.041   5.835   1.876  3.1420  1.3077  0.3160
10024TIP3    H230018   6.070   5.755   1.750  0.6658  1.0051 -0.1022
10025TIP3   OH230019   3.460   4.032   0.466 -0.6070 -0.2398 -0.2587
10025TIP3    H130020   3.485   4.043   0.374  0.1068 -0.3565 -0.0884
10025TIP3    H230021   3.365   4.021   0.464 -0.7160  0.6370 -0.9016
10026TIP3   OH230022   7.508   5.566   5.430  0.4211 -0.2115  0.4693
10026TIP3    H130023   7.426   5.540   5.388  0.9208 -1.7807  0.4102
10026TIP3    H230024   7.530   5.649   5.389  0.6824 -1.4857 -2.1577
10027TIP3   OH230025   0.813   1.402   2.908 -0.0259  0.4146  0.4536
10027TIP3    H130026   0.804   1.323   2.855  0.0194  0.3620  0.5238
10027TIP3    H230027   0.865   1.462   2.854  0.1708  0.2958  0.5078
10028TIP3   OH230028   1.112   3.133   3.142  0.0113  0.1129 -0.3144
10028TIP3    H130029   1.033   3.124   3.088 -0.0815 -0.9709 -0.0130
10028TIP3    H230030   1.105   3.221   3.179 -1.0966  0.0109 -0.2389
10029TIP3   OH230031   4.949   4.370   3.040 -0.2175  0.2201 -0.1694
10029TIP3    H130032   4.904   4.332   2.964  0.1578  0.6877 -0.6285
10029TIP3    H230033   4.880   4.418   3.086 -1.0089 -1.9667  1.1114
10030TIP3   OH230034   3.627   2.773   4.225 -0.2364  0.3654 -0.2409
10030TIP3    H130035   3.633   2.789   4.319 -1.8899 -1.5272  0.2582
10030TIP3    H230036   3.674   2.846   4.185  1.2142  0.7971  2.0635
10031TIP3   OH230037   0.418   3.096   6.645  0.0145  0.3594 -0.0114
10031TIP3    H130038   0.460   3.122   6.727  0.8441 -0.0719 -0.2823
10031TIP3    H230039   0.402   3.002   6.656 -2.9910  0.8833  0.9816
10032TIP3   OH230040   0.797   2.021   4.842 -0.4421 -0.1374 -0.4168
10032TIP3    H130041   0.776   2.001   4.934  1.4544 -0.4197 -0.0089
10032TIP3    H230042   0.727   2.080   4.814 -1.8669 -1.1957  0.7572
10033TIP3   OH230043   7.169   6.408   0.444  0.0809 -0.1829  0.5736
10033TIP3    H130044   7.081   6.431   0.413  0.9569  1.9147 -0.6121
10033TIP3    H230045   7.165   6.420   0.539 -0.8434  0.2114  0.4997
10034TIP3   OH230046   1.667   4.645   5.866 -0.1273  1.1369 -0.5848
10034TIP3    H130047   1.606   4.695   5.812 -2.4011  1.9622  2.4826
10034TIP3    H230048   1.701   4.708   5.929 -1.3737 -0.6075  2.0087
10035TIP3   OH230049   0.132   6.350   1.420 -0.1084 -0.0764  0.1556
10035TIP3    H130050   0.157   6.295   1.494 -1.2830  0.2361  0.8224
10035TIP3    H230051   0.113   6.288   1.349  0.0552 -0.4386  0.4248
10036TIP3   OH230052   0.539   5.646   5.567  0.1263  0.6106  0.2091
10036TIP3    H130053   0.469   5.590   5.532 -0.1978  1.8374 -1.2512
10036TIP3    H230054   0.522   5.650   5.661 -0.2807 -1.1053  0.2447
10037TIP3   OH230055   6.564   4.696   1.043 -0.2905  0.0403  0.3869
10037TIP3    H130056   6.601   4.675   0.957 -1.8547 -0.9303 -0.0924
10037TIP3    H230057   6.483   4.742   1.023 -1.2561 -1.1949  1.2970
10038TIP3   OH230058   2.321   6.834   6.257 -0.7532 -0.2032 -0.1361
10038TIP3    H130059   2.372   6.767   6.304 -1.1970 -0.7444 -0.4188
10038TIP3    H230060   2.310   6.904   6.321  1.6014  0.5966 -0.4971
10039TIP3   OH230061   0.267   2.830   6.659  0.2127  0.1107  0.6225
10039TIP3    H130062   0.311   2.782   6.590  0.9059  3.3534 -1.4156
10039TIP3    H230063   0.176   2.835   6.631  0.8200  3.0867 -1.3540
10040TIP3   OH230064   5.751   1.818   0.921  0.7323 -0.3674 -0.5649
10040TIP3    H130065   5.798   1.734   0.923  1.9714  0.2771  1.7658
10040TIP3    H230066   5.710   1.824   1.007 -0.4765  0.8240 -1.2028
10041TIP3   OH230067   2.999   5.574   2.179 -0.7255 -0.2428 -0.5005
10041TIP3    H130068   2.922   5.518   2.170  0.1101 -1.7636  1.0591
10041TIP3    H230069   3.058   5.545   2.109 -1.6877  1.2447 -1.9954
10042TIP3   OH230070   6.928   1.801   5.042 -0.1534  0.4459  0.2679
10042TIP3    H130071   6.950   1.807   5.135 -0.5991  2.1524  0.2955
10042TIP3    H230072   6.936   1.891   5.010 -0.9962  0.0510 -1.1193
10043TIP3   OH230073   1.155   0.368   6.449  0.0886  0.1508  0.5179
10043TIP3    H130074   1.083   0.317   6.486  0.7441  0.9529  3.1293
10043TIP3    H230075   1.115   0.424   6.383 -0.9900 -2.1547 -0.9125
10044TIP3   OH230076   2.383   2.951   3.333 -0.2071  0.0477 -0.3376
10044TIP3    H130077   2.293   2.973   3.358  0.7403  0.8447  2.9480
10044TIP3    H230078   2.404   2.873   3.384  1.0958  0.1625 -0.6525
10045TIP3   OH230079   2.568   4.184   5.601  0.1194  0.2339 -0.1736
10045TIP3    H130080   2.649   4.133   5.598  0.3851  0.7032 -2.2206
10045TIP3    H230081   2.596   4.273   5.579 -0.6060  0.9565  1.6049
10046TIP3   OH230082   4.626   0.822   4.412 -0.1995  0.0205  0.0821
10046TIP3    H130083   4.636   0.886   4.483  0.9786 -0.2342  0.1544
10046TIP3    H230084   4.609   0.739   4.457 -0.3292  0.0200  0.0327
10047TIP3   OH230085   6.883   6.987   1.495 -0.0768  0.1110 -0.1627
10047TIP3    H130086   6.957   7.000   1.554 -1.2949  1.7428  1.1510
10047TIP3    H230087   6.833   7.069   1.501 -1.9424 -0.8765 -1.0360
10048TIP3   OH230088   5.049   6.512   6.517 -0.3198 -1.0018  0.3427
10048TIP3    H130089   5.108   6.466   6.458 -0.6558  0.3336 -1.0777
10048TIP3    H230090   4.979   6.449   6.535 -1.5053 -0.6983 -2.6511
10049TIP3   OH230091   2.194   6.137   0.376  0.3620 -0.5321  0.8589
10049TIP3    H130092   2.155   6.130   0.288 -0.5856  0.4903  1.1773
10049TIP3    H230093   2.185   6.230   0.398  2.2667 -0.4139  1.2972
10050TIP3   OH230094   6.163   7.482   3.243  0.1183 -0.2774  0.0242
10050TIP3    H130095   6.232   7.513   3.302  0.0423  0.0101 -0.0376
10050TIP3    H230096   6.211   7.441   3.170  0.2010 -1.4270  0.7074
10051TIP3   OH230097   2.750   1.604   4.944  1.0710  0.0702  0.3268
10051TIP3    H130098   2.723   1.513   4.935  2.4183 -0.3365  0.1254
10051TIP3    H230099   2.728   1.644   4.859  0.4748 -0.0522  0.4167
10052TIP3   OH230100   2.641   7.074   6.448  0.3719  0.3094  0.2164
10052TIP3    H130101   2.591   7.019   6.509  0.8061  0.5036  0.7641
10052TIP3    H230102   2.678   7.013   6.385 -0.5785  0.1673 -0.2187
10053TIP3   OH230103   7.921   4.681   3.503 -0.2456 -0.0329  0.3509
10053TIP3    H130104   7.906   4.726   3.586  0.0234 -1.6018  1.3034
10053TIP3    H230105   7.986   4.614   3.524 -0.9153 -1.1108 -0.8906
10054TIP3   OH230106   7.640   4.352   1.697  0.1381 -0.3014  0.6824
10054TIP3    H130107   7.577   4.404   1.648  0.8961 -0.1879 -0.1793
10054TIP3    H230108   7.587   4.282   1.736 -0.4550 -0.4780 -0.4073
10055TIP3   OH230109   7.507   0.068   2.048  0.2912 -0.2443 -0.2022
10055TIP3    H130110   7.583   0.123   2.030  0.1820 -0.2736 -0.7804
10055TIP3    H230111   7.479   0.037   1.962 -0.0404 -0.6829  0.0584
10056TIP3   OH230112   2.384   0.322   3.495 -0.1654 -0.1431 -0.1487
10056TIP3    H130113   2.382   0.359   3.407 -0.9269  0.5081  0.1267
10056TIP3    H230114   2.476   0.321   3.520  0.1294 -1.0091 -1.2220
10057TIP3   OH230115   6.651   7.189   3.793  0.1779  0.3783  0.0702
10057TIP3    H130116   6.626   7.197   3.701 -0.5244 -0.0822  0.2120
10057TIP3    H230117   6.578   7.228   3.841  0.7869  1.1081  0.4212
10058TIP3   OH230118   2.349   4.003   6.444  0.3570  0.1330  0.2983
10058TIP3    H130119   2.303   3.942   6.502  0.0369 -0.4582 -0.5536
10058TIP3    H230120   2.291   4.079   6.438 -0.2106 -0.3263 -0.2230
10059TIP3   OH230121   5.320   2.488   5.307  0.2650  0.4346  0.3730
10059TIP3    H130122   5.232   2.526   5.317 -0.1165 -0.7488  2.0458
10059TIP3    H230123   5.305   2.393   5.313  1.4757  0.1214 -1.0920
10060TIP3   OH230124   1.622   1.405   2.179 -0.6354  0.1313  0.1151
10060TIP3    H130125   1.637   1.455   2.098  0.5648  0.0477  0.2652
10060TIP3    H230126   1.707   1.405   2.222 -0.8076 -1.4082  0.4932
10061TIP3   OH230127   5.089   0.489   5.938 -0.1475  0.3454 -0.0396
10061TIP3    H130128   5.137   0.518   5.860 -0.8296 -0.8009 -0.9215
10061TIP3    H230129   5.043   0.410   5.910 -1.6155  0.7435  1.1066
10062TIP3   OH230130   2.351   0.605   3.829 -0.4538 -0.0845 -0.5664
10062TIP3    H130131   2.263   0.635   3.806 -0.6233 -1.1757 -1.4049
10062TIP3    H230132   2.337   0.520   3.871  0.2313 -0.4902 -1.1413
10063TIP3   OH230133   5.645   7.257   3.761  0.0760 -0.3396 -0.3349
10063TIP3    H130134   5.653   7.216   3.847 -2.0127  0.0767  0.1077
10063TIP3    H230135   5.622   7.186   3.702 -2.2881 -0.0953  0.2006
10064TIP3   OH230136   2.586   1.122   3.181  0.2044 -0.6386 -0.0086
10064TIP3    H130137   2.647   1.051   3.198 -0.5299 -2.4694 -3.8035
10064TIP3    H230138   2.502   1.079   3.165 -0.8860  1.3401  0.0067
10065TIP3   OH230139   5.569   7.156   1.886 -0.4949 -0.0337 -0.1353
10065TIP3    H130140   5.558   7.206   1.966 -0.1813 -0.5769  0.2543
10065TIP3    H230141   5.621   7.212   1.829  0.5002 -0.2177  0.5790
10066TIP3   OH230142   1.034   0.689   0.083 -0.5031 -0.4123 -0.2991
10066TIP3    H130143   1.011   0.740   0.160  1.5322 -0.5761  0.4884
10066TIP3    H230144   1.106   0.738   0.042 -1.7582 -0.1465 -2.3278
10067TIP3   OH230145   2.096   7.451   0.277 -0.2657 -0.7933 -0.1603
10067TIP3    H130146   2.086   7.477   0.369  0.9678  0.5368 -0.3732
10067TIP3    H230147   2.095   7.356   0.279 -1.2361 -0.7760  1.1156
10068TIP3   OH230148   2.658   0.196   5.542 -0.1219 -0.0057 -0.4867
10068TIP3    H130149   2.717   0.256   5.497 -0.5164  1.2737  0.6448
10068TIP3    H230150   2.655   0.118   5.486  0.9115  0.7703 -1.6529
10069TIP3   OH230151   5.932   1.639   5.336  0.5518 -0.3975 -0.4699
10069TIP3    H130152   6.008   1.636   5.277 -0.1598 -2.6969 -1.3717
10069TIP3    H230153   5.929   1.552   5.375 -0.3166  0.3993  1.3119
10070TIP3   OH230154   8.175   4.690   6.348 -0.1174  0.0395  0.9183
10070TIP3    H130155   8.267   4.701   6.324  0.1507 -1.9991  0.8770
10070TIP3    H230156   8.174   4.617   6.410 -1.9423 -1.5930 -0.9018
10071TIP3   OH230157   0.607   2.651   6.782  0.4915  0.2943  0.2386
10071TIP3    H130158   0.556   2.671   6.703  2.0694 -0.6043 -1.0936
10071TIP3    H230159   0.553   2.682   6.854 -2.3899 -1.4645 -0.9590
10072TIP3   OH230160   6.291   3.653   0.734 -0.0655  0.2637 -0.4034
10072TIP3    H130161   6.387   3.649   0.731 -0.0218  0.3290  0.7597
10072TIP3    H230162   6.270   3.746   0.726  0.1043  0.5767  2.1411
10073TIP3   OH230163   7.167   2.555   3.034  0.3367 -0.1137 -0.7624
10073TIP3    H130164   7.171   2.528   3.126 -0.2774  0.8260 -0.4453
10073TIP3    H230165   7.241   2.614   3.022 -0.7064  1.3589 -0.3000
10074TIP3   OH230166   4.435   4.395   1.825  0.2368  0.4139 -0.1099
10074TIP3    H130167   4.486   4.317   1.801  2.5556  2.3383 -1.9005
10074TIP3    H230168   4.470   4.421   1.910  0.1799  0.0977  0.0117
10075TIP3   OH230169   4.819   3.400   5.777  0.6188 -0.1971  0.1169
10075TIP3    H130170   4.865   3.401   5.693  0.9186 -1.8151  0.2203
10075TIP3    H230171   4.773   3.483   5.780  3.6184  1.6113  0.0727
10076TIP3   OH230172   6.611   2.085   5.881  0.4268  0.0475 -0.5886
10076TIP3    H130173   6.523   2.106   5.848  0.1872  3.4639  1.7252
10076TIP3    H230174   6.596   2.052   5.969  1.4194 -1.1161 -0.8401
10077TIP3   OH230175   1.180   0.012   2.762  1.0394  0.0631  0.5184
10077TIP3    H130176   1.227  -0.068   2.740  2.9804  1.4155 -0.5241
10077TIP3    H230177   1.248   0.073   2.792 -0.0528  1.9703 -0.6592
10078TIP3   OH230178   4.345   3.685   6.623  0.7180 -0.5842 -0.9949
10078TIP3    H130179   4.282   3.752   6.594 -0.3068 -0.9899  0.2058
10078TIP3    H230180   4.297   3.602   6.615  1.6781 -1.0964 -1.6363
10079TIP3   OH230181   1.799   0.005   4.681 -0.0120 -0.0424  0.3848
10079TIP3    H130182   1.835   0.012   4.770  1.3289 -2.1060  0.0938
10079TIP3    H230183   1.864   0.048   4.626  0.4081 -0.8671  0.2040
10080TIP3   OH230184   3.621   5.744   0.367 -0.0442 -0.0335  0.2105
10080TIP3    H130185   3.608   5.722   0.275 -0.5903  0.7823  0.0755
10080TIP3    H230186   3.638   5.839   0.366 -0.2747  0.0198  0.9661
10081TIP3   OH230187   2.884   1.662   0.441  0.0480  0.4878  0.0367
10081TIP3    H130188   2.802   1.703   0.415 -0.0833  0.5886  0.6022
10081TIP3    H230189   2.945   1.682   0.370 -0.6052 -0.2106 -0.7440
10082TIP3   OH230190   5.304   0.163   6.073  0.2782  0.7262  0.0598
10082TIP3    H130191   5.392   0.197   6.093  0.8394 -0.8593  0.4587
10082TIP3    H230192   5.304   0.153   5.977  1.0544 -0.5269  0.1648
10083TIP3   OH230193   7.774   3.560   1.696  0.1695 -0.4234 -0.3353
10083TIP3    H130194   7.817   3.486   1.738  0.9510 -0.4020 -1.0661
10083TIP3    H230195   7.844   3.625   1.685  0.4664 -1.1335 -3.3133
10084TIP3   OH230196   2.129   2.070   2.472  0.7131  0.4224 -0.2464
10084TIP3    H130197   2.128   2.094   2.565  1.7992  1.0750 -0.3923
10084TIP3    H230198   2.074   2.136   2.430  0.0622  0.0137 -0.0507
10085TIP3   OH230199   1.667   4.102   2.017  0.0053 -0.3488 -0.0377
10085TIP3    H130200   1.598   4.069   2.075  1.0676 -0.8476  0.9871
10085TIP3    H230201   1.636   4.081   1.929 -1.1025 -0.6467  0.4032
10086TIP3   OH230202   2.383   1.748   1.761  0.2253 -0.0834  0.2083
10086TIP3    H130203   2.338   1.755   1.678 -0.2416 -2.1823  0.2198
10086TIP3    H230204   2.476   1.752   1.738  0.1029  1.4703 -0.1283
10087TIP3   OH230205   8.267   5.531   0.094  0.0427 -0.6260  0.1100
10087TIP3    H130206   8.317   5.611   0.077  0.5849 -1.1452 -0.7817
10087TIP3    H230207   8.301   5.467   0.031 -1.4932 -1.1045 -0.2694
10088TIP3   OH230208   5.013   3.684   1.913 -0.1425 -0.1996 -0.2508
10088TIP3    H130209   4.932   3.709   1.869 -1.3740 -1.6277  1.0936
10088TIP3    H230210   5.039   3.603   1.870 -0.4781 -0.7420  0.5453
10089TIP3   OH230211   6.891   1.477   5.839 -0.2962 -0.4196  0.0613
10089TIP3    H130212   6.959   1.425   5.881 -0.5067 -0.4304  0.3913
10089TIP3    H230213   6.828   1.413   5.806  0.5316 -0.4886 -1.4646
10090TIP3   OH230214   0.174   3.893   6.319 -0.1904  0.3737 -0.0871
10090TIP3    H130215   0.242   3.922   6.380  1.3000 -1.6023 -0.6772
10090TIP3    H230216   0.156   3.970   6.264  0.5039  1.3514  1.0086
10091TIP3   OH230217   4.197   4.579   2.339 -0.1423  0.3000  0.7021
10091TIP3    H130218   4.195   4.558   2.245  0.0757  1.0365  0.5309
10091TIP3    H230219   4.105   4.584   2.364 -0.2112  1.0318  0.3149
10092TIP3   OH230220   6.546   1.936   2.422 -0.3008 -0.3267  0.8492
10092TIP3    H130221   6.545   1.888   2.339  2.6999 -0.4858  0.8036
10092TIP3    H230222   6.639   1.946   2.443 -0.9456  0.2956  3.8752
10093TIP3   OH230223   1.269   0.458   4.844 -0.6540 -0.4290 -0.2355
10093TIP3    H130224   1.270   0.545   4.883 -0.9925 -0.8782  0.7968
10093TIP3    H230225   1.200   0.411   4.890 -0.7060 -1.1418 -1.0167
10094TIP3   OH230226   7.613   4.825   2.700  0.1326  0.1103  0.2160
10094TIP3    H130227   7.683   4.766   2.669  0.9308 -1.2476  4.0277
10094TIP3    H230228   7.542   4.766   2.725 -0.7130  1.1508  0.3109
10095TIP3   OH230229   4.998   3.520   5.205  0.6062  0.2358 -0.6216
10095TIP3    H130230   5.020   3.480   5.289  1.5921  0.9584 -0.5189
10095TIP3    H230231   4.911   3.556   5.219  1.2480  1.4548  0.5294
10096TIP3   OH230232   3.987   5.409   0.392 -0.1859 -0.1436  0.0974
10096TIP3    H130233   4.054   5.425   0.458 -0.6876  1.9509  0.1804
10096TIP3    H230234   3.910   5.455   0.425 -1.5217 -1.9652 -0.3004
10097TIP3   OH230235   2.025   0.624   4.647 -0.4692 -0.6144  0.4993
10097TIP3    H130236   1.984   0.670   4.720 -2.3417  0.4584 -1.1309
10097TIP3    H230237   2.023   0.532   4.673 -1.5633 -0.3072  1.5877
10098TIP3   OH230238   6.044   1.048   3.744 -0.1765 -0.9651  0.1423
10098TIP3    H130239   6.042   1.039   3.648  1.8731  2.2797 -0.3807
10098TIP3    H230240   6.125   1.004   3.770  0.7468  0.4945 -0.0946
10099TIP3   OH230241   7.441   0.816   2.907  0.7125 -0.0016  0.1244
10099TIP3    H130242   7.438   0.721   2.892  0.8155 -0.2563  1.5784
10099TIP3    H230243   7.358   0.836   2.950  0.8755  0.4985  0.2113
10100TIP3   OH230244   7.967   0.013   0.790 -0.2899 -0.0871 -0.7045
10100TIP3    H130245   7.952   0.105   0.810 -0.0187 -0.3579  0.8200
10100TIP3    H230246   8.002  -0.025   0.871  0.4062 -1.3496 -1.5502
10101TIP3   OH230247   1.133   6.361   0.893  0.4667  0.0080 -0.0799
10101TIP3    H130248   1.037   6.367   0.893  0.5357  1.6245 -0.8234
10101TIP3    H230249   1.155   6.333   0.982 -0.6715  0.1508  0.2699
10102TIP3   OH230250   4.391   7.833   2.313 -0.1251 -0.3257  0.4017
10102TIP3    H130251   4.347   7.784   2.244 -0.3743 -0.6434  0.7788
10102TIP3    H230252   4.319   7.868   2.367  0.0677 -0.2276  0.5971
10103TIP3   OH230253   3.087   0.393   4.376 -0.2132 -0.6095 -0.0824
10103TIP3    H130254   3.026   0.322   4.359 -0.7619 -0.5077  1.2670
10103TIP3    H230255   3.072   0.415   4.469  3.1992 -1.8550  0.8947
10104TIP3   OH230256   1.072   4.613   2.878 -0.0493  0.1567 -0.3359
10104TIP3    H130257   1.114   4.549   2.936  0.3010 -0.0703 -0.8268
10104TIP3    H230258   1.098   4.585   2.790 -0.3843  0.6299 -0.5867
10105TIP3   OH230259   3.930   1.167   3.840  0.2200  0.0601  0.2064
10105TIP3    H130260   4.009   1.114   3.833 -1.0044 -1.8443 -0.1732
10105TIP3    H230261   3.918   1.180   3.935  0.1266 -1.0605  0.3595
10106TIP3   OH230262   1.924   7.317   3.126  0.5743 -0.0487  0.2394
10106TIP3    H130263   1.914   7.291   3.034 -0.3856 -1.4430  0.7146
10106TIP3    H230264   1.957   7.407   3.122  0.0024  0.1124 -1.4644
10107TIP3   OH230265   2.862   3.337   5.494 -0.7590 -0.0769 -0.2096
10107TIP3    H130266   2.955   3.357   5.490 -0.7680  0.8455  2.4799
10107TIP3    H230267   2.821   3.403   5.438 -0.1603  3.3136  2.9673
10108TIP3   OH230268   2.364   0.926   1.029  0.3276 -0.2024  0.1700
10108TIP3    H130269   2.446   0.910   0.981 -0.4807  0.3983 -1.5056
10108TIP3    H230270   2.360   0.856   1.093  0.9909 -1.6876 -1.3324
10109TIP3   OH230271   0.676   4.786   6.274 -0.3257  0.0426 -0.5150
10109TIP3    H130272   0.690   4.741   6.191 -0.4103  1.6229 -1.4342
10109TIP3    H230273   0.737   4.745   6.335 -1.0065 -1.8736 -1.0536
10110TIP3   OH230274   2.465   3.916   4.014  0.6585 -0.3979 -0.6335
10110TIP3    H130275   2.526   3.853   4.052  0.7390 -0.4892 -0.9106
10110TIP3    H230276   2.434   3.968   4.088  1.8879  0.3534 -0.6147
10111TIP3   OH230277   3.768   6.452   5.338 -0.9163 -0.4278  1.1838
10111TIP3    H130278   3.707   6.403   5.283 -0.9835 -1.1115  1.8460
10111TIP3    H230279   3.715   6.523   5.374 -0.3105  1.5349 -1.4845
10112TIP3   OH230280   7.178   7.228   5.674  0.4198 -0.0756 -0.2266
10112TIP3    H130281   7.166   7.281   5.595 -0.1106  0.8721  0.4703
10112TIP3    H230282   7.270   7.201   5.671  0.9552  1.6484 -0.1487
10113TIP3   OH230283   2.355   0.974   5.613  0.3579  0.2557 -0.0982
10113TIP3    H130284   2.445   0.944   5.597  0.4291  0.3788  0.0634
10113TIP3    H230285   2.366   1.052   5.667  0.1100 -0.3258  0.8137
10114TIP3   OH230286   2.862   0.502   3.596  0.0187 -0.4234 -0.3220
10114TIP3    H130287   2.816   0.576   3.636  0.5057 -0.5941  0.6022
10114TIP3    H230288   2.951   0.508   3.631  0.5084 -0.5270 -1.4938
10115TIP3   OH230289   0.753   6.115   5.091  0.4773 -0.0823  0.3246
10115TIP3    H130290   0.683   6.171   5.125 -0.0711  0.9765 -2.3371
10115TIP3    H230291   0.833   6.155   5.125 -0.0385  0.6361  0.7393
10116TIP3   OH230292   4.948   3.775   4.538  0.1350  0.5663 -0.3095
10116TIP3    H130293   4.934   3.680   4.546  1.4866  0.3847  0.0617
10116TIP3    H230294   4.890   3.813   4.604  0.1429 -0.0536  0.0655
10117TIP3   OH230295   5.846   5.031   0.215  0.1507 -0.5485  0.0897
10117TIP3    H130296   5.821   5.120   0.243 -0.4665 -1.0397  1.1669
10117TIP3    H230297   5.786   4.974   0.262 -0.5063 -1.4836 -1.8127
10118TIP3   OH230298   5.202   6.614   3.630 -0.3557  0.5405  0.3418
10118TIP3    H130299   5.181   6.602   3.722 -0.5814  2.0486  0.5108
10118TIP3    H230300   5.161   6.697   3.606  0.9930  0.9577 -0.6993
10119TIP3   OH230301   8.034   7.075   0.992  0.1462  0.2579  0.3008
10119TIP3    H130302   8.127   7.056   0.986 -0.2589 -1.6223 -0.9918
10119TIP3    H230303   8.008   7.096   0.902 -0.9721 -0.9478  0.3044
10120TIP3   OH230304   4.034   5.949   2.378 -0.0390 -0.6333  0.4594
10120TIP3    H130305   3.997   5.929   2.464 -0.4920  0.6543  0.5904
10120TIP3    H230306   4.030   6.044   2.373  0.2735 -0.6817 -0.8710
10121TIP3   OH230307   0.594   0.940   5.722  0.6209  0.6429 -0.3037
10121TIP3    H130308   0.596   0.845   5.713  2.0872  0.5525  0.7579
10121TIP3    H230309   0.510   0.966   5.683 -0.6141 -1.2372  0.9658
10122TIP3   OH230310   6.250   6.549   0.265  0.4263 -0.2825 -0.2734
10122TIP3    H130311   6.170   6.601   0.273  0.4319 -0.4121  0.8129
10122TIP3    H230312   6.237   6.496   0.186  0.5676  1.5727 -1.5807
10123TIP3   OH230313   1.376   6.281   3.691 -0.6521 -0.1045  0.2379
10123TIP3    H130314   1.340   6.250   3.774  0.9461  0.3079  1.1304
10123TIP3    H230315   1.355   6.374   3.689 -1.8287 -0.3620 -0.4745
10124TIP3   OH230316   3.508   3.181   3.953 -0.7050  0.4056 -0.3166
10124TIP3    H130317   3.550   3.167   4.038  0.8341 -0.9067 -1.2252
10124TIP3    H230318   3.415   3.164   3.969 -0.5758  1.0385  1.2687
10125TIP3   OH230319   3.372   6.052   0.419  0.3874  0.0521  0.2698
10125TIP3    H130320   3.389   5.958   0.410  2.4271  0.4229 -0.2429
10125TIP3    H230321   3.454   6.094   0.392 -1.2868  2.1077 -2.1827
10126TIP3   OH230322   4.723   4.265   2.728 -0.5059 -0.0699  0.2971
10126TIP3    H130323   4.771   4.182   2.724  0.5919  0.4775  1.3760
10126TIP3    H230324   4.660   4.260   2.656 -0.9930 -2.1598  0.7981
10127TIP3   OH230325   5.203   3.178   0.035 -0.9435 -0.4785 -0.2178
10127TIP3    H130326   5.249   3.259   0.014  0.1004 -1.0778 -0.3345
10127TIP3    H230327   5.112   3.204   0.045 -0.5314  0.8281  0.4099
10128TIP3   OH230328   1.488   3.214   6.418 -0.1123  0.1092  0.0224
10128TIP3    H130329   1.539   3.135   6.436 -0.8893 -0.2674  0.6514
10128TIP3    H230330   1.414   3.184   6.365 -0.4335  0.3961  0.2990
10129TIP3   OH230331   2.288   0.988   3.829  0.4979 -0.7571 -0.0642
10129TIP3    H130332   2.282   1.069   3.779 -0.5967 -1.4514 -1.0942
10129TIP3    H230333   2.376   0.955   3.811  0.3822 -0.6099 -0.9081
10130TIP3   OH230334   8.062   1.148   1.497 -0.1612 -0.0255 -0.3324
10130TIP3    H130335   7.972   1.150   1.531 -0.1731 -1.6966 -0.1716
10130TIP3    H230336   8.053   1.169   1.404 -0.8361 -0.9588 -0.4911
10131TIP3   OH230337   3.698   0.766   2.026  0.2359  0.4055  0.0895
10131TIP3    H130338   3.710   0.768   2.121  0.1092  0.1579  0.1111
10131TIP3    H230339   3.667   0.677   2.008  1.4331  0.0400 -0.3194
10132TIP3   OH230340   6.345   3.917   0.668  0.5162 -0.4378 -0.4537
10132TIP3    H130341   6.429   3.942   0.630  0.8513  0.0870  0.5936
10132TIP3    H230342   6.280   3.951   0.607  1.0119  1.3096 -0.0679
10133TIP3   OH230343   2.892   3.057   4.443  0.5353  0.2656  0.0894
10133TIP3    H130344   2.849   3.029   4.524  0.9779  0.2639  0.3287
10133TIP3    H230345   2.984   3.066   4.467  0.4691  1.5154 -0.0858
10134TIP3   OH230346   7.771   3.604   0.199  0.1560  0.0559 -0.4238
10134TIP3    H130347   7.855   3.632   0.236 -0.0923  0.1184  0.1135
10134TIP3    H230348   7.712   3.605   0.274 -0.3711  0.2108 -0.8379
10135TIP3   OH230349   3.899   7.399   0.481  0.5531  0.3743  0.2851
10135TIP3    H130350   3.840   7.333   0.446  0.5438  1.5860 -2.1470
10135TIP3    H230351   3.904   7.379   0.575 -0.8781 -1.9065 -0.0538
10136TIP3   OH230352   1.006   2.359   1.345 -0.0858 -0.2003 -0.9718
10136TIP3    H130353   0.948   2.405   1.406  0.1065 -0.4412 -0.6016
10136TIP3    H230354   1.055   2.299   1.401 -0.1130 -0.6296 -1.4112
10137TIP3   OH230355   5.088   4.885   5.898 -0.0765  0.3585 -0.3052
10137TIP3    H130356   5.163   4.942   5.884 -0.7995  1.3662 -0.2272
10137TIP3    H230357   5.124   4.806   5.937  1.6888 -1.2859 -4.6333
10138TIP3   OH230358   6.135   5.586   0.098  0.3100 -0.0358  0.1738
10138TIP3    H130359   6.164   5.554   0.184  1.5262  1.0791  0.2103
10138TIP3    H230360   6.204   5.558   0.038 -0.5218 -0.7890 -0.4583
10139TIP3   OH230361   7.456   2.619   6.234 -0.5178 -0.1737 -0.3373
10139TIP3    H130362   7.524   2.603   6.169  0.0417  0.9397 -0.0315
10139TIP3    H230363   7.451   2.537   6.284  0.9544 -0.0899 -0.0292
10140TIP3   OH230364   5.098   4.673   3.504 -0.4841 -0.3158  0.3781
10140TIP3    H130365   5.057   4.605   3.450 -2.4546  0.7545  0.4319
10140TIP3    H230366   5.082   4.645   3.594 -0.9772  0.0166  0.3984
10141TIP3   OH230367   7.224   3.846   1.920 -0.2618  0.0075 -0.0659
10141TIP3    H130368   7.219   3.815   1.829 -0.2405  1.0548 -0.4330
10141TIP3    H230369   7.294   3.795   1.959  0.6767  0.5105 -1.0360
10142TIP3   OH230370   2.595   7.249   4.669  0.7788 -0.4573 -0.3189
10142TIP3    H130371   2.622   7.252   4.578 -0.0487  1.2408 -0.5340
10142TIP3    H230372   2.668   7.288   4.717  0.6564 -0.1350 -0.3960
10143TIP3   OH230373   1.446   2.185   6.179  0.2124  0.2972 -0.1699
10143TIP3    H130374   1.455   2.109   6.236  2.8606  0.5351 -0.1657
10143TIP3    H230375   1.371   2.233   6.215  0.3197 -0.7956  1.6190
10144TIP3   OH230376   7.628   2.515   1.693 -0.0145 -0.3551 -0.4497
10144TIP3    H130377   7.538   2.537   1.714 -0.3626 -1.5972 -0.5334
10144TIP3    H230378   7.626   2.495   1.599  0.3506 -0.3392 -0.4616
10145TIP3   OH230379   2.550   1.267   0.683 -0.0706  0.5857 -0.4533
10145TIP3    H130380   2.514   1.203   0.622 -0.4577 -0.6717  1.0459
10145TIP3    H230381   2.593   1.332   0.626 -0.2835 -0.5963 -2.0405
10146TIP3   OH230382   5.339   3.751   6.385  0.1431  0.3848  0.3944
10146TIP3    H130383   5.279   3.802   6.439  0.9789  2.4108 -0.4817
10146TIP3    H230384   5.282   3.707   6.321 -0.5210  1.4035  0.2549
10147TIP3   OH230385   6.173   0.166   4.023 -0.1994  0.2132 -0.0423
10147TIP3    H130386   6.171   0.241   4.083  0.0296  2.0774 -2.2550
10147TIP3    H230387   6.253   0.179   3.972 -0.9136 -0.7465 -1.4339
10148TIP3   OH230388   5.158   6.511   4.508  0.0613  0.3026 -0.6424
10148TIP3    H130389   5.144   6.491   4.415  2.1124  1.3383 -1.2163
10148TIP3    H230390   5.238   6.464   4.531  0.1840  0.9456  0.3036
10149TIP3   OH230391   3.964  -0.010   5.482 -0.3609 -0.0988 -0.7221
10149TIP3    H130392   3.871   0.009   5.494 -0.2793  1.0325 -1.7100
10149TIP3    H230393   3.982   0.014   5.391  1.1509  0.8774 -0.2011
10150TIP3   OH230394   7.312   6.178   3.507  0.1868 -0.0563 -0.7892
10150TIP3    H130395   7.396   6.178   3.553  0.4182 -0.7941 -1.2052
10150TIP3    H230396   7.316   6.255   3.451  0.4384  0.1059 -0.5546
10151TIP3   OH230397   4.157   0.771   0.963 -0.2322  0.0056  0.2769
10151TIP3    H130398   4.243   0.737   0.939 -0.2474  0.0361  0.1791
10151TIP3    H230399   4.159   0.863   0.936 -0.0524  0.1880  0.8868
10152TIP3   OH230400   0.775   4.380   0.911 -0.9143  0.5396  0.1818
10152TIP3    H130401   0.737   4.398   0.997  0.4449  1.7748  0.5647
10152TIP3    H230402   0.807   4.290   0.917 -0.5254  0.7346  1.0924
10153TIP3   OH230403   6.356   7.259   6.251  0.3038 -0.0504 -0.4754
10153TIP3    H130404   6.288   7.246   6.185 -1.3908  0.8442  1.0213
10153TIP3    H230405   6.346   7.185   6.311  1.5067 -0.5867 -0.9066
10154TIP3   OH230406   1.724   3.689   0.434  0.1208 -0.6348 -0.0206
10154TIP3    H130407   1.690   3.711   0.348  0.1150 -2.5989 -0.5752
10154TIP3    H230408   1.810   3.730   0.439 -0.4863  0.7155 -0.3498
10155TIP3   OH230409   0.630   4.495   0.711  0.3735  0.1102 -0.1449
10155TIP3    H130410   0.701   4.467   0.769  0.9216 -2.2337 -1.8181
10155TIP3    H230411   0.550   4.469   0.758  0.8246 -2.3650 -0.6187
10156TIP3   OH230412   2.512   1.814   0.630  0.7586 -0.4183 -0.5285
10156TIP3    H130413   2.502   1.718   0.628  0.5683 -0.4471  0.7329
10156TIP3    H230414   2.423   1.847   0.629  0.7995 -0.2904 -0.1580
10157TIP3   OH230415   2.635   4.904   0.333  0.1933 -0.2079 -0.4799
10157TIP3    H130416   2.639   4.828   0.275  0.9370  0.0216 -0.7345
10157TIP3    H230417   2.542   4.914   0.352  0.1228 -1.5003 -0.0151
10158TIP3   OH230418   0.030   3.003   3.257  0.7988 -0.2738 -0.6975
10158TIP3    H130419   0.049   3.090   3.293  0.6080 -0.8376  0.8758
10158TIP3    H230420  -0.054   3.013   3.213  0.1198  0.0884  0.6004
10159TIP3   OH230421   1.754   3.213   5.241  0.3064  0.1621 -0.3422
10159TIP3    H130422   1.701   3.136   5.263  1.1345 -0.4933 -0.5858
10159TIP3    H230423   1.759   3.213   5.146 -1.1539  1.5505 -0.4595
10160TIP3   OH230424   7.419   5.703   3.420 -0.6671  0.0277  0.0406
10160TIP3    H130425   7.439   5.720   3.512 -0.3157 -0.2311  0.0164
10160TIP3    H230426   7.364   5.776   3.393  1.8494  1.8960 -0.4411
10161TIP3   OH230427   0.216   3.110   2.703  0.1807 -0.4705  0.3008
10161TIP3    H130428   0.291   3.127   2.645  0.9786 -0.5841  1.2689
10161TIP3    H230429   0.252   3.120   2.792 -1.6311  2.5958  0.8346
10162TIP3   OH230430   7.084   6.459   6.083 -0.6087  0.4582 -0.5241
10162TIP3    H130431   7.020   6.434   6.015 -1.3668 -0.3828  0.4741
10162TIP3    H230432   7.060   6.406   6.159  1.0422  0.4370  0.0096
10163TIP3   OH230433   7.597   4.154   2.316 -0.5129 -0.6149 -0.2635
10163TIP3    H130434   7.501   4.155   2.324 -0.6657  0.0484 -1.8748
10163TIP3    H230435   7.614   4.185   2.227  1.2708  0.7380  0.4906
10164TIP3   OH230436   3.777   5.092   5.825 -0.3006 -0.0963  0.6887
10164TIP3    H130437   3.827   5.103   5.744 -0.2480 -1.0484  0.5916
10164TIP3    H230438   3.685   5.101   5.798 -0.2396  0.6662  0.7076
10165TIP3   OH230439   3.027   0.502   2.966  0.6411 -0.2156 -0.4108
10165TIP3    H130440   2.995   0.412   2.971  0.7923 -0.3732 -1.8273
10165TIP3    H230441   3.037   0.519   2.872  0.3260  1.3837 -0.1899
10166TIP3   OH230442   3.119   2.056   3.551 -0.0346  0.3994  0.2271
10166TIP3    H130443   3.094   2.125   3.488 -0.7370 -0.5639 -0.5880
10166TIP3    H230444   3.215   2.053   3.545 -0.0820  0.3655 -0.7717
10167TIP3   OH230445   4.242   3.961   2.164  0.3876  0.1263  0.2315
10167TIP3    H130446   4.196   3.882   2.191 -0.0431 -1.4849 -4.3516
10167TIP3    H230447   4.334   3.942   2.178  0.4201 -1.9731 -2.1026
10168TIP3   OH230448   7.964   1.386   2.568  0.1653  0.5482 -0.1111
10168TIP3    H130449   7.874   1.416   2.564  0.5249  1.5737 -0.6292
10168TIP3    H230450   7.967   1.331   2.647 -0.5824  1.6037  0.6706
10169TIP3   OH230451   0.955   5.836   5.070 -0.3978  0.3385  0.4530
10169TIP3    H130452   0.958   5.785   4.989  1.3361  1.1346 -0.0334
10169TIP3    H230453   0.890   5.792   5.124 -1.8430 -0.0417 -1.4874
10170TIP3   OH230454   7.879   3.362   6.044 -0.0494 -0.2399 -0.3432
10170TIP3    H130455   7.786   3.385   6.045 -0.1712 -0.6697  1.1019
10170TIP3    H230456   7.910   3.384   6.132  1.1467 -0.3940 -0.7009
10171TIP3   OH230457   1.337   5.408   1.465  0.2382 -1.0223 -0.9744
10171TIP3    H130458   1.328   5.316   1.488  0.3125 -0.6007  0.8915
10171TIP3    H230459   1.247   5.442   1.463  0.3166 -0.3627  2.0183
10172TIP3   OH230460   5.251   4.418   0.990 -0.3786 -0.4742  0.3339
10172TIP3    H130461   5.309   4.443   0.917  0.0373  0.4434  0.9624
10172TIP3    H230462   5.237   4.499   1.039 -1.7008 -0.8142  0.5611
10173TIP3   OH230463   8.221   3.557   6.443 -0.4002  0.6833 -0.2594
10173TIP3    H130464   8.237   3.648   6.419  0.4229  0.8334  0.7648
10173TIP3    H230465   8.147   3.560   6.503  1.4435  1.0669  2.1171
10174TIP3   OH230466   0.992   0.301   3.358  0.2410 -0.4437  1.2721
10174TIP3    H130467   0.960   0.211   3.369 -0.4928 -0.2919  0.4422
10174TIP3    H230468   1.087   0.293   3.366  0.2605 -1.4466  0.3118
10175TIP3   OH230469   1.770   4.415   6.611 -0.2620 -0.2023 -0.0723
10175TIP3    H130470   1.749   4.428   6.704 -1.3387  1.2165 -0.4816
10175TIP3    H230471   1.843   4.353   6.612 -0.7016 -0.7541  1.6844
10176TIP3   OH230472   0.788   0.247   0.985  0.5450 -0.2220 -0.2032
10176TIP3    H130473   0.775   0.176   1.049 -1.6138  0.8223  0.6186
10176TIP3    H230474   0.876   0.231   0.950  0.8746 -2.2102  1.2978
10177TIP3   OH230475   1.923   7.608   4.183 -0.1994  0.2588  0.0489
10177TIP3    H130476   1.926   7.622   4.277 -0.3434 -1.6521  0.3904
10177TIP3    H230477   1.880   7.523   4.173 -0.9365  0.7961 -1.7872
10178TIP3   OH230478   2.638   0.962   2.281 -0.1056 -0.3237 -0.3033
10178TIP3    H130479   2.636   0.880   2.332  0.2962 -0.0338  0.1860
10178TIP3    H230480   2.687   1.023   2.336  1.4278 -0.3482 -1.5525
10179TIP3   OH230481   3.412   1.959   0.492  0.3776  0.2365  0.5016
10179TIP3    H130482   3.330   1.966   0.541  0.6390  0.8844  0.8675
10179TIP3    H230483   3.396   2.005   0.410 -0.1280 -1.0308 -0.1318
10180TIP3   OH230484   2.873   1.588   4.244 -0.0208  0.5133  0.3954
10180TIP3    H130485   2.934   1.593   4.318  1.0799  0.4362 -0.4711
10180TIP3    H230486   2.919   1.634   4.173 -0.2822 -0.8995 -0.7374
10181TIP3   OH230487   5.013   3.058   5.731  0.0002  0.1822  0.0964
10181TIP3    H130488   4.964   3.103   5.663 -1.0131 -1.0083 -0.0028
10181TIP3    H230489   4.947   3.012   5.782  0.9436 -0.8692  0.4191
10182TIP3   OH230490   7.372   7.000   2.070 -0.3258 -0.1788 -0.4746
10182TIP3    H130491   7.312   6.952   2.013 -1.2396  0.0628  0.2533
10182TIP3    H230492   7.449   7.015   2.016 -0.9978 -0.3224 -1.5131
10183TIP3   OH230493   7.562   3.769   6.536  0.1281  0.1811  0.4593
10183TIP3    H130494   7.529   3.837   6.595  0.0499 -0.0891  0.7276
10183TIP3    H230495   7.568   3.813   6.451 -0.6719  0.3103  0.4593
10184TIP3   OH230496   0.821   2.336   3.606  0.1569 -0.3699  0.1520
10184TIP3    H130497   0.833   2.431   3.615  2.0550 -0.4983 -0.5064
10184TIP3    H230498   0.874   2.299   3.676 -0.1854 -0.9609  0.1028
10185TIP3   OH230499   2.456   4.357   1.947  0.1840 -0.0896  0.3424
10185TIP3    H130500   2.469   4.446   1.980 -1.5472  0.1164  0.5189
10185TIP3    H230501   2.429   4.369   1.856  1.1202 -0.5159 -0.0108
10186TIP3   OH230502   2.991   1.605   2.755 -0.0264  0.4438 -0.2579
10186TIP3    H130503   2.987   1.631   2.663  0.8086  2.9285  0.3332
10186TIP3    H230504   3.049   1.669   2.796  0.4394 -1.1942  1.8277
10187TIP3   OH230505   1.539   5.612   4.947  0.0298  0.1854 -0.2198
10187TIP3    H130506   1.617   5.642   4.994 -0.4198 -0.4751  1.0060
10187TIP3    H230507   1.560   5.523   4.920  0.0029  0.2986 -0.6169
10188TIP3   OH230508   7.003   2.904   5.985  0.1600 -0.1433 -0.5401
10188TIP3    H130509   7.003   2.810   5.966 -0.8815 -0.7576  2.0505
10188TIP3    H230510   6.930   2.917   6.045 -0.1159  2.4837 -1.3058
10189TIP3   OH230511   8.102   3.203   3.319 -0.0928  0.4114 -0.1963
10189TIP3    H130512   8.072   3.269   3.381  1.8259  0.6320  0.5537
10189TIP3    H230513   8.030   3.195   3.256 -0.3751  3.2537 -0.3592
10190TIP3   OH230514   6.343   2.592   5.551  0.3434  0.1452 -0.2076
10190TIP3    H130515   6.438   2.586   5.559  0.4251  0.8523 -0.5554
10190TIP3    H230516   6.314   2.502   5.536  0.9647 -0.0611 -0.1835
10191TIP3   OH230517   2.174   0.079   0.256 -0.2029 -0.7680 -0.7206
10191TIP3    H130518   2.254   0.085   0.309 -0.0791  0.1985 -1.0142
10191TIP3    H230519   2.105   0.059   0.320 -0.4884  2.7557  0.2494
10192TIP3   OH230520   8.172   2.783   6.348  0.0659 -0.1049  0.4234
10192TIP3    H130521   8.173   2.851   6.280 -0.5325 -0.9575 -0.4738
10192TIP3    H230522   8.191   2.702   6.301 -2.8533 -1.1167  0.7727
10193TIP3   OH230523   5.216   3.831   4.746  0.1466 -0.0979 -0.5792
10193TIP3    H130524   5.184   3.748   4.711 -0.2898 -1.1087  2.0288
10193TIP3    H230525   5.309   3.833   4.721  0.1069 -1.2560 -0.8724
10194TIP3   OH230526   2.543   5.537   3.723 -0.0532 -0.5308 -0.0986
10194TIP3    H130527   2.579   5.449   3.713 -0.2463 -0.5556 -0.5997
10194TIP3    H230528   2.479   5.546   3.652 -0.9138 -0.4170  0.6776
10195TIP3   OH230529   1.049   4.759   2.323  0.7399  0.0307 -0.3151
10195TIP3    H130530   1.086   4.756   2.235  0.4674  1.2727 -0.4919
10195TIP3    H230531   0.993   4.837   2.322 -3.3104 -2.5470 -0.6405
10196TIP3   OH230532   0.698   0.566   2.416 -0.2262 -0.3503 -0.2749
10196TIP3    H130533   0.674   0.482   2.454  1.7065 -0.8904 -0.1266
10196TIP3    H230534   0.717   0.622   2.491  0.1245 -0.3202 -0.3823
10197TIP3   OH230535   6.220   5.028   1.696 -0.0960 -0.2037  0.3952
10197TIP3    H130536   6.266   5.067   1.771 -0.2102 -0.5601  0.6499
10197TIP3    H230537   6.140   4.991   1.733  0.2449 -1.1107  0.2352
10198TIP3   OH230538   6.692   0.388   5.243 -0.5370  0.4126 -0.4217
10198TIP3    H130539   6.671   0.432   5.325 -0.1726 -0.1442 -0.0160
10198TIP3    H230540   6.786   0.371   5.248 -0.1356  1.9619 -1.7556
10199TIP3   OH230541   1.810   4.987   2.036  0.3286  0.3657 -0.3123
10199TIP3    H130542   1.722   4.950   2.031  0.0040  0.5705  2.3806
10199TIP3    H230543   1.859   4.941   1.967 -1.3936 -1.1411 -0.6122
10200TIP3   OH230544   7.853   5.911   3.964 -0.3077  0.3311 -0.0078
10200TIP3    H130545   7.879   5.857   3.889 -0.0475 -0.9731  0.9862
10200TIP3    H230546   7.936   5.941   4.001 -0.4004  0.3406  0.1966
10201TIP3   OH230547   7.833   7.305   5.471 -0.3752 -0.2563 -0.6693
10201TIP3    H130548   7.899   7.249   5.512 -1.3037 -0.4837  0.5669
10201TIP3    H230549   7.884   7.366   5.417  0.8548 -0.4093  0.2600
10202TIP3   OH230550   0.169   4.664   6.465  0.8258  0.0370  0.4464
10202TIP3    H130551   0.161   4.716   6.385 -2.4729 -1.1277 -0.1419
10202TIP3    H230552   0.258   4.629   6.462  0.7261 -0.2327 -2.9385
10203TIP3   OH230553   6.799   3.341   3.717  0.0322 -0.6535  0.1208
10203TIP3    H130554   6.837   3.354   3.804  1.1897 -1.0801 -0.3042
10203TIP3    H230555   6.727   3.280   3.731 -1.9667  1.7778  1.2755
10204TIP3   OH230556   5.987   3.131   5.337  0.1168 -0.5254  0.0751
10204TIP3    H130557   5.900   3.167   5.356  1.0873  1.1076  1.7915
10204TIP3    H230558   6.003   3.153   5.245 -0.5554  0.8689  0.2628
10205TIP3   OH230559   5.504   6.805   1.590 -0.1226 -0.0914 -0.1780
10205TIP3    H130560   5.584   6.795   1.641 -1.2621 -1.0453  1.5372
10205TIP3    H230561   5.457   6.876   1.632  0.0997  0.9650 -1.6255
10206TIP3   OH230562   2.696   7.274   2.003 -0.1630 -0.0106 -0.2632
10206TIP3    H130563   2.645   7.243   1.928 -0.0986  0.9225 -0.7016
10206TIP3    H230564   2.708   7.368   1.987 -0.2795  0.2339  0.9916
10207TIP3   OH230565   1.853   3.644   0.713  0.0322 -0.1728  0.1835
10207TIP3    H130566   1.764   3.610   0.716 -0.4482  1.0353  0.4352
10207TIP3    H230567   1.860   3.684   0.626 -0.5200  1.7956  0.9741
10208TIP3   OH230568   4.141   1.423   5.069 -0.2999 -0.4385 -0.0377
10208TIP3    H130569   4.146   1.360   5.141  1.0775  0.7679  0.9774
10208TIP3    H230570   4.225   1.414   5.023 -1.0761 -1.0457 -1.4123
10209TIP3   OH230571   2.554   6.351   6.121 -0.6073  0.3020  0.6555
10209TIP3    H130572   2.478   6.389   6.164 -0.9081  0.2882  0.1399
10209TIP3    H230573   2.581   6.417   6.058 -0.1487  0.3349  0.8816
10210TIP3   OH230574   6.425   3.430   2.246 -0.3702  0.2033 -0.4030
10210TIP3    H130575   6.450   3.441   2.338  0.9025 -0.5026 -0.6449
10210TIP3    H230576   6.352   3.491   2.233 -1.1646 -0.3171  1.3042
10211TIP3   OH230577   0.257   3.752   5.472 -0.2152  0.0077  0.3132
10211TIP3    H130578   0.169   3.779   5.446  0.0242  1.3412  0.7963
10211TIP3    H230579   0.246   3.663   5.506 -1.2039 -0.2036 -0.5156
10212TIP3   OH230580   0.539   3.667   0.828  0.3197  0.3234  0.3767
10212TIP3    H130581   0.469   3.602   0.826  0.1688  0.4968  0.0484
10212TIP3    H230582   0.612   3.622   0.872  1.0219 -0.8882 -1.8777
10213TIP3   OH230583   0.895   2.998   4.398 -0.1818 -0.3428 -0.0168
10213TIP3    H130584   0.982   2.995   4.359 -0.4380  0.8372 -0.7283
10213TIP3    H230585   0.892   3.083   4.442 -0.0890 -1.4087  2.2031
10214TIP3   OH230586   2.249   3.093   0.213  0.7893  0.1043 -0.0547
10214TIP3    H130587   2.337   3.057   0.217  1.5619  1.4378 -2.7311
10214TIP3    H230588   2.237   3.138   0.297  1.8044 -1.7916  1.1717
10215TIP3   OH230589   7.931   3.649   1.375  0.0166  0.3334 -0.1973
10215TIP3    H130590   7.978   3.732   1.379 -2.0609  1.5179  1.1205
10215TIP3    H230591   7.839   3.672   1.381 -0.6322 -2.0765  0.5197
10216TIP3   OH230592   4.058   5.781   5.493 -0.4018 -0.8640  0.4481
10216TIP3    H130593   4.011   5.699   5.478  0.3821 -0.9314 -1.9500
10216TIP3    H230594   4.120   5.787   5.421  1.3434  0.6210  1.9701
10217TIP3   OH230595   6.837   5.917   2.080  0.1787 -0.0194 -0.0921
10217TIP3    H130596   6.759   5.970   2.061  1.4372  0.8934 -3.3681
10217TIP3    H230597   6.803   5.827   2.089 -1.3016  0.3955 -1.1769
10218TIP3   OH230598   2.139   1.101   1.571 -0.0590  0.1188 -0.3805
10218TIP3    H130599   2.227   1.121   1.540  1.0881 -2.4802  0.8401
10218TIP3    H230600   2.088   1.083   1.492  0.6101  1.1807 -1.0737
10219TIP3   OH230601   4.608   6.507   6.519  0.0492 -0.2132 -0.2352
10219TIP3    H130602   4.540   6.442   6.500 -1.3446  0.4003  2.2418
10219TIP3    H230603   4.560   6.588   6.534  1.5039  0.6720 -0.1586
10220TIP3   OH230604   0.935   0.815   2.014  0.4564  0.5672 -1.0927
10220TIP3    H130605   0.854   0.782   1.975 -0.1113  1.3079 -0.5787
10220TIP3    H230606   1.004   0.758   1.980 -0.5186 -1.3591  0.0562
10221TIP3   OH230607   0.511   4.390   2.663  0.6207 -0.2866 -0.1658
10221TIP3    H130608   0.533   4.326   2.730  1.0028  0.3511  0.3352
10221TIP3    H230609   0.443   4.444   2.702  0.6744 -0.0596 -0.3828
10222TIP3   OH230610   4.151   4.410   4.090  0.4262 -0.4279 -0.6690
10222TIP3    H130611   4.077   4.400   4.030  0.7553 -0.1781 -1.1253
10222TIP3    H230612   4.186   4.497   4.071 -0.3561  0.2675  0.9097
10223TIP3   OH230613   7.342   6.441   5.120 -0.2740  0.2086 -0.2507
10223TIP3    H130614   7.411   6.409   5.178 -0.7813 -0.1326  0.1755
10223TIP3    H230615   7.377   6.428   5.032  0.1830 -0.0120 -0.0411
10224TIP3   OH230616   3.644   1.115   1.349  0.0952 -0.0943  0.2971
10224TIP3    H130617   3.607   1.133   1.435 -0.9172  0.6889 -0.2841
10224TIP3    H230618   3.730   1.156   1.351 -0.8361  1.9966  0.1685
10225TIP3   OH230619   2.505   3.028   6.005 -0.2180  0.4078 -0.2873
10225TIP3    H130620   2.451   3.100   6.037 -1.0882 -0.3693  0.0615
10225TIP3    H230621   2.588   3.068   5.981 -0.2785  1.3439  0.9810
10226TIP3   OH230622   6.115   2.414   1.130 -0.3508  0.2685  0.7262
10226TIP3    H130623   6.023   2.439   1.133 -0.6518 -0.3422 -1.6909
10226TIP3    H230624   6.156   2.481   1.076  0.3909 -0.1714  0.7369
10227TIP3   OH230625   4.996   7.476   2.185 -0.5338  0.1105  0.1213
10227TIP3    H130626   4.942   7.555   2.191 -0.4350  0.2361 -0.6207
10227TIP3    H230627   5.073   7.496   2.238 -0.6345  0.4084  0.1595
10228TIP3   OH230628   1.386   5.715   0.312  0.2245 -0.1203 -0.3512
10228TIP3    H130629   1.323   5.740   0.379  0.2225  0.4091 -0.5456
10228TIP3    H230630   1.337   5.718   0.230  0.3567 -0.2654 -0.4369
10229TIP3   OH230631   7.060   3.897   6.211  0.2058  0.7524  0.4786
10229TIP3    H130632   7.027   3.848   6.136 -1.6279  0.3437  1.4953
10229TIP3    H230633   7.062   3.988   6.181  1.3046  0.3959 -0.6348
10230TIP3   OH230634   1.984   4.056   1.773 -0.1272  0.2306 -0.0363
10230TIP3    H130635   1.954   4.065   1.864  0.0843  1.9243 -0.1029
10230TIP3    H230636   2.077   4.035   1.781 -0.3333 -0.6787  0.1257
10231TIP3   OH230637   7.551   1.052   4.078 -0.2407 -0.5560  0.1240
10231TIP3    H130638   7.507   1.114   4.020 -1.7298 -0.2193  1.5499
10231TIP3    H230639   7.501   0.971   4.069 -1.0502 -0.2444  1.5580
10232TIP3   OH230640   3.310   1.638   2.532 -0.7277 -0.3546  0.6080
10232TIP3    H130641   3.386   1.682   2.495 -0.1962 -0.9077  1.0181
10232TIP3    H230642   3.333   1.545   2.528 -0.8888 -0.4605  1.8100
10233TIP3   OH230643   6.497   1.397   4.615 -0.2764  0.2747 -0.2386
10233TIP3    H130644   6.415   1.411   4.662  0.2532 -0.1417  0.8427
10233TIP3    H230645   6.513   1.303   4.622  0.0762  0.2833 -0.8300
10234TIP3   OH230646   6.280   7.098   6.435 -0.3327  0.0723 -0.3448
10234TIP3    H130647   6.187   7.118   6.446 -0.2761  0.8962 -1.2226
10234TIP3    H230648   6.309   7.072   6.522 -0.8059  2.2789  0.5398
10235TIP3   OH230649   4.067   1.722   4.152 -0.5677 -0.3628  0.0062
10235TIP3    H130650   4.136   1.674   4.196 -1.4031 -0.0256  1.7773
10235TIP3    H230651   4.082   1.814   4.176 -1.5416 -0.2728  0.3104
10236TIP3   OH230652   3.810   3.787   6.129 -0.3704  0.0569  0.3328
10236TIP3    H130653   3.877   3.718   6.130 -2.2495 -1.8589  0.0063
10236TIP3    H230654   3.812   3.822   6.218 -0.1016 -1.1763  0.8480
10237TIP3   OH230655   0.522   2.714   6.531 -0.0140 -0.2283 -0.3542
10237TIP3    H130656   0.546   2.787   6.474 -0.4072 -0.4550 -0.8143
10237TIP3    H230657   0.519   2.638   6.474 -1.2836 -0.3078 -0.2138
10238TIP3   OH230658   0.826   1.478   0.974 -0.2472  0.3526  0.1552
10238TIP3    H130659   0.787   1.565   0.980  0.7086  0.8512 -0.6286
10238TIP3    H230660   0.775   1.433   0.906  1.3280  1.4723 -1.8689
10239TIP3   OH230661   7.851   0.559   2.635 -0.0429  0.3025  0.7276
10239TIP3    H130662   7.847   0.594   2.546  1.4443  1.8101  1.1968
10239TIP3    H230663   7.942   0.534   2.647 -0.5544 -1.4051  1.3197
10240TIP3   OH230664   2.741   1.659   1.731  0.1160 -0.0338 -0.3345
10240TIP3    H130665   2.742   1.705   1.815 -1.7502 -4.1527  2.2741
10240TIP3    H230666   2.813   1.596   1.738 -1.9315 -2.5344 -0.3093
10241TIP3   OH230667   7.115   4.130   5.736 -0.3592  0.3171  0.0683
10241TIP3    H130668   7.164   4.049   5.750 -0.3314  0.3101 -0.0760
10241TIP3    H230669   7.175   4.186   5.687  0.1395  0.9236  1.3282
10242TIP3   OH230670   1.561   2.121   3.603 -0.7850  0.0640 -0.0668
10242TIP3    H130671   1.626   2.136   3.671  0.7261 -0.2965 -1.3841
10242TIP3    H230672   1.540   2.028   3.609 -2.1464  0.4043  1.1380
10243TIP3   OH230673   7.956   0.701   1.158 -0.2433  0.0734 -0.2530
10243TIP3    H130674   7.991   0.733   1.241  0.6974 -0.6377 -0.3559
10243TIP3    H230675   7.872   0.662   1.182 -0.5535  0.9656  0.1550
10244TIP3   OH230676   1.819   4.573   2.008  0.2975 -0.3455 -0.7495
10244TIP3    H130677   1.727   4.599   2.022  0.3163 -1.2830  1.6898
10244TIP3    H230678   1.852   4.556   2.096  2.0027 -2.7458 -1.7445
10245TIP3   OH230679   0.356   7.632   0.678  0.1641  0.6249 -0.1431
10245TIP3    H130680   0.358   7.546   0.721  0.7611 -0.5757 -2.4090
10245TIP3    H230681   0.416   7.686   0.730 -1.2989  0.1610  2.1699
10246TIP3   OH230682   6.684   6.335   5.062 -0.2785  0.2928 -0.9328
10246TIP3    H130683   6.615   6.391   5.097  1.7772  1.5163  1.4911
10246TIP3    H230684   6.689   6.358   4.969 -2.4939  0.7865 -0.9740
10247TIP3   OH230685   7.691   0.953   6.351  0.0353 -0.4823 -0.8463
10247TIP3    H130686   7.781   0.954   6.382  0.4101 -1.1733 -1.8573
10247TIP3    H230687   7.654   1.036   6.383  0.2833 -1.2389  1.6086
10248TIP3   OH230688   6.543   1.650   5.868 -0.2886 -0.4315  0.2745
10248TIP3    H130689   6.544   1.740   5.902  0.9886  0.1722 -1.2470
10248TIP3    H230690   6.635   1.626   5.859 -0.6122 -1.7321  0.2097
10249TIP3   OH230691   7.994   6.116   3.135 -0.2725  0.4952  0.2152
10249TIP3    H130692   7.977   6.170   3.058  0.2625 -0.1833 -0.3998
10249TIP3    H230693   7.969   6.028   3.109 -0.9316  0.3914  1.1345
10250TIP3   OH230694   3.446   6.384   5.367  0.2872  0.4932 -0.3844
10250TIP3    H130695   3.501   6.310   5.392 -0.1288  0.0094 -0.8764
10250TIP3    H230696   3.422   6.424   5.450 -0.1071 -0.3809 -0.0605
10251TIP3   OH230697   7.613   5.912   5.887 -0.0334 -0.7160 -0.0476
10251TIP3    H130698   7.706   5.910   5.864  0.2806 -0.9691  1.1852
10251TIP3    H230699   7.572   5.851   5.825  0.5447 -0.2905 -0.8702
10252TIP3   OH230700   5.251   4.081   1.754 -0.7254 -0.3173  0.3355
10252TIP3    H130701   5.294   4.006   1.712 -0.6314  1.0602 -2.2127
10252TIP3    H230702   5.180   4.042   1.805 -1.4700 -2.1281 -1.9018
10253TIP3   OH230703   7.558   6.231   3.610  0.6618 -0.0764  0.3440
10253TIP3    H130704   7.650   6.204   3.610  0.7667  0.1193 -1.8847
10253TIP3    H230705   7.549   6.286   3.688  2.6388  0.5641  0.1616
10254TIP3   OH230706   0.160   6.604   3.952 -0.1577 -0.3759  0.2823
10254TIP3    H130707   0.085   6.620   3.895 -0.1568 -0.5528  0.2315
10254TIP3    H230708   0.232   6.653   3.912 -0.2466 -0.1988  0.3351
10255TIP3   OH230709   4.779   4.913   0.311 -0.0313  0.4258  0.2425
10255TIP3    H130710   4.866   4.931   0.345 -0.3088  1.8400  0.2655
10255TIP3    H230711   4.787   4.921   0.216  0.3090 -1.5660  0.0692
10256TIP3   OH230712   7.662   3.692   5.045  0.4720  0.5809  0.5934
10256TIP3    H130713   7.612   3.663   5.121 -2.4963  0.7988 -1.1275
10256TIP3    H230714   7.609   3.761   5.006  1.1572 -0.4479 -2.4469
10257TIP3   OH230715   1.711   3.202   5.982 -0.5338 -0.0970 -0.4540
10257TIP3    H130716   1.689   3.293   5.961 -0.2524  0.0264 -0.2096
10257TIP3    H230717   1.718   3.200   6.077 -1.7023 -0.6386 -0.3586
10258TIP3   OH230718   0.088   1.735   3.020 -0.2759  0.5457 -0.1398
10258TIP3    H130719   0.084   1.749   2.925  1.1497 -0.8971 -0.4704
10258TIP3    H230720   0.152   1.800   3.051  0.3453  0.0869 -0.4217
10259TIP3   OH230721   7.484   2.884   2.044 -0.1315  0.0595  0.5446
10259TIP3    H130722   7.499   2.930   2.126  0.5747 -0.2846  0.6094
10259TIP3    H230723   7.551   2.916   1.985  1.3243 -1.9207  1.0212
10260TIP3   OH230724   4.546   5.397   5.420  0.3126 -0.2906  0.0852
10260TIP3    H130725   4.602   5.346   5.479  0.4429 -1.8294 -1.2950
10260TIP3    H230726   4.487   5.332   5.381 -0.9151  0.9534 -0.2211
10261TIP3   OH230727   5.605   6.294   5.527 -0.3234  0.6468  0.3621
10261TIP3    H130728   5.672   6.283   5.460  1.4324  2.8803  1.5955
10261TIP3    H230729   5.582   6.387   5.524 -2.7128  0.1370  0.6416
10262TIP3   OH230730   1.520   7.280   1.393  0.1626  0.0979 -0.8172
10262TIP3    H130731   1.536   7.207   1.332 -0.6007 -1.1494  0.4086
10262TIP3    H230732   1.542   7.358   1.343 -0.2465 -0.8868 -2.6300
10263TIP3   OH230733   6.597   1.931   5.605  0.4962  0.0732 -0.4366
10263TIP3    H130734   6.691   1.919   5.617  0.2207 -1.3441  0.5794
10263TIP3    H230735   6.573   1.869   5.536  0.0519 -0.9216  0.5619
10264TIP3   OH230736   7.026   6.702   4.532 -0.4211  0.5385  0.1450
10264TIP3    H130737   7.093   6.707   4.464 -2.6975  1.2301 -2.2099
10264TIP3    H230738   7.053   6.768   4.597  1.4350  0.3821 -0.4265
10265TIP3   OH230739   6.967   4.219   0.314 -0.1951  0.1406 -0.2174
10265TIP3    H130740   7.047   4.244   0.267  0.3532 -0.1927  0.5259
10265TIP3    H230741   6.983   4.130   0.344 -1.0547 -0.1172 -0.4963
10266TIP3   OH230742   4.383   6.623   6.251  0.0712 -0.3546 -0.0788
10266TIP3    H130743   4.397   6.621   6.346 -1.4422  0.4039  0.1939
10266TIP3    H230744   4.338   6.706   6.235 -0.1560 -0.7096 -1.3910
10267TIP3   OH230745   4.379   0.038   0.902 -0.3560  0.4184  0.1485
10267TIP3    H130746   4.439   0.082   0.842  0.4128 -1.2037 -0.3429
10267TIP3    H230747   4.400  -0.055   0.893 -1.6034 -0.0347  1.4550
10268TIP3   OH230748   3.432   4.428   5.504  0.5839 -0.1392 -0.6611
10268TIP3    H130749   3.415   4.515   5.468  1.2284 -0.2963 -1.3611
10268TIP3    H230750   3.361   4.374   5.470 -0.4380  0.3288  0.6478
10269TIP3   OH230751   3.267   2.546   5.917 -0.3929 -0.2267  0.7034
10269TIP3    H130752   3.190   2.522   5.865 -0.1263  0.6347 -0.1301
10269TIP3    H230753   3.286   2.636   5.891  0.8171 -0.3818  0.9920
10270TIP3   OH230754   5.327   3.729   4.053  0.0857 -0.2807  0.1999
10270TIP3    H130755   5.367   3.725   4.140 -0.5323 -0.7698  0.4701
10270TIP3    H230756   5.244   3.776   4.067  1.4846  2.7532 -0.7354
10271TIP3   OH230757   7.361   1.376   1.803  0.0264  0.1848  0.2523
10271TIP3    H130758   7.295   1.310   1.783  1.9161 -1.9147  0.4795
10271TIP3    H230759   7.334   1.412   1.888 -2.5629  1.8619 -1.1681
10272TIP3   OH230760   1.984   5.710   3.540  0.3708  0.2289  0.1854
10272TIP3    H130761   2.076   5.731   3.556 -0.2066  1.6046  2.0274
10272TIP3    H230762   1.965   5.748   3.454  1.6028 -0.4362 -0.3992
10273TIP3   OH230763   2.538   3.539   5.095  0.1999  0.1773 -0.0576
10273TIP3    H130764   2.471   3.594   5.136 -0.9230 -2.1691  1.4495
10273TIP3    H230765   2.493   3.496   5.023  0.6568  0.0713 -0.2852
10274TIP3   OH230766   4.019   6.120   5.320  0.7123 -0.3817  0.1154
10274TIP3    H130767   4.028   6.185   5.250 -0.1697  0.7503  1.0126
10274TIP3    H230768   4.087   6.056   5.301  0.2308 -0.3465 -2.0068
10275TIP3   OH230769   4.867   3.610   6.103  0.0204  0.2532 -0.4330
10275TIP3    H130770   4.820   3.533   6.072 -1.7994  1.0848  0.0817
10275TIP3    H230771   4.900   3.585   6.189  1.5451 -0.7083 -1.2583
10276TIP3   OH230772   4.302   4.188   5.734  0.2736 -0.0082  0.0950
10276TIP3    H130773   4.247   4.121   5.694  0.0884  0.7458 -0.9693
10276TIP3    H230774   4.285   4.180   5.828 -2.4200  0.8087 -0.2309
10277TIP3   OH230775   7.129   7.616   6.021  0.1198  0.0943 -0.5354
10277TIP3    H130776   7.096   7.527   6.035  1.6621 -0.4046  0.0898
10277TIP3    H230777   7.058   7.673   6.050 -0.9389 -0.9127 -1.0483
10278TIP3   OH230778   7.450   3.575   1.019  0.5569  0.1091  0.6651
10278TIP3    H130779   7.466   3.669   1.013 -0.4623  0.2832  0.5994
10278TIP3    H230780   7.488   3.550   1.104  0.5701  0.6304  0.8182
10279TIP3   OH230781   6.443   0.481   5.623 -0.3527  0.5514 -0.1782
10279TIP3    H130782   6.505   0.409   5.638 -0.7622 -0.3057 -2.3347
10279TIP3    H230783   6.496   0.560   5.635  0.7041 -0.1354 -0.1598
10280TIP3   OH230784   2.624   1.691   3.905 -0.3014  0.5158 -0.8132
10280TIP3    H130785   2.638   1.608   3.860 -0.6778  0.2518 -0.4552
10280TIP3    H230786   2.641   1.758   3.839  3.6450  0.3141 -0.2464
10281TIP3   OH230787   7.214   0.344   0.544  0.4499  0.1442  0.4127
10281TIP3    H130788   7.147   0.378   0.485  0.2982 -0.6004  0.1396
10281TIP3    H230789   7.198   0.249   0.546  2.2405 -0.2115 -0.5934
10282TIP3   OH230790   5.136   1.613   4.059 -0.0784 -0.3042  0.0686
10282TIP3    H130791   5.105   1.602   3.969  0.8676 -2.2596 -0.0542
10282TIP3    H230792   5.058   1.599   4.112 -0.1720 -1.6541 -0.3792
10283TIP3   OH230793   4.906   5.818   4.549  0.3759 -0.3229  0.0767
10283TIP3    H130794   4.933   5.882   4.483  1.8658  0.8449  1.7354
10283TIP3    H230795   4.912   5.865   4.632 -4.2234 -0.7671  0.9553
10284TIP3   OH230796   6.358   6.760   3.247 -0.2774 -0.2881 -0.2688
10284TIP3    H130797   6.350   6.830   3.311 -1.7203  0.7303 -1.4850
10284TIP3    H230798   6.440   6.779   3.201  0.1049 -0.2824  0.4030
10285TIP3   OH230799   0.829   2.924   0.737 -0.1731  0.2241  0.2228
10285TIP3    H130800   0.875   2.842   0.758 -0.7593  0.1844  1.4478
10285TIP3    H230801   0.882   2.992   0.778  0.9003  0.6278 -1.6838
10286TIP3   OH230802   2.765   5.773   1.462  0.3060 -0.4474  0.6743
10286TIP3    H130803   2.802   5.772   1.551 -1.1270 -0.8831  1.2968
10286TIP3    H230804   2.834   5.735   1.407  1.0206 -0.6553  1.6807
10287TIP3   OH230805   7.860   7.850   6.017  0.3497  0.1527 -0.1416
10287TIP3    H130806   7.895   7.797   5.945  0.4411 -1.0707  0.7675
10287TIP3    H230807   7.864   7.792   6.093 -0.7777  1.0425  0.6263
10288TIP3   OH230808   0.579   3.615   4.744 -0.5581 -0.1788 -0.7252
10288TIP3    H130809   0.501   3.654   4.703 -0.8008 -0.6428 -0.7116
10288TIP3    H230810   0.645   3.617   4.675 -0.3185  0.9734 -0.4916
10289TIP3   OH230811   2.691   5.127   4.755 -0.4622 -0.7952  0.0718
10289TIP3    H130812   2.695   5.203   4.814 -0.4103 -2.1833  1.9727
10289TIP3    H230813   2.783   5.102   4.742 -0.4176  0.0372 -1.3884
10290TIP3   OH230814   1.252   4.490   4.078  0.4026  0.2821 -0.1409
10290TIP3    H130815   1.201   4.415   4.046  1.5404 -1.7618  2.4657
10290TIP3    H230816   1.249   4.482   4.173  1.0500  3.2990  0.2377
10291TIP3   OH230817   7.441   0.502   3.814  0.4321 -0.0036 -0.2786
10291TIP3    H130818   7.386   0.546   3.749  0.8955 -1.4753 -1.7231
10291TIP3    H230819   7.524   0.550   3.812 -0.3420  1.5118  1.0942
10292TIP3   OH230820   5.825   6.065   1.732  1.0343  0.1878 -0.3639
10292TIP3    H130821   5.842   5.971   1.720 -2.0973 -0.7217  1.0120
10292TIP3    H230822   5.842   6.104   1.646  0.1323 -2.0932 -1.6718
10293TIP3   OH230823   3.693   7.080   1.855  0.1058 -0.2957 -0.2581
10293TIP3    H130824   3.733   6.999   1.884 -0.6428  0.2477  2.5853
10293TIP3    H230825   3.708   7.142   1.926  0.5940  2.1066 -2.2830
10294TIP3   OH230826   3.188   6.758   1.217 -0.3647 -0.9745  0.0138
10294TIP3    H130827   3.126   6.704   1.168 -0.7899 -0.4452 -0.0392
10294TIP3    H230828   3.140   6.838   1.236  0.8995  0.2322 -1.6197
10295TIP3   OH230829   2.947   2.686   3.795 -0.3444 -0.4171  0.0718
10295TIP3    H130830   2.913   2.775   3.795  0.2366 -0.1838  0.4470
10295TIP3    H230831   2.870   2.630   3.802 -0.6954  0.0643  0.0856
10296TIP3   OH230832   2.112   7.272   2.375  0.4004 -0.2657  0.3092
10296TIP3    H130833   2.175   7.343   2.389 -0.0150  0.1349  0.1720
10296TIP3    H230834   2.054   7.276   2.451  0.2175 -0.2921  0.1712
10297TIP3   OH230835   3.783   0.989   0.126 -0.2936 -0.1805  0.4597
10297TIP3    H130836   3.778   0.980   0.221 -0.1122 -2.0657  0.3281
10297TIP3    H230837   3.841   1.064   0.111  0.8029 -0.7188  1.8390
10298TIP3   OH230838   3.092   0.068   6.024  0.5360  0.4447 -0.0128
10298TIP3    H130839   3.126   0.009   6.091 -0.9773 -1.6393 -0.9776
10298TIP3    H230840   3.031   0.125   6.071  0.1206 -0.4397  0.5226
10299TIP3   OH230841   3.949   0.947   2.681 -0.1083  0.1745 -0.1564
10299TIP3    H130842   4.035   0.907   2.666  0.2245  0.8308 -0.0428
10299TIP3    H230843   3.922   0.915   2.767 -1.4231 -2.5426 -1.4449
10300TIP3   OH230844   3.022   4.726   3.501 -0.6478 -0.1941 -0.5951
10300TIP3    H130845   2.945   4.669   3.501  0.2302 -1.4188 -0.3434
10300TIP3    H230846   3.072   4.699   3.425 -0.5456  0.7457 -0.8788
10301TIP3   OH230847   6.668   1.587   2.447  0.2216 -0.0775 -0.3235
10301TIP3    H130848   6.580   1.551   2.436  0.1518  0.1181 -0.4078
10301TIP3    H230849   6.695   1.610   2.358  0.2898  0.0201 -0.2773
10302TIP3   OH230850   6.792   7.472   0.760 -0.6008 -0.3672 -0.3462
10302TIP3    H130851   6.772   7.565   0.771 -0.2600 -0.4772  1.4186
10302TIP3    H230852   6.720   7.438   0.708 -1.0722  0.7477 -0.4463
10303TIP3   OH230853   2.815   7.239   6.589  0.4380  0.2871 -0.1703
10303TIP3    H130854   2.751   7.198   6.532  0.2317 -1.0428  0.9922
10303TIP3    H230855   2.861   7.301   6.532  0.1202 -0.8635 -1.7339
10304TIP3   OH230856   0.683   2.097   6.063  0.1870  0.1035  0.0766
10304TIP3    H130857   0.751   2.048   6.110 -1.1129 -1.2348  0.6258
10304TIP3    H230858   0.677   2.054   5.978 -0.6793 -0.4637  0.4131
10305TIP3   OH230859   0.882   3.545   4.211  0.0130  0.0261  0.4761
10305TIP3    H130860   0.881   3.451   4.228  0.8982 -0.4822 -2.0094
10305TIP3    H230861   0.964   3.561   4.165 -0.0055  2.0796  1.0550
10306TIP3   OH230862   3.792   0.507   4.885 -0.6128 -0.0775  0.1219
10306TIP3    H130863   3.765   0.503   4.977 -2.2308  0.3209 -0.3125
10306TIP3    H230864   3.780   0.418   4.852 -0.8472 -0.0267  0.0720
10307TIP3   OH230865   7.225   0.808   1.683  0.1096  0.2400  0.4189
10307TIP3    H130866   7.242   0.879   1.745  1.5873 -0.1352  0.4788
10307TIP3    H230867   7.130   0.795   1.688  0.1379  0.4029  2.4318
10308TIP3   OH230868   1.746   0.135   6.519  0.2900 -0.1286 -0.2045
10308TIP3    H130869   1.818   0.110   6.461  0.8597  1.4210 -0.2313
10308TIP3    H230870   1.667   0.119   6.467  0.7413  0.1610 -1.0059
10309TIP3   OH230871   6.880   1.472   0.180 -0.3471  0.6086  0.0123
10309TIP3    H130872   6.838   1.522   0.251 -0.5982  1.4506 -0.7138
10309TIP3    H230873   6.927   1.538   0.129  0.5888 -0.1195 -0.0867
10310TIP3   OH230874   1.551   6.003   4.891  0.4765 -0.2472 -0.5970
10310TIP3    H130875   1.539   6.018   4.797  0.0246  0.2852 -0.4654
10310TIP3    H230876   1.468   6.031   4.930  0.2715 -1.4519 -0.1346
10311TIP3   OH230877   7.437   1.298   0.079  0.7554 -0.2479 -0.4668
10311TIP3    H130878   7.372   1.232   0.103  1.3407 -1.2838 -1.5817
10311TIP3    H230879   7.499   1.299   0.151  0.2116 -0.2052  0.0047
10312TIP3   OH230880   2.542   0.584   3.215  0.2116  0.1259  0.2521
10312TIP3    H130881   2.636   0.601   3.209  0.4101 -0.8089  0.4934
10312TIP3    H230882   2.511   0.648   3.279  0.7560  0.1951  0.4578
10313TIP3   OH230883   2.367   4.190   3.906  0.0496 -0.1956  0.4645
10313TIP3    H130884   2.380   4.161   3.816  2.6337 -0.4512  0.8610
10313TIP3    H230885   2.384   4.113   3.960  0.2894  0.3892  1.2445
10314TIP3   OH230886   8.054   4.176   0.261 -0.1720 -0.2855  0.1294
10314TIP3    H130887   8.048   4.105   0.198  1.1806  0.3983 -0.8178
10314TIP3    H230888   8.066   4.255   0.208  3.2882  0.0711  1.1548
10315TIP3   OH230889   2.548   7.267   0.747  0.0007  0.2778 -0.2884
10315TIP3    H130890   2.460   7.242   0.775 -0.2765  0.7545 -0.7382
10315TIP3    H230891   2.558   7.358   0.777 -0.1443  0.6562 -1.3729
10316TIP3   OH230892   6.364   0.069   2.678 -0.1340  0.6713 -0.0776
10316TIP3    H130893   6.302   0.024   2.620 -0.7698 -0.0076  1.0864
10316TIP3    H230894   6.312   0.136   2.722  0.4394  1.4689 -0.5980
10317TIP3   OH230895   6.456   4.642   1.319 -0.2245 -0.2163  0.2174
10317TIP3    H130896   6.367   4.608   1.312 -0.3310 -0.2079  1.2835
10317TIP3    H230897   6.496   4.623   1.234 -0.4833 -2.4243  0.5308
10318TIP3   OH230898   4.519   6.426   1.221 -0.4565  0.1142 -0.2069
10318TIP3    H130899   4.494   6.501   1.168  1.1706  1.5652  0.9758
10318TIP3    H230900   4.609   6.405   1.194 -0.0384  0.1168  1.0869
10319TIP3   OH230901   7.001   5.244   6.552  0.3715  0.9309 -0.1688
10319TIP3    H130902   7.025   5.336   6.549 -3.4455  2.1052 -3.4539
10319TIP3    H230903   7.045   5.206   6.475  0.3490  0.4695  0.0440
10320TIP3   OH230904   6.570   2.928   5.335 -0.3461 -0.8121 -0.2129
10320TIP3    H130905   6.487   2.902   5.374  1.1121 -2.2910  2.1728
10320TIP3    H230906   6.623   2.848   5.334  0.6080 -0.2721 -3.0875
10321TIP3   OH230907   0.915   0.803   0.315 -0.5232  0.2495 -0.4672
10321TIP3    H130908   0.989   0.864   0.315 -0.1527 -0.1324 -2.6598
10321TIP3    H230909   0.841   0.856   0.284 -0.7369  0.1618 -0.1077
10322TIP3   OH230910   4.748   2.130   0.079  0.3550  0.1854  0.0544
10322TIP3    H130911   4.806   2.204   0.061  1.4694 -0.6092  0.3310
10322TIP3    H230912   4.750   2.078  -0.002  1.5482 -0.8382  0.7124
10323TIP3   OH230913   2.365   5.844   4.558 -0.0753  0.2403  0.0997
10323TIP3    H130914   2.303   5.772   4.565 -1.2350  1.2599  0.7127
10323TIP3    H230915   2.386   5.867   4.649 -0.1808  1.0579 -0.0758
10324TIP3   OH230916   1.681   2.133   1.371 -0.6603  0.4635 -0.5262
10324TIP3    H130917   1.721   2.106   1.288  1.7353 -1.7086  1.1654
10324TIP3    H230918   1.651   2.051   1.411  0.4480  1.0803  1.7722
10325TIP3   OH230919   4.785   7.094   2.182  0.4619  0.3260  0.2204
10325TIP3    H130920   4.736   7.100   2.264  1.6195 -0.6735  1.0279
10325TIP3    H230921   4.747   7.018   2.137 -0.4780  1.1473 -0.4026
10326TIP3   OH230922   2.203   7.818   6.511 -0.1825 -0.5224  0.2514
10326TIP3    H130923   2.277   7.812   6.451  0.2651 -0.8783  0.8356
10326TIP3    H230924   2.209   7.739   6.565 -0.5176 -0.1566  0.8327
10327TIP3   OH230925   2.686   7.490   3.103  0.1470  0.6365 -0.5819
10327TIP3    H130926   2.604   7.534   3.078  0.6733  0.6572 -2.3494
10327TIP3    H230927   2.755   7.542   3.061  1.0219  0.1104  0.1754
10328TIP3   OH230928   7.543   6.690   1.130 -0.2129 -0.2286 -0.3413
10328TIP3    H130929   7.638   6.700   1.120 -0.2818  2.2167  0.8250
10328TIP3    H230930   7.506   6.757   1.073 -1.2187 -0.5258 -0.0467
10329TIP3   OH230931   5.633   0.574   6.654  0.2231 -0.4055 -0.5643
10329TIP3    H130932   5.586   0.651   6.623  1.3817  0.6103  0.1396
10329TIP3    H230933   5.711   0.569   6.600  0.0808 -1.1921 -0.7124
10330TIP3   OH230934   3.528   3.438   4.215  0.6871  0.1067 -0.2524
10330TIP3    H130935   3.457   3.470   4.160 -0.6082 -0.3105  1.0939
10330TIP3    H230936   3.502   3.461   4.304  0.8518 -2.4655  0.5674
10331TIP3   OH230937   6.216   0.302   1.373  0.2891 -0.0553  0.5558
10331TIP3    H130938   6.141   0.257   1.413  1.4245 -0.8085  1.9412
10331TIP3    H230939   6.206   0.393   1.398 -1.2677  0.2921 -1.0735
10332TIP3   OH230940   3.266   6.974   6.103 -0.0566  0.2809  0.1254
10332TIP3    H130941   3.275   6.937   6.191  2.1482  1.0038  0.2718
10332TIP3    H230942   3.237   7.064   6.119  1.1690  0.6842  0.2124
10333TIP3   OH230943   4.397   1.300   2.355 -0.0832 -0.3514 -0.1966
10333TIP3    H130944   4.451   1.373   2.385 -0.4650 -0.3167  0.4178
10333TIP3    H230945   4.307   1.328   2.370 -0.3272 -0.1302 -1.8544
10334TIP3   OH230946   2.894   1.770   6.085 -0.0935 -0.3753 -0.4912
10334TIP3    H130947   2.909   1.748   6.177  0.1658 -0.9152 -0.6589
10334TIP3    H230948   2.982   1.782   6.048 -0.1669 -0.8592 -0.8332
10335TIP3   OH230949   6.755   0.574   0.071  0.4180  0.0657 -0.1012
10335TIP3    H130950   6.845   0.594   0.095  0.2154  1.7259 -0.6015
10335TIP3    H230951   6.729   0.506   0.132  1.0646  1.6616  2.0936
10336TIP3   OH230952   1.430   2.920   3.743  0.9160  0.3224 -0.3775
10336TIP3    H130953   1.401   2.953   3.658  1.6827  0.0238 -0.7667
10336TIP3    H230954   1.455   2.829   3.727 -1.0177 -0.4418  0.6512
10337TIP3   OH230955   3.588   4.906   3.409  0.4493  0.0228 -0.0282
10337TIP3    H130956   3.517   4.865   3.359 -1.4687  2.4941  0.4719
10337TIP3    H230957   3.549   4.927   3.494  2.0812  0.5737  0.6273
10338TIP3   OH230958   0.332   0.316   1.950 -0.2727  0.1527 -0.0225
10338TIP3    H130959   0.292   0.262   1.881 -0.6914  1.4094 -0.7853
10338TIP3    H230960   0.420   0.335   1.918 -0.9630  1.9751 -0.9483
10339TIP3   OH230961   5.970   2.439   5.207 -1.0225  0.7421 -0.0492
10339TIP3    H130962   5.954   2.363   5.264  0.2789  1.3245  1.1450
10339TIP3    H230963   5.975   2.402   5.119  4.8518 -1.6238  0.8085
10340TIP3   OH230964   8.244   2.665   3.737  0.2143  0.1653  0.7719
10340TIP3    H130965   8.272   2.574   3.742 -0.4227 -0.1053 -0.2433
10340TIP3    H230966   8.285   2.698   3.657 -0.1962  0.5371  0.7120
10341TIP3   OH230967   7.724   7.234   4.592  0.5701  0.0140 -0.4971
10341TIP3    H130968   7.778   7.198   4.521  1.4760  0.5825 -0.1224
10341TIP3    H230969   7.705   7.160   4.649 -0.1057 -0.4346 -1.2889
10342TIP3   OH230970   1.500   1.969   3.256 -0.4446 -0.0084 -0.6030
10342TIP3    H130971   1.479   1.882   3.291  0.0430 -0.1863 -0.7404
10342TIP3    H230972   1.417   2.016   3.257 -0.1249  0.6993  2.6801
10343TIP3   OH230973   1.893   5.503   4.752 -0.3694  0.2887  0.3821
10343TIP3    H130974   1.861   5.560   4.822 -1.4030  2.1047 -1.4579
10343TIP3    H230975   1.821   5.499   4.689  0.9471 -0.2801 -1.1558
10344TIP3   OH230976   5.386   2.098   4.855  0.3211  0.9533 -0.0430
10344TIP3    H130977   5.445   2.037   4.900  0.8981  0.8307 -0.9450
10344TIP3    H230978   5.361   2.161   4.923 -1.4137 -1.0310  1.3033
10345TIP3   OH230979   0.800   1.481   3.866 -0.4127  0.7055 -0.3532
10345TIP3    H130980   0.831   1.394   3.842  0.1244  0.6651  0.4487
10345TIP3    H230981   0.872   1.520   3.914 -0.1974  2.0503 -1.6850
10346TIP3   OH230982   5.447   5.639   1.175  0.1694 -0.0760  0.8547
10346TIP3    H130983   5.354   5.634   1.199  0.0325 -1.2464  0.1614
10346TIP3    H230984   5.481   5.552   1.197  0.3632 -0.7324 -1.7863
10347TIP3   OH230985   1.896   0.311   5.730  0.3249 -0.7265  0.2263
10347TIP3    H130986   1.816   0.307   5.781  0.5387 -0.8940  0.5534
10347TIP3    H230987   1.952   0.373   5.776 -0.4053  1.0303 -1.1597
10348TIP3   OH230988   5.621   2.235   0.918 -0.1266 -0.6394 -0.0675
10348TIP3    H130989   5.559   2.165   0.898  0.4120 -1.4495  0.9909
10348TIP3    H230990   5.567   2.305   0.955 -0.7679 -0.1697 -1.8143
10349TIP3   OH230991   1.493   3.230   0.935 -0.0725  0.1453  0.1386
10349TIP3    H130992   1.482   3.293   1.007 -0.0754 -0.9099  1.0781
10349TIP3    H230993   1.588   3.216   0.932  0.0823  1.2513 -1.0207
10350TIP3   OH230994   7.218   1.664   4.200  0.3545  0.1583  0.2735
10350TIP3    H130995   7.149   1.723   4.169  0.1864 -0.5548 -0.7547
10350TIP3    H230996   7.298   1.700   4.161  0.4355  0.4292  0.6822
10351TIP3   OH230997   6.469   2.854   6.084 -0.0591 -0.5707 -0.3722
10351TIP3    H130998   6.425   2.800   6.150 -0.3197  0.9140  0.7200
10351TIP3    H230999   6.522   2.915   6.135 -0.8302  1.1066 -1.4779
10352TIP3   OH231000   1.108   6.061   5.109  0.0213  0.4886  0.5309
10352TIP3    H131001   1.069   6.122   5.171  0.2681  1.3994 -0.1945
10352TIP3    H231002   1.051   5.984   5.111 -0.9869  1.2319  0.5352
10353TIP3   OH231003   5.854   5.469   3.621  0.0199  0.0768 -0.5155
10353TIP3    H131004   5.925   5.493   3.562 -0.4268  1.5223 -0.5024
10353TIP3    H231005   5.775   5.502   3.578 -0.2434  1.9346  1.2466
10354TIP3   OH231006   1.948   0.224   2.995 -0.2004 -0.0155 -0.0373
10354TIP3    H131007   1.955   0.227   3.090 -1.4140  0.0511  0.0596
10354TIP3    H231008   1.951   0.130   2.974  2.8781 -0.0046 -0.2137
10355TIP3   OH231009   3.118   0.677   2.579 -0.5814  0.3783 -0.5830
10355TIP3    H131010   3.201   0.640   2.550 -0.7514 -1.1401  0.7895
10355TIP3    H231011   3.060   0.602   2.591 -1.8378  1.3252 -0.4767
10356TIP3   OH231012   6.778   5.774   4.404 -0.2155 -0.2884 -0.0734
10356TIP3    H131013   6.806   5.722   4.328 -1.8004 -1.0080 -0.1863
10356TIP3    H231014   6.799   5.865   4.379 -2.6095 -0.2404 -2.3292
10357TIP3   OH231015   2.195   4.617   2.851  0.4748  0.5186  0.1664
10357TIP3    H131016   2.137   4.545   2.829  0.0339  0.7413  0.5671
10357TIP3    H231017   2.244   4.635   2.771  1.8242 -1.3299  0.5178
10358TIP3   OH231018   8.257   5.942   0.463  0.3754 -0.1308  0.1725
10358TIP3    H131019   8.246   6.030   0.500  1.8687  0.3056 -0.3412
10358TIP3    H231020   8.238   5.883   0.536 -0.3386  0.6123  0.6110
10359TIP3   OH231021   2.123   7.242   2.653 -0.5022  0.2332 -0.1939
10359TIP3    H131022   2.098   7.163   2.702  1.9176 -0.8106 -0.4565
10359TIP3    H231023   2.059   7.308   2.678 -1.1133 -1.1033  2.0560
10360TIP3   OH231024   2.523   3.018   6.782 -0.1231 -0.1846  0.1119
10360TIP3    H131025   2.572   3.066   6.715  0.1546 -0.4279  0.1377
10360TIP3    H231026   2.432   3.038   6.764 -0.2182 -1.8939 -1.6417
10361TIP3   OH231027   2.396   4.292   3.485  0.7284 -0.1628  0.6366
10361TIP3    H131028   2.459   4.261   3.419  1.3702  0.9155  0.7186
10361TIP3    H231029   2.341   4.354   3.438  1.3079  0.7492  1.1424
10362TIP3   OH231030   2.143   2.991   3.480  0.7885 -0.3235  0.1039
10362TIP3    H131031   2.049   2.994   3.496  0.9732 -1.4533  1.6657
10362TIP3    H231032   2.182   3.013   3.564  1.8815 -2.9010  0.3596
10363TIP3   OH231033   4.163   6.617   2.340 -0.0203 -0.1097  0.0068
10363TIP3    H131034   4.131   6.703   2.315 -0.0664 -0.5527 -1.5629
10363TIP3    H231035   4.253   6.632   2.368  0.5067  0.2696 -1.7661
10364TIP3   OH231036   5.944   4.277   2.881  0.0528 -0.7166 -0.7088
10364TIP3    H131037   6.014   4.230   2.927 -0.5066 -1.4427 -0.5753
10364TIP3    H231038   5.886   4.308   2.950  0.1955 -0.1946 -0.8230
10365TIP3   OH231039   0.266   5.282   4.480 -0.9106  0.5028 -0.3044
10365TIP3    H131040   0.355   5.268   4.511 -1.8645 -1.1405  1.9515
10365TIP3    H231041   0.260   5.228   4.400 -0.2339 -0.4319  0.2548
10366TIP3   OH231042   6.613   6.001   3.095 -0.4333  0.2215  0.3330
10366TIP3    H131043   6.572   5.918   3.072  0.7196 -0.3517  0.2435
10366TIP3    H231044   6.685   5.976   3.153  1.1915  0.9228 -1.2835
10367TIP3   OH231045   2.796   0.802   2.504  0.2647  0.7630 -0.2480
10367TIP3    H131046   2.847   0.774   2.581  1.4057 -0.6426 -1.4449
10367TIP3    H231047   2.727   0.737   2.496  0.1239  0.9291 -0.3881
10368TIP3   OH231048   4.090   7.209   4.085 -0.0349 -0.0814 -0.5184
10368TIP3    H131049   3.995   7.214   4.095 -0.1926 -1.9129 -0.6949
10368TIP3    H231050   4.107   7.118   4.058  1.5519  0.8358 -2.9889
10369TIP3   OH231051   7.356   4.575   2.945  0.6676 -0.2256 -0.5434
10369TIP3    H131052   7.388   4.487   2.926 -2.4757 -1.4588 -0.6071
10369TIP3    H231053   7.315   4.605   2.864  0.9337  0.9606 -0.2690
10370TIP3   OH231054   2.272   4.398   0.201  0.4707 -0.0405  0.6235
10370TIP3    H131055   2.357   4.405   0.157 -0.3842  3.4135 -0.8407
10370TIP3    H231056   2.208   4.398   0.130 -0.8435  1.6982  1.7297
10371TIP3   OH231057   1.504   0.154   2.275 -0.0019 -0.9277  0.5344
10371TIP3    H131058   1.486   0.127   2.365  0.3846 -2.6682  0.1222
10371TIP3    H231059   1.563   0.087   2.241 -0.7523 -0.7294 -1.2636
10372TIP3   OH231060   4.217   1.216   4.811 -0.1286 -0.1672 -0.1091
10372TIP3    H131061   4.238   1.123   4.815  0.2617 -0.0501  1.2507
10372TIP3    H231062   4.127   1.221   4.845  0.0516 -0.0090  0.3615
10373TIP3   OH231063   2.067   5.667   0.696  0.1805 -0.0113  0.4090
10373TIP3    H131064   2.047   5.755   0.727  1.3720 -0.3372  2.2262
10373TIP3    H231065   2.022   5.661   0.611 -0.5697  2.0446  0.6040
10374TIP3   OH231066   3.450   5.705   6.385 -0.3750  0.1252 -0.4340
10374TIP3    H131067   3.394   5.709   6.307 -1.7034 -0.5908  0.4347
10374TIP3    H231068   3.439   5.616   6.417 -2.2784  1.1712  2.2244
10375TIP3   OH231069   0.197   1.049   0.747  0.2747  0.3382 -0.7750
10375TIP3    H131070   0.173   0.956   0.743  1.4047 -0.0012 -0.1665
10375TIP3    H231071   0.291   1.048   0.768 -0.2827  1.6160  2.2954
10376TIP3   OH231072   7.732   7.494   0.307 -0.4684  0.1954 -0.1059
10376TIP3    H131073   7.644   7.528   0.293 -0.5516  0.3277  0.7159
10376TIP3    H231074   7.783   7.569   0.336 -0.0413  0.1519 -0.7189
10377TIP3   OH231075   0.806   5.648   2.673  0.0649 -0.2840 -0.2008
10377TIP3    H131076   0.805   5.730   2.623 -0.8548  0.1713  0.5244
10377TIP3    H231077   0.717   5.613   2.663 -0.6988  0.6790  2.4409
10378TIP3   OH231078   7.753   2.446   3.916 -0.6618 -0.1881 -0.1086
10378TIP3    H131079   7.789   2.434   3.829  0.5554  1.4943  0.1181
10378TIP3    H231080   7.827   2.472   3.970 -1.8121  1.3314  0.8442
10379TIP3   OH231081   6.981   0.979   4.695  0.1509  0.1844  0.3089
10379TIP3    H131082   6.981   0.937   4.609  1.3881  0.3641  0.2011
10379TIP3    H231083   7.054   1.040   4.691 -0.2040  0.6864  1.2651
10380TIP3   OH231084   0.945   3.950   1.729 -0.3943 -0.1883 -0.2326
10380TIP3    H131085   1.024   3.963   1.781 -0.1206 -0.4881 -0.5677
10380TIP3    H231086   0.974   3.899   1.653 -1.0025 -0.7746 -0.0871
10381TIP3   OH231087   1.969   4.283   0.830 -0.9150 -0.1415 -0.1430
10381TIP3    H131088   1.876   4.260   0.834 -2.0572  3.7723 -0.0711
10381TIP3    H231089   1.980   4.323   0.744  0.4931  0.2381  0.1825
10382TIP3   OH231090   4.143   6.348   3.342 -0.2211 -0.3672  0.3253
10382TIP3    H131091   4.163   6.313   3.429  0.5625 -2.3151 -0.5767
10382TIP3    H231092   4.216   6.318   3.287 -1.0937  0.1444 -1.1689
10383TIP3   OH231093   3.701   1.119   4.267  0.1946 -0.0483  0.1078
10383TIP3    H131094   3.698   1.027   4.241 -1.1331  0.2380 -0.8343
10383TIP3    H231095   3.612   1.151   4.255  0.6302  1.3671  0.4191
10384TIP3   OH231096   2.341   5.444   2.365  0.1449 -0.3093 -0.2715
10384TIP3    H131097   2.279   5.492   2.420 -2.6361 -2.2825 -1.4539
10384TIP3    H231098   2.289   5.413   2.291  3.2702  0.4520 -3.0299
10385TIP3   OH231099   6.973   3.978   5.317 -0.8095  0.1395 -0.2013
10385TIP3    H131100   7.002   3.894   5.353  1.0142 -1.1590 -4.1240
10385TIP3    H231101   7.032   4.042   5.357 -0.6389 -0.7604  1.0650
10386TIP3   OH231102   1.504   3.774   6.055 -0.3886 -0.2625 -0.6483
10386TIP3    H131103   1.565   3.779   5.982  0.2403 -1.1562 -0.2042
10386TIP3    H231104   1.418   3.787   6.015  0.0228  0.2449 -1.3923
10387TIP3   OH231105   1.585   7.256   1.670 -0.3082 -0.6036  0.6497
10387TIP3    H131106   1.564   7.261   1.577  1.1133  0.1794  0.3443
10387TIP3    H231107   1.610   7.165   1.684  0.2847 -0.5384  0.0704
10388TIP3   OH231108   7.471   1.621   0.104  0.0773 -0.1404 -0.3153
10388TIP3    H131109   7.514   1.603   0.188  0.7554 -0.2895 -0.6873
10388TIP3    H231110   7.391   1.668   0.128  0.2725 -0.1654  0.4158
10389TIP3   OH231111   0.268   6.120   0.076 -0.1180  0.1923  0.3038
10389TIP3    H131112   0.212   6.127   0.153 -0.6759  0.4359 -0.1114
10389TIP3    H231113   0.335   6.188   0.089 -0.4260  0.4830  0.4005
10390TIP3   OH231114   0.757   6.060   0.890 -0.0801 -0.3799 -0.3688
10390TIP3    H131115   0.697   5.988   0.873 -0.3711  0.2500 -2.2442
10390TIP3    H231116   0.711   6.138   0.861  0.2064  0.6360  1.6616
10391TIP3   OH231117   5.442   5.601   6.143 -0.2217 -0.0467 -0.0344
10391TIP3    H131118   5.437   5.546   6.221 -2.0357  1.4674  1.0098
10391TIP3    H231119   5.368   5.574   6.088 -1.4985  1.6166  0.7615
10392TIP3   OH231120   4.966   6.200   5.866 -0.4916  0.7358 -0.3343
10392TIP3    H131121   4.926   6.285   5.845  0.8050  1.0138 -1.8609
10392TIP3    H231122   4.903   6.135   5.834  0.0950  1.1680 -2.5739
10393TIP3   OH231123   7.785   3.905   1.662  0.0456 -0.0660 -0.5167
10393TIP3    H131124   7.786   3.909   1.758 -0.6894  0.5047 -0.5260
10393TIP3    H231125   7.873   3.931   1.636  1.1378 -2.7664  0.0617
10394TIP3   OH231126   2.879   4.659   1.067  0.4697  0.5503  0.5815
10394TIP3    H131127   2.867   4.742   1.112 -0.5301  0.2639  0.8511
10394TIP3    H231128   2.814   4.660   0.997  0.7856  0.2020  0.2793
10395TIP3   OH231129   2.198   3.943   5.877  0.1996  0.5172 -0.4051
10395TIP3    H131130   2.224   4.035   5.885  2.7943 -0.0651 -1.4064
10395TIP3    H231131   2.169   3.933   5.787  0.5596  0.2007 -0.4866
10396TIP3   OH231132   0.879   5.309   0.737  0.2258 -0.0507 -0.3379
10396TIP3    H131133   0.904   5.346   0.822 -1.6683  2.3450 -0.7118
10396TIP3    H231134   0.883   5.214   0.750  1.2230  0.2452  2.0175
10397TIP3   OH231135   5.969   1.040   1.223  0.2513  0.0794  0.1971
10397TIP3    H131136   5.880   1.023   1.191  0.8374 -1.2785 -0.8541
10397TIP3    H231137   6.016   0.957   1.208  1.2771  0.2100  2.2522
10398TIP3   OH231138   1.217   6.617   4.395  0.1049 -0.1545 -0.0975
10398TIP3    H131139   1.198   6.677   4.323  2.4330  1.3727  0.4771
10398TIP3    H231140   1.299   6.575   4.371 -1.6915 -3.7557 -0.7711
10399TIP3   OH231141   7.158   7.510   4.312 -0.3522 -0.2335 -0.1908
10399TIP3    H131142   7.087   7.563   4.275 -0.1818 -0.1076 -0.3393
10399TIP3    H231143   7.184   7.557   4.392 -0.5238 -0.3512 -0.0650
10400TIP3   OH231144   5.497   0.812   1.447  0.6350 -0.4287 -0.6577
10400TIP3    H131145   5.445   0.802   1.368  0.2927  0.4382 -0.5481
10400TIP3    H231146   5.465   0.743   1.506  1.7814 -1.9297 -1.7188
10401TIP3   OH231147   5.760   5.510   1.689  0.0196  0.4106 -0.7721
10401TIP3    H131148   5.784   5.591   1.645  1.0871  0.1519 -0.6776
10401TIP3    H231149   5.750   5.446   1.618  5.8299 -1.1304 -0.6600
10402TIP3   OH231150   7.835   6.876   4.173  0.0632  0.7382  0.3476
10402TIP3    H131151   7.838   6.972   4.169 -0.2891  0.7690  0.8134
10402TIP3    H231152   7.902   6.853   4.237 -0.1778  0.7002  0.5879
10403TIP3   OH231153   3.777   0.780   1.022 -0.2003  0.1662 -0.0880
10403TIP3    H131154   3.800   0.795   1.114  0.1622 -0.4704 -0.0670
10403TIP3    H231155   3.711   0.710   1.025 -1.3982  1.2696 -0.2179
10404TIP3   OH231156   5.001   4.655   1.602 -0.1955 -0.3253  0.0446
10404TIP3    H131157   4.908   4.660   1.580 -0.0442 -1.1113 -0.8422
10404TIP3    H231158   5.004   4.598   1.678 -0.4061 -0.6803 -0.2082
10405TIP3   OH231159   6.353   7.583   2.704  0.3579  0.0899 -0.3440
10405TIP3    H131160   6.422   7.550   2.761 -1.2222 -2.6076  0.1626
10405TIP3    H231161   6.337   7.672   2.736  0.1011 -0.9943  2.9726
10406TIP3   OH231162   2.823   1.000   2.988 -0.0588 -0.2782  0.5284
10406TIP3    H131163   2.752   0.968   2.933  0.1773 -1.3254  0.8113
10406TIP3    H231164   2.878   0.923   3.004  0.9086  0.4193  0.6638
10407TIP3   OH231165   3.609   6.258   5.802  0.5212 -0.4441 -0.3567
10407TIP3    H131166   3.679   6.243   5.866 -1.2496 -1.0812  1.5100
10407TIP3    H231167   3.596   6.352   5.802  1.3986 -0.3112 -0.7686
10408TIP3   OH231168   7.517   1.129   1.224  0.3448 -0.4477 -0.5034
10408TIP3    H131169   7.563   1.170   1.151 -2.0282 -0.2365 -1.9726
10408TIP3    H231170   7.563   1.046   1.237  2.6789  0.7948 -0.1573
10409TIP3   OH231171   1.041   7.458   2.430 -0.0653 -0.3075 -0.4971
10409TIP3    H131172   1.079   7.432   2.346  1.2204  0.6542 -0.2388
10409TIP3    H231173   1.115   7.461   2.491 -0.3956  2.1502 -0.1070
10410TIP3   OH231174   5.597   2.488   3.506 -0.2250 -0.5780  0.1274
10410TIP3    H131175   5.558   2.566   3.547  0.0411 -0.3948  0.0300
10410TIP3    H231176   5.554   2.482   3.420 -0.4702 -0.7177  0.2568
10411TIP3   OH231177   5.878   2.731   2.465 -0.6180 -0.2572  0.6262
10411TIP3    H131178   5.833   2.646   2.467 -0.8054 -0.2746 -1.5178
10411TIP3    H231179   5.952   2.718   2.406 -0.7773  1.1194  0.0820
10412TIP3   OH231180   5.698   6.867  -0.018 -0.9002  0.3970  0.1152
10412TIP3    H131181   5.746   6.809   0.041 -0.4036 -0.3549 -0.9877
10412TIP3    H231182   5.677   6.943   0.035 -2.0968 -1.0224  1.7929
10413TIP3   OH231183   4.425   5.660   1.739  0.1442 -0.1757 -0.0972
10413TIP3    H131184   4.454   5.607   1.813  0.8757  1.6284  0.9728
10413TIP3    H231185   4.498   5.719   1.721 -0.5111  0.2778 -1.4491
10414TIP3   OH231186   1.474   6.206   6.635  0.3148  0.5173  0.1023
10414TIP3    H131187   1.472   6.162   6.550  0.3826  0.0866  0.3242
10414TIP3    H231188   1.545   6.271   6.626  0.2558  0.5417 -0.2013
10415TIP3   OH231189   4.672   2.538   3.214  0.0148  0.3274  0.1766
10415TIP3    H131190   4.740   2.602   3.239  0.1393 -0.1371  1.0759
10415TIP3    H231191   4.625   2.580   3.142  0.7850  0.9754  0.0380
10416TIP3   OH231192   2.741   6.686   1.047  0.3431 -0.1325 -0.6308
10416TIP3    H131193   2.671   6.727   1.098  0.3428 -0.9619  0.0618
10416TIP3    H231194   2.753   6.743   0.972 -1.4566 -0.2518 -1.0525
10417TIP3   OH231195   6.410   4.148   5.451 -0.6026 -0.5908 -0.2379
10417TIP3    H131196   6.336   4.187   5.404  1.1324  1.2123 -1.6341
10417TIP3    H231197   6.448   4.220   5.501 -0.4306 -1.7508  1.3714
10418TIP3   OH231198   4.160   2.398   3.670 -0.2064  0.0996  0.6481
10418TIP3    H131199   4.234   2.368   3.617  0.0224 -0.4123  1.2378
10418TIP3    H231200   4.184   2.373   3.759 -1.0603 -0.0086  0.8492
10419TIP3   OH231201   0.577   2.394   1.332 -0.4810  0.3402  0.0635
10419TIP3    H131202   0.636   2.469   1.329 -0.4877  0.3911  0.8909
10419TIP3    H231203   0.614   2.332   1.269  1.0907 -0.0703  1.3000
10420TIP3   OH231204   1.513   5.017   2.488  0.1881  0.5527  0.2994
10420TIP3    H131205   1.433   5.063   2.463  2.1921  3.5497 -1.1930
10420TIP3    H231206   1.503   4.998   2.581 -2.1440  1.0163  0.1875
10421TIP3   OH231207   7.950   6.729   2.606 -0.2134 -0.9549 -0.3042
10421TIP3    H131208   7.903   6.765   2.531  0.9093  0.9508 -0.1753
10421TIP3    H231209   8.042   6.734   2.580  0.0431 -3.3119 -0.0215
10422TIP3   OH231210   7.444   3.878   2.510 -0.1712 -0.4344 -0.1669
10422TIP3    H131211   7.474   3.796   2.550  2.2814  0.5999  0.2737
10422TIP3    H231212   7.513   3.902   2.448  0.7054  2.6894  1.7650
10423TIP3   OH231213   6.807   3.829   2.230  0.0094  0.2543  0.6991
10423TIP3    H131214   6.885   3.786   2.196 -1.6645 -1.3578 -1.3979
10423TIP3    H231215   6.766   3.764   2.288 -0.1827  0.7967  1.1856
10424TIP3   OH231216   4.165   5.747   2.913  0.1375  0.0076  0.1074
10424TIP3    H131217   4.156   5.818   2.976 -0.5240 -0.4501  0.5359
10424TIP3    H231218   4.252   5.710   2.930 -0.2117 -0.3982  1.0611
10425TIP3   OH231219   0.587   6.740   5.811 -0.0024  0.4437 -0.3627
10425TIP3    H131220   0.681   6.752   5.827 -0.1048  1.1742 -0.3197
10425TIP3    H231221   0.577   6.645   5.803  0.8641  0.4039 -1.1329
10426TIP3   OH231222   6.209   6.013   6.289 -0.3168  0.0502 -0.8374
10426TIP3    H131223   6.191   5.940   6.348  0.1953  0.2669 -0.3989
10426TIP3    H231224   6.145   6.004   6.218 -0.4255 -0.6660 -0.6520
10427TIP3   OH231225   5.823   2.361   4.026  0.2954  0.0405  0.5839
10427TIP3    H131226   5.865   2.428   3.972  0.2603 -0.5277 -0.1784
10427TIP3    H231227   5.735   2.354   3.990  0.0823  0.0735  1.1056
10428TIP3   OH231228   4.872   3.074   3.860  0.1959 -0.0523  0.0333
10428TIP3    H131229   4.782   3.046   3.848  0.4221 -1.3952  1.1653
10428TIP3    H231230   4.913   3.061   3.775  0.1822 -2.9914  0.3711
10429TIP3   OH231231   3.519   4.750   3.914 -0.4221  0.0745  0.2652
10429TIP3    H131232   3.574   4.709   3.848 -1.2135  2.0394 -1.7204
10429TIP3    H231233   3.469   4.678   3.953  0.3786 -1.1724 -0.9721
10430TIP3   OH231234   4.135   5.998   0.573  0.4459  0.0886 -0.0774
10430TIP3    H131235   4.123   5.915   0.618  0.0700  1.2832  2.2205
10430TIP3    H231236   4.218   6.032   0.608 -0.6039  1.7446  0.9820
10431TIP3   OH231237   8.171   3.472   1.419 -0.6928  0.0742  0.2084
10431TIP3    H131238   8.221   3.391   1.418 -0.2728  0.3030 -1.6732
10431TIP3    H231239   8.236   3.541   1.430 -0.6652  0.3069 -1.2030
10432TIP3   OH231240   7.608   5.830   4.337 -0.2066 -0.1535  0.0344
10432TIP3    H131241   7.584   5.808   4.247  0.3701 -0.7656  0.0301
10432TIP3    H231242   7.569   5.760   4.390  0.2975 -0.3349  0.1673
10433TIP3   OH231243   8.021   1.157   3.164 -0.0854  0.1793 -0.4801
10433TIP3    H131244   8.036   1.063   3.173  0.9620  0.4691  1.3396
10433TIP3    H231245   8.075   1.183   3.089  2.4299 -0.1561  1.0945
10434TIP3   OH231246   0.248   3.158   2.968  0.4927 -0.6206 -0.4459
10434TIP3    H131247   0.300   3.139   3.047 -0.6862 -2.1689 -0.0028
10434TIP3    H231248   0.271   3.249   2.947  1.0545 -0.2408  1.5196
10435TIP3   OH231249   2.626   6.263   3.157 -0.4436  0.6782  0.6930
10435TIP3    H131250   2.533   6.252   3.178 -0.2542 -0.1207  1.1520
10435TIP3    H231251   2.627   6.326   3.085 -1.3187  0.9481  0.9075
10436TIP3   OH231252   5.222   4.407   6.715  0.5374  0.6330 -0.0841
10436TIP3    H131253   5.246   4.358   6.794 -0.7424 -1.4499 -0.8792
10436TIP3    H231254   5.171   4.481   6.747 -1.8329 -1.3337  1.0810
10437TIP3   OH231255   4.740   4.795   4.680  1.0235 -0.0114 -0.3583
10437TIP3    H131256   4.771   4.815   4.769  0.6456  2.8731 -0.7967
10437TIP3    H231257   4.652   4.760   4.693  1.0698  0.1415  0.4274
10438TIP3   OH231258   5.590   1.384   5.744  0.0348 -0.2412 -0.2334
10438TIP3    H131259   5.610   1.311   5.804 -0.6750  0.7784  1.3268
10438TIP3    H231260   5.673   1.429   5.732 -0.1522  0.8060  1.8276
10439TIP3   OH231261   1.815   2.746   1.457 -0.5501 -0.2504  0.3552
10439TIP3    H131262   1.825   2.781   1.369 -0.7665 -0.3403  0.2928
10439TIP3    H231263   1.873   2.670   1.460 -0.7393 -0.4024  0.2030
10440TIP3   OH231264   5.751   2.493   2.465 -0.3038 -0.4076 -0.2758
10440TIP3    H131265   5.712   2.466   2.382 -1.6577  2.1499 -0.5908
10440TIP3    H231266   5.776   2.411   2.508  0.8402 -1.8212 -3.3336
10441TIP3   OH231267   1.585   7.782   5.404  0.1895  0.4335  0.0533
10441TIP3    H131268   1.627   7.703   5.371 -0.9278 -0.5014  0.7609
10441TIP3    H231269   1.598   7.778   5.499  0.1031  1.0784  0.0930
10442TIP3   OH231270   2.075   7.390   4.752  0.0262  0.0189 -0.2351
10442TIP3    H131271   2.136   7.463   4.747 -0.1435  0.4240  2.4332
10442TIP3    H231272   1.992   7.427   4.721  0.3570  0.3935 -0.6936
10443TIP3   OH231273   5.328   7.250   6.507 -0.1621 -0.3188 -0.0322
10443TIP3    H131274   5.246   7.202   6.523 -0.0793 -0.1025  1.1412
10443TIP3    H231275   5.301   7.328   6.458 -0.3356 -1.3816 -1.7010
10444TIP3   OH231276   5.365   4.948   5.807 -0.7725 -0.2326 -0.0841
10444TIP3    H131277   5.443   5.002   5.818 -0.9831 -0.2232  1.4812
10444TIP3    H231278   5.348   4.950   5.712  0.8792  0.0860 -0.3986
10445TIP3   OH231279   7.768   3.083   1.538 -0.3481  0.0054  0.3386
10445TIP3    H131280   7.759   3.011   1.476  0.5787 -0.1580  0.3772
10445TIP3    H231281   7.702   3.147   1.510  0.6719  0.3504 -1.4070
10446TIP3   OH231282   5.668   7.353   2.085  0.2433  0.2043 -0.3699
10446TIP3    H131283   5.703   7.367   2.173 -0.0711  2.1016 -0.4914
10446TIP3    H231284   5.735   7.390   2.027  0.0444 -0.2317 -0.8865
10447TIP3   OH231285   1.581   4.864   4.169  0.2129  0.4137 -0.0997
10447TIP3    H131286   1.593   4.771   4.188  0.9120  0.6950  0.8915
10447TIP3    H231287   1.631   4.879   4.089 -1.5145 -0.4586 -1.4122
10448TIP3   OH231288   5.519   2.190   0.503 -0.4606  0.0387 -0.4865
10448TIP3    H131289   5.526   2.282   0.529  0.7119 -0.1638 -0.0099
10448TIP3    H231290   5.578   2.182   0.429 -0.7492 -0.2788 -0.6821
10449TIP3   OH231291   6.896   1.898   0.025  0.5119 -0.1603 -0.0197
10449TIP3    H131292   6.804   1.908   0.049  0.6823  0.4012  0.4276
10449TIP3    H231293   6.925   1.821   0.074  0.4590  0.0743  0.3844
10450TIP3   OH231294   5.366   7.415   1.411 -0.5269  0.5350  0.4244
10450TIP3    H131295   5.325   7.429   1.497 -0.5127  0.5549  0.4281
10450TIP3    H231296   5.436   7.352   1.429 -0.6998  0.3283  0.3760
10451TIP3   OH231297   5.055   6.823   3.560  0.1287 -0.3947 -0.4424
10451TIP3    H131298   5.094   6.890   3.616 -1.6605  0.5784 -0.2916
10451TIP3    H231299   4.962   6.824   3.583 -0.2797 -1.4712 -1.9220
10452TIP3   OH231300   6.997   7.282   0.144 -0.0369  0.0763 -0.3019
10452TIP3    H131301   7.051   7.304   0.069 -0.4485  0.0718 -0.6043
10452TIP3    H231302   7.059   7.272   0.216  0.3341  0.3445 -0.5797
10453TIP3   OH231303   5.749   4.367   1.560 -0.1007  0.1109 -0.4276
10453TIP3    H131304   5.805   4.392   1.486 -0.1594  2.2597  0.1873
10453TIP3    H231305   5.743   4.446   1.613 -1.7621 -0.7799  0.8037
10454TIP3   OH231306   1.508   3.592   1.784  0.2717 -0.0175 -0.4665
10454TIP3    H131307   1.555   3.634   1.712 -0.2299 -0.4891 -1.0842
10454TIP3    H231308   1.485   3.664   1.843 -2.1219  0.9373 -2.3644
10455TIP3   OH231309   7.446   5.080   5.357  0.2898 -0.4373 -0.0839
10455TIP3    H131310   7.538   5.068   5.381  0.1300  1.7781  2.0118
10455TIP3    H231311   7.447   5.087   5.261  2.4697  0.6398 -0.0494
10456TIP3   OH231312   1.600   3.586   4.833 -0.6103 -0.5114 -0.3830
10456TIP3    H131313   1.627   3.635   4.912  1.8416 -0.4967 -1.1322
10456TIP3    H231314   1.508   3.607   4.822 -0.4847  1.2172  1.2749
10457TIP3   OH231315   0.376   6.486   1.062  0.0182  0.1315 -1.0424
10457TIP3    H131316   0.285   6.459   1.073 -0.3885  1.2313 -1.5940
10457TIP3    H231317   0.380   6.575   1.098  0.7483  0.2990 -1.5132
10458TIP3   OH231318   1.156   6.572   3.401 -0.1472 -0.3827  0.4927
10458TIP3    H131319   1.084   6.613   3.448  0.7882  2.0088  0.0061
10458TIP3    H231320   1.209   6.646   3.370  1.3056 -1.9815 -1.0493
10459TIP3   OH231321   7.150   0.870   2.981  0.2893 -0.6729 -0.2085
10459TIP3    H131322   7.134   0.953   2.936  1.3684 -0.7087 -0.6939
10459TIP3    H231323   7.186   0.895   3.066  0.1385 -0.6443 -0.1515
10460TIP3   OH231324   5.220   1.185   5.163 -0.3326 -0.1582  0.3094
10460TIP3    H131325   5.257   1.165   5.078  1.2420  1.9065  0.4279
10460TIP3    H231326   5.192   1.277   5.156 -0.8743 -0.1804  1.7774
10461TIP3   OH231327   5.397   5.643   0.776  0.0083 -0.7908  1.0738
10461TIP3    H131328   5.352   5.684   0.702  0.0314 -0.5578  1.1877
10461TIP3    H231329   5.484   5.684   0.776  0.6758 -2.1066  0.0989
10462TIP3   OH231330   3.692   2.156   2.525 -0.4700 -0.8668 -0.1283
10462TIP3    H131331   3.688   2.190   2.435 -2.4861 -1.1915 -0.2175
10462TIP3    H231332   3.785   2.147   2.543  0.0006 -1.9076 -2.6244
10463TIP3   OH231333   3.460   3.596   3.626 -0.0872  0.3923  0.3985
10463TIP3    H131334   3.416   3.615   3.709  0.8232 -2.5847  1.6690
10463TIP3    H231335   3.398   3.627   3.559 -1.0870  2.3482  2.1054
10464TIP3   OH231336   6.349   0.216   3.018  0.2663  0.7529 -0.0413
10464TIP3    H131337   6.294   0.294   3.009  0.9145  1.0611 -1.5063
10464TIP3    H231338   6.434   0.242   2.984  1.5411  0.4384  2.6154
10465TIP3   OH231339   1.485   6.450   4.525  0.0293  0.0231  0.1195
10465TIP3    H131340   1.559   6.431   4.467 -0.0226  0.2277 -0.0132
10465TIP3    H231341   1.480   6.546   4.527 -0.8122  0.0011 -0.6072
10466TIP3   OH231342   5.832   5.429   6.167  0.1580  0.6741  0.6856
10466TIP3    H131343   5.869   5.514   6.146 -0.5737  0.9175  0.3460
10466TIP3    H231344   5.745   5.429   6.126 -0.3933  0.2846  1.7859
10467TIP3   OH231345   4.998   6.191   0.006  0.0071  0.2437 -0.9099
10467TIP3    H131346   5.075   6.143   0.037 -0.2960  0.2326 -0.1639
10467TIP3    H231347   4.928   6.127   0.004 -0.6165  0.8077  0.9313
10468TIP3   OH231348   3.840   6.981   2.227 -0.1361 -0.2439  0.5291
10468TIP3    H131349   3.816   7.065   2.186  0.9165  0.0297  0.4504
10468TIP3    H231350   3.777   6.969   2.297 -0.6901  0.3025  0.1319
10469TIP3   OH231351   5.693   3.782   1.573  0.6592  0.4606  0.1756
10469TIP3    H131352   5.752   3.748   1.506 -1.9392 -2.6220 -0.7836
10469TIP3    H231353   5.609   3.793   1.528 -0.4474  1.1333  2.2633
10470TIP3   OH231354   0.268   3.083   1.564  0.0473 -0.2015  0.4408
10470TIP3    H131355   0.355   3.124   1.572  0.6339 -1.5201  1.0296
10470TIP3    H231356   0.282   3.009   1.506 -1.3555  1.2750 -1.9584
10471TIP3   OH231357   4.763   2.857   6.142 -0.2054  0.3783 -0.0123
10471TIP3    H131358   4.799   2.944   6.156  0.5366  0.1853 -0.6909
10471TIP3    H231359   4.751   2.850   6.047  0.1578 -0.4184 -0.0099
10472TIP3   OH231360   2.025   3.318   1.896  0.5409 -0.0358  0.1569
10472TIP3    H131361   1.986   3.241   1.936  0.9236 -0.3536 -0.0757
10472TIP3    H231362   1.976   3.392   1.933 -0.5692 -0.4412 -0.4551
10473TIP3   OH231363   8.050   5.273   2.438 -0.0198  0.3213  0.2455
10473TIP3    H131364   7.968   5.285   2.391 -0.4209 -2.5485  0.0638
10473TIP3    H231365   8.110   5.336   2.398 -1.2573  0.2499 -1.8163
10474TIP3   OH231366   5.841   3.477   4.753  0.0544 -0.5610 -0.3674
10474TIP3    H131367   5.834   3.419   4.677  0.4586 -2.1830  0.8083
10474TIP3    H231368   5.754   3.517   4.760  0.4235  0.8137 -2.5550
10475TIP3   OH231369   4.122   3.129   5.414  0.4261 -0.2118 -0.1701
10475TIP3    H131370   4.149   3.064   5.479 -0.7033 -0.1756  0.3685
10475TIP3    H231371   4.150   3.213   5.451 -0.2502 -0.1873  0.3179
10476TIP3   OH231372   1.562   2.237   2.999  0.3719 -0.0359  0.2333
10476TIP3    H131373   1.479   2.263   3.038 -1.2151 -1.2060 -2.1536
10476TIP3    H231374   1.596   2.316   2.959 -0.1555  0.2082  0.2585
10477TIP3   OH231375   7.785   3.945   1.948  0.2247  0.3356 -0.0190
10477TIP3    H131376   7.846   3.984   2.010  0.3510  0.3885 -0.1743
10477TIP3    H231377   7.744   3.873   1.996 -0.4539  1.0301  0.4755
10478TIP3   OH231378   6.403   5.848   5.546  0.6957  0.2998 -0.1577
10478TIP3    H131379   6.461   5.810   5.480  1.5303  1.0946  0.1111
10478TIP3    H231380   6.322   5.866   5.499  1.0411  0.1993 -0.8003
10479TIP3   OH231381   4.970   1.086   1.023 -0.4875 -0.1626  0.8197
10479TIP3    H131382   5.059   1.087   0.988 -0.9617 -1.3166 -0.5076
10479TIP3    H231383   4.931   1.167   0.992 -0.6502 -0.8027 -0.7543
10480TIP3   OH231384   3.344   7.194   2.144  0.4614 -0.7081  0.0016
10480TIP3    H131385   3.276   7.128   2.159  0.2079 -0.3080  0.6845
10480TIP3    H231386   3.327   7.227   2.056 -1.0216  0.2545  0.5918
10481TIP3   OH231387   6.802   5.968   1.798  0.4267  0.0860  0.4172
10481TIP3    H131388   6.798   6.041   1.860 -1.0457 -0.9140  1.5727
10481TIP3    H231389   6.838   5.895   1.848 -1.5537 -0.9719  0.3946
10482TIP3   OH231390   4.717   0.607   5.438  0.1890 -0.2118  0.5030
10482TIP3    H131391   4.775   0.660   5.384  0.7841 -0.7744  0.5873
10482TIP3    H231392   4.683   0.541   5.378 -3.6569  2.4467 -0.7086
10483TIP3   OH231393   1.962   1.075   2.217  0.0840  0.5763 -0.8695
10483TIP3    H131394   1.937   1.130   2.142 -0.8420  2.7232  0.9010
10483TIP3    H231395   1.917   1.114   2.291  0.3790 -1.9243  0.7414
10484TIP3   OH231396   0.977   5.021   1.331 -0.5074  0.0825  0.5234
10484TIP3    H131397   0.946   4.933   1.352  0.7149 -0.2808  0.8571
10484TIP3    H231398   0.899   5.077   1.340 -0.8179 -0.6162  2.5226
10485TIP3   OH231399   1.332   3.914   1.256 -0.3304 -0.7266  0.5179
10485TIP3    H131400   1.309   4.005   1.276 -0.7907 -0.3220 -1.5963
10485TIP3    H231401   1.427   3.912   1.259 -0.3240 -0.2323  0.7750
10486TIP3   OH231402   3.777   0.873   4.236  0.2567  0.5390  0.1037
10486TIP3    H131403   3.743   0.789   4.206 -1.5119  1.6953 -1.3545
10486TIP3    H231404   3.871   0.870   4.216  0.0009 -0.6282 -1.0076
10487TIP3   OH231405   5.180   6.042   3.540  0.6632  0.3285 -0.2452
10487TIP3    H131406   5.214   6.131   3.528 -1.0194  0.8636 -1.4552
10487TIP3    H231407   5.143   6.042   3.628  0.7989  0.7667 -0.1848
10488TIP3   OH231408   4.763   1.843   1.520 -0.4885  0.4421 -0.2586
10488TIP3    H131409   4.777   1.812   1.609 -1.8649 -0.4764 -0.3470
10488TIP3    H231410   4.756   1.764   1.468  3.3310  0.8699 -1.7757
10489TIP3   OH231411   1.215   0.936   5.658 -0.1015  0.1726 -0.4026
10489TIP3    H131412   1.203   1.031   5.666 -0.4931  0.0033  1.2968
10489TIP3    H231413   1.289   0.917   5.715 -1.1225 -0.7534  0.6599
10490TIP3   OH231414   1.608   4.942   5.648 -0.2278 -0.3609  0.2615
10490TIP3    H131415   1.557   5.010   5.693  0.0930 -1.3583  2.2658
10490TIP3    H231416   1.699   4.971   5.658 -0.2258  0.1745 -1.1417
10491TIP3   OH231417   7.492   1.964   4.948  0.0589  0.1915 -0.3047
10491TIP3    H131418   7.562   1.979   4.884  0.8651 -0.7257  0.3392
10491TIP3    H231419   7.425   2.028   4.925  0.7927  0.5968 -1.3983
10492TIP3   OH231420   5.994   2.909   1.980 -0.2003 -0.3590  0.3771
10492TIP3    H131421   5.911   2.942   2.014  0.0136 -0.0733  0.6274
10492TIP3    H231422   5.998   2.941   1.890 -0.4131 -0.4702  0.3279
10493TIP3   OH231423   4.170   0.123   3.459 -0.1314  0.3169 -0.0884
10493TIP3    H131424   4.088   0.078   3.478 -0.2666  0.3696 -0.5149
10493TIP3    H231425   4.226   0.057   3.419  0.3370  0.0766  0.9428
10494TIP3   OH231426   1.807   4.160   6.450  0.1815 -0.2010 -0.2135
10494TIP3    H131427   1.846   4.138   6.535  1.0762  1.4142 -0.1506
10494TIP3    H231428   1.874   4.214   6.407 -0.3664 -0.7890 -1.8547
10495TIP3   OH231429   0.108   0.237   3.310 -0.4867 -1.0038  0.2135
10495TIP3    H131430   0.178   0.172   3.299 -0.3077 -1.1856  2.0075
10495TIP3    H231431   0.039   0.209   3.251  0.3080 -1.7679 -0.3854
10496TIP3   OH231432   0.683   6.760   3.651  0.0933  0.1177 -0.1710
10496TIP3    H131433   0.627   6.832   3.681  0.5761 -0.1837  1.5550
10496TIP3    H231434   0.629   6.712   3.589 -1.3455  0.2194  0.9560
10497TIP3   OH231435   3.059   1.739   3.450  0.0490 -0.0932  0.4735
10497TIP3    H131436   3.053   1.824   3.493  0.5995 -0.5162  1.4253
10497TIP3    H231437   3.151   1.714   3.458  0.1108 -0.3262 -0.7059
10498TIP3   OH231438   8.277   6.830   1.392 -0.2608  0.0119  0.1087
10498TIP3    H131439   8.368   6.823   1.364  0.2718  0.2859  1.6948
10498TIP3    H231440   8.229   6.848   1.311  0.9892 -0.7983 -0.8566
10499TIP3   OH231441   0.350   6.729   2.998  0.8654 -0.3031  0.1215
10499TIP3    H131442   0.439   6.748   3.026  0.9465  0.1804 -0.4448
10499TIP3    H231443   0.357   6.648   2.947  1.4263  1.0259 -2.0681
10500TIP3   OH231444   4.503   1.882   2.033  0.0194 -0.1676  0.2519
10500TIP3    H131445   4.509   1.799   2.080  1.1784 -0.9897 -1.2478
10500TIP3    H231446   4.417   1.881   1.992  0.2520 -0.9229 -0.2371
10501TIP3   OH231447   0.178   1.080   1.492 -0.1477  0.8148  0.5865
10501TIP3    H131448   0.112   1.058   1.426  1.2117 -1.5707 -0.0707
10501TIP3    H231449   0.136   1.149   1.544 -2.7108  0.2139 -0.4888
10502TIP3   OH231450   6.715   6.648   5.111  0.2122 -0.1945  0.1237
10502TIP3    H131451   6.789   6.590   5.093  0.8708  0.5499  0.3719
10502TIP3    H231452   6.690   6.683   5.026  0.8117  0.3331  0.1584
10503TIP3   OH231453   0.135   5.005   2.779 -0.1262 -0.6440 -0.2754
10503TIP3    H131454   0.059   4.969   2.734 -1.0622  0.1976  0.6047
10503TIP3    H231455   0.180   5.056   2.711 -2.8155  2.6102  0.1541
10504TIP3   OH231456   5.068  -0.000   0.570 -0.4795 -0.3711 -0.6474
10504TIP3    H131457   5.123   0.041   0.636 -1.5432 -0.0805  0.0968
10504TIP3    H231458   5.017   0.072   0.533 -1.0642 -0.7493 -0.6102
10505TIP3   OH231459   0.013   6.362   4.429  0.2240 -0.2714 -0.5324
10505TIP3    H131460  -0.072   6.343   4.387  0.5128 -0.2900 -1.1183
10505TIP3    H231461   0.063   6.408   4.362  0.4507  0.3252  0.0319
10506TIP3   OH231462   7.757   4.561   2.024 -1.0731  0.4895 -0.1311
10506TIP3    H131463   7.723   4.532   2.109  0.9397 -0.0684  0.5461
10506TIP3    H231464   7.778   4.654   2.037 -2.2840  0.8460 -0.5627
10507TIP3   OH231465   0.611   6.628   3.940  0.7586  0.4550 -0.3098
10507TIP3    H131466   0.573   6.607   4.026  0.3027 -0.6049 -0.7523
10507TIP3    H231467   0.628   6.543   3.900  2.7803  0.8971 -0.5000
10508TIP3   OH231468   4.247   5.344   0.313  0.2125 -0.4723 -0.0722
10508TIP3    H131469   4.245   5.438   0.295  3.5638 -0.3909 -0.4843
10508TIP3    H231470   4.212   5.336   0.402 -1.2194  0.9685 -0.4554
10509TIP3   OH231471   8.216   7.470   4.549  0.6989  0.5767  0.1115
10509TIP3    H131472   8.186   7.561   4.549 -0.6635  0.1615 -1.1411
10509TIP3    H231473   8.142   7.421   4.585  0.4004 -0.2917 -1.5819
10510TIP3   OH231474   0.804   2.409   1.615  0.0203  0.0723  0.1061
10510TIP3    H131475   0.812   2.376   1.705 -1.0737 -0.4905  0.0234
10510TIP3    H231476   0.710   2.421   1.603  0.1853  0.4659 -0.8554
10511TIP3   OH231477   0.670   1.768   1.358  0.4292 -0.2351  0.4057
10511TIP3    H131478   0.664   1.740   1.449 -0.9850  0.8739  0.6996
10511TIP3    H231479   0.660   1.688   1.307 -2.5698 -0.5012  1.2240
10512TIP3   OH231480   4.918   1.167   2.463 -0.3126 -0.0563  0.2734
10512TIP3    H131481   4.924   1.116   2.382 -0.2963  1.5804 -0.7978
10512TIP3    H231482   4.952   1.109   2.530  1.9910 -0.6431 -1.2858
10513TIP3   OH231483   2.565   3.937   2.169 -0.0608  0.0151 -0.7349
10513TIP3    H131484   2.579   3.869   2.104 -0.7507  0.1853 -1.0628
10513TIP3    H231485   2.592   4.018   2.125  0.9736 -0.0549 -0.2725
10514TIP3   OH231486   5.631   2.880   2.210 -0.3752  0.4415 -0.0091
10514TIP3    H131487   5.570   2.813   2.243 -1.0236  1.0318  0.0302
10514TIP3    H231488   5.710   2.869   2.263  0.0423 -1.1655 -0.9060
10515TIP3   OH231489   7.798   2.390   0.602 -0.1109  0.3693  0.0019
10515TIP3    H131490   7.824   2.303   0.633  0.4474  0.0565 -1.2387
10515TIP3    H231491   7.722   2.374   0.547 -0.9665  0.8813  1.0131
10516TIP3   OH231492   7.550   3.195   5.838 -0.4954 -0.0886  0.2574
10516TIP3    H131493   7.549   3.105   5.808 -4.2874 -0.2175  0.3950
10516TIP3    H231494   7.561   3.248   5.759 -0.4195 -0.6171 -0.0837
10517TIP3   OH231495   7.881   1.379   0.485  0.3590  0.4693  0.2007
10517TIP3    H131496   7.853   1.291   0.460  0.6269  1.0152 -2.2685
10517TIP3    H231497   7.803   1.419   0.522 -0.4812 -0.0447 -0.9412
10518TIP3   OH231498   5.841   0.541   6.279 -0.1837 -0.1959  0.6120
10518TIP3    H131499   5.909   0.609   6.277 -1.0843  0.7098  0.0170
10518TIP3    H231500   5.832   0.519   6.372  0.9416 -0.3573  0.6915
10519TIP3   OH231501   0.853   5.993   2.773  0.2451 -0.0063 -0.5044
10519TIP3    H131502   0.758   5.994   2.782  0.2808 -0.4808 -0.0603
10519TIP3    H231503   0.886   5.977   2.861  0.7318  0.0081 -0.6799
10520TIP3   OH231504   6.210   4.816   4.672  0.1974 -0.4282 -0.2568
10520TIP3    H131505   6.167   4.839   4.589 -1.7538  0.2753  0.8870
10520TIP3    H231506   6.165   4.869   4.737  2.2147 -0.3922  1.1924
10521TIP3   OH231507   2.986   4.329   0.026 -0.1631 -0.5626 -0.5920
10521TIP3    H131508   2.982   4.268   0.100  0.6958  0.0739 -0.0051
10521TIP3    H231509   3.074   4.318  -0.009 -0.6526 -1.0428 -1.6939
10522TIP3   OH231510   6.621   2.183   3.385  0.5731 -0.0599  0.6004
10522TIP3    H131511   6.585   2.159   3.300  0.0784 -1.4078  1.1678
10522TIP3    H231512   6.615   2.103   3.437 -1.1598  1.2497  2.6055
10523TIP3   OH231513   3.333   5.650   3.822 -0.4832  0.1505  0.6784
10523TIP3    H131514   3.297   5.737   3.806 -0.2793  0.2786  0.9102
10523TIP3    H231515   3.262   5.601   3.862 -0.0525  0.7660  2.2756
10524TIP3   OH231516   1.602   0.644   4.882 -0.7956  0.0098 -0.4259
10524TIP3    H131517   1.642   0.634   4.796 -0.3779 -0.5969 -0.1736
10524TIP3    H231518   1.508   0.637   4.866 -0.7349  0.1529 -0.8610
10525TIP3   OH231519  -0.004   3.301   2.974  0.2630  0.3383 -0.1738
10525TIP3    H131520   0.037   3.267   3.054 -0.7176 -1.4208 -0.3600
10525TIP3    H231521   0.061   3.361   2.937  1.7150 -0.6245  0.7214
10526TIP3   OH231522   4.228   5.360   1.374 -0.1821 -0.1203 -0.1767
10526TIP3    H131523   4.232   5.397   1.286 -0.7100  0.0203 -0.1441
10526TIP3    H231524   4.135   5.341   1.388  0.1960 -2.8256 -0.7598
10527TIP3   OH231525   2.630   5.529   3.964  0.1515  0.1312  0.7912
10527TIP3    H131526   2.613   5.551   3.873  1.7835  0.2371  0.4868
10527TIP3    H231527   2.551   5.484   3.993 -0.1028 -0.5520 -0.8770
10528TIP3   OH231528   6.437   1.633   1.459 -0.0615 -0.2347 -0.1658
10528TIP3    H131529   6.366   1.576   1.427 -0.7076  0.7870 -0.5938
10528TIP3    H231530   6.508   1.572   1.480 -0.3592 -1.1269 -1.5845
10529TIP3   OH231531   5.286   4.164   1.393 -0.3470  0.2548 -0.1766
10529TIP3    H131532   5.285   4.072   1.418  0.2668 -0.0002 -1.0169
10529TIP3    H231533   5.365   4.200   1.434 -2.0315  1.1726  2.5583
10530TIP3   OH231534   3.319   0.978   5.128 -0.2162 -0.2891 -0.3193
10530TIP3    H131535   3.289   1.035   5.199  0.2938 -0.9141  0.4177
10530TIP3    H231536   3.391   0.928   5.167  1.2972  0.6416 -1.7975
10531TIP3   OH231537   2.665   7.515   0.960  0.3162  0.2493 -0.2339
10531TIP3    H131538   2.591   7.486   1.014  0.0541 -0.3718 -0.9106
10531TIP3    H231539   2.654   7.609   0.952  0.9767  0.5297  1.7109
10532TIP3   OH231540   3.357   2.488   1.412 -0.1168  0.5362 -0.6493
10532TIP3    H131541   3.338   2.517   1.323 -3.7929 -0.4906 -0.3451
10532TIP3    H231542   3.295   2.417   1.429  0.6194  0.4956  2.6518
10533TIP3   OH231543   5.933   1.931   5.877 -0.4342  0.1835 -0.1347
10533TIP3    H131544   5.949   1.836   5.875  1.0922  0.4056 -2.6332
10533TIP3    H231545   5.974   1.964   5.797 -2.0739  2.8039 -0.0193
10534TIP3   OH231546   5.289   4.693   4.980 -0.3261  1.0784 -0.3125
10534TIP3    H131547   5.315   4.630   5.047  0.1835  2.1283  0.5243
10534TIP3    H231548   5.352   4.681   4.909  1.1303  2.0589  0.7429
10535TIP3   OH231549   0.412   5.948   1.908  0.5441 -0.0118  0.3451
10535TIP3    H131550   0.380   6.021   1.855  0.8953  1.8039  2.4815
10535TIP3    H231551   0.507   5.952   1.898  0.6529  0.7204  1.5128
10536TIP3   OH231552   1.181   2.164   1.503 -0.0830  0.2085  0.1463
10536TIP3    H131553   1.217   2.253   1.507  0.9882 -0.2048 -0.1150
10536TIP3    H231554   1.238   2.112   1.559 -0.2193 -0.4783 -0.3408
10537TIP3   OH231555   4.839   5.645   1.177  0.0129 -0.0178 -0.5073
10537TIP3    H131556   4.795   5.561   1.193  1.1985 -1.0578 -2.4196
10537TIP3    H231557   4.867   5.640   1.086  1.6172  1.7679 -0.1553
10538TIP3   OH231558   2.649   6.250   3.852 -0.8745  0.8064  0.4500
10538TIP3    H131559   2.661   6.218   3.763  1.4076 -0.4022  1.1146
10538TIP3    H231560   2.592   6.184   3.893  0.5551 -0.3442  0.6830
10539TIP3   OH231561   2.954   1.285   0.593  0.2168  0.2827  0.6427
10539TIP3    H131562   2.976   1.299   0.685  3.1439  0.1657  0.0420
10539TIP3    H231563   2.994   1.201   0.571 -0.4466  0.3058 -0.7510
10540TIP3   OH231564   4.501   1.147   0.943  0.0997  0.5508  0.3943
10540TIP3    H131565   4.545   1.202   0.878 -0.4465  1.1967  0.5624
10540TIP3    H231566   4.431   1.104   0.895  1.4784 -1.2418 -0.1030
10541TIP3   OH231567   2.087   6.041   6.533  0.2638  0.5459 -0.3783
10541TIP3    H131568   2.074   5.991   6.613  2.1444  1.5276  0.5912
10541TIP3    H231569   2.020   6.008   6.473 -0.7665 -0.6632  1.3620
10542TIP3   OH231570   5.374   4.359   3.841 -0.2453 -0.3383 -0.7547
10542TIP3    H131571   5.280   4.364   3.824 -0.4003  1.6958  0.4388
10542TIP3    H231572   5.380   4.354   3.936  0.8731  1.8310 -0.6540
10543TIP3   OH231573   6.567   2.551   5.040  0.1119 -0.1911 -0.7120
10543TIP3    H131574   6.493   2.561   5.100  0.0763 -0.2251 -0.7506
10543TIP3    H231575   6.538   2.591   4.958  0.4882  0.6529 -0.4442
10544TIP3   OH231576   4.447   4.020   3.382 -0.0183  0.1924 -0.0211
10544TIP3    H131577   4.518   4.084   3.388  2.7698 -2.5017 -1.2633
10544TIP3    H231578   4.413   4.029   3.293 -0.6875  0.9271  0.3022
10545TIP3   OH231579   7.316   3.329   2.094  0.2408  0.4472 -0.6636
10545TIP3    H131580   7.329   3.319   2.000 -1.3490  0.4087 -0.8983
10545TIP3    H231581   7.391   3.284   2.133  0.4198 -0.3672 -1.8844
10546TIP3   OH231582   5.442   5.928   1.596  0.0065  0.0317 -0.3151
10546TIP3    H131583   5.374   5.995   1.587 -1.8304 -1.5606  0.9828
10546TIP3    H231584   5.402   5.848   1.562 -0.3956 -1.8720  4.0001
10547TIP3   OH231585   1.753   1.962   0.742 -0.3609 -0.2819 -0.6474
10547TIP3    H131586   1.695   1.961   0.666  1.3314 -0.1888 -2.0012
10547TIP3    H231587   1.772   2.054   0.757  0.6148 -0.3737 -1.1980
10548TIP3   OH231588   0.287   4.030   0.174  0.1978  0.8104 -0.8528
10548TIP3    H131589   0.192   4.027   0.185  0.2487  0.7425 -0.3957
10548TIP3    H231590   0.310   4.122   0.190  0.2986  0.6667 -0.1256
10549TIP3   OH231591   4.479   2.665   4.729  0.2375  0.1164 -0.1571
10549TIP3    H131592   4.473   2.579   4.686 -2.1363  0.1160  0.0505
10549TIP3    H231593   4.427   2.655   4.809  0.4058  1.6155  0.1581
10550TIP3   OH231594   6.526   2.542   4.244 -0.3290 -0.0796  0.1367
10550TIP3    H131595   6.466   2.611   4.215  0.1330  1.2803  2.2076
10550TIP3    H231596   6.472   2.463   4.249 -0.9579  0.1755 -1.8894
10551TIP3   OH231597   3.570   6.187   5.530  0.8930  0.2751 -0.1846
10551TIP3    H131598   3.585   6.202   5.623  0.9709  0.6668 -0.2567
10551TIP3    H231599   3.651   6.148   5.498  0.9766  0.4236 -0.1504
10552TIP3   OH231600   2.932   3.498   1.872  0.2842 -0.0596 -0.3136
10552TIP3    H131601   2.985   3.532   1.944  0.6478 -0.4367 -0.3985
10552TIP3    H231602   2.967   3.540   1.794  0.0820  0.1254 -0.3064
10553TIP3   OH231603   7.138   0.402   2.099 -0.1049 -0.0475 -0.1459
10553TIP3    H131604   7.049   0.367   2.105  0.7050 -2.6285 -1.2920
10553TIP3    H231605   7.158   0.400   2.005  1.0375  0.8103  0.0615
10554TIP3   OH231606   1.441   6.204   5.314  0.7483 -0.1820  0.4781
10554TIP3    H131607   1.411   6.258   5.240  0.7610  0.1438  0.7087
10554TIP3    H231608   1.534   6.190   5.297  0.6635 -0.4431  0.2248
10555TIP3   OH231609   0.301   0.368   5.935  0.4925 -0.5218  0.1764
10555TIP3    H131610   0.238   0.388   5.866  1.0470  1.7708  0.2801
10555TIP3    H231611   0.289   0.437   6.000  1.4443 -1.4420  1.3850
10556TIP3   OH231612   5.818   5.123   6.780  0.7342 -0.4252 -0.0678
10556TIP3    H131613   5.843   5.130   6.688  1.2227  0.3515  0.1058
10556TIP3    H231614   5.776   5.038   6.788 -2.9277  1.0410 -1.8370
10557TIP3   OH231615   7.351   5.104   2.183  0.4131 -0.5026  0.0056
10557TIP3    H131616   7.272   5.138   2.142  0.1737 -0.6448  0.3449
10557TIP3    H231617   7.348   5.009   2.168  0.0426 -0.6275  0.8211
10558TIP3   OH231618   1.362   6.583   0.349  0.3288 -0.1434  0.2997
10558TIP3    H131619   1.328   6.504   0.306 -0.7602  0.7815 -0.6062
10558TIP3    H231620   1.456   6.581   0.330  0.3069 -1.1717  0.2266
10559TIP3   OH231621   6.209   3.769   0.236 -0.1367  0.2876 -0.2103
10559TIP3    H131622   6.291   3.818   0.230  0.0680 -0.0747 -0.3783
10559TIP3    H231623   6.236   3.680   0.261 -0.5330  0.3537  0.4869
10560TIP3   OH231624   0.454   3.144   0.908 -0.0716  0.4403 -0.6503
10560TIP3    H131625   0.474   3.060   0.950  0.3715  1.2376  0.7686
10560TIP3    H231626   0.377   3.177   0.954  0.8928  1.7034  0.1031
10561TIP3   OH231627   7.393   2.044   6.224 -0.2897 -0.3455 -0.2879
10561TIP3    H131628   7.347   2.042   6.140  0.9550 -0.3566 -0.9948
10561TIP3    H231629   7.357   1.969   6.272 -0.4932 -0.7949 -1.1125
10562TIP3   OH231630   1.043   0.902   0.749  0.4717 -0.4826 -0.2766
10562TIP3    H131631   1.009   0.990   0.736  0.8271  0.2444  2.9247
10562TIP3    H231632   1.137   0.913   0.761  0.4358 -1.1731  0.8142
10563TIP3   OH231633   3.464   5.357   6.047 -0.1558  0.4229  0.8375
10563TIP3    H131634   3.451   5.449   6.024  0.7166  0.5054  0.6367
10563TIP3    H231635   3.411   5.309   5.983 -1.3221  0.7964  1.4821
10564TIP3   OH231636   7.008   7.048   5.867 -0.0236 -0.6130 -0.2763
10564TIP3    H131637   7.059   7.096   5.802  0.1236 -2.6741 -1.7734
10564TIP3    H231638   7.037   6.957   5.859 -0.1883 -1.0126  2.5248
10565TIP3   OH231639   4.485   3.092   1.027  0.4924 -0.0599 -0.3837
10565TIP3    H131640   4.541   3.169   1.019  0.4485  0.2627  1.7752
10565TIP3    H231641   4.418   3.103   0.959  0.9617  1.3694 -0.6358
10566TIP3   OH231642   1.810   1.786   1.103 -0.5875  0.1553  0.0981
10566TIP3    H131643   1.761   1.748   1.030 -0.5336  3.0807 -1.6520
10566TIP3    H231644   1.882   1.726   1.119 -0.5345 -0.5275 -2.3868
10567TIP3   OH231645   3.718   0.649   3.672  0.6791  0.1642  0.4968
10567TIP3    H131646   3.759   0.653   3.758  1.4648  0.6180  0.1103
10567TIP3    H231647   3.698   0.739   3.649 -0.4350 -0.0369  0.6163
10568TIP3   OH231648   5.953   4.175   6.121  0.5217  0.3989  0.4536
10568TIP3    H131649   5.972   4.102   6.180 -1.8746  0.9563  2.0692
10568TIP3    H231650   5.863   4.199   6.142  0.1803  1.7980 -2.2596
10569TIP3   OH231651   7.343   5.272   2.440  0.1334  0.5620 -0.2203
10569TIP3    H131652   7.311   5.256   2.351 -1.9275  2.0081  0.1813
10569TIP3    H231653   7.267   5.305   2.487  1.2762  0.1999  2.0062
10570TIP3   OH231654   6.622   3.333   2.064  0.3827 -0.0744 -0.2369
10570TIP3    H131655   6.630   3.319   2.158  0.3521  1.7244  0.0653
10570TIP3    H231656   6.639   3.247   2.025 -0.6483 -1.0797  1.4440
10571TIP3   OH231657   4.663   1.527   3.261  0.2177 -1.2476  0.2292
10571TIP3    H131658   4.666   1.623   3.267 -0.7810 -1.2831  1.8577
10571TIP3    H231659   4.726   1.506   3.192 -0.5778  0.6457 -1.1651
10572TIP3   OH231660   2.178   5.342   1.656  0.0508  0.0271  0.3966
10572TIP3    H131661   2.096   5.356   1.703 -0.2298  1.1313 -0.3816
10572TIP3    H231662   2.204   5.253   1.679 -1.4619 -0.4118  0.5035
10573TIP3   OH231663   2.317   3.469   2.281 -1.0447 -0.1726 -0.2029
10573TIP3    H131664   2.356   3.383   2.297  0.1813  0.6725  1.6364
10573TIP3    H231665   2.371   3.507   2.211 -1.5842 -0.8553 -1.0134
10574TIP3   OH231666   5.795   2.188   4.353 -0.6052  0.2942  0.0447
10574TIP3    H131667   5.866   2.206   4.291 -1.0854  0.0175 -0.5994
10574TIP3    H231668   5.741   2.266   4.351  0.5288  1.1818  1.7580
10575TIP3   OH231669   2.143   1.292   1.274 -0.4123 -0.0894 -0.2925
10575TIP3    H131670   2.180   1.322   1.357 -1.1515  0.4976 -0.1705
10575TIP3    H231671   2.080   1.225   1.298  0.8233 -1.3902 -0.5293
10576TIP3   OH231672   4.258   2.542   5.023 -0.0974 -0.4412  0.2364
10576TIP3    H131673   4.301   2.499   4.949 -1.8479  1.0496 -1.7633
10576TIP3    H231674   4.177   2.493   5.035 -0.3214 -0.0273  0.4434
10577TIP3   OH231675   6.116   2.900   4.944  0.4541 -0.4263 -0.6351
10577TIP3    H131676   6.059   2.826   4.963 -0.5256  0.2880 -0.7356
10577TIP3    H231677   6.133   2.941   5.029  0.6772 -0.5258 -0.6292
10578TIP3   OH231678   3.647   5.277   3.869 -0.1082  0.3394 -0.8049
10578TIP3    H131679   3.740   5.258   3.877 -0.3851 -0.2229  2.0673
10578TIP3    H231680   3.643   5.352   3.809  2.0230 -0.5167 -2.1417
10579TIP3   OH231681   0.707   5.149   5.314  0.3019  0.5407 -0.0589
10579TIP3    H131682   0.655   5.182   5.241 -1.1455 -1.1205  0.1672
10579TIP3    H231683   0.643   5.121   5.378  1.5434  1.2904  1.5846
10580TIP3   OH231684   6.003   6.123   2.580 -0.4843 -0.1003 -0.4593
10580TIP3    H131685   5.942   6.049   2.586  1.5473 -1.8234  0.3304
10580TIP3    H231686   5.958   6.195   2.624 -1.7745 -1.4382  0.5227
10581TIP3   OH231687   3.171   1.507   0.687 -0.2313 -0.0553 -0.2722
10581TIP3    H131688   3.142   1.422   0.720 -1.0135  0.4663  0.4164
10581TIP3    H231689   3.105   1.569   0.717 -1.0610  0.4589 -2.8935
10582TIP3   OH231690   1.269   2.457   0.518  0.5379  0.0005  0.0444
10582TIP3    H131691   1.329   2.442   0.445  1.2491  2.9803 -0.1205
10582TIP3    H231692   1.206   2.385   0.513  2.7930 -2.0445 -1.0972
10583TIP3   OH231693   4.369   0.913   2.002 -0.2459  0.0229  1.0591
10583TIP3    H131694   4.321   0.830   2.012 -0.9072  0.1802 -0.5831
10583TIP3    H231695   4.301   0.978   1.988  0.3671  0.5497  0.5063
10584TIP3   OH231696   0.093   0.384   1.069  0.2764 -0.3715 -0.2750
10584TIP3    H131697   0.035   0.429   1.131  1.3151  1.3818 -0.4933
10584TIP3    H231698   0.064   0.414   0.983 -0.0271 -1.4166 -0.5541
10585TIP3   OH231699   2.810   0.673   1.181 -0.3471 -0.8830 -1.5028
10585TIP3    H131700   2.736   0.726   1.150 -1.8364 -2.6480 -1.1761
10585TIP3    H231701   2.776   0.628   1.259  1.2302 -1.4224 -1.0957
10586TIP3   OH231702   1.450   3.330   0.689  0.5110  0.5655 -0.0771
10586TIP3    H131703   1.431   3.264   0.623 -0.1944  1.1478 -0.4696
10586TIP3    H231704   1.455   3.281   0.771 -0.1736  0.0518 -0.3377
10587TIP3   OH231705   7.302   6.814   1.850  0.6136  0.1714 -0.0736
10587TIP3    H131706   7.317   6.819   1.756  0.9712  2.8656  0.0681
10587TIP3    H231707   7.207   6.822   1.859  0.6105  0.2744 -0.1929
10588TIP3   OH231708   5.699   5.243   1.019  0.1571  0.3151  0.3869
10588TIP3    H131709   5.684   5.151   1.040  1.2257  0.3170  1.2462
10588TIP3    H231710   5.750   5.277   1.093 -1.8262  2.1064  1.0151
10589TIP3   OH231711   1.335   7.062   1.450  0.1743  0.4209 -0.7325
10589TIP3    H131712   1.402   7.053   1.519  1.7085 -0.9950 -2.3192
10589TIP3    H231713   1.359   7.141   1.403 -1.7508  2.2568  1.1522
10590TIP3   OH231714   0.757   5.426   1.404 -0.1352  0.3366 -0.0576
10590TIP3    H131715   0.769   5.379   1.322  0.7402  1.5320 -0.6413
10590TIP3    H231716   0.664   5.418   1.424 -0.1693 -0.8394 -0.6072
10591TIP3   OH231717   7.925   5.670   5.972 -0.8063  0.5311  0.4560
10591TIP3    H131718   7.851   5.641   6.026 -1.1551  0.5202 -0.0152
10591TIP3    H231719   7.888   5.678   5.884 -0.8084  2.7142  0.5985
10592TIP3   OH231720   6.408   2.159   0.281  0.4773 -0.3291 -0.2030
10592TIP3    H131721   6.421   2.125   0.192  0.1308  2.1633 -1.2724
10592TIP3    H231722   6.406   2.254   0.271  1.7922  0.1153  2.6731
10593TIP3   OH231723   7.831   4.922   0.630 -0.4513 -0.1953 -0.3957
10593TIP3    H131724   7.808   4.873   0.709 -0.5121  0.2657 -0.1246
10593TIP3    H231725   7.801   4.866   0.558 -1.5281 -0.0767 -0.0691
10594TIP3   OH231726   5.879   2.603   2.041  0.0492 -0.4423  0.0830
10594TIP3    H131727   5.940   2.537   2.074 -0.1951 -0.6305  0.1625
10594TIP3    H231728   5.910   2.623   1.952 -0.2058 -1.0846 -0.1589
10595TIP3   OH231729   3.919   4.613   2.356  0.1618  0.0773  0.3044
10595TIP3    H131730   3.885   4.692   2.313 -0.5561 -0.9352 -1.0462
10595TIP3    H231731   3.846   4.581   2.410  0.3863  0.2079  0.6930
10596TIP3   OH231732   0.945   1.157   4.852 -0.1866 -0.6047  0.2289
10596TIP3    H131733   0.980   1.080   4.897 -1.9211 -0.7777  1.3502
10596TIP3    H231734   0.937   1.130   4.761  0.1151 -1.4222  0.4360
10597TIP3   OH231735   3.540   4.196   1.603  0.0867 -0.1127 -0.2542
10597TIP3    H131736   3.600   4.122   1.601  0.3276  0.0251  0.8181
10597TIP3    H231737   3.488   4.183   1.683  1.7058  2.0240  1.2587
10598TIP3   OH231738   4.120   6.509   0.537  0.1165 -0.0086  0.0007
10598TIP3    H131739   4.147   6.494   0.446  2.1053 -1.1458  0.7089
10598TIP3    H231740   4.083   6.425   0.566 -0.3371  0.2883  0.2990
10599TIP3   OH231741   6.773   4.724   4.181 -0.1396 -0.2006  0.4312
10599TIP3    H131742   6.837   4.742   4.250  1.0402 -1.0796 -0.3861
10599TIP3    H231743   6.714   4.799   4.184 -0.6063 -0.5627  2.8845
10600TIP3   OH231744   2.564   0.566   1.050 -0.0568  0.1919 -0.0331
10600TIP3    H131745   2.567   0.585   1.144  0.6803  0.7308 -0.1577
10600TIP3    H231746   2.628   0.496   1.038 -0.9254 -0.6379  0.0210
10601TIP3   OH231747   6.379   5.710   1.588 -0.5765 -0.0927  0.8794
10601TIP3    H131748   6.441   5.645   1.557 -0.7257  0.9745 -1.9293
10601TIP3    H231749   6.432   5.773   1.637  0.3063 -0.0205 -0.1391
10602TIP3   OH231750   1.696   0.763   3.784  0.0759 -0.3282 -0.3868
10602TIP3    H131751   1.757   0.720   3.845 -0.4847  0.2661  0.6318
10602TIP3    H231752   1.688   0.852   3.818 -0.7902 -0.1888 -0.9259
10603TIP3   OH231753   6.421   0.323   1.670  0.3335  0.6694  0.6816
10603TIP3    H131754   6.415   0.270   1.590  0.1384  2.6430 -0.6733
10603TIP3    H231755   6.451   0.261   1.737  0.7163 -1.0096 -0.9496
10604TIP3   OH231756   1.852   6.732   0.623  0.6184 -0.4279  0.6479
10604TIP3    H131757   1.759   6.717   0.607  0.7180 -1.1497  0.6853
10604TIP3    H231758   1.896   6.666   0.568  1.1289  0.3137  0.1474
10605TIP3   OH231759   5.699   5.358   0.205 -0.5785 -0.1256  0.0450
10605TIP3    H131760   5.614   5.360   0.160 -0.0988 -1.0729 -0.9703
10605TIP3    H231761   5.677   5.368   0.298 -1.8102 -0.3485 -0.1955
10606TIP3   OH231762   4.920   0.021   0.853 -1.0928 -0.0519 -0.0139
10606TIP3    H131763   4.980   0.092   0.872 -0.1616 -0.9824  0.6269
10606TIP3    H231764   4.838   0.046   0.896 -0.9366  0.8576 -0.2331
10607TIP3   OH231765   5.281   7.749   0.440  0.0982  0.2345  0.3769
10607TIP3    H131766   5.287   7.823   0.380 -1.1451 -1.4678 -2.0688
10607TIP3    H231767   5.199   7.763   0.487  0.7886  1.2909  1.3182
10608TIP3   OH231768   0.733   2.591   0.249 -0.4676  0.0240  0.0870
10608TIP3    H131769   0.667   2.661   0.251 -0.4356  0.0805  2.7665
10608TIP3    H231770   0.760   2.587   0.157 -2.0758  1.9951 -0.5666
10609TIP3   OH231771   4.452   5.533   1.981  0.1733 -0.1893 -0.3541
10609TIP3    H131772   4.497   5.607   2.022  0.5497 -1.4148  1.5853
10609TIP3    H231773   4.369   5.527   2.028  0.2610 -1.1450 -0.3017
10610TIP3   OH231774   0.970   5.775   0.290  0.1492 -0.3399 -0.2987
10610TIP3    H131775   0.888   5.775   0.241 -0.4189 -0.7840  0.6242
10610TIP3    H231776   0.943   5.784   0.381  1.1535 -0.1168 -0.0127
10611TIP3   OH231777   4.615   4.343   5.524  0.8354  0.1319 -0.0467
10611TIP3    H131778   4.711   4.341   5.525  0.8738  1.2787 -0.2796
10611TIP3    H231779   4.592   4.404   5.593  0.3526  1.4079 -1.2810
10612TIP3   OH231780   6.914   4.502   4.656  0.4348 -0.3525  0.2981
10612TIP3    H131781   7.003   4.483   4.625 -0.3460  0.0492 -2.3963
10612TIP3    H231782   6.927   4.553   4.736  2.6208 -0.1355 -0.1314
10613TIP3   OH231783   4.117   0.843   1.810  0.3662  0.1192 -0.3439
10613TIP3    H131784   4.178   0.781   1.770  1.6425  1.7613 -1.0572
10613TIP3    H231785   4.137   0.927   1.769 -0.5693  1.2381  1.3534
10614TIP3   OH231786   6.271   7.017   6.055 -0.3176  0.4178  0.5800
10614TIP3    H131787   6.196   7.026   6.114 -0.4880 -0.8263  0.5705
10614TIP3    H231788   6.231   6.997   5.970  0.0037  0.4495  0.4211
10615TIP3   OH231789   5.193   7.855   1.437  0.2458  0.1158 -0.9487
10615TIP3    H131790   5.279   7.811   1.437 -0.5709 -1.6608  1.1437
10615TIP3    H231791   5.142   7.805   1.373 -0.3052 -1.3384  0.5408
10616TIP3   OH231792   5.900   1.590   6.244  0.9504 -0.3051 -0.5638
10616TIP3    H131793   5.986   1.632   6.250  0.8229 -0.0609 -0.4233
10616TIP3    H231794   5.872   1.607   6.154  0.1490  1.4108 -0.0224
10617TIP3   OH231795   7.000   7.254   0.421 -0.0865 -0.3481 -0.5350
10617TIP3    H131796   6.992   7.283   0.512  1.7722 -0.9813 -0.1253
10617TIP3    H231797   7.085   7.210   0.417 -0.4782 -1.0330 -2.4015
10618TIP3   OH231798   2.382   6.092   1.030 -0.1398 -0.1304 -0.1000
10618TIP3    H131799   2.439   6.149   0.979  0.5036 -2.3817 -2.1333
10618TIP3    H231800   2.426   6.007   1.028 -2.6527 -1.5423 -0.2303
10619TIP3   OH231801   3.985   3.227   1.387  0.3585 -0.0546 -0.2408
10619TIP3    H131802   4.026   3.296   1.335 -1.2810  0.3757 -1.0619
10619TIP3    H231803   4.039   3.219   1.465  2.3024  0.0332 -1.5109
10620TIP3   OH231804   6.970   2.104   1.549  0.1674 -0.1840  0.0784
10620TIP3    H131805   6.988   2.051   1.626 -2.7156 -1.5274 -0.0314
10620TIP3    H231806   6.951   2.040   1.480  2.3360  0.9833 -1.7265
10621TIP3   OH231807   1.903   1.189   2.468 -0.3611 -0.2052  0.4276
10621TIP3    H131808   1.827   1.144   2.504  0.3281 -0.5220  1.5368
10621TIP3    H231809   1.965   1.195   2.541  0.5531  0.3390 -0.3580
10622TIP3   OH231810   5.287   6.147   1.524 -0.0422 -0.3329  0.2683
10622TIP3    H131811   5.319   6.228   1.484  0.2371  0.0787  1.3105
10622TIP3    H231812   5.206   6.128   1.478  0.4342 -0.0490 -0.7198
10623TIP3   OH231813   1.945   7.154   0.435  0.0291  0.3063 -0.1230
10623TIP3    H131814   1.924   7.245   0.455  0.6662  0.4059  0.1293
10623TIP3    H231815   1.997   7.159   0.355 -1.0497  0.0477 -0.8594
10624TIP3   OH231816   7.430   6.471   2.341  0.3772  0.3375  0.2274
10624TIP3    H131817   7.460   6.545   2.288 -0.6015  0.2996 -0.4142
10624TIP3    H231818   7.338   6.489   2.357  0.5273  0.0696  1.4796
10625TIP3   OH231819   6.420   1.362  -0.024 -0.4463  0.0789  0.5241
10625TIP3    H131820   6.474   1.308   0.034 -0.4738  0.9116  1.3411
10625TIP3    H231821   6.332   1.352   0.011 -0.7673 -0.8461 -0.4833
10626TIP3   OH231822   5.916   0.721   3.818  0.0309  0.2677 -0.2339
10626TIP3    H131823   5.885   0.811   3.809  1.7757  0.9367  0.1632
10626TIP3    H231824   5.964   0.721   3.901 -0.0301 -1.0642 -0.1834
10627TIP3   OH231825   0.025   1.029   1.001 -0.0461  0.3381 -0.5441
10627TIP3    H131826   0.091   1.058   0.937  0.4839 -0.8546 -0.5681
10627TIP3    H231827  -0.052   1.009   0.948  0.1079  0.1853 -0.7120
10628TIP3   OH231828   1.526   7.486   2.422  0.5734  0.2597  0.0016
10628TIP3    H131829   1.556   7.564   2.468  0.1074  0.5348 -0.1563
10628TIP3    H231830   1.443   7.463   2.464  0.2595  0.3764 -0.5464
10629TIP3   OH231831   5.726   7.047   4.626  0.1126  0.4578  0.6028
10629TIP3    H131832   5.724   6.985   4.553 -0.1820  0.3964  0.6630
10629TIP3    H231833   5.788   7.009   4.688 -0.1585  0.1608  0.6946
10630TIP3   OH231834   6.010   2.398   0.449 -0.0441  0.0528 -0.3577
10630TIP3    H131835   6.036   2.306   0.445  1.0056  0.3233 -0.0491
10630TIP3    H231836   6.093   2.446   0.442 -0.5110  0.9567  0.2197
10631TIP3   OH231837   8.213   0.623   3.648 -0.4006  0.2770 -0.4615
10631TIP3    H131838   8.182   0.712   3.629 -1.1205  0.2707  0.5953
10631TIP3    H231839   8.142   0.566   3.618 -1.2082  0.2301  1.3725
10632TIP3   OH231840   7.633   5.784   5.326 -0.6662  0.0465 -0.1042
10632TIP3    H131841   7.656   5.807   5.236  1.3472 -1.6048 -0.0793
10632TIP3    H231842   7.713   5.746   5.363 -1.7557 -0.3385  2.0391
10633TIP3   OH231843   3.103   7.188   4.106  0.0395  0.0160 -0.3211
10633TIP3    H131844   3.112   7.161   4.197 -2.3423 -1.6660 -0.5216
10633TIP3    H231845   3.025   7.244   4.105 -1.0254 -1.4165 -1.5526
10634TIP3   OH231846   7.274   1.938   5.823 -0.7900  0.0392 -0.2656
10634TIP3    H131847   7.237   1.862   5.778  0.1376 -0.6190  0.0355
10634TIP3    H231848   7.258   2.011   5.764  0.0942 -0.7457 -1.5485
10635TIP3   OH231849   5.454   2.002   0.762  0.2008  0.0738  0.4606
10635TIP3    H131850   5.438   1.975   0.852 -0.9885  0.2131  0.2962
10635TIP3    H231851   5.518   1.939   0.730  1.4427  0.6297  1.7045
10636TIP3   OH231852   6.378   3.932   4.599  0.3141  0.2951 -0.1322
10636TIP3    H131853   6.337   3.925   4.512  2.3134 -1.5549 -1.0234
10636TIP3    H231854   6.441   4.003   4.591 -1.8832  2.5540  0.9864
10637TIP3   OH231855   2.318   7.453   1.306 -0.9526  0.0420 -0.1859
10637TIP3    H131856   2.322   7.455   1.402  0.1574 -3.6736  0.0217
10637TIP3    H231857   2.233   7.413   1.287 -0.5277 -0.6653 -0.6381
10638TIP3   OH231858   5.733   0.526   1.714  0.4964 -0.5376 -0.2326
10638TIP3    H131859   5.821   0.504   1.683  0.9820  1.1678 -0.1382
10638TIP3    H231860   5.735   0.504   1.807  0.7043 -0.8343 -0.3033
10639TIP3   OH231861   3.129   0.814   1.378  0.0324 -0.0018 -0.9332
10639TIP3    H131862   3.061   0.799   1.443  0.5179 -1.4819 -0.7239
10639TIP3    H231863   3.092   0.880   1.319 -0.2903  1.6523  0.9917
10640TIP3   OH231864   4.824   3.802   6.636 -0.8899  0.8277  0.1091
10640TIP3    H131865   4.820   3.890   6.600  1.4224  1.1566  0.5148
10640TIP3    H231866   4.898   3.804   6.696 -0.3286 -1.5918 -0.4017
10641TIP3   OH231867   4.769   1.855   1.880  0.7627  0.7837  0.1723
10641TIP3    H131868   4.801   1.791   1.943  1.0736 -0.9473 -1.6503
10641TIP3    H231869   4.674   1.856   1.893  0.9287  1.4175  1.4912
10642TIP3   OH231870   1.476   6.081   5.741  0.7638  0.0817  0.7859
10642TIP3    H131871   1.555   6.135   5.731  2.0779 -1.9410 -0.6945
10642TIP3    H231872   1.430   6.091   5.657  0.2502  0.0602  1.0633
10643TIP3   OH231873   2.488   1.453   2.890 -0.0868 -0.2071 -0.1411
10643TIP3    H131874   2.424   1.421   2.826  0.5032 -0.1514 -0.7769
10643TIP3    H231875   2.544   1.377   2.907  0.1884 -0.0285 -0.2392
10644TIP3   OH231876   2.588   2.357   0.925  0.1491  0.3311 -0.2388
10644TIP3    H131877   2.598   2.293   0.996 -1.7420 -1.8048 -1.7284
10644TIP3    H231878   2.590   2.442   0.969 -0.4908 -0.8627  2.3227
10645TIP3   OH231879   6.891   3.011   3.883 -0.7457 -0.3348 -0.1923
10645TIP3    H131880   6.953   2.950   3.922 -0.3483 -0.4334 -0.9594
10645TIP3    H231881   6.805   2.984   3.917 -0.3082  0.3385  1.5669
10646TIP3   OH231882   7.847   5.427   4.014 -0.3702  0.4245 -0.4771
10646TIP3    H131883   7.882   5.415   4.103 -0.1105 -0.9409 -0.7426
10646TIP3    H231884   7.887   5.357   3.963  0.6066  2.0158 -2.0390
10647TIP3   OH231885   1.104   1.538   0.705 -0.0490 -0.4389 -0.4358
10647TIP3    H131886   1.039   1.511   0.640 -0.2567  1.5646 -1.1460
10647TIP3    H231887   1.187   1.542   0.657  0.7183 -3.0569  0.4821
10648TIP3   OH231888   7.517   5.517   1.677  0.9042  0.0793 -0.0326
10648TIP3    H131889   7.515   5.610   1.700  1.8756  0.1278 -0.1068
10648TIP3    H231890   7.429   5.499   1.643  0.8442  1.0834 -0.4541
10649TIP3   OH231891   2.264   6.476   5.601 -0.3162  0.7588 -0.4701
10649TIP3    H131892   2.242   6.521   5.519  0.5453  1.5213 -0.3012
10649TIP3    H231893   2.293   6.389   5.574 -0.2100  0.9422 -0.9556
10650TIP3   OH231894   3.132   5.930   4.134  0.2155 -0.3059  0.1185
10650TIP3    H131895   3.188   5.852   4.133  0.4740 -0.1148 -0.5008
10650TIP3    H231896   3.168   5.986   4.066  0.7035  0.8334  1.2868
10651TIP3   OH231897   2.656   0.284   3.651 -0.5921 -0.2658  0.3170
10651TIP3    H131898   2.698   0.231   3.719 -0.6604  0.4323  0.9185
10651TIP3    H231899   2.729   0.328   3.607 -0.5305 -0.8985 -0.2265
10652TIP3   OH231900   6.338   7.723   4.971 -0.0107 -0.1303 -0.1229
10652TIP3    H131901   6.333   7.663   5.044  0.9102 -1.1285 -0.8530
10652TIP3    H231902   6.344   7.667   4.893 -1.2079  0.8865 -1.0016
10653TIP3   OH231903   3.949   5.707   1.416  0.5928  0.2129 -0.3997
10653TIP3    H131904   3.899   5.782   1.447  1.1483  0.2919  0.3047
10653TIP3    H231905   4.037   5.741   1.399  0.4517  0.0539 -1.5547
10654TIP3   OH231906   1.247   4.921   0.712 -0.5750 -0.4562  0.2585
10654TIP3    H131907   1.250   4.888   0.802 -1.7450 -0.4648  0.3087
10654TIP3    H231908   1.226   4.844   0.659 -1.4056 -0.1677  0.1571
10655TIP3   OH231909   0.580   1.610   1.904 -0.4366  0.2780 -0.0626
10655TIP3    H131910   0.591   1.604   1.998 -1.0885 -1.5340 -0.0650
10655TIP3    H231911   0.666   1.635   1.871  0.7679 -2.4211  0.7746
10656TIP3   OH231912   8.214   0.116   2.132 -0.3404 -0.3713 -0.2267
10656TIP3    H131913   8.227   0.112   2.227 -1.3011 -1.0803 -0.1156
10656TIP3    H231914   8.254   0.199   2.106  0.1495 -0.2831  0.7591
10657TIP3   OH231915   3.279   5.734   6.185  0.1275 -0.0535 -0.5964
10657TIP3    H131916   3.250   5.825   6.185 -0.5245 -0.2533 -0.0153
10657TIP3    H231917   3.201   5.684   6.206  0.6980 -0.6731  0.0897
10658TIP3   OH231918   7.224   7.235   4.797 -0.1235 -0.2727 -0.0088
10658TIP3    H131919   7.135   7.259   4.824  0.1763 -1.0106  1.8005
10658TIP3    H231920   7.257   7.182   4.870  2.2733  1.0439 -0.0556
10659TIP3   OH231921   1.273   3.497   5.878 -0.2048  0.3517  0.0117
10659TIP3    H131922   1.290   3.420   5.932 -0.2821 -0.0821 -0.5752
10659TIP3    H231923   1.359   3.525   5.848  0.2691  2.6684  3.1019
10660TIP3   OH231924   5.383   7.802   5.039 -0.3912  0.1576 -0.2800
10660TIP3    H131925   5.354   7.788   4.949  4.2284 -0.6607 -1.9327
10660TIP3    H231926   5.397   7.896   5.045 -1.7181  0.3568  0.0314
10661TIP3   OH231927   0.527   4.787   4.919  0.2567  0.2607  0.0022
10661TIP3    H131928   0.559   4.806   5.007  1.4743  0.5019 -0.4688
10661TIP3    H231929   0.522   4.691   4.915  0.3692  0.2425  0.2808
10662TIP3   OH231930   2.565   0.549   3.654  0.5637 -0.6559 -0.4088
10662TIP3    H131931   2.486   0.567   3.703  0.0793 -0.1572 -1.3397
10662TIP3    H231932   2.582   0.456   3.668 -0.3458 -0.8326 -0.4180
10663TIP3   OH231933   4.048   4.824   0.829 -0.4956 -0.0669 -0.4781
10663TIP3    H131934   4.103   4.867   0.764  1.0988 -0.5008  0.5432
10663TIP3    H231935   4.066   4.871   0.910 -1.5921 -0.2766 -0.0868
10664TIP3   OH231936   5.223   0.147   0.756  0.4834  0.5765 -0.0351
10664TIP3    H131937   5.160   0.146   0.827  0.0875  0.9951 -0.3741
10664TIP3    H231938   5.275   0.226   0.771  0.4496  0.6236 -0.1670
10665TIP3   OH231939   2.905   7.020   4.625 -0.0448 -0.0569 -0.7319
10665TIP3    H131940   2.908   6.971   4.707  0.3617  1.9605  0.5470
10665TIP3    H231941   2.859   6.963   4.564  0.5283 -2.0421  0.5988
10666TIP3   OH231942   0.859   0.546   5.450  0.4658  0.4994  0.6460
10666TIP3    H131943   0.829   0.634   5.429  1.9962  0.9390  0.1873
10666TIP3    H231944   0.915   0.558   5.527  1.7969  0.1392 -0.2487
10667TIP3   OH231945   5.933   5.501   0.455  0.3028 -0.0413 -0.0375
10667TIP3    H131946   6.000   5.564   0.481  1.4500 -1.9097  1.8765
10667TIP3    H231947   5.853   5.531   0.499 -0.1504  1.9869 -2.0366
10668TIP3   OH231948   1.987   1.375   6.108  0.3617 -0.2221 -0.0049
10668TIP3    H131949   2.054   1.322   6.150 -0.0782 -0.8918 -0.1449
10668TIP3    H231950   1.954   1.321   6.036  0.0842  0.3353 -0.3119
10669TIP3   OH231951   0.296   2.578   1.377 -0.0806  0.4213  0.3719
10669TIP3    H131952   0.389   2.587   1.396 -0.0126 -0.8232  0.7186
10669TIP3    H231953   0.286   2.488   1.346 -1.1001  0.6728 -0.0851
10670TIP3   OH231954   2.368   7.754   1.147 -0.0554 -0.2162 -0.2209
10670TIP3    H131955   2.444   7.735   1.202 -0.2196  1.5427  0.6946
10670TIP3    H231956   2.295   7.759   1.209 -0.4944  0.3792 -0.7786
10671TIP3   OH231957   2.015   5.302   2.705  0.3743  0.2823  0.5833
10671TIP3    H131958   2.081   5.335   2.765  0.5694 -1.8552  1.6641
10671TIP3    H231959   1.934   5.301   2.756  0.1173  0.2967  0.1811
10672TIP3   OH231960   0.837   2.810   2.249  0.2048  0.0546 -0.4633
10672TIP3    H131961   0.809   2.896   2.281  1.2314  0.7054 -1.2779
10672TIP3    H231962   0.877   2.768   2.326 -0.9691 -0.0250  0.1364
10673TIP3   OH231963   1.533   5.959   3.436  0.6516 -0.2217 -0.0767
10673TIP3    H131964   1.576   6.045   3.433 -1.3080  0.8352  0.4982
10673TIP3    H231965   1.594   5.904   3.485  0.4820  1.8059  2.6501
10674TIP3   OH231966   7.370   1.163   3.915 -0.3293  0.6902 -0.0843
10674TIP3    H131967   7.326   1.129   3.837 -3.4337 -0.6450  2.0344
10674TIP3    H231968   7.343   1.255   3.919  0.1975  0.8836 -0.7775
10675TIP3   OH231969   6.564   0.144   5.161  0.3494  0.1655  0.5382
10675TIP3    H131970   6.470   0.160   5.161  0.5939  1.7815  0.2180
10675TIP3    H231971   6.603   0.231   5.157  1.8889 -0.3988  2.0752
10676TIP3   OH231972   0.414   6.244   1.993 -0.2107  0.2338  0.1209
10676TIP3    H131973   0.405   6.212   1.903  0.2515 -1.1979  0.5427
10676TIP3    H231974   0.376   6.331   1.992  0.2221  0.4420 -1.5746
10677TIP3   OH231975   1.261   6.050   0.730  1.0222 -0.5254  0.0558
10677TIP3    H131976   1.170   6.025   0.744  1.5709 -1.5007  2.4070
10677TIP3    H231977   1.281   6.021   0.641 -1.0038 -0.0885 -0.5804
10678TIP3   OH231978   4.307   3.841   3.530 -0.5462 -0.0422 -0.3983
10678TIP3    H131979   4.376   3.875   3.474 -0.7591 -0.0898 -0.6931
10678TIP3    H231980   4.250   3.792   3.471 -0.6783 -0.2366 -0.1108
10679TIP3   OH231981   5.179   1.447   5.149  0.3772  0.3923 -0.3595
10679TIP3    H131982   5.221   1.511   5.091  0.3278  1.4758  0.7541
10679TIP3    H231983   5.095   1.429   5.107  0.0675  1.6440 -0.3269
10680TIP3   OH231984   0.508   1.650   3.232  0.0515  0.5753  0.1384
10680TIP3    H131985   0.591   1.603   3.234 -1.4724 -2.3450 -0.4921
10680TIP3    H231986   0.475   1.645   3.322 -0.4398 -0.2079 -0.0819
10681TIP3   OH231987   7.720   0.319   2.704 -0.1913 -0.2854 -0.2843
10681TIP3    H131988   7.756   0.390   2.651  1.2641 -0.1318  0.8411
10681TIP3    H231989   7.732   0.349   2.795  0.0044 -1.7420  0.1998
10682TIP3   OH231990   3.581   6.962   0.077  0.1765  0.3406 -0.0721
10682TIP3    H131991   3.554   7.027   0.013  1.8816 -0.1588 -1.3880
10682TIP3    H231992   3.672   6.985   0.098  0.0697 -0.2795  1.1852
10683TIP3   OH231993   2.627   0.445   4.567  0.1782 -0.2635 -0.0353
10683TIP3    H131994   2.588   0.392   4.498 -0.1501  0.6418 -0.5558
10683TIP3    H231995   2.575   0.425   4.645  0.0336 -0.6677 -0.2322
10684TIP3   OH231996   5.608   6.745   2.073  0.4368 -0.9347 -0.6532
10684TIP3    H131997   5.625   6.705   1.987 -0.2244 -2.2079 -0.2211
10684TIP3    H231998   5.527   6.704   2.102 -0.2435  0.6982 -0.1197
10685TIP3   OH231999   6.902   3.268   5.371  1.0920 -0.3286  0.4826
10685TIP3    H132000   6.915   3.213   5.294 -3.7240 -0.0401 -0.9152
10685TIP3    H232001   6.894   3.207   5.444  1.4007 -0.9767 -0.0219
10686TIP3   OH232002   7.084   2.250   5.162 -0.1052 -0.1102  0.0217
10686TIP3    H132003   7.067   2.342   5.140  2.1048 -0.2473 -2.8143
10686TIP3    H232004   6.998   2.209   5.165 -1.0200  1.6591 -0.7488
10687TIP3   OH232005   6.897   4.745   3.616  0.2183  0.2032  0.2903
10687TIP3    H132006   6.858   4.658   3.620  0.1288  0.2151 -0.2617
10687TIP3    H232007   6.932   4.752   3.528  0.7790  0.4947  0.5290
10688TIP3   OH232008   0.305   4.461   1.770 -0.3638  0.3034 -0.0416
10688TIP3    H132009   0.222   4.413   1.774  0.0153 -0.2904  0.8118
10688TIP3    H232010   0.294   4.520   1.695 -1.6037  0.3203  0.1276
10689TIP3   OH232011   3.319   0.419   3.464  0.3114 -0.1562  0.7053
10689TIP3    H132012   3.356   0.334   3.488  0.0464 -1.1078 -1.9138
10689TIP3    H232013   3.394   0.469   3.430  0.1554  0.0012  0.5943
10690TIP3   OH232014   3.983   2.491   0.828  0.3268 -0.0091  0.1273
10690TIP3    H132015   4.042   2.443   0.770  0.9111 -0.8213  1.3659
10690TIP3    H232016   3.995   2.451   0.914 -1.9918 -0.1750  0.4505
10691TIP3   OH232017   1.463   5.803   1.904  0.1416  0.4442 -0.0388
10691TIP3    H132018   1.528   5.769   1.843 -0.4245  0.7961 -0.8661
10691TIP3    H232019   1.398   5.733   1.911 -0.2559  0.7488 -0.5669
10692TIP3   OH232020   6.209   2.474   4.283 -0.3950 -0.5072  0.4760
10692TIP3    H132021   6.258   2.487   4.364 -1.4197 -0.4443  1.0962
10692TIP3    H232022   6.176   2.561   4.260  0.8490 -0.2851 -0.6766
10693TIP3   OH232023   4.923   0.880   6.014  0.0520  0.0119  0.0189
10693TIP3    H132024   5.006   0.843   6.046 -0.1773  0.8719  1.7091
10693TIP3    H232025   4.857   0.816   6.039  0.1764 -0.7214 -1.4170
10694TIP3   OH232026   7.773   2.615   3.121  1.0640 -0.2769 -0.1653
10694TIP3    H132027   7.803   2.613   3.211 -2.8099  1.9210  1.4359
10694TIP3    H232028   7.811   2.695   3.084  0.3439  0.4462  0.5943
10695TIP3   OH232029   1.934   5.657   2.928 -0.7282 -0.3047 -0.3085
10695TIP3    H132030   1.953   5.751   2.940 -0.5734 -0.3461 -0.2282
10695TIP3    H232031   1.919   5.625   3.017  0.5644 -0.6430 -0.1811
10696TIP3   OH232032   5.718   7.320   5.037 -0.7182 -0.5126  0.7595
10696TIP3    H132033   5.794   7.357   5.083 -1.1813  0.2695  0.9180
10696TIP3    H232034   5.693   7.243   5.089 -0.5826 -0.2518  1.2162
10697TIP3   OH232035   7.588   7.564   3.757 -0.2568  0.1073 -0.4404
10697TIP3    H132036   7.553   7.617   3.830  0.6968  0.0612  0.0667
10697TIP3    H232037   7.621   7.485   3.799  1.8349  0.8026 -0.6681
10698TIP3   OH232038   0.588   6.032   0.571 -0.3084 -0.0266  0.1139
10698TIP3    H132039   0.598   6.111   0.624  0.0822  1.9410 -2.6547
10698TIP3    H232040   0.500   6.000   0.592  0.7925 -1.0583  3.9067
10699TIP3   OH232041   8.219   6.309   4.031  0.2375  0.1672  0.4990
10699TIP3    H132042   8.264   6.372   4.087  0.0009  1.8074 -1.0594
10699TIP3    H232043   8.126   6.323   4.048  0.1920 -0.1440  0.5252
10700TIP3   OH232044   2.493   3.930   5.054 -0.0900  0.1770  0.2600
10700TIP3    H132045   2.436   3.899   4.984  0.8613  0.8209 -0.8291
10700TIP3    H232046   2.507   3.853   5.109  0.4527 -0.8025 -1.1759
10701TIP3   OH232047   4.655   6.096   3.861 -0.1168  0.2103  0.2952
10701TIP3    H132048   4.620   6.016   3.899  0.6963 -0.8188 -1.0485
10701TIP3    H232049   4.671   6.154   3.936 -0.1470 -1.1000  1.3405
10702TIP3   OH232050   7.434   0.175   5.962  0.1504  0.0289  0.5632
10702TIP3    H132051   7.502   0.108   5.958  0.3875  0.2846  0.2506
10702TIP3    H232052   7.454   0.226   6.040  0.8549  0.6678 -0.0238
10703TIP3   OH232053   6.340   4.397   4.238  0.0780 -0.1110 -0.1353
10703TIP3    H132054   6.273   4.347   4.191  0.5268 -0.0533 -0.8557
10703TIP3    H232055   6.389   4.331   4.287 -0.6011 -0.1348  0.5205
10704TIP3   OH232056   4.425   7.701   3.750 -0.4396  0.4652 -0.1928
10704TIP3    H132057   4.350   7.644   3.733  2.3675 -3.2268 -1.5082
10704TIP3    H232058   4.441   7.691   3.844 -0.1026 -0.8833 -0.3656
10705TIP3   OH232059   4.731   0.518   3.929 -0.1785  0.2904 -0.0925
10705TIP3    H132060   4.699   0.585   3.868 -0.5353  0.5988  0.4262
10705TIP3    H232061   4.652   0.474   3.959  0.0421 -0.2440 -0.2829
10706TIP3   OH232062   5.454   2.705   1.841 -0.7580 -0.2852 -0.8493
10706TIP3    H132063   5.473   2.674   1.929  0.6692 -1.6477 -1.5914
10706TIP3    H232064   5.371   2.663   1.818 -0.5461 -0.8518 -0.5886
10707TIP3   OH232065   5.938   4.972   4.236  0.6788 -0.2127  0.7317
10707TIP3    H132066   5.979   4.895   4.196 -0.1114 -0.9235  1.2612
10707TIP3    H232067   5.996   5.044   4.212 -0.5718 -0.2641 -3.0829
10708TIP3   OH232068   4.121   3.182   1.616  0.1374  0.3444  0.1040
10708TIP3    H132069   4.091   3.192   1.706 -0.3741 -0.1075 -0.0167
10708TIP3    H232070   4.115   3.088   1.598  2.1943  0.1328  0.2804
10709TIP3   OH232071   1.555   3.446   6.707 -0.0384  0.2083  0.3029
10709TIP3    H132072   1.607   3.366   6.701 -0.8483 -0.2056 -2.2898
10709TIP3    H232073   1.620   3.515   6.723  0.6917 -0.8584  2.4151
10710TIP3   OH232074   7.888   7.664   6.218 -0.1882  0.1069  0.0834
10710TIP3    H132075   7.879   7.580   6.173  2.0583 -0.9009  1.3872
10710TIP3    H232076   7.872   7.645   6.310 -1.9069  1.6094  0.1619
10711TIP3   OH232077   4.685   3.964   4.431 -0.2673  0.1984 -0.0501
10711TIP3    H132078   4.772   3.965   4.393  0.1255 -2.2202  0.6216
10711TIP3    H232079   4.634   3.905   4.374  0.4413 -3.8537  3.0271
10712TIP3   OH232080   6.970   1.444   2.110  1.0869 -0.2442 -0.0251
10712TIP3    H132081   6.946   1.354   2.131  2.2270 -0.8412 -1.1405
10712TIP3    H232082   6.894   1.496   2.136 -0.4931 -1.7669 -1.3705
10713TIP3   OH232083   1.748   2.472   3.279  0.8302 -0.1023 -0.0287
10713TIP3    H132084   1.716   2.383   3.265  1.3146 -0.2883  0.0262
10713TIP3    H232085   1.842   2.462   3.288  0.8867  0.4197 -0.0244
10714TIP3   OH232086   1.132   0.383   2.858  0.3845  0.0409 -0.1986
10714TIP3    H132087   1.194   0.334   2.912  0.8297  3.8022  3.1483
10714TIP3    H232088   1.046   0.359   2.891  0.3548 -1.1298 -1.0934
10715TIP3   OH232089   1.511   0.864   0.084  0.3446  0.0026 -0.0379
10715TIP3    H132090   1.593   0.876   0.132  0.4614 -1.2670  0.1077
10715TIP3    H232091   1.492   0.771   0.092 -1.1183  0.2724 -0.0713
10716TIP3   OH232092   5.219   0.698   2.266  0.9183 -0.0917  0.6060
10716TIP3    H132093   5.220   0.739   2.180  0.5957  0.2762  0.7709
10716TIP3    H232094   5.274   0.620   2.257 -0.0709 -0.7265 -0.2604
10717TIP3   OH232095   5.369   0.172   2.850 -0.4811  0.0259 -0.1554
10717TIP3    H132096   5.394   0.104   2.786 -2.6717 -2.8311  1.7669
10717TIP3    H232097   5.425   0.155   2.926 -0.4596  0.9692  0.0479
10718TIP3   OH232098   1.195   2.061   4.354  0.0514  0.0492  0.0363
10718TIP3    H132099   1.215   2.136   4.297  0.4996  0.3483  0.5769
10718TIP3    H232100   1.102   2.072   4.375  0.1288  0.4955  0.1642
10719TIP3   OH232101   0.328   3.238   6.236  0.0529  0.2611  0.0592
10719TIP3    H132102   0.283   3.287   6.306  1.7077  1.6241  0.2362
10719TIP3    H232103   0.257   3.201   6.184 -1.2747  1.5619  0.8463
10720TIP3   OH232104   0.379   3.957   3.578 -0.0683 -0.0328 -0.3959
10720TIP3    H132105   0.325   3.925   3.506 -0.0076  0.2979 -0.5877
10720TIP3    H232106   0.339   4.040   3.603  0.6405  0.4627 -0.8694
10721TIP3   OH232107   4.217   5.125   4.968 -0.0494 -0.0370  0.1135
10721TIP3    H132108   4.311   5.139   4.976 -0.3285  1.3561  1.6423
10721TIP3    H232109   4.200   5.045   5.018  0.3921 -0.6332 -0.6820
10722TIP3   OH232110   2.634   3.806   4.194 -0.1606 -0.5447  0.1155
10722TIP3    H132111   2.631   3.720   4.237 -3.1066 -0.7284 -0.2422
10722TIP3    H232112   2.615   3.868   4.265 -1.5494 -0.5485 -0.2221
10723TIP3   OH232113   4.754   3.580   4.258 -0.2037 -0.1223 -0.3722
10723TIP3    H132114   4.827   3.577   4.196  0.5058 -0.3146  0.4587
10723TIP3    H232115   4.712   3.494   4.249 -0.7672  0.2377 -1.3471
10724TIP3   OH232116   6.932   0.698   0.587 -0.2886  0.0207  0.0040
10724TIP3    H132117   7.025   0.684   0.609 -0.2004 -2.9259 -1.7932
10724TIP3    H232118   6.933   0.775   0.531  0.5289  2.1527  2.6847
10725TIP3   OH232119   6.182   3.629   6.486 -0.2808 -0.0700  0.0063
10725TIP3    H132120   6.172   3.724   6.485 -1.8975  0.0089 -5.1427
10725TIP3    H232121   6.257   3.612   6.429 -0.0023 -1.9339  0.8495
10726TIP3   OH232122   3.940   7.423   5.083 -0.2633 -0.3126  0.2434
10726TIP3    H132123   4.010   7.484   5.107 -0.2464 -0.2717  0.0934
10726TIP3    H232124   3.978   7.337   5.100 -0.7664 -0.2622  1.7380
10727TIP3   OH232125   4.241   3.988   1.268  0.0041  0.2213  0.3601
10727TIP3    H132126   4.317   3.969   1.324  0.6585 -0.7689 -0.7969
10727TIP3    H232127   4.224   3.905   1.223  1.6385  1.7067 -3.4165
10728TIP3   OH232128   6.470   3.123   0.149 -0.0709 -0.1724 -0.1702
10728TIP3    H132129   6.524   3.152   0.076  1.2910 -0.6538  0.6098
10728TIP3    H232130   6.528   3.068   0.201 -1.5279 -1.3107  0.3275
10729TIP3   OH232131   3.311   1.158   6.727  0.1579 -0.3910  0.3427
10729TIP3    H132132   3.260   1.137   6.649  1.2434  1.1279 -0.8424
10729TIP3    H232133   3.259   1.224   6.773  0.0157 -0.5140  0.3608
10730TIP3   OH232134   4.285   2.140   1.845  0.2160 -0.2185  0.5856
10730TIP3    H132135   4.204   2.156   1.798  0.2683  0.7148  0.8045
10730TIP3    H232136   4.257   2.105   1.930  0.0349  0.2173  0.7068
10731TIP3   OH232137   7.917   6.599   3.341 -0.4755  0.0935 -0.1039
10731TIP3    H132138   7.853   6.529   3.352 -0.2701 -0.4583 -2.0125
10731TIP3    H232139   7.950   6.588   3.252 -0.8133  2.9604 -0.6864
10732TIP3   OH232140   5.059   5.386   5.635 -0.4381 -0.0955  0.2529
10732TIP3    H132141   5.075   5.447   5.707  0.6732 -1.2944  1.0616
10732TIP3    H232142   5.125   5.318   5.646 -2.6347 -2.3674  0.4094
10733TIP3   OH232143   5.327   5.709   1.479 -0.3215  0.7573  0.0359
10733TIP3    H132144   5.244   5.754   1.463 -1.0543 -0.5272  0.1595
10733TIP3    H232145   5.303   5.630   1.527  1.1154  0.9904  1.2142
10734TIP3   OH232146   4.272   7.411   3.285  0.1719 -0.9669 -0.2346
10734TIP3    H132147   4.188   7.385   3.248 -0.3414  0.9449 -0.5448
10734TIP3    H232148   4.306   7.476   3.223  1.7049 -1.4202  0.0897
10735TIP3   OH232149   0.193   7.079   1.591 -0.0795  0.2150  0.4034
10735TIP3    H132150   0.187   7.115   1.503  1.8362  1.2875  0.6512
10735TIP3    H232151   0.135   7.134   1.643 -2.3555 -1.3036 -0.3492
10736TIP3   OH232152   4.211   2.711   1.881  0.5236 -0.5309 -0.2898
10736TIP3    H132153   4.303   2.686   1.892  0.5833 -0.7945 -1.3111
10736TIP3    H232154   4.214   2.804   1.859  0.5496 -0.5478 -0.3581
10737TIP3   OH232155   7.831   4.689   0.232 -0.0843  0.5623 -0.1640
10737TIP3    H132156   7.763   4.622   0.241  0.9132 -0.4823 -0.0333
10737TIP3    H232157   7.787   4.771   0.251 -1.5837  0.0686 -1.2813
10738TIP3   OH232158   1.933   4.984   6.423  0.2195  0.1599 -0.2339
10738TIP3    H132159   1.905   4.899   6.458 -0.2694 -0.4118 -1.9324
10738TIP3    H232160   1.868   5.046   6.456 -0.3700 -0.3988 -0.3251
10739TIP3   OH232161   3.592   4.143   3.182  0.1089  0.0026  0.3731
10739TIP3    H132162   3.670   4.102   3.218  0.2288 -0.5256 -0.4542
10739TIP3    H232163   3.586   4.227   3.228  1.9851  0.7008 -0.5194
10740TIP3   OH232164   5.799   6.800   3.435 -0.0174  0.0710 -1.0304
10740TIP3    H132165   5.837   6.734   3.494 -1.8986  1.4221  1.9125
10740TIP3    H232166   5.775   6.750   3.357  1.0713 -2.2003 -0.0282
10741TIP3   OH232167   7.375   5.014   5.635  0.2063  0.0038  0.8540
10741TIP3    H132168   7.317   4.983   5.565  0.9228  1.0794 -0.2476
10741TIP3    H232169   7.315   5.054   5.698 -0.2660  1.2881 -0.3655
10742TIP3   OH232170   7.430   0.015   2.324 -0.4373 -0.4477  0.7015
10742TIP3    H132171   7.337  -0.006   2.329  0.0503 -2.9377  0.4185
10742TIP3    H232172   7.439   0.064   2.242 -1.7990  2.0648  1.9325
10743TIP3   OH232173   7.850   0.395   2.189 -0.5138 -0.0278  0.2897
10743TIP3    H132174   7.888   0.416   2.104 -2.1256  1.5359 -0.1185
10743TIP3    H232175   7.772   0.343   2.168 -1.0790  0.6063  0.7477
10744TIP3   OH232176   5.554   4.106   1.845  0.0796  0.2324  0.3486
10744TIP3    H132177   5.499   4.047   1.896 -0.5937  0.2446 -0.3454
10744TIP3    H232178   5.604   4.155   1.910 -1.0573  0.5401  1.0027
10745TIP3   OH232179   5.988   6.391   3.719 -0.5168 -0.2462  0.1068
10745TIP3    H132180   6.007   6.456   3.786 -2.2683  0.5818 -0.1263
10745TIP3    H232181   5.989   6.441   3.637 -1.7125 -0.5223 -0.0948
10746TIP3   OH232182   6.590   7.674   0.233 -0.0171  0.1009  0.1487
10746TIP3    H132183   6.637   7.748   0.194 -0.1689 -0.8992 -2.1506
10746TIP3    H232184   6.657   7.626   0.281  0.4957  0.7155  0.0636
10747TIP3   OH232185   2.072   3.591   2.326  0.1015 -0.3459  0.1647
10747TIP3    H132186   2.152   3.542   2.307 -0.7032 -1.5106 -0.3643
10747TIP3    H232187   2.012   3.525   2.362 -1.7186 -0.2474 -2.4083
10748TIP3   OH232188   2.381   7.009   1.118 -0.5201 -0.3210 -0.1015
10748TIP3    H132189   2.374   6.945   1.048 -0.2409  0.1280 -0.5436
10748TIP3    H232190   2.291   7.021   1.149 -0.7163 -0.1220 -0.7412
10749TIP3   OH232191   1.158   2.810   2.224 -0.2391 -0.2197  0.4968
10749TIP3    H132192   1.202   2.865   2.159  1.3383 -0.3894  1.3835
10749TIP3    H232193   1.067   2.841   2.223  0.1033  0.8270 -0.6814
10750TIP3   OH232194   3.182   3.410   3.789  0.1151  0.0789  0.3376
10750TIP3    H132195   3.153   3.477   3.728  2.4735  0.9556  0.0838
10750TIP3    H232196   3.206   3.336   3.734 -0.3369 -0.1518  0.4428
10751TIP3   OH232197   4.551   2.056   0.568  1.1233 -0.0639  0.2940
10751TIP3    H132198   4.488   2.051   0.640  0.7985  0.6973  0.0736
10751TIP3    H232199   4.521   1.991   0.505  0.6606  0.1721  0.2709
10752TIP3   OH232200   6.990   4.695   3.367 -0.1571 -0.2084  0.4138
10752TIP3    H132201   6.917   4.678   3.307 -0.6500  0.1539  0.9053
10752TIP3    H232202   7.031   4.775   3.334 -0.2531 -0.1676  0.3944
10753TIP3   OH232203   2.134   0.499   3.193  0.5985  0.2818 -0.2629
10753TIP3    H132204   2.097   0.498   3.104  0.7874  0.8894 -0.3563
10753TIP3    H232205   2.067   0.460   3.248  0.3682  0.1483 -0.6358
10754TIP3   OH232206   7.692   3.880   4.416 -0.2044 -0.6047  0.0103
10754TIP3    H132207   7.776   3.905   4.377 -0.7542  1.0956 -0.1702
10754TIP3    H232208   7.714   3.856   4.506  0.5720 -0.8550 -0.2345
10755TIP3   OH232209   2.806   3.609   5.749  0.5858  0.0823 -0.2443
10755TIP3    H132210   2.750   3.556   5.806  0.4218  1.8573  1.3349
10755TIP3    H232211   2.765   3.602   5.663 -0.3323 -1.0531  0.2460
10756TIP3   OH232212   7.459   0.827   1.459  0.9204 -0.0245 -0.2570
10756TIP3    H132213   7.492   0.739   1.441  0.0688 -0.0155 -2.1591
10756TIP3    H232214   7.376   0.813   1.503 -0.8609 -0.3910 -3.4116
10757TIP3   OH232215   7.192   5.269   3.948  0.5192  0.2235 -0.0795
10757TIP3    H132216   7.241   5.237   3.871  1.1451  0.1770  0.3312
10757TIP3    H232217   7.198   5.197   4.011  0.0180  0.2693  0.0237
10758TIP3   OH232218   4.371   1.938   3.723 -0.2655  0.3087 -0.3437
10758TIP3    H132219   4.421   2.020   3.730 -0.2238  0.4147 -1.5563
10758TIP3    H232220   4.279   1.965   3.733 -0.1806  0.3219  0.4458
10759TIP3   OH232221   8.099   6.686   1.152 -0.0426  0.1795  0.2190
10759TIP3    H132222   8.048   6.739   1.091  0.5586  0.6253  0.0973
10759TIP3    H232223   8.123   6.608   1.102  0.1006  0.3550  0.0150
10760TIP3   OH232224   2.023   5.397   2.235  0.2340  0.0012 -0.3895
10760TIP3    H132225   2.022   5.336   2.161  0.9176  0.1251 -0.4992
10760TIP3    H232226   2.054   5.480   2.199  1.0146 -0.0575  0.1254
10761TIP3   OH232227   2.073   4.614   5.169  0.3744  0.0116 -0.0347
10761TIP3    H132228   1.993   4.616   5.116  0.3446  0.1945  0.0184
10761TIP3    H232229   2.042   4.627   5.259  0.2959 -1.4091  0.1740
10762TIP3   OH232230   7.993   3.810   2.955  0.7923 -0.3161 -0.6747
10762TIP3    H132231   8.033   3.726   2.933  2.8890  0.1126  1.1105
10762TIP3    H232232   7.965   3.801   3.046  1.5817  1.0487 -0.2521
10763TIP3   OH232233   5.576   6.936   0.994 -0.3956  0.5726  0.7568
10763TIP3    H132234   5.518   6.944   1.070 -0.3307 -1.3850  1.0629
10763TIP3    H232235   5.571   7.022   0.951 -2.8306  0.7643  1.2590
10764TIP3   OH232236   4.764   6.041   0.094  0.1562  0.2830 -0.1219
10764TIP3    H132237   4.705   6.053   0.019  0.4143  0.0541 -0.3666
10764TIP3    H232238   4.759   5.947   0.112  1.1740  0.0932 -0.7574
10765TIP3   OH232239   1.701   3.730   3.469 -0.4797 -0.1343  0.1615
10765TIP3    H132240   1.646   3.807   3.453 -0.6271 -0.1817  0.4181
10765TIP3    H232241   1.728   3.700   3.382  0.4306  0.8104  0.1034
10766TIP3   OH232242   6.072   0.324   4.731 -0.3086 -0.2657  0.2825
10766TIP3    H132243   6.007   0.266   4.771  0.8098 -1.1134  0.9070
10766TIP3    H232244   6.020   0.385   4.679 -1.7400  0.1320  2.0788
10767TIP3   OH232245   5.799   5.932   4.769  0.2646 -0.0374 -0.3783
10767TIP3    H132246   5.734   6.001   4.755 -1.3834 -1.6536 -1.0476
10767TIP3    H232247   5.758   5.874   4.834  2.0359  0.0807  0.9285
10768TIP3   OH232248   7.786   2.773   2.055 -0.2262  0.3757 -0.4019
10768TIP3    H132249   7.809   2.688   2.093 -1.2156  0.0339 -0.5183
10768TIP3    H232250   7.788   2.759   1.961  1.5400  1.0354 -0.4956
10769TIP3   OH232251   6.152   5.555   0.915 -0.5220 -0.5392 -0.1878
10769TIP3    H132252   6.173   5.465   0.893  0.6693 -0.5136  0.7946
10769TIP3    H232253   6.225   5.607   0.880 -0.9109 -0.0150 -0.2449
10770TIP3   OH232254   5.940   1.421   4.726  0.1913  0.4601 -0.5336
10770TIP3    H132255   5.866   1.360   4.719  0.4738  0.0423  0.0225
10770TIP3    H232256   5.935   1.473   4.646 -0.6451  0.3695 -0.5558
10771TIP3   OH232257   7.443   4.059   2.833 -0.0396  0.1166 -0.0422
10771TIP3    H132258   7.537   4.046   2.816  0.4696  2.2535  0.7542
10771TIP3    H232259   7.407   3.971   2.840  2.2206 -0.7946  1.2153
10772TIP3   OH232260   0.071   2.849   4.223 -0.2327  0.1842  0.2508
10772TIP3    H132261   0.066   2.796   4.144  0.0352  0.4912  0.0239
10772TIP3    H232262   0.141   2.809   4.274 -2.0651 -1.5884  1.5332
10773TIP3   OH232263   6.807   1.718   5.765 -0.0290  0.3704 -0.3186
10773TIP3    H132264   6.851   1.635   5.784  2.2226  1.6189  0.3387
10773TIP3    H232265   6.815   1.728   5.670 -2.1932 -1.0758 -0.7293
10774TIP3   OH232266   5.872   0.476   4.090  1.1014 -0.4469 -0.3447
10774TIP3    H132267   5.956   0.501   4.128  1.3548  0.7709 -1.6539
10774TIP3    H232268   5.808   0.490   4.161  1.7368  0.4712  0.0558
10775TIP3   OH232269   6.820   3.014   2.162  0.9856  0.0602 -0.1006
10775TIP3    H132270   6.742   3.007   2.107 -0.1310  1.8263  1.1553
10775TIP3    H232271   6.808   2.947   2.229  1.4100 -0.8027 -0.8631
10776TIP3   OH232272   3.275   0.519   5.374 -0.3348 -0.3826  0.1895
10776TIP3    H132273   3.222   0.589   5.412 -0.9655 -0.5978 -0.2777
10776TIP3    H232274   3.217   0.476   5.311  0.8649  0.4178 -1.5496
10777TIP3   OH232275   7.863   6.877   1.088  0.3184 -0.2215  0.1721
10777TIP3    H132276   7.922   6.950   1.068 -1.6743  1.2936 -0.5750
10777TIP3    H232277   7.820   6.903   1.170 -0.4627 -0.4984 -0.1388
10778TIP3   OH232278   0.280   0.022   3.398  0.3067 -0.0906  0.0569
10778TIP3    H132279   0.345   0.043   3.466 -1.8433  1.4642  1.8253
10778TIP3    H232280   0.322  -0.043   3.343  3.2799  0.7338  1.1637
10779TIP3   OH232281   4.996   4.564   5.696  0.3686  0.3696  0.1945
10779TIP3    H132282   5.025   4.651   5.670  0.9434 -0.1517 -0.9985
10779TIP3    H232283   5.075   4.510   5.689 -0.2798 -0.5184 -0.4522
10780TIP3   OH232284   7.869   4.819   2.077 -0.1650  0.0360  0.4992
10780TIP3    H132285   7.822   4.846   2.156 -0.8115  0.9568 -0.1675
10780TIP3    H232286   7.921   4.896   2.054 -0.5605  0.0596 -0.3754
10781TIP3   OH232287   3.562   6.973   6.468  0.2507  0.3210  0.4187
10781TIP3    H132288   3.513   6.951   6.389  0.4481  1.3259  0.0040
10781TIP3    H232289   3.497   6.974   6.538 -0.4428  2.0762 -0.1967
10782TIP3   OH232290   6.561   1.188   4.319  0.2890 -0.5940  0.0912
10782TIP3    H132291   6.601   1.265   4.279  0.4689 -0.9457 -0.4112
10782TIP3    H232292   6.623   1.161   4.387  0.3340 -0.4366  0.1128
10783TIP3   OH232293   3.834   1.495   1.421 -0.4047 -0.2297 -0.0362
10783TIP3    H132294   3.766   1.558   1.448  0.3582  0.6636 -0.1708
10783TIP3    H232295   3.914   1.528   1.460 -0.3393 -2.3881  1.8418
10784TIP3   OH232296   0.560   4.643   5.467  0.3533  0.4773  0.0843
10784TIP3    H132297   0.647   4.670   5.496  1.3770 -2.4678  0.1870
10784TIP3    H232298   0.522   4.599   5.543  0.0569 -0.8490 -0.7834
10785TIP3   OH232299   6.246   4.701   4.350 -0.7255  0.2751 -0.1147
10785TIP3    H132300   6.278   4.645   4.279 -1.6015  0.0618 -0.3570
10785TIP3    H232301   6.189   4.764   4.307 -0.4465  0.8049  0.2755
10786TIP3   OH232302   4.100   5.258   5.545 -0.2004 -0.0255 -0.0186
10786TIP3    H132303   4.131   5.178   5.503  0.9412  0.5291 -0.2670
10786TIP3    H232304   4.063   5.228   5.628  0.1200 -0.8136 -0.1464
10787TIP3   OH232305   0.525   6.612   3.483  0.6887 -0.7114 -0.1336
10787TIP3    H132306   0.485   6.526   3.485 -2.4921  0.6125 -0.1212
10787TIP3    H232307   0.458   6.669   3.444  2.3966  1.8689  0.3904
10788TIP3   OH232308   1.604   7.145   6.740  0.0478  0.1791 -0.3837
10788TIP3    H132309   1.670   7.133   6.672  0.1084 -2.1149  0.0134
10788TIP3    H232310   1.521   7.152   6.692  0.1508 -0.8693 -0.7450
10789TIP3   OH232311   7.778   1.405   4.639  0.0772  0.3450  0.0679
10789TIP3    H132312   7.741   1.489   4.666 -0.7488  0.4506 -1.2816
10789TIP3    H232313   7.855   1.428   4.587 -0.4591  0.3027 -0.7587
10790TIP3   OH232314   4.247   6.062   4.490  0.3788  0.5513  0.2553
10790TIP3    H132315   4.170   6.034   4.441  0.7706 -0.6769  0.3208
10790TIP3    H232316   4.279   5.983   4.532 -0.5904  1.7101  3.4623
10791TIP3   OH232317   2.209   5.104   3.032 -0.3833  0.6554 -0.1825
10791TIP3    H132318   2.116   5.122   3.045 -0.3479  0.5420  0.2309
10791TIP3    H232319   2.212   5.049   2.954 -0.7491 -0.1430  0.3479
10792TIP3   OH232320   5.123   0.973   0.127  0.7505  0.3847 -0.4466
10792TIP3    H132321   5.154   1.022   0.203  1.6373 -2.7266  1.3779
10792TIP3    H232322   5.028   0.987   0.126  0.5808 -0.1709  1.8623
10793TIP3   OH232323   6.817   2.875   3.397 -0.4307 -0.2511  1.1072
10793TIP3    H132324   6.775   2.953   3.360 -1.1448 -0.7037  0.9235
10793TIP3    H232325   6.851   2.828   3.320 -2.0707 -1.2823  0.9635
10794TIP3   OH232326   4.898   1.500   3.598  0.0231  0.2655  0.7710
10794TIP3    H132327   4.847   1.553   3.537  2.0879  0.9951 -0.4225
10794TIP3    H232328   4.983   1.489   3.555  1.4248  0.4185  3.3024
10795TIP3   OH232329   2.060   1.626   6.332  0.2173  0.2887  0.3600
10795TIP3    H132330   2.110   1.574   6.269 -1.6544 -0.9574 -0.1816
10795TIP3    H232331   2.045   1.710   6.289 -1.2723 -0.6373 -1.0444
10796TIP3   OH232332   4.126   7.308   6.603 -0.5032  0.4407  0.2695
10796TIP3    H132333   4.062   7.316   6.533 -0.6003 -1.6910  0.0570
10796TIP3    H232334   4.208   7.289   6.559 -0.3460  0.1528  0.6789
10797TIP3   OH232335   0.259   2.267   6.245 -0.0484 -0.2959  0.5299
10797TIP3    H132336   0.225   2.299   6.162 -2.7421 -0.4091  1.5093
10797TIP3    H232337   0.343   2.226   6.222 -1.3293 -1.6060 -2.3837
10798TIP3   OH232338   6.761   1.293   3.418 -0.0504 -0.3062 -0.4645
10798TIP3    H132339   6.806   1.252   3.344  0.4157  0.9174 -0.8777
10798TIP3    H232340   6.792   1.383   3.418 -1.9870  0.4094 -0.3418
10799TIP3   OH232341   3.093   0.611   0.605 -0.3708  0.2543 -0.7845
10799TIP3    H132342   3.085   0.546   0.675  1.0408  0.3980 -0.4732
10799TIP3    H232343   3.046   0.688   0.637 -0.5050  0.0136 -0.3993
10800TIP3   OH232344   1.375   5.009   0.053 -0.0182 -0.0919 -0.1670
10800TIP3    H132345   1.397   5.093   0.094 -1.1444  1.8311 -3.1662
10800TIP3    H232346   1.304   4.974   0.106  0.4847  0.8230  1.1542
10801TIP3   OH232347   6.507   6.932   0.340 -0.0081  0.3024 -0.3427
10801TIP3    H132348   6.450   6.884   0.400  0.1405  0.4520 -0.0808
10801TIP3    H232349   6.448   6.970   0.276 -0.1319 -0.2165 -0.5438
10802TIP3   OH232350   2.000   4.767   1.069 -0.0625 -0.8388  0.0588
10802TIP3    H132351   2.085   4.768   1.112  0.7751 -3.5353 -1.2804
10802TIP3    H232352   2.020   4.753   0.976 -1.9224 -2.1716 -0.2167
10803TIP3   OH232353   7.843   7.160   5.236 -0.4272  0.1834  0.9486
10803TIP3    H132354   7.840   7.195   5.325 -1.5365 -0.7433  1.2963
10803TIP3    H232355   7.873   7.234   5.183  1.0740  0.5171  2.1788
10804TIP3   OH232356   7.211   5.367   4.209 -0.5582 -0.6146  0.0610
10804TIP3    H132357   7.213   5.383   4.114 -0.8122  0.1549  0.1782
10804TIP3    H232358   7.154   5.291   4.219  1.2303 -2.1240 -0.5723
10805TIP3   OH232359   4.317   2.763   4.026  0.0039  0.0881 -0.0404
10805TIP3    H132360   4.387   2.711   4.065 -0.7150 -2.3728 -1.7995
10805TIP3    H232361   4.351   2.789   3.941  0.3238  2.5970  0.7712
10806TIP3   OH232362   4.271   5.968   2.012  0.1774 -0.4697  0.3622
10806TIP3    H132363   4.223   6.045   1.982  1.5628  0.1347 -0.4330
10806TIP3    H232364   4.290   5.985   2.104  0.3168  0.0585  0.2373
10807TIP3   OH232365   7.428   7.492   5.198 -0.2289 -0.3481 -0.6015
10807TIP3    H132366   7.446   7.586   5.203 -2.7942  0.3353 -2.2659
10807TIP3    H232367   7.346   7.481   5.247 -0.5352 -1.5234 -1.3553
10808TIP3   OH232368   7.111   2.801   2.757 -0.5955  0.4006  0.4365
10808TIP3    H132369   7.088   2.715   2.724 -1.7498  0.5917  0.7059
10808TIP3    H232370   7.121   2.855   2.679  0.8134 -0.1129  0.2281
10809TIP3   OH232371   7.160   4.307   3.838 -0.5485  0.2325  0.5585
10809TIP3    H132372   7.071   4.335   3.817 -0.3197 -0.1313 -0.9986
10809TIP3    H232373   7.170   4.223   3.794  0.5325  0.2343  0.7692
10810TIP3   OH232374   6.706   1.163   0.674  0.1851 -0.2864  0.2676
10810TIP3    H132375   6.722   1.215   0.752 -0.2603 -1.4516  1.1680
10810TIP3    H232376   6.792   1.131   0.648  0.4267  0.6701 -0.1466
10811TIP3   OH232377   0.340   4.241   2.037 -0.5404 -0.1125 -0.1307
10811TIP3    H132378   0.284   4.315   2.056 -0.1001  0.1588  0.1399
10811TIP3    H232379   0.427   4.279   2.022 -0.2895 -0.5749  0.1042
10812TIP3   OH232380   2.092   2.760   3.232 -0.0417  0.1539  0.5056
10812TIP3    H132381   2.018   2.763   3.172 -1.3025 -2.5608  1.7507
10812TIP3    H232382   2.104   2.851   3.260  0.7313  1.6042 -3.8019
10813TIP3   OH232383   0.108   3.358   6.419 -0.3009 -0.3809  0.5482
10813TIP3    H132384   0.066   3.309   6.490  0.0220  0.5178  1.4010
10813TIP3    H232385   0.052   3.435   6.407 -0.2438 -0.4271 -0.0421
10814TIP3   OH232386   2.109   2.987  -0.018 -0.0249 -0.5096  0.4027
10814TIP3    H132387   2.089   2.900   0.017  3.1622 -1.2740  0.6012
10814TIP3    H232388   2.181   3.020   0.036  0.6325  1.0998 -1.3095
10815TIP3   OH232389   8.311   5.551   2.563 -1.0648  0.2128 -0.2075
10815TIP3    H132390   8.289   5.536   2.471 -3.0786  2.1373 -0.1274
10815TIP3    H232391   8.238   5.512   2.612 -0.5402  0.1364  0.5423
10816TIP3   OH232392   1.541   0.360   5.037 -0.1955  0.0643 -0.4079
10816TIP3    H132393   1.524   0.381   4.945  0.4715  2.4055 -0.0886
10816TIP3    H232394   1.455   0.341   5.074 -0.4416 -1.1840 -1.5461
10817TIP3   OH232395   0.919   2.655   1.626  0.4001 -0.3369  0.1162
10817TIP3    H132396   0.910   2.561   1.612 -0.1218 -0.3737  0.7014
10817TIP3    H232397   0.853   2.677   1.691  1.8150  0.0888  1.4771
10818TIP3   OH232398   5.678   7.104   0.073  0.5726  0.3018  0.6605
10818TIP3    H132399   5.680   7.168   0.002 -0.1115 -2.1649 -1.7357
10818TIP3    H232400   5.623   7.144   0.140 -0.6509  1.8078 -1.1551
10819TIP3   OH232401   5.325   0.345   0.166 -0.4599 -0.0375  0.1109
10819TIP3    H132402   5.401   0.287   0.170 -0.0267  0.3143 -1.8775
10819TIP3    H232403   5.362   0.432   0.149 -1.1974  0.5816  1.4736
10820TIP3   OH232404   4.945   4.028   5.163 -0.1063  0.3663  0.1236
10820TIP3    H132405   4.956   3.964   5.093 -0.8053  0.5487 -0.1616
10820TIP3    H232406   5.033   4.039   5.200 -0.0631 -1.1426  0.5324
10821TIP3   OH232407   0.955   2.042   5.489 -0.2022 -0.5018 -0.7470
10821TIP3    H132408   0.918   1.954   5.497 -0.0106 -0.4138  2.2365
10821TIP3    H232409   1.050   2.029   5.496 -0.2347 -0.0118  1.0634
10822TIP3   OH232410   0.906   6.665   3.766  0.2937 -0.3838 -0.3875
10822TIP3    H132411   0.866   6.583   3.793 -1.8087  1.7210  3.9228
10822TIP3    H232412   0.836   6.713   3.721  2.1354 -1.4993 -5.1095
10823TIP3   OH232413   5.248   6.771   1.403 -0.0540  0.3479 -0.1756
10823TIP3    H132414   5.201   6.777   1.320  0.3353  0.7231 -0.3711
10823TIP3    H232415   5.301   6.691   1.395  0.6570  0.8562 -0.6454
10824TIP3   OH232416   6.549   5.140   2.202  0.2009 -0.3948 -0.0859
10824TIP3    H132417   6.627   5.174   2.158  1.4991 -1.0223  1.6270
10824TIP3    H232418   6.582   5.101   2.283 -1.6453 -2.5003 -0.2435
10825TIP3   OH232419   0.940   5.046   4.646  0.5106 -0.2057 -0.2055
10825TIP3    H132420   0.970   5.094   4.723  1.5189 -1.4348  0.2048
10825TIP3    H232421   0.871   4.988   4.679 -0.2966  0.5303 -0.5834
10826TIP3   OH232422   0.974   1.748   4.401  0.2469 -0.3544  0.2949
10826TIP3    H132423   0.930   1.737   4.486  0.9408 -2.0765  0.4793
10826TIP3    H232424   1.066   1.762   4.424  0.6129 -1.8053 -0.1388
10827TIP3   OH232425   1.876   1.869   6.525 -0.0256 -0.1162  0.6891
10827TIP3    H132426   1.911   1.873   6.436 -1.0270  0.9628  0.3219
10827TIP3    H232427   1.833   1.783   6.531 -2.0968  0.7564 -0.7324
10828TIP3   OH232428   3.148   4.118   3.751 -0.0210  0.2961 -0.2140
10828TIP3    H132429   3.079   4.134   3.816 -0.8664  0.3242 -1.0952
10828TIP3    H232430   3.128   4.032   3.715  0.5137  0.2266 -0.3477
10829TIP3   OH232431   5.272   0.652   3.780  0.3765 -0.4096 -0.1601
10829TIP3    H132432   5.261   0.735   3.827  1.8862 -0.6444  0.6575
10829TIP3    H232433   5.190   0.642   3.730  0.3161  1.7507 -0.5959
10830TIP3   OH232434   3.315   3.559   2.618 -0.5087 -0.4511 -0.2222
10830TIP3    H132435   3.381   3.572   2.685  1.1899 -1.4464 -1.6256
10830TIP3    H232436   3.233   3.590   2.658  0.7355  0.5973  1.6415
10831TIP3   OH232437   5.616   7.590   1.768 -0.0924 -0.7599 -0.0624
10831TIP3    H132438   5.632   7.666   1.824  2.4996 -1.4926  0.3412
10831TIP3    H232439   5.521   7.580   1.767 -0.3461  0.5756  2.4652
10832TIP3   OH232440   7.718   7.591   5.415  0.6146 -0.1204  0.7799
10832TIP3    H132441   7.663   7.514   5.429 -0.5976  0.4646 -0.4527
10832TIP3    H232442   7.797   7.557   5.372  0.2519 -0.7308  0.5849
10833TIP3   OH232443   4.795   1.631   0.700 -0.2603 -0.1700 -0.1641
10833TIP3    H132444   4.709   1.590   0.698  0.0826 -0.9081 -0.0519
10833TIP3    H232445   4.854   1.565   0.663  0.2844  0.2592 -0.0699
10834TIP3   OH232446   3.255   1.189   3.883 -0.0573 -0.1876 -0.1389
10834TIP3    H132447   3.231   1.163   3.794  0.4877  0.5430 -0.5008
10834TIP3    H232448   3.199   1.264   3.903 -0.3348 -0.4829  0.2246
10835TIP3   OH232449   4.241   6.583   6.699 -0.2020  0.0425 -0.4287
10835TIP3    H132450   4.189   6.650   6.655  0.8979  0.0718 -1.7542
10835TIP3    H232451   4.179   6.513   6.718 -0.7503  0.0495 -2.0247
10836TIP3   OH232452   4.404   6.721   5.146 -0.1606  0.3889  0.8316
10836TIP3    H132453   4.319   6.764   5.131 -0.4287  0.1503  1.6512
10836TIP3    H232454   4.408   6.708   5.240  0.6484  0.0938  0.7587
10837TIP3   OH232455   7.049   3.992   1.429 -0.0874 -0.1888 -0.2689
10837TIP3    H132456   6.995   4.059   1.471 -0.1389 -1.0413  1.0906
10837TIP3    H232457   7.056   3.922   1.494  1.9979 -0.4588 -0.6916
10838TIP3   OH232458   0.755   2.949   3.809  0.0801 -0.1174 -0.7393
10838TIP3    H132459   0.757   2.997   3.891 -1.4997  1.1024 -1.3564
10838TIP3    H232460   0.812   2.873   3.824 -0.9183 -0.4610  1.7888
10839TIP3   OH232461   2.747   7.821   3.329 -0.0113  0.1915  0.3638
10839TIP3    H132462   2.808   7.893   3.314 -1.8333  1.9031  0.8176
10839TIP3    H232463   2.796   7.742   3.303  1.2204  1.7588 -2.5019
10840TIP3   OH232464   4.969   4.666   6.156  0.0248 -0.6885  0.0289
10840TIP3    H132465   4.983   4.608   6.231 -0.5912 -0.8842 -0.0026
10840TIP3    H232466   5.057   4.698   6.134  0.4081 -1.7836 -0.0994
10841TIP3   OH232467   3.096   2.726   1.791 -0.2971 -0.0726  0.4484
10841TIP3    H132468   3.087   2.802   1.734 -0.1695  0.6895  1.4165
10841TIP3    H232469   3.130   2.761   1.873 -0.2704 -1.1709  0.9281
10842TIP3   OH232470   2.265   2.818   5.517  0.0964  0.1508  0.7708
10842TIP3    H132471   2.197   2.759   5.548  0.0224 -0.2400 -0.0769
10842TIP3    H232472   2.258   2.813   5.421 -0.4993  2.2369  0.6664
10843TIP3   OH232473   0.963   1.374   5.927  0.2494 -0.1044 -0.3753
10843TIP3    H132474   0.881   1.418   5.949 -0.0690 -0.9060  0.0719
10843TIP3    H232475   1.031   1.439   5.943 -0.2044  0.1858  0.3786
10844TIP3   OH232476   5.684   0.712   0.858  0.0995  0.6922  0.3233
10844TIP3    H132477   5.717   0.665   0.934 -0.1573 -1.1928 -0.6847
10844TIP3    H232478   5.595   0.737   0.882 -0.7504 -1.7142 -0.0292
10845TIP3   OH232479   5.601   5.779   5.057 -0.0197 -0.6205 -0.2136
10845TIP3    H132480   5.575   5.774   4.964 -2.6077  0.2734  0.3693
10845TIP3    H232481   5.552   5.708   5.098  0.0460 -0.1547  0.6782
10846TIP3   OH232482   4.609   5.078   3.595 -0.1678  0.4571  0.3372
10846TIP3    H132483   4.691   5.046   3.634 -0.7268 -2.2299 -0.5118
10846TIP3    H232484   4.623   5.070   3.501 -1.7092 -1.0035  0.1926
10847TIP3   OH232485   7.236   6.657   0.199  0.1070  0.4443 -0.0492
10847TIP3    H132486   7.166   6.719   0.178  1.1469  1.4254 -0.7150
10847TIP3    H232487   7.270   6.629   0.114  1.4586  1.0820  0.2575
10848TIP3   OH232488   2.798   5.366   1.357  0.2973 -0.3890 -0.0381
10848TIP3    H132489   2.870   5.400   1.305  0.0402  0.0938 -0.0809
10848TIP3    H232490   2.797   5.272   1.338 -0.3050 -0.0988 -1.5298
10849TIP3   OH232491   0.343   2.187   3.246 -0.7157 -0.4648 -0.1763
10849TIP3    H132492   0.421   2.234   3.277 -0.2098 -2.0849  1.2095
10849TIP3    H232493   0.376   2.101   3.219 -1.7328 -0.4037 -1.7198
10850TIP3   OH232494   4.383   6.058   2.835  0.4944  0.4979 -0.5849
10850TIP3    H132495   4.387   5.963   2.845  2.7329  0.5891  0.0968
10850TIP3    H232496   4.328   6.088   2.908 -0.9506 -0.2974 -1.3113
10851TIP3   OH232497   5.893   2.219   2.093  0.4467 -0.1526 -0.0548
10851TIP3    H132498   5.942   2.195   2.014 -0.2179  0.1281 -0.5627
10851TIP3    H232499   5.929   2.164   2.162  1.3900 -0.0408 -0.4450
10852TIP3   OH232500   7.258   2.823   1.897  0.7403  0.2398  0.2948
10852TIP3    H132501   7.271   2.855   1.808  2.0543 -1.2683 -0.1001
10852TIP3    H232502   7.328   2.865   1.948  1.3074 -0.5245  0.1598
10853TIP3   OH232503   4.417   5.839   2.495  0.0447 -0.5436 -0.1226
10853TIP3    H132504   4.479   5.775   2.531  0.9627 -0.0502 -0.7909
10853TIP3    H232505   4.341   5.833   2.553  0.6563 -1.2519  0.6435
10854TIP3   OH232506   7.417   7.025   4.628 -0.7181  0.2510 -0.7397
10854TIP3    H132507   7.392   7.117   4.634 -1.3127  0.0182  1.3821
10854TIP3    H232508   7.449   7.014   4.539  1.9340  3.1818 -0.3484
10855TIP3   OH232509   5.805   6.346   3.480 -0.1706  0.6576  0.4728
10855TIP3    H132510   5.727   6.400   3.498 -0.4235  0.2443  0.6254
10855TIP3    H232511   5.779   6.257   3.504 -0.1854  0.2408 -0.9713
10856TIP3   OH232512   0.406   7.295   6.246  0.2014  0.3209 -0.0133
10856TIP3    H132513   0.387   7.203   6.263 -1.9668  0.8124  0.4247
10856TIP3    H232514   0.432   7.298   6.154  0.3736 -0.7376 -0.0008
10857TIP3   OH232515   0.928   0.410   0.664  0.1594  0.2842  0.1398
10857TIP3    H132516   1.010   0.368   0.690  0.0629  0.3428  0.5382
10857TIP3    H232517   0.952   0.501   0.645 -0.0152  0.5951  1.3748
10858TIP3   OH232518   8.239   6.930   3.076 -0.6136  0.4120  0.5533
10858TIP3    H132519   8.309   6.872   3.106 -1.8769 -0.3334  2.2245
10858TIP3    H232520   8.159   6.879   3.085 -1.4398  1.3653 -0.9826
10859TIP3   OH232521   1.916   3.069   2.289  0.6234 -0.2269  0.0717
10859TIP3    H132522   1.965   3.048   2.209  2.8829  1.5817  0.8822
10859TIP3    H232523   1.971   3.037   2.360 -0.3351  0.1063  0.9850
10860TIP3   OH232524   6.996   0.312   3.032 -0.2121  0.6031  0.0182
10860TIP3    H132525   7.036   0.252   3.096  0.2642 -0.1341 -0.9396
10860TIP3    H232526   7.053   0.388   3.031 -1.0143  1.2613  1.5091
10861TIP3   OH232527   4.741   2.686   1.895  0.1797  0.1046 -0.6171
10861TIP3    H132528   4.802   2.716   1.963  0.0649 -1.3646  0.1897
10861TIP3    H232529   4.797   2.664   1.821  0.5125 -0.0165 -0.3353
10862TIP3   OH232530   1.195   0.618   1.869 -0.1600  0.0485  0.3160
10862TIP3    H132531   1.149   0.589   1.791 -1.0023 -0.6542  1.0456
10862TIP3    H232532   1.280   0.574   1.865 -1.2519 -2.3302  1.1882
10863TIP3   OH232533   0.249   3.339   3.548  0.5267 -0.4215 -0.0524
10863TIP3    H132534   0.251   3.384   3.463 -1.4737  0.4616  0.3070
10863TIP3    H232535   0.173   3.281   3.542 -0.5854  0.7608  1.6219
10864TIP3   OH232536   3.974   7.506   5.686 -0.7434  0.3750  0.6974
10864TIP3    H132537   4.046   7.554   5.645 -0.4126  0.1686  1.0292
10864TIP3    H232538   3.906   7.503   5.619 -1.2322  2.3109  1.0640
10865TIP3   OH232539   4.018   2.323   3.052 -0.5347  0.3883  0.6026
10865TIP3    H132540   4.004   2.287   2.964  0.1649  0.0334  0.6330
10865TIP3    H232541   4.010   2.249   3.111 -0.2132  0.4833  0.7680
10866TIP3   OH232542   0.663   1.317   0.600 -0.2571 -0.1655  0.0547
10866TIP3    H132543   0.674   1.375   0.525 -2.8479  0.5154  0.0928
10866TIP3    H232544   0.645   1.231   0.561 -0.2295 -0.1095 -0.0835
10867TIP3   OH232545   7.163   1.387   3.948 -0.2166  0.1272 -0.2340
10867TIP3    H132546   7.174   1.397   3.854  1.5518 -1.3927 -0.2307
10867TIP3    H232547   7.120   1.302   3.959  1.4063 -0.6502  0.3742
10868TIP3   OH232548   2.257   6.800   3.419 -0.3181  0.1000 -0.3351
10868TIP3    H132549   2.175   6.833   3.456 -0.6761  0.6657 -1.5842
10868TIP3    H232550   2.325   6.856   3.455 -0.2476 -1.2966  1.9104
10869TIP3   OH232551   2.494   1.668   2.177  0.2075 -0.3748  0.2089
10869TIP3    H132552   2.476   1.747   2.125 -0.9024 -0.4184  0.5196
10869TIP3    H232553   2.566   1.694   2.235 -0.0802  0.3748  0.2362
10870TIP3   OH232554   6.524   7.250   0.817  0.0245  0.5960 -0.2373
10870TIP3    H132555   6.489   7.174   0.771  0.3178  0.5456 -0.3775
10870TIP3    H232556   6.469   7.323   0.788  0.0602  0.5244 -0.4883
10871TIP3   OH232557   4.879   3.160   1.721  0.5134  0.5182 -0.1717
10871TIP3    H132558   4.873   3.149   1.626  1.8636 -0.8657 -0.1366
10871TIP3    H232559   4.972   3.158   1.740  0.4192  3.2048  0.9848
10872TIP3   OH232560   0.909   4.629   5.089  0.2597  0.1351  0.3970
10872TIP3    H132561   0.984   4.663   5.039 -0.0820 -0.0525 -0.2603
10872TIP3    H232562   0.944   4.611   5.176  0.8799  0.4391  0.2157
10873TIP3   OH232563   2.901   6.480   0.013  0.1222 -0.2198  0.3194
10873TIP3    H132564   2.993   6.507   0.020  0.6248 -1.6004 -0.4656
10873TIP3    H232565   2.888   6.419   0.086  0.1565 -0.8420 -0.1836
10874TIP3   OH232566   7.291   1.923   3.071  0.0865 -0.3074  0.2998
10874TIP3    H132567   7.213   1.932   3.017  0.8488  0.7192 -0.6686
10874TIP3    H232568   7.289   1.832   3.102 -0.2627 -0.9867 -1.6076
10875TIP3   OH232569   4.671   5.645   6.158  0.1092 -0.1393  0.3151
10875TIP3    H132570   4.755   5.673   6.121  0.6872 -1.8570  0.2319
10875TIP3    H232571   4.693   5.621   6.249 -0.0722 -1.4638  0.0294
10876TIP3   OH232572   3.558   0.086   2.339  0.1307  0.3547 -0.0229
10876TIP3    H132573   3.607   0.135   2.273 -0.5058  1.0987  0.0402
10876TIP3    H232574   3.611   0.093   2.418 -0.1174  1.2542  0.0757
10877TIP3   OH232575   5.695   1.993   5.466 -0.6351 -0.4484 -0.1014
10877TIP3    H132576   5.714   1.952   5.381  0.3360 -1.0193  0.3702
10877TIP3    H232577   5.642   2.069   5.444 -0.3180 -0.5282 -1.2421
10878TIP3   OH232578   4.616   6.956   6.343 -0.4149  0.1391  0.1430
10878TIP3    H132579   4.690   6.987   6.395 -0.6975  3.0226 -0.9609
10878TIP3    H232580   4.647   6.958   6.253 -1.8227  1.6342 -0.3676
10879TIP3   OH232581   5.622   5.910   1.249 -0.1436  0.2636 -0.4506
10879TIP3    H132582   5.550   5.966   1.219  0.0677  1.6553  1.5020
10879TIP3    H232583   5.674   5.894   1.170 -1.4090  1.0095 -1.4782
10880TIP3   OH232584   2.430   1.377   2.495 -0.0826 -0.2527 -0.3349
10880TIP3    H132585   2.448   1.304   2.554  1.8470 -0.0931 -0.6551
10880TIP3    H232586   2.467   1.453   2.541 -0.3639  0.2074 -0.8623
10881TIP3   OH232587   4.887   6.456   5.802 -0.2256 -0.3726  0.2912
10881TIP3    H132588   4.793   6.458   5.787 -0.1047 -2.1788 -1.0014
10881TIP3    H232589   4.921   6.527   5.746 -0.8554  0.8970  1.4616
10882TIP3   OH232590   7.180   4.505   2.092 -0.5174  0.4861 -0.0470
10882TIP3    H132591   7.121   4.579   2.081  0.9159  1.6506 -0.2176
10882TIP3    H232592   7.207   4.509   2.184 -1.3303 -0.5476  0.2518
10883TIP3   OH232593   0.899   0.425   6.788 -1.0398  0.1394 -0.3210
10883TIP3    H132594   0.960   0.426   6.714 -0.7448  2.3175 -0.1165
10883TIP3    H232595   0.859   0.339   6.785 -1.3258  0.2820 -3.2755
10884TIP3   OH232596   7.292   2.138   0.240 -0.7063  0.3599  0.2752
10884TIP3    H132597   7.263   2.103   0.325 -1.7619 -0.1172 -0.2624
10884TIP3    H232598   7.212   2.146   0.189  0.0717 -0.7630 -1.1896
10885TIP3   OH232599   6.124   1.614   3.978 -0.5243  0.1405  0.2000
10885TIP3    H132600   6.055   1.665   3.937  1.4641  1.1814 -2.0975
10885TIP3    H232601   6.119   1.528   3.936 -0.2366  0.3363 -0.2514
10886TIP3   OH232602   6.141   4.915   0.202  0.0992  0.1026  0.2583
10886TIP3    H132603   6.070   4.934   0.263 -0.5527 -0.4775 -0.2972
10886TIP3    H232604   6.123   4.970   0.126 -1.4786 -2.1554 -1.1194
10887TIP3   OH232605   0.210   4.200   0.912 -0.2962 -0.4776 -0.5829
10887TIP3    H132606   0.157   4.130   0.875 -2.3134 -0.3880  1.8403
10887TIP3    H232607   0.189   4.198   1.006  0.0232  2.9545 -0.3211
10888TIP3   OH232608   3.764   7.465   5.497 -0.5804 -0.0620 -0.2247
10888TIP3    H132609   3.784   7.384   5.450 -0.0622  0.5029 -1.0165
10888TIP3    H232610   3.804   7.534   5.443 -0.4672  0.6623  0.7638
10889TIP3   OH232611   4.203   5.561   6.440  0.0167  0.1721  0.5874
10889TIP3    H132612   4.217   5.500   6.512 -1.7288 -1.3881 -0.3054
10889TIP3    H232613   4.288   5.565   6.395  0.9906  0.7913  2.3541
10890TIP3   OH232614   2.154   1.656   2.345 -0.1620 -0.0545 -0.6623
10890TIP3    H132615   2.226   1.700   2.301  1.2456 -3.2288 -1.8140
10890TIP3    H232616   2.191   1.574   2.377 -2.2159  0.1151  2.7021
10891TIP3   OH232617   2.734   5.249   4.508 -0.1153 -0.3285  0.2701
10891TIP3    H132618   2.654   5.264   4.458 -0.2421 -3.8559 -0.8888
10891TIP3    H232619   2.704   5.216   4.593  0.1472  1.8265  1.2496
10892TIP3   OH232620   4.677   0.056   2.584  0.5148 -0.1559 -0.2373
10892TIP3    H132621   4.664   0.148   2.608 -2.5991 -0.3810 -0.6279
10892TIP3    H232622   4.724   0.060   2.501  0.9509  1.0512  0.0433
10893TIP3   OH232623   1.135   4.554   3.533 -0.0994 -0.1408 -0.2730
10893TIP3    H132624   1.054   4.577   3.577 -0.0713  0.3238 -0.4575
10893TIP3    H232625   1.124   4.462   3.507 -1.4795  0.5284 -2.2722
10894TIP3   OH232626   0.347   5.374   3.490 -0.0060  0.2442 -0.5563
10894TIP3    H132627   0.271   5.317   3.489  1.0747 -1.2525 -0.2774
10894TIP3    H232628   0.376   5.376   3.582  3.1976 -3.3473 -1.2422
10895TIP3   OH232629   8.059   3.008   4.881  0.8851  0.3917  0.0282
10895TIP3    H132630   8.128   3.032   4.820  0.7435 -0.3801 -0.4416
10895TIP3    H232631   7.978   3.036   4.838  0.6041 -1.9213 -1.0830
10896TIP3   OH232632   5.115   2.854   5.150 -0.8072 -0.3929  0.0887
10896TIP3    H132633   5.049   2.846   5.220  0.6538 -3.1674  1.3313
10896TIP3    H232634   5.198   2.846   5.196  0.3376  0.6593 -1.7184
10897TIP3   OH232635   0.678   6.453   3.068  0.5740 -0.0029  0.4090
10897TIP3    H132636   0.769   6.464   3.095  1.0984 -1.1778 -0.8003
10897TIP3    H232637   0.683   6.414   2.981 -1.0678  1.8516 -0.6077
10898TIP3   OH232638   8.222   7.159   6.493 -0.0332  0.3416 -0.0798
10898TIP3    H132639   8.251   7.085   6.439  0.8841  0.8969 -0.3708
10898TIP3    H232640   8.128   7.165   6.477  0.1943  0.4079 -1.5438
10899TIP3   OH232641   0.506   7.645   3.444  0.5618 -0.1868 -0.0398
10899TIP3    H132642   0.561   7.571   3.418  1.0322 -0.3946  1.4373
10899TIP3    H232643   0.469   7.619   3.528 -1.2157  0.2794 -0.6283
10900TIP3   OH232644   3.083   0.385   0.136 -0.6722 -0.2387 -0.4961
10900TIP3    H132645   3.066   0.420   0.224  0.4824  1.5726 -0.9307
10900TIP3    H232646   3.068   0.291   0.144 -1.4715  0.0078  1.4115
10901TIP3   OH232647   5.541   4.269   4.723  0.5187 -0.6756  0.3577
10901TIP3    H132648   5.461   4.216   4.732 -0.5868  0.9232  0.4388
10901TIP3    H232649   5.607   4.206   4.694 -0.7002 -2.1104  0.4972
10902TIP3   OH232650   5.390   6.317   0.598  0.0057  0.7644  0.4002
10902TIP3    H132651   5.468   6.306   0.653  0.3920 -1.5258 -0.4908
10902TIP3    H232652   5.420   6.301   0.509 -1.4811 -0.3082  0.0473
10903TIP3   OH232653   0.744   5.578   0.646  0.1870  0.1810 -0.1670
10903TIP3    H132654   0.797   5.507   0.683  1.1239  0.4624 -0.9363
10903TIP3    H232655   0.676   5.533   0.596  0.5548 -0.1755 -0.3505
10904TIP3   OH232656   7.738   0.693   2.839 -0.3924 -0.0472  0.1421
10904TIP3    H132657   7.662   0.646   2.874 -0.9340 -0.3791 -1.3978
10904TIP3    H232658   7.772   0.636   2.770 -1.5679  2.0680 -2.3848
10905TIP3   OH232659   0.231   4.372   1.323  0.3953 -0.5077 -0.1541
10905TIP3    H132660   0.198   4.415   1.402 -2.5053 -0.9191 -1.0342
10905TIP3    H232661   0.324   4.358   1.341  0.3442  1.4590  2.2290
10906TIP3   OH232662   7.861   6.302   5.979  0.0307 -0.7603 -0.0302
10906TIP3    H132663   7.782   6.307   6.032 -0.6221  0.4661 -1.0544
10906TIP3    H232664   7.931   6.326   6.039 -0.5867 -0.2203  0.4919
10907TIP3   OH232665   7.269   7.562   1.978  0.0008  0.1305 -0.0704
10907TIP3    H132666   7.226   7.580   1.895 -1.7266 -1.3593  0.4341
10907TIP3    H232667   7.305   7.474   1.969 -0.7282 -0.2941  0.9310
10908TIP3   OH232668   6.676   2.967   4.754  0.0633  0.1583  0.4340
10908TIP3    H132669   6.733   2.968   4.831 -2.7642  0.6301  2.6846
10908TIP3    H232670   6.644   3.057   4.746  0.6921  0.2564 -1.6922
10909TIP3   OH232671   2.050   3.025   0.737  0.2755 -0.2911  0.7703
10909TIP3    H132672   1.972   3.076   0.714  0.2653 -0.4782  0.3719
10909TIP3    H232673   2.117   3.055   0.675 -0.2883 -2.1984 -0.8898
10910TIP3   OH232674   0.513   7.358   3.587  1.3410  0.1581  0.3321
10910TIP3    H132675   0.487   7.355   3.679 -0.5733  1.0052 -0.1280
10910TIP3    H232676   0.510   7.267   3.559  0.2358  0.0614  0.7008
10911TIP3   OH232677   7.113   0.188   4.328 -0.2326 -0.5799 -0.7486
10911TIP3    H132678   7.082   0.169   4.417  0.7070 -0.9004 -0.4778
10911TIP3    H232679   7.063   0.130   4.272 -0.1025 -1.1169 -0.3178
10912TIP3   OH232680   0.600   2.194   4.716  0.0667  0.3891 -0.5804
10912TIP3    H132681   0.551   2.160   4.641 -2.0749 -1.1594  1.3810
10912TIP3    H232682   0.540   2.184   4.790  2.3036  1.2913  1.4735
10913TIP3   OH232683   4.386   6.674   2.906  0.5883 -0.0061 -1.0945
10913TIP3    H132684   4.347   6.724   2.834  2.4719  0.4484 -1.8493
10913TIP3    H232685   4.371   6.582   2.884 -1.4766  0.1418 -0.5105
10914TIP3   OH232686   5.383   2.228   2.600  0.6416 -0.1416 -0.2053
10914TIP3    H132687   5.439   2.306   2.592  1.0853 -0.4235  0.0774
10914TIP3    H232688   5.402   2.195   2.688 -1.0180  0.5572  0.4732
10915TIP3   OH232689   3.496   2.817   1.106  0.3642  0.7523  0.4618
10915TIP3    H132690   3.402   2.802   1.090  0.1400  2.3157  0.1679
10915TIP3    H232691   3.530   2.848   1.022  0.9473  1.0726  0.8101
10916TIP3   OH232692   2.766   5.681   1.987  0.1402 -0.1377  1.1009
10916TIP3    H132693   2.717   5.599   1.974 -2.8141  1.5785  0.5768
10916TIP3    H232694   2.853   5.652   2.013 -0.2190 -3.4832 -0.7959
10917TIP3   OH232695   6.573   2.264   0.671 -0.6597  0.4922  0.0944
10917TIP3    H132696   6.654   2.240   0.716  0.1251  1.2383 -0.8567
10917TIP3    H232697   6.533   2.180   0.648  1.1876  0.0121 -1.7213
10918TIP3   OH232698   2.173   1.067   5.110 -0.4364 -0.0411  0.2080
10918TIP3    H132699   2.119   1.051   5.033  1.3259  0.6758 -1.2585
10918TIP3    H232700   2.244   1.003   5.103  1.3609  1.9132 -0.4414
10919TIP3   OH232701   2.702   6.556   4.978  0.3930  0.4758 -0.0504
10919TIP3    H132702   2.765   6.575   4.908 -0.5634  0.2511 -0.9948
10919TIP3    H232703   2.713   6.463   4.995  0.5302  0.5014  0.0018
10920TIP3   OH232704   7.909   7.361   5.044 -0.2838 -0.6009 -0.1529
10920TIP3    H132705   7.946   7.430   4.990 -1.2818 -0.4793 -0.7027
10920TIP3    H232706   7.905   7.285   4.986  0.4911 -1.0377  0.3480
10921TIP3   OH232707   0.605   6.671   2.247  0.4999  0.6001  0.2490
10921TIP3    H132708   0.685   6.629   2.277  0.2738  0.1842  0.2689
10921TIP3    H232709   0.627   6.764   2.244  1.2475  0.4104 -0.5651
10922TIP3   OH232710   6.086   6.692   6.239 -0.0030  0.1758  0.5942
10922TIP3    H132711   6.082   6.597   6.226 -0.1459  0.4449 -1.7962
10922TIP3    H232712   6.015   6.727   6.185  0.6027  1.6891  0.7193
10923TIP3   OH232713   5.568   3.026   1.591  0.2427  0.2267 -0.0317
10923TIP3    H132714   5.510   3.086   1.544  0.5320  0.3380 -0.2480
10923TIP3    H232715   5.512   2.951   1.613  0.3472 -0.3210 -1.5107
10924TIP3   OH232716   2.500   7.049   5.347  0.0771 -0.2061 -1.0873
10924TIP3    H132717   2.478   6.997   5.270 -0.0674 -1.5875 -0.1307
10924TIP3    H232718   2.591   7.026   5.367 -0.1417 -0.4628 -0.3713
10925TIP3   OH232719   1.974   5.551   5.742 -0.3471 -0.4335  0.3722
10925TIP3    H132720   2.011   5.622   5.690 -0.9657  0.1649  0.7300
10925TIP3    H232721   2.050   5.499   5.770  0.0279 -0.5527 -0.7866
10926TIP3   OH232722   6.724   1.386   4.188 -0.6093 -0.3195  0.1621
10926TIP3    H132723   6.775   1.402   4.268  0.2301 -2.5379  0.1271
10926TIP3    H232724   6.703   1.474   4.156  0.0281  0.6384  2.1786
10927TIP3   OH232725   2.822   3.012   2.061  0.1440 -0.4470  0.1669
10927TIP3    H132726   2.836   3.065   1.983 -1.4424  1.4821  1.1055
10927TIP3    H232727   2.907   3.009   2.104  0.4080  0.8434 -0.2281
10928TIP3   OH232728   6.783   4.629   0.844  0.0285  0.8425  0.1313
10928TIP3    H132729   6.757   4.563   0.780  1.2053  1.4742 -1.0504
10928TIP3    H232730   6.799   4.708   0.792  2.6834  0.9343  0.9135
10929TIP3   OH232731   3.514   1.273   5.308 -0.0010 -0.0698 -0.1922
10929TIP3    H132732   3.427   1.299   5.338 -0.0349 -0.1795 -0.1968
10929TIP3    H232733   3.561   1.356   5.297 -0.2088  0.0088 -0.5079
10930TIP3   OH232734   7.409   1.805   6.406  0.1045 -0.1417  0.1106
10930TIP3    H132735   7.413   1.764   6.492 -1.1636 -1.0756 -0.2496
10930TIP3    H232736   7.319   1.792   6.377  0.1309  1.3797 -0.7813
10931TIP3   OH232737   0.299   3.519   0.833 -0.0905  0.5146  0.2005
10931TIP3    H132738   0.225   3.475   0.876  0.9878  0.9857  2.7011
10931TIP3    H232739   0.334   3.452   0.774  0.1026 -1.2987  2.2152
10932TIP3   OH232740   5.070   0.468   4.444  0.5838  0.0637 -0.3937
10932TIP3    H132741   5.161   0.466   4.414  0.6093  2.1258 -0.5591
10932TIP3    H232742   5.019   0.464   4.363  0.5142 -0.6546 -0.3233
10933TIP3   OH232743   6.001   6.261   4.801 -0.1042 -0.1053  0.1867
10933TIP3    H132744   5.990   6.198   4.730 -0.2050 -0.8657  0.8604
10933TIP3    H232745   5.959   6.219   4.877 -0.6078  0.9874  0.5295
10934TIP3   OH232746   7.883   0.549   6.579 -0.4168 -0.3778  0.1949
10934TIP3    H132747   7.814   0.609   6.552 -2.1240 -0.6928  3.3572
10934TIP3    H232748   7.839   0.487   6.638  1.8613 -2.9504 -0.5877
10935TIP3   OH232749   4.816   1.862   2.254 -0.3675  0.4547  0.3448
10935TIP3    H132750   4.838   1.783   2.304 -0.7701  0.6572  0.8597
10935TIP3    H232751   4.892   1.878   2.199 -0.3372 -0.3761  0.1309
10936TIP3   OH232752   0.355   2.061   5.487  0.0791  0.2226  0.7411
10936TIP3    H132753   0.340   2.061   5.392  0.1065  0.7581  0.7315
10936TIP3    H232754   0.429   2.121   5.499  0.4589 -0.3037  1.0463
10937TIP3   OH232755   0.645   3.284   3.505  0.3745  0.1521  0.5098
10937TIP3    H132756   0.652   3.248   3.594  2.3585 -0.1971  0.2688
10937TIP3    H232757   0.634   3.207   3.449 -3.0614  0.4710  0.5200
10938TIP3   OH232758   1.333   6.969   0.561  0.6815 -0.4035  0.1005
10938TIP3    H132759   1.283   6.899   0.520  1.7015 -0.6888 -0.6986
10938TIP3    H232760   1.351   7.031   0.490  0.7476  0.1068  0.5564
10939TIP3   OH232761   0.621   1.771   6.095 -0.3181 -0.2570 -0.3145
10939TIP3    H132762   0.665   1.850   6.126  0.5427 -0.5674 -0.7060
10939TIP3    H232763   0.625   1.777   6.000 -0.9795 -0.3813 -0.3561
10940TIP3   OH232764   2.843   1.913   1.543  0.0097  0.6698  0.2015
10940TIP3    H132765   2.881   1.988   1.497  1.5718 -0.2809 -0.1400
10940TIP3    H232766   2.917   1.855   1.558 -1.2270 -0.9898  0.0999
10941TIP3   OH232767   4.673   1.879   6.311 -0.3225 -0.0519  0.1040
10941TIP3    H132768   4.678   1.972   6.334  0.7964 -0.3415  1.1728
10941TIP3    H232769   4.601   1.845   6.365  0.6156 -0.2041  1.2935
10942TIP3   OH232770   8.322   3.812   5.323 -0.0272 -0.3367  0.1079
10942TIP3    H132771   8.226   3.813   5.333 -0.0181  1.3647  0.2234
10942TIP3    H232772   8.336   3.764   5.241 -1.0748  0.6146 -0.6697
10943TIP3   OH232773   0.164   4.617   4.791  0.3159 -0.0759 -0.4164
10943TIP3    H132774   0.172   4.522   4.788  1.3254  0.0085 -1.8942
10943TIP3    H232775   0.192   4.641   4.879  0.3677 -1.1321 -0.1368
10944TIP3   OH232776   7.670   6.103   4.325 -0.2205  0.3918  0.0083
10944TIP3    H132777   7.601   6.142   4.272  0.8748  2.1998 -0.1558
10944TIP3    H232778   7.642   6.012   4.336 -1.8340  0.6609 -1.3494
10945TIP3   OH232779   2.592   2.417   2.668 -0.0544 -0.8103 -0.0450
10945TIP3    H132780   2.560   2.499   2.630  1.7975 -0.6557 -1.4019
10945TIP3    H232781   2.541   2.349   2.625  0.2694 -0.4965 -0.9396
10946TIP3   OH232782   5.032   1.684   5.337 -0.5710 -0.2039 -0.4361
10946TIP3    H132783   5.043   1.601   5.384  0.7113  0.3846  0.3637
10946TIP3    H232784   5.086   1.674   5.258 -0.5045 -0.1754 -0.3945
10947TIP3   OH232785   3.224   2.399   0.920 -0.4645 -0.4926 -0.0447
10947TIP3    H132786   3.246   2.306   0.918 -0.7798 -0.5613 -1.7761
10947TIP3    H232787   3.145   2.406   0.866 -0.4503  0.7816  0.0705
10948TIP3   OH232788   0.867   6.452   0.843 -0.0580  0.4950 -0.3051
10948TIP3    H132789   0.777   6.439   0.873 -0.3404  0.8350 -0.9846
10948TIP3    H232790   0.866   6.539   0.803  0.4033  0.2173 -0.9387
10949TIP3   OH232791   7.483   0.535   6.637  0.3224 -0.4959  0.0863
10949TIP3    H132792   7.504   0.519   6.729 -0.4838 -2.9045 -0.0836
10949TIP3    H232793   7.448   0.452   6.606 -2.4792  1.1146 -1.5490
10950TIP3   OH232794   5.534   3.330   2.345 -0.2376 -0.9056 -0.2801
10950TIP3    H132795   5.567   3.365   2.262 -0.4664 -2.0485 -0.8711
10950TIP3    H232796   5.526   3.236   2.330 -0.2039 -1.1418  1.0755
10951TIP3   OH232797   0.108   4.818   5.773  0.5214 -0.7585  0.2737
10951TIP3    H132798   0.070   4.738   5.807 -1.9229  0.0382 -0.3562
10951TIP3    H232799   0.060   4.888   5.817 -0.6785  0.2920 -2.4773
10952TIP3   OH232800   0.101   5.273   6.652  0.2670  0.4443 -0.3593
10952TIP3    H132801   0.099   5.187   6.695  0.7679  0.4714 -0.2678
10952TIP3    H232802   0.089   5.336   6.723  0.7708  0.4767 -0.2962
10953TIP3   OH232803   5.719   4.431   2.752  0.0912 -0.0450 -0.6993
10953TIP3    H132804   5.808   4.466   2.760  0.2209 -0.2743 -1.0918
10953TIP3    H232805   5.671   4.469   2.825  1.1830 -2.0318  1.1688
10954TIP3   OH232806   3.014   2.793   2.152  0.3811 -0.1967 -0.1080
10954TIP3    H132807   3.076   2.828   2.088 -0.2024 -0.1441 -0.6585
10954TIP3    H232808   3.053   2.712   2.183  0.9143  0.0437 -0.1424
10955TIP3   OH232809   3.356   3.979   4.344  0.4216  0.1519 -0.2892
10955TIP3    H132810   3.357   3.884   4.347 -1.3075  0.1166  0.3936
10955TIP3    H232811   3.332   4.000   4.254 -0.9494 -0.1147  0.0016
10956TIP3   OH232812   0.397   2.322   1.027 -0.4450  0.4972 -0.1210
10956TIP3    H132813   0.481   2.313   0.981 -1.1324  0.2299 -1.3676
10956TIP3    H232814   0.368   2.232   1.043  1.4139  0.4115  4.0944
10957TIP3   OH232815   2.751   3.745   5.329 -0.1046  0.4387 -0.3245
10957TIP3    H132816   2.734   3.818   5.270  0.1067  1.5704  0.9747
10957TIP3    H232817   2.846   3.733   5.326 -0.1588  0.0675 -0.6905
10958TIP3   OH232818   4.644   2.687   1.282 -0.0292 -0.2063  0.1544
10958TIP3    H132819   4.721   2.669   1.229 -0.1649  0.0696 -0.1417
10958TIP3    H232820   4.571   2.686   1.219 -0.0223  1.6321  0.0628
10959TIP3   OH232821   7.996   0.152   1.984  0.1261 -0.3797  0.3136
10959TIP3    H132822   7.978   0.246   1.986  0.8594 -0.2436  1.1858
10959TIP3    H232823   8.079   0.142   2.031  0.3247 -1.4102 -0.2123
10960TIP3   OH232824   1.128   4.864   6.798  0.1396 -0.1787  0.0376
10960TIP3    H132825   1.036   4.887   6.813 -0.0412  0.1280 -1.4632
10960TIP3    H232826   1.134   4.848   6.704  1.3986 -1.2633  0.2724
10961TIP3   OH232827   2.671   1.350   4.912  0.3192  0.7051  0.6195
10961TIP3    H132828   2.653   1.264   4.950  0.0365 -0.2565 -1.5278
10961TIP3    H232829   2.750   1.337   4.860 -0.5155  1.3323 -0.8771
10962TIP3   OH232830   5.121   6.730   4.190  0.1238  0.5675  0.3027
10962TIP3    H132831   5.039   6.779   4.194  0.3558  1.1447 -1.3292
10962TIP3    H232832   5.185   6.788   4.232 -0.2272  0.2652  1.2658
10963TIP3   OH232833   1.474   2.840   5.033  0.9793  1.0102 -0.1573
10963TIP3    H132834   1.524   2.848   4.952  1.4037 -2.5000 -0.4021
10963TIP3    H232835   1.535   2.864   5.103  2.1692 -0.4625 -0.6415
10964TIP3   OH232836   5.678   3.846   6.594  0.3455  0.0337 -0.3412
10964TIP3    H132837   5.606   3.852   6.656  0.1007 -1.1901 -0.4756
10964TIP3    H232838   5.717   3.760   6.612  1.2986  0.3674 -0.7750
10965TIP3   OH232839   1.445   2.224   4.967  0.0310 -0.0202  0.0994
10965TIP3    H132840   1.483   2.282   4.901 -0.2045 -0.4441 -0.4133
10965TIP3    H232841   1.381   2.279   5.013 -0.0364  0.1907 -0.2401
10966TIP3   OH232842   5.904   5.104   0.865 -0.6503 -0.0882 -0.4822
10966TIP3    H132843   5.849   5.172   0.903  0.3625  0.3285  0.2545
10966TIP3    H232844   5.848   5.025   0.866 -0.2656 -0.4736  3.1895
10967TIP3   OH232845   6.434   6.085   0.811  0.0107 -0.0171  0.5386
10967TIP3    H132846   6.353   6.132   0.832 -0.3309 -1.2948  2.3675
10967TIP3    H232847   6.404   6.002   0.774  0.5631  0.2227 -0.5049
10968TIP3   OH232848   0.922   0.512   2.287  0.3455 -0.8304 -0.0677
10968TIP3    H132849   0.839   0.546   2.319  0.9871  0.4668  0.2723
10968TIP3    H232850   0.953   0.454   2.356  2.1626  2.6336  2.3246
10969TIP3   OH232851   6.792   0.104   3.938 -0.0808  0.1101 -0.0474
10969TIP3    H132852   6.761   0.144   3.856  0.9760  0.9196 -0.0756
10969TIP3    H232853   6.770   0.011   3.930  0.1253  0.1563 -1.3116
10970TIP3   OH232854   7.535   4.461   0.026  0.0935 -0.6056 -0.2283
10970TIP3    H132855   7.517   4.433  -0.064 -1.5416  0.6341 -0.3297
10970TIP3    H232856   7.452   4.497   0.056  1.0813  0.5451  1.2076
10971TIP3   OH232857   6.739   4.235   6.211  0.2117 -0.3440  0.2000
10971TIP3    H132858   6.747   4.321   6.170 -1.2974 -0.9318 -1.4593
10971TIP3    H232859   6.826   4.196   6.200  0.4446  0.3429 -0.5209
10972TIP3   OH232860   0.688   5.580   5.906 -0.2893  0.0530 -0.3678
10972TIP3    H132861   0.606   5.532   5.895  1.1333 -2.5952 -0.2724
10972TIP3    H232862   0.714   5.563   5.996 -0.9027  3.1514  0.4953
10973TIP3   OH232863   1.217   6.007   2.667  0.3022  0.6256 -0.2804
10973TIP3    H132864   1.234   5.982   2.577 -2.1590  1.0960 -0.9434
10973TIP3    H232865   1.145   5.951   2.695 -0.3073  1.8376  0.7021
10974TIP3   OH232866   2.432   2.985   4.988  0.2312  0.0047 -0.1883
10974TIP3    H132867   2.466   2.918   5.047  0.3720  1.0292  0.9227
10974TIP3    H232868   2.499   3.053   4.987 -0.7561  1.0166  0.2455
10975TIP3   OH232869   4.280   2.894   1.596  0.0883 -0.2599  0.8609
10975TIP3    H132870   4.192   2.865   1.570 -0.1202 -0.1530  1.4320
10975TIP3    H232871   4.331   2.893   1.515 -0.4356 -0.3491  0.5301
10976TIP3   OH232872   8.176   3.257   5.030 -0.1309 -0.5233 -0.0440
10976TIP3    H132873   8.174   3.191   5.099 -2.7808  1.2469  1.7444
10976TIP3    H232874   8.138   3.214   4.954 -2.0150 -1.0744  1.1425
10977TIP3   OH232875   5.722   4.960   6.341 -0.2729 -0.0927  0.1876
10977TIP3    H132876   5.646   5.012   6.367 -0.2268  0.3251 -0.4914
10977TIP3    H232877   5.699   4.927   6.254 -0.3879 -1.3792  0.6788
10978TIP3   OH232878   2.075   0.454   0.045  0.6267 -1.0685 -0.0084
10978TIP3    H132879   2.154   0.499   0.014 -0.1624 -0.9695 -2.0559
10978TIP3    H232880   2.020   0.523   0.081  0.6085 -0.8041 -0.5311
10979TIP3   OH232881   7.187   1.828   2.101 -0.1668 -0.1569  0.2637
10979TIP3    H132882   7.196   1.738   2.071  1.6759 -1.0230  3.0500
10979TIP3    H232883   7.235   1.880   2.036  1.1912 -1.5400  0.1069
10980TIP3   OH232884   6.085   1.673   1.526 -0.1420  0.5454  0.2800
10980TIP3    H132885   6.104   1.592   1.479 -0.6873  0.2228  0.6097
10980TIP3    H232886   6.014   1.714   1.476  0.5936  1.1802 -0.2885
10981TIP3   OH232887   0.833   7.434   2.636  0.4978 -0.2111 -0.3960
10981TIP3    H132888   0.873   7.443   2.549  2.2340  0.6482  0.4331
10981TIP3    H232889   0.843   7.520   2.676  1.5413 -1.0926  1.3679
10982TIP3   OH232890   3.061   4.887   4.765  0.0917  0.0833  0.1816
10982TIP3    H132891   3.146   4.924   4.742  0.0501  0.5441  0.7453
10982TIP3    H232892   3.055   4.806   4.714  0.6222  0.3366 -0.2865
10983TIP3   OH232893   1.436   7.749   6.166 -0.4396 -0.0111 -0.1732
10983TIP3    H132894   1.518   7.707   6.190  0.0138  0.1422 -1.4080
10983TIP3    H232895   1.408   7.705   6.086 -1.2003  0.4200 -0.1604
10984TIP3   OH232896   7.473   3.825   2.140  0.2972  0.6532  0.1514
10984TIP3    H132897   7.416   3.748   2.143 -0.1132  0.8725 -1.4490
10984TIP3    H232898   7.562   3.789   2.149 -0.0127  0.3316  2.9282
10985TIP3   OH232899   5.998   7.026   2.438  0.4081  0.0925 -0.2401
10985TIP3    H132900   6.052   6.948   2.426 -0.2871 -0.4845  0.2633
10985TIP3    H232901   5.908   6.995   2.426  0.0740  0.6549  0.7244
10986TIP3   OH232902   3.033   1.870   5.507  1.1103 -0.0554 -0.2175
10986TIP3    H132903   2.981   1.898   5.432 -0.5378  0.0377  0.8950
10986TIP3    H232904   3.078   1.950   5.535  1.4209 -0.0016 -0.8644
10987TIP3   OH232905   6.680   1.110   6.420 -0.0142  0.1321  0.5766
10987TIP3    H132906   6.744   1.091   6.352 -1.8888  0.9905 -1.5687
10987TIP3    H232907   6.657   1.025   6.456 -1.7916 -0.9425 -2.6635
10988TIP3   OH232908   5.287   3.247   2.040 -0.1449  0.2375 -0.0078
10988TIP3    H132909   5.231   3.175   2.010  2.2728 -1.6264 -0.3976
10988TIP3    H232910   5.240   3.286   2.113 -2.5070 -0.3375 -1.1319
10989TIP3   OH232911   4.789   1.295   1.599 -0.4266 -0.5950 -0.1041
10989TIP3    H132912   4.787   1.355   1.673 -1.1379  0.7966 -1.2160
10989TIP3    H232913   4.879   1.298   1.567 -0.9136  1.5421 -1.4295
10990TIP3   OH232914   0.333   4.585   2.838  0.3473  0.4316  0.3651
10990TIP3    H132915   0.325   4.651   2.907  0.1068  1.0784 -0.2754
10990TIP3    H232916   0.245   4.549   2.829  1.0439 -2.5532  3.1531
10991TIP3   OH232917   0.371   4.384   2.392 -0.1682  0.1586  0.3197
10991TIP3    H132918   0.301   4.385   2.458  0.0798  0.0985  0.5826
10991TIP3    H232919   0.327   4.353   2.312 -0.7500  1.3883  0.1359
10992TIP3   OH232920   7.770   6.515   2.260  0.3471 -0.0750 -0.2773
10992TIP3    H132921   7.865   6.530   2.253  0.4249 -0.6332 -0.4564
10992TIP3    H232922   7.759   6.468   2.343  0.6407 -3.1127 -1.8232
10993TIP3   OH232923   6.901   7.718   0.957 -0.3942  0.1946 -0.0975
10993TIP3    H132924   6.886   7.807   0.989  0.1516 -0.0994  1.0489
10993TIP3    H232925   6.814   7.688   0.929 -0.5766  1.0894 -0.5433
10994TIP3   OH232926   6.119   6.225   2.330 -0.1959 -0.3232  0.1682
10994TIP3    H132927   6.041   6.237   2.277 -1.0073 -0.4478  1.2972
10994TIP3    H232928   6.092   6.165   2.399  1.2548 -1.3709 -0.1394
10995TIP3   OH232929   3.033   7.430   4.856  0.3845 -0.3230  0.6906
10995TIP3    H132930   3.111   7.423   4.801 -1.4459  0.1579 -2.1973
10995TIP3    H232931   3.007   7.522   4.847  0.4359  0.0045  3.1431
10996TIP3   OH232932   1.196   3.908   2.435 -0.0318 -0.0951 -0.3514
10996TIP3    H132933   1.290   3.924   2.429  0.0027 -0.0855  0.1456
10996TIP3    H232934   1.176   3.918   2.529 -0.6199  0.4395 -0.5261
10997TIP3   OH232935   6.200   4.347   2.172 -0.5748 -0.3047  0.0298
10997TIP3    H132936   6.177   4.260   2.207 -0.4095 -1.2491 -2.0629
10997TIP3    H232937   6.183   4.340   2.078 -0.5185  1.9523 -0.1956
10998TIP3   OH232938   3.688   0.894   3.595  0.7209 -0.0823 -0.1817
10998TIP3    H132939   3.627   0.910   3.523 -3.2434 -2.5236  2.2845
10998TIP3    H232940   3.662   0.956   3.663  2.0364 -0.2088  0.4716
10999TIP3   OH232941   5.853   1.473   6.538 -0.5183 -0.9142 -0.1314
10999TIP3    H132942   5.908   1.439   6.608 -1.0471 -1.7337 -0.1124
10999TIP3    H232943   5.764   1.472   6.573 -0.6392 -0.2077 -0.3945
11000TIP3   OH232944   5.985   3.418   6.414 -0.6728  0.1046  0.5893
11000TIP3    H132945   6.013   3.369   6.336 -0.9994  0.2221  0.3982
11000TIP3    H232946   6.033   3.500   6.408  0.7644 -0.6165  1.5082
11001TIP3   OH232947   3.392   4.693   2.701  0.0375 -0.5725 -0.4209
11001TIP3    H132948   3.349   4.748   2.635  1.6166 -0.3403 -1.3044
11001TIP3    H232949   3.339   4.613   2.702  0.9783 -1.3799 -3.4273
11002TIP3   OH232950   6.074   1.067   3.460  0.3251  0.0668 -0.1521
11002TIP3    H132951   6.134   1.014   3.407  0.4674 -1.4098  1.3991
11002TIP3    H232952   6.000   1.085   3.402 -0.2250 -2.7606 -0.4683
11003TIP3   OH232953   3.544   6.100   0.016 -0.2313 -0.4614 -0.9265
11003TIP3    H132954   3.581   6.120   0.102  0.4259 -3.1116 -0.4873
11003TIP3    H232955   3.579   6.167  -0.042  0.2407  0.7086  0.6588
11004TIP3   OH232956   3.965   3.834   2.175  0.0782  0.5106  0.0259
11004TIP3    H132957   3.987   3.741   2.186 -0.3400  0.3533 -0.3924
11004TIP3    H232958   3.907   3.835   2.099  0.9154  1.2394 -0.6221
11005TIP3   OH232959   8.228   2.449   2.185  0.1691 -0.0898  0.1513
11005TIP3    H132960   8.317   2.476   2.161  0.0764  0.1705  0.0977
11005TIP3    H232961   8.182   2.531   2.201 -0.2675 -0.1929 -0.5555
11006TIP3   OH232962   2.360   2.732   1.518  0.3148  0.0768  0.0522
11006TIP3    H132963   2.367   2.738   1.422 -0.7406 -0.5248 -0.0814
11006TIP3    H232964   2.295   2.799   1.541  1.3056  0.9195  0.4790
11007TIP3   OH232965   6.973   2.858   4.756  0.1029  0.2575 -0.1566
11007TIP3    H132966   6.960   2.945   4.718  2.6379  0.8964  0.2514
11007TIP3    H232967   7.024   2.811   4.690  1.4724  0.1841  0.9082
11008TIP3   OH232968   7.425   1.656   3.596 -0.2361 -0.3698  0.1183
11008TIP3    H132969   7.336   1.690   3.602 -0.2828  0.0460 -2.2473
11008TIP3    H232970   7.481   1.730   3.620 -0.4800 -0.2197  0.2232
11009TIP3   OH232971   1.117   7.176   4.481 -0.3286  0.5184 -0.1992
11009TIP3    H132972   1.069   7.163   4.400 -0.2422 -2.3929  0.1032
11009TIP3    H232973   1.204   7.204   4.454 -0.0102 -1.2985 -1.2535
11010TIP3   OH232974   2.805   0.937   3.899 -0.2788  0.3453  0.4516
11010TIP3    H132975   2.885   0.886   3.906 -2.1868 -3.1661 -0.5828
11010TIP3    H232976   2.779   0.953   3.990  1.0237  0.6150  0.7945
11011TIP3   OH232977   0.368   6.476   2.927  0.0301 -0.0259 -0.4125
11011TIP3    H132978   0.417   6.438   3.001  0.5627  2.0324  0.3530
11011TIP3    H232979   0.381   6.413   2.856 -1.0771 -2.4438  1.3744
11012TIP3   OH232980   1.536   4.405   3.621 -0.7052  0.3709 -0.5935
11012TIP3    H132981   1.476   4.424   3.549 -0.6590  1.5851 -0.3286
11012TIP3    H232982   1.488   4.428   3.700  0.2799  1.9352 -0.4059
11013TIP3   OH232983   3.489   6.591   5.132  0.6519  0.3815 -0.5462
11013TIP3    H132984   3.496   6.552   5.045 -3.3486 -1.6610 -0.2015
11013TIP3    H232985   3.498   6.517   5.192 -0.7633  1.0109  0.4965
11014TIP3   OH232986   5.176   5.450   6.676 -0.3435 -0.2219 -0.1173
11014TIP3    H132987   5.231   5.374   6.656  2.3473  0.2083  4.2852
11014TIP3    H232988   5.220   5.524   6.632 -1.3476 -0.7012 -2.0429
11015TIP3   OH232989   3.357   5.151   1.649 -0.0750  0.0928  0.2600
11015TIP3    H132990   3.419   5.185   1.584 -0.1316 -0.1744  0.0652
11015TIP3    H232991   3.273   5.149   1.603 -0.3635  1.0269  0.7028
11016TIP3   OH232992   4.369   1.662   3.022  0.2220  0.1997  0.6093
11016TIP3    H132993   4.320   1.650   3.104  1.2478 -0.3893  1.1580
11016TIP3    H232994   4.422   1.740   3.038 -2.2651  2.3534 -0.8849
11017TIP3   OH232995   7.855   7.686   1.531  0.5999  0.2382 -0.2356
11017TIP3    H132996   7.814   7.762   1.572  1.4792  1.3116 -1.2505
11017TIP3    H232997   7.811   7.611   1.569 -0.1414  1.2497  0.9799
11018TIP3   OH232998   5.896   0.732   0.309  0.2307 -0.1355 -0.3473
11018TIP3    H132999   5.893   0.724   0.213  0.7475 -0.5311 -0.3389
11018TIP3    H233000   5.904   0.641   0.339  0.0998 -0.0084  0.0696
11019TIP3   OH233001   7.484   3.029   0.237 -0.3069  0.1064 -0.1460
11019TIP3    H133002   7.427   3.094   0.279  0.4715  1.2188 -0.7329
11019TIP3    H233003   7.554   3.014   0.300 -0.9356 -0.8109  0.3351
11020TIP3   OH233004   5.173   7.749   5.414  0.4122 -0.0246 -0.1270
11020TIP3    H133005   5.124   7.736   5.333 -0.6245  1.7683  0.1565
11020TIP3    H233006   5.150   7.674   5.469  1.8119 -1.7263 -1.7584
11021TIP3   OH233007   2.527   0.774   0.138  0.1424 -0.1937 -0.2524
11021TIP3    H133008   2.510   0.802   0.228 -0.1216 -0.2923 -0.2690
11021TIP3    H233009   2.459   0.708   0.120  0.4148 -0.4333 -0.4017
11022TIP3   OH233010   8.171   5.399   4.595  0.0075 -0.0235  0.2099
11022TIP3    H133011   8.173   5.440   4.508  1.7391  0.7199  0.5497
11022TIP3    H233012   8.181   5.473   4.656 -0.9511 -0.5607  1.0424
11023TIP3   OH233013   4.542   0.527   5.859 -0.1246  0.1301  0.1523
11023TIP3    H133014   4.513   0.551   5.947  1.4091  0.6131  0.5596
11023TIP3    H233015   4.635   0.510   5.869  0.2548  1.0336 -1.5291
11024TIP3   OH233016   2.362   3.517   3.310 -0.2989  0.5281 -0.0066
11024TIP3    H133017   2.426   3.519   3.380  1.3671  2.4159 -1.4994
11024TIP3    H233018   2.279   3.498   3.354  1.1936 -1.9982  1.9754
11025TIP3   OH233019   0.036   3.982   0.898 -0.4921  0.1184 -0.0992
11025TIP3    H133020   0.071   3.907   0.851 -0.8054  0.3553 -0.7206
11025TIP3    H233021   0.028   3.952   0.988 -0.2060 -0.4521 -0.2584
11026TIP3   OH233022   2.312   1.750   0.151 -0.1405 -0.5845 -0.1633
11026TIP3    H133023   2.338   1.686   0.085  0.5470 -1.3667  0.8419
11026TIP3    H233024   2.291   1.697   0.229 -1.2709  0.2873  0.1566
11027TIP3   OH233025   8.017   0.649   0.198 -0.3266  0.4340 -0.1344
11027TIP3    H133026   7.968   0.645   0.117 -1.5554 -0.5958  0.6258
11027TIP3    H233027   7.973   0.588   0.257  1.2847  0.1914  0.9131
11028TIP3   OH233028   4.683   7.521   2.752  0.0328 -0.1613 -0.2443
11028TIP3    H133029   4.686   7.454   2.819  2.8446  0.1943  0.0869
11028TIP3    H233030   4.774   7.549   2.741 -0.8046  2.3631 -1.6122
11029TIP3   OH233031   1.191   6.652   1.244  0.4621 -0.2506  0.2828
11029TIP3    H133032   1.137   6.588   1.290 -2.4754  2.0394  0.4155
11029TIP3    H233033   1.185   6.627   1.151  1.6017 -1.6108  0.5462
11030TIP3   OH233034   5.521   4.927   1.362 -0.3343  0.2448 -0.1529
11030TIP3    H133035   5.530   4.920   1.267 -1.1488 -0.8001 -0.1764
11030TIP3    H233036   5.610   4.911   1.396 -0.1368  0.1271 -0.7165
11031TIP3   OH233037   2.840   5.847   4.330 -0.4103 -0.0834 -0.0028
11031TIP3    H133038   2.745   5.846   4.345 -0.4871  0.7640 -0.3985
11031TIP3    H233039   2.852   5.792   4.253 -0.6893  0.5136 -0.4856
11032TIP3   OH233040   2.736   6.940   0.364 -0.0481 -0.1333 -0.1478
11032TIP3    H133041   2.728   6.901   0.277  0.2255  2.3310 -1.3590
11032TIP3    H233042   2.781   6.873   0.415 -1.1048 -2.0501 -1.5840
11033TIP3   OH233043   0.256   6.510   2.488  0.2723 -0.1011  0.0254
11033TIP3    H133044   0.312   6.587   2.480  0.0841  0.1019  0.6297
11033TIP3    H233045   0.315   6.436   2.478  0.6397  0.1128  0.5651
11034TIP3   OH233046   6.926   6.085   1.276 -0.0816  0.1071  0.2009
11034TIP3    H133047   6.989   6.053   1.341 -0.3142  0.2116  0.4763
11034TIP3    H233048   6.865   6.139   1.325 -1.0082 -0.8285  0.1297
11035TIP3   OH233049   3.967   5.477   3.355 -0.1568  0.2165  0.4341
11035TIP3    H133050   3.952   5.491   3.448 -1.0780 -0.4712  0.4073
11035TIP3    H233051   3.950   5.383   3.342 -2.0480  0.6585 -0.7564
11036TIP3   OH233052   5.805   7.330   5.650  0.2585 -0.4590  0.2207
11036TIP3    H133053   5.717   7.291   5.652  0.8592 -1.9058 -0.6428
11036TIP3    H233054   5.842   7.302   5.567  1.3504  0.6213  0.3143
11037TIP3   OH233055   2.380   1.773   3.662 -0.0448  0.4517  0.4033
11037TIP3    H133056   2.348   1.857   3.628 -1.3824  0.0943  0.6988
11037TIP3    H233057   2.449   1.798   3.724  1.6048  1.1536 -1.6217
11038TIP3   OH233058   6.519   6.886   2.353 -0.2866 -0.2918 -0.2522
11038TIP3    H133059   6.594   6.935   2.319 -0.3778  0.4968  0.6164
11038TIP3    H233060   6.457   6.954   2.380 -0.0236 -0.8128  1.8629
11039TIP3   OH233061   6.291   5.863   3.220 -0.4279 -0.2936  0.5907
11039TIP3    H133062   6.267   5.813   3.298 -0.6621 -1.3641 -0.1458
11039TIP3    H233063   6.242   5.945   3.228  0.3910  0.0905  2.1008
11040TIP3   OH233064   5.030   4.888   1.836  0.7773  0.2413  0.1088
11040TIP3    H133065   5.024   4.967   1.890 -0.1366 -0.4175  1.0127
11040TIP3    H233066   4.945   4.883   1.792  1.4092  0.6124 -1.2166
11041TIP3   OH233067   1.974   2.642   4.428 -0.2711 -0.5371 -0.3186
11041TIP3    H133068   1.952   2.550   4.418 -0.1102 -0.5818 -0.2559
11041TIP3    H233069   1.889   2.687   4.429 -0.4115 -0.7904  0.7620
11042TIP3   OH233070   5.877   3.376   0.572 -0.4315  0.8135 -0.8047
11042TIP3    H133071   5.970   3.400   0.575  0.4833 -2.2564 -1.4076
11042TIP3    H233072   5.867   3.328   0.489 -2.2192 -0.1567 -0.0874
11043TIP3   OH233073   4.470   6.807   0.461  0.0031 -0.1358  0.5294
11043TIP3    H133074   4.441   6.898   0.457  0.0608 -0.1611 -1.7543
11043TIP3    H233075   4.564   6.812   0.478  0.2276  0.3091 -0.7534
11044TIP3   OH233076   3.648   3.297   1.913  0.5228 -0.1194  0.4980
11044TIP3    H133077   3.684   3.377   1.875  2.6878 -0.6971  1.1639
11044TIP3    H233078   3.686   3.226   1.860 -0.2103 -0.7735  0.8200
11045TIP3   OH233079   6.172   2.304   3.882  0.5580 -0.2642 -0.4622
11045TIP3    H133080   6.159   2.311   3.787  0.1614  1.5135 -0.3137
11045TIP3    H233081   6.115   2.372   3.919  2.2799  0.5009  0.9060
11046TIP3   OH233082   1.799   7.401   2.330  0.2530 -0.1254  0.3180
11046TIP3    H133083   1.840   7.475   2.375  0.2898  0.9988 -1.4702
11046TIP3    H233084   1.706   7.409   2.353  0.3899 -0.0750  0.8678
11047TIP3   OH233085   6.141   5.450   6.264 -0.1334  0.0533  0.1224
11047TIP3    H133086   6.076   5.493   6.319  0.2985 -0.0753  0.7361
11047TIP3    H233087   6.175   5.378   6.317 -0.8736 -1.0920 -0.9009
11048TIP3   OH233088   1.759   6.038   2.526  0.0141  0.1572  0.1521
11048TIP3    H133089   1.680   6.090   2.540 -0.3038 -0.6115  1.3463
11048TIP3    H233090   1.762   5.978   2.601  0.0309 -1.9913 -1.4682
11049TIP3   OH233091   3.295   4.661   5.425 -0.2585  1.0215 -0.2350
11049TIP3    H133092   3.357   4.728   5.397  0.6874  1.0165  1.7322
11049TIP3    H233093   3.209   4.701   5.413  0.2723  2.4120  0.4256
11050TIP3   OH233094   3.386   4.362   0.026  0.0014 -0.7709 -0.0001
11050TIP3    H133095   3.343   4.447   0.033  2.3865  0.4947  0.2984
11050TIP3    H233096   3.478   4.379   0.048  0.1829 -3.8576  2.4068
11051TIP3   OH233097   7.820   5.745  -0.002  0.5366  0.2742 -0.4377
11051TIP3    H133098   7.789   5.657  -0.023 -0.6280  0.7426 -0.7481
11051TIP3    H233099   7.818   5.749   0.094 -3.8756  1.4075 -0.3751
11052TIP3   OH233100   2.617   0.276   0.862  0.1107  0.0096 -0.1296
11052TIP3    H133101   2.632   0.183   0.845  0.0533  0.1206 -0.8113
11052TIP3    H233102   2.691   0.303   0.917  0.1411 -0.4258  0.0469
11053TIP3   OH233103   2.876   3.223   5.802  0.0538 -0.1946  0.1072
11053TIP3    H133104   2.831   3.208   5.885  0.6166 -1.2509  0.2382
11053TIP3    H233105   2.931   3.300   5.817  0.4312 -0.6013  0.8335
11054TIP3   OH233106   0.210   4.080   5.649 -0.6814 -0.3960 -0.1322
11054TIP3    H133107   0.304   4.099   5.644 -0.7859  0.0586 -0.4221
11054TIP3    H233108   0.205   3.989   5.679 -0.1346 -0.7216 -0.9826
11055TIP3   OH233109   2.697   6.176   3.580  0.0939 -0.5861 -0.6365
11055TIP3    H133110   2.713   6.082   3.570  3.8763 -0.0957 -0.4916
11055TIP3    H233111   2.743   6.216   3.506 -2.7843  1.1920 -1.6502
11056TIP3   OH233112   6.273   1.558   1.006  0.5978  0.0264 -0.4083
11056TIP3    H133113   6.363   1.551   1.037  0.5982 -0.5179 -0.5093
11056TIP3    H233114   6.269   1.642   0.960  1.0446  0.0658 -0.3736
11057TIP3   OH233115   6.724   3.060   2.565  0.2905  0.0004 -0.5736
11057TIP3    H133116   6.804   3.043   2.615 -0.4320  0.0100  0.6127
11057TIP3    H233117   6.749   3.128   2.502  0.9591  0.7600  0.4835
11058TIP3   OH233118   3.899   3.041   4.729  0.4182  0.1905  0.4356
11058TIP3    H133119   3.806   3.026   4.707  0.3966  0.4779  0.3211
11058TIP3    H233120   3.900   3.129   4.767  1.0911  1.6637 -2.6276
11059TIP3   OH233121   1.104   1.347   0.150  0.5836  0.3882  0.1770
11059TIP3    H133122   1.015   1.358   0.181  1.2054  2.3590  1.4818
11059TIP3    H233123   1.095   1.310   0.062 -1.4401 -0.4662  0.6907
11060TIP3   OH233124   7.923   4.513   6.651 -0.4488  0.1534  0.1129
11060TIP3    H133125   7.977   4.519   6.572  0.8325 -0.6251  0.8769
11060TIP3    H233126   7.964   4.574   6.713  0.0471 -0.9812  0.9527
11061TIP3   OH233127   4.386   5.778   6.153  0.2156 -0.0452  0.0477
11061TIP3    H133128   4.312   5.718   6.148  0.0415  0.2025 -4.7975
11061TIP3    H233129   4.463   5.722   6.146  0.2217  0.0409 -0.5987
11062TIP3   OH233130   2.317   2.150   4.476  0.2337 -0.0647 -0.8144
11062TIP3    H133131   2.367   2.069   4.469 -0.0872 -0.2850 -0.6129
11062TIP3    H233132   2.313   2.168   4.570  3.4696  2.2091 -0.9641
11063TIP3   OH233133   7.708   3.601   3.860 -0.2960  0.2033 -0.0719
11063TIP3    H133134   7.773   3.533   3.877 -0.2237  0.3923  0.4318
11063TIP3    H233135   7.681   3.630   3.947  1.1837  2.2581 -0.2438
11064TIP3   OH233136   5.126   5.337   2.790  0.1913  0.0660 -0.1432
11064TIP3    H133137   5.148   5.254   2.747  2.0547  0.4276  0.0319
11064TIP3    H233138   5.166   5.330   2.877 -1.8824  0.1201  0.8747
11065TIP3   OH233139   4.924   5.831   4.051  0.0533  0.1926  0.1297
11065TIP3    H133140   4.843   5.881   4.064  0.2528  0.4284  0.4644
11065TIP3    H233141   4.907   5.747   4.094  0.9056  1.1531  2.5246
11066TIP3   OH233142   4.942   2.088   3.897 -0.2750  0.7130 -0.4423
11066TIP3    H133143   4.933   2.163   3.839 -0.4862 -0.1737 -1.5831
11066TIP3    H233144   4.865   2.034   3.879 -0.1125  0.2001  0.3386
11067TIP3   OH233145   3.716   2.998   1.153 -0.1682 -0.1058 -0.3049
11067TIP3    H133146   3.687   3.088   1.173  0.5779 -0.0828  0.7114
11067TIP3    H233147   3.648   2.964   1.095 -0.0081  1.4278 -1.4724
11068TIP3   OH233148   5.120   3.555   4.620  0.1888  0.1522 -0.6395
11068TIP3    H133149   5.099   3.551   4.714 -0.7048  0.5369 -0.8225
11068TIP3    H233150   5.205   3.510   4.614  0.5751  0.6757  0.4446
11069TIP3   OH233151   0.834   7.409   0.507 -0.6026  0.4237  0.6882
11069TIP3    H133152   0.894   7.483   0.493  0.6400 -0.4332  1.3403
11069TIP3    H233153   0.759   7.429   0.451 -0.1005  1.9556  0.5062
11070TIP3   OH233154   6.396   3.316   0.615  0.6227 -0.5290 -0.7093
11070TIP3    H133155   6.312   3.353   0.585  0.3670  1.2433  1.8511
11070TIP3    H233156   6.449   3.309   0.535 -1.1827  0.4374 -2.0714
11071TIP3   OH233157   3.489   6.587   5.736  0.0169 -0.5139  0.9159
11071TIP3    H133158   3.539   6.667   5.752 -0.2422 -0.5325  1.9442
11071TIP3    H233159   3.516   6.528   5.807  0.8964 -1.6934 -0.3478
11072TIP3   OH233160   5.495   3.541   0.282 -0.0189 -0.2397  0.0841
11072TIP3    H133161   5.515   3.525   0.374 -2.4111 -1.5969  0.4566
11072TIP3    H233162   5.527   3.463   0.236 -0.0518 -0.1915 -0.0212
11073TIP3   OH233163   3.689   5.458   1.281 -0.2345 -0.8046  0.3493
11073TIP3    H133164   3.640   5.477   1.201  0.1251  0.8724  0.4943
11073TIP3    H233165   3.776   5.494   1.264  0.5521 -2.4819  0.6444
11074TIP3   OH233166   2.271   0.661   6.512 -0.0031 -0.1915  0.1300
11074TIP3    H133167   2.201   0.596   6.519 -1.2246  0.8246 -1.7690
11074TIP3    H233168   2.341   0.615   6.465 -0.2501 -0.6008  0.1613
11075TIP3   OH233169   1.522   5.448   2.490 -0.2363 -0.1190  0.2981
11075TIP3    H133170   1.464   5.403   2.428 -1.1205 -2.0331  2.3687
11075TIP3    H233171   1.606   5.403   2.480 -0.0384  0.3452 -0.2520
11076TIP3   OH233172   0.907   2.271   1.087 -0.0102 -0.4493  0.1161
11076TIP3    H133173   0.892   2.312   1.172 -0.4733 -0.9961  0.3066
11076TIP3    H233174   0.996   2.236   1.093 -0.4439 -1.4629  0.7983
11077TIP3   OH233175   2.303   7.284   5.206  0.0672  0.0936  0.5841
11077TIP3    H133176   2.239   7.220   5.236 -1.8569  0.9965 -1.3268
11077TIP3    H233177   2.372   7.232   5.166  0.3620 -0.8825  2.2720
11078TIP3   OH233178   4.440   6.935   2.992 -0.6247  0.4411 -0.4671
11078TIP3    H133179   4.525   6.932   3.035  0.1419 -0.8053 -1.9588
11078TIP3    H233180   4.428   6.846   2.957 -1.7374  1.0744 -1.7859
11079TIP3   OH233181   4.597   1.978   2.886 -0.2240  0.2830  0.3573
11079TIP3    H133182   4.683   1.945   2.911  1.0572  3.3466  0.4406
11079TIP3    H233183   4.535   1.923   2.934  1.5620 -2.5406 -0.3426
11080TIP3   OH233184   8.293   3.302   0.635 -0.0657  0.0656  0.4255
11080TIP3    H133185   8.354   3.368   0.603 -1.0409  0.0986 -1.5523
11080TIP3    H233186   8.271   3.329   0.724  2.2022  0.4345  0.9221
11081TIP3   OH233187   3.781   1.767   4.533  0.1175 -0.5594 -0.1607
11081TIP3    H133188   3.819   1.809   4.611 -3.5320  1.8255  0.5540
11081TIP3    H233189   3.779   1.674   4.555 -0.0836 -0.0394  2.3026
11082TIP3   OH233190   8.315   7.226   2.008  0.2745  0.1356 -0.4636
11082TIP3    H133191   8.243   7.209   2.069  2.6670 -1.6329  2.0753
11082TIP3    H233192   8.348   7.312   2.035 -0.3682  0.6332 -1.1868
11083TIP3   OH233193   7.148   4.038   3.738  0.2219 -0.0605 -0.1932
11083TIP3    H133194   7.137   3.959   3.790  0.0544  0.6553  0.8799
11083TIP3    H233195   7.234   4.027   3.697  0.9540 -0.0765  1.2615
11084TIP3   OH233196   1.859   6.088   5.207 -0.9003 -0.3036 -0.3126
11084TIP3    H133197   1.830   6.106   5.296 -0.7209 -1.1867 -0.0679
11084TIP3    H233198   1.910   6.007   5.214  0.7329  0.6261 -0.9142
11085TIP3   OH233199   7.813   0.851   4.202  0.0299 -0.2757  0.2208
11085TIP3    H133200   7.787   0.943   4.189 -1.6231 -0.8978 -1.3047
11085TIP3    H233201   7.783   0.830   4.290  0.4604  0.6480  0.5999
11086TIP3   OH233202   1.561   6.226   3.499  0.6132 -0.5219 -0.1109
11086TIP3    H133203   1.512   6.265   3.426  1.8703 -1.2236 -1.3514
11086TIP3    H233204   1.504   6.240   3.575  0.1543  2.0310 -0.8203
11087TIP3   OH233205   0.550   7.593   2.047 -0.1391 -0.5941 -0.0663
11087TIP3    H133206   0.571   7.643   1.969  1.1177 -0.1750  0.5142
11087TIP3    H233207   0.542   7.503   2.017 -1.0028 -0.2535 -0.8886
11088TIP3   OH233208   1.289   5.875   1.312 -0.2426 -0.2672  0.5336
11088TIP3    H133209   1.288   5.783   1.284 -0.4425 -0.3236  0.7151
11088TIP3    H233210   1.378   5.905   1.295 -1.0774  0.6162 -3.0586
11089TIP3   OH233211   5.079   4.792   2.814  0.1415 -0.5530 -0.1080
11089TIP3    H133212   5.035   4.737   2.749  1.4030 -0.9866 -0.6337
11089TIP3    H233213   5.171   4.794   2.786  0.4170  0.5501  0.7865
11090TIP3   OH233214   7.408   0.767   4.326 -0.4912  0.2556  0.6268
11090TIP3    H133215   7.381   0.856   4.350  3.1967  1.1635  2.2190
11090TIP3    H233216   7.454   0.778   4.243 -1.3138 -0.4728  0.0643
11091TIP3   OH233217   7.767   4.278   1.028 -0.1233  0.0381 -0.0829
11091TIP3    H133218   7.814   4.353   0.993  0.8148 -0.8323 -0.7570
11091TIP3    H233219   7.678   4.287   0.994  0.4863 -0.2032 -1.8708
11092TIP3   OH233220   3.017   2.790   0.297 -0.5053 -0.2419  0.1468
11092TIP3    H133221   3.108   2.772   0.274 -0.1839  0.0974  1.1201
11092TIP3    H233222   2.968   2.716   0.262  0.3102 -1.0998  0.7681
11093TIP3   OH233223   7.272   4.856   4.311 -0.2106 -0.0235  0.0165
11093TIP3    H133224   7.329   4.925   4.344  0.9304  0.0817 -2.0424
11093TIP3    H233225   7.189   4.899   4.294  0.2575  0.6803 -0.5193
11094TIP3   OH233226   2.344   1.882   2.418 -0.0959  0.2892  0.1021
11094TIP3    H133227   2.396   1.811   2.457 -2.7797 -1.8516  0.1011
11094TIP3    H233228   2.305   1.926   2.493 -2.9439 -1.9974  0.1526
11095TIP3   OH233229   3.637   7.781   1.577 -0.0390 -0.0924  0.1507
11095TIP3    H133230   3.696   7.707   1.564 -1.1219 -0.9557  0.0031
11095TIP3    H233231   3.620   7.784   1.671 -1.9979 -1.6783 -0.0878
11096TIP3   OH233232   1.660   2.942   4.840 -0.3095 -0.3127 -0.3604
11096TIP3    H133233   1.642   3.027   4.878 -2.0468 -1.2067  0.9091
11096TIP3    H233234   1.752   2.926   4.860 -0.4533  0.4582  1.0202
11097TIP3   OH233235   2.418   4.651   0.865 -0.3540  0.0418 -0.4906
11097TIP3    H133236   2.345   4.597   0.897  0.8223 -1.2513  0.0778
11097TIP3    H233237   2.393   4.673   0.775 -1.8846  0.4355 -0.0129
11098TIP3   OH233238   0.094   5.518   2.941 -0.2035  0.1492  0.3099
11098TIP3    H133239   0.069   5.442   2.888 -1.7009  1.3047 -0.7120
11098TIP3    H233240   0.181   5.542   2.907 -0.7420  0.3065 -1.0209
11099TIP3   OH233241   4.885   1.281   5.852  0.3303  0.2818 -0.0589
11099TIP3    H133242   4.839   1.316   5.776 -0.9713  0.8444  0.9363
11099TIP3    H233243   4.958   1.342   5.866  0.9374 -0.1515 -1.1621
11100TIP3   OH233244   7.130   3.157   3.929 -0.4764 -0.2468 -0.1295
11100TIP3    H133245   7.043   3.154   3.889 -0.8048  0.8678  0.4605
11100TIP3    H233246   7.127   3.091   3.997 -0.8579 -0.2389 -0.1350
11101TIP3   OH233247   5.248   0.382   0.429  0.2275  0.1514  0.1020
11101TIP3    H133248   5.322   0.348   0.479  0.7108  0.7603 -0.1912
11101TIP3    H233249   5.257   0.341   0.342 -0.2041 -0.3444  0.2813
11102TIP3   OH233250   1.600   1.823   2.759 -0.5232  0.2261 -0.2247
11102TIP3    H133251   1.554   1.904   2.781  0.1728  0.3983  0.6884
11102TIP3    H233252   1.629   1.836   2.669 -2.7573 -0.1556 -1.0671
11103TIP3   OH233253   6.958   6.014   3.918 -0.3829  0.1375  0.7118
11103TIP3    H133254   6.877   5.999   3.966 -0.9882 -2.0015 -0.7919
11103TIP3    H233255   6.932   6.066   3.842 -0.9660 -2.5682 -1.0885
11104TIP3   OH233256   2.881   1.267   3.058 -0.0605 -0.0569  0.2088
11104TIP3    H133257   2.859   1.174   3.061 -2.0104  0.3925  1.8185
11104TIP3    H233258   2.930   1.282   3.139  3.0489 -0.2154 -1.4773
11105TIP3   OH233259   0.212   4.975   2.400 -0.0644 -0.1522  0.4375
11105TIP3    H133260   0.176   4.976   2.311  0.1542  0.5023  0.3531
11105TIP3    H233261   0.190   4.887   2.433 -0.8224 -0.1365  0.0172
11106TIP3   OH233262   0.415   7.622   1.548 -0.3625 -0.0605  0.6811
11106TIP3    H133263   0.469   7.655   1.476 -2.5524  3.4243  0.4013
11106TIP3    H233264   0.381   7.538   1.515 -0.1848  0.7424 -1.8046
11107TIP3   OH233265   4.821   1.022   2.230  0.4369  0.2762  0.4900
11107TIP3    H133266   4.732   1.027   2.194  0.9227  0.5564 -0.7215
11107TIP3    H233267   4.823   0.938   2.276 -0.2308 -0.0821 -0.1015
11108TIP3   OH233268   2.992   7.443   3.104  0.2933  0.2946 -0.4551
11108TIP3    H133269   2.947   7.371   3.060  1.2076 -0.1729 -0.6377
11108TIP3    H233270   3.085   7.419   3.101  0.4157  0.3638  1.4693
11109TIP3   OH233271   5.290   6.171   6.527  0.1045 -0.2019 -0.0489
11109TIP3    H133272   5.282   6.219   6.609  0.0546  1.8006 -1.1571
11109TIP3    H233273   5.209   6.190   6.480  0.2901 -1.0194 -0.7199
11110TIP3   OH233274   0.454   5.651   6.404 -0.4586 -0.4116 -0.1775
11110TIP3    H133275   0.367   5.614   6.418 -0.2451 -1.2533 -0.9816
11110TIP3    H233276   0.514   5.580   6.426 -0.0122 -0.1463 -0.5245
11111TIP3   OH233277   2.760   1.355   1.648 -0.2451  0.1465 -0.3481
11111TIP3    H133278   2.752   1.295   1.722 -0.9211  2.9226  2.0280
11111TIP3    H233279   2.853   1.376   1.644 -0.0923 -0.5841 -0.8207
11112TIP3   OH233280   6.097   2.180   5.788 -0.0941 -0.0525  0.2599
11112TIP3    H133281   6.124   2.090   5.772  0.6012  0.3307 -0.8612
11112TIP3    H233282   6.025   2.195   5.726  0.3535  0.4150 -0.1555
11113TIP3   OH233283   0.903   7.545   3.907 -0.0208 -0.4732  0.0345
11113TIP3    H133284   0.817   7.522   3.942 -0.7651  2.1520  0.1637
11113TIP3    H233285   0.891   7.542   3.812  0.1751 -1.4454  0.0287
11114TIP3   OH233286   7.095   2.350   0.276 -0.1905  0.2322  0.1809
11114TIP3    H133287   7.133   2.279   0.327 -0.7829 -0.2477 -0.0284
11114TIP3    H233288   7.035   2.307   0.215 -0.0395  0.8541 -0.4238
11115TIP3   OH233289   8.164   0.561   6.601 -0.3760 -0.0561 -0.0438
11115TIP3    H133290   8.069   0.566   6.589 -0.3841 -0.2317 -0.0588
11115TIP3    H233291   8.178   0.475   6.643  0.1361 -1.9403 -3.6673
11116TIP3   OH233292   4.510   7.267   2.600 -0.1958 -0.1146  0.3155
11116TIP3    H133293   4.537   7.217   2.677  0.6009 -1.4106 -0.7607
11116TIP3    H233294   4.416   7.277   2.609  0.0270  0.8637  2.0652
11117TIP3   OH233295   2.817   3.242   4.764  0.4600 -0.1977  0.0476
11117TIP3    H133296   2.896   3.189   4.770  0.7302  0.0907 -0.8593
11117TIP3    H233297   2.842   3.318   4.712 -0.4497 -0.1770 -0.3859
11118TIP3   OH233298   1.472   4.543   1.728  0.0536 -0.0077 -0.4026
11118TIP3    H133299   1.441   4.570   1.642  0.1120  1.0496 -0.1044
11118TIP3    H233300   1.392   4.528   1.779 -0.1035  3.5532  0.6259
11119TIP3   OH233301   1.301   3.393   1.809 -0.0511 -0.5582 -0.0916
11119TIP3    H133302   1.366   3.462   1.797  0.7491 -1.3205 -0.1937
11119TIP3    H233303   1.217   3.436   1.788  0.1782  0.9319  1.8042
11120TIP3   OH233304   0.358   5.247   1.761  0.0807  0.2856 -0.4150
11120TIP3    H133305   0.443   5.232   1.720  0.1296  0.1995 -0.2841
11120TIP3    H233306   0.380   5.278   1.850 -0.0142  1.2983 -0.7290
11121TIP3   OH233307   5.787   2.305   6.376  0.5790  0.6889 -0.0263
11121TIP3    H133308   5.788   2.232   6.437 -0.2326  0.3880 -0.3652
11121TIP3    H233309   5.728   2.278   6.306  2.5165  0.4512 -1.6802
11122TIP3   OH233310   7.895   1.096   0.729  0.3012  0.0812 -0.1596
11122TIP3    H133311   7.869   1.067   0.641  1.3221  0.4705 -0.5972
11122TIP3    H233312   7.941   1.178   0.715  1.1786 -0.2551  0.6690
11123TIP3   OH233313   7.514   5.141   2.728 -0.9556  0.1710 -0.1575
11123TIP3    H133314   7.445   5.205   2.747 -0.8644  0.4498 -0.7380
11123TIP3    H233315   7.538   5.158   2.637 -1.3726 -1.1180 -0.5291
11124TIP3   OH233316   3.962   4.200   2.677  0.0309 -0.0965  0.1497
11124TIP3    H133317   4.009   4.271   2.721  1.0476 -0.7181  0.0866
11124TIP3    H233318   3.990   4.206   2.585 -0.1549 -0.3572  0.0762
11125TIP3   OH233319   6.263   6.603   6.641 -0.1728  0.3867  0.2463
11125TIP3    H133320   6.312   6.631   6.564 -1.2127 -1.1033 -1.0196
11125TIP3    H233321   6.290   6.663   6.710  2.2422  0.5810 -0.7792
11126TIP3   OH233322   0.300   3.741   2.593 -0.3510 -0.5114 -0.0637
11126TIP3    H133323   0.236   3.750   2.522  0.4865 -0.0380 -0.7876
11126TIP3    H233324   0.350   3.823   2.590  0.5075 -1.0133  0.2575
11127TIP3   OH233325   6.424   7.466   2.129  0.3832  0.5503  0.2250
11127TIP3    H133326   6.444   7.498   2.042  1.7492 -1.5387 -0.2949
11127TIP3    H233327   6.380   7.383   2.115 -0.1782  0.5977  1.5295
11128TIP3   OH233328   2.572   5.716   1.205  0.3926 -0.9601  0.4008
11128TIP3    H133329   2.667   5.722   1.198  0.5211 -0.5881  2.0533
11128TIP3    H233330   2.551   5.628   1.171  1.2198 -0.7577 -0.6802
11129TIP3   OH233331   8.140   7.097   0.294  0.3609 -0.1770 -0.8867
11129TIP3    H133332   8.079   7.026   0.278  1.0751 -1.2089  0.7367
11129TIP3    H233333   8.084   7.171   0.321 -0.3387 -0.2382 -2.1072
11130TIP3   OH233334   5.446   3.109   1.852 -0.0583  0.4719  0.1988
11130TIP3    H133335   5.435   3.064   1.768 -0.6680 -0.5888  0.8327
11130TIP3    H233336   5.360   3.105   1.893 -0.2596  2.6531  0.0956
11131TIP3   OH233337   5.654   4.426   2.231  0.3436 -0.7718 -0.0201
11131TIP3    H133338   5.589   4.438   2.301 -1.1336  1.1910 -1.6160
11131TIP3    H233339   5.737   4.453   2.271 -0.6247  1.2152  0.7591
11132TIP3   OH233340   3.560   3.822   3.014 -0.0398 -0.0536  0.6269
11132TIP3    H133341   3.649   3.852   2.996  0.0113  0.3304  1.4811
11132TIP3    H233342   3.567   3.772   3.095 -0.7786  0.9822  1.3582
11133TIP3   OH233343   1.129   0.551   6.244 -0.0421  0.1678  0.1181
11133TIP3    H133344   1.124   0.478   6.182 -0.5203  1.1313 -1.0151
11133TIP3    H233345   1.040   0.584   6.250  0.3380  1.2834 -0.1540
11134TIP3   OH233346   0.984   3.613   6.333 -0.6322 -0.5600 -0.1383
11134TIP3    H133347   1.012   3.527   6.364 -1.4525 -0.1359  1.9677
11134TIP3    H233348   1.062   3.668   6.342 -0.5241 -0.7333 -0.0081
11135TIP3   OH233349   1.262   4.939   2.905  0.0771  0.5892 -0.2672
11135TIP3    H133350   1.283   4.979   2.989 -0.2750  0.0574  0.0793
11135TIP3    H233351   1.296   4.850   2.912  0.0937  0.5589 -0.7129
11136TIP3   OH233352   0.168   1.767   0.413  0.0608  0.2384 -0.6520
11136TIP3    H133353   0.127   1.700   0.468  0.5204  0.3488 -0.1706
11136TIP3    H233354   0.106   1.779   0.340 -0.4129 -0.1182 -0.3160
11137TIP3   OH233355   1.417   2.710   2.951 -0.0519  0.2303  0.1742
11137TIP3    H133356   1.377   2.768   3.016  1.4121  0.0508  1.2767
11137TIP3    H233357   1.462   2.769   2.891 -1.1614  0.3792 -0.5426
11138TIP3   OH233358   4.916   2.739   1.190 -0.1527 -0.2403  0.2722
11138TIP3    H133359   4.975   2.665   1.205  0.7409  0.4476  0.2367
11138TIP3    H233360   4.919   2.789   1.272  0.1811  0.3756 -0.1018
11139TIP3   OH233361   3.132   7.447   6.630 -0.5216  0.1956  0.9593
11139TIP3    H133362   3.183   7.374   6.596 -0.8161  0.4383 -0.0125
11139TIP3    H233363   3.162   7.523   6.580 -1.4730  0.4276  0.7334
11140TIP3   OH233364   0.674   2.454   5.817 -0.2181  0.1869 -0.1609
11140TIP3    H133365   0.607   2.399   5.776 -0.9735  0.9485  0.0353
11140TIP3    H233366   0.739   2.391   5.849 -1.8232 -0.7353  1.4817
11141TIP3   OH233367   2.763   1.086   2.482  0.0094 -0.3861 -0.4612
11141TIP3    H133368   2.764   1.000   2.523 -0.0522  0.1624  0.7430
11141TIP3    H233369   2.842   1.129   2.514 -0.1158  0.1133 -0.8074
11142TIP3   OH233370   3.122   1.053   6.473  0.9684 -0.3010 -0.1951
11142TIP3    H133371   3.160   0.965   6.473  0.8457 -0.3726  0.9283
11142TIP3    H233372   3.058   1.053   6.402  0.4368 -1.3607  0.2700
11143TIP3   OH233373   0.659   1.760   4.124 -0.0497  0.5793 -0.8389
11143TIP3    H133374   0.587   1.823   4.134 -2.4834 -2.1240  0.1527
11143TIP3    H233375   0.615   1.675   4.115  3.0519 -1.1611 -0.8707
11144TIP3   OH233376   4.939   1.969   1.348 -0.5236 -0.8949 -0.3311
11144TIP3    H133377   4.984   2.021   1.414  1.0495 -1.9600 -0.4960
11144TIP3    H233378   4.883   1.910   1.398  0.0760 -1.1717  0.0283
11145TIP3   OH233379   1.501   5.803   5.803 -0.2930 -0.4827 -0.3419
11145TIP3    H133380   1.517   5.759   5.719 -0.1971 -1.0844 -0.0150
11145TIP3    H233381   1.470   5.890   5.779  1.1269 -0.1382 -0.9942
11146TIP3   OH233382   6.139   3.081   1.713  0.1005 -0.3103 -0.4008
11146TIP3    H133383   6.157   3.016   1.646  0.4996  0.7796 -1.3916
11146TIP3    H233384   6.064   3.131   1.679  0.7981  0.7524 -0.4344
11147TIP3   OH233385   1.808   0.200   0.526  0.2148 -0.6934 -0.3072
11147TIP3    H133386   1.845   0.274   0.478  1.4210 -1.3116 -0.3701
11147TIP3    H233387   1.722   0.231   0.555  0.5038  0.5623 -0.7185
11148TIP3   OH233388   7.417   2.689   5.457 -0.0140 -0.1033  0.7035
11148TIP3    H133389   7.507   2.718   5.468 -0.3424  2.2904 -1.9187
11148TIP3    H233390   7.418   2.638   5.375 -0.8483 -1.2003  1.3408
11149TIP3   OH233391   5.063   1.944   2.124 -0.1297  0.6820 -0.2597
11149TIP3    H133392   5.077   1.894   2.044  0.0185  0.4312 -0.0773
11149TIP3    H233393   5.079   2.035   2.098 -0.0227  0.5957 -0.5011
11150TIP3   OH233394   2.965   5.123   4.493  0.2767 -0.3753  0.6640
11150TIP3    H133395   3.014   5.172   4.427 -0.2114  0.4305  0.8868
11150TIP3    H233396   2.874   5.147   4.477 -0.0840 -1.9630  0.1647
11151TIP3   OH233397   7.879   7.122   6.115  0.4183 -0.2295  0.0657
11151TIP3    H133398   7.854   7.126   6.023 -0.6847  1.4128  0.3859
11151TIP3    H233399   7.800   7.149   6.163  1.3703  0.2877  1.4133
11152TIP3   OH233400   5.245   6.872   3.765  0.2514  0.2712 -0.4485
11152TIP3    H133401   5.275   6.957   3.733  2.1875 -0.4395 -0.6534
11152TIP3    H233402   5.295   6.858   3.845  0.2726 -0.8467 -0.6420
11153TIP3   OH233403   5.832   4.217   4.407 -0.7577 -0.4423 -0.3708
11153TIP3    H133404   5.751   4.213   4.357 -0.3184 -0.3037 -1.1194
11153TIP3    H233405   5.872   4.131   4.394 -0.1062 -0.0289 -1.1990
11154TIP3   OH233406   1.517   5.162   0.373  0.5136  0.1439  0.1207
11154TIP3    H133407   1.596   5.125   0.333  1.8490  2.0054  0.9018
11154TIP3    H233408   1.514   5.124   0.461  2.0408  1.9794  1.0246
11155TIP3   OH233409   4.935   3.258   0.016  1.1126  0.4946 -0.2103
11155TIP3    H133410   4.881   3.194   0.062  0.9621 -0.5563 -1.7786
11155TIP3    H233411   4.913   3.342   0.057 -0.0439 -0.2102  0.6689
11156TIP3   OH233412   7.358   7.284   3.838  0.4494  0.3409  0.1062
11156TIP3    H133413   7.355   7.338   3.918  0.6418  1.1693 -0.4242
11156TIP3    H233414   7.435   7.228   3.850 -0.8328 -1.2026  1.5032
11157TIP3   OH233415   3.638   0.627   4.259  0.0421  0.7111 -0.0614
11157TIP3    H133416   3.550   0.663   4.249 -0.5510 -0.7291 -0.2719
11157TIP3    H233417   3.624   0.541   4.300  1.5466  1.5983  2.5973
11158TIP3   OH233418   6.164   6.803   0.775 -0.5928  0.4826 -0.1730
11158TIP3    H133419   6.215   6.848   0.842 -2.1822 -2.0009  2.9784
11158TIP3    H233420   6.100   6.868   0.746 -0.2537  1.4485  1.1572
11159TIP3   OH233421   3.257   6.548   3.988 -0.1850  0.2174 -0.1104
11159TIP3    H133422   3.301   6.468   3.962 -1.6314 -0.5444 -0.3293
11159TIP3    H233423   3.327   6.610   4.006  0.9750 -1.1784  0.3469
11160TIP3   OH233424   0.347   3.378   3.946  0.1216 -0.0218 -0.3359
11160TIP3    H133425   0.356   3.334   3.861  0.0551  0.3993 -0.5610
11160TIP3    H233426   0.407   3.330   4.004  0.6207  0.0670 -0.7701
11161TIP3   OH233427   5.701   2.085   4.579  0.1790 -0.2284  0.0274
11161TIP3    H133428   5.661   2.155   4.631  3.0256  0.8824  0.9337
11161TIP3    H233429   5.728   2.129   4.498  1.0899 -0.4822  0.1810
11162TIP3   OH233430   2.326   0.201   1.287 -0.0397 -0.1768  0.1683
11162TIP3    H133431   2.304   0.292   1.269  1.3195  0.7362  2.6346
11162TIP3    H233432   2.303   0.188   1.379 -1.2714 -2.7142 -0.4121
11163TIP3   OH233433   3.651   6.332   5.065  0.1528  0.5110 -0.2414
11163TIP3    H133434   3.625   6.390   4.993 -1.0371 -0.9919 -1.0807
11163TIP3    H233435   3.592   6.257   5.058 -0.5529  0.6337  2.7870
11164TIP3   OH233436   3.700   2.617   6.005  0.5555  0.2512  0.3116
11164TIP3    H133437   3.631   2.621   6.071  0.8527  1.9509  0.5512
11164TIP3    H233438   3.704   2.705   5.968 -0.1012 -0.8007 -2.5316
11165TIP3   OH233439   2.010   7.586   3.122 -0.4048 -0.2094  0.0587
11165TIP3    H133440   2.081   7.650   3.110 -0.7460  0.2505  0.4201
11165TIP3    H233441   2.009   7.570   3.216 -0.6277 -0.3939  0.0243
11166TIP3   OH233442   4.165   6.239   5.785  0.6230 -0.1427  0.2914
11166TIP3    H133443   4.165   6.179   5.710  1.0834  1.9091 -1.4342
11166TIP3    H233444   4.074   6.266   5.795  0.4935 -0.7399  0.7590
11167TIP3   OH233445   3.888   5.159   1.835  0.1930  0.4878  0.3614
11167TIP3    H133446   3.967   5.201   1.802 -0.0656 -0.1822 -1.2353
11167TIP3    H233447   3.920   5.095   1.899  0.6305  2.5495  2.3101
11168TIP3   OH233448   7.899   3.288  -0.020  0.2018  0.8366  0.3366
11168TIP3    H133449   7.819   3.300   0.033  0.4575 -0.1890  0.9930
11168TIP3    H233450   7.938   3.208   0.015  1.0164  0.8007 -0.6314
11169TIP3   OH233451   3.439   2.733   3.245 -0.1818 -0.3213 -0.0652
11169TIP3    H133452   3.387   2.691   3.314  0.4942 -1.6115 -0.3108
11169TIP3    H233453   3.389   2.719   3.165  0.7574 -2.0736 -0.3965
11170TIP3   OH233454   1.427   4.230   0.775  0.1852  0.8649  0.1381
11170TIP3    H133455   1.334   4.249   0.763 -0.1033 -1.1125 -1.2441
11170TIP3    H233456   1.452   4.181   0.696  2.0301  0.0366  1.1704
11171TIP3   OH233457   2.016   0.220   5.003 -0.3671  0.3253  0.3007
11171TIP3    H133458   2.023   0.247   5.094 -2.2671 -3.3251  1.7545
11171TIP3    H233459   1.934   0.171   4.999  2.0424 -4.1929 -1.9367
11172TIP3   OH233460   7.446   6.659   3.598 -0.7310  0.0173 -0.5767
11172TIP3    H133461   7.519   6.618   3.645 -1.9467 -0.0189  1.3499
11172TIP3    H233462   7.370   6.647   3.655 -2.1617  0.5278 -2.2892
11173TIP3   OH233463   4.516   6.543   4.948  0.3675 -0.7629 -0.1833
11173TIP3    H133464   4.454   6.521   4.879 -0.3459  0.3233  0.0943
11173TIP3    H233465   4.462   6.563   5.024  0.8870  2.0996 -0.4488
11174TIP3   OH233466   6.548   2.754   0.721  0.3062 -0.5795 -0.2545
11174TIP3    H133467   6.464   2.789   0.691 -0.0952 -1.1439  0.1827
11174TIP3    H233468   6.525   2.696   0.794  1.1937  0.2083  0.6806
11175TIP3   OH233469   4.547   1.112   2.174  0.1225  0.1702 -0.0207
11175TIP3    H133470   4.513   1.171   2.242 -1.6315 -1.0547  0.2404
11175TIP3    H233471   4.497   1.031   2.186  0.9038 -0.6190 -1.7828
11176TIP3   OH233472   7.054   4.766   2.164 -0.2133  0.5406  0.4480
11176TIP3    H133473   7.072   4.804   2.250 -0.3810 -0.3153  0.8695
11176TIP3    H233474   6.958   4.771   2.155 -0.1995  0.5944  0.3177
11177TIP3   OH233475   1.790   4.804   1.466 -0.6078 -0.3331  0.1224
11177TIP3    H133476   1.882   4.802   1.490 -0.3563 -2.2148 -0.8195
11177TIP3    H233477   1.757   4.886   1.503  0.9039 -0.6532  2.3642
11178TIP3   OH233478   5.167   3.878   2.025 -0.1733 -0.1161  0.0313
11178TIP3    H133479   5.147   3.856   2.116 -2.6143 -0.0623 -0.4239
11178TIP3    H233480   5.128   3.806   1.975 -0.4450  0.7783 -1.0590
11179TIP3   OH233481   1.878   6.509   2.517 -0.0550  0.4264 -0.1095
11179TIP3    H133482   1.871   6.530   2.424  1.7888  2.8493  0.2152
11179TIP3    H233483   1.950   6.563   2.549 -0.4833 -0.4970  2.7034
11180TIP3   OH233484   5.563   0.176   1.057  0.2140 -0.6454 -0.0382
11180TIP3    H133485   5.582   0.270   1.050  0.7273 -0.7948 -0.7413
11180TIP3    H233486   5.602   0.150   1.140  0.7656 -0.4029 -0.2199
11181TIP3   OH233487   1.237   0.369   6.023 -0.1681  0.2971 -0.2274
11181TIP3    H133488   1.207   0.459   6.014 -1.1633 -0.0372 -0.3256
11181TIP3    H233489   1.158   0.316   6.017  0.1565 -0.4886  1.6683
11182TIP3   OH233490   5.090   0.763   1.678 -0.2210 -0.1102  0.1581
11182TIP3    H133491   5.132   0.818   1.744  0.4730  0.5663 -0.8286
11182TIP3    H233492   5.113   0.674   1.703  1.2684  0.2149  0.0181
11183TIP3   OH233493   6.511   0.480   5.067 -0.0298  0.0378  0.1115
11183TIP3    H133494   6.469   0.544   5.124 -2.6748 -1.7594  0.3813
11183TIP3    H233495   6.590   0.454   5.114 -0.8057  0.4919  1.7362
11184TIP3   OH233496   6.924   4.050   1.164  0.3319 -0.1499  0.0057
11184TIP3    H133497   6.983   4.023   1.234 -0.1320  1.4461  1.0424
11184TIP3    H233498   6.843   4.075   1.208 -0.1857  0.3081 -1.1569
11185TIP3   OH233499   5.044   7.546   3.411  0.3691  0.1255  0.0040
11185TIP3    H133500   4.987   7.552   3.488  1.4372 -1.3631  0.9692
11185TIP3    H233501   5.072   7.454   3.410  0.6138  0.1798 -2.0177
11186TIP3   OH233502   7.140   1.615   6.016  0.0369 -0.1562  0.3204
11186TIP3    H133503   7.216   1.670   6.033 -0.7416  1.1069 -0.1711
11186TIP3    H233504   7.166   1.528   6.049  1.7771  0.1609 -0.0883
11187TIP3   OH233505   2.106   5.276   6.696  0.4239 -0.0314  0.1105
11187TIP3    H133506   2.082   5.275   6.604 -0.0457 -2.9029  0.1676
11187TIP3    H233507   2.025   5.251   6.742  0.9982  0.0198  1.1797
11188TIP3   OH233508   1.665   7.611   3.211 -0.0440  0.3617  0.1016
11188TIP3    H133509   1.579   7.643   3.238  0.3456  1.7350 -0.1952
11188TIP3    H233510   1.726   7.680   3.238  1.2645 -1.4392  2.1336
11189TIP3   OH233511   4.480   7.423   2.235  0.0506 -0.2558  0.3684
11189TIP3    H133512   4.499   7.447   2.144 -2.6632  0.3052 -0.1320
11189TIP3    H233513   4.561   7.444   2.283  1.2811  0.1537 -1.7605
11190TIP3   OH233514   4.092   0.512   2.692 -0.0016 -0.6491 -0.3015
11190TIP3    H133515   4.167   0.458   2.718 -1.8296 -2.6792  1.0040
11190TIP3    H233516   4.100   0.591   2.746  0.5125 -1.4235  0.7961
11191TIP3   OH233517   2.249   5.876   0.276 -0.2766 -0.8853  0.5029
11191TIP3    H133518   2.225   5.956   0.322  1.3441 -0.3326  0.4317
11191TIP3    H233519   2.342   5.885   0.259 -0.5764 -1.5702 -1.8760
11192TIP3   OH233520   5.656   5.300   4.122 -0.1823  0.3475  0.3285
11192TIP3    H133521   5.569   5.262   4.109 -0.7642  1.3994  1.0687
11192TIP3    H233522   5.690   5.258   4.201 -0.8630  1.4042  1.1984
11193TIP3   OH233523   2.072   6.427   4.435 -0.3339 -0.4020  0.5757
11193TIP3    H133524   2.023   6.370   4.376  0.3560  0.5344 -0.9685
11193TIP3    H233525   2.116   6.367   4.496 -0.5242 -1.4515 -0.2873
11194TIP3   OH233526   5.522   3.949   2.705 -0.4016 -0.7259  0.2583
11194TIP3    H133527   5.517   3.865   2.751  0.6541  0.1755  2.1253
11194TIP3    H233528   5.580   4.003   2.758  0.5089  0.5877 -1.9176
11195TIP3   OH233529   0.711   7.495   5.553  0.2801  0.7301 -0.5987
11195TIP3    H133530   0.786   7.519   5.606  1.7679  0.6536 -2.5643
11195TIP3    H233531   0.748   7.461   5.472 -1.8458 -1.4347 -0.8004
11196TIP3   OH233532   6.294   6.977   1.568  0.3294  0.5676  0.1467
11196TIP3    H133533   6.346   6.946   1.643 -2.0269 -0.2221  1.5830
11196TIP3    H233534   6.348   6.955   1.492  1.7947 -0.8391  1.4760
11197TIP3   OH233535   3.023   6.337   5.062 -0.0797 -0.1795 -0.4989
11197TIP3    H133536   3.035   6.366   5.152 -1.6417  0.5581 -0.5023
11197TIP3    H233537   2.934   6.303   5.058  0.0830 -0.5336 -1.6770
11198TIP3   OH233538   7.305   1.717   2.795 -0.2885  0.1361  0.3520
11198TIP3    H133539   7.386   1.730   2.845 -0.4653 -1.1974  1.0191
11198TIP3    H233540   7.330   1.655   2.726 -0.8195 -0.5923  0.8009
11199TIP3   OH233541   7.713   5.695   2.614  0.0390 -0.0774 -0.4355
11199TIP3    H133542   7.776   5.628   2.588  0.9560  0.6018 -0.0070
11199TIP3    H233543   7.719   5.762   2.546  1.9395  1.3745  1.0602
11200TIP3   OH233544   2.603   1.285   0.984 -0.1949  0.2594 -0.1902
11200TIP3    H133545   2.590   1.308   0.892 -2.4110 -0.2775 -0.0740
11200TIP3    H233546   2.553   1.205   0.996  0.8581 -0.2247  1.2835
11201TIP3   OH233547   6.771   4.297   2.307  0.0222  0.1282 -0.0187
11201TIP3    H133548   6.725   4.243   2.244  0.1008  0.2998 -0.2265
11201TIP3    H233549   6.855   4.252   2.321  0.2401  0.3848 -0.4700
11202TIP3   OH233550   5.919   1.971   1.520 -0.0100 -0.0636  0.3128
11202TIP3    H133551   5.976   2.036   1.561 -1.0841  0.3937  1.1186
11202TIP3    H233552   5.959   1.954   1.434  2.3504 -1.0702  1.4981
11203TIP3   OH233553   3.086   7.543   5.313 -0.4224 -0.8700  0.9504
11203TIP3    H133554   3.177   7.521   5.334 -0.1819 -0.2368  0.6025
11203TIP3    H233555   3.057   7.596   5.387  0.0274  0.3184  0.2884
11204TIP3   OH233556   3.575   5.301   6.285  0.6784  0.1882 -0.1899
11204TIP3    H133557   3.627   5.229   6.249  1.0187  0.5789 -0.4747
11204TIP3    H233558   3.519   5.328   6.212 -0.4355 -0.6867  0.3044
11205TIP3   OH233559   5.594   0.901   1.790 -0.0967  0.4268  0.5181
11205TIP3    H133560   5.668   0.841   1.781 -1.2509 -1.0663  0.5918
11205TIP3    H233561   5.634   0.984   1.817  1.5692 -0.2230  0.2132
11206TIP3   OH233562   0.698   1.923   5.078 -0.7497 -0.5932 -0.2301
11206TIP3    H133563   0.673   1.921   5.170 -0.2895  0.3780 -0.0740
11206TIP3    H233564   0.657   1.845   5.041 -0.4634 -1.3270  0.9164
11207TIP3   OH233565   4.777   0.203   3.395 -0.3079  0.3134  0.2881
11207TIP3    H133566   4.850   0.146   3.373 -1.6831 -0.8390 -1.5713
11207TIP3    H233567   4.710   0.145   3.431 -0.8356  1.1311  0.6755
11208TIP3   OH233568   6.926   1.998   5.368  0.0330 -0.3092  0.1369
11208TIP3    H133569   6.859   2.044   5.317  0.7574 -0.6515 -1.1670
11208TIP3    H233570   6.882   1.921   5.402 -0.1235 -0.8012 -1.1428
11209TIP3   OH233571   0.106   4.954   0.588 -0.4641  0.2291 -0.0174
11209TIP3    H133572   0.102   5.019   0.518 -0.6540  1.3603  1.0105
11209TIP3    H233573   0.181   4.979   0.640 -0.1040 -0.8228 -0.0034
11210TIP3   OH233574   0.454   3.234   3.700 -0.2472 -0.0677 -0.1780
11210TIP3    H133575   0.392   3.272   3.638  0.1326 -1.6826 -1.6195
11210TIP3    H233576   0.419   3.147   3.720  0.5249 -0.2346  0.5238
11211TIP3   OH233577   0.221   1.841   3.571 -0.0896 -0.1129 -0.3425
11211TIP3    H133578   0.244   1.752   3.544  0.0234 -0.9964  2.3887
11211TIP3    H233579   0.283   1.862   3.641 -0.4051  1.9696 -0.6210
11212TIP3   OH233580   2.445   3.199   3.078 -0.0425 -0.5167 -0.0655
11212TIP3    H133581   2.422   3.209   3.171 -0.0585 -0.6380 -0.0560
11212TIP3    H233582   2.533   3.236   3.072 -0.6880  1.0314 -0.3396
11213TIP3   OH233583   3.181   5.596   6.701 -0.2273  0.5281 -0.8061
11213TIP3    H133584   3.269   5.564   6.724 -1.0208  0.4537  2.5991
11213TIP3    H233585   3.130   5.516   6.686  0.1504  0.5635 -2.4287
11214TIP3   OH233586   6.849   0.545   6.467 -0.4942 -0.2240 -0.4606
11214TIP3    H133587   6.903   0.622   6.487 -0.8563  0.8117 -3.1002
11214TIP3    H233588   6.793   0.573   6.395 -2.0008 -2.4165 -0.2420
11215TIP3   OH233589   7.734   4.412   0.199  0.6403 -0.3525  0.2965
11215TIP3    H133590   7.712   4.321   0.219  0.1727 -0.1548  0.7100
11215TIP3    H233591   7.661   4.443   0.146  1.1090 -0.4020 -0.3911
11216TIP3   OH233592   0.205   6.194   3.088 -0.1338 -0.0428  0.2255
11216TIP3    H133593   0.128   6.232   3.131  0.1013 -0.4009  0.9841
11216TIP3    H233594   0.272   6.261   3.094  0.0044 -0.2204  0.7477
11217TIP3   OH233595   2.217   5.615   4.690 -0.0717 -0.1926  0.2947
11217TIP3    H133596   2.190   5.528   4.660 -1.3196  0.1034  0.4883
11217TIP3    H233597   2.150   5.674   4.655  0.9996  0.7585 -0.2104
11218TIP3   OH233598   6.778   2.799   2.357 -0.0331 -0.0271  0.1959
11218TIP3    H133599   6.825   2.767   2.434  0.7982 -0.0457 -0.2978
11218TIP3    H233600   6.686   2.791   2.379  0.1528 -1.7715  0.4932
11219TIP3   OH233601   1.423   7.818   5.182 -0.4359 -0.5206  0.1889
11219TIP3    H133602   1.470   7.793   5.262 -1.7255  0.1171  1.1998
11219TIP3    H233603   1.491   7.835   5.118  0.5802 -2.9849  0.5412
11220TIP3   OH233604   1.742   2.590   4.030 -0.1027 -0.6503 -0.1819
11220TIP3    H133605   1.710   2.630   3.949  0.7874 -0.7472 -0.5971
11220TIP3    H233606   1.780   2.663   4.079 -0.8297 -0.5566  0.2473
11221TIP3   OH233607   0.554   4.142   0.580 -0.2055  0.2727  0.0341
11221TIP3    H133608   0.550   4.047   0.593 -0.4683  0.3829  0.8604
11221TIP3    H233609   0.508   4.178   0.656  0.8723  1.0902  0.3308
11222TIP3   OH233610   2.942   2.427   2.295  0.1671 -0.1249  0.2033
11222TIP3    H133611   2.916   2.418   2.386  0.3418 -0.7895  0.1911
11222TIP3    H233612   2.863   2.454   2.249  0.1419  0.4891  0.5874
11223TIP3   OH233613   2.655   5.090   0.573 -0.6337  0.2011  0.2226
11223TIP3    H133614   2.719   5.032   0.615 -1.3327 -0.1806  0.7668
11223TIP3    H233615   2.655   5.063   0.481  1.5913  1.6531 -0.2920
11224TIP3   OH233616   1.755   4.514   3.783  0.7671 -0.2306  0.1022
11224TIP3    H133617   1.831   4.475   3.826  0.5209 -0.9518 -0.0952
11224TIP3    H233618   1.735   4.454   3.711  1.9366  1.5791 -1.8493
11225TIP3   OH233619   2.821   2.701   3.346  0.1163 -0.6812 -0.1942
11225TIP3    H133620   2.846   2.640   3.276 -0.6400 -0.0252 -1.0574
11225TIP3    H233621   2.780   2.645   3.413 -0.4566 -1.1482 -0.9187
11226TIP3   OH233622   5.074   3.107   6.578 -0.0432  0.1730 -0.1012
11226TIP3    H133623   5.159   3.149   6.590  0.3367 -0.4944 -0.4017
11226TIP3    H233624   5.018   3.175   6.541  0.3858  0.5912  0.0154
11227TIP3   OH233625   4.764   6.409   1.455  0.0190 -0.1733 -0.8575
11227TIP3    H133626   4.736   6.390   1.544  0.8547  0.9637 -0.3207
11227TIP3    H233627   4.685   6.440   1.411 -0.0968  0.7453 -0.0459
11228TIP3   OH233628   8.232   6.401   6.494 -0.2921  0.7504  0.1571
11228TIP3    H133629   8.136   6.391   6.499 -0.6464  2.1807 -2.4238
11228TIP3    H233630   8.262   6.322   6.450 -0.0807 -0.2026  1.8972
11229TIP3   OH233631   0.462   4.157   1.145  0.0146 -0.2748  0.5751
11229TIP3    H133632   0.385   4.101   1.137  0.3052 -0.6520  0.3951
11229TIP3    H233633   0.537   4.097   1.141  0.3204  0.0926  0.6855
11230TIP3   OH233634   1.409   7.669   0.653 -0.7884  0.2880 -0.2953
11230TIP3    H133635   1.350   7.629   0.589 -0.8528  1.2722 -0.8752
11230TIP3    H233636   1.442   7.747   0.609  0.9843 -0.2529  0.0088
11231TIP3   OH233637   4.007   0.690   1.559 -0.3269 -0.1570  0.0627
11231TIP3    H133638   4.000   0.647   1.644 -1.1648  2.4158  1.4101
11231TIP3    H233639   4.098   0.719   1.554 -0.2235 -0.4910 -0.0339
11232TIP3   OH233640   5.490   0.602   2.463  0.2364  0.1309 -0.3778
11232TIP3    H133641   5.572   0.644   2.490 -0.3525  1.8413 -1.1088
11232TIP3    H233642   5.516   0.542   2.393  0.9382  0.3198 -0.2883
11233TIP3   OH233643   2.576   4.998   6.619 -0.1344 -0.1683 -0.2907
11233TIP3    H133644   2.587   5.085   6.657  0.0233  0.7872 -2.3840
11233TIP3    H233645   2.592   5.010   6.525 -0.9307 -2.3015 -0.7722
11234TIP3   OH233646   6.122   0.332   0.926 -0.0730 -0.1508 -0.4706
11234TIP3    H133647   6.103   0.242   0.899 -1.6447 -0.3644  1.2165
11234TIP3    H233648   6.056   0.385   0.881  0.3549  0.0815 -0.8348
11235TIP3   OH233649   2.816   7.585   6.136  0.0722  0.5210  0.3521
11235TIP3    H133650   2.862   7.618   6.059  2.6354 -1.2358  0.9907
11235TIP3    H233651   2.734   7.549   6.102 -0.1319  2.2070 -1.1050
11236TIP3   OH233652   2.706   7.018   4.832 -0.7192  0.2132 -0.4719
11236TIP3    H133653   2.677   7.001   4.742 -0.0196  0.9721 -0.8549
11236TIP3    H233654   2.729   7.111   4.833  1.0914 -0.1963 -0.0363
11237TIP3   OH233655   8.236   2.848   5.734  0.1388 -0.2488  0.4396
11237TIP3    H133656   8.306   2.884   5.679  0.3598 -0.2902  0.6932
11237TIP3    H233657   8.219   2.761   5.698 -0.0379 -0.0912  0.1465
11238TIP3   OH233658   3.246   5.738   3.049  0.6814 -0.8313  0.4188
11238TIP3    H133659   3.204   5.757   2.965  1.6368 -1.0228 -0.1176
11238TIP3    H233660   3.205   5.799   3.110  0.5742 -0.0915 -0.3669
11239TIP3   OH233661   6.479   7.318   4.454 -0.5442  0.2448  0.0903
11239TIP3    H133662   6.399   7.360   4.422 -0.4813  0.0567 -0.3121
11239TIP3    H233663   6.496   7.362   4.538 -1.2387  0.0665  0.3322
11240TIP3   OH233664   4.375   5.355   5.672  0.1840  0.0610 -0.4142
11240TIP3    H133665   4.428   5.415   5.620 -0.4389 -0.3753 -1.6020
11240TIP3    H233666   4.285   5.381   5.654 -0.0512  1.3071  2.1954
11241TIP3   OH233667   7.993   0.400   5.630  0.3471 -0.2634  0.2509
11241TIP3    H133668   7.943   0.327   5.593  0.2964 -0.5315  0.8426
11241TIP3    H233669   8.042   0.362   5.703 -0.5688  0.5107  1.3143
11242TIP3   OH233670   3.054   6.284   6.014  0.2046 -0.5436 -0.1198
11242TIP3    H133671   2.972   6.284   5.964 -2.1509  0.0596  3.3519
11242TIP3    H233672   3.077   6.377   6.020 -0.7267 -0.3889  1.5483
11243TIP3   OH233673   3.377   5.248   1.153  0.0304  0.5090 -0.5311
11243TIP3    H133674   3.332   5.164   1.142 -2.2575  1.5619  0.1110
11243TIP3    H233675   3.393   5.279   1.064  0.4507 -0.3617 -0.7690
11244TIP3   OH233676   5.635   2.706   0.656 -0.0534  0.2281  0.6338
11244TIP3    H133677   5.653   2.738   0.567 -0.3436  0.0849  0.5221
11244TIP3    H233678   5.705   2.744   0.709  1.2043 -1.1699  0.0352
11245TIP3   OH233679   3.273   7.141   2.872 -0.1652  0.7518  0.0080
11245TIP3    H133680   3.363   7.174   2.875 -0.0058  0.2859  1.2461
11245TIP3    H233681   3.219   7.217   2.893  0.0349  0.7603  0.5048
11246TIP3   OH233682   7.010   1.769   2.531  0.2699  0.3252  0.0807
11246TIP3    H133683   7.069   1.844   2.532 -0.5589  1.1129 -2.5666
11246TIP3    H233684   7.063   1.698   2.495  1.2679 -0.6925  3.2315
11247TIP3   OH233685   2.660   4.550   6.693  0.2156 -0.1810  0.2883
11247TIP3    H133686   2.697   4.631   6.728 -0.8841  0.8745 -0.8991
11247TIP3    H233687   2.566   4.564   6.693  0.0583 -1.0305 -0.9477
11248TIP3   OH233688   4.117   1.810   0.208 -0.5502 -0.0009  0.5821
11248TIP3    H133689   4.090   1.789   0.297  0.0354 -1.5017  0.4390
11248TIP3    H233690   4.145   1.902   0.212  0.8597 -0.4489  2.3036
11249TIP3   OH233691   3.271   3.546   1.646  0.4860  0.4724 -0.6075
11249TIP3    H133692   3.299   3.504   1.727 -0.5952  1.6141  0.3906
11249TIP3    H233693   3.179   3.522   1.636  0.6511  0.2159 -1.5887
11250TIP3   OH233694   6.936   3.330   0.406 -0.4469  0.5257 -0.0244
11250TIP3    H133695   6.930   3.425   0.419 -2.5208  0.6042 -1.1601
11250TIP3    H233696   6.892   3.292   0.481 -0.7281  0.5027 -0.2020
11251TIP3   OH233697   6.685   1.603   4.712  0.5215  0.1096 -0.3185
11251TIP3    H133698   6.759   1.617   4.653  0.1812  1.2597 -0.4926
11251TIP3    H233699   6.630   1.539   4.666  0.3359  0.8720 -1.2012
11252TIP3   OH233700   2.593   7.229   3.122 -0.3349  0.2784 -0.1065
11252TIP3    H133701   2.636   7.315   3.119 -0.5711  0.3733 -1.0227
11252TIP3    H233702   2.614   7.195   3.209  0.9894  0.6428 -0.2544
11253TIP3   OH233703   4.315   1.051   4.331 -0.6058  0.2853  0.0177
11253TIP3    H133704   4.266   1.133   4.328 -0.5114  0.3148 -0.8009
11253TIP3    H233705   4.404   1.077   4.355 -0.4484  0.4832 -0.7781
11254TIP3   OH233706   6.976   0.706   3.340  0.0142  0.0985  0.6047
11254TIP3    H133707   7.011   0.626   3.378  0.9457  0.4010  0.4124
11254TIP3    H233708   6.928   0.677   3.263 -0.5423 -0.3686  1.1249
11255TIP3   OH233709   1.410   3.144   0.264 -0.6672  0.1878  0.7221
11255TIP3    H133710   1.406   3.067   0.209  0.0351  0.3849  0.3941
11255TIP3    H233711   1.357   3.209   0.218 -3.1090 -0.7117  2.0439
11256TIP3   OH233712   4.099   7.563   0.013 -0.1124 -0.3754 -0.2999
11256TIP3    H133713   4.059   7.477   0.005 -0.8835 -0.0813  0.3283
11256TIP3    H233714   4.137   7.564   0.101 -1.5636  0.5138  0.3505
11257TIP3   OH233715   2.139   1.322   2.214 -0.2490  0.3512  0.2564
11257TIP3    H133716   2.230   1.352   2.216 -0.2851  0.4417  0.7462
11257TIP3    H233717   2.126   1.288   2.126  1.0415 -2.0911  0.9385
11258TIP3   OH233718   2.375   0.366   3.226  0.0499 -0.0910 -0.0993
11258TIP3    H133719   2.286   0.399   3.211 -0.0279 -0.7211 -1.1049
11258TIP3    H233720   2.432   0.437   3.197 -0.1227 -0.5580 -1.6966
11259TIP3   OH233721   1.779   1.969   5.052 -0.0425  0.0897 -0.1069
11259TIP3    H133722   1.798   1.889   5.004  2.7526  1.2206 -1.1446
11259TIP3    H233723   1.798   1.948   5.144  0.8852 -0.4036 -0.4015
11260TIP3   OH233724   6.888   0.958   3.702  0.1560  0.1765 -0.0693
11260TIP3    H133725   6.830   1.033   3.684 -0.8746 -0.9772 -1.8492
11260TIP3    H233726   6.839   0.882   3.671  0.9067 -1.3752  2.2787
11261TIP3   OH233727   4.599   5.090   1.677  0.3186  0.2627  0.5302
11261TIP3    H133728   4.627   5.157   1.615 -1.5078  0.5300 -0.0938
11261TIP3    H233729   4.582   5.138   1.758  2.1227  0.0082  1.0923
11262TIP3   OH233730   5.446   6.775   0.349 -1.5105 -0.2321  0.4502
11262TIP3    H133731   5.530   6.820   0.360 -1.9705  1.2521 -1.4912
11262TIP3    H233732   5.469   6.683   0.340  0.0393  0.2380 -0.9978
11263TIP3   OH233733   1.915   1.889   4.183 -0.0185  0.0886 -0.1099
11263TIP3    H133734   1.996   1.929   4.154 -0.7089  0.9939 -0.8154
11263TIP3    H233735   1.935   1.856   4.271  1.4491 -0.7677 -0.7269
11264TIP3   OH233736   4.378   1.084   5.071  0.1294 -0.2434 -0.2841
11264TIP3    H133737   4.314   1.060   5.004  0.5028  0.5503 -0.9424
11264TIP3    H233738   4.373   1.013   5.135 -2.6866  0.6726  0.6321
11265TIP3   OH233739   0.864   4.361   2.806  0.2794  0.3786  1.1039
11265TIP3    H133740   0.890   4.445   2.768  0.5393  0.0407  0.5227
11265TIP3    H233741   0.908   4.359   2.892  0.5067  0.7084  0.9965
11266TIP3   OH233742   1.720   5.901   0.118 -0.0577 -0.1350  0.7558
11266TIP3    H133743   1.716   5.830   0.182 -0.7029 -1.5820 -0.8412
11266TIP3    H233744   1.629   5.926   0.102 -0.0302 -0.8614 -0.7170
11267TIP3   OH233745   4.043   5.312   4.868  0.2399 -0.3344  0.4841
11267TIP3    H133746   4.105   5.242   4.889 -0.7467 -1.4504 -0.1854
11267TIP3    H233747   3.960   5.283   4.906 -0.5233 -0.2640 -1.0231
11268TIP3   OH233748   7.690   1.628   0.318  0.6333 -0.5836 -0.0875
11268TIP3    H133749   7.742   1.647   0.241 -1.8364  1.6940 -1.3361
11268TIP3    H233750   7.684   1.711   0.365  1.0584 -1.6338  1.9618
11269TIP3   OH233751   0.869   0.113   3.893 -0.2535 -0.8713 -0.3944
11269TIP3    H133752   0.930   0.179   3.860 -0.6342  0.8054  1.9655
11269TIP3    H233753   0.897   0.031   3.852  2.6645  0.0746 -0.4908
11270TIP3   OH233754   3.700   2.153   5.472  0.1306  0.0806  0.5493
11270TIP3    H133755   3.792   2.157   5.497 -0.1172 -0.1389  1.5142
11270TIP3    H233756   3.701   2.114   5.384  0.9752  0.3945  0.4144
11271TIP3   OH233757   6.789   4.275   4.508 -0.1997 -0.4121 -0.2849
11271TIP3    H133758   6.823   4.341   4.447 -0.2544 -1.4719 -1.5009
11271TIP3    H233759   6.824   4.301   4.593  0.9022  0.4148 -0.9617
11272TIP3   OH233760   4.163   1.396   2.427 -0.3749  0.0029 -0.1736
11272TIP3    H133761   4.164   1.412   2.521 -1.6681  3.8730 -0.6425
11272TIP3    H233762   4.075   1.363   2.408 -1.1867  2.0332 -0.2473
11273TIP3   OH233763   7.934   0.365   0.043 -0.0633  0.3206 -0.2698
11273TIP3    H133764   8.026   0.385   0.026 -0.3415  0.7799 -1.3497
11273TIP3    H233765   7.886   0.416  -0.023 -1.0192 -0.8659 -0.5294
11274TIP3   OH233766   0.536   0.416   0.568 -0.3363 -0.0360 -0.3587
11274TIP3    H133767   0.563   0.498   0.608 -0.3050  1.4184 -3.1392
11274TIP3    H233768   0.443   0.427   0.550 -0.2386 -0.3980 -1.1565
11275TIP3   OH233769   8.323   0.821   0.748  0.3493  0.1115 -0.1573
11275TIP3    H133770   8.251   0.847   0.805  1.7046 -0.4164  1.8995
11275TIP3    H233771   8.286   0.752   0.692 -1.0001  0.5763  0.1374
11276TIP3   OH233772   3.617   2.347   2.903  0.6317 -0.5666  0.1662
11276TIP3    H133773   3.674   2.422   2.889  1.6415 -1.6280 -1.7559
11276TIP3    H233774   3.638   2.317   2.992  1.0225  0.6929  0.5240
11277TIP3   OH233775   1.709   1.968   4.639  0.2396 -0.5712 -0.3066
11277TIP3    H133776   1.641   2.016   4.686 -0.9093 -1.9051 -0.5443
11277TIP3    H233777   1.781   2.031   4.631 -0.3999  0.4148  1.2065
11278TIP3   OH233778   2.717   4.832   3.269 -0.4791  0.3190  0.2996
11278TIP3    H133779   2.779   4.772   3.228 -0.3354 -0.3899  1.4974
11278TIP3    H233780   2.645   4.838   3.207  0.1675  0.0748 -0.4987
11279TIP3   OH233781   5.905   6.391   6.430 -0.0122  0.2862  0.3983
11279TIP3    H133782   5.934   6.336   6.357 -0.3909  0.9920 -0.2920
11279TIP3    H233783   5.869   6.329   6.494  0.8979 -0.3900  0.2702
11280TIP3   OH233784   6.124   3.329   3.742  0.0054  0.0985  0.3140
11280TIP3    H133785   6.142   3.239   3.767 -1.2083 -0.7372 -1.5925
11280TIP3    H233786   6.195   3.353   3.683  0.0445  0.1979  0.4011
11281TIP3   OH233787   7.940   3.455   0.895 -0.0354  0.0974 -0.2171
11281TIP3    H133788   7.982   3.532   0.858  0.3955 -0.3462 -0.6604
11281TIP3    H233789   7.865   3.438   0.837 -0.5451  0.5932  0.2860
11282TIP3   OH233790   2.070   5.875   6.770  0.3525  0.4991 -0.0671
11282TIP3    H133791   2.148   5.846   6.724  0.4658  1.4327 -0.4818
11282TIP3    H233792   1.998   5.828   6.728  0.8185 -1.8327  1.5550
11283TIP3   OH233793   4.340   5.343   4.533 -0.3982 -0.4732 -0.3814
11283TIP3    H133794   4.365   5.251   4.538  0.1673 -0.2747  1.1642
11283TIP3    H233795   4.415   5.386   4.492  0.1811 -0.4442  0.6701
11284TIP3   OH233796   6.579   5.506   2.203 -0.4065 -0.1340 -0.2737
11284TIP3    H133797   6.607   5.449   2.275 -0.4181 -0.9011 -0.8647
11284TIP3    H233798   6.501   5.550   2.237 -0.3161 -0.3588  0.2429
11285TIP3   OH233799   2.654   0.333   1.511 -0.1061  0.0159 -0.3322
11285TIP3    H133800   2.608   0.266   1.562  0.0242 -0.0475 -0.2976
11285TIP3    H233801   2.730   0.288   1.475 -0.3066  0.0106 -0.7524
11286TIP3   OH233802   5.011   0.546   3.171 -0.4158  0.4985 -0.3258
11286TIP3    H133803   4.930   0.495   3.169 -0.5519  0.6422  1.0597
11286TIP3    H233804   4.986   0.631   3.207  0.7345 -0.2565  2.4888
11287TIP3   OH233805   4.817   6.009   5.511 -0.2826  0.5396  0.3766
11287TIP3    H133806   4.890   6.025   5.451 -1.7848 -0.9085 -2.0173
11287TIP3    H233807   4.786   6.097   5.534  0.7026  1.1566 -0.5424
11288TIP3   OH233808   2.693   7.717   2.352  0.1689 -0.1972  0.6298
11288TIP3    H133809   2.777   7.764   2.353  0.8257 -1.2959  2.4256
11288TIP3    H233810   2.647   7.749   2.430 -0.6420 -0.4085  0.2500
11289TIP3   OH233811   3.335   3.240   2.329  0.1386  0.3471  0.0565
11289TIP3    H133812   3.294   3.154   2.343  1.2195  0.1571  2.4294
11289TIP3    H233813   3.384   3.257   2.409 -1.0492  3.7922  0.2021
11290TIP3   OH233814   1.502   3.813   2.021 -0.3466 -0.1604 -0.3749
11290TIP3    H133815   1.433   3.752   2.050  1.9706 -3.1656 -0.6606
11290TIP3    H233816   1.496   3.886   2.082 -1.1979 -2.2405  2.2422
11291TIP3   OH233817   5.165   5.524   1.630 -0.2320 -0.5022  0.2037
11291TIP3    H133818   5.091   5.485   1.585 -1.2724  1.2359  0.3315
11291TIP3    H233819   5.133   5.543   1.718  0.6222 -0.4997  0.5265
11292TIP3   OH233820   1.509   0.256   5.379  0.5647  0.2685  0.3407
11292TIP3    H133821   1.544   0.345   5.387 -0.7215  0.7726  0.5956
11292TIP3    H233822   1.527   0.215   5.464  1.4484  0.1650  0.1117
11293TIP3   OH233823   6.351   7.479   1.820 -0.2981 -0.5485 -0.7117
11293TIP3    H133824   6.259   7.494   1.843 -0.4548  0.4858 -1.9249
11293TIP3    H233825   6.368   7.538   1.747  1.3204 -0.7862 -0.5680
11294TIP3   OH233826   0.163   1.187   5.718 -0.6193 -0.7121 -0.4768
11294TIP3    H133827   0.085   1.237   5.741  0.0981  0.6804 -0.9416
11294TIP3    H233828   0.163   1.184   5.623 -0.7415 -1.7713 -0.4529
11295TIP3   OH233829   4.871   0.060   0.229 -0.0793  0.9965 -0.3804
11295TIP3    H133830   4.826  -0.016   0.191 -0.3351  0.6704  0.5390
11295TIP3    H233831   4.963   0.033   0.234  0.0291  1.2049 -1.1491
11296TIP3   OH233832   5.511   7.023   2.614  0.6446 -0.1485 -0.2737
11296TIP3    H133833   5.435   6.973   2.645  0.4468 -0.0037 -0.5272
11296TIP3    H233834   5.540   7.073   2.691 -0.0193  0.4275 -0.3952
11297TIP3   OH233835   2.309   2.375   4.252 -0.6538 -0.3793  0.2401
11297TIP3    H133836   2.282   2.301   4.307 -0.8936 -0.3555  0.1539
11297TIP3    H233837   2.405   2.369   4.249 -0.5757  0.0147  1.2318
11298TIP3   OH233838   7.625   1.908   3.315 -0.0255  0.1584  0.4152
11298TIP3    H133839   7.593   1.925   3.227  1.8255 -0.5589 -0.4461
11298TIP3    H233840   7.670   1.824   3.309  0.0582  0.0418  2.0735
11299TIP3   OH233841   1.280   7.599   0.885  0.0655  0.1491  0.3712
11299TIP3    H133842   1.253   7.673   0.939  1.6291  0.1577  1.1912
11299TIP3    H233843   1.301   7.638   0.800  2.1660  0.9136  1.1826
11300TIP3   OH233844   5.401   7.006   0.565  0.6999  0.0755 -0.7071
11300TIP3    H133845   5.453   6.954   0.503 -1.0596 -0.8739 -1.4602
11300TIP3    H233846   5.332   6.946   0.594 -1.7017  2.0642 -1.9362
11301TIP3   OH233847   6.496   5.771   6.197  0.5951 -0.7330 -0.4318
11301TIP3    H133848   6.555   5.737   6.130  1.2851 -0.5863  0.0821
11301TIP3    H233849   6.551   5.830   6.249 -0.1869 -0.0540 -0.3545
11302TIP3   OH233850   2.971   4.644   5.079 -0.4425  0.8571  0.7446
11302TIP3    H133851   3.045   4.611   5.029 -1.0341 -0.0758  0.4567
11302TIP3    H233852   2.895   4.601   5.040 -1.1499  1.8999  0.9494
11303TIP3   OH233853   3.841   3.939   6.354 -0.2119  0.2790  0.3910
11303TIP3    H133854   3.774   3.991   6.398 -0.8359  0.8950 -1.2211
11303TIP3    H233855   3.919   3.994   6.355 -0.9558  1.4723 -1.6052
11304TIP3   OH233856   2.859   4.038   0.550  0.7386 -0.2657  0.4536
11304TIP3    H133857   2.904   3.953   0.555  0.6084 -0.2759  1.8722
11304TIP3    H233858   2.770   4.017   0.523  0.9149 -0.4979  0.0454
11305TIP3   OH233859   7.737   0.125   0.337  0.6184 -0.2957 -0.1256
11305TIP3    H133860   7.768   0.088   0.254  1.0791 -0.7591  0.2387
11305TIP3    H233861   7.793   0.083   0.403  0.5812  0.4298  0.3756
11306TIP3   OH233862   1.879   7.645   2.432 -0.5930  0.1859  0.8258
11306TIP3    H133863   1.817   7.691   2.375  0.6460  0.7543 -0.1031
11306TIP3    H233864   1.889   7.702   2.507 -0.8848  0.2790  0.7973
11307TIP3   OH233865   7.499   5.260   3.985 -0.3768  0.4057 -0.9572
11307TIP3    H133866   7.515   5.352   4.006 -1.5410  0.8741 -1.9744
11307TIP3    H233867   7.451   5.263   3.902 -0.4999 -1.1229 -0.9621
11308TIP3   OH233868   8.105   4.075   3.119  0.4471  0.8618  0.1253
11308TIP3    H133869   8.022   4.093   3.074 -0.3021 -1.2552  0.5217
11308TIP3    H233870   8.146   4.006   3.068  0.9329  0.3867  1.1208
11309TIP3   OH233871   4.708   3.943   2.704 -0.5688  0.0570 -0.5916
11309TIP3    H133872   4.676   3.871   2.650  0.5807  0.2401 -1.5729
11309TIP3    H233873   4.795   3.963   2.667 -0.1085  0.7446  0.8077
11310TIP3   OH233874   6.254   2.609   0.969  0.4218 -0.1535 -0.1812
11310TIP3    H133875   6.304   2.555   0.908 -0.2741  0.6881 -1.5509
11310TIP3    H233876   6.237   2.690   0.921 -1.8155 -0.2060  0.4260
11311TIP3   OH233877   0.015   1.181   6.103 -0.1726 -0.1450  0.1109
11311TIP3    H133878   0.007   1.273   6.077 -0.2289 -0.0786  0.3579
11311TIP3    H233879   0.093   1.178   6.158  0.9498 -0.6004 -1.4405
11312TIP3   OH233880   2.031   4.698   3.115  0.0922  0.1867  0.1540
11312TIP3    H133881   2.085   4.633   3.069  0.9921  0.5508  0.6801
11312TIP3    H233882   2.013   4.765   3.049  0.4886  0.1862  0.0442
11313TIP3   OH233883   0.386   6.236   6.194 -0.0058 -0.2739 -0.8684
11313TIP3    H133884   0.465   6.209   6.147  0.2536  0.1493 -0.6784
11313TIP3    H233885   0.343   6.154   6.218  0.4287 -0.5065 -0.8798
11314TIP3   OH233886   8.117   6.452   1.034 -0.0470  0.3509 -1.0379
11314TIP3    H133887   8.137   6.416   0.948  1.0130 -0.1703 -0.5920
11314TIP3    H233888   8.107   6.376   1.091  1.3043  0.7046 -0.2842
11315TIP3   OH233889   6.434   2.738   3.731 -0.8779 -0.5117  0.4046
11315TIP3    H133890   6.480   2.673   3.677 -1.3559 -1.5007  1.1500
11315TIP3    H233891   6.473   2.822   3.706  1.4537 -1.2924  1.1082
11316TIP3   OH233892   1.683   2.922   6.134  0.2463 -0.0276 -0.0596
11316TIP3    H133893   1.772   2.936   6.167  0.8114 -2.0507 -0.5358
11316TIP3    H233894   1.696   2.895   6.042 -1.0514  2.0812 -0.9238
11317TIP3   OH233895   8.038   7.009   5.040 -0.7524 -0.3268  0.2253
11317TIP3    H133896   8.082   7.044   5.117 -2.6529  1.1524  0.7425
11317TIP3    H233897   7.998   6.927   5.070 -0.8215 -0.1580  0.6052
11318TIP3   OH233898   8.127   1.987   2.713 -0.3533 -0.2776 -0.3643
11318TIP3    H133899   8.043   2.031   2.725 -1.6885 -1.9640 -2.6597
11318TIP3    H233900   8.175   2.043   2.651 -0.2550  0.1046  0.0542
11319TIP3   OH233901   5.497   6.107   5.257  0.4758 -0.1901  0.3279
11319TIP3    H133902   5.512   6.087   5.349  0.7210 -1.9815 -0.0675
11319TIP3    H233903   5.549   6.042   5.209  0.2390  0.6103 -1.0865
11320TIP3   OH233904   6.587   2.139   2.174 -0.4175  0.3947  0.2568
11320TIP3    H133905   6.580   2.047   2.197  0.5233 -0.2750 -1.8422
11320TIP3    H233906   6.681   2.156   2.169 -0.5768  1.3419  0.2096
11321TIP3   OH233907   1.085   6.357   4.317  0.0361 -0.2617  0.0911
11321TIP3    H133908   1.080   6.367   4.222 -2.0897 -2.2932 -0.1119
11321TIP3    H233909   1.135   6.433   4.347 -1.6194  1.9736 -2.3659
11322TIP3   OH233910   4.442   6.991   1.700 -0.3073  0.6749 -0.1585
11322TIP3    H133911   4.480   6.906   1.723 -3.6467 -0.8929  0.1844
11322TIP3    H233912   4.445   7.041   1.782  1.3030  0.8097 -0.2584
11323TIP3   OH233913   6.139   3.185   2.862 -0.2818 -0.0183 -0.3098
11323TIP3    H133914   6.233   3.199   2.874  0.1564 -2.5180 -0.2252
11323TIP3    H233915   6.115   3.124   2.932 -0.9748 -2.7660 -2.7595
11324TIP3   OH233916   2.772   2.415   5.416  0.2128 -0.3306 -0.2718
11324TIP3    H133917   2.842   2.480   5.411 -1.1124  1.1747 -0.1039
11324TIP3    H233918   2.758   2.389   5.325  1.3614 -1.0794 -0.2478
11325TIP3   OH233919   0.776   7.692   0.067  0.2187 -0.1313  0.3343
11325TIP3    H133920   0.772   7.777   0.022  1.0672 -0.3579 -0.1854
11325TIP3    H233921   0.700   7.644   0.034 -1.0221  0.8612  1.5907
11326TIP3   OH233922   6.574   0.939   2.019 -0.2296  0.2326 -0.2125
11326TIP3    H133923   6.480   0.948   2.002 -0.1024  1.8748 -0.2575
11326TIP3    H233924   6.592   1.007   2.084  0.9153 -0.1160 -0.1538
11327TIP3   OH233925   4.675   3.584   3.902 -0.1071 -0.4326 -0.0385
11327TIP3    H133926   4.709   3.614   3.986 -0.0788 -0.8470  0.1012
11327TIP3    H233927   4.631   3.660   3.865  0.7820  0.0534 -0.1273
11328TIP3   OH233928   3.381   2.720   2.912 -0.4307  0.3023  0.8349
11328TIP3    H133929   3.444   2.694   2.845 -0.1107  0.2680  1.1475
11328TIP3    H233930   3.333   2.794   2.873 -0.7363 -0.1752  0.2950
11329TIP3   OH233931   6.412   5.633   0.764  0.2420  0.3889 -0.0396
11329TIP3    H133932   6.393   5.580   0.687  0.0203  1.1280 -0.5070
11329TIP3    H233933   6.490   5.683   0.739  2.1789 -1.6798  1.3820
11330TIP3   OH233934   5.824   2.884   4.686  0.2251  0.1293 -0.3958
11330TIP3    H133935   5.875   2.856   4.763 -0.4565 -0.6974 -0.2326
11330TIP3    H233936   5.786   2.968   4.712  1.2938  0.6341 -0.4289
11331TIP3   OH233937   7.933   7.173   6.429 -0.5530  0.6636 -0.1257
11331TIP3    H133938   7.850   7.220   6.437 -0.6155  0.3643  1.4302
11331TIP3    H233939   7.908   7.084   6.405 -0.6594  0.6760 -0.0623
11332TIP3   OH233940   1.027   4.706   0.444 -0.2647  0.4215 -0.3243
11332TIP3    H133941   0.934   4.691   0.463  0.1800  0.6996  2.4916
11332TIP3    H233942   1.073   4.679   0.524  1.8397  2.8051 -0.5999
11333TIP3   OH233943   3.858   6.065   1.867  0.1385 -0.2625 -0.2751
11333TIP3    H133944   3.925   6.134   1.864 -0.6055  0.4449 -1.1080
11333TIP3    H233945   3.908   5.983   1.860  0.9237  0.2501 -0.9247
11334TIP3   OH233946   1.627   5.646   5.394  0.1628  0.1257 -0.4513
11334TIP3    H133947   1.709   5.596   5.390  1.0056  1.2859  1.1605
11334TIP3    H233948   1.566   5.587   5.438  1.0318  0.2870  1.0597
11335TIP3   OH233949   5.729   5.638   0.597  0.2476 -0.4045 -0.2942
11335TIP3    H133950   5.735   5.657   0.691 -1.2143 -0.0506 -0.2396
11335TIP3    H233951   5.730   5.725   0.556  0.5145 -0.5413 -0.5743
11336TIP3   OH233952   6.647   6.060   0.191 -0.5198  0.6150  0.2458
11336TIP3    H133953   6.676   5.969   0.202  0.7940  1.0303  0.3067
11336TIP3    H233954   6.725   6.112   0.207 -0.9953  1.7153 -0.9009
11337TIP3   OH233955   1.787   0.696   6.789  0.6798  0.1560 -0.4792
11337TIP3    H133956   1.843   0.757   6.740  0.7999  0.1782 -0.3147
11337TIP3    H233957   1.700   0.736   6.785  0.9092  0.7753  0.3337
11338TIP3   OH233958   3.524   3.333   3.340  0.3694  0.6148 -0.4632
11338TIP3    H133959   3.487   3.287   3.265  1.6441 -1.0108 -0.1520
11338TIP3    H233960   3.451   3.385   3.375 -0.9972 -0.7586 -1.1733
11339TIP3   OH233961   7.913   4.794   4.880  0.1708  0.0086 -0.3479
11339TIP3    H133962   7.990   4.750   4.844 -0.0250 -0.0520 -0.7002
11339TIP3    H233963   7.857   4.810   4.804  0.0426  0.4704 -0.1571
11340TIP3   OH233964   0.553   7.541   4.559 -0.1478 -0.0433 -0.0235
11340TIP3    H133965   0.512   7.460   4.530 -1.0037  0.6693 -0.8825
11340TIP3    H233966   0.495   7.610   4.526  1.2030  0.9607 -0.3715
11341TIP3   OH233967   7.209   7.501   0.237 -0.9261 -0.3075 -0.1898
11341TIP3    H133968   7.153   7.494   0.315  0.3538 -0.0075  0.8056
11341TIP3    H233969   7.190   7.588   0.202 -1.8561 -0.6266 -0.4934
11342TIP3   OH233970   1.105   4.294   3.396 -0.1641  0.2903 -0.0496
11342TIP3    H133971   1.023   4.282   3.349 -1.2163  1.0479  1.5186
11342TIP3    H233972   1.151   4.211   3.384 -0.9780 -0.0232 -1.2473
11343TIP3   OH233973   3.722   7.192   2.101  0.0245 -0.0290  0.1329
11343TIP3    H133974   3.750   7.275   2.138 -0.5418 -0.9134  2.7513
11343TIP3    H233975   3.634   7.178   2.137 -0.8564 -0.6975 -2.1132
11344TIP3   OH233976   3.047   1.942   6.698 -0.5215 -0.3279  0.6392
11344TIP3    H133977   2.979   1.882   6.667  1.1637 -1.4454 -1.1275
11344TIP3    H233978   3.044   2.015   6.636 -0.6198  0.0119  1.0393
11345TIP3   OH233979   2.386   0.268   5.229  0.1364  0.4530 -0.3657
11345TIP3    H133980   2.424   0.181   5.236  0.4372  0.6737  0.8369
11345TIP3    H233981   2.338   0.266   5.145 -0.7537 -1.2053  0.1309
11346TIP3   OH233982   5.566   7.433   2.566 -0.4752 -0.1517  0.2921
11346TIP3    H133983   5.635   7.380   2.607  0.7166 -0.4462 -1.8948
11346TIP3    H233984   5.484   7.396   2.598  0.3403 -2.4869 -0.1249
11347TIP3   OH233985   3.519   4.999   2.582  0.1470  0.5586  0.3018
11347TIP3    H133986   3.603   4.968   2.615  0.4943  0.1633 -0.8765
11347TIP3    H233987   3.473   5.033   2.659  1.1208  0.1881  1.0657
11348TIP3   OH233988   6.422   2.865   5.795 -0.7002 -0.5537 -0.2681
11348TIP3    H133989   6.454   2.849   5.884  0.3620 -0.1241 -0.5516
11348TIP3    H233990   6.383   2.783   5.768 -0.6153 -0.8309  0.4328
11349TIP3   OH233991   2.667   1.875   5.958  0.0543  0.2495  0.3936
11349TIP3    H133992   2.726   1.830   6.019  0.1230  0.1247  0.2368
11349TIP3    H233993   2.721   1.888   5.879 -0.0324  0.4133  0.3612
11350TIP3   OH233994   6.115   5.990   2.905  0.2861  0.0833  0.2313
11350TIP3    H133995   6.151   5.902   2.912  0.0608  0.0522  1.1558
11350TIP3    H233996   6.024   5.977   2.879  1.1822  0.2075 -3.4552
11351TIP3   OH233997   3.350   6.158   6.478 -0.0974 -0.0252  0.3261
11351TIP3    H133998   3.374   6.223   6.412  1.0826  0.7117  1.4349
11351TIP3    H233999   3.281   6.107   6.436  2.7550 -1.7381 -2.7997
11352TIP3   OH234000   1.540   6.662   5.851 -0.2278 -0.1072 -0.3738
11352TIP3    H134001   1.565   6.620   5.768 -0.6006 -2.0881  0.4552
11352TIP3    H234002   1.450   6.691   5.836 -0.1555 -0.0877 -0.7921
11353TIP3   OH234003   7.978   5.125   4.686  0.4463 -0.4020  0.5227
11353TIP3    H134004   7.959   5.038   4.653  0.3714 -0.2748  0.2219
11353TIP3    H234005   8.031   5.166   4.617 -2.1862  0.9262 -0.8664
11354TIP3   OH234006   3.128   2.294   1.945  0.8320 -0.2319  0.8578
11354TIP3    H134007   3.070   2.359   1.905  0.0107 -1.7996 -0.6567
11354TIP3    H234008   3.087   2.273   2.028  0.6704  0.5887  0.9924
11355TIP3   OH234009   0.031   6.493   3.262 -0.4174 -0.1577  0.2192
11355TIP3    H134010   0.056   6.451   3.345 -1.4766 -0.4824  0.3908
11355TIP3    H234011  -0.010   6.423   3.211  0.6953 -0.0845 -0.8021
11356TIP3   OH234012   7.131   5.930   0.832 -0.3108  0.1866 -0.2160
11356TIP3    H134013   7.200   5.961   0.773 -1.0458 -0.0333 -1.2350
11356TIP3    H234014   7.073   5.879   0.775 -1.2274  0.2372  0.6415
11357TIP3   OH234015   1.608   2.446   1.172 -0.2214  0.0764 -0.2742
11357TIP3    H134016   1.680   2.485   1.122  0.3071  1.9978  1.8417
11357TIP3    H234017   1.601   2.357   1.138  1.5635  0.5846 -2.1733
11358TIP3   OH234018   1.591   1.565   1.107  0.5147 -0.2049 -0.1152
11358TIP3    H134019   1.662   1.502   1.119  0.4642 -0.0794  0.9754
11358TIP3    H234020   1.530   1.521   1.048  0.5874 -1.0957  0.4540
11359TIP3   OH234021   4.409   4.433   4.992 -0.3680  0.0597  0.0753
11359TIP3    H134022   4.363   4.508   4.956  2.0058  1.2455 -0.7129
11359TIP3    H234023   4.483   4.470   5.040  0.2354 -1.7248  0.6310
11360TIP3   OH234024   5.055   6.953   4.519  0.4486  0.5893  0.0378
11360TIP3    H134025   4.964   6.927   4.504  0.2950  1.1507 -0.0406
11360TIP3    H234026   5.048   7.033   4.572  0.8902  0.7279 -0.1130
11361TIP3   OH234027   7.593   4.268   2.057  0.0882 -0.1037  0.1617
11361TIP3    H134028   7.532   4.339   2.040  0.4918  0.2111 -0.0039
11361TIP3    H234029   7.578   4.205   1.986 -0.3542 -0.2442  0.3784
11362TIP3   OH234030   0.919   2.906   0.294 -0.0893  0.5426 -0.0664
11362TIP3    H134031   0.837   2.926   0.340  1.6301  2.3239  2.5232
11362TIP3    H234032   0.939   2.986   0.245  0.5347  0.4641  0.0530
11363TIP3   OH234033   3.845   1.386   0.433  0.3909 -0.1353  0.4969
11363TIP3    H134034   3.908   1.429   0.375  1.5984 -2.5109 -0.1026
11363TIP3    H234035   3.898   1.338   0.496 -0.8074 -1.5440  0.5059
11364TIP3   OH234036   1.677   0.694   0.936  0.2012 -0.3273 -0.1900
11364TIP3    H134037   1.616   0.623   0.954 -0.5956 -0.1198 -1.8445
11364TIP3    H234038   1.676   0.748   1.015 -1.7669 -0.3473 -0.1467
11365TIP3   OH234039   0.528   0.474   3.213  0.0519 -0.3066  0.1979
11365TIP3    H134040   0.502   0.474   3.305 -0.0709 -1.4575  0.1735
11365TIP3    H234041   0.497   0.558   3.179  1.7548  0.9976  1.6468
11366TIP3   OH234042   2.062   4.683   2.435  0.4418  0.0511 -0.3136
11366TIP3    H134043   2.149   4.724   2.442  0.6409 -0.1160 -1.6231
11366TIP3    H234044   2.003   4.756   2.415  0.8530 -0.2712 -3.0280
11367TIP3   OH234045   1.950   2.618   6.260 -0.2799 -0.2405  0.2709
11367TIP3    H134046   1.962   2.695   6.204  0.2769  0.0517  0.7776
11367TIP3    H234047   1.855   2.604   6.262 -0.5011  1.2071  1.1786
11368TIP3   OH234048   6.645   5.245   0.949 -0.1994 -0.1299 -0.2062
11368TIP3    H134049   6.671   5.173   1.007  0.3404 -0.8653 -1.3307
11368TIP3    H234050   6.699   5.234   0.871 -1.0529  0.7139 -0.9402
11369TIP3   OH234051   3.912   5.498   6.016  0.1447 -0.9209  0.2665
11369TIP3    H134052   3.859   5.469   5.942 -0.5091  0.8837 -0.0025
11369TIP3    H234053   3.995   5.451   6.005 -0.8443 -2.7051 -0.0926
11370TIP3   OH234054   0.785   4.511   4.842  0.2036 -0.6577 -0.3834
11370TIP3    H134055   0.796   4.533   4.934 -0.1602 -0.3135 -0.4206
11370TIP3    H234056   0.697   4.474   4.836 -0.5580  1.1047 -0.9113
11371TIP3   OH234057   2.361   1.488   1.781 -0.2343 -0.5235  0.4902
11371TIP3    H134058   2.346   1.583   1.780 -0.3268 -0.4858  2.1673
11371TIP3    H234059   2.450   1.478   1.816 -0.1041 -1.0615  0.0290
11372TIP3   OH234060   5.700   3.063   4.433  0.0474  0.2223  0.2509
11372TIP3    H134061   5.647   3.098   4.362 -0.4539 -0.7162  0.1451
11372TIP3    H234062   5.639   3.050   4.505  0.7413  2.2039  1.2864
11373TIP3   OH234063   1.689   6.862   2.808  0.3634  0.0600  0.2239
11373TIP3    H134064   1.751   6.823   2.870  1.1120  1.4523  0.3842
11373TIP3    H234065   1.696   6.956   2.823 -0.2952  0.3548 -1.1855
11374TIP3   OH234066   5.299   7.664   0.138 -0.1994 -0.0524 -0.4253
11374TIP3    H134067   5.288   7.571   0.157 -0.8315  0.3312  1.2378
11374TIP3    H234068   5.381   7.669   0.089  0.1082 -1.4279 -0.1002
11375TIP3   OH234069   0.075   6.161   1.216 -0.6240  0.2583  0.4774
11375TIP3    H134070  -0.007   6.197   1.183 -1.0229 -1.5015 -0.5600
11375TIP3    H234071   0.127   6.143   1.137 -0.0499 -0.5081  1.0226
11376TIP3   OH234072   3.212   0.873   1.942  0.1054  0.2690 -0.2243
11376TIP3    H134073   3.150   0.936   1.905  0.3171  0.2982 -0.5288
11376TIP3    H234074   3.297   0.917   1.937  0.5922 -0.8000 -2.3011
11377TIP3   OH234075   1.347   2.364   3.303  0.1368  0.1449  0.3402
11377TIP3    H134076   1.423   2.316   3.269  0.1798 -0.7698  1.6834
11377TIP3    H234077   1.332   2.328   3.390 -2.3424 -0.2611 -0.1833
11378TIP3   OH234078   5.253   6.649   3.336  0.4828 -0.0701  0.3269
11378TIP3    H134079   5.314   6.576   3.342  0.8932  0.1803 -0.7472
11378TIP3    H234080   5.194   6.636   3.411 -0.5980 -2.5481 -0.8189
11379TIP3   OH234081   5.261   7.262   4.896 -0.6700  0.6335  0.5246
11379TIP3    H134082   5.248   7.195   4.963  0.0409 -1.1005 -0.9620
11379TIP3    H234083   5.298   7.336   4.943 -0.4013 -0.4290  2.0822
11380TIP3   OH234084   1.042   2.064   4.714  0.4842 -0.1398  0.2092
11380TIP3    H134085   1.064   2.150   4.751 -0.4954  0.8167 -1.3428
11380TIP3    H234086   0.966   2.036   4.764 -0.8409  1.1499 -0.9955
11381TIP3   OH234087   6.580   7.426   2.810  0.3537 -0.1945 -0.0364
11381TIP3    H134088   6.641   7.403   2.740 -0.1302 -2.6905  0.2900
11381TIP3    H234089   6.631   7.416   2.891 -0.0621 -0.7461  0.1557
11382TIP3   OH234090   7.213   0.294   2.649 -0.2075 -0.3687  0.5730
11382TIP3    H134091   7.206   0.353   2.574 -2.0013 -0.1784  0.8517
11382TIP3    H234092   7.211   0.352   2.725 -2.7564 -0.7407  0.8821
11383TIP3   OH234093   3.124   2.401   0.459 -0.0572  0.5232 -0.0395
11383TIP3    H134094   3.125   2.368   0.369  1.8498  1.1111 -0.2767
11383TIP3    H234095   3.081   2.486   0.453 -0.3352  0.3638 -0.3227
11384TIP3   OH234096   1.694   7.848   5.719  0.0584 -0.1241  0.0201
11384TIP3    H134097   1.629   7.790   5.679 -0.4315  0.9579 -0.7820
11384TIP3    H234098   1.770   7.791   5.734  0.4516 -0.5154 -2.8674
11385TIP3   OH234099   2.094   1.877   6.708 -0.2502 -0.0922  0.1543
11385TIP3    H134100   2.125   1.791   6.681 -0.8277 -0.7561  1.5266
11385TIP3    H234101   2.007   1.884   6.668  0.4559  0.5805 -1.3365
11386TIP3   OH234102   0.287   0.291   4.122 -0.7915  0.5342 -0.1042
11386TIP3    H134103   0.242   0.226   4.175  0.7816 -0.4770  0.0594
11386TIP3    H234104   0.343   0.239   4.063  1.4280  1.7021  0.8500
11387TIP3   OH234105   5.773   5.155   6.079  0.7646  0.2403  0.1883
11387TIP3    H134106   5.708   5.104   6.128 -0.8294  1.4801 -0.5633
11387TIP3    H234107   5.781   5.237   6.127  2.3210 -0.1273  0.6348
11388TIP3   OH234108   5.909   6.451   1.109  0.6252 -0.0220  0.3124
11388TIP3    H134109   5.947   6.488   1.030  0.5129 -0.0739  0.2328
11388TIP3    H234110   5.925   6.357   1.102  0.1829 -0.0860  0.1119
11389TIP3   OH234111   2.772   5.089   1.408 -0.0866  0.0037 -0.0588
11389TIP3    H134112   2.758   5.055   1.496 -1.1997 -1.1430 -0.6416
11389TIP3    H234113   2.800   5.013   1.357 -0.7190  0.3586 -0.9677
11390TIP3   OH234114   5.191   3.039   3.137 -0.1848  0.3955 -0.3160
11390TIP3    H134115   5.271   2.989   3.150 -0.7531 -0.9868 -1.8240
11390TIP3    H234116   5.220   3.130   3.136  1.4113 -0.0844 -1.0374
11391TIP3   OH234117   2.641   7.262   4.382  0.4058  0.0976  0.5575
11391TIP3    H134118   2.645   7.206   4.305  1.0919  0.8068  0.0610
11391TIP3    H234119   2.584   7.334   4.356 -0.5104 -0.3775  1.2076
11392TIP3   OH234120   1.783   1.756   4.893 -0.3842  0.0088 -0.1852
11392TIP3    H134121   1.827   1.676   4.866  2.7790  1.4009  0.4453
11392TIP3    H234122   1.778   1.808   4.813  1.7022  0.9252  0.2276
11393TIP3   OH234123   3.098   5.327   1.257 -0.0305 -0.0612  0.1252
11393TIP3    H134124   3.154   5.397   1.291 -0.5989  0.5990 -0.2454
11393TIP3    H234125   3.123   5.250   1.307  0.8311  0.3341  0.3367
11394TIP3   OH234126   7.952   6.932   0.539  0.3154 -0.1334 -0.1770
11394TIP3    H134127   7.866   6.911   0.576  0.3273  0.3974  0.1639
11394TIP3    H234128   7.942   6.914   0.446  0.3326 -1.6452  0.0819
11395TIP3   OH234129   7.544   6.509   1.329 -0.5707 -0.1641  0.1718
11395TIP3    H134130   7.571   6.546   1.413 -0.6977  0.9907 -0.2703
11395TIP3    H234131   7.553   6.581   1.267 -1.9053 -0.5466 -0.5235
11396TIP3   OH234132   3.744   4.616   0.065  0.4590  0.0170 -0.0794
11396TIP3    H134133   3.754   4.523   0.084 -0.2001 -0.4907 -1.9610
11396TIP3    H234134   3.825   4.656   0.097  1.9635 -1.6269 -1.5665
11397TIP3   OH234135   2.590   5.119   4.129  0.4758  0.1776  0.5176
11397TIP3    H134136   2.577   5.171   4.209  1.7227 -1.8058  2.1097
11397TIP3    H234137   2.514   5.061   4.125 -0.4872  1.4554 -0.7918
11398TIP3   OH234138   1.531   5.578   5.940  0.2820 -0.1089  0.1022
11398TIP3    H134139   1.524   5.656   5.885  1.6198 -0.1322 -0.1348
11398TIP3    H234140   1.543   5.611   6.029  0.3108 -0.0509  0.0764
11399TIP3   OH234141   4.279   4.830   5.385  0.4976 -0.3832  0.6897
11399TIP3    H134142   4.340   4.824   5.311  0.3657  1.9545  0.3380
11399TIP3    H234143   4.248   4.740   5.396 -1.2431 -0.5955 -3.6511
11400TIP3   OH234144   0.759   6.077   1.627 -0.4849 -0.3830  0.4886
11400TIP3    H134145   0.690   6.101   1.565 -0.9222 -2.9288 -0.1417
11400TIP3    H234146   0.764   6.151   1.687 -1.2054  1.4650 -1.5814
11401TIP3   OH234147   3.662   3.941   1.552  0.6993 -0.3036 -0.5260
11401TIP3    H134148   3.644   3.847   1.558  1.2654 -0.3905  0.0651
11401TIP3    H234149   3.679   3.957   1.460  0.3251 -0.7321 -0.6705
11402TIP3   OH234150   6.554   6.740   2.988  0.1585 -0.1705  0.3394
11402TIP3    H134151   6.557   6.789   2.906  1.1885 -0.0568  0.4294
11402TIP3    H234152   6.498   6.665   2.970 -0.1578  0.2130 -0.2717
11403TIP3   OH234153   3.192   5.912   2.818 -0.2180  0.2664 -0.2720
11403TIP3    H134154   3.147   5.994   2.837 -0.5513  0.1322 -0.4722
11403TIP3    H234155   3.168   5.892   2.727  0.2573  0.2029 -0.3825
11404TIP3   OH234156   0.589   3.368   1.029  0.6068  1.0177 -0.1544
11404TIP3    H134157   0.587   3.315   0.950 -2.9724  1.8378 -0.8058
11404TIP3    H234158   0.561   3.308   1.099  1.4851  0.8638  0.0754
11405TIP3   OH234159   4.147   0.483   4.816  0.4513 -0.0341 -0.0899
11405TIP3    H134160   4.171   0.495   4.725  0.4758 -0.0423 -0.0842
11405TIP3    H234161   4.102   0.564   4.840  0.7056  0.0918 -0.0251
11406TIP3   OH234162   7.747   3.429   2.205  0.6376 -0.5535 -0.4481
11406TIP3    H134163   7.811   3.362   2.229  1.7979  1.1503  1.4918
11406TIP3    H234164   7.729   3.413   2.112  0.6363 -3.6761 -0.0114
11407TIP3   OH234165   6.425   1.585   3.056 -0.0036  0.4715  0.4610
11407TIP3    H134166   6.351   1.607   2.999  0.7783  2.2101  0.0225
11407TIP3    H234167   6.389   1.590   3.145 -0.3434  1.7897  0.2782
11408TIP3   OH234168   0.417   0.446   0.178  0.5116 -0.7735  0.2140
11408TIP3    H134169   0.458   0.491   0.251  1.7942 -1.2090 -0.2180
11408TIP3    H234170   0.423   0.353   0.201  0.7608 -0.9020 -0.3674
11409TIP3   OH234171   7.250   7.078   2.712 -0.0490  0.1416  0.1520
11409TIP3    H134172   7.309   7.026   2.765 -0.7377  0.7779  1.6050
11409TIP3    H234173   7.293   7.163   2.704 -0.0633  0.1258 -0.1078
11410TIP3   OH234174   5.302   0.098   3.187  0.5984  0.0097  0.1255
11410TIP3    H134175   5.329   0.190   3.180 -0.0970  0.3440  1.4678
11410TIP3    H234176   5.374   0.056   3.233  0.9880 -0.1671 -0.6291
11411TIP3   OH234177   3.539   6.172   2.105  0.2605 -0.4515 -0.6227
11411TIP3    H134178   3.602   6.142   2.039  1.4375  0.1813  0.1848
11411TIP3    H234179   3.457   6.126   2.082  0.8841 -0.9568 -1.9480
11412TIP3   OH234180   3.453   0.016   5.696 -0.5811  0.3600  0.3955
11412TIP3    H134181   3.437   0.102   5.736 -0.2820  0.9099 -0.6109
11412TIP3    H234182   3.449  -0.046   5.769 -0.5946  1.2528  1.1788
11413TIP3   OH234183   7.565   4.001   5.447  0.3014 -0.0100 -0.3000
11413TIP3    H134184   7.633   4.041   5.393  0.0350  1.7708  0.6100
11413TIP3    H234185   7.486   4.006   5.393  0.4602 -0.1853 -0.5537
11414TIP3   OH234186   2.612   4.395   0.798  0.3136 -0.5490  0.4904
11414TIP3    H134187   2.630   4.330   0.866 -0.0914 -1.1586  0.0301
11414TIP3    H234188   2.614   4.345   0.716  0.8405  0.1806  0.0472
11415TIP3   OH234189   1.224   4.264   1.738  0.2962  0.3595 -0.1505
11415TIP3    H134190   1.166   4.255   1.663 -2.6282 -0.3411  2.0125
11415TIP3    H234191   1.221   4.357   1.760 -0.2769  0.2780  0.1295
11416TIP3   OH234192   4.048   1.543   3.182 -0.4976 -0.1918  0.3045
11416TIP3    H134193   4.102   1.464   3.188 -2.0154 -1.1824  1.7232
11416TIP3    H234194   4.106   1.613   3.211  1.4963 -0.3555 -2.7650
11417TIP3   OH234195   1.009   3.176   5.588 -0.0251  0.2490 -0.2999
11417TIP3    H134196   1.068   3.250   5.570 -0.0113  0.3177  0.0113
11417TIP3    H234197   0.937   3.215   5.638  0.0350  0.0349 -0.0443
11418TIP3   OH234198   0.185   6.123   1.605  0.2669  0.5140 -0.1372
11418TIP3    H134199   0.138   6.166   1.677  0.2703 -0.2457  0.3328
11418TIP3    H234200   0.152   6.034   1.605  0.6983  0.3487 -0.7066
11419TIP3   OH234201   6.047   3.758   2.149 -0.1865 -1.0110 -0.5611
11419TIP3    H134202   6.032   3.747   2.056  1.0329 -0.0458 -0.8936
11419TIP3    H234203   5.972   3.715   2.191 -0.8095 -1.3402 -1.9710
11420TIP3   OH234204   5.773   5.391   6.454 -0.0480 -0.6692 -0.0991
11420TIP3    H134205   5.837   5.335   6.498  1.5135  0.3217 -1.0262
11420TIP3    H234206   5.812   5.410   6.369 -1.2556  0.5446 -0.4088
11421TIP3   OH234207   4.590   0.284   6.179 -0.0696 -0.4771  0.2866
11421TIP3    H134208   4.683   0.260   6.182  0.8436  2.6883  0.8317
11421TIP3    H234209   4.577   0.339   6.256 -2.5087 -1.1272  0.3979
11422TIP3   OH234210   3.924   2.552   3.586 -0.6836 -0.2299 -0.2160
11422TIP3    H134211   3.883   2.593   3.662 -2.5697 -2.1985 -0.0823
11422TIP3    H234212   4.004   2.511   3.621 -0.2382  0.9281  0.1723
11423TIP3   OH234213   4.445   1.721   5.115 -0.1432  0.2402  0.8198
11423TIP3    H134214   4.487   1.717   5.201  2.5698  0.4923 -0.3905
11423TIP3    H234215   4.400   1.637   5.106  0.4131 -0.2139  2.0707
11424TIP3   OH234216   0.296   4.871   4.372  0.2061  0.3821  0.1430
11424TIP3    H134217   0.251   4.819   4.438 -0.8983 -0.3130 -1.1357
11424TIP3    H234218   0.365   4.917   4.422  0.9878 -1.9635  1.3778
11425TIP3   OH234219   2.765   6.978   5.344  0.2563  0.1411  0.5512
11425TIP3    H134220   2.792   6.963   5.254  1.2592  0.0385  0.8610
11425TIP3    H234221   2.810   6.910   5.394 -0.1340  0.3186  1.1586
11426TIP3   OH234222   4.608   7.594   1.153  0.0413 -0.2309  0.2643
11426TIP3    H134223   4.650   7.516   1.189  0.7195 -0.1352 -0.2880
11426TIP3    H234224   4.565   7.564   1.073  1.2463  0.1421 -0.5619
11427TIP3   OH234225   4.739   0.042   2.885 -0.0110 -0.4350 -0.4262
11427TIP3    H134226   4.644   0.031   2.889  0.1144 -1.0936  1.5892
11427TIP3    H234227   4.752   0.136   2.880 -0.7561 -0.3571 -1.2040
11428TIP3   OH234228   4.696   6.696   0.187 -0.0681 -0.3415  0.4447
11428TIP3    H134229   4.684   6.655   0.273 -0.4047  0.1516  0.6392
11428TIP3    H234230   4.791   6.710   0.180  0.0828 -1.3647  0.2651
11429TIP3   OH234231   8.284   0.229   3.039  0.1499 -0.4571 -0.0388
11429TIP3    H134232   8.221   0.290   3.002  0.7221 -0.4536 -1.0292
11429TIP3    H234233   8.368   0.275   3.037  1.2880 -2.2711 -3.8356
11430TIP3   OH234234   5.218   2.396   0.109 -0.1318  0.4281 -0.1778
11430TIP3    H134235   5.310   2.393   0.133 -0.0861  0.8784 -0.2761
11430TIP3    H234236   5.172   2.411   0.192 -0.1119  0.2697 -0.1381
11431TIP3   OH234237   6.611   3.301   5.808  0.2735 -0.0590  0.3950
11431TIP3    H134238   6.564   3.274   5.728  0.0667  0.2285  0.4152
11431TIP3    H234239   6.666   3.375   5.779  1.1078 -0.7211  0.2588
11432TIP3   OH234240   1.587   7.670   1.965  0.1072  0.3096  0.3923
11432TIP3    H134241   1.606   7.581   1.935 -0.1129  0.5013 -0.3311
11432TIP3    H234242   1.519   7.659   2.031  0.2643 -0.0769  0.4954
11433TIP3   OH234243   4.009   1.337   1.838  0.3069  0.0502 -0.1853
11433TIP3    H134244   4.001   1.292   1.754  1.4240  0.1681 -0.3665
11433TIP3    H234245   3.924   1.325   1.879  0.3304 -1.6093 -0.5352
11434TIP3   OH234246   0.305   7.322   2.219 -0.4629 -0.3904 -0.3345
11434TIP3    H134247   0.277   7.411   2.237  1.6690  0.1359  0.7146
11434TIP3    H234248   0.374   7.305   2.283  1.0304 -1.8200 -2.1824
11435TIP3   OH234249   0.639   5.716   0.311 -0.0168  0.0677 -0.2384
11435TIP3    H134250   0.696   5.738   0.385  1.2303  1.3621 -1.5116
11435TIP3    H234251   0.567   5.778   0.317 -0.8830 -0.9912  0.8642
11436TIP3   OH234252   0.132   2.143   4.799  0.2537  0.0256 -0.0248
11436TIP3    H134253   0.069   2.175   4.734 -3.5102 -2.2833  2.0814
11436TIP3    H234254   0.154   2.054   4.770  0.2187 -0.2362  0.7111
11437TIP3   OH234255   7.430   4.630   2.509  0.0829 -0.8273 -0.4828
11437TIP3    H134256   7.489   4.697   2.475  0.0756  1.8558  3.9491
11437TIP3    H234257   7.486   4.554   2.524  2.3831  1.1731  2.2690
11438TIP3   OH234258   1.854   1.682   3.264 -0.2905 -0.3137  0.2315
11438TIP3    H134259   1.836   1.750   3.199 -0.8734 -2.5748 -2.1586
11438TIP3    H234260   1.800   1.706   3.339 -1.3036  1.2845 -0.9404
11439TIP3   OH234261   6.075   0.338   6.285  0.0947  0.5133  0.0218
11439TIP3    H134262   6.077   0.314   6.192 -2.2079  2.7767 -0.7227
11439TIP3    H234263   5.987   0.313   6.314 -0.0920  2.0368  0.8764
11440TIP3   OH234264   6.706   6.477   0.769 -0.1005  0.2127  0.1769
11440TIP3    H134265   6.664   6.398   0.733  1.3807 -0.3931 -0.3107
11440TIP3    H234266   6.638   6.517   0.824 -0.9447 -1.3233  0.3251
11441TIP3   OH234267   0.043   5.679   4.041 -0.0403 -0.3811  0.3124
11441TIP3    H134268   0.090   5.743   4.094  2.5875 -1.9355  0.0358
11441TIP3    H234269   0.052   5.711   3.951 -2.4018  0.9685  0.4600
11442TIP3   OH234270   1.293   7.259   5.256 -0.2675 -0.4394 -0.2054
11442TIP3    H134271   1.243   7.178   5.260 -0.4733 -0.4457 -1.9582
11442TIP3    H234272   1.243   7.321   5.310  0.0081 -1.4951  1.3189
11443TIP3   OH234273   6.352   2.443   0.557 -0.0551  0.1196  0.0019
11443TIP3    H134274   6.411   2.375   0.589  0.6210  0.2670 -0.8965
11443TIP3    H234275   6.282   2.447   0.622 -0.1701 -1.5223  0.0173
11444TIP3   OH234276   1.254   3.983   0.913 -0.4878  0.4436  0.4068
11444TIP3    H134277   1.334   3.968   0.862 -0.9274 -2.0758  0.3449
11444TIP3    H234278   1.285   3.989   1.004 -0.1720 -0.3137  0.3605
11445TIP3   OH234279   3.896   0.068   2.066  0.2687 -0.4426 -0.8393
11445TIP3    H134280   3.939   0.065   1.980  0.2172 -0.0590 -0.8825
11445TIP3    H234281   3.916   0.156   2.099 -1.1799  0.0717 -1.2318
11446TIP3   OH234282   2.811   4.578   0.029  0.1023  0.0817 -0.1623
11446TIP3    H134283   2.876   4.507   0.030  0.8720  0.7698 -0.1337
11446TIP3    H234284   2.751   4.554  -0.042  0.5669 -0.4096 -0.4041
11447TIP3   OH234285   3.385   3.916   3.401  0.6750 -0.5396  0.1877
11447TIP3    H134286   3.444   3.887   3.331  0.5908  1.8307 -0.9823
11447TIP3    H234287   3.443   3.957   3.465  0.6083 -1.3961  0.8093
11448TIP3   OH234288   5.798   6.471   1.428 -0.0265  0.1491  0.4241
11448TIP3    H134289   5.792   6.396   1.369  0.9280  1.8149 -1.9380
11448TIP3    H234290   5.719   6.466   1.481 -0.0018 -2.4746  0.3434
11449TIP3   OH234291   5.708   6.584   3.220 -0.5026  0.3539  0.7034
11449TIP3    H134292   5.748   6.557   3.137 -0.1397  1.8927  0.3540
11449TIP3    H234293   5.617   6.600   3.197 -0.5369  0.2199  0.7419
11450TIP3   OH234294   3.960   4.704   5.890  0.5734  0.5095 -0.0806
11450TIP3    H134295   3.921   4.640   5.949  3.1620 -0.6506  0.5102
11450TIP3    H234296   3.914   4.692   5.807 -1.9552  0.9780  1.1625
11451TIP3   OH234297   7.042   6.399   1.472 -0.0636 -0.2352  0.0641
11451TIP3    H134298   7.126   6.445   1.478  0.9470 -2.0414  0.7188
11451TIP3    H234299   7.038   6.366   1.382 -1.9832  3.1172 -1.2346
11452TIP3   OH234300   5.335   4.456   5.477 -0.2049 -0.4954  0.3300
11452TIP3    H134301   5.406   4.482   5.536  0.0145  0.0443 -0.1606
11452TIP3    H234302   5.344   4.515   5.402  1.3324 -3.0144 -1.5907
11453TIP3   OH234303   1.263   2.285   5.347  0.4492  0.0821  0.0711
11453TIP3    H134304   1.175   2.286   5.384 -0.2588  0.8802 -1.5497
11453TIP3    H234305   1.316   2.242   5.414 -0.7418  1.4574  1.9946
11454TIP3   OH234306   3.434   5.036   6.223 -0.4637  0.0587  0.3757
11454TIP3    H134307   3.488   5.096   6.274  0.8906 -1.2757  0.6013
11454TIP3    H234308   3.497   4.988   6.169 -1.4861 -1.1453  0.2013
11455TIP3   OH234309   6.666   2.682   5.941  0.0107  0.3630 -0.0940
11455TIP3    H134310   6.734   2.652   6.001 -0.8988  0.1040  0.8348
11455TIP3    H234311   6.597   2.715   5.998 -0.4222  1.1372 -1.0326
11456TIP3   OH234312   3.461   6.869   0.409 -0.2438 -0.5611  0.1118
11456TIP3    H134313   3.376   6.896   0.372  0.2629  0.7194 -0.1677
11456TIP3    H234314   3.443   6.855   0.502 -0.4924  1.1129  0.3517
11457TIP3   OH234315   0.544   5.503   0.452 -0.4185  0.3298 -0.1881
11457TIP3    H134316   0.461   5.546   0.470 -1.0287 -0.9357  0.1078
11457TIP3    H234317   0.588   5.561   0.389 -0.7354  1.9001  0.9923
11458TIP3   OH234318   1.695   7.716   2.609 -0.0866  0.4309 -0.3124
11458TIP3    H134319   1.601   7.726   2.595  0.0728 -0.7179 -2.8206
11458TIP3    H234320   1.729   7.805   2.606 -0.6743  0.6986 -4.0480
11459TIP3   OH234321   1.639   3.389   2.956 -0.4140  0.2201 -0.6082
11459TIP3    H134322   1.613   3.298   2.970 -0.3739  0.3384  0.3132
11459TIP3    H234323   1.653   3.396   2.862 -4.0686  0.2581 -1.2714
11460TIP3   OH234324   1.714   0.266   1.356 -0.2744  0.2757  0.5003
11460TIP3    H134325   1.785   0.319   1.320 -0.4538  1.0257  1.2168
11460TIP3    H234326   1.709   0.293   1.448 -0.1813 -1.1943  0.9637
11461TIP3   OH234327   8.183   6.959   1.621  0.3125 -0.3810  0.1598
11461TIP3    H134328   8.252   7.026   1.615 -0.0329  0.0323  0.7115
11461TIP3    H234329   8.162   6.939   1.530 -0.0059  0.7214 -0.0272
11462TIP3   OH234330   3.313   4.000   4.050  0.2196 -0.4563 -0.3129
11462TIP3    H134331   3.224   3.988   4.016  0.7312 -2.5914 -1.0101
11462TIP3    H234332   3.353   4.063   3.990 -0.5165 -0.1801 -0.5316
11463TIP3   OH234333   4.298   7.261   1.038  0.3765  0.5614  1.4921
11463TIP3    H134334   4.332   7.246   1.127 -1.5546  1.2684  2.4065
11463TIP3    H234335   4.203   7.266   1.049 -0.2374 -2.3192 -1.0590
11464TIP3   OH234336   5.147   4.014   3.371 -0.1621  0.1087  0.0718
11464TIP3    H134337   5.102   4.058   3.443 -1.7537 -0.7440 -0.3683
11464TIP3    H234338   5.092   4.029   3.295  0.9539  0.0956 -0.7683
11465TIP3   OH234339   0.085   2.695   3.969  0.2288 -0.0409  0.0608
11465TIP3    H134340   0.022   2.705   3.898  1.1198 -1.5776 -1.0067
11465TIP3    H234341   0.169   2.715   3.929  0.5461  1.1980  1.2655
11466TIP3   OH234342   4.522   2.624   0.244 -0.2109  0.1736 -0.6793
11466TIP3    H134343   4.454   2.599   0.181 -1.4915  0.5009  0.5261
11466TIP3    H234344   4.578   2.685   0.196 -1.3405  0.6707 -1.4126
11467TIP3   OH234345   3.866   1.079   5.237 -0.2528 -0.3172 -0.7013
11467TIP3    H134346   3.932   1.019   5.200  0.1665  0.0727 -0.5978
11467TIP3    H234347   3.871   1.156   5.181  0.5731  0.3890  0.3111
11468TIP3   OH234348   6.828   3.573   1.947 -0.2884  0.1315 -0.3732
11468TIP3    H134349   6.808   3.659   1.909 -0.6182 -0.1756 -0.9117
11468TIP3    H234350   6.744   3.541   1.979 -0.3873 -0.4860 -1.2169
11469TIP3   OH234351   5.061   4.824   4.932  0.3973 -0.1991  0.3483
11469TIP3    H134352   5.146   4.780   4.932  0.7312  0.4265  1.4629
11469TIP3    H234353   5.020   4.797   5.014  0.0328  0.4698  0.3873
11470TIP3   OH234354   5.391   0.600   6.322 -0.0214  0.4883 -0.6683
11470TIP3    H134355   5.461   0.662   6.340 -0.6281  1.2289 -0.8212
11470TIP3    H234356   5.409   0.568   6.234  1.8395 -1.6657  0.3641
11471TIP3   OH234357   2.289   5.601   0.869 -0.0900  0.9792  0.3624
11471TIP3    H134358   2.208   5.623   0.823 -0.3904  1.3191  1.0407
11471TIP3    H234359   2.261   5.548   0.943  0.4130  0.2432  0.0399
11472TIP3   OH234360   4.975   0.258   4.964 -0.2788 -0.4044  0.0642
11472TIP3    H134361   5.019   0.273   4.881  1.2818 -1.9696  0.5587
11472TIP3    H234362   4.957   0.165   4.966  0.4170 -0.5460  1.7888
11473TIP3   OH234363   7.043   4.931   5.448  0.1881 -0.3385  0.1947
11473TIP3    H134364   7.102   4.986   5.396  0.9024 -1.9686 -0.8021
11473TIP3    H234365   6.960   4.934   5.401  0.5898 -1.1186 -0.5874
11474TIP3   OH234366   7.710   4.878   4.351  0.2503  0.0844 -0.5624
11474TIP3    H134367   7.725   4.971   4.330  2.9196 -0.5128 -1.7218
11474TIP3    H234368   7.690   4.838   4.267 -0.2494 -0.5256 -0.1605
11475TIP3   OH234369   4.549   3.735   4.341  0.7267  0.3922  0.4307
11475TIP3    H134370   4.477   3.671   4.339 -1.0132  2.2593 -0.4779
11475TIP3    H234371   4.628   3.682   4.334 -0.5508 -1.7404  1.0423
11476TIP3   OH234372   8.268   0.670   6.151  0.1066  0.2494 -0.1238
11476TIP3    H134373   8.191   0.666   6.209 -0.3875  1.4808 -0.6797
11476TIP3    H234374   8.287   0.763   6.142  1.7377 -0.0353  0.0677
11477TIP3   OH234375   2.248   5.916   2.123 -0.2850  0.4544  0.0444
11477TIP3    H134376   2.265   5.911   2.217 -1.8171 -1.8182  0.2771
11477TIP3    H234377   2.334   5.908   2.083  0.1322 -2.0883  1.2491
11478TIP3   OH234378   8.192   0.616   0.600 -0.0076  0.2066 -0.0625
11478TIP3    H134379   8.140   0.694   0.580 -0.7323 -0.1708  0.3289
11478TIP3    H234380   8.238   0.596   0.518 -2.7850 -1.2259 -1.3958
11479TIP3   OH234381   6.871   0.364   2.451 -0.1671 -0.7990  0.2842
11479TIP3    H134382   6.868   0.386   2.544 -1.4715 -0.1439  0.0994
11479TIP3    H234383   6.960   0.388   2.424  0.3337 -1.2872  1.4160
11480TIP3   OH234384   7.519   3.220   1.472  0.1552  0.3626  0.1798
11480TIP3    H134385   7.525   3.310   1.505  2.3116  0.3240  0.0561
11480TIP3    H234386   7.495   3.230   1.380  0.1940  0.8173  0.2132
11481TIP3   OH234387   5.800   3.737   2.536  0.0944  0.3218  0.5538
11481TIP3    H134388   5.862   3.808   2.518 -0.3244  0.8333  1.1056
11481TIP3    H234389   5.838   3.690   2.611  1.0955 -0.9278 -0.6618
11482TIP3   OH234390   0.064   2.000   5.275  0.1971  0.1405  0.4755
11482TIP3    H134391  -0.030   1.990   5.288  0.3771 -0.1509  1.6648
11482TIP3    H234392   0.083   1.945   5.199 -0.4999 -0.2792  0.5910
11483TIP3   OH234393   2.275   2.150   4.749 -0.0786 -0.1930  0.6267
11483TIP3    H134394   2.206   2.189   4.803  0.3908  0.0361  1.0707
11483TIP3    H234395   2.349   2.140   4.809  0.5902  0.4410 -0.0829
11484TIP3   OH234396   3.148   7.709   2.922  0.0538 -0.2519 -0.3221
11484TIP3    H134397   3.184   7.792   2.954 -1.1751  0.3267 -0.3720
11484TIP3    H234398   3.118   7.665   3.002 -0.1923 -0.1975 -0.3836
11485TIP3   OH234399   8.246   4.600   5.148  0.6646 -0.0758  0.2597
11485TIP3    H134400   8.340   4.608   5.136  0.7100  2.0914  1.4148
11485TIP3    H234401   8.214   4.691   5.144 -1.4571 -0.8002 -0.6374
11486TIP3   OH234402   3.895   6.418   0.953  0.2144  0.0358 -0.0765
11486TIP3    H134403   3.928   6.474   0.883 -0.7174 -0.2749 -0.7843
11486TIP3    H234404   3.924   6.330   0.930 -1.0044 -0.2362 -0.6863
11487TIP3   OH234405   7.659   4.670   1.712  0.0476 -0.0135 -0.4396
11487TIP3    H134406   7.715   4.615   1.766 -1.9761  0.4928  2.3829
11487TIP3    H234407   7.581   4.617   1.696  0.8139 -0.3978 -3.5835
11488TIP3   OH234408   2.842   6.929   2.813  0.0543  0.9505 -0.3508
11488TIP3    H134409   2.902   7.001   2.793 -0.0803  2.1282  2.9113
11488TIP3    H234410   2.762   6.972   2.843 -1.0048 -0.5970 -0.8615
11489TIP3   OH234411   2.813   5.231   3.249 -0.3289  0.5954  0.1876
11489TIP3    H134412   2.863   5.303   3.208 -0.7945  0.7593 -0.0960
11489TIP3    H234413   2.782   5.179   3.175  0.8206 -0.4611  0.4214
11490TIP3   OH234414   2.791   5.628   2.439  0.4745 -0.1152  0.7816
11490TIP3    H134415   2.816   5.716   2.413  2.5287 -0.6848  0.6568
11490TIP3    H234416   2.759   5.587   2.359 -0.1353  0.3736  0.7629
11491TIP3   OH234417   8.203   3.849   2.518  0.1202 -0.4815  0.0675
11491TIP3    H134418   8.298   3.859   2.512  0.2486 -0.8908  1.3424
11491TIP3    H234419   8.184   3.848   2.611 -1.5050  2.9726 -0.0693
11492TIP3   OH234420   4.754   1.134   6.070 -0.8757  0.1401  0.4442
11492TIP3    H134421   4.732   1.060   6.127 -1.5681  0.4392  0.5805
11492TIP3    H234422   4.691   1.202   6.094  0.8235  1.4273  1.5752
11493TIP3   OH234423   3.734   5.304   4.952 -0.3428  0.3456 -0.4244
11493TIP3    H134424   3.640   5.288   4.963 -0.1801  0.9943  3.3949
11493TIP3    H234425   3.774   5.217   4.959 -0.5911  0.0005 -2.5841
11494TIP3   OH234426   6.796   5.244   2.393  0.7873  0.2662 -0.1420
11494TIP3    H134427   6.717   5.293   2.415  1.0279  0.3880  0.4746
11494TIP3    H234428   6.771   5.153   2.403  0.2909  0.2481 -1.4523
11495TIP3   OH234429   1.915   5.992   5.788  0.0069  0.0842 -0.5590
11495TIP3    H134430   1.916   5.919   5.725 -0.0761 -0.2391 -0.1896
11495TIP3    H234431   1.942   5.953   5.871 -0.6476  0.3344 -0.2163
11496TIP3   OH234432   0.795   2.414   2.438  0.1274 -0.0417 -0.5669
11496TIP3    H134433   0.822   2.375   2.521 -0.2227 -2.4585 -1.5151
11496TIP3    H234434   0.845   2.496   2.433  0.9578 -0.3475  1.5061
11497TIP3   OH234435   3.697   6.726   1.158 -0.5030 -0.1215  0.5414
11497TIP3    H134436   3.771   6.731   1.218  1.8625 -1.9669 -1.9167
11497TIP3    H234437   3.669   6.634   1.161 -0.4434 -0.2193 -0.9686
11498TIP3   OH234438   1.706   1.004   2.527  0.5756 -0.3150  0.2012
11498TIP3    H134439   1.675   1.056   2.453  0.5229  2.0559  1.7573
11498TIP3    H234440   1.626   0.977   2.572  0.6019 -1.8815 -0.6400
11499TIP3   OH234441   4.562   6.778   4.392 -0.1356  0.0712  0.0931
11499TIP3    H134442   4.613   6.839   4.446 -0.1058  0.0806  0.0544
11499TIP3    H234443   4.557   6.698   4.445 -0.9486  0.4098  0.5401
11500TIP3   OH234444   7.264   5.812   6.679 -0.1798  0.0385 -0.7368
11500TIP3    H134445   7.289   5.748   6.745  1.8868  1.0605 -0.4279
11500TIP3    H234446   7.220   5.882   6.727  0.7797  0.4966 -0.5003
11501TIP3   OH234447   6.815   4.695   4.478 -0.2409 -0.0674 -0.0560
11501TIP3    H134448   6.832   4.611   4.519  1.5738  0.5988  0.6523
11501TIP3    H234449   6.885   4.752   4.509 -0.8530  1.4454 -1.2902
11502TIP3   OH234450   6.584   6.754   5.999 -0.3824 -0.4436 -0.4499
11502TIP3    H134451   6.585   6.675   6.053 -0.3478 -0.1351  0.0030
11502TIP3    H234452   6.623   6.822   6.054  0.8226 -0.4087 -1.3023
11503TIP3   OH234453   6.988   1.280   6.415  0.4864 -0.2168 -0.4916
11503TIP3    H134454   7.052   1.347   6.392 -0.1042  0.6722  0.3971
11503TIP3    H234455   6.973   1.232   6.333  0.1255  1.4134 -1.4194
11504TIP3   OH234456   2.344   1.260   4.990 -0.3272  0.5652  0.4566
11504TIP3    H134457   2.309   1.304   4.913 -1.6064  0.2316  0.8314
11504TIP3    H234458   2.390   1.329   5.039  2.7589  0.3269 -1.7971
11505TIP3   OH234459   7.810   7.627   4.940  0.5777  0.4760  0.0801
11505TIP3    H134460   7.808   7.671   5.025 -1.4827 -0.1597  0.4147
11505TIP3    H234461   7.778   7.539   4.958 -1.0459  0.6751 -1.5304
11506TIP3   OH234462   3.997   2.882   4.917 -0.3379 -0.4307 -0.4098
11506TIP3    H134463   3.964   2.956   4.866 -0.8683 -0.5754 -0.2799
11506TIP3    H234464   3.918   2.839   4.950 -0.0180 -0.8139 -0.1458
11507TIP3   OH234465   4.034   2.813   4.482 -0.1198 -0.0730 -0.0991
11507TIP3    H134466   4.004   2.753   4.550 -2.5766 -2.6816 -3.1917
11507TIP3    H234467   4.105   2.767   4.438  0.5687  1.0162 -0.1799
11508TIP3   OH234468   2.831   6.272   3.371 -0.1880 -0.7809  0.8366
11508TIP3    H134469   2.759   6.272   3.308  0.2428  0.9434  0.2881
11508TIP3    H234470   2.907   6.242   3.321  0.1852  0.7263  0.4514
11509TIP3   OH234471   2.040   6.309   3.547 -0.0372  0.0355 -0.0860
11509TIP3    H134472   2.058   6.340   3.458  1.5398  1.2767  0.6105
11509TIP3    H234473   1.982   6.375   3.585 -4.3637 -2.5979 -1.4359
11510TIP3   OH234474   4.378   2.073   4.285  0.2753 -0.6113  0.7402
11510TIP3    H134475   4.310   2.135   4.310 -0.1836 -1.6559  2.1760
11510TIP3    H234476   4.446   2.084   4.351  2.3956  1.5863 -1.5370
11511TIP3   OH234477   6.850   3.663   4.284 -0.2336 -0.1246  0.1478
11511TIP3    H134478   6.936   3.633   4.257  0.8400  0.2941  2.8152
11511TIP3    H234479   6.815   3.592   4.339 -0.0392  1.0902  1.9365
11512TIP3   OH234480   2.001   7.803   4.005 -0.0936  0.1753  0.0367
11512TIP3    H134481   1.972   7.728   4.057  1.4484  0.2339  1.0728
11512TIP3    H234482   1.995   7.774   3.915  0.2130 -1.1218  0.4112
11513TIP3   OH234483   6.617   3.074   3.358  0.1231 -0.5472 -0.6558
11513TIP3    H134484   6.683   3.142   3.365 -0.0798 -0.3764 -0.3737
11513TIP3    H234485   6.548   3.112   3.303  0.1990 -0.6761 -0.8406
11514TIP3   OH234486   3.877   6.230   6.675  0.1343 -0.4313 -1.2294
11514TIP3    H134487   3.906   6.156   6.729  0.0660  0.0684 -0.5062
11514TIP3    H234488   3.790   6.252   6.708  1.5553  2.3327  1.1143
11515TIP3   OH234489   7.310   0.692   3.659 -0.1514  0.8135 -0.4558
11515TIP3    H134490   7.331   0.661   3.570 -0.7384 -3.9739  0.8073
11515TIP3    H234491   7.215   0.687   3.665 -0.0745  0.4023  0.6384
11516TIP3   OH234492   3.926   0.435   2.969  0.0836  0.3642 -0.4937
11516TIP3    H134493   3.832   0.452   2.978 -0.0605 -1.0080  0.9290
11516TIP3    H234494   3.967   0.513   3.008 -0.4399  1.0108 -1.1931
11517TIP3   OH234495   8.150   5.671   1.464 -0.6089  0.0058 -0.8090
11517TIP3    H134496   8.232   5.632   1.435 -0.2301  1.2145 -1.4504
11517TIP3    H234497   8.173   5.715   1.547 -0.3290  1.1944 -1.4878
11518TIP3   OH234498   0.351   0.447   2.230 -0.3868  0.5908  0.1939
11518TIP3    H134499   0.359   0.540   2.211  1.4794  0.1937 -1.2502
11518TIP3    H234500   0.315   0.409   2.150 -0.6036  0.0078  0.5662
11519TIP3   OH234501   4.987   1.645   2.196 -0.2044 -0.0029  0.2830
11519TIP3    H134502   5.053   1.638   2.265 -1.1735  0.0918  1.2404
11519TIP3    H234503   5.029   1.699   2.129  1.7349 -2.2159 -0.4266
11520TIP3   OH234504   4.636   1.149   5.052 -0.2849  0.5444 -0.3004
11520TIP3    H134505   4.545   1.121   5.054 -0.5750  1.4692  0.0042
11520TIP3    H234506   4.644   1.210   5.125  0.0246  2.0670 -1.5542
11521TIP3   OH234507   8.006   0.989   4.604 -0.0632 -0.5092 -0.0813
11521TIP3    H134508   8.006   0.957   4.694  1.6191  0.1847  0.2216
11521TIP3    H234509   7.914   1.006   4.583 -0.5304 -1.2595  1.2858
11522TIP3   OH234510   4.762   2.683   4.861 -0.5173 -0.0139 -0.4674
11522TIP3    H134511   4.683   2.636   4.837 -1.3091  0.1740  1.5685
11522TIP3    H234512   4.756   2.766   4.814 -1.1822 -0.2794 -0.8631
11523TIP3   OH234513   5.035   0.162   4.313  0.0725  0.2717  0.3172
11523TIP3    H134514   5.118   0.209   4.305 -0.3160  1.2918  1.8523
11523TIP3    H234515   4.990   0.177   4.230 -0.1605  2.8938  0.8376
11524TIP3   OH234516   2.627   2.645   3.858 -0.0174 -0.9672 -0.4962
11524TIP3    H134517   2.547   2.594   3.844  0.2685 -1.2648 -1.0897
11524TIP3    H234518   2.677   2.593   3.921 -0.8466 -0.1407  0.9006
11525TIP3   OH234519   4.249   4.980   0.719  0.0470  0.8696  0.2502
11525TIP3    H134520   4.277   4.971   0.628 -1.0474  1.4259 -0.1570
11525TIP3    H234521   4.321   5.025   0.762  0.4328  0.8916 -0.4137
11526TIP3   OH234522   5.863   2.695   0.445  0.4463  0.3976 -0.4272
11526TIP3    H134523   5.933   2.664   0.387  0.4327 -0.1374 -0.1571
11526TIP3    H234524   5.782   2.661   0.407  0.2965  1.2005 -0.8641
11527TIP3   OH234525   2.929   0.104   3.433  0.0027  0.3748  0.1777
11527TIP3    H134526   2.892   0.171   3.375  1.4939 -0.1176 -1.4055
11527TIP3    H234527   3.023   0.117   3.428  0.2652 -1.1592  0.6959
11528TIP3   OH234528   8.079   3.879   1.483 -0.1856 -0.2095  0.1957
11528TIP3    H134529   8.097   3.925   1.565 -0.3185 -1.0763  0.7275
11528TIP3    H234530   8.164   3.846   1.454 -0.3121 -0.9362  0.6311
11529TIP3   OH234531   3.702   0.154   6.590 -0.1122 -0.0006 -0.2891
11529TIP3    H134532   3.622   0.197   6.619 -0.3837  1.3312 -2.6828
11529TIP3    H234533   3.722   0.196   6.506  0.7233 -3.2301 -1.8478
11530TIP3   OH234534   6.408   2.553   1.163  0.3389 -0.4739 -0.2136
11530TIP3    H134535   6.421   2.459   1.151 -0.3118 -0.5055 -0.6741
11530TIP3    H234536   6.325   2.572   1.120 -0.8820 -0.1603  2.1231
11531TIP3   OH234537   3.891   0.951   1.580  0.4362  0.1369 -0.9348
11531TIP3    H134538   3.845   0.977   1.500 -2.1697 -2.1703 -0.3130
11531TIP3    H234539   3.917   0.860   1.564  1.0458  0.0571  0.3865
11532TIP3   OH234540   3.374   7.580   1.778  0.6270 -0.0937 -0.1663
11532TIP3    H134541   3.459   7.552   1.812  0.0636 -1.7297 -0.0253
11532TIP3    H234542   3.383   7.674   1.765  2.4814 -0.2506 -0.2292
11533TIP3   OH234543   4.893   6.257   0.867  0.2103  0.2677  0.8142
11533TIP3    H134544   4.988   6.243   0.867  0.2943  0.4238 -1.2880
11533TIP3    H234545   4.856   6.171   0.883  0.6508  0.4612  3.2476
11534TIP3   OH234546   7.496   3.947   5.021  0.0092 -0.1978  0.3485
11534TIP3    H134547   7.436   3.907   4.958 -0.6971 -0.8531  1.4169
11534TIP3    H234548   7.440   4.005   5.073  0.3605 -0.5798  1.1565
11535TIP3   OH234549   4.465   7.286   1.656  0.1003 -0.2486 -0.1462
11535TIP3    H134550   4.502   7.213   1.608  0.2927 -1.0822  1.2025
11535TIP3    H234551   4.541   7.334   1.690 -0.0258 -0.4071  0.3748
11536TIP3   OH234552   5.676   4.923   3.182 -0.0194 -0.4089  0.3419
11536TIP3    H134553   5.614   4.859   3.218  0.2411 -1.2231 -0.6044
11536TIP3    H234554   5.663   4.917   3.087  0.3407  0.6117  0.2242
11537TIP3   OH234555   1.092   0.217   3.747 -0.5010 -0.3937  0.0559
11537TIP3    H134556   1.137   0.175   3.673 -0.3054 -0.5285  0.2525
11537TIP3    H234557   1.122   0.169   3.824 -1.4714 -0.9052  0.1275
11538TIP3   OH234558   7.160   4.382   6.294  0.2509 -0.1907 -0.6905
11538TIP3    H134559   7.108   4.459   6.317 -1.6581 -1.6536  0.2810
11538TIP3    H234560   7.236   4.386   6.351 -1.3739 -0.5422  1.6544
11539TIP3   OH234561   7.953   2.113   1.957  0.8193  0.5590 -0.5069
11539TIP3    H134562   8.027   2.129   2.016  1.4549  0.5564 -1.2957
11539TIP3    H234563   7.876   2.134   2.010  1.4423  2.0954 -0.1559
11540TIP3   OH234564   6.105   5.539   3.469  0.1499  0.0742  0.1477
11540TIP3    H134565   6.102   5.625   3.510  1.5516  1.1492 -1.8011
11540TIP3    H234566   6.197   5.511   3.477  0.3949  0.1553 -1.7376
11541TIP3   OH234567   7.141   0.382   1.484 -0.4882 -0.5719 -0.1761
11541TIP3    H134568   7.101   0.333   1.556  0.0721 -1.7007 -0.6135
11541TIP3    H234569   7.222   0.417   1.520 -0.2691 -1.0314 -0.2203
11542TIP3   OH234570   1.354   7.063   2.851  0.1924 -0.4418 -0.2162
11542TIP3    H134571   1.383   6.978   2.819  1.4687  0.3244 -1.1873
11542TIP3    H234572   1.316   7.045   2.937 -1.7007 -2.3240 -1.3513
11543TIP3   OH234573   7.701   0.577   5.422  0.0203  0.2352  0.0693
11543TIP3    H134574   7.664   0.533   5.345  0.3673 -0.6998  0.4255
11543TIP3    H234575   7.748   0.652   5.386 -1.0649  0.6700 -0.5023
11544TIP3   OH234576   2.372   0.935   3.080  0.2467  0.7263 -0.0705
11544TIP3    H134577   2.360   0.983   2.998  1.4154  1.0098 -0.0905
11544TIP3    H234578   2.361   0.843   3.055 -0.7948  0.8887 -0.2608
11545TIP3   OH234579   6.092   4.056   5.661  0.0243 -1.0676 -0.1864
11545TIP3    H134580   6.167   4.058   5.722 -0.6668 -1.4755  0.7002
11545TIP3    H234581   6.015   4.059   5.718 -0.6422 -0.8418 -1.0810
11546TIP3   OH234582   2.131   4.944   0.416 -0.6449 -0.2368  0.0099
11546TIP3    H134583   2.052   4.909   0.457  0.0149 -0.2125  1.3559
11546TIP3    H234584   2.140   5.032   0.453  0.1838 -0.3665  0.1401
11547TIP3   OH234585   1.618   2.214   3.323  0.3833  0.1430 -0.3818
11547TIP3    H134586   1.610   2.221   3.419 -2.5880  1.8133 -0.6305
11547TIP3    H234587   1.584   2.126   3.303 -0.6654  0.4384  0.0148
11548TIP3   OH234588   3.257   5.262   0.299  0.3090 -0.6917 -0.1739
11548TIP3    H134589   3.193   5.329   0.275  1.5010 -0.2299 -2.2335
11548TIP3    H234590   3.327   5.309   0.342  0.6087 -0.7791 -0.5639
11549TIP3   OH234591   7.423   4.385   5.346  0.4434 -0.1199  0.1639
11549TIP3    H134592   7.376   4.465   5.371  0.7077  0.4699 -1.1125
11549TIP3    H234593   7.513   4.414   5.333  0.4493 -0.5079 -0.7614
11550TIP3   OH234594   1.557   0.429   0.445 -0.4397 -0.4976  0.0346
11550TIP3    H134595   1.613   0.393   0.377  1.3559  1.6767  0.2399
11550TIP3    H234596   1.591   0.518   0.460 -2.9573  0.3601  1.3155
11551TIP3   OH234597   5.541   0.373   2.714  0.1110 -0.1690  0.5669
11551TIP3    H134598   5.518   0.445   2.773 -1.2810  0.5725 -0.8142
11551TIP3    H234599   5.482   0.302   2.738 -0.2792  0.0442  0.2469
11552TIP3   OH234600   3.148   0.300   0.606 -0.3575  0.1900  0.2765
11552TIP3    H134601   3.180   0.244   0.677  0.2307  0.2419  0.0532
11552TIP3    H234602   3.119   0.238   0.538 -0.1582  0.1469  0.2291
11553TIP3   OH234603   2.677   1.395   1.227  0.2392  0.2872  0.1457
11553TIP3    H134604   2.748   1.458   1.215  2.1641 -1.7505  0.1398
11553TIP3    H234605   2.663   1.359   1.139  0.5106 -0.6240  0.4655
11554TIP3   OH234606   7.002   0.942   2.625  0.4664 -0.2068  0.0326
11554TIP3    H134607   7.049   0.975   2.701  0.0048 -0.1132  0.2783
11554TIP3    H234608   6.949   1.017   2.596  0.1991 -0.4192 -0.0280
11555TIP3   OH234609   0.747   2.094   2.611 -0.4236  0.3965  0.2713
11555TIP3    H134610   0.802   2.157   2.658 -1.1770  0.8713  0.5282
11555TIP3    H234611   0.803   2.062   2.540  0.4325  0.3239  0.9597
11556TIP3   OH234612   3.800   0.888   1.301  0.0840  1.1071  1.0543
11556TIP3    H134613   3.746   0.967   1.297 -0.4222  0.7357 -0.2211
11556TIP3    H234614   3.738   0.819   1.327 -0.6282  0.3124 -2.2378
11557TIP3   OH234615   6.705   1.899   4.115 -0.0673 -0.0340  0.2545
11557TIP3    H134616   6.610   1.890   4.117  0.0615 -1.5416  1.7458
11557TIP3    H234617   6.727   1.943   4.197  0.6214 -1.3704  0.8220
11558TIP3   OH234618   2.942   0.129   4.340  0.0723  0.0614  0.1551
11558TIP3    H134619   3.018   0.122   4.397 -0.4459  0.4511  0.9070
11558TIP3    H234620   2.960   0.068   4.269  0.7777 -0.3460  0.6696
11559TIP3   OH234621   0.187   2.292   5.227  0.0522  0.2500 -0.7341
11559TIP3    H134622   0.136   2.290   5.308 -0.1650  0.9329 -0.8504
11559TIP3    H234623   0.251   2.221   5.238  0.4171  0.7175  0.2954
11560TIP3   OH234624   2.351   1.359   6.007  0.3758 -0.2052 -0.1315
11560TIP3    H134625   2.421   1.346   6.071  0.0873  0.0359  0.2448
11560TIP3    H234626   2.301   1.277   6.010 -0.3660  0.2634  0.8803
11561TIP3   OH234627   2.149   1.250   3.017 -0.1435 -0.5009 -0.4974
11561TIP3    H134628   2.119   1.159   3.019  1.9053 -1.2087 -0.0828
11561TIP3    H234629   2.169   1.271   3.108  0.2973  0.0528 -0.7180
11562TIP3   OH234630   2.860   7.745   3.989  0.3851 -0.1989  0.2978
11562TIP3    H134631   2.807   7.732   3.910  1.9235  0.3041 -0.8691
11562TIP3    H234632   2.813   7.697   4.057 -0.8857 -0.8378 -0.9627
11563TIP3   OH234633   1.563   5.251   3.524 -0.5116  0.5785 -0.3981
11563TIP3    H134634   1.582   5.160   3.548 -2.1652  0.2051 -0.3835
11563TIP3    H234635   1.628   5.303   3.572 -0.0394 -0.5346  0.2030
11564TIP3   OH234636   7.245   5.445   2.180  0.2581  0.3556  0.5974
11564TIP3    H134637   7.225   5.502   2.255  0.5615 -1.1037  1.8371
11564TIP3    H234638   7.174   5.381   2.179  0.4644  0.1327 -0.1433
11565TIP3   OH234639   7.026   2.104   5.606 -0.4475  0.1603  0.4702
11565TIP3    H134640   6.990   2.056   5.532  0.0162 -1.0887  1.0293
11565TIP3    H234641   6.961   2.094   5.675 -1.3747  2.1886 -0.0232
11566TIP3   OH234642   2.180   7.526   6.522 -0.0437  0.3837  0.0524
11566TIP3    H134643   2.090   7.504   6.549 -0.3081  1.2624 -0.0708
11566TIP3    H234644   2.235   7.493   6.593 -0.3319 -1.2940 -0.4506
11567TIP3   OH234645   0.727   1.026   2.069  0.0649  0.3881 -0.5701
11567TIP3    H134646   0.784   0.950   2.055 -0.0530  0.1706  0.0847
11567TIP3    H234647   0.784   1.102   2.056  0.8124  0.1694  1.2250
11568TIP3   OH234648   2.729   0.005   6.607  0.0822 -0.1523 -0.2430
11568TIP3    H134649   2.742  -0.004   6.701  0.7765 -4.0923 -0.5228
11568TIP3    H234650   2.792   0.072   6.580  3.2263 -2.0932  1.6087
11569TIP3   OH234651   6.154   7.718   0.134 -0.2763 -0.1183  0.2227
11569TIP3    H134652   6.211   7.769   0.192 -0.1315  1.2466 -1.0605
11569TIP3    H234653   6.214   7.668   0.079 -0.3890 -0.4399  0.3873
11570TIP3   OH234654   8.210   4.322   4.179  0.2722  0.1363 -0.6332
11570TIP3    H134655   8.276   4.254   4.165 -0.0203 -0.2126 -0.3566
11570TIP3    H234656   8.250   4.381   4.243  0.8726  0.7108 -1.5313
11571TIP3   OH234657   3.688   1.668   6.149 -0.0672  0.7052  0.1491
11571TIP3    H134658   3.629   1.651   6.223 -2.0203 -1.1027 -1.6604
11571TIP3    H234659   3.634   1.717   6.087  1.1708  1.2135 -0.5638
11572TIP3   OH234660   2.657   4.345   3.587 -0.4829 -0.5325 -0.0463
11572TIP3    H134661   2.720   4.279   3.616 -1.3020 -0.6899  1.4644
11572TIP3    H234662   2.571   4.306   3.607 -1.0465  0.0501 -1.2367
11573TIP3   OH234663   0.261   3.550   2.334 -0.1579  0.0973  0.3451
11573TIP3    H134664   0.324   3.504   2.279 -0.1319  0.7402 -0.1787
11573TIP3    H234665   0.248   3.493   2.410  0.5460 -0.3468  0.1371
11574TIP3   OH234666   3.329   1.119   0.039 -0.5792  0.0328 -0.5496
11574TIP3    H134667   3.343   1.031   0.075  0.7220  0.1244 -0.7684
11574TIP3    H234668   3.240   1.142   0.066 -0.0382 -0.3183  1.7656
11575TIP3   OH234669   1.860   7.691   0.885  0.4247  0.0786  0.6347
11575TIP3    H134670   1.794   7.625   0.865 -1.6390  2.1632  0.0650
11575TIP3    H234671   1.890   7.669   0.973 -0.8775 -1.0873  0.8275
11576TIP3   OH234672   5.304   1.855   3.331  0.1697 -0.3668  0.1155
11576TIP3    H134673   5.238   1.827   3.268 -0.0414 -0.6368  0.4509
11576TIP3    H234674   5.385   1.812   3.302 -0.5949 -3.3275  1.9273
11577TIP3   OH234675   0.700   6.036   6.774  0.0703 -0.3803  0.0430
11577TIP3    H134676   0.666   5.970   6.714 -1.2895  0.6764 -0.4017
11577TIP3    H234677   0.784   6.062   6.736  0.5499 -1.7159  0.1453
11578TIP3   OH234678   3.779   6.981   1.054  0.1272 -0.0629 -0.0949
11578TIP3    H134679   3.720   6.905   1.061  0.2399 -0.1411  0.0001
11578TIP3    H234680   3.855   6.957   1.107  0.4880 -0.1932 -0.6556
11579TIP3   OH234681   1.380   4.459   3.836 -0.1593  0.0329  0.5412
11579TIP3    H134682   1.361   4.546   3.800 -1.0937  0.0165  0.9771
11579TIP3    H234683   1.355   4.465   3.928 -1.1129 -0.9621  0.3675
11580TIP3   OH234684   3.505   6.061   2.738  0.4045 -0.1311 -0.1256
11580TIP3    H134685   3.449   6.045   2.814  0.8919 -0.6755  0.1169
11580TIP3    H234686   3.531   6.153   2.747 -0.8340  0.2941 -0.5059
11581TIP3   OH234687   8.010   2.374   5.543 -0.3578  0.3302  0.3031
11581TIP3    H134688   7.954   2.302   5.514 -1.0811  1.3367 -0.8903
11581TIP3    H234689   7.994   2.444   5.479  1.0559  1.2103  0.8705
11582TIP3   OH234690   1.913   7.558   3.559  0.4332 -0.3795  0.1039
11582TIP3    H134691   1.936   7.496   3.629  3.4401 -1.0324 -1.2860
11582TIP3    H234692   1.952   7.520   3.480 -1.1225  1.3243 -1.5715
11583TIP3   OH234693   6.904   3.248   2.991 -0.2725 -0.0028 -0.0498
11583TIP3    H134694   6.871   3.275   3.077 -0.7185 -1.0544  0.1335
11583TIP3    H234695   6.878   3.318   2.932 -0.5822  0.4014  0.5533
11584TIP3   OH234696   0.704   7.390   1.494 -0.0026 -0.5108 -0.9106
11584TIP3    H134697   0.736   7.479   1.480  0.0141 -0.4423 -0.4406
11584TIP3    H234698   0.762   7.354   1.561 -0.5922 -0.5543 -0.4193
11585TIP3   OH234699   1.865   0.049   5.426  0.0609  0.0361  0.4179
11585TIP3    H134700   1.895  -0.034   5.391  0.3680  0.1247  0.4655
11585TIP3    H234701   1.933   0.075   5.489  1.6182  1.8573 -1.8428
11586TIP3   OH234702   5.849   7.173   1.985  0.3449  0.4397 -0.2684
11586TIP3    H134703   5.838   7.268   1.973 -2.4586  0.1933 -0.3439
11586TIP3    H234704   5.798   7.153   2.064  3.0508 -0.6947  1.3150
11587TIP3   OH234705   4.723   7.841   3.918 -0.3744 -0.0498  0.1596
11587TIP3    H134706   4.817   7.849   3.906 -0.3650  0.8788  0.7713
11587TIP3    H234707   4.713   7.797   4.003 -0.4920 -2.2311 -0.9108
11588TIP3   OH234708   0.948   3.741   2.832 -0.5017  0.2323  0.0663
11588TIP3    H134709   0.868   3.791   2.850 -0.4395  0.7093 -0.9291
11588TIP3    H234710   0.917   3.652   2.813 -0.5827 -0.2554  2.2457
11589TIP3   OH234711   3.232   3.061   3.283  0.0233  0.4104  0.1088
11589TIP3    H134712   3.195   3.023   3.362  0.0138 -2.8550 -1.2724
11589TIP3    H234713   3.199   3.005   3.212  2.7225  1.0510 -1.8305
11590TIP3   OH234714   1.594   1.627   5.939  0.2317  0.3301  0.1907
11590TIP3    H134715   1.598   1.550   5.996 -0.6390 -0.0695 -0.2593
11590TIP3    H234716   1.571   1.592   5.854  0.8767  0.9932 -0.2658
11591TIP3   OH234717   0.461   2.410   2.708 -0.2677 -0.1425 -0.0469
11591TIP3    H134718   0.550   2.443   2.725 -0.0481 -0.5400 -0.4217
11591TIP3    H234719   0.410   2.443   2.782  0.6037 -1.5764  1.2713
11592TIP3   OH234720   8.235   3.731   5.711 -0.2892  0.2922  0.1452
11592TIP3    H134721   8.203   3.801   5.654 -0.0763  0.1962 -0.0943
11592TIP3    H234722   8.167   3.664   5.707 -1.0266  0.9353  1.2410
11593TIP3   OH234723   5.822   1.165   5.588  0.3099 -0.0364 -0.0675
11593TIP3    H134724   5.744   1.111   5.606  1.3695 -1.1094  1.5142
11593TIP3    H234725   5.893   1.120   5.633  1.9639  0.6857 -1.8299
11594TIP3   OH234726   1.668   0.954   3.403  0.5670 -0.4372  0.7099
11594TIP3    H134727   1.671   0.864   3.435  1.1146  0.0389  2.0312
11594TIP3    H234728   1.665   1.008   3.482  1.0957  0.7384 -0.0491
11595TIP3   OH234729   3.924   0.294   2.712 -0.0576  0.2193 -0.2376
11595TIP3    H134730   3.877   0.335   2.785  0.6001  2.0204 -0.7653
11595TIP3    H234731   3.990   0.359   2.688 -0.1443 -0.4163 -2.3118
11596TIP3   OH234732   3.065   0.838   5.045  0.5164 -0.8362 -0.0177
11596TIP3    H134733   3.146   0.866   5.088  1.2507 -2.7851 -0.0253
11596TIP3    H234734   3.094   0.792   4.966 -0.7341  0.5993 -1.3663
11597TIP3   OH234735   5.089   2.955   1.247 -0.0116  0.2294 -0.0492
11597TIP3    H134736   5.170   2.948   1.196 -0.1598 -0.5452 -0.1943
11597TIP3    H234737   5.020   2.960   1.181 -0.4171 -2.9917 -0.0532
11598TIP3   OH234738   0.963   7.099   2.917  0.1297 -0.7656 -0.4155
11598TIP3    H134739   1.041   7.063   2.959  0.5161  1.3051  0.7946
11598TIP3    H234740   0.932   7.030   2.859  1.8512 -2.2843  0.3981
11599TIP3   OH234741   4.112   2.968   4.141  0.6922 -0.1670 -0.6762
11599TIP3    H134742   4.093   3.055   4.107 -0.2700  0.0729  0.4308
11599TIP3    H234743   4.168   2.982   4.216  0.1948 -0.4583 -0.2387
11600TIP3   OH234744   5.376   6.457   5.648  0.2485  0.5373  0.3827
11600TIP3    H134745   5.343   6.394   5.584  0.5990 -1.5016  2.1160
11600TIP3    H234746   5.436   6.513   5.597  0.3268 -0.8351 -1.1158
11601TIP3   OH234747   3.143   5.119   1.431 -0.6778  0.1380  0.3149
11601TIP3    H134748   3.210   5.054   1.412  1.8812  2.0941  2.0035
11601TIP3    H234749   3.105   5.090   1.514 -3.0633 -1.6780 -1.2488
11602TIP3   OH234750   7.704   5.681   2.896  0.2207 -0.0062 -0.3192
11602TIP3    H134751   7.773   5.633   2.941  1.3976  2.1571  0.3521
11602TIP3    H234752   7.738   5.693   2.807  0.2112  0.0889 -0.3102
11603TIP3   OH234753   0.476   6.873   4.769 -0.4433 -0.0772  0.0599
11603TIP3    H134754   0.447   6.791   4.730 -1.3929  0.5373 -0.5476
11603TIP3    H234755   0.492   6.851   4.861  0.4038 -1.1939 -0.3303
11604TIP3   OH234756   4.833   2.254   2.308  0.0116  0.1948  0.5933
11604TIP3    H134757   4.902   2.189   2.296  1.2370  1.5967 -0.4465
11604TIP3    H234758   4.785   2.254   2.225  0.3420  0.9205  0.3851
11605TIP3   OH234759   2.917   5.650   5.197 -0.3481 -0.2293 -0.1963
11605TIP3    H134760   2.957   5.706   5.130  1.0682 -1.2374 -0.2448
11605TIP3    H234761   2.952   5.562   5.178 -2.1601 -1.0648  0.1354
11606TIP3   OH234762   3.350   2.121   0.937 -0.4568 -0.3211 -0.4975
11606TIP3    H134763   3.384   2.144   1.023  0.2078 -2.5968 -0.0854
11606TIP3    H234764   3.297   2.043   0.952 -0.6639 -0.5293 -2.0833
11607TIP3   OH234765   5.153   1.047   3.122 -0.5510 -0.1771 -0.0684
11607TIP3    H134766   5.077   1.098   3.149 -0.7983 -0.8167  0.4620
11607TIP3    H234767   5.165   1.070   3.030 -2.4019 -1.3057 -0.6498
11608TIP3   OH234768   6.936   4.044   6.397  0.0859  0.1129 -0.3565
11608TIP3    H134769   6.986   3.990   6.336  0.9102  0.0932  0.3243
11608TIP3    H234770   6.906   3.982   6.464  0.3823  0.3716  0.0153
11609TIP3   OH234771   6.563   3.627   2.863 -0.2667 -0.1944 -0.4333
11609TIP3    H134772   6.596   3.662   2.780  0.1250 -0.6165 -0.4561
11609TIP3    H234773   6.477   3.591   2.841 -0.4036  0.1954 -0.5398
11610TIP3   OH234774   1.802   4.969   4.314  0.4726  0.3581 -0.2869
11610TIP3    H134775   1.777   5.052   4.354 -0.1242 -0.5509  1.3007
11610TIP3    H234776   1.722   4.936   4.273  0.7149  0.5601 -0.9390
11611TIP3   OH234777   3.594   5.550   3.721 -0.0976  0.1643  0.4367
11611TIP3    H134778   3.610   5.551   3.626  1.4140  0.4219  0.6784
11611TIP3    H234779   3.521   5.612   3.733 -0.1393  0.3231 -0.5280
11612TIP3   OH234780   4.280   0.077   2.085 -0.7268 -0.1745 -0.4390
11612TIP3    H134781   4.325   0.019   2.024  0.3899 -0.4210  0.5766
11612TIP3    H234782   4.265   0.157   2.035  2.6588  0.6854 -0.3399
11613TIP3   OH234783   2.853   7.652   5.137 -0.3738  0.2072 -0.5917
11613TIP3    H134784   2.922   7.594   5.168  0.2637  0.1483 -2.0309
11613TIP3    H234785   2.841   7.715   5.208  1.1699  0.2082 -0.2917
11614TIP3   OH234786   1.790   4.737   3.554  0.4974 -0.4866  0.1697
11614TIP3    H134787   1.734   4.782   3.618  0.1064 -0.4381 -0.1976
11614TIP3    H234788   1.743   4.656   3.535  2.6432 -2.6121  3.1160
11615TIP3   OH234789   6.171   4.641   0.247  0.2202  0.1886  0.6710
11615TIP3    H134790   6.089   4.612   0.206  1.8119 -1.9557 -1.2470
11615TIP3    H234791   6.195   4.721   0.201  0.0685 -0.1433  0.0064
11616TIP3   OH234792   5.552   4.805   0.071  0.1794  0.1236  0.5750
11616TIP3    H134793   5.576   4.775   0.158  1.3201 -0.4879  0.0630
11616TIP3    H234794   5.634   4.806   0.022 -0.5229 -0.0438 -0.6380
11617TIP3   OH234795   3.939   0.548   0.985  0.5514  0.4454  0.2092
11617TIP3    H134796   3.966   0.485   1.052  1.4357  0.8556  0.2564
11617TIP3    H234797   3.958   0.633   1.023  1.1418  0.6828 -0.5801
11618TIP3   OH234798   3.303   1.920   1.395  0.4085 -0.0588 -0.2958
11618TIP3    H134799   3.299   1.930   1.490  1.2109 -0.3001 -0.2237
11618TIP3    H234800   3.397   1.921   1.375  0.2217  2.0281 -1.3208
11619TIP3   OH234801   8.314   7.168   4.640 -0.3643  0.2953  0.8599
11619TIP3    H134802   8.224   7.199   4.632 -0.0076  1.1488  0.0760
11619TIP3    H234803   8.323   7.144   4.733 -1.3934  0.1824  0.9380
11620TIP3   OH234804   5.241   1.115   0.946  0.6695 -0.1104  0.6168
11620TIP3    H134805   5.304   1.185   0.926  0.0393  0.3605  0.2819
11620TIP3    H234806   5.251   1.052   0.875 -0.1937  0.6242 -0.1731
11621TIP3   OH234807   6.713   3.783   6.354  0.2261 -0.2074 -0.2135
11621TIP3    H134808   6.692   3.875   6.336  2.9523  0.5653  0.0768
11621TIP3    H234809   6.637   3.750   6.401 -0.1604  2.4139  1.1883
11622TIP3   OH234810   2.401   0.549   6.268  0.0865  0.4520  0.0295
11622TIP3    H134811   2.457   0.478   6.238  0.1879 -0.0259  1.2960
11622TIP3    H234812   2.407   0.615   6.199 -0.4087 -0.9536 -1.4298
11623TIP3   OH234813   6.597   5.708   4.051  0.8420  0.1396  0.7168
11623TIP3    H134814   6.524   5.687   4.110 -0.5737  0.2794 -0.8955
11623TIP3    H234815   6.625   5.623   4.017 -0.4839  0.2521 -0.7798
11624TIP3   OH234816   6.145   5.675   0.499 -0.6160 -0.2820  0.0992
11624TIP3    H134817   6.238   5.691   0.484 -0.3636 -1.5690  0.1562
11624TIP3    H234818   6.111   5.760   0.528  0.6700  0.0665  0.7137
11625TIP3   OH234819   4.070   4.720   4.340 -0.0671 -0.2107 -0.2456
11625TIP3    H134820   4.157   4.750   4.314  0.3468 -0.1432  1.1269
11625TIP3    H234821   4.026   4.698   4.258  0.7640  1.0518 -1.0532
11626TIP3   OH234822   3.734   1.974   5.236 -0.0095 -0.6124 -0.2184
11626TIP3    H134823   3.769   1.892   5.271  1.6636 -1.4664 -3.4910
11626TIP3    H234824   3.648   1.951   5.202 -0.0418 -0.7265 -0.0581
11627TIP3   OH234825   6.844   1.370   5.252 -0.2225  0.5125 -0.6047
11627TIP3    H134826   6.874   1.376   5.342  0.0826 -2.5800 -0.3675
11627TIP3    H234827   6.907   1.311   5.210 -0.7607  1.3072 -2.6478
11628TIP3   OH234828   1.502   0.577   3.346  0.0821 -0.1063 -0.3275
11628TIP3    H134829   1.475   0.549   3.434 -1.0742  1.5770 -0.1064
11628TIP3    H234830   1.572   0.641   3.362  0.8179 -0.7971 -0.7121
11629TIP3   OH234831   0.522   4.655   1.178  0.0149  0.1454 -0.2897
11629TIP3    H134832   0.426   4.652   1.180  0.0124 -0.7116 -1.1219
11629TIP3    H234833   0.548   4.565   1.162  1.0179  0.1579  1.0538
11630TIP3   OH234834   5.991   2.531   3.940 -0.0718  0.2890  0.1120
11630TIP3    H134835   5.982   2.544   3.845  0.4238 -0.0024  0.0183
11630TIP3    H234836   6.046   2.604   3.969  0.8919 -0.3449 -0.0547
11631TIP3   OH234837   5.055   2.782   3.086 -0.5066 -0.4579 -0.2270
11631TIP3    H134838   5.069   2.874   3.110 -0.1039  0.6203 -3.9903
11631TIP3    H234839   5.115   2.734   3.143  1.1111  1.8595  0.2018
11632TIP3   OH234840   4.581   1.260   5.327  0.1218  0.5158  0.3505
11632TIP3    H134841   4.654   1.201   5.345  1.0788  1.4253 -0.4239
11632TIP3    H234842   4.508   1.225   5.379  1.2374 -0.1216  1.5337
11633TIP3   OH234843   2.164   7.651   2.201  0.1112 -0.6585  0.0555
11633TIP3    H134844   2.087   7.633   2.147 -0.1508  1.8926 -0.5155
11633TIP3    H234845   2.217   7.712   2.149  0.3656  1.0521  2.1896
11634TIP3   OH234846   1.144   0.108   0.186  1.1526  0.5111 -0.2167
11634TIP3    H134847   1.160   0.118   0.092 -0.4160 -0.1920 -0.5848
11634TIP3    H234848   1.069   0.165   0.203 -0.2360 -1.3286  0.0534
11635TIP3   OH234849   2.820   6.375   2.931 -0.0437  0.3691 -0.0349
11635TIP3    H134850   2.745   6.434   2.925 -2.1250 -2.2095 -0.7216
11635TIP3    H234851   2.852   6.368   2.841 -0.4884 -0.3944 -0.1344
11636TIP3   OH234852   2.398   2.683   3.429 -0.8246  0.1478 -0.3357
11636TIP3    H134853   2.387   2.684   3.334 -2.0452 -0.7177 -0.2309
11636TIP3    H234854   2.379   2.593   3.455  3.2633 -0.6739  0.3909
11637TIP3   OH234855   6.919   5.180   5.818  0.0481 -0.8261 -0.5185
11637TIP3    H134856   6.968   5.244   5.869 -0.0480 -0.5786 -0.7357
11637TIP3    H234857   6.959   5.182   5.732 -0.1075 -0.8852 -0.5927
11638TIP3   OH234858   7.103   0.898   4.465 -0.0380 -0.2169  0.3223
11638TIP3    H134859   7.198   0.904   4.454 -0.1459 -1.0200 -1.3317
11638TIP3    H234860   7.074   0.842   4.393 -1.7229 -0.3718  1.0739
11639TIP3   OH234861   1.204   3.377   2.540 -0.8217 -0.5644 -0.3072
11639TIP3    H134862   1.207   3.308   2.605  0.3237 -0.6856 -0.4692
11639TIP3    H234863   1.179   3.333   2.459 -0.3377 -0.7413 -0.3583
11640TIP3   OH234864   0.723   6.611   4.741 -0.3851  0.6543  0.4081
11640TIP3    H134865   0.766   6.540   4.692 -0.1432  0.4054  0.9747
11640TIP3    H234866   0.687   6.668   4.673  0.9501  0.9351 -0.0972
11641TIP3   OH234867   8.111   4.377   0.890  0.0794  0.0560 -0.6846
11641TIP3    H134868   8.042   4.418   0.942  0.4861 -0.1255  0.0027
11641TIP3    H234869   8.069   4.358   0.806 -0.6137  0.2464 -0.3873
11642TIP3   OH234870   4.904   6.351   0.536 -0.0168 -0.0503  0.2749
11642TIP3    H134871   4.911   6.293   0.460  0.9102  0.9209 -0.4233
11642TIP3    H234872   4.995   6.364   0.565 -0.3316 -0.1007  1.3180
11643TIP3   OH234873   2.770   6.925   5.711  0.0357 -0.3427  0.6737
11643TIP3    H134874   2.674   6.917   5.718  0.0979 -0.9931  0.8749
11643TIP3    H234875   2.797   6.960   5.796  0.2418 -2.9250  1.7643
11644TIP3   OH234876   8.180   4.008   4.631  0.0565 -0.3477 -0.7200
11644TIP3    H134877   8.195   4.100   4.611  0.6900 -0.0346  0.9903
11644TIP3    H234878   8.094   4.007   4.674  0.2092 -0.4977 -0.4169
11645TIP3   OH234879   2.253   4.686   6.117 -0.2727  0.2494  0.5374
11645TIP3    H134880   2.207   4.697   6.033  0.2508 -1.2355  0.0255
11645TIP3    H234881   2.333   4.738   6.107  0.5709 -1.1861 -0.5417
11646TIP3   OH234882   7.805   6.080   5.576  0.2883  0.1225 -0.0163
11646TIP3    H134883   7.726   6.086   5.522 -0.1023  0.6903  0.6070
11646TIP3    H234884   7.871   6.130   5.528 -0.5547  2.1899  0.8815
11647TIP3   OH234885   4.193   1.053   0.959  0.2625  0.2828 -0.0372
11647TIP3    H134886   4.227   1.070   0.871  1.5422  0.6386  0.5042
11647TIP3    H234887   4.198   1.137   1.004 -1.7573  0.4540 -0.0299
11648TIP3   OH234888   3.129   4.353   3.617  0.1830 -0.6980 -0.2531
11648TIP3    H134889   3.121   4.307   3.701  0.1744 -1.2745 -0.5597
11648TIP3    H234890   3.189   4.299   3.566  1.2265  0.3436 -0.1631
11649TIP3   OH234891   7.755   6.552   0.356 -0.4606  0.0669 -0.1043
11649TIP3    H134892   7.671   6.576   0.317  0.0429  1.8411 -0.1581
11649TIP3    H234893   7.815   6.543   0.282 -0.6095 -1.3174 -0.0767
11650TIP3   OH234894   3.257   1.952   5.013  0.1112 -0.4435 -0.5524
11650TIP3    H134895   3.246   2.007   5.090  0.2418  0.0311 -0.8676
11650TIP3    H234896   3.179   1.896   5.012 -0.5706  0.4934 -0.8325
11651TIP3   OH234897   2.787   2.486   2.863 -0.7254  0.0331 -0.5046
11651TIP3    H134898   2.728   2.415   2.838  0.2756 -1.2495  0.5887
11651TIP3    H234899   2.754   2.563   2.816 -2.8283 -0.7756 -0.4532
11652TIP3   OH234900   1.970   4.909   3.410  0.2541  0.2192  0.0370
11652TIP3    H134901   1.921   4.827   3.423  0.1820  0.3238  0.4464
11652TIP3    H234902   1.926   4.952   3.337 -0.2572  0.3061  0.3929
11653TIP3   OH234903   5.832   6.749   0.545 -0.7022  0.0360  0.1196
11653TIP3    H134904   5.759   6.760   0.485 -0.9536  0.1931  0.4456
11653TIP3    H234905   5.799   6.782   0.629  0.3041  1.7572 -0.1152
11654TIP3   OH234906   5.612   6.564   5.520 -0.3293 -0.3976  0.1300
11654TIP3    H134907   5.626   6.653   5.552 -0.3986 -0.6469  0.8753
11654TIP3    H234908   5.663   6.559   5.439  0.9533 -0.1669  0.8995
11655TIP3   OH234909   6.777   0.008   0.383  0.3790 -0.5145 -0.5089
11655TIP3    H134910   6.799  -0.048   0.458 -0.4900  0.1323  0.2533
11655TIP3    H234911   6.840   0.079   0.387  1.4588 -1.3873 -1.4537
11656TIP3   OH234912   6.428   2.325   5.393  0.0676 -0.0114  0.6226
11656TIP3    H134913   6.421   2.231   5.374  0.4692 -0.2126  1.4240
11656TIP3    H234914   6.337   2.356   5.391  0.0505 -0.1132 -1.0508
11657TIP3   OH234915   0.100   3.249   5.331 -0.2788 -0.3255  0.4806
11657TIP3    H134916   0.186   3.280   5.304 -0.2469  0.5882  1.5743
11657TIP3    H234917   0.048   3.328   5.345 -0.2088 -0.6741  3.2912
11658TIP3   OH234918   5.894   4.599   6.771 -0.0299 -0.4514 -0.3137
11658TIP3    H134919   5.878   4.510   6.803 -0.5331 -0.2366  0.0589
11658TIP3    H234920   5.943   4.588   6.689 -0.9118 -1.1124 -0.7660
11659TIP3   OH234921   6.373   2.096   6.110  0.0503  0.3205  0.2054
11659TIP3    H134922   6.294   2.146   6.128 -0.0557  0.3505 -0.3469
11659TIP3    H234923   6.443   2.147   6.151 -0.0533  0.9463 -0.3821
11660TIP3   OH234924   4.681   7.377   1.281 -0.0690 -0.0710 -0.3585
11660TIP3    H134925   4.614   7.340   1.338  0.2736  0.0633  0.1356
11660TIP3    H234926   4.739   7.304   1.261  0.1544  0.0121 -0.0329
11661TIP3   OH234927   4.808   4.624   3.948 -0.1806  0.0536  0.6006
11661TIP3    H134928   4.774   4.706   3.983 -0.4405  0.0877  0.2779
11661TIP3    H234929   4.874   4.596   4.012  0.6143  1.0095  0.2237
11662TIP3   OH234930   6.188   4.180   4.453  0.1334 -0.7145 -0.0321
11662TIP3    H134931   6.151   4.268   4.460  0.7253 -0.4639  0.0267
11662TIP3    H234932   6.259   4.189   4.388  0.2654 -1.1200  0.0535
11663TIP3   OH234933   3.253   3.043   6.027  0.4403  0.6174 -0.9650
11663TIP3    H134934   3.318   3.019   6.092 -1.8764 -0.1809  1.2338
11663TIP3    H234935   3.298   3.102   5.967  2.6126  1.6987  1.5693
11664TIP3   OH234936   4.164   0.423   2.367  0.3810 -0.1981 -0.1708
11664TIP3    H134937   4.146   0.330   2.351  0.5641 -0.2848  0.1228
11664TIP3    H234938   4.098   0.450   2.431 -0.2542  0.1106 -0.9375
11665TIP3   OH234939   3.708   0.965   0.425 -0.2886  0.1034  0.3132
11665TIP3    H134940   3.646   1.036   0.416 -1.8534 -1.1585  0.7299
11665TIP3    H234941   3.766   0.992   0.496 -0.7907  0.9956  0.3935
11666TIP3   OH234942   1.556   5.210   3.235 -0.3799  0.2842 -0.1324
11666TIP3    H134943   1.537   5.192   3.327 -1.7438  1.2674 -0.1930
11666TIP3    H234944   1.602   5.294   3.237 -1.6717  1.0296 -0.4116
11667TIP3   OH234945   0.511   6.966   3.719  0.0623  0.0708 -0.3876
11667TIP3    H134946   0.455   6.962   3.796  2.6292  0.8296  1.6652
11667TIP3    H234947   0.460   7.016   3.655 -1.8919  0.0067  1.0250
11668TIP3   OH234948   5.613   6.061   3.790 -0.2978 -0.7262  0.2291
11668TIP3    H134949   5.560   6.003   3.845 -0.6858 -0.8981 -0.3186
11668TIP3    H234950   5.550   6.126   3.757 -0.1746 -0.9357 -0.4326
11669TIP3   OH234951   5.478   0.700   3.570 -0.5000  0.2001  0.2112
11669TIP3    H134952   5.395   0.705   3.617 -0.3079 -0.1048  0.5880
11669TIP3    H234953   5.504   0.608   3.577  0.2686  0.4552  0.7869
11670TIP3   OH234954   2.185   3.967   4.977  0.1344 -0.9176 -0.7055
11670TIP3    H134955   2.130   4.031   4.932 -0.0867 -1.3700 -1.0912
11670TIP3    H234956   2.149   3.961   5.065 -0.0186 -0.7253 -0.7548
11671TIP3   OH234957   8.204   1.273   5.724 -0.1645 -0.2244 -0.5381
11671TIP3    H134958   8.164   1.322   5.652 -1.3825 -1.4767 -0.7627
11671TIP3    H234959   8.132   1.258   5.786  0.6942  0.1803  0.5932
11672TIP3   OH234960   5.501   7.581   0.460  0.2465  0.3754  0.0107
11672TIP3    H134961   5.507   7.553   0.369  2.6888 -0.6138  0.4090
11672TIP3    H234962   5.432   7.647   0.460  0.4529  0.6936 -2.6133
11673TIP3   OH234963   6.161   3.318   4.041 -0.3122 -0.4385  0.6106
11673TIP3    H134964   6.162   3.307   3.945 -1.2948 -1.1553  0.6665
11673TIP3    H234965   6.211   3.398   4.056 -0.6328  0.0099 -0.5582
11674TIP3   OH234966   4.132   5.906   1.641 -0.1569  1.0848  0.1964
11674TIP3    H134967   4.070   5.856   1.694  0.5798 -0.7416 -0.5882
11674TIP3    H234968   4.077   5.953   1.578 -0.8025 -0.8852 -0.8140
11675TIP3   OH234969   5.043   4.975   4.310  0.6523  0.5895 -0.6054
11675TIP3    H134970   5.114   4.987   4.246  1.4133 -1.1961 -0.1685
11675TIP3    H234971   5.058   4.887   4.346 -1.3640  0.4646  0.0491
11676TIP3   OH234972   4.911   3.142   2.583 -0.2239  0.2506  0.5024
11676TIP3    H134973   4.903   3.098   2.668 -1.5862  1.8469  1.2690
11676TIP3    H234974   5.002   3.127   2.556 -0.9225 -4.4772 -0.2051
11677TIP3   OH234975   4.322   4.954   6.332 -0.0996 -0.1164  0.2973
11677TIP3    H134976   4.344   5.045   6.312 -0.3764 -0.4723 -1.8670
11677TIP3    H234977   4.245   4.961   6.389  0.3253  0.9976  0.7766
11678TIP3   OH234978   3.541   0.181   3.930  0.5845  0.6868  0.3640
11678TIP3    H134979   3.531   0.123   3.854  1.1770 -0.5167  1.1728
11678TIP3    H234980   3.526   0.124   4.005  1.5161  1.5053  1.1951
11679TIP3   OH234981   1.160   6.922   1.281 -0.0073 -0.4549  0.2650
11679TIP3    H134982   1.184   6.835   1.250  4.0235  0.8541 -1.0118
11679TIP3    H234983   1.233   6.948   1.337 -0.4177  2.4891 -0.3787
11680TIP3   OH234984   4.084   1.938   3.032  0.2635 -0.1231 -0.4420
11680TIP3    H134985   4.107   2.029   3.012  0.1128 -0.2690 -1.3192
11680TIP3    H234986   4.013   1.918   2.971 -0.0033 -0.6919  0.0480
11681TIP3   OH234987   3.996   1.836   0.444  0.0599  0.2299 -0.3310
11681TIP3    H134988   3.915   1.884   0.429 -0.0875  0.3137  0.6490
11681TIP3    H234989   3.972   1.767   0.506  0.7517  0.2910  0.0178
11682TIP3   OH234990   1.429   1.750   1.782 -0.1294 -0.3001 -0.2421
11682TIP3    H134991   1.510   1.732   1.831 -0.4374 -1.3081 -0.0919
11682TIP3    H234992   1.397   1.664   1.755 -0.7527  0.1447 -0.9635
11683TIP3   OH234993   1.537   5.311   2.954 -0.1533  0.1245 -0.1984
11683TIP3    H134994   1.541   5.283   3.045 -0.6949  0.4690 -0.0620
11683TIP3    H234995   1.564   5.402   2.955 -1.2917  0.4813 -0.1995
11684TIP3   OH234996   2.937   0.643   5.592  0.2303  0.5156 -0.1346
11684TIP3    H134997   2.992   0.564   5.591  0.5212  0.7160 -1.5220
11684TIP3    H234998   2.849   0.611   5.575 -0.3406  0.0843  2.9302
11685TIP3   OH234999   5.455   5.418   4.651 -0.1379  0.2980  0.1525
11685TIP3    H135000   5.498   5.342   4.691  0.7261  0.0153 -1.2406
11685TIP3    H235001   5.432   5.389   4.562 -2.4538  0.7478  0.5404
11686TIP3   OH235002   5.910   0.149   3.504 -0.2497 -0.2396  0.4534
11686TIP3    H135003   5.915   0.216   3.436  1.2444  0.3652  1.1186
11686TIP3    H235004   5.940   0.069   3.461 -0.4145 -0.1140  0.1003
11687TIP3   OH235005   6.957   4.447   4.354  0.2025 -0.0494 -0.8729
11687TIP3    H135006   6.970   4.532   4.312 -0.3648  0.4515 -0.0765
11687TIP3    H235007   7.044   4.407   4.356  0.9226  1.4465  0.6565
11688TIP3   OH235008   0.192   0.656   2.635 -0.5383  0.2827 -0.1602
11688TIP3    H135009   0.191   0.744   2.671 -0.9582  0.9044 -1.6137
11688TIP3    H235010   0.129   0.658   2.563  1.0351 -0.5328 -1.6656
11689TIP3   OH235011   6.305   2.210   1.378  0.0217  0.9848 -0.7392
11689TIP3    H135012   6.264   2.291   1.347 -0.1675  1.4831  0.7132
11689TIP3    H235013   6.380   2.197   1.320 -0.9289  1.2538 -2.0666
11690TIP3   OH235014   4.018   1.538   0.295  0.4286  0.0103  0.4446
11690TIP3    H135015   4.009   1.633   0.308 -1.5528 -0.4069  3.1976
11690TIP3    H235016   4.111   1.521   0.308  0.9377  1.6145 -0.7363
11691TIP3   OH235017   0.613   1.311   3.996 -0.2525 -0.0505  0.3172
11691TIP3    H135018   0.570   1.289   3.913 -1.4818 -2.6192  1.5265
11691TIP3    H235019   0.693   1.357   3.970 -0.8354 -0.3336 -2.2599
11692TIP3   OH235020   6.884   0.859   6.587  0.3163 -0.2257 -0.6824
11692TIP3    H135021   6.893   0.816   6.672  0.5445  1.2081  0.0494
11692TIP3    H235022   6.940   0.937   6.593 -0.1715  0.2448 -1.9022
11693TIP3   OH235023   2.977   4.241   1.368 -0.0203  0.0996  0.0835
11693TIP3    H135024   2.969   4.330   1.334  1.2386 -0.3622 -1.5837
11693TIP3    H235025   3.051   4.245   1.429 -1.1666  0.5664  1.4729
11694TIP3   OH235026   7.148   5.181   6.311 -0.0217 -0.3836 -0.3013
11694TIP3    H135027   7.235   5.179   6.350 -0.5316  3.2507  1.4983
11694TIP3    H235028   7.157   5.239   6.235 -0.6650 -0.9075 -0.7962
11695TIP3   OH235029   0.063   4.344   6.321 -0.1952 -1.1126  0.4428
11695TIP3    H135030   0.157   4.330   6.309  0.7748  3.3243  0.8715
11695TIP3    H235031   0.027   4.342   6.232  1.2735  1.4472 -0.3291
11696TIP3   OH235032   5.146   2.688   2.385  0.0822 -0.1434 -0.1129
11696TIP3    H135033   5.231   2.648   2.403 -0.2098  0.1598  2.2226
11696TIP3    H235034   5.165   2.760   2.325  1.6874  0.6438  1.2733
11697TIP3   OH235035   6.970   6.720   1.457  0.3795  0.3518  0.1574
11697TIP3    H135036   6.901   6.659   1.483  0.9753 -0.8595 -0.9578
11697TIP3    H235037   6.927   6.806   1.456 -0.5710 -0.0723  1.4246
11698TIP3   OH235038   3.711   7.590   0.491 -0.7503 -0.4377  0.0533
11698TIP3    H135039   3.796   7.550   0.471 -0.4932  0.3759 -0.5069
11698TIP3    H235040   3.729   7.650   0.563 -0.6759  0.3576 -0.6190
11699TIP3   OH235041   8.004   4.010   4.847 -0.2266  0.8561 -1.4516
11699TIP3    H135042   7.971   3.925   4.877  1.3403  0.8276  0.3348
11699TIP3    H235043   7.929   4.068   4.855 -0.2507  0.5582  1.4897
11700TIP3   OH235044   6.293   1.843   0.956  0.0052  0.0934 -0.5100
11700TIP3    H135045   6.255   1.837   1.044  0.4232 -2.3963 -0.4310
11700TIP3    H235046   6.329   1.932   0.952  0.2054  0.2010  1.9472
11701TIP3   OH235047   3.427   4.052   6.703 -0.6130 -0.2279  0.2306
11701TIP3    H135048   3.424   4.146   6.719  0.5417  0.0635 -1.0665
11701TIP3    H235049   3.397   4.013   6.784 -0.9062  1.2552  0.8702
11702TIP3   OH235050   1.862   6.746   2.325  0.2098 -0.1132 -0.1360
11702TIP3    H135051   1.859   6.726   2.232 -1.1832 -1.4334  0.1574
11702TIP3    H235052   1.770   6.754   2.351  0.5640 -0.1679  1.2127
11703TIP3   OH235053   7.648   2.660   5.792 -0.0655  0.3308 -0.8473
11703TIP3    H135054   7.606   2.592   5.845  0.4921  0.2772 -0.4593
11703TIP3    H235055   7.737   2.628   5.780  0.5693  1.5481  0.3757
11704TIP3   OH235056   1.113   7.827   4.587  0.1789 -0.0432 -0.7464
11704TIP3    H135057   1.145   7.884   4.516  1.4993  0.3352  0.1061
11704TIP3    H235058   1.160   7.745   4.575 -0.9039 -0.5899 -1.3236
11705TIP3   OH235059   4.923   3.542   6.378 -0.0972 -0.1184  0.2732
11705TIP3    H135060   4.983   3.504   6.443 -3.2888 -2.6937  2.0055
11705TIP3    H235061   4.857   3.588   6.430 -1.4054 -0.1386 -1.2954
11706TIP3   OH235062   2.889   3.644   3.634  0.2729  0.1194 -0.3782
11706TIP3    H135063   2.891   3.735   3.605 -1.3197 -0.0797 -1.2390
11706TIP3    H235064   2.923   3.594   3.560  1.8186  0.0378  0.3537
11707TIP3   OH235065   4.037   3.062   0.576 -0.2177  0.1719  0.5277
11707TIP3    H135066   3.979   3.114   0.631 -1.2484 -1.6668  1.2896
11707TIP3    H235067   4.092   3.014   0.637  0.8923  0.5279 -0.1560
11708TIP3   OH235068   0.026   1.453   6.063  0.3371 -0.3622 -0.3023
11708TIP3    H135069   0.099   1.477   6.120 -0.7138  1.3467  0.3941
11708TIP3    H235070  -0.027   1.532   6.057 -0.0562 -0.7329 -2.9937
11709TIP3   OH235071   0.086   2.115   0.795 -0.0751  0.2741  0.3756
11709TIP3    H135072   0.078   2.209   0.777 -1.9217  0.0119 -0.4011
11709TIP3    H235073   0.137   2.080   0.722 -0.2705  0.5194  0.1208
11710TIP3   OH235074   3.461   5.275   5.028 -0.5814  0.3362  0.7802
11710TIP3    H135075   3.384   5.283   4.972 -0.4873 -0.0727  0.5832
11710TIP3    H235076   3.468   5.359   5.073  1.8273  2.4637 -2.9788
11711TIP3   OH235077   1.821   5.716   6.240 -0.4954 -0.1960  0.0359
11711TIP3    H135078   1.844   5.640   6.293 -1.8588 -0.3061  0.5151
11711TIP3    H235079   1.845   5.691   6.151  1.6524 -0.0821  0.5116
11712TIP3   OH235080   6.170   2.404   2.384 -0.0384 -0.0231 -0.0177
11712TIP3    H135081   6.190   2.410   2.478 -1.9456  0.0406  0.4135
11712TIP3    H235082   6.124   2.485   2.364 -1.7991 -1.0787 -0.4182
11713TIP3   OH235083   7.603   3.812   0.986 -0.2150  0.1023  0.1763
11713TIP3    H135084   7.605   3.850   1.074 -0.9721  1.2902 -0.2815
11713TIP3    H235085   7.585   3.887   0.929  1.2703 -0.4546 -1.1070
11714TIP3   OH235086   7.177   4.930   6.766  0.5016 -0.1068 -0.0537
11714TIP3    H135087   7.198   4.878   6.843 -0.5916  0.3842  0.6127
11714TIP3    H235088   7.117   4.876   6.715 -0.1968  0.2554  0.3617
11715TIP3   OH235089   3.688   7.075   3.349 -0.5163 -0.2095 -0.0152
11715TIP3    H135090   3.764   7.092   3.405 -0.4693 -1.4229  0.3201
11715TIP3    H235091   3.709   6.993   3.305 -1.2951 -0.1487 -0.5135
11716TIP3   OH235092   6.003   5.003   1.388 -0.4899  0.3102 -0.1333
11716TIP3    H135093   6.029   5.008   1.296 -0.1926 -0.1694 -0.0755
11716TIP3    H235094   6.076   4.959   1.431 -0.6630  0.4640  0.3214
11717TIP3   OH235095   5.042   2.387   1.611 -0.1737  0.1825 -0.2638
11717TIP3    H135096   5.112   2.324   1.594 -0.1222 -0.5940  2.3901
11717TIP3    H235097   4.966   2.353   1.563 -0.1895 -2.0420  1.2245
11718TIP3   OH235098   5.547   0.189   4.520 -0.6469  0.5318 -0.3718
11718TIP3    H135099   5.578   0.107   4.482  1.1741  0.4410  1.1997
11718TIP3    H235100   5.596   0.199   4.601 -2.1609  2.2754  0.4070
11719TIP3   OH235101   2.403   1.100   1.463 -0.0521  0.6797  0.1463
11719TIP3    H135102   2.461   1.111   1.388 -0.4480 -1.5387 -0.5512
11719TIP3    H235103   2.460   1.066   1.532 -0.3152 -0.5436 -0.2285
11720TIP3   OH235104   6.731   7.635   6.384 -0.0896  0.1846  0.3356
11720TIP3    H135105   6.687   7.557   6.351  1.1607 -0.4146  0.0490
11720TIP3    H235106   6.703   7.705   6.326  0.2947 -0.4277 -0.6068
11721TIP3   OH235107   6.197   4.139   5.257  0.4870  0.4527 -0.0634
11721TIP3    H135108   6.194   4.140   5.161 -0.0927  1.9361 -0.0628
11721TIP3    H235109   6.137   4.209   5.283  1.4576  0.7941  1.3602
11722TIP3   OH235110   1.141   2.438   5.550  0.8895  0.4768  0.4149
11722TIP3    H135111   1.132   2.375   5.621 -1.3710 -1.5095 -1.4755
11722TIP3    H235112   1.078   2.507   5.572  0.2288 -0.1096  0.4067
11723TIP3   OH235113   2.947   6.028   1.500  0.9508  0.1782 -0.0718
11723TIP3    H135114   3.036   6.002   1.527  1.2376  1.4658  0.2677
11723TIP3    H235115   2.918   5.956   1.443  2.6804  0.2851 -1.1683
11724TIP3   OH235116   7.170   2.762   5.213 -0.9361  0.2587 -0.5488
11724TIP3    H135117   7.102   2.827   5.226  0.0755  1.2533 -0.1128
11724TIP3    H235118   7.251   2.807   5.236 -0.1990 -1.1082 -0.3735
11725TIP3   OH235119   2.476   0.681   1.307  0.2445 -0.4437 -0.2452
11725TIP3    H135120   2.416   0.610   1.282  0.2700 -0.7297  0.4688
11725TIP3    H235121   2.422   0.740   1.360  1.1555 -2.0505  2.6779
11726TIP3   OH235122   0.525   5.243   3.865 -0.1125 -0.4217  0.0605
11726TIP3    H135123   0.473   5.322   3.847  0.1281 -0.2802 -0.0174
11726TIP3    H235124   0.460   5.173   3.870 -0.4121 -0.1117  0.8156
11727TIP3   OH235125   6.447   3.515   4.724 -0.0325  0.7669 -0.3916
11727TIP3    H135126   6.514   3.563   4.772 -0.9794  1.9039 -0.1540
11727TIP3    H235127   6.467   3.422   4.742  0.1147  1.1217  1.5653
11728TIP3   OH235128   6.540   4.297   2.075 -0.0436  0.3101  0.4737
11728TIP3    H135129   6.456   4.255   2.058 -0.8219  1.3206  1.6179
11728TIP3    H235130   6.605   4.235   2.043 -1.2223 -0.4154 -0.6043
11729TIP3   OH235131   1.712   4.196   0.885  0.2230 -0.1007  0.6465
11729TIP3    H135132   1.626   4.163   0.857 -0.4979  2.0040  0.1966
11729TIP3    H235133   1.713   4.183   0.980 -1.4482  1.6181  0.9415
11730TIP3   OH235134   3.334   4.458   4.695 -0.1131 -0.8614 -0.0890
11730TIP3    H135135   3.403   4.405   4.656 -0.8477 -1.9193  0.0250
11730TIP3    H235136   3.374   4.544   4.708  1.3831 -1.6172  0.5393
11731TIP3   OH235137   6.905   5.034   2.958 -0.4127  0.1186 -0.1290
11731TIP3    H135138   7.001   5.029   2.962 -0.1695  3.0287 -0.1277
11731TIP3    H235139   6.883   5.113   3.007 -2.8130 -0.3247 -0.3755
11732TIP3   OH235140   7.081   5.776   5.024 -0.3962 -0.2528  0.5038
11732TIP3    H135141   7.121   5.815   5.101 -0.6120  1.0701 -0.0415
11732TIP3    H235142   7.127   5.814   4.949 -0.2313 -1.4672 -0.0520
11733TIP3   OH235143   6.435   1.184   5.789 -0.1904  0.0190 -0.0148
11733TIP3    H135144   6.484   1.121   5.736 -1.1947 -2.2146  1.5674
11733TIP3    H235145   6.475   1.179   5.875 -0.5305  1.3153  0.2403
11734TIP3   OH235146   0.422   3.000   3.373  0.2919  0.3958  0.5242
11734TIP3    H135147   0.384   3.087   3.383 -0.1148  0.0930  1.8528
11734TIP3    H235148   0.487   2.994   3.444 -1.2912 -1.1812  1.9368
11735TIP3   OH235149   6.532   6.975   5.848  0.0382 -0.1624  0.5824
11735TIP3    H135150   6.439   6.989   5.829  0.1580  0.9555  0.7458
11735TIP3    H235151   6.533   6.908   5.916 -0.7041  0.5986  1.3593
11736TIP3   OH235152   1.084   5.484   0.644 -0.8191  0.0343  0.0802
11736TIP3    H135153   1.042   5.399   0.635 -0.4966 -0.1084 -0.0866
11736TIP3    H235154   1.163   5.478   0.590 -0.9470  0.5359 -0.1706
11737TIP3   OH235155   0.157   7.268   5.858 -0.0396  0.7655  0.3499
11737TIP3    H135156   0.092   7.212   5.815  1.2238  0.2743 -1.0098
11737TIP3    H235157   0.129   7.357   5.837  0.7865  0.5352 -1.9637
11738TIP3   OH235158   2.685   4.362   4.580 -0.0515  0.2407 -0.9603
11738TIP3    H135159   2.695   4.303   4.655  1.7302  1.8943  0.1934
11738TIP3    H235160   2.621   4.318   4.524 -1.2576 -1.1959  1.3712
11739TIP3   OH235161   1.278   7.037   4.273  0.0139 -0.3392  0.1466
11739TIP3    H135162   1.328   7.114   4.298  0.4966 -0.3337 -0.7890
11739TIP3    H235163   1.229   7.064   4.196  0.3637 -1.0315 -0.3308
11740TIP3   OH235164   2.855   3.824   2.241 -0.1807 -0.0834 -0.2808
11740TIP3    H135165   2.764   3.793   2.241 -0.2469 -0.0660 -2.3501
11740TIP3    H235166   2.903   3.758   2.289 -1.2866 -0.0298  0.9694
11741TIP3   OH235167   6.370   7.281   0.493  0.6320  0.1662 -0.5496
11741TIP3    H135168   6.296   7.254   0.547  1.1229  0.3341  0.2259
11741TIP3    H235169   6.331   7.333   0.424  0.0747  0.6983  0.1500
11742TIP3   OH235170   4.878   3.852   3.830 -0.1538 -0.3896  0.5382
11742TIP3    H135171   4.839   3.923   3.881 -1.9181 -0.9395  0.0119
11742TIP3    H235172   4.964   3.886   3.803 -0.5389  1.1328  1.1401
11743TIP3   OH235173   6.068   0.965   3.058  0.5352 -0.7248 -0.2828
11743TIP3    H135174   6.110   1.048   3.034  1.3677 -1.4514 -1.4313
11743TIP3    H235175   5.998   0.990   3.119  2.6688  0.5428  1.8075
11744TIP3   OH235176   6.702   3.602   3.960  0.3953 -0.0303 -0.0350
11744TIP3    H135177   6.783   3.554   3.975  0.6628  0.3910 -0.1279
11744TIP3    H235178   6.659   3.604   4.045  0.9779  0.6505  0.2521
11745TIP3   OH235179   3.413   0.460   6.377  0.0996 -0.2733  0.4496
11745TIP3    H135180   3.494   0.512   6.376  0.5476 -0.8947  1.5600
11745TIP3    H235181   3.391   0.452   6.470  1.1005 -3.5710  0.5382
11746TIP3   OH235182   1.993   0.644   3.537  0.1427 -0.5378 -0.2672
11746TIP3    H135183   2.053   0.609   3.472 -1.0386 -2.8492 -0.2430
11746TIP3    H235184   1.973   0.569   3.594  0.4895  1.1814  2.2867
11747TIP3   OH235185   4.198   5.803   2.641 -0.6030  0.2376  0.1326
11747TIP3    H135186   4.114   5.835   2.606 -1.5464 -0.6333  1.5101
11747TIP3    H235187   4.186   5.804   2.736  1.2330  0.7822  0.3853
11748TIP3   OH235188   1.463   1.880   3.653  0.2258  0.2129 -0.6497
11748TIP3    H135189   1.420   1.798   3.628  3.0220 -1.6967  0.3286
11748TIP3    H235190   1.461   1.881   3.748  1.7925  0.2965 -0.5840
11749TIP3   OH235191   5.077   3.620   2.514  0.8071  0.7191 -0.0768
11749TIP3    H135192   5.116   3.536   2.490 -0.2177  0.6563 -1.6766
11749TIP3    H235193   5.146   3.684   2.499  1.7792  0.1437  1.6843
11750TIP3   OH235194   3.216   7.063   4.700 -0.2004  0.0449  0.6233
11750TIP3    H135195   3.132   7.029   4.668 -0.6871  1.1331  0.6889
11750TIP3    H235196   3.192   7.119   4.773  0.5046  0.9845  0.1547
11751TIP3   OH235197   1.251   5.052   0.339  0.1631  0.3971 -0.2096
11751TIP3    H135198   1.300   4.970   0.346  0.4878  0.2638 -2.7999
11751TIP3    H235199   1.318   5.120   0.348  0.4508  0.2706 -1.2456
11752TIP3   OH235200   1.968   6.822   1.760  0.5077  0.1701  0.3903
11752TIP3    H135201   1.974   6.732   1.793 -0.4514  0.3201  1.0065
11752TIP3    H235202   2.015   6.874   1.825  0.4565  0.1999  0.4035
11753TIP3   OH235203   5.723   5.945   1.977  0.7152 -0.2477  0.0313
11753TIP3    H135204   5.754   6.000   1.905  0.0254  0.0446 -0.0519
11753TIP3    H235205   5.775   5.972   2.052  0.0901  0.8363  0.0973
11754TIP3   OH235206   1.663   7.072   0.468 -0.0326  0.3179  0.2734
11754TIP3    H135207   1.756   7.094   0.470 -0.0885  0.5857  0.0093
11754TIP3    H235208   1.647   7.046   0.377 -0.2543  0.4400  0.2780
11755TIP3   OH235209   2.000   2.196   5.789  0.0509 -0.4393  0.9774
11755TIP3    H135210   2.081   2.190   5.738 -0.2065 -0.4796  0.5724
11755TIP3    H235211   2.011   2.131   5.858  0.4882 -0.2418  1.1027
11756TIP3   OH235212   7.540   7.729   5.722  0.3407 -0.9456 -0.1049
11756TIP3    H135213   7.586   7.810   5.701 -0.9693 -0.0891  0.2333
11756TIP3    H235214   7.469   7.756   5.780 -1.3555 -2.0414 -1.5809
11757TIP3   OH235215   7.448   2.752   0.264  0.6110 -0.4191  0.0154
11757TIP3    H135216   7.438   2.845   0.245  0.9273 -0.7770 -2.1755
11757TIP3    H235217   7.359   2.717   0.262  0.6157 -0.4092 -0.7394
11758TIP3   OH235218   5.107   5.624   2.708  0.5731  0.0075  0.0721
11758TIP3    H135219   5.094   5.542   2.756 -0.3373  0.4534  0.6052
11758TIP3    H235220   5.182   5.607   2.651 -0.5738 -1.7160 -0.9916
11759TIP3   OH235221   6.175   4.279   4.001 -0.1038 -0.2837  0.7128
11759TIP3    H135222   6.194   4.214   3.933  1.0252  2.2023 -1.4998
11759TIP3    H235223   6.090   4.315   3.977 -1.1867 -1.4388  2.4761
11760TIP3   OH235224   3.908   6.100   3.172  0.1596  0.2938  0.0711
11760TIP3    H135225   3.900   6.194   3.161  0.2001  0.2098 -0.7442
11760TIP3    H235226   3.820   6.071   3.196  0.2065  0.5631  0.5950
11761TIP3   OH235227   1.798   2.696   2.047 -0.0291  0.0762  0.1979
11761TIP3    H135228   1.795   2.694   1.952  3.2114 -1.4997 -0.0155
11761TIP3    H235229   1.825   2.785   2.069 -1.4794  0.6493 -0.2702
11762TIP3   OH235230   6.188   5.855   4.709  0.0958  0.0864 -0.3883
11762TIP3    H135231   6.255   5.883   4.648  0.2075 -1.5922 -1.1103
11762TIP3    H235232   6.236   5.831   4.788  0.2236 -0.0145 -0.4959
11763TIP3   OH235233   0.162   1.774   5.074  0.5736  0.2747  0.2831
11763TIP3    H135234   0.181   1.688   5.112 -0.1883  0.2434  0.6146
11763TIP3    H235235   0.136   1.755   4.983  1.2507  0.2378  0.0972
11764TIP3   OH235236   5.582   1.030   2.659  0.1840  0.1257 -0.5826
11764TIP3    H135237   5.562   1.104   2.716 -1.2746 -1.5557  1.2335
11764TIP3    H235238   5.665   1.054   2.617 -0.5109  2.9984 -0.5323
11765TIP3   OH235239   2.823   4.931   1.142 -0.1073  0.2455 -0.0277
11765TIP3    H135240   2.780   4.983   1.075 -0.5021  1.0085  0.8088
11765TIP3    H235241   2.908   4.973   1.154  1.1601 -1.5302 -2.0169
11766TIP3   OH235242   7.215   5.766   4.238  0.5223 -0.2718  0.6202
11766TIP3    H135243   7.144   5.734   4.182  0.3508 -0.3460  0.8778
11766TIP3    H235244   7.295   5.736   4.194  0.3484 -2.0132  1.4059
11767TIP3   OH235245   4.408   7.445   6.257 -0.1219 -0.0157  0.1905
11767TIP3    H135246   4.415   7.475   6.348  4.6866 -1.6237  0.6077
11767TIP3    H235247   4.466   7.369   6.252 -0.6780 -0.4049 -4.1383
11768TIP3   OH235248   2.504   1.170   2.666  0.3671 -0.2571 -0.1150
11768TIP3    H135249   2.513   1.081   2.634  0.5684 -0.1696 -0.3019
11768TIP3    H235250   2.575   1.181   2.729 -0.4992 -0.6955  0.9906
11769TIP3   OH235251   0.599   6.920   1.514  0.4641 -0.3502 -0.0753
11769TIP3    H135252   0.553   6.975   1.450 -0.3716 -0.2762  0.5699
11769TIP3    H235253   0.613   6.977   1.589  1.4237 -0.4436 -0.1691
11770TIP3   OH235254   4.994   2.053   5.859  0.7989 -0.7348 -0.3655
11770TIP3    H135255   5.077   2.081   5.898  0.2683 -0.6849  0.7694
11770TIP3    H235256   4.929   2.070   5.927  0.2131 -3.2046 -0.1991
11771TIP3   OH235257   7.262   6.276   1.013 -1.2112  0.6663  0.1678
11771TIP3    H135258   7.290   6.367   1.003 -0.2732  0.1978 -2.0335
11771TIP3    H235259   7.318   6.227   0.953 -1.2825 -1.4805  1.7489
11772TIP3   OH235260   1.018   0.414   2.599  0.1193 -0.8152 -0.0142
11772TIP3    H135261   1.048   0.415   2.690 -0.5164  1.8369  0.2334
11772TIP3    H235262   0.926   0.388   2.604 -0.3393  0.7510  0.3157
11773TIP3   OH235263   5.116   2.817   0.944 -0.3175 -0.6319  0.0393
11773TIP3    H135264   5.057   2.863   0.885 -1.5363 -0.3803  1.4045
11773TIP3    H235265   5.168   2.886   0.985  1.7281 -0.9139 -1.8987
11774TIP3   OH235266   5.340   5.834   4.587  0.2634  1.1576  0.5489
11774TIP3    H135267   5.309   5.744   4.597 -0.0259  0.7965 -2.4894
11774TIP3    H235268   5.292   5.883   4.653 -0.0914 -0.7752  1.8289
11775TIP3   OH235269   4.863   5.224   0.630  0.0518 -0.1333 -0.1260
11775TIP3    H135270   4.896   5.313   0.640 -0.4715 -0.0386  0.8257
11775TIP3    H235271   4.870   5.186   0.717 -0.0266 -0.9236 -0.4586
11776TIP3   OH235272   2.795   4.354   3.186 -0.5026 -0.4552  0.1200
11776TIP3    H135273   2.846   4.300   3.246 -1.1545 -0.6651  0.4869
11776TIP3    H235274   2.820   4.323   3.099 -2.2013 -2.6088  0.3256
11777TIP3   OH235275   3.490   1.773   2.061 -0.1786  0.8743  0.1856
11777TIP3    H135276   3.547   1.757   2.136 -0.5993  0.6120  0.4532
11777TIP3    H235277   3.548   1.812   1.996  0.4684 -0.0119  0.1987
11778TIP3   OH235278   4.899   4.798   5.182  0.3447  0.3751 -0.5275
11778TIP3    H135279   4.906   4.874   5.239 -1.5182 -0.3421  0.7503
11778TIP3    H235280   4.922   4.723   5.237 -5.6222 -0.8814  0.9435
11779TIP3   OH235281   2.701   3.041   1.710  0.2983  0.3389 -0.3983
11779TIP3    H135282   2.746   2.957   1.718  0.6976  0.4898 -1.0184
11779TIP3    H235283   2.742   3.097   1.776  0.7679  0.3628 -0.7050
11780TIP3   OH235284   1.272   5.734   0.586 -0.0047  0.0302 -0.4376
11780TIP3    H135285   1.211   5.712   0.657  1.5235  1.8659  1.5833
11780TIP3    H235286   1.250   5.825   0.564  1.0033  0.2098 -0.7262
11781TIP3   OH235287   0.626   0.243   5.163  0.4090  0.5875  0.5356
11781TIP3    H135288   0.589   0.209   5.245  0.1844 -0.5836 -0.0225
11781TIP3    H235289   0.693   0.306   5.191  1.1085 -0.5909  1.6507
11782TIP3   OH235290   7.834   4.948   2.354  0.0828 -0.1346  1.1044
11782TIP3    H135291   7.864   4.994   2.433  1.0148 -0.6182  1.0426
11782TIP3    H235292   7.775   4.880   2.387 -0.6669  0.5787  1.2615
11783TIP3   OH235293   1.904   5.050   5.043 -0.0957 -0.0590  0.0852
11783TIP3    H135294   1.986   5.001   5.044  0.3272  0.6141  1.9492
11783TIP3    H235295   1.838   4.986   5.070  0.4959  0.3443  2.7928
11784TIP3   OH235296   4.999   2.136   0.477  0.2246 -0.5096 -0.6382
11784TIP3    H135297   4.967   2.087   0.402  1.2516 -2.2850  0.0176
11784TIP3    H235298   4.923   2.147   0.534  0.3256 -3.4595  0.2692
11785TIP3   OH235299   2.111   3.627   0.831 -0.1537  0.1903 -0.1589
11785TIP3    H135300   2.073   3.633   0.919 -2.6092  0.3172 -1.1345
11785TIP3    H235301   2.041   3.659   0.773  1.3904  0.1028 -2.1577
11786TIP3   OH235302   0.865   1.112   5.541 -0.7955 -0.0520 -0.2071
11786TIP3    H135303   0.906   1.101   5.455 -0.3930  0.5599 -0.0947
11786TIP3    H235304   0.797   1.177   5.527 -2.0235 -1.3419 -0.4803
11787TIP3   OH235305   7.291   0.560   4.042  0.6259 -0.4435  0.1744
11787TIP3    H135306   7.208   0.522   4.072  0.6390  0.0841  0.9104
11787TIP3    H235307   7.312   0.512   3.962  1.1493 -2.6459  1.5499
11788TIP3   OH235308   3.350   6.434   1.382 -0.0643 -0.1538 -0.1967
11788TIP3    H135309   3.374   6.498   1.315  1.3626 -0.8647 -0.4141
11788TIP3    H235310   3.413   6.450   1.453 -1.0759  0.0935  0.6618
11789TIP3   OH235311   7.007   1.831   0.712  0.0636 -0.3448  0.3168
11789TIP3    H135312   7.011   1.859   0.620 -2.2948  0.0192  0.2573
11789TIP3    H235313   6.999   1.736   0.707 -0.7346 -0.2724  0.0961
11790TIP3   OH235314   2.485   2.255   5.850  0.3770 -0.7518 -0.1816
11790TIP3    H135315   2.503   2.348   5.838 -0.4297 -0.7313 -1.4511
11790TIP3    H235316   2.570   2.212   5.837  0.9170 -0.1578  1.2154
11791TIP3   OH235317   5.744   3.540   5.654  0.3832  0.7684 -0.3899
11791TIP3    H135318   5.713   3.527   5.744 -0.1023  0.2149 -0.6327
11791TIP3    H235319   5.784   3.457   5.630  1.4327  1.2452 -0.3358
11792TIP3   OH235320   2.874   3.809   0.249 -0.1444  0.6944  0.5451
11792TIP3    H135321   2.945   3.850   0.200  0.6895  0.7552  1.7646
11792TIP3    H235322   2.913   3.784   0.333 -1.2582 -0.3836  0.7731
11793TIP3   OH235323   5.689   7.211   1.127  0.0027 -1.0538 -0.1228
11793TIP3    H135324   5.609   7.234   1.175 -0.2909 -0.3704 -0.9105
11793TIP3    H235325   5.723   7.295   1.096  0.3775 -1.4524 -0.8138
11794TIP3   OH235326   2.535   7.142   1.504  0.0271  0.1921  0.0677
11794TIP3    H135327   2.621   7.130   1.464  1.0630  1.0837  1.8935
11794TIP3    H235328   2.488   7.061   1.483  1.3319 -0.3575 -0.9090
11795TIP3   OH235329   5.149   1.805   3.135 -0.0725  0.0862 -0.4957
11795TIP3    H135330   5.163   1.726   3.083  0.2889 -1.0973  1.2816
11795TIP3    H235331   5.056   1.824   3.125 -0.1400 -0.4919 -1.0496
11796TIP3   OH235332   0.861   7.102   0.420  0.0991  0.2142 -0.0123
11796TIP3    H135333   0.907   7.174   0.376 -1.0223  0.2949 -1.1261
11796TIP3    H235334   0.912   7.024   0.397  0.7888  0.5318  0.4127
11797TIP3   OH235335   3.735   4.835   0.225  0.3173  0.9118  0.5624
11797TIP3    H135336   3.788   4.910   0.197  0.4444  1.1410  1.3883
11797TIP3    H235337   3.732   4.778   0.148  1.6318  0.9748  0.4404
11798TIP3   OH235338   8.148   2.410   3.172  0.2784 -0.1274  0.1220
11798TIP3    H135339   8.159   2.342   3.105  2.0048 -0.1041  0.3456
11798TIP3    H235340   8.085   2.373   3.233 -0.1476 -0.7832 -0.6905
11799TIP3   OH235341   3.029   0.514   6.450 -0.0805 -0.2234  0.2002
11799TIP3    H135342   3.012   0.424   6.421  0.0706 -0.7321  1.6303
11799TIP3    H235343   2.948   0.542   6.492 -0.0008  0.1829  0.0874
11800TIP3   OH235344   5.691   2.507   5.415 -0.2983 -0.4234 -0.0137
11800TIP3    H135345   5.668   2.557   5.336 -0.9082 -0.5086  0.1095
11800TIP3    H235346   5.667   2.564   5.488  0.7812 -0.1137  0.1191
11801TIP3   OH235347   6.104   7.031   3.121 -0.2549  0.0769  0.0693
11801TIP3    H135348   6.062   7.041   3.207  0.0021 -1.6409  0.4331
11801TIP3    H235349   6.102   6.936   3.104  0.0269  0.3510 -1.6586
11802TIP3   OH235350   0.318   0.361   3.737  0.1083 -0.1429  0.4008
11802TIP3    H135351   0.280   0.297   3.677  0.5179  0.0751 -0.0962
11802TIP3    H235352   0.353   0.308   3.809  1.0101 -0.5394 -0.3154
11803TIP3   OH235353   2.821   1.123   6.701  0.3286  0.7577 -0.6554
11803TIP3    H135354   2.769   1.186   6.749 -1.0868 -0.0236 -1.0940
11803TIP3    H235355   2.836   1.051   6.763 -0.9160  0.0571 -1.1325
11804TIP3   OH235356   5.973   2.937   5.790 -0.3389 -0.2947 -0.4089
11804TIP3    H135357   6.044   2.977   5.739 -0.9052  0.8051 -0.3628
11804TIP3    H235358   5.945   2.862   5.737  0.3302 -0.2827 -0.7995
11805TIP3   OH235359   5.293   0.314   1.509 -0.4736 -0.3101  0.4340
11805TIP3    H135360   5.224   0.289   1.448  0.4930  1.2879 -1.4169
11805TIP3    H235361   5.375   0.295   1.463  0.4016 -1.9594  2.4949
11806TIP3   OH235362   1.594   4.365   4.617 -0.3393 -0.1818 -0.1754
11806TIP3    H135363   1.589   4.458   4.592 -0.8673 -0.6568 -2.0474
11806TIP3    H235364   1.518   4.352   4.673  0.1215  0.6424  0.6908
11807TIP3   OH235365   3.434   5.838   5.822  0.3884 -0.4122  0.2568
11807TIP3    H135366   3.456   5.915   5.875 -1.0732 -1.0024  1.7810
11807TIP3    H235367   3.352   5.861   5.779  0.3519 -0.8289  0.0975
11808TIP3   OH235368   0.611   4.390   1.140 -0.1485 -0.3043  0.0267
11808TIP3    H135369   0.652   4.363   1.223  1.5984 -0.2764 -0.7923
11808TIP3    H235370   0.554   4.316   1.118  0.5125 -0.9900  0.5157
11809TIP3   OH235371   1.750   3.191   1.258  0.4309  0.0241  0.0069
11809TIP3    H135372   1.732   3.148   1.342  0.1060  1.4199  0.6800
11809TIP3    H235373   1.824   3.142   1.221  0.5482 -0.6362  1.0739
11810TIP3   OH235374   7.965   3.093   4.374 -0.0515  0.2735 -0.0247
11810TIP3    H135375   8.018   3.172   4.382 -1.4395  1.2147  0.1905
11810TIP3    H235376   8.028   3.021   4.380  0.9641  1.2528  2.8168
11811TIP3   OH235377   4.597   0.926   0.707  0.2077 -0.4916 -0.4108
11811TIP3    H135378   4.652   0.926   0.786 -0.0815 -0.4685 -0.2053
11811TIP3    H235379   4.629   0.853   0.655  0.7873 -0.1489 -0.5464
11812TIP3   OH235380   0.151   1.480   2.817  0.2181  0.6058  0.8078
11812TIP3    H135381   0.180   1.424   2.889  1.8694  0.7501  0.3019
11812TIP3    H235382   0.210   1.556   2.821 -0.2972  1.0656 -0.1124
11813TIP3   OH235383   1.406   3.709   0.598 -0.4576 -0.2700 -0.3347
11813TIP3    H135384   1.318   3.673   0.587 -0.0455 -1.2614 -0.4533
11813TIP3    H235385   1.424   3.752   0.514 -0.1407 -1.6147 -0.9748
11814TIP3   OH235386   0.091   5.345   2.721  0.1243  0.4615  0.1293
11814TIP3    H135387   0.148   5.277   2.686 -1.8617 -0.8113 -0.8198
11814TIP3    H235388   0.057   5.390   2.644 -1.2769  0.1953  0.5546
11815TIP3   OH235389   0.210   4.771   3.246 -0.5912  0.3549  0.2540
11815TIP3    H135390   0.187   4.775   3.154 -0.7110  2.9300  0.3174
11815TIP3    H235391   0.156   4.838   3.288 -1.5330 -1.6457  2.4725
11816TIP3   OH235392   6.195   7.146   3.447 -0.3354  0.2400  0.0650
11816TIP3    H135393   6.118   7.113   3.402 -0.6317  1.0143 -0.0188
11816TIP3    H235394   6.243   7.068   3.474 -1.5018 -0.2684  0.7431
11817TIP3   OH235395   2.141   5.739   0.057  0.5547  0.3112  0.4345
11817TIP3    H135396   2.132   5.795   0.135 -0.8852 -0.9266  1.2042
11817TIP3    H235397   2.223   5.691   0.072  0.0269 -0.3119  1.4985
11818TIP3   OH235398   4.576   4.195   6.746 -0.4938 -0.5744 -0.4650
11818TIP3    H135399   4.660   4.150   6.761 -0.6310 -0.4296  0.8371
11818TIP3    H235400   4.598   4.267   6.688  0.3725 -0.3023  0.1735
11819TIP3   OH235401   2.953   5.437   3.495  0.3277  0.0846  0.1792
11819TIP3    H135402   2.885   5.381   3.532 -0.5122  1.0179  0.0849
11819TIP3    H235403   3.007   5.378   3.443  1.1667 -1.1708  2.3165
11820TIP3   OH235404   1.698   1.910   5.693  0.3518 -0.2918  0.0409
11820TIP3    H135405   1.770   1.847   5.685  1.3686  0.9612 -1.3742
11820TIP3    H235406   1.631   1.878   5.632  0.7533 -0.1672 -0.4736
11821TIP3   OH235407   3.540   3.302   3.701  0.2368 -0.3699 -0.3148
11821TIP3    H135408   3.468   3.340   3.650  0.6251  0.9499  0.0684
11821TIP3    H235409   3.500   3.279   3.785  0.5618  2.2170  0.6747
11822TIP3   OH235410   4.292   3.078   2.775 -0.1930  0.2723  0.1870
11822TIP3    H135411   4.331   3.022   2.708  2.7012  0.3801  1.6416
11822TIP3    H235412   4.260   3.017   2.841  1.0290  0.2144  0.7602
11823TIP3   OH235413   3.024   3.871   3.707 -0.7135  0.3098 -1.0043
11823TIP3    H135414   3.059   3.839   3.624  0.3841  1.0486 -0.8401
11823TIP3    H235415   2.994   3.791   3.752  0.3459 -0.2986 -1.3477
11824TIP3   OH235416   7.860   0.875   3.044  0.0796  0.7135 -0.3874
11824TIP3    H135417   7.860   0.837   3.132  1.3764 -0.1232 -0.7161
11824TIP3    H235418   7.811   0.812   2.991 -1.2728  1.5405 -0.1635
11825TIP3   OH235419   4.190   1.610   3.676 -0.2968  0.0524  0.5783
11825TIP3    H135420   4.252   1.637   3.609 -0.7490  0.6449  0.3863
11825TIP3    H235421   4.219   1.523   3.703 -0.0398 -0.1347 -0.2904
11826TIP3   OH235422   2.451   4.333   3.075  0.2266  0.2516  0.3607
11826TIP3    H135423   2.502   4.397   3.026 -0.8902  1.1269  0.2956
11826TIP3    H235424   2.424   4.268   3.010 -0.9049  1.1881 -0.1453
11827TIP3   OH235425   1.412   1.569   5.526 -0.0795 -0.1064 -0.1742
11827TIP3    H135426   1.449   1.526   5.449  0.0166 -0.8368  0.2653
11827TIP3    H235427   1.423   1.505   5.596 -4.1707 -1.3740 -0.4307
11828TIP3   OH235428   6.831   5.265   0.065  0.1554 -0.2125  0.4960
11828TIP3    H135429   6.901   5.299   0.121  1.0054 -1.9210  0.5330
11828TIP3    H235430   6.875   5.203   0.007 -0.9368  0.5536 -1.2064
11829TIP3   OH235431   7.630   2.448   1.068 -0.3013 -0.0249  0.6916
11829TIP3    H135432   7.614   2.356   1.044 -0.8571  0.2323  0.0220
11829TIP3    H235433   7.684   2.482   0.996 -0.3859  0.2603  0.7612
11830TIP3   OH235434   0.218   3.970   5.138  0.3238 -0.2967  0.2742
11830TIP3    H135435   0.227   4.047   5.195  2.9254 -1.2520  1.2865
11830TIP3    H235436   0.150   3.917   5.181  1.1271 -0.2595  1.6735
11831TIP3   OH235437   1.196   6.594   6.220  0.1105 -0.1739  0.4629
11831TIP3    H135438   1.186   6.658   6.291 -2.2345  0.7244 -0.5715
11831TIP3    H235439   1.289   6.598   6.197  0.8666 -0.1957  3.1533
11832TIP3   OH235440   5.420   1.664   3.759 -0.3510  0.0764 -0.0647
11832TIP3    H135441   5.351   1.709   3.710 -0.7308 -0.3330  0.0921
11832TIP3    H235442   5.500   1.682   3.709 -0.3152  1.7622  0.5169
11833TIP3   OH235443   6.497   3.846   1.214  0.0120 -0.2414 -0.1241
11833TIP3    H135444   6.572   3.805   1.257  0.7442  0.5821 -0.5835
11833TIP3    H235445   6.463   3.779   1.155  0.9572 -0.3135 -0.5947
11834TIP3   OH235446   8.302   2.401   4.328 -0.4520 -0.3105 -0.3095
11834TIP3    H135447   8.306   2.390   4.423  0.8871  0.0994 -0.3099
11834TIP3    H235448   8.233   2.340   4.301  0.0514 -1.4205  0.7811
11835TIP3   OH235449   1.421   4.139   4.009  0.1087 -0.2234  0.3144
11835TIP3    H135450   1.489   4.207   4.007  0.9903 -0.9689 -3.1324
11835TIP3    H235451   1.372   4.152   3.927 -1.4033 -2.1023  0.8465
11836TIP3   OH235452   4.259   1.463   2.679  0.3265 -0.3292 -0.1969
11836TIP3    H135453   4.348   1.496   2.690 -0.5022  1.9292  0.1221
11836TIP3    H235454   4.203   1.527   2.723 -1.5273 -1.4199 -0.8304
11837TIP3   OH235455   5.035   4.957   3.507 -0.3989 -0.0558 -0.4921
11837TIP3    H135456   5.115   5.007   3.490 -0.3038 -0.6116 -1.7945
11837TIP3    H235457   5.058   4.867   3.485 -1.5112 -0.1489 -1.3375
11838TIP3   OH235458   8.068   3.146   1.316 -0.5626  0.4144 -0.1989
11838TIP3    H135459   8.156   3.153   1.280 -0.3298  2.0719  0.5865
11838TIP3    H235460   8.074   3.075   1.380  0.2254  0.5621 -0.1033
11839TIP3   OH235461   7.652   3.765   5.544 -0.5193  0.0644  0.4827
11839TIP3    H135462   7.725   3.801   5.595 -0.1174  1.6542 -1.1166
11839TIP3    H235463   7.622   3.837   5.489 -2.6937 -0.8342  0.3773
11840TIP3   OH235464   3.843   3.842   4.222  0.5254  0.1102  0.2654
11840TIP3    H135465   3.897   3.782   4.170 -1.3455 -0.4499 -1.1436
11840TIP3    H235466   3.753   3.822   4.196 -0.3820  1.1182  2.3957
11841TIP3   OH235467   3.532   3.551   6.595  0.2237 -0.1848 -0.1146
11841TIP3    H135468   3.576   3.627   6.633 -1.2371  0.8564 -0.3955
11841TIP3    H235469   3.510   3.578   6.506 -0.9718 -0.6194  0.0221
11842TIP3   OH235470   4.930   0.629   0.964 -0.1129 -0.0617  0.0932
11842TIP3    H135471   4.838   0.647   0.984  0.5371  0.9174  2.6656
11842TIP3    H235472   4.979   0.688   1.021  2.1785  1.2792 -2.9755
11843TIP3   OH235473   7.951   1.492   6.126  0.5062 -0.3089  0.0452
11843TIP3    H135474   7.870   1.543   6.122  1.1832  0.7628 -0.6270
11843TIP3    H235475   8.017   1.555   6.156  1.3013 -0.8627 -0.5031
11844TIP3   OH235476   3.164   4.560   6.247  0.3588 -0.3244  0.1075
11844TIP3    H135477   3.126   4.553   6.335 -0.5698 -1.9811 -0.3687
11844TIP3    H235478   3.088   4.567   6.189  0.7193 -2.7095 -0.7891
11845TIP3   OH235479   3.533   7.404   1.398 -0.0119 -0.6064  0.0740
11845TIP3    H135480   3.482   7.329   1.364 -1.0502  0.3543 -0.5580
11845TIP3    H235481   3.609   7.364   1.440 -0.3491 -2.0094 -0.5823
11846TIP3   OH235482   3.863   4.960   3.317  0.2351  0.3715 -0.1974
11846TIP3    H135483   3.776   4.950   3.354 -0.2209  1.7133 -0.8235
11846TIP3    H235484   3.861   4.911   3.235 -0.0384  0.6291 -0.3487
11847TIP3   OH235485   2.944   0.100   5.155  0.3581 -0.3248 -0.4839
11847TIP3    H135486   3.007   0.131   5.089 -1.7671  0.7307 -2.1607
11847TIP3    H235487   2.923   0.010   5.128 -0.9181  0.2852 -1.6908
11848TIP3   OH235488   0.145   2.562   6.072  0.1301 -0.0148  0.3708
11848TIP3    H135489   0.191   2.520   6.000  0.3054 -1.3306  1.2047
11848TIP3    H235490   0.161   2.656   6.061  0.2282 -0.2006 -1.2199
11849TIP3   OH235491   4.930   1.630   5.680  0.0754  0.2519 -0.5516
11849TIP3    H135492   4.918   1.565   5.611  0.2226 -0.3218 -0.0536
11849TIP3    H235493   4.985   1.586   5.745 -1.4422  0.1501  0.7340
11850TIP3   OH235494   0.153   4.245   4.519 -0.7198 -0.8932 -0.7773
11850TIP3    H135495   0.204   4.304   4.464  0.1753 -0.6456  0.2842
11850TIP3    H235496   0.129   4.173   4.461 -1.2972  0.1800 -1.9342
11851TIP3   OH235497   6.149   3.483   0.569 -0.1152  0.6200 -0.0330
11851TIP3    H135498   6.186   3.555   0.620 -0.1296  1.2178 -0.8589
11851TIP3    H235499   6.186   3.493   0.481 -1.4613  0.6563 -0.6168
11852TIP3   OH235500   5.817   6.746   1.033 -0.0873  0.1499  0.0193
11852TIP3    H135501   5.811   6.735   1.128 -0.2343 -0.3889 -0.0510
11852TIP3    H235502   5.815   6.841   1.020 -0.0400  0.2270  0.5564
11853TIP3   OH235503   1.468   1.266   3.542  0.0365 -0.0743  0.0834
11853TIP3    H135504   1.541   1.217   3.580  0.3958  1.8477  2.0313
11853TIP3    H235505   1.509   1.342   3.501 -0.7834  0.4900  0.2847
11854TIP3   OH235506   1.006   2.485   2.912 -0.0263 -0.9448 -0.5545
11854TIP3    H135507   1.034   2.464   2.823  2.6922  1.7901 -0.5171
11854TIP3    H235508   0.961   2.569   2.903  0.0157 -0.7918  0.6111
11855TIP3   OH235509   2.975   6.963   0.153 -0.2256  0.5538  0.1578
11855TIP3    H135510   2.945   7.044   0.111 -0.1291  0.6251  0.2263
11855TIP3    H235511   3.071   6.970   0.151 -0.1683 -0.2329 -1.1742
11856TIP3   OH235512   1.189   4.919   1.644  0.1129 -0.6740 -0.5213
11856TIP3    H135513   1.121   4.855   1.666  0.8393 -1.1117  0.5611
11856TIP3    H235514   1.250   4.914   1.717 -0.1018  1.6778 -0.1035
11857TIP3   OH235515   2.567   5.953   2.401 -0.0414  0.1713  0.2206
11857TIP3    H135516   2.512   5.875   2.408 -0.5264  0.5308  0.3970
11857TIP3    H235517   2.585   5.961   2.307  0.8870 -0.7531  0.2944
11858TIP3   OH235518   7.474   3.984   0.020 -0.0577  0.0895  0.6346
11858TIP3    H135519   7.554   3.935   0.036  0.5884  0.2518 -1.6626
11858TIP3    H235520   7.497   4.046  -0.050 -1.6764  1.5131  1.2725
11859TIP3   OH235521   5.838   6.781   6.711  0.2527  0.2770  0.4736
11859TIP3    H135522   5.747   6.769   6.737  0.4697 -0.7724  0.8155
11859TIP3    H235523   5.879   6.697   6.731  1.3173  0.7739  0.4327
11860TIP3   OH235524   3.184   1.398   3.527 -0.3311 -0.0772  0.4678
11860TIP3    H135525   3.261   1.407   3.471 -0.0307 -0.9998  0.7218
11860TIP3    H235526   3.192   1.311   3.566 -2.8905 -1.3493 -1.5532
11861TIP3   OH235527   4.257   4.483   3.724 -0.4083 -0.1383 -0.1427
11861TIP3    H135528   4.270   4.392   3.751 -0.7065  0.0187  0.5359
11861TIP3    H235529   4.269   4.481   3.629 -2.3112 -1.2493 -0.4205
11862TIP3   OH235530   8.142   0.853   6.648 -0.1347 -0.1000 -0.2172
11862TIP3    H135531   8.226   0.898   6.659 -0.1572  0.0191 -0.5243
11862TIP3    H235532   8.156   0.795   6.573 -0.9517  1.4498 -1.6367
11863TIP3   OH235533   8.037   0.301   1.465 -0.2475  0.1005  0.1126
11863TIP3    H135534   8.003   0.212   1.470 -1.1143  0.3085 -1.4618
11863TIP3    H235535   7.962   0.357   1.485 -0.3912  0.5116 -1.3997
11864TIP3   OH235536   4.997   7.204   2.301 -0.0993 -0.4161  0.0757
11864TIP3    H135537   4.933   7.175   2.236 -1.0457  0.0177  0.7802
11864TIP3    H235538   5.002   7.299   2.290 -1.4650 -0.1195  1.6389
11865TIP3   OH235539   5.658   3.443   2.135 -0.0917 -0.0801 -0.2298
11865TIP3    H135540   5.667   3.537   2.152  0.7456 -0.1820 -0.0830
11865TIP3    H235541   5.720   3.426   2.064 -0.3196 -0.5041 -0.3280
11866TIP3   OH235542   0.710   2.711   2.765 -0.4604 -0.3202 -0.2587
11866TIP3    H135543   0.787   2.733   2.817  1.1056  1.1412 -2.9578
11866TIP3    H235544   0.688   2.621   2.789  1.9020 -0.6508  0.8394
11867TIP3   OH235545   3.850   2.673   3.232 -0.1433 -0.1407 -0.1257
11867TIP3    H135546   3.762   2.646   3.204 -1.1407  0.2380  2.3556
11867TIP3    H235547   3.846   2.768   3.236  0.4748 -0.1034 -0.2693
11868TIP3   OH235548   3.904   4.662   3.415 -0.1766 -0.5593 -0.2899
11868TIP3    H135549   3.896   4.743   3.466  0.0833 -1.1585  0.7141
11868TIP3    H235550   3.973   4.612   3.459 -1.1863 -1.8791 -0.1360
11869TIP3   OH235551   3.615   4.020   1.008  0.4480 -0.1858  0.3709
11869TIP3    H135552   3.597   4.018   0.914  0.4330 -0.7099  0.3821
11869TIP3    H235553   3.708   4.039   1.015  0.5827 -0.7908  0.2328
11870TIP3   OH235554   5.405   3.125   2.879  0.0256  0.1969 -0.0137
11870TIP3    H135555   5.443   3.149   2.795  0.5895  1.6360  0.6282
11870TIP3    H235556   5.346   3.197   2.901 -0.8480 -0.6130  0.4000
11871TIP3   OH235557   5.543   7.129   0.772  0.0728 -0.7831  0.5986
11871TIP3    H135558   5.492   7.210   0.780  2.5413  1.3350 -2.4976
11871TIP3    H235559   5.497   7.079   0.705  0.6744  0.0040 -0.4327
11872TIP3   OH235560   6.905   2.936   6.701  0.3246 -0.1461 -0.2619
11872TIP3    H135561   6.931   2.967   6.788 -0.8360  0.0737  0.0221
11872TIP3    H235562   6.847   2.862   6.718 -0.6731  0.4918 -0.8205
11873TIP3   OH235563   5.407   6.556   1.611 -0.2654  0.1786 -0.4680
11873TIP3    H135564   5.483   6.499   1.596  0.3261  0.4338  1.3003
11873TIP3    H235565   5.437   6.643   1.585 -0.7667 -0.0677 -1.9974
11874TIP3   OH235566   0.332   5.086   5.966  0.5552  0.1607 -0.5277
11874TIP3    H135567   0.354   5.048   6.051  2.4998  0.7483 -0.7192
11874TIP3    H235568   0.303   5.175   5.988  0.9937  0.2909 -0.4471
11875TIP3   OH235569   5.884   2.311   0.912 -0.0464 -0.3167  0.2077
11875TIP3    H135570   5.795   2.289   0.886  0.6105  0.5677 -3.3710
11875TIP3    H235571   5.933   2.230   0.902  0.2162  0.0329 -1.6681
11876TIP3   OH235572   0.360   4.437   0.778 -0.3266 -0.2047 -0.2843
11876TIP3    H135573   0.355   4.343   0.799 -1.4014  0.2005  1.4913
11876TIP3    H235574   0.275   4.456   0.737 -0.3147  0.0955 -0.1672
11877TIP3   OH235575   0.563   6.846   4.291  0.1711 -0.0575  0.1669
11877TIP3    H135576   0.486   6.830   4.236  0.4213  0.6650 -0.4204
11877TIP3    H235577   0.564   6.941   4.303  0.5839 -0.1318  0.7503
11878TIP3   OH235578   1.763   1.257   4.851  0.1164 -0.1643 -0.8834
11878TIP3    H135579   1.784   1.184   4.792 -0.1208 -0.8447 -0.1478
11878TIP3    H235580   1.846   1.276   4.895  0.4639  0.8012 -1.8961
11879TIP3   OH235581   4.779   4.617   1.414 -0.4569 -0.1282 -0.3533
11879TIP3    H135582   4.694   4.601   1.455  0.1420 -0.6425  0.7324
11879TIP3    H235583   4.759   4.673   1.339 -1.4670  1.6026  1.1482
11880TIP3   OH235584   8.013   2.641   2.555  0.6198  0.0200  0.0827
11880TIP3    H135585   7.930   2.601   2.582  0.2031  0.4329 -0.5602
11880TIP3    H235586   8.020   2.621   2.461  0.7082  0.9192 -0.1079
11881TIP3   OH235587   2.255   1.223   4.264 -0.2907  0.3547  0.0604
11881TIP3    H135588   2.297   1.151   4.217  0.7155 -0.5175  2.1497
11881TIP3    H235589   2.169   1.189   4.288 -0.4547  0.4664 -0.3638
11882TIP3   OH235590   3.168   4.249   2.110  1.0178  0.1192 -0.0410
11882TIP3    H135591   3.251   4.208   2.085  1.6811  0.9655  0.6982
11882TIP3    H235592   3.162   4.327   2.054  0.3495 -0.3313 -0.6104
11883TIP3   OH235593   3.831   2.247   0.195  0.3021 -0.2342 -0.5969
11883TIP3    H135594   3.898   2.195   0.152  0.1244 -0.5559 -0.4849
11883TIP3    H235595   3.763   2.259   0.128  0.4788  0.1139 -0.7190
11884TIP3   OH235596   1.452   0.349   3.120  0.4246 -0.5581 -0.7754
11884TIP3    H135597   1.543   0.378   3.109  0.5610 -0.3074  0.6710
11884TIP3    H235598   1.402   0.430   3.119  0.1077 -0.7540 -2.3159
11885TIP3   OH235599   6.522   7.753   2.049 -0.0015 -0.0988  0.2177
11885TIP3    H135600   6.502   7.841   2.019  1.3238 -0.5585 -2.2538
11885TIP3    H235601   6.586   7.765   2.119  0.0434  0.9041  0.0203
11886TIP3   OH235602   4.921   7.396   4.948  0.2571 -0.0867 -0.1537
11886TIP3    H135603   4.910   7.317   4.895  3.0514 -0.9334  0.3633
11886TIP3    H235604   5.003   7.434   4.918  2.7990 -1.3717  4.2758
11887TIP3   OH235605   0.830   6.833   4.275 -0.0498 -0.1994 -0.4643
11887TIP3    H135606   0.835   6.790   4.189 -0.8399 -1.3942  0.0653
11887TIP3    H235607   0.737   6.847   4.290  0.1353  0.9048 -0.2067
11888TIP3   OH235608   1.876   6.450   2.239  0.7545 -0.0400 -0.2316
11888TIP3    H135609   1.902   6.459   2.147  0.0477 -3.1672 -0.8552
11888TIP3    H235610   1.780   6.452   2.237  0.7211  1.6636  0.7543
11889TIP3   OH235611   3.080   0.132   0.132 -0.0711 -0.1037  0.2206
11889TIP3    H135612   3.002   0.089   0.099 -0.1375 -0.6891  1.1223
11889TIP3    H235613   3.153   0.084   0.092 -0.1358  0.9645 -1.2917
11890TIP3   OH235614   1.787   3.602   5.573  0.2532 -0.3279  0.1596
11890TIP3    H135615   1.735   3.526   5.546 -0.1316 -0.9794  2.4641
11890TIP3    H235616   1.877   3.572   5.571  0.3250 -0.0728 -1.1816
11891TIP3   OH235617   4.342   0.849   4.569 -0.6764  0.4252  0.1845
11891TIP3    H135618   4.399   0.896   4.508  1.0374 -0.8659  0.7336
11891TIP3    H235619   4.260   0.898   4.567 -0.2896  1.1259 -2.2461
11892TIP3   OH235620   3.881   4.619   4.126 -0.1082 -0.0672  0.5464
11892TIP3    H135621   3.867   4.533   4.165  0.3975  0.0434  0.9935
11892TIP3    H235622   3.847   4.612   4.037  0.5737 -0.9478  0.3454
11893TIP3   OH235623   4.272   1.907   2.619 -0.1362 -0.1008 -0.4735
11893TIP3    H135624   4.256   1.852   2.696 -0.4287 -0.1330 -0.5545
11893TIP3    H235625   4.190   1.904   2.570  0.1131 -0.2309 -0.8846
11894TIP3   OH235626   1.541   4.454   0.933 -0.2631 -0.5553 -0.2725
11894TIP3    H135627   1.574   4.526   0.880 -0.2198  0.1559  0.6774
11894TIP3    H235628   1.532   4.381   0.873 -2.9924  0.9657 -1.9409
11895TIP3   OH235629   0.351   4.724   6.071  0.0609  0.1840  0.0739
11895TIP3    H135630   0.375   4.777   5.994 -0.7006  0.3710 -0.0474
11895TIP3    H235631   0.434   4.697   6.109  0.4500  0.3610 -0.6365
11896TIP3   OH235632   5.675   4.389   4.945  0.1846 -0.4015 -0.4712
11896TIP3    H135633   5.622   4.381   4.866  1.9381  1.9415 -2.0378
11896TIP3    H235634   5.757   4.345   4.924  0.8749  0.7089 -0.2325
11897TIP3   OH235635   7.155   1.378   5.721  0.3671  0.4451  0.0443
11897TIP3    H135636   7.128   1.375   5.813  0.9452  0.8446  0.2335
11897TIP3    H235637   7.150   1.288   5.691  0.4283  0.2742  0.5413
11898TIP3   OH235638   3.249   6.213   5.065  0.1787 -0.2217 -0.3926
11898TIP3    H135639   3.267   6.206   5.159  0.7265 -3.0995 -0.6051
11898TIP3    H235640   3.158   6.241   5.060  0.1567  0.0333  0.9907
11899TIP3   OH235641   8.151   1.890   1.248 -0.1027  0.2281  0.0307
11899TIP3    H135642   8.115   1.815   1.295 -2.7810  0.8337 -0.8785
11899TIP3    H235643   8.133   1.873   1.156  1.4352  0.9149 -0.4411
11900TIP3   OH235644   1.208   4.104   5.135 -0.5569  0.3001 -0.3218
11900TIP3    H135645   1.129   4.103   5.081  0.0375  0.5175 -1.2254
11900TIP3    H235646   1.266   4.039   5.095 -0.6803 -0.6845  1.0017
11901TIP3   OH235647   3.846   1.176   2.550  0.3140  0.3139  0.0235
11901TIP3    H135648   3.887   1.254   2.588 -2.5102  1.1258  1.7177
11901TIP3    H235649   3.864   1.107   2.614  2.0436 -0.2915 -1.0408
11902TIP3   OH235650   6.140   2.152   3.466 -0.3062 -0.0170  0.0344
11902TIP3    H135651   6.186   2.163   3.383 -0.0279 -1.3376  0.0059
11902TIP3    H235652   6.052   2.124   3.441 -0.2190 -0.4264  0.1801
11903TIP3   OH235653   8.164   6.318   6.215 -0.0350  0.2891  0.6023
11903TIP3    H135654   8.122   6.404   6.218  0.9501  0.7585  2.0854
11903TIP3    H235655   8.250   6.335   6.176  0.3328  0.0656  1.3028
11904TIP3   OH235656   1.085   1.160   0.441 -0.4835  0.7378 -0.5758
11904TIP3    H135657   1.135   1.192   0.365 -1.1099 -0.4797 -1.5430
11904TIP3    H235658   1.061   1.070   0.417 -0.9138  0.4121  0.9793
11905TIP3   OH235659   8.308   6.009   5.488 -0.5914 -0.1169 -0.3927
11905TIP3    H135660   8.266   5.923   5.482 -1.1875  0.1956 -0.7864
11905TIP3    H235661   8.262   6.063   5.423 -0.7061  0.7055  0.3583
11906TIP3   OH235662   8.020   7.847   5.238 -0.2801  0.4836 -0.4097
11906TIP3    H135663   7.945   7.795   5.210  1.2224 -0.5017 -2.9577
11906TIP3    H235664   8.076   7.784   5.285  0.1711  0.5178 -0.8922
11907TIP3   OH235665   6.228   5.398   5.541 -0.6887  0.1911 -0.3218
11907TIP3    H135666   6.303   5.374   5.486  0.7693  0.6539  1.3660
11907TIP3    H235667   6.195   5.479   5.503 -0.8408 -0.4140 -1.5293
11908TIP3   OH235668   2.576   6.496   3.025 -0.3407 -0.4465 -0.1756
11908TIP3    H135669   2.613   6.578   2.991  1.2547 -0.5963  1.0922
11908TIP3    H235670   2.486   6.518   3.048 -0.1543  0.7556 -0.5321
11909TIP3   OH235671   6.653   7.075   4.051  0.7054 -0.1201  0.4260
11909TIP3    H135672   6.678   7.132   3.978  0.0165  0.5506  0.7022
11909TIP3    H235673   6.566   7.106   4.077  0.0486 -1.6753  0.1991
11910TIP3   OH235674   5.677   4.968   0.963 -0.6166  0.1325 -0.2053
11910TIP3    H135675   5.612   4.916   1.011 -0.3995  1.3436  1.4887
11910TIP3    H235676   5.728   4.903   0.914 -1.0446 -1.1528  0.9842
11911TIP3   OH235677   3.013   4.212   5.617  0.5479 -0.1418 -0.8923
11911TIP3    H135678   3.075   4.252   5.557  1.9262  0.7326  0.9857
11911TIP3    H235679   3.047   4.123   5.631  0.6040 -0.1231 -0.9129
11912TIP3   OH235680   5.897   3.721   3.086  0.2526 -0.1834 -0.3378
11912TIP3    H135681   5.883   3.806   3.044 -0.3682 -1.2242 -2.3571
11912TIP3    H235682   5.813   3.677   3.080  0.1533 -0.4240  2.0589
11913TIP3   OH235683   5.491   4.655   6.171  0.6529  0.4505 -0.0774
11913TIP3    H135684   5.501   4.561   6.161  0.3353  0.5338 -1.4729
11913TIP3    H235685   5.440   4.666   6.251  0.7156 -0.5526  0.1087
11914TIP3   OH235686   1.960   6.592   1.538  0.5574 -0.1916 -0.1155
11914TIP3    H135687   1.979   6.565   1.448  0.0105  1.1300 -0.6455
11914TIP3    H235688   2.047   6.610   1.576  0.7657 -0.3919 -0.4877
11915TIP3   OH235689   5.476   2.028   5.204 -0.1164 -1.1182 -0.4996
11915TIP3    H135690   5.398   2.082   5.195 -0.2704 -0.9648  1.3371
11915TIP3    H235691   5.518   2.032   5.118 -0.7020  1.0370 -0.7496
11916TIP3   OH235692   5.859   3.708   6.371  0.1091 -0.0658 -0.4124
11916TIP3    H135693   5.878   3.779   6.433  0.1315 -0.0985 -0.3816
11916TIP3    H235694   5.764   3.710   6.360  0.2350  0.8973 -1.5152
11917TIP3   OH235695   3.949   5.828   0.955  0.1587 -0.4290 -0.0101
11917TIP3    H135696   4.008   5.886   1.003  0.5617  0.3753 -1.4323
11917TIP3    H235697   3.865   5.874   0.957  0.5486  0.3946 -1.3971
11918TIP3   OH235698   7.188   2.120   0.489 -0.6232  0.1913  0.0527
11918TIP3    H135699   7.221   2.123   0.579 -0.2872 -1.6687  0.0210
11918TIP3    H235700   7.093   2.127   0.497 -0.5296  1.1085  0.4602
11919TIP3   OH235701   2.044   3.871   1.235  0.1972 -0.5165 -0.0836
11919TIP3    H135702   1.994   3.867   1.316  0.1963  0.7002 -0.0039
11919TIP3    H235703   2.027   3.958   1.200  0.3276 -0.9612 -1.3193
11920TIP3   OH235704   6.493   3.206   5.582  0.2045 -0.0219 -0.2596
11920TIP3    H135705   6.568   3.250   5.542  0.8003 -0.3434  0.4594
11920TIP3    H235706   6.419   3.228   5.526  0.2084  2.8974  0.7231
11921TIP3   OH235707   7.470   5.542   5.956  0.1612 -0.0134  0.0089
11921TIP3    H135708   7.474   5.557   5.862 -0.6970  2.6415  0.3284
11921TIP3    H235709   7.543   5.481   5.974  0.1047 -0.8635 -2.3663
11922TIP3   OH235710   7.846   3.897   5.695  0.6954  0.0434 -0.0397
11922TIP3    H135711   7.811   3.985   5.706  0.1990 -0.0859 -0.5514
11922TIP3    H235712   7.898   3.882   5.774 -0.0245  0.4082  0.5115
11923TIP3   OH235713   4.018   0.914   4.643 -0.4629  0.2843 -0.4326
11923TIP3    H135714   3.947   0.973   4.616 -0.9464 -0.1678 -0.1435
11923TIP3    H235715   4.029   0.855   4.569 -0.8698 -0.0966 -0.1886
11924TIP3   OH235716   4.359   4.675   0.567 -0.0369  0.1498  0.6263
11924TIP3    H135717   4.437   4.730   0.566  1.0546 -1.3514 -1.0608
11924TIP3    H235718   4.338   4.661   0.475 -0.9488 -1.3385  1.0354
11925TIP3   OH235719   4.433   5.205   6.279 -0.1183 -0.4512  0.2689
11925TIP3    H135720   4.426   5.300   6.288  0.0130 -0.3881 -0.2465
11925TIP3    H235721   4.520   5.190   6.241 -1.0668 -0.5938 -2.0020
11926TIP3   OH235722   5.903   2.512   4.511 -0.5276 -0.1375 -0.1888
11926TIP3    H135723   5.930   2.521   4.419 -1.1229  0.7494 -0.2904
11926TIP3    H235724   5.809   2.534   4.510 -0.8058 -1.2562  0.4547
11927TIP3   OH235725   0.896   7.048   1.363 -0.3599 -0.6752 -0.2021
11927TIP3    H135726   0.921   7.085   1.447  0.7257  2.2029 -1.6578
11927TIP3    H235727   0.801   7.038   1.368 -0.6481  1.7894  0.5741
11928TIP3   OH235728   5.916   3.616   1.455 -0.5950 -0.2115 -0.2751
11928TIP3    H135729   5.983   3.592   1.391  2.6907  1.4868  2.2063
11928TIP3    H235730   5.913   3.542   1.516 -0.7532 -0.1618 -0.2211
11929TIP3   OH235731   7.261   2.865   0.583 -0.4088 -0.0373 -0.2933
11929TIP3    H135732   7.261   2.961   0.578 -0.1167  0.2138  2.7007
11929TIP3    H235733   7.182   2.839   0.535 -1.5056  1.8447  0.3786
11930TIP3   OH235734   7.418   1.649   1.768 -0.1784 -0.1931 -0.3663
11930TIP3    H135735   7.346   1.694   1.811 -1.3915 -0.2903 -2.1575
11930TIP3    H235736   7.388   1.558   1.758  0.1553 -0.2304 -1.1493
11931TIP3   OH235737   4.312   0.413   1.794 -0.0979 -0.5130 -0.7725
11931TIP3    H135738   4.296   0.503   1.822  0.6859 -0.8168  0.7356
11931TIP3    H235739   4.278   0.409   1.705  1.0549  1.6437 -1.3655
11932TIP3   OH235740   5.901   3.781   3.628  0.2422 -0.3768 -0.0611
11932TIP3    H135741   5.983   3.812   3.666  1.2283  0.8103 -2.8773
11932TIP3    H235742   5.915   3.688   3.611  0.8133 -0.2945 -0.0334
11933TIP3   OH235743   1.856   3.019   1.710  0.2901  0.0557 -0.9356
11933TIP3    H135744   1.878   3.062   1.792 -0.3537 -0.8516 -0.2637
11933TIP3    H235745   1.926   3.043   1.650 -0.6404  3.0721 -1.0069
11934TIP3   OH235746   6.844   7.032   3.509 -0.2410  0.2145  0.8567
11934TIP3    H135747   6.929   7.026   3.551  0.4943 -0.4715 -0.6536
11934TIP3    H235748   6.839   6.954   3.453 -2.4148 -0.4832  1.8719
11935TIP3   OH235749   5.732   7.563   6.612  0.4847 -0.0028 -0.1001
11935TIP3    H135750   5.649   7.520   6.633 -0.6363  1.4369 -1.3705
11935TIP3    H235751   5.742   7.630   6.679  0.9564 -0.5707  0.4098
11936TIP3   OH235752   0.404   6.116   6.775 -0.3245 -0.2627  0.2545
11936TIP3    H135753   0.483   6.159   6.742 -0.1251  0.1021  1.1879
11936TIP3    H235754   0.356   6.091   6.696  0.7335 -0.5169 -0.3220
11937TIP3   OH235755   6.883   5.550   1.633 -0.2393  0.1153  0.1923
11937TIP3    H135756   6.916   5.615   1.571  0.8207 -0.6585 -0.0783
11937TIP3    H235757   6.817   5.597   1.683  0.5212  1.4193  0.0256
11938TIP3   OH235758   6.863   5.665   1.387 -0.1722  0.1787  0.8038
11938TIP3    H135759   6.909   5.746   1.407  0.9163 -0.6412  1.6918
11938TIP3    H235760   6.805   5.689   1.314  1.6292  1.2370 -0.3674
11939TIP3   OH235761   7.025   4.417   1.215  0.0781 -0.1579  0.4104
11939TIP3    H135762   7.016   4.475   1.139  1.0226 -0.2734  0.2007
11939TIP3    H235763   6.956   4.352   1.204 -1.5990  1.3985  1.1024
11940TIP3   OH235764   5.937   1.923   4.316  0.3105  0.3367 -0.2860
11940TIP3    H135765   5.849   1.889   4.305  0.8427 -1.4584  0.5737
11940TIP3    H235766   5.943   1.996   4.254 -2.3890  1.8266  1.0405
11941TIP3   OH235767   8.221   3.095   1.060  0.2034  0.4390 -0.0762
11941TIP3    H135768   8.191   3.158   0.995  1.7603  0.0477 -1.2140
11941TIP3    H235769   8.159   3.022   1.053  1.2039 -0.2635 -2.2343
11942TIP3   OH235770   4.475   7.291   4.728  0.2100  0.0188  0.2356
11942TIP3    H135771   4.433   7.314   4.811 -2.2906 -1.5832 -0.4696
11942TIP3    H235772   4.403   7.290   4.665  1.6722 -0.9370 -1.5032
11943TIP3   OH235773   3.679   1.267   2.898  0.1027 -0.4450 -0.0860
11943TIP3    H135774   3.750   1.236   2.953 -0.5162 -1.7629  0.0026
11943TIP3    H235775   3.646   1.345   2.943  1.9051  0.6097 -0.4876
11944TIP3   OH235776   7.878   2.366   0.091 -0.0842 -0.4891 -0.2499
11944TIP3    H135777   7.825   2.294   0.127  2.2709 -1.1417  2.2329
11944TIP3    H235778   7.905   2.416   0.167  1.7676  0.5957 -1.5505
11945TIP3   OH235779   0.411   7.294   3.841  0.2500  0.5712 -0.7781
11945TIP3    H135780   0.393   7.202   3.862  1.4707  0.1903 -1.2959
11945TIP3    H235781   0.342   7.343   3.885 -3.8428 -0.8862 -4.8333
11946TIP3   OH235782   6.965   0.850   0.879  0.1046  0.8194  0.1100
11946TIP3    H135783   7.057   0.832   0.901 -0.1301 -0.1714  0.3044
11946TIP3    H235784   6.916   0.781   0.924 -0.5389 -0.2193 -2.0915
11947TIP3   OH235785   1.310   2.964   0.042  0.1700  0.0282 -0.3824
11947TIP3    H135786   1.294   2.891  -0.018  0.9787  0.3464 -1.0006
11947TIP3    H235787   1.384   3.011   0.003  0.8058  0.1580  0.9360
11948TIP3   OH235788   6.406   4.863   2.283 -0.2906  0.0167 -0.1335
11948TIP3    H135789   6.458   4.943   2.274 -0.9254  0.5483  0.7443
11948TIP3    H235790   6.327   4.892   2.329 -0.1438 -1.2882  0.9676
11949TIP3   OH235791   6.985   1.131   5.084  0.2058 -0.0211 -0.3377
11949TIP3    H135792   6.904   1.083   5.067  0.3918 -0.7962  0.7981
11949TIP3    H235793   6.993   1.192   5.012 -1.3539  0.0130 -0.5099
11950TIP3   OH235794   4.288   1.509   0.310 -0.7535 -0.4680 -0.3000
11950TIP3    H135795   4.341   1.486   0.233 -0.9282  0.4483 -0.7130
11950TIP3    H235796   4.337   1.475   0.384  0.1914 -0.0566 -0.7125
11951TIP3   OH235797   7.661   7.410   4.780 -0.2431 -0.1700 -0.2630
11951TIP3    H135798   7.674   7.344   4.712 -0.7980  1.0978 -1.6589
11951TIP3    H235799   7.587   7.376   4.831  1.1330 -1.8812  0.7396
11952TIP3   OH235800   3.439   5.141   4.276  0.2818 -0.0693 -0.3144
11952TIP3    H135801   3.355   5.103   4.248  0.6147 -0.1906 -1.1666
11952TIP3    H235802   3.494   5.065   4.295  0.2836  0.0109  0.0159
11953TIP3   OH235803   0.099   1.866   6.702 -0.1359 -0.2416 -0.0570
11953TIP3    H135804   0.135   1.955   6.705  0.2069 -0.3825 -0.0111
11953TIP3    H235805   0.168   1.813   6.662  0.5190 -0.8924  1.8175
11954TIP3   OH235806   0.248   7.461   3.970 -0.5309 -0.1373 -0.4792
11954TIP3    H135807   0.209   7.500   4.048  1.4290  2.4972 -0.6846
11954TIP3    H235808   0.224   7.522   3.899  1.2832 -0.1285 -1.1269
11955TIP3   OH235809   5.468   7.111   5.282 -0.9751 -0.0800 -0.1175
11955TIP3    H135810   5.561   7.127   5.295 -1.0150  0.3589 -0.3498
11955TIP3    H235811   5.453   7.025   5.320 -0.5958  0.1065  0.4639
11956TIP3   OH235812   4.729   1.111   3.954  0.6702  0.7542  0.3136
11956TIP3    H135813   4.768   1.173   3.892  0.7685  1.0837  0.7037
11956TIP3    H235814   4.637   1.105   3.926 -0.0064  3.0428  1.7922
11957TIP3   OH235815   7.863   0.652   2.369 -0.2674  0.1098  0.0868
11957TIP3    H135816   7.786   0.701   2.339 -0.5822  0.2495  1.0536
11957TIP3    H235817   7.849   0.563   2.336 -0.3119  0.3800 -0.6389
11958TIP3   OH235818   6.380   6.946   6.652  0.2009 -0.4533  0.5603
11958TIP3    H135819   6.440   6.876   6.677  0.0806 -1.4148 -1.6175
11958TIP3    H235820   6.301   6.930   6.704  0.1722 -1.9614  0.0907
11959TIP3   OH235821   5.552   1.042   5.431  0.0706 -0.7613  0.2811
11959TIP3    H135822   5.567   0.975   5.364 -1.7400  0.5978 -1.6437
11959TIP3    H235823   5.457   1.040   5.445  0.2220  0.1537  1.5738
11960TIP3   OH235824   2.002   2.377   3.364  0.0094  0.3738  0.5995
11960TIP3    H135825   1.990   2.364   3.458 -1.0653 -0.2298  0.3849
11960TIP3    H235826   2.061   2.453   3.358  2.8470 -1.5643  1.8098
11961TIP3   OH235827   0.414   4.640   2.114  0.0596  0.0009  0.0302
11961TIP3    H135828   0.489   4.678   2.070  0.4904  0.3178  1.0109
11961TIP3    H235829   0.440   4.635   2.206 -1.3960  0.8333  0.5231
11962TIP3   OH235830   7.819   1.425   0.895  0.2364 -0.2311  0.0390
11962TIP3    H135831   7.900   1.410   0.846  1.4588  2.5749  0.9963
11962TIP3    H235832   7.848   1.466   0.977 -2.0916 -0.3393  0.9939
11963TIP3   OH235833   4.586   6.556   2.141 -0.2868  0.3918  0.2682
11963TIP3    H135834   4.552   6.519   2.060  1.1860 -1.5051  0.4546
11963TIP3    H235835   4.670   6.513   2.154  0.4321  2.1180  1.7848
11964TIP3   OH235836   7.253   0.529   0.085 -0.2032  0.0487  0.4719
11964TIP3    H135837   7.173   0.569   0.050  0.4530 -0.3758 -1.6572
11964TIP3    H235838   7.283   0.590   0.152 -0.9827  1.4824 -0.4307
11965TIP3   OH235839   1.155   3.242   1.498 -0.2479  0.2461 -0.1616
11965TIP3    H135840   1.185   3.156   1.530 -0.5998  0.2404  0.1634
11965TIP3    H235841   1.218   3.265   1.430 -0.0151 -0.1668 -0.0941
11966TIP3   OH235842   0.894   2.969   2.526  0.1578  0.4713  0.4309
11966TIP3    H135843   0.853   3.025   2.461  0.9677 -0.2671 -0.7603
11966TIP3    H235844   0.847   2.987   2.607 -0.4770  1.8530 -0.2245
11967TIP3   OH235845   0.874   6.063   0.323  0.0787 -0.3648  0.1786
11967TIP3    H135846   0.789   6.029   0.352 -0.6782  0.2899 -1.1691
11967TIP3    H235847   0.924   5.986   0.298 -0.7996 -0.6606 -0.7396
11968TIP3   OH235848   4.238   0.259   2.890 -0.1164  0.2025 -0.3030
11968TIP3    H135849   4.202   0.287   2.975 -0.6951 -1.1958 -0.0513
11968TIP3    H235850   4.202   0.171   2.877  1.2707 -0.2696 -1.2278
11969TIP3   OH235851   8.065   1.188   6.035  0.3456  0.4715  0.4053
11969TIP3    H135852   8.158   1.178   6.052  0.7020  0.8922 -1.1419
11969TIP3    H235853   8.039   1.105   5.995  0.5446  1.0761 -1.0473
11970TIP3   OH235854   0.688   0.204   3.672 -0.0510  0.0837  0.0923
11970TIP3    H135855   0.674   0.296   3.691  1.9745  0.2292  1.0727
11970TIP3    H235856   0.748   0.173   3.739 -0.2287 -1.8244 -0.5403
11971TIP3   OH235857   4.451   3.153   3.293  0.2665  0.5069  0.3809
11971TIP3    H135858   4.401   3.214   3.239 -0.0188  0.3703  0.4896
11971TIP3    H235859   4.520   3.207   3.333  0.4479  0.6163 -0.0782
11972TIP3   OH235860   8.241   0.913   0.025 -0.4076 -0.3086  0.2455
11972TIP3    H135861   8.206   0.944  -0.059  0.7244 -0.4528 -0.2919
11972TIP3    H235862   8.257   0.993   0.075 -3.0872 -0.2635  1.2122
11973TIP3   OH235863   5.091   2.482   1.282 -0.8105  0.0506 -0.4492
11973TIP3    H135864   5.028   2.435   1.336  0.6980 -0.3331  1.0660
11973TIP3    H235865   5.101   2.427   1.204 -1.1549 -0.6949  0.0189
11974TIP3   OH235866   6.751   0.848   0.325  0.3766 -0.4764  0.6687
11974TIP3    H135867   6.697   0.772   0.347  0.7619 -0.8243  0.4215
11974TIP3    H235868   6.764   0.843   0.230  0.1523  0.0681  0.6011
11975TIP3   OH235869   0.412   3.108   4.244 -0.1997  0.0095  0.0858
11975TIP3    H135870   0.372   3.026   4.214  0.5951 -0.5452  0.4901
11975TIP3    H235871   0.456   3.084   4.326 -0.4098  0.9688  0.4830
11976TIP3   OH235872   8.202   3.847   6.604 -0.2719 -0.0486 -0.3507
11976TIP3    H135873   8.146   3.896   6.664 -1.7558 -1.0442 -0.8638
11976TIP3    H235874   8.202   3.900   6.523  2.3879  1.7203  0.6477
11977TIP3   OH235875   3.402   0.567   6.631  0.3754 -0.2304 -0.0045
11977TIP3    H135876   3.447   0.525   6.705 -0.0396  0.6461  0.7688
11977TIP3    H235877   3.342   0.629   6.672 -0.3199 -0.1702 -1.0726
11978TIP3   OH235878   7.405   4.544   4.341 -0.2990  0.0077  0.6593
11978TIP3    H135879   7.459   4.540   4.262  0.0460 -0.3572  0.9094
11978TIP3    H235880   7.460   4.590   4.405  0.0305 -1.0328  1.1525
11979TIP3   OH235881   5.617   0.708   6.254  0.0587 -0.7032  0.5113
11979TIP3    H135882   5.690   0.672   6.204  0.3569  1.6718 -0.9473
11979TIP3    H235883   5.657   0.774   6.311 -0.9033  0.9126 -0.5855
11980TIP3   OH235884   6.236   1.393   4.731 -0.0761 -0.0896 -0.2589
11980TIP3    H135885   6.152   1.347   4.725  0.3427 -0.8925 -0.2150
11980TIP3    H235886   6.254   1.399   4.825 -0.4645  0.8169 -0.2337
11981TIP3   OH235887   2.265   4.784   4.626  0.2771 -0.4932 -0.1031
11981TIP3    H135888   2.209   4.755   4.697 -0.7059  0.6888 -0.3612
11981TIP3    H235889   2.354   4.768   4.658 -0.1660 -1.0185  0.9183
11982TIP3   OH235890   6.529   4.109   4.010 -1.0063 -0.3844  0.1183
11982TIP3    H135891   6.592   4.046   3.977 -0.9391 -0.3196  0.1229
11982TIP3    H235892   6.566   4.195   3.989 -0.7634 -0.3358  0.7184
11983TIP3   OH235893   4.925   4.035   0.500  0.3528 -0.4459  0.0168
11983TIP3    H135894   4.833   4.050   0.479  0.5774 -0.4938 -1.0597
11983TIP3    H235895   4.946   4.101   0.566 -0.4155 -0.3649  0.1919
11984TIP3   OH235896   7.427   4.954   2.929  0.2049  0.2630  0.1849
11984TIP3    H135897   7.472   5.025   2.884  2.0981 -0.4320  0.8827
11984TIP3    H235898   7.469   4.875   2.895 -0.7494 -0.4427  0.6141
11985TIP3   OH235899   7.612   2.218   0.916 -0.3960  0.1300  0.2587
11985TIP3    H135900   7.702   2.187   0.930 -0.9221 -1.2199  0.8156
11985TIP3    H235901   7.606   2.232   0.822 -0.4899 -2.8707 -0.2972
11986TIP3   OH235902   2.161   2.290   0.537  0.6527  0.3090 -0.1571
11986TIP3    H135903   2.145   2.373   0.582  1.3289 -0.3930  1.4666
11986TIP3    H235904   2.213   2.238   0.599 -1.1505 -1.9640 -0.3779
11987TIP3   OH235905   3.506   3.073   5.361  0.0417 -0.3343 -0.2081
11987TIP3    H135906   3.501   3.004   5.295  0.0710 -2.3743  1.8062
11987TIP3    H235907   3.442   3.048   5.427  1.3872  0.5062  1.5062
11988TIP3   OH235908   0.723   5.242   4.316 -0.5933 -0.6184 -0.2335
11988TIP3    H135909   0.702   5.299   4.243 -0.2376 -0.0941  0.0644
11988TIP3    H235910   0.678   5.281   4.391  0.7163  0.0522  0.2436
11989TIP3   OH235911   4.284   4.635   5.854 -0.1188  0.3391  0.1226
11989TIP3    H135912   4.236   4.553   5.861  0.5661 -0.4725 -3.0186
11989TIP3    H235913   4.219   4.698   5.825  0.0264  0.0114 -0.9583
11990TIP3   OH235914   7.150   6.463   5.400 -0.0636  0.0576 -0.6257
11990TIP3    H135915   7.062   6.424   5.391 -0.2783  0.4854 -0.3949
11990TIP3    H235916   7.185   6.426   5.480 -0.7169  1.1826  0.2125
11991TIP3   OH235917   7.390   6.811   0.685 -0.5526 -0.4030  0.0627
11991TIP3    H135918   7.312   6.810   0.629  0.2380  1.9238 -1.2080
11991TIP3    H235919   7.433   6.727   0.668 -2.1881 -1.2530 -0.0425
11992TIP3   OH235920   7.477   0.550   1.460  0.3043 -0.0236  0.0465
11992TIP3    H135921   7.543   0.495   1.502  0.2087  0.1430  0.4220
11992TIP3    H235922   7.452   0.503   1.380 -0.4363 -0.9757  0.8196
11993TIP3   OH235923   5.939   5.364   4.246  0.2253 -0.1992 -0.1496
11993TIP3    H135924   5.880   5.395   4.314 -0.8407  1.8736 -1.8703
11993TIP3    H235925   6.008   5.317   4.293 -0.9638  0.2800  2.2295
11994TIP3   OH235926   2.444   0.121   2.056 -0.3643 -0.2979 -0.2210
11994TIP3    H135927   2.481   0.034   2.041  1.7260  0.5489 -0.3281
11994TIP3    H235928   2.513   0.169   2.102 -1.1418  1.5348 -0.8670
11995TIP3   OH235929   0.688   1.116   5.000 -0.0534  0.1742 -0.3954
11995TIP3    H135930   0.752   1.113   4.929 -0.2766 -1.3780 -0.5564
11995TIP3    H235931   0.705   1.200   5.044  0.7396  0.7040 -1.6563
11996TIP3   OH235932   6.341   4.545   5.394 -0.1321 -0.2232  0.2593
11996TIP3    H135933   6.323   4.551   5.488 -0.3838  2.2859  0.1132
11996TIP3    H235934   6.254   4.545   5.353 -0.1379 -3.5822  0.0121
11997TIP3   OH235935   3.651   7.383   6.360 -0.1466  1.1099  0.1097
11997TIP3    H135936   3.704   7.456   6.392  0.5033  1.0046 -0.6918
11997TIP3    H235937   3.714   7.312   6.346 -0.8762  0.0717  1.7193
11998TIP3   OH235938   4.531   0.274   3.946  0.2299  0.6029  0.5226
11998TIP3    H135939   4.578   0.223   4.011 -2.3125 -1.4653  0.9093
11998TIP3    H235940   4.552   0.233   3.862  0.5912  0.8790  0.4793
11999TIP3   OH235941   0.751   3.568   2.708 -0.7501  0.5467  0.0271
11999TIP3    H135942   0.669   3.543   2.667 -1.7108  0.7152  1.7531
11999TIP3    H235943   0.811   3.584   2.635 -1.8014 -1.0016 -1.2334
12000TIP3   OH235944   3.471   4.109   4.850  0.0470  0.5782 -0.4846
12000TIP3    H135945   3.484   4.097   4.756  0.1593 -2.3642 -0.1664
12000TIP3    H235946   3.377   4.097   4.863  0.4243 -2.3142  0.1013
12001TIP3   OH235947   4.160   5.361   0.603  0.0833 -0.2918  0.1395
12001TIP3    H135948   4.224   5.325   0.664 -0.5851 -2.1693 -0.1826
12001TIP3    H235949   4.082   5.378   0.657 -0.4455 -1.7775 -0.1160
12002TIP3   OH235950   2.075   6.141   1.668 -0.1091  0.0042 -0.0553
12002TIP3    H135951   2.063   6.221   1.720  0.0706  1.0514 -1.5670
12002TIP3    H235952   1.986   6.112   1.649 -0.1918  0.4871 -0.4342
12003TIP3   OH235953   4.830   5.951   5.777  0.1526  0.2805 -0.6316
12003TIP3    H135954   4.755   5.895   5.799  2.2188 -2.0374  1.0440
12003TIP3    H235955   4.828   5.957   5.682 -0.5000 -2.2394 -0.8380
12004TIP3   OH235956   2.629   4.201   4.820 -0.1693 -0.2666  0.0803
12004TIP3    H135957   2.617   4.127   4.879 -1.9926 -1.3696 -1.5833
12004TIP3    H235958   2.550   4.254   4.831  0.7361  1.0207  0.6312
12005TIP3   OH235959   6.769   2.558   2.957  0.4786 -0.4433  0.2259
12005TIP3    H135960   6.846   2.576   2.903  0.1498 -0.5314 -0.2844
12005TIP3    H235961   6.726   2.643   2.964 -0.6700 -0.8152 -1.5500
12006TIP3   OH235962   2.942   4.001   1.088  0.0711 -0.2160  0.9619
12006TIP3    H135963   2.879   3.945   1.043  1.7049 -0.7114 -0.8465
12006TIP3    H235964   3.002   4.031   1.019 -0.1449  3.0135  1.9990
12007TIP3   OH235965   5.083   7.462   3.835 -0.1616  0.7403 -0.0976
12007TIP3    H135966   5.008   7.471   3.776  0.2190  0.5879 -0.6144
12007TIP3    H235967   5.046   7.466   3.923 -0.9015 -0.3047 -0.3407
12008TIP3   OH235968   8.251   7.086   2.463 -0.1820  0.0631  0.2638
12008TIP3    H135969   8.314   7.079   2.391 -0.5800 -1.1289  0.0046
12008TIP3    H235970   8.166   7.086   2.419 -0.4044  2.9806  0.5025
12009TIP3   OH235971   4.357   3.641   1.413  0.5564 -0.3753  0.5142
12009TIP3    H135972   4.367   3.569   1.351  0.8870  0.7828 -0.8224
12009TIP3    H235973   4.262   3.651   1.423  0.5035 -1.4384  1.2883
12010TIP3   OH235974   4.977   5.211   3.796 -0.2589  0.2713 -0.4052
12010TIP3    H135975   4.946   5.210   3.887  0.3758  1.8404 -0.1436
12010TIP3    H235976   4.938   5.132   3.757 -0.2250 -0.6462  1.3122
12011TIP3   OH235977   0.318   4.938   0.781  0.3878 -0.3466 -0.5437
12011TIP3    H135978   0.340   4.964   0.870  1.0825 -0.6462 -0.6237
12011TIP3    H235979   0.271   4.855   0.792  2.8027 -1.8005 -0.5803
12012TIP3   OH235980   6.517   0.738   3.752  0.5297  0.0794  0.3847
12012TIP3    H135981   6.447   0.673   3.761  0.5994  0.2083  2.2794
12012TIP3    H235982   6.471   0.821   3.742  0.4412 -0.1743 -1.9563
12013TIP3   OH235983   4.995   1.448   2.508  0.0398  0.2208  0.3575
12013TIP3    H135984   4.918   1.503   2.490 -0.1893 -0.1247  0.2810
12013TIP3    H235985   4.971   1.362   2.475  1.5719  0.7485 -2.5132
12014TIP3   OH235986   6.105   1.263   5.448  0.0861  0.9539 -0.2894
12014TIP3    H135987   6.025   1.313   5.432  0.0752  1.0203 -0.0215
12014TIP3    H235988   6.075   1.178   5.479  0.1338  1.4724  1.2804
12015TIP3   OH235989   3.977   1.582   2.923 -0.0034  0.1636  0.0517
12015TIP3    H135990   3.882   1.585   2.931 -0.0393  0.5318 -0.4469
12015TIP3    H235991   4.009   1.574   3.013 -0.4815  0.8006  0.2863
12016TIP3   OH235992   5.175   6.866   0.656  0.3232  0.0251 -0.1095
12016TIP3    H135993   5.129   6.917   0.722  0.7514 -0.6462  0.7172
12016TIP3    H235994   5.183   6.778   0.693 -1.4175 -0.9963 -1.9718
12017TIP3   OH235995   2.924   5.475   3.140  0.1424  0.2807  0.0633
12017TIP3    H135996   2.984   5.502   3.070  0.1693 -0.3006 -0.1432
12017TIP3    H235997   2.841   5.518   3.118 -0.0989 -0.5853 -0.8266
12018TIP3   OH235998   4.451   1.174   2.746  0.7770 -0.2761 -0.5004
12018TIP3    H135999   4.463   1.236   2.818  0.4856  0.3560 -0.9844
12018TIP3    H236000   4.356   1.175   2.729  1.1008  1.7454 -2.7430
12019TIP3   OH236001   0.900   0.498   1.729 -0.2019 -0.0403  0.1234
12019TIP3    H136002   0.960   0.567   1.700  0.7015 -1.3035 -1.1190
12019TIP3    H236003   0.911   0.495   1.824 -0.5735  1.7800  0.2682
12020TIP3   OH236004   0.153   5.074   1.732 -0.0972 -0.7415  0.7302
12020TIP3    H136005   0.232   5.128   1.725 -0.0691 -0.7433  1.0490
12020TIP3    H236006   0.081   5.134   1.714  0.0512 -1.0717 -1.3148
12021TIP3   OH236007   5.521   2.656   5.207 -0.0828  0.1566 -0.2078
12021TIP3    H136008   5.555   2.598   5.139 -2.7712  0.6281 -2.1136
12021TIP3    H236009   5.448   2.606   5.246  0.0426  0.7643  0.8483
12022TIP3   OH236010   0.054   1.773   6.136  0.1184 -0.2289 -0.5326
12022TIP3    H136011   0.048   1.764   6.041  0.1237 -0.5723 -0.5039
12022TIP3    H236012   0.143   1.747   6.157  1.1021  2.6365 -0.7199
12023TIP3   OH236013   8.094   0.206   3.978  0.3845  0.0748  0.0632
12023TIP3    H136014   8.059   0.221   3.890  0.0804  1.3893  0.3873
12023TIP3    H236015   8.149   0.282   3.996  1.2211 -0.6418  0.6532
12024TIP3   OH236016   3.508   7.285   2.798 -0.2669  0.1790  0.1549
12024TIP3    H136017   3.466   7.364   2.830 -0.3536 -0.3627  1.4299
12024TIP3    H236018   3.601   7.298   2.818  0.0457  0.8339 -1.5294
12025TIP3   OH236019   1.556   5.254   1.314  0.5176 -0.7096 -0.2120
12025TIP3    H136020   1.539   5.347   1.299  1.4824 -0.1108  1.9450
12025TIP3    H236021   1.617   5.229   1.244 -0.5900 -0.0349 -1.4511
12026TIP3   OH236022   1.049   0.588   0.893 -0.2033 -0.1175  0.0281
12026TIP3    H136023   1.036   0.633   0.977 -2.9153 -1.3925  0.3835
12026TIP3    H236024   0.995   0.636   0.831  0.1150 -0.4395 -0.5042
12027TIP3   OH236025   8.187   3.346   2.052  0.0950 -0.0832  0.7691
12027TIP3    H136026   8.179   3.336   1.957  1.8895 -1.1033  0.6667
12027TIP3    H236027   8.236   3.428   2.063 -0.6978  0.3865  0.8619
12028TIP3   OH236028   5.009   2.252   1.179 -0.4259  0.0297  0.1207
12028TIP3    H136029   4.938   2.247   1.115 -0.4791 -0.8530  0.2289
12028TIP3    H236030   5.004   2.168   1.226  0.7532 -0.0850  0.0640
12029TIP3   OH236031   4.198   6.097   6.774 -0.7804 -1.0394  0.0452
12029TIP3    H136032   4.108   6.078   6.799 -1.2282  0.4989 -0.3266
12029TIP3    H236033   4.238   6.011   6.762 -2.1429 -1.7452  0.3731
12030TIP3   OH236034   7.568   5.953   3.926 -0.6575  0.5168 -0.1297
12030TIP3    H136035   7.659   5.931   3.942 -1.6076 -3.0049  1.5089
12030TIP3    H236036   7.555   5.937   3.832  0.5710  2.2096 -0.6423
12031TIP3   OH236037   3.472   7.502   2.964  0.3116 -0.6062 -0.2337
12031TIP3    H136038   3.514   7.450   3.033 -0.2467  0.7888  1.2511
12031TIP3    H236039   3.515   7.588   2.971 -1.9330  0.5221  0.5850
12032TIP3   OH236040   1.667   7.559   5.250 -0.5765  0.0752 -0.3582
12032TIP3    H136041   1.721   7.583   5.174  1.6902 -1.1481  0.7716
12032TIP3    H236042   1.622   7.479   5.223  1.2233 -1.0998 -0.0435
12033TIP3   OH236043   4.012   2.013   4.207  0.6994 -0.2457  0.5215
12033TIP3    H136044   4.070   2.061   4.266  1.1666 -1.1761  0.8360
12033TIP3    H236045   3.924   2.034   4.238  0.8733  0.8054  0.3343
12034TIP3   OH236046   5.849   2.463   1.418  0.3619  0.0814 -0.2338
12034TIP3    H136047   5.863   2.538   1.360  1.4788  0.9166  1.0392
12034TIP3    H236048   5.878   2.387   1.367 -0.9242  0.4556 -1.5951
12035TIP3   OH236049   8.204   4.230   1.150 -0.6658 -0.4765  0.1191
12035TIP3    H136050   8.154   4.196   1.076  0.7832 -2.0699 -0.1766
12035TIP3    H236051   8.233   4.317   1.122 -0.8396 -0.7235 -0.8455
12036TIP3   OH236052   0.048   6.284   2.196 -0.0580 -0.4525  0.9665
12036TIP3    H136053   0.027   6.195   2.223 -0.5087  0.1454  2.6868
12036TIP3    H236054   0.029   6.338   2.272 -0.3719  1.2167 -0.2273
12037TIP3   OH236055   0.090   1.046   3.787 -0.0457  0.0665 -0.0335
12037TIP3    H136056   0.099   1.093   3.870  0.7021  0.3716 -0.2838
12037TIP3    H236057   0.002   1.068   3.757 -0.4172 -0.2375  0.7879
12038TIP3   OH236058   1.796   6.603   0.973 -0.1208  0.5873 -0.4669
12038TIP3    H136059   1.719   6.553   1.001 -1.1093  2.0544 -0.4449
12038TIP3    H236060   1.837   6.547   0.907  0.1018 -1.2232  1.1086
12039TIP3   OH236061   0.337   4.252   3.417 -0.1784 -0.4487 -0.6164
12039TIP3    H136062   0.366   4.190   3.351 -1.3767 -0.8003 -0.8384
12039TIP3    H236063   0.301   4.325   3.368 -1.5258 -0.9274 -0.3772
12040TIP3   OH236064   0.287   6.337   6.564  0.6303 -0.1899  0.1740
12040TIP3    H136065   0.201   6.295   6.560  0.3316  0.3530  0.7253
12040TIP3    H236066   0.273   6.423   6.524  1.2645 -0.6290 -1.0514
12041TIP3   OH236067   2.228   4.007   1.866  0.0603  0.0116  0.7422
12041TIP3    H136068   2.323   4.010   1.854  0.1207  1.7745  1.3900
12041TIP3    H236069   2.216   4.002   1.960 -0.5042 -0.7036  0.6398
12042TIP3   OH236070   2.353   6.308   1.948  0.5908  0.5384  0.0160
12042TIP3    H136071   2.268   6.266   1.934  1.0454 -0.2500 -0.4605
12042TIP3    H236072   2.389   6.265   2.025 -0.0643  1.9156  1.1454
12043TIP3   OH236073   7.720   6.027   1.350  0.6293  0.4026  0.5527
12043TIP3    H136074   7.680   6.112   1.330 -1.1503 -0.0525  1.8771
12043TIP3    H236075   7.767   6.041   1.432 -0.4936 -0.0702  1.3112
12044TIP3   OH236076   3.786   3.710   6.482 -0.6879  0.2001  0.3246
12044TIP3    H136077   3.825   3.775   6.423 -1.1361 -0.0073 -0.2126
12044TIP3    H236078   3.744   3.762   6.551 -0.2058  0.4470  0.4381
12045TIP3   OH236079   5.167   3.940   0.435 -0.6535 -0.2702  0.3783
12045TIP3    H136080   5.166   3.911   0.526  0.0283  1.4810  0.9959
12045TIP3    H236081   5.087   3.992   0.426 -0.6486 -0.3222  0.0318
12046TIP3   OH236082   6.552   6.505   3.569 -0.0402  0.3024 -0.1032
12046TIP3    H136083   6.628   6.448   3.578 -0.4543 -0.0829  1.2854
12046TIP3    H236084   6.513   6.480   3.486  0.8980 -0.0473 -0.4511
12047TIP3   OH236085   6.803   4.527   6.507  0.4199  0.4162 -0.3724
12047TIP3    H136086   6.853   4.481   6.574  1.1154 -0.5719 -1.5230
12047TIP3    H236087   6.865   4.542   6.436 -0.8671 -0.9377 -1.8972
12048TIP3   OH236088   2.668   4.188   2.011  0.3480  0.4972 -0.4510
12048TIP3    H136089   2.621   4.269   1.989  2.7676  1.5550 -2.2500
12048TIP3    H236090   2.751   4.218   2.047  0.1765 -1.2842  1.6002
12049TIP3   OH236091   4.659   5.715   2.606  0.0430  0.0318 -0.6901
12049TIP3    H136092   4.695   5.803   2.605  0.2555 -0.0526 -0.6184
12049TIP3    H236093   4.709   5.668   2.539  0.5074 -0.2545 -0.1593
12050TIP3   OH236094   0.479   7.345   6.766  0.0455  0.6872  0.0964
12050TIP3    H136095   0.431   7.311   6.691 -0.3738 -0.7198  0.9532
12050TIP3    H236096   0.431   7.310   6.842  2.2260 -0.5347  0.9872
12051TIP3   OH236097   3.276   6.882   6.641  0.0497  0.1332  0.1388
12051TIP3    H136098   3.313   6.806   6.687  0.8372  0.4741  0.0820
12051TIP3    H236099   3.230   6.931   6.709 -0.5194 -0.4160  0.1665
12052TIP3   OH236100   5.023   2.354   6.575  0.0057 -0.4837  0.2739
12052TIP3    H136101   5.057   2.422   6.517 -2.9110  2.6812  1.9380
12052TIP3    H236102   5.093   2.341   6.639  1.0413  0.1567 -0.6914
12053TIP3   OH236103   1.197   4.504   5.249  0.1190  0.1757 -0.5110
12053TIP3    H136104   1.246   4.459   5.180  4.1461  1.3778  1.2852
12053TIP3    H236105   1.204   4.597   5.227 -0.9306  0.4246  0.1303
12054TIP3   OH236106   4.605   2.082   1.512 -1.0059 -0.5117 -0.5755
12054TIP3    H136107   4.528   2.031   1.536 -0.9399  0.0985  1.0997
12054TIP3    H236108   4.679   2.024   1.529 -0.9157  0.1331  1.5650
12055TIP3   OH236109   2.939   6.285   2.687 -0.2996 -0.3415  0.5344
12055TIP3    H136110   3.035   6.276   2.689 -0.1560  0.8039 -0.5772
12055TIP3    H236111   2.922   6.354   2.624 -1.8250  0.3306  1.6184
12056TIP3   OH236112   0.885   5.658   1.085  0.5278  0.1093  0.6808
12056TIP3    H136113   0.959   5.718   1.073 -0.0113  1.0001  1.6466
12056TIP3    H236114   0.808   5.715   1.088 -0.0630 -0.6852  0.9774
12057TIP3   OH236115   0.196   2.822   3.152  0.4570 -0.0942 -0.5211
12057TIP3    H136116   0.262   2.877   3.110 -1.1853  1.5596 -1.0238
12057TIP3    H236117   0.140   2.883   3.200  0.2996 -1.6295  1.3772
12058TIP3   OH236118   2.122   2.412   1.806  0.4143  0.6409 -0.4234
12058TIP3    H136119   2.212   2.424   1.838 -0.2481 -0.2092  2.0282
12058TIP3    H236120   2.074   2.381   1.883 -2.1778  1.8238 -1.4546
12059TIP3   OH236121   2.067   4.756   0.207  0.0551  0.0189 -0.5034
12059TIP3    H136122   2.067   4.777   0.113  0.6187 -0.0383 -0.5202
12059TIP3    H236123   2.049   4.840   0.250 -0.2895  0.0294 -0.6627
12060TIP3   OH236124   5.343   3.122   6.397  0.2212 -0.1226  0.2232
12060TIP3    H136125   5.340   3.197   6.336  0.7137 -0.6008 -0.4047
12060TIP3    H236126   5.434   3.117   6.424  0.2254 -0.6181  0.1172
12061TIP3   OH236127   6.228   0.052   4.618  0.0149  0.2755  0.0600
12061TIP3    H136128   6.213   0.145   4.602 -1.3679 -0.4032 -3.2277
12061TIP3    H236129   6.141   0.014   4.625  0.4720 -1.1347 -1.3671
12062TIP3   OH236130   6.331   5.871   0.076  0.1246 -0.2915  0.3072
12062TIP3    H136131   6.280   5.922   0.138  3.1660 -0.9364  3.6885
12062TIP3    H236132   6.290   5.784   0.077 -1.4042  0.3799 -0.7266
12063TIP3   OH236133   5.022   3.807   1.618  0.6022  0.4808  0.1372
12063TIP3    H136134   5.074   3.726   1.614  1.1257  0.8512 -1.0189
12063TIP3    H236135   5.003   3.827   1.526 -2.7250 -0.3462  0.4908
12064TIP3   OH236136   1.536   6.051   0.554  0.1885  0.5242 -0.1316
12064TIP3    H136137   1.601   6.064   0.486  0.2731 -1.5345 -0.4916
12064TIP3    H236138   1.508   6.140   0.578  0.9199  1.3259 -2.0826
12065TIP3   OH236139   4.865   7.271   3.118 -0.9046 -0.0963 -0.5236
12065TIP3    H136140   4.900   7.212   3.184  2.4858  1.4336 -0.7673
12065TIP3    H236141   4.938   7.289   3.059 -2.0438  3.3248 -1.1720
12066TIP3   OH236142   7.930   1.776   0.571  0.3164  0.2412 -0.1253
12066TIP3    H136143   7.982   1.735   0.640  1.9973 -0.1626 -1.5650
12066TIP3    H236144   7.975   1.753   0.490 -1.3429  1.0779 -1.3454
12067TIP3   OH236145   3.589   4.547   4.195  0.2622  0.0084  0.2892
12067TIP3    H136146   3.537   4.531   4.116 -0.9217  2.7531  0.3950
12067TIP3    H236147   3.677   4.518   4.173 -0.3818 -0.7085 -1.4708
12068TIP3   OH236148   2.238   4.986   2.774 -0.2345  0.1057 -0.2681
12068TIP3    H136149   2.158   4.960   2.729  0.1153 -0.1379 -0.7709
12068TIP3    H236150   2.303   4.996   2.704  0.2859 -0.1267  0.1659
12069TIP3   OH236151   3.665   2.853   2.728 -0.1294 -0.3015  0.4202
12069TIP3    H136152   3.714   2.904   2.664 -1.0641 -0.9363 -0.8391
12069TIP3    H236153   3.732   2.814   2.784  0.7389 -0.1625 -0.5055
12070TIP3   OH236154   3.771   2.687   0.019 -0.4287 -0.2083 -0.1484
12070TIP3    H136155   3.815   2.773   0.021  0.9252 -0.8594  1.8315
12070TIP3    H236156   3.838   2.628  -0.016 -1.9006 -0.2787 -3.1190
12071TIP3   OH236157   6.415   0.961   5.264 -0.1232  0.3493  0.1185
12071TIP3    H136158   6.401   0.952   5.359 -1.3867  2.9068  0.2630
12071TIP3    H236159   6.490   1.021   5.257  1.9760 -2.1502 -0.6197
12072TIP3   OH236160   2.321   2.103   1.261  0.5448  1.1122  0.2841
12072TIP3    H136161   2.315   2.080   1.353 -1.5368  4.1906  1.0457
12072TIP3    H236162   2.408   2.143   1.252  1.2318 -0.2464  0.5562
12073TIP3   OH236163   7.291   4.092   2.436  0.1972 -0.5361  0.4401
12073TIP3    H136164   7.318   4.154   2.504  0.5981  0.2337 -0.3999
12073TIP3    H236165   7.340   4.012   2.455  0.8833 -0.0790  0.6207
12074TIP3   OH236166   5.962   7.439   6.517  0.4316  0.4337  0.0507
12074TIP3    H136167   5.977   7.483   6.434  1.2399 -1.2785 -0.7738
12074TIP3    H236168   5.868   7.450   6.533  0.2220  0.6603 -1.1815
12075TIP3   OH236169   3.764   5.881   2.296 -0.2726  0.0390 -0.7348
12075TIP3    H136170   3.690   5.907   2.350 -1.3772 -2.4777 -0.9089
12075TIP3    H236171   3.841   5.900   2.350 -1.2092 -0.1380  0.7018
12076TIP3   OH236172   8.195   4.980   2.639 -0.2435 -0.1626  0.0053
12076TIP3    H136173   8.138   5.035   2.586 -0.3927 -2.0741 -1.9816
12076TIP3    H236174   8.136   4.918   2.681  0.0375  0.3166  1.1294
12077TIP3   OH236175   5.608   5.357   2.251  0.1137 -0.4156  0.2056
12077TIP3    H136176   5.520   5.347   2.287 -0.5872  0.6191 -1.1315
12077TIP3    H236177   5.611   5.447   2.218  1.4013 -0.6782 -0.4833
12078TIP3   OH236178   0.307   7.746   4.186  0.4215  0.1842 -0.1138
12078TIP3    H136179   0.242   7.675   4.187  0.3466  0.2631  0.4407
12078TIP3    H236180   0.354   7.736   4.268  0.1037  1.0663  0.1784
12079TIP3   OH236181   6.110   3.993   1.153 -0.0560 -0.2047  0.1424
12079TIP3    H136182   6.182   3.955   1.104  0.2113 -0.3676  0.6512
12079TIP3    H236183   6.126   3.968   1.244 -2.2168 -2.5877 -0.0243
12080TIP3   OH236184   0.171   3.238   4.151  0.3003  0.1936 -0.8542
12080TIP3    H136185   0.244   3.193   4.193  0.9369  2.1939  0.3052
12080TIP3    H236186   0.211   3.312   4.105 -0.7781  0.0114 -2.1702
12081TIP3   OH236187   2.281   6.826   6.765  0.1752  0.1090  0.4663
12081TIP3    H136188   2.264   6.770   6.841  0.6990  0.0015  0.5143
12081TIP3    H236189   2.223   6.792   6.696  0.7310 -0.7314  0.3865
12082TIP3   OH236190   1.493   5.481   5.566  0.3615 -0.4748  0.3831
12082TIP3    H136191   1.559   5.439   5.622  0.5118 -1.0177 -0.1880
12082TIP3    H236192   1.411   5.436   5.589 -0.0807  1.0558  2.0037
12083TIP3   OH236193   4.757   5.933   2.442  0.4879 -0.4002  0.2562
12083TIP3    H136194   4.702   5.992   2.495 -0.7040 -0.0164 -1.3392
12083TIP3    H236195   4.828   5.989   2.411  0.5903 -0.3615  0.5508
12084TIP3   OH236196   7.676   7.174   0.210 -0.4268 -0.3574  0.6707
12084TIP3    H136197   7.621   7.217   0.275 -0.0941  1.7619 -0.3510
12084TIP3    H236198   7.759   7.222   0.214 -0.6817  0.4505 -1.8672
12085TIP3   OH236199   4.317   3.285   4.368  0.2838 -0.2945 -0.1984
12085TIP3    H136200   4.241   3.228   4.384  1.5822 -2.3858 -1.1089
12085TIP3    H236201   4.328   3.284   4.273  0.7175  1.0365 -0.1869
12086TIP3   OH236202   4.171   6.958   5.787 -0.0861  0.0919  0.5007
12086TIP3    H136203   4.170   7.052   5.806  2.1443 -0.1747  2.3765
12086TIP3    H236204   4.158   6.952   5.692 -0.4105  2.2759  0.3717
12087TIP3   OH236205   3.045   6.933   3.883  0.6131  0.1239 -0.5574
12087TIP3    H136206   2.992   7.010   3.902  1.1429  0.4178 -0.2384
12087TIP3    H236207   3.020   6.870   3.951  1.4945  0.6785  0.3145
12088TIP3   OH236208   3.545   2.614   5.071  0.3038  0.0458  0.2665
12088TIP3    H136209   3.488   2.627   4.995  2.1984  0.3163 -1.2000
12088TIP3    H236210   3.535   2.522   5.093  2.4819 -1.0994 -2.8175
12089TIP3   OH236211   5.285   6.852   6.130 -0.0363  0.0888  0.3345
12089TIP3    H136212   5.263   6.770   6.086  0.4811 -0.1120  0.4474
12089TIP3    H236213   5.218   6.862   6.197 -0.0009 -0.3313  0.4321
12090TIP3   OH236214   0.941   1.537   2.713 -0.7230  0.0347 -0.2456
12090TIP3    H136215   0.973   1.496   2.633 -0.1159  0.1780 -0.0819
12090TIP3    H236216   0.995   1.615   2.724  0.7747 -1.1708  1.5329
12091TIP3   OH236217   5.677   0.911   4.226  0.2043 -0.1089  0.6611
12091TIP3    H136218   5.741   0.905   4.297  0.6913 -0.8615  0.1851
12091TIP3    H236219   5.640   0.823   4.220 -1.4339  0.5049  1.4153
12092TIP3   OH236220   5.897   4.354   4.629 -0.4627 -0.4839  0.0375
12092TIP3    H136221   5.874   4.316   4.544  1.8459  0.4019 -1.0521
12092TIP3    H236222   5.892   4.448   4.616  0.4559 -0.3235  0.7104
12093TIP3   OH236223   5.779   5.304   4.716  0.5986 -0.9703 -0.5153
12093TIP3    H136224   5.859   5.285   4.764  0.2522 -1.7021 -0.2056
12093TIP3    H236225   5.720   5.341   4.781  0.8125 -0.0679 -0.8270
12094TIP3   OH236226   6.223   3.649   5.923 -0.1542  0.4232 -0.1653
12094TIP3    H136227   6.263   3.578   5.873 -0.9060 -0.7492  0.8177
12094TIP3    H236228   6.142   3.669   5.876 -0.3281  0.0744 -0.0182
12095TIP3   OH236229   5.842   1.776   0.050  0.1032  0.3208 -0.1940
12095TIP3    H136230   5.838   1.786  -0.045 -2.4514  1.1909 -0.0756
12095TIP3    H236231   5.779   1.707   0.070  2.4867 -1.7623  0.7493
12096TIP3   OH236232   2.923   2.518   0.205  0.1762  0.2787 -0.0154
12096TIP3    H136233   2.892   2.466   0.279  0.3982 -0.0555 -0.1578
12096TIP3    H236234   2.910   2.462   0.128 -1.3317  1.1210 -0.4264
12097TIP3   OH236235   6.058   5.905   0.588 -0.2435 -0.5860 -0.1703
12097TIP3    H136236   6.116   5.959   0.534 -1.6920 -0.3017 -1.5000
12097TIP3    H236237   6.002   5.968   0.633 -1.4478 -0.9199 -1.1552
12098TIP3   OH236238   2.747   1.729   6.462  0.0025  0.4817  0.1519
12098TIP3    H136239   2.806   1.697   6.394  0.6350  1.5455  0.1771
12098TIP3    H236240   2.804   1.751   6.536 -0.5208  0.6726  0.5073
12099TIP3   OH236241   6.476   0.705   0.028  0.1078 -0.1588  0.2929
12099TIP3    H136242   6.464   0.800   0.032  0.2153 -0.1249 -0.2060
12099TIP3    H236243   6.568   0.694   0.007 -0.3267 -0.3401 -1.6667
12100TIP3   OH236244   3.148   3.098   6.413  0.4423 -0.6847 -0.5384
12100TIP3    H136245   3.194   3.056   6.487 -0.6232 -0.0137  0.5485
12100TIP3    H236246   3.217   3.131   6.357  1.3831 -3.9762 -1.5703
12101TIP3   OH236247   6.960   6.686   6.756  0.7191 -0.2490 -0.9391
12101TIP3    H136248   6.942   6.660   6.666 -0.3037  2.0220 -1.4691
12101TIP3    H236249   6.874   6.695   6.797  1.0662  0.8378 -0.3992
12102TIP3   OH236250   1.831   5.933   4.477 -0.2531 -0.6474 -0.2103
12102TIP3    H136251   1.870   6.014   4.510  2.1078 -1.5470 -0.6400
12102TIP3    H236252   1.738   5.953   4.470  0.2346  1.9700 -0.1424
12103TIP3   OH236253   8.180   5.329   0.795  0.3829 -0.5946  0.7775
12103TIP3    H136254   8.127   5.353   0.719  0.0571 -1.1398  0.8230
12103TIP3    H236255   8.128   5.358   0.870 -0.0838 -1.5419  0.8379
12104TIP3   OH236256   2.912   7.235   2.178 -0.0178 -0.2642 -0.2751
12104TIP3    H136257   2.992   7.205   2.134 -0.2968 -1.6921  0.1420
12104TIP3    H236258   2.853   7.261   2.107  0.2733 -0.6133 -0.6452
12105TIP3   OH236259   5.831   6.909   6.079 -0.1582  0.6227 -0.2041
12105TIP3    H136260   5.857   6.976   6.143  0.9634  0.4273 -0.4373
12105TIP3    H236261   5.736   6.919   6.072 -0.6241 -0.5756  2.8639
12106TIP3   OH236262   6.907   6.021   5.374  0.0733  0.0546  0.9191
12106TIP3    H136263   6.828   6.044   5.422 -0.5148 -1.4052  0.7123
12106TIP3    H236264   6.886   6.043   5.283 -0.5243 -1.2921  0.7069
12107TIP3   OH236265   6.759   6.244   6.141 -0.5394 -0.1779 -0.4213
12107TIP3    H136266   6.812   6.266   6.064 -0.6958 -0.8237 -0.7202
12107TIP3    H236267   6.719   6.160   6.119  0.4432 -1.0314  0.8743
12108TIP3   OH236268   6.102   1.235   3.055 -0.2792 -0.0165  0.3395
12108TIP3    H136269   6.106   1.291   3.133  1.3105  0.5166 -0.0859
12108TIP3    H236270   6.188   1.247   3.013 -1.0817 -0.3254 -1.4646
12109TIP3   OH236271   5.962   7.030   3.354 -0.2582  0.0365 -0.1303
12109TIP3    H136272   5.921   7.112   3.382  1.4709  0.3193  1.8209
12109TIP3    H236273   5.912   6.961   3.398  0.3314  0.2831  0.9579
12110TIP3   OH236274   1.430   3.724   1.092 -0.2397 -0.5701 -0.1948
12110TIP3    H136275   1.367   3.781   1.137  0.6065 -0.0874  0.3851
12110TIP3    H236276   1.426   3.752   1.001 -0.4245 -0.1422 -0.0580
12111TIP3   OH236277   8.104   5.220   1.474 -0.1789  0.5548  0.0470
12111TIP3    H136278   8.104   5.171   1.392 -0.0956 -1.7555  1.3515
12111TIP3    H236279   8.013   5.249   1.484 -0.3740  0.1307 -0.4643
12112TIP3   OH236280   6.403   0.984   3.702  0.5739  0.0153 -0.6259
12112TIP3    H136281   6.441   1.015   3.620  0.6459  2.0196  0.1128
12112TIP3    H236282   6.443   1.039   3.769 -1.8797  0.6280  0.4391
12113TIP3   OH236283   5.865   7.011   5.100  0.3991  0.2239  0.1845
12113TIP3    H136284   5.814   6.935   5.128 -0.2428  0.1344 -1.1518
12113TIP3    H236285   5.839   7.081   5.160 -2.5586  0.6129 -1.3510
12114TIP3   OH236286   7.614   4.433   2.576 -0.4969 -0.0225 -0.4418
12114TIP3    H136287   7.682   4.501   2.569 -1.0150  0.3362 -3.5026
12114TIP3    H236288   7.654   4.364   2.628  1.5007  1.0064 -0.5264
12115TIP3   OH236289   1.917   3.009   6.301 -0.1397 -0.0534  0.4726
12115TIP3    H136290   1.917   3.101   6.275 -1.8913 -0.4284 -1.1055
12115TIP3    H236291   1.990   3.000   6.361 -0.0186  2.3998  0.7633
12116TIP3   OH236292   0.213   0.194   1.404  0.2443 -0.3082 -0.0501
12116TIP3    H136293   0.205   0.277   1.453  1.4283 -0.0270 -0.2941
12116TIP3    H236294   0.269   0.139   1.460  0.2635 -0.5814 -0.3380
12117TIP3   OH236295   1.702   4.880   0.689  0.4294  0.6814  0.0719
12117TIP3    H136296   1.639   4.851   0.755  1.5797 -1.8348  0.1752
12117TIP3    H236297   1.761   4.938   0.737 -0.2475  0.9201  0.6229
12118TIP3   OH236298   7.802   5.426   0.749  0.2449  0.2569 -0.9353
12118TIP3    H136299   7.744   5.357   0.780 -0.2962  0.4044 -1.6104
12118TIP3    H236300   7.859   5.445   0.824  0.4081 -0.9218 -0.7427
12119TIP3   OH236301   4.195   3.468   1.867  0.5661  0.4795  0.1964
12119TIP3    H136302   4.187   3.558   1.837  0.4960  0.0809 -1.0515
12119TIP3    H236303   4.270   3.433   1.819 -0.5342 -0.6512 -0.7851
12120TIP3   OH236304   1.437   7.820   1.797  0.3812  0.0886  0.2133
12120TIP3    H136305   1.504   7.784   1.856  3.4607 -0.9335 -3.5436
12120TIP3    H236306   1.388   7.744   1.767  2.1073 -0.1928 -2.1527
12121TIP3   OH236307   0.479   4.698   3.258 -0.0893 -0.2078  0.3041
12121TIP3    H136308   0.384   4.697   3.241 -0.0453  0.7760 -0.0756
12121TIP3    H236309   0.517   4.663   3.177 -0.1169 -0.4882  0.4101
12122TIP3   OH236310   0.320   1.184   5.939 -0.2875  0.6529 -0.0305
12122TIP3    H136311   0.234   1.171   5.980  0.7123  0.1088  2.0064
12122TIP3    H236312   0.299   1.204   5.848 -2.4749 -2.4341 -0.3861
12123TIP3   OH236313   2.162   4.099   2.872 -0.2534  0.4109 -0.1944
12123TIP3    H136314   2.220   4.161   2.829  0.3774  0.7808  1.1487
12123TIP3    H236315   2.166   4.122   2.964 -1.0849 -0.7536  0.1560
12124TIP3   OH236316   8.092   6.235   2.724 -0.0348  0.1013  0.2825
12124TIP3    H136317   8.008   6.280   2.733 -0.7168 -1.3333  1.3558
12124TIP3    H236318   8.071   6.142   2.732  1.3626 -0.4605 -1.6334
12125TIP3   OH236319   0.735   4.863   2.814  0.4232 -0.5179 -0.3581
12125TIP3    H136320   0.817   4.874   2.863 -0.8970 -2.0201  2.3653
12125TIP3    H236321   0.733   4.770   2.790 -0.0017 -0.2615 -1.3827
12126TIP3   OH236322   0.891   0.827   4.113 -0.1537  0.0794  0.0617
12126TIP3    H136323   0.985   0.839   4.098  0.0403  1.2189  1.8292
12126TIP3    H236324   0.876   0.733   4.103  1.6052 -0.4477  1.7526
12127TIP3   OH236325   2.659   3.333   1.107 -0.0285  0.2362  0.5723
12127TIP3    H136326   2.687   3.257   1.158  0.5643  0.8466  1.1740
12127TIP3    H236327   2.572   3.310   1.075  1.1763 -1.8277 -1.5442
12128TIP3   OH236328   4.681   2.063   5.413  0.1641 -0.1889 -0.5928
12128TIP3    H136329   4.697   2.155   5.392 -0.7101 -0.3102 -1.8712
12128TIP3    H236330   4.740   2.045   5.487 -0.3088  1.6308  0.2737
12129TIP3   OH236331   4.784   0.966   6.313  0.3592 -0.1459  0.0532
12129TIP3    H136332   4.796   0.872   6.321 -1.8541 -0.4274  0.6342
12129TIP3    H236333   4.869   1.003   6.339  1.1300 -1.9311  0.2500
12130TIP3   OH236334   4.012   7.375   1.201  0.1056 -0.3017  0.9932
12130TIP3    H136335   3.916   7.367   1.199  0.2094 -3.0614  1.8895
12130TIP3    H236336   4.043   7.284   1.199  2.7160  0.5163  0.8776
12131TIP3   OH236337   4.883   4.315   6.484  0.3206 -0.5750  0.4387
12131TIP3    H136338   4.889   4.346   6.574  3.4016 -1.3617  0.5981
12131TIP3    H236339   4.789   4.316   6.465 -0.4095 -0.1218  3.5365
12132TIP3   OH236340   0.678   6.537   1.233 -0.3711 -0.9723 -0.2107
12132TIP3    H136341   0.685   6.453   1.280 -0.0926 -1.0919 -0.4659
12132TIP3    H236342   0.612   6.586   1.282 -2.6644 -2.4313 -1.6474
12133TIP3   OH236343   7.893   3.377   5.222 -0.5420  0.6042  0.3532
12133TIP3    H136344   7.888   3.366   5.317  0.4424 -0.0722  0.3449
12133TIP3    H236345   7.887   3.288   5.187 -0.3302  0.7982 -0.1867
12134TIP3   OH236346   0.960   0.628   3.380 -0.5235 -0.5214 -0.1805
12134TIP3    H136347   1.020   0.554   3.386 -0.7007 -0.6068  0.6988
12134TIP3    H236348   0.942   0.637   3.286  1.3327 -0.0940 -0.5280
12135TIP3   OH236349   2.286   0.620   5.248 -0.1316  0.0773 -0.4982
12135TIP3    H136350   2.286   0.691   5.183  0.8212  0.0093 -0.5856
12135TIP3    H236351   2.204   0.574   5.232 -0.2980  0.5645 -1.1017
12136TIP3   OH236352   8.211   5.168   5.144 -0.2710 -0.3047  0.1393
12136TIP3    H136353   8.184   5.259   5.149  1.6295  0.3274  0.0044
12136TIP3    H236354   8.221   5.151   5.050  0.3910 -0.3007  0.2012
12137TIP3   OH236355   4.088   1.366   1.022 -0.4352 -0.0201  0.1606
12137TIP3    H136356   4.011   1.422   1.035 -0.4216  0.3062 -1.0184
12137TIP3    H236357   4.119   1.348   1.110 -0.4759  1.7889  0.5946
12138TIP3   OH236358  -0.005   3.308   4.357  0.1175  0.7441  0.0428
12138TIP3    H136359   0.074   3.350   4.391 -0.4850  0.7627  1.5226
12138TIP3    H236360   0.026   3.249   4.288  1.6214 -0.3623  1.5816
12139TIP3   OH236361   2.551   7.534   2.778  0.0558  0.5659  0.6481
12139TIP3    H136362   2.470   7.516   2.827  1.3638 -1.0695  2.3417
12139TIP3    H236363   2.579   7.448   2.747  0.3583  1.3175 -1.3158
12140TIP3   OH236364   0.631   5.765   1.525  0.6918  0.1338  0.5832
12140TIP3    H136365   0.687   5.772   1.603  1.9146 -0.6983 -0.2057
12140TIP3    H236366   0.640   5.675   1.497 -1.1778 -0.0512  0.5002
12141TIP3   OH236367   4.975   1.726   4.956  0.0884  0.0041 -0.4756
12141TIP3    H136368   5.005   1.816   4.968  0.1836  0.0099 -0.7547
12141TIP3    H236369   4.896   1.734   4.902 -0.8682  0.0521  0.8576
12142TIP3   OH236370   8.215   1.964   1.764  0.4467  0.5770 -0.4291
12142TIP3    H136371   8.183   1.875   1.747 -0.5148  0.7878  0.1788
12142TIP3    H236372   8.175   2.017   1.695  1.4358  0.4605 -1.0988
12143TIP3   OH236373   5.561   6.188   0.780  0.3842  0.2754 -0.2550
12143TIP3    H136374   5.641   6.169   0.730 -0.2192 -0.8961 -0.7928
12143TIP3    H236375   5.516   6.104   0.788 -1.6451  1.1851 -1.4342
12144TIP3   OH236376   4.340   6.177   0.632  0.6676 -0.3184 -0.1360
12144TIP3    H136377   4.434   6.189   0.644  0.4658 -0.7457  2.2698
12144TIP3    H236378   4.301   6.212   0.712 -1.2031 -0.5813 -0.8851
12145TIP3   OH236379   4.209   3.005   1.852 -0.3849 -0.4175  0.1059
12145TIP3    H136380   4.264   3.076   1.885 -1.9678  1.8018 -1.7248
12145TIP3    H236381   4.253   2.976   1.772 -1.8646  1.5366 -1.5020
12146TIP3   OH236382   5.350   0.228   4.336  0.3789  0.8029 -0.3941
12146TIP3    H136383   5.385   0.190   4.416 -0.1588  1.4813  0.1666
12146TIP3    H236384   5.361   0.322   4.346 -1.6850  1.0617 -0.1265
12147TIP3   OH236385   3.521   3.359   2.494 -0.1642 -0.2668  0.3066
12147TIP3    H136386   3.516   3.450   2.523 -0.2619 -0.4587  0.9217
12147TIP3    H236387   3.611   3.333   2.511  0.1753  0.0449 -0.9305
12148TIP3   OH236388   7.153   3.521   0.765 -0.1768  0.4458 -0.2718
12148TIP3    H136389   7.203   3.463   0.707 -2.4002 -2.0717  0.1131
12148TIP3    H236390   7.129   3.465   0.839  1.0147  3.0582  2.2855
12149TIP3   OH236391   2.469   6.927   6.579 -0.0998 -0.5050 -0.2118
12149TIP3    H136392   2.476   6.844   6.533  1.7726 -2.0348  2.5955
12149TIP3    H236393   2.415   6.908   6.656  0.5523  0.8028  0.6054
12150TIP3   OH236394   0.676   5.033   1.834  0.2106  0.2536 -0.3420
12150TIP3    H136395   0.617   5.029   1.910  1.9730  0.9598  1.1376
12150TIP3    H236396   0.624   5.077   1.767 -1.8266 -1.4802 -0.0079
12151TIP3   OH236397   1.273   0.029   0.416  0.3463 -0.3480 -0.1449
12151TIP3    H136398   1.317   0.113   0.400  0.0753 -0.6216 -2.5690
12151TIP3    H236399   1.195   0.031   0.361  1.4465 -3.0406 -2.0255
12152TIP3   OH236400   6.538   0.337   0.441  0.3734 -0.1804 -0.3170
12152TIP3    H136401   6.534   0.336   0.536 -0.7858  0.4199 -0.3401
12152TIP3    H236402   6.446   0.332   0.413  0.6512  0.3873 -1.3797
12153TIP3   OH236403   0.316   4.684   2.585 -0.4288  0.1082  0.0498
12153TIP3    H136404   0.326   4.650   2.674 -1.2124 -0.5556 -0.1024
12153TIP3    H236405   0.221   4.694   2.574 -0.4609 -1.2087 -1.2036
12154TIP3   OH236406   2.403   5.095   4.759 -0.3939 -0.0013 -0.3053
12154TIP3    H136407   2.395   5.024   4.696  0.1758 -0.9360  0.6458
12154TIP3    H236408   2.489   5.134   4.741  0.6404 -1.5073  1.0900
12155TIP3   OH236409   6.635   4.464   5.835  0.1532 -0.3089  0.1982
12155TIP3    H136410   6.643   4.560   5.838 -1.3837 -0.1346 -0.2024
12155TIP3    H236411   6.677   4.435   5.916  0.9631  0.6642  0.1571
12156TIP3   OH236412   5.645   3.070   0.525 -0.1343 -0.0993  0.4332
12156TIP3    H136413   5.741   3.073   0.519 -0.0532  0.7324  1.6276
12156TIP3    H236414   5.617   3.016   0.451  1.2303  0.0126 -0.1884
12157TIP3   OH236415   6.693   4.628   3.909 -0.4880  0.4463  0.1684
12157TIP3    H136416   6.661   4.719   3.903  0.8602  0.9212 -0.2788
12157TIP3    H236417   6.707   4.602   3.818 -2.5697 -0.8928  0.1684
12158TIP3   OH236418   4.500   0.367   2.238 -0.1425  0.0648 -0.6702
12158TIP3    H136419   4.460   0.337   2.319  0.5784  2.0202  0.4855
12158TIP3    H236420   4.431   0.417   2.194 -0.6176 -1.2149 -1.4577
12159TIP3   OH236421   7.160   5.904   4.741  0.2216 -0.7569  0.1233
12159TIP3    H136422   7.240   5.936   4.784 -0.2011  0.8883 -0.2504
12159TIP3    H236423   7.191   5.841   4.677  1.3230  0.4496 -0.5753
12160TIP3   OH236424   7.156   0.361   1.826  0.0159  0.1451 -0.6699
12160TIP3    H136425   7.199   0.438   1.789  0.6174 -0.5553 -1.4639
12160TIP3    H236426   7.182   0.289   1.769  0.3648 -0.8520  0.7037
12161TIP3   OH236427   5.150   0.169   5.475  0.2817  0.4111  0.6331
12161TIP3    H136428   5.151   0.091   5.419 -2.0663  0.8166 -0.0795
12161TIP3    H236429   5.238   0.205   5.467  0.1370  0.3260 -2.6683
12162TIP3   OH236430   0.637   4.709   5.782  0.1417  0.5245 -0.0446
12162TIP3    H136431   0.695   4.750   5.718  0.9632  2.5084  1.8648
12162TIP3    H236432   0.556   4.759   5.776 -0.0717  0.1773 -0.0911
12163TIP3   OH236433   1.328   7.362   3.454 -0.3496 -0.3807 -0.0302
12163TIP3    H136434   1.365   7.330   3.372  1.2123  0.5896  0.2458
12163TIP3    H236435   1.327   7.286   3.512  1.6212 -0.3804  0.0587
12164TIP3   OH236436   7.384   1.138   2.041 -0.1689  0.0634 -0.6296
12164TIP3    H136437   7.460   1.195   2.037  0.4609 -0.6189  0.8916
12164TIP3    H236438   7.405   1.073   2.109 -2.7897  0.9060  1.1841
12165TIP3   OH236439   7.238   0.538   5.511  0.7298  0.6294 -0.1156
12165TIP3    H136440   7.302   0.608   5.495  0.4188  0.7464 -0.9034
12165TIP3    H236441   7.276   0.460   5.471 -0.2266  1.0080 -1.8361
12166TIP3   OH236442   5.455   5.232   0.093  0.2153 -0.1519  0.4363
12166TIP3    H136443   5.375   5.182   0.082  1.3911 -2.1277  0.4193
12166TIP3    H236444   5.478   5.221   0.185 -0.4200  1.9120  0.9130
12167TIP3   OH236445   2.730   0.814   4.438 -0.1226  0.2736  0.2358
12167TIP3    H136446   2.764   0.892   4.482  1.8665 -1.3087  1.6659
12167TIP3    H236447   2.659   0.784   4.495 -0.5036  0.6691 -0.0160
12168TIP3   OH236448   7.060   4.664   4.254  1.0044 -0.6982 -0.0655
12168TIP3    H136449   7.060   4.699   4.164 -0.2933  0.3905  0.3182
12168TIP3    H236450   7.152   4.660   4.278  1.2866  1.1484 -0.6557
12169TIP3   OH236451   8.230   6.518   1.434 -0.1907  0.1022  0.1141
12169TIP3    H136452   8.214   6.595   1.489  0.1134  0.1162  0.1873
12169TIP3    H236453   8.325   6.506   1.437 -0.2529 -0.3712  0.2282
12170TIP3   OH236454   4.075   3.205   3.411  0.1447  0.5634 -0.0612
12170TIP3    H136455   4.104   3.228   3.499 -1.7369 -0.2208  0.8330
12170TIP3    H236456   3.981   3.189   3.421 -0.1110  0.4814 -2.2296
12171TIP3   OH236457   4.668   3.065   0.096 -0.1709 -0.1568 -0.1642
12171TIP3    H136458   4.610   3.011   0.150  1.3105 -0.1362  1.5401
12171TIP3    H236459   4.628   3.152   0.097  0.0712 -0.0306  1.3753
12172TIP3   OH236460   0.786   3.086   2.304 -0.8498 -0.5033  0.2825
12172TIP3    H136461   0.870   3.118   2.273  0.2071 -1.8589  1.5997
12172TIP3    H236462   0.721   3.144   2.263  0.8217  2.3583  1.3995
12173TIP3   OH236463   0.878   5.368   5.359  0.2535  0.4818  0.3093
12173TIP3    H136464   0.916   5.407   5.280 -0.1051  1.3795  0.5627
12173TIP3    H236465   0.825   5.296   5.326 -0.8381  1.5661 -0.4101
12174TIP3   OH236466   0.858   1.918   4.204 -0.1672  0.2839  0.4946
12174TIP3    H136467   0.931   1.873   4.246  0.6829  0.1974 -1.0394
12174TIP3    H236468   0.801   1.849   4.172  0.5319  0.2952 -0.8066
12175TIP3   OH236469   6.370   6.882   0.935 -0.1221 -0.2479  0.1097
12175TIP3    H136470   6.341   6.839   1.015 -0.6342  0.5459  0.3521
12175TIP3    H236471   6.445   6.935   0.961 -1.3101  1.3271  0.4191
12176TIP3   OH236472   3.936   7.535   3.636 -0.0953 -0.1330  0.4979
12176TIP3    H136473   3.958   7.471   3.704 -2.1463  0.5410  1.8740
12176TIP3    H236474   3.841   7.538   3.636 -0.0902  1.2754 -1.1237
12177TIP3   OH236475   7.383   4.003   5.661  0.0609 -0.7198  0.5225
12177TIP3    H136476   7.459   3.985   5.605 -0.0586  0.5559 -0.0810
12177TIP3    H236477   7.401   4.088   5.701 -0.9141 -0.5246  0.5858
12178TIP3   OH236478   2.017   1.905   1.918  0.2000  0.0819  0.0979
12178TIP3    H136479   2.060   1.979   1.961  0.1506  1.1895 -1.6830
12178TIP3    H236480   2.056   1.828   1.960  0.5193  1.0894  1.7330
12179TIP3   OH236481   7.637   7.067   3.009 -0.6668 -0.2912  0.1450
12179TIP3    H136482   7.574   6.999   2.987 -0.5153  0.2370 -2.1708
12179TIP3    H236483   7.722   7.029   2.989 -0.5101  0.1907 -0.1277
12180TIP3   OH236484   1.449   5.604   1.628  0.7285 -0.1055  0.1271
12180TIP3    H136485   1.385   5.660   1.670  0.0001 -0.3236 -0.6687
12180TIP3    H236486   1.402   5.562   1.556  1.7324 -0.3297 -0.4297
12181TIP3   OH236487   3.041   2.029   4.169  0.7692  0.2268  0.1333
12181TIP3    H136488   3.015   1.985   4.250  0.4874 -1.0272 -0.6160
12181TIP3    H236489   3.031   1.962   4.101  0.9159  1.2839 -0.9543
12182TIP3   OH236490   6.543   4.075   5.208 -0.4371  0.1430 -0.5365
12182TIP3    H136491   6.491   4.036   5.137 -1.0951  0.4042 -0.2093
12182TIP3    H236492   6.477   4.107   5.270  0.0845 -1.9332  1.2208
12183TIP3   OH236493   6.806   5.376   5.097 -0.2388  0.0159  0.6662
12183TIP3    H136494   6.769   5.318   5.030  0.0781  1.1268 -0.4993
12183TIP3    H236495   6.814   5.320   5.175 -1.9558 -0.9229  0.2247
12184TIP3   OH236496   0.976   3.858   1.287 -0.1055 -0.4174 -0.4865
12184TIP3    H136497   0.982   3.765   1.310  0.8344 -0.2911 -0.1486
12184TIP3    H236498   0.957   3.858   1.193  1.5576 -0.9857 -0.8768
12185TIP3   OH236499   7.991   2.980   5.745 -0.1445  0.6535  0.2219
12185TIP3    H136500   7.957   2.922   5.813  0.7341  0.6603  0.6814
12185TIP3    H236501   8.086   2.970   5.751 -0.0529  0.7424 -0.9277
12186TIP3   OH236502   0.479   1.568   1.530  0.3427 -0.2678  0.1496
12186TIP3    H136503   0.482   1.523   1.445  2.1183 -4.2690  2.0128
12186TIP3    H236504   0.404   1.530   1.574  0.4878  0.4066  0.9970
12187TIP3   OH236505   7.910   4.348   4.083 -0.0038  0.4575 -0.1102
12187TIP3    H136506   7.890   4.403   4.007 -0.9193 -0.4418 -0.5594
12187TIP3    H236507   8.001   4.322   4.071  0.4487  1.8928  0.1331
12188TIP3   OH236508   0.155   1.173   2.205 -0.3867  0.3135 -0.1031
12188TIP3    H136509   0.191   1.260   2.225  0.6594  0.3463 -1.8905
12188TIP3    H236510   0.140   1.176   2.110  0.7923 -1.8428 -0.4081
12189TIP3   OH236511   0.668   2.964   0.435 -0.3523 -0.2443 -0.1431
12189TIP3    H136512   0.637   3.054   0.426  0.1207 -0.1583 -0.9648
12189TIP3    H236513   0.634   2.935   0.520  0.5059  1.1201  0.6903
12190TIP3   OH236514   0.605   1.241   5.585  0.0719 -0.1398 -0.2119
12190TIP3    H136515   0.647   1.197   5.659 -0.4579  1.3394  1.0139
12190TIP3    H236516   0.538   1.179   5.555 -0.1900 -0.4732  1.0152
12191TIP3   OH236517   2.073   5.778   4.522 -0.2156 -0.2699  0.0262
12191TIP3    H136518   1.983   5.792   4.492  0.4154  3.9037 -0.5462
12191TIP3    H236519   2.123   5.767   4.441  0.2671  1.6615  0.0213
12192TIP3   OH236520   3.888   6.687   6.696  0.4849  0.1646  0.7049
12192TIP3    H136521   3.868   6.664   6.605  1.2311  0.6874  0.3939
12192TIP3    H236522   3.812   6.737   6.725  0.1632 -0.1543  0.4272
12193TIP3   OH236523   3.303   3.238   3.503 -0.0040  0.0433 -0.5474
12193TIP3    H136524   3.287   3.322   3.460 -2.3128 -0.3502 -0.6250
12193TIP3    H236525   3.357   3.189   3.441  0.6994  1.1747 -0.8541
12194TIP3   OH236526   2.013   3.512   2.935 -0.1788  0.2194 -0.2505
12194TIP3    H136527   1.957   3.576   2.891 -0.6651  0.6046  0.8882
12194TIP3    H236528   2.087   3.500   2.875 -0.2695  1.5581 -0.6739
12195TIP3   OH236529   4.467   4.757   4.704 -0.3801  0.3739 -0.0640
12195TIP3    H136530   4.446   4.718   4.619  0.6124  0.3060 -0.2894
12195TIP3    H236531   4.398   4.726   4.763 -0.5266 -0.3693 -0.6226
12196TIP3   OH236532   0.388   6.380   3.445  0.2804 -0.4969 -0.3612
12196TIP3    H136533   0.425   6.354   3.361  0.1528 -0.2752 -0.4859
12196TIP3    H236534   0.293   6.371   3.433  0.3199 -3.8836  0.8367
12197TIP3   OH236535   5.724   7.734   5.098  0.1358  0.4300 -0.4543
12197TIP3    H136536   5.716   7.821   5.137 -0.7476 -0.4330  1.4376
12197TIP3    H236537   5.637   7.715   5.063 -0.0960 -0.2391  0.4437
12198TIP3   OH236538   5.070   7.177   4.721  0.0013  0.3929 -0.2232
12198TIP3    H136539   5.150   7.195   4.770 -0.3703 -0.7719  0.8607
12198TIP3    H236540   5.025   7.110   4.772 -0.1695 -1.2819 -2.4626
12199TIP3   OH236541   6.831  -0.015   0.937 -0.1204 -0.3768  0.2316
12199TIP3    H136542   6.825   0.079   0.922  2.0067 -0.5110 -2.0193
12199TIP3    H236543   6.872  -0.023   1.024  2.4491  0.9289 -0.7461
12200TIP3   OH236544   4.068   5.045   1.585  0.2930 -0.0304  0.0206
12200TIP3    H136545   4.034   5.135   1.579 -0.3568 -0.3276 -0.9118
12200TIP3    H236546   4.163   5.056   1.582  0.2166  0.6170 -0.3963
12201TIP3   OH236547   3.511   0.279   0.895  0.3511 -0.5245  0.0713
12201TIP3    H136548   3.594   0.231   0.887  0.6756 -0.0106  0.3539
12201TIP3    H236549   3.513   0.344   0.825 -0.2558 -1.1535 -0.5477
12202TIP3   OH236550   7.002   0.703   0.077  0.8997  0.0921 -0.7464
12202TIP3    H136551   6.992   0.785   0.028  2.0484  1.3336  0.9856
12202TIP3    H236552   7.021   0.731   0.167 -1.2765 -2.0856  0.5052
12203TIP3   OH236553   7.468   4.493   1.980 -0.4306  0.2301 -0.3506
12203TIP3    H136554   7.468   4.482   1.885 -1.3724  0.1160 -0.3489
12203TIP3    H236555   7.375   4.494   2.004 -0.2443 -2.4668  0.8699
12204TIP3   OH236556   4.610   2.749   4.035  0.3721  0.5860  0.4769
12204TIP3    H136557   4.637   2.752   3.943 -0.6352  2.2429  0.2027
12204TIP3    H236558   4.646   2.667   4.067 -0.4708 -0.7559 -1.7714
12205TIP3   OH236559   4.252   0.163   1.383  0.1043  0.1571 -0.4060
12205TIP3    H136560   4.178   0.223   1.381 -0.1556 -0.1615 -0.4059
12205TIP3    H236561   4.216   0.080   1.416  1.1935  1.0541  3.7398
12206TIP3   OH236562   4.319   7.325   3.540 -0.4877  0.4889 -0.2789
12206TIP3    H136563   4.232   7.285   3.526  0.4925 -1.0431 -2.6072
12206TIP3    H236564   4.334   7.377   3.462  0.1162  2.0072  0.8022
12207TIP3   OH236565   8.011   2.742   5.078  0.2131 -0.1463  0.1028
12207TIP3    H136566   8.096   2.769   5.044  0.0379 -0.3259 -0.4906
12207TIP3    H236567   8.029   2.662   5.128  0.7862  1.1682  2.1346
12208TIP3   OH236568   8.062   3.404   4.259 -0.1415  0.6804  0.2228
12208TIP3    H136569   8.055   3.358   4.175  0.3099  3.5148 -1.4761
12208TIP3    H236570   8.146   3.376   4.295 -1.2841 -2.2477  0.9130
12209TIP3   OH236571   7.793   2.690   1.814 -0.0866  1.0512  0.5292
12209TIP3    H136572   7.739   2.614   1.795 -0.5609  1.5989 -0.3715
12209TIP3    H236573   7.841   2.707   1.733 -0.1514  1.8456  0.6508
12210TIP3   OH236574   5.879   0.618   2.194  0.2526 -0.7958  0.6691
12210TIP3    H136575   5.951   0.607   2.131  0.0159  0.0677  0.2194
12210TIP3    H236576   5.905   0.693   2.247 -0.7156  0.1259 -0.1076
12211TIP3   OH236577   2.628   3.979   1.542 -0.3857  0.0473  0.2567
12211TIP3    H136578   2.602   3.890   1.517 -0.3743 -0.1409  0.8933
12211TIP3    H236579   2.719   3.986   1.515 -0.2651 -0.2811  0.5597
12212TIP3   OH236580   7.006   2.740   1.243  0.0332 -0.3480 -0.0555
12212TIP3    H136581   7.003   2.694   1.159  2.2413 -0.4039 -0.1556
12212TIP3    H236582   6.951   2.817   1.231  0.5158 -0.2232 -1.6463
12213TIP3   OH236583   1.884   0.707   4.397 -0.2389  0.1971  0.1519
12213TIP3    H136584   1.841   0.629   4.364  2.3553 -1.0559 -0.4755
12213TIP3    H236585   1.910   0.684   4.487  1.1170  0.0422 -0.2585
12214TIP3   OH236586   7.796   7.623   5.769 -0.3301  0.4303  1.0742
12214TIP3    H136587   7.712   7.657   5.739  0.0728  0.9012  0.4357
12214TIP3    H236588   7.858   7.694   5.751  0.3745 -0.2871  0.5845
12215TIP3   OH236589   0.542   2.477   1.744  0.0627  0.2752 -0.3650
12215TIP3    H136590   0.586   2.408   1.795 -0.9951 -0.7268 -0.7569
12215TIP3    H236591   0.449   2.466   1.764 -0.0885  2.0938  0.1395
12216TIP3   OH236592   4.597   4.228   6.026  0.1495  0.4290 -0.1293
12216TIP3    H136593   4.652   4.215   5.949  0.4739 -0.0687  0.1782
12216TIP3    H236594   4.526   4.164   6.015 -0.9383  1.7247 -1.0145
12217TIP3   OH236595   5.659   2.574   6.326  0.2045  0.1051 -0.2858
12217TIP3    H136596   5.730   2.602   6.269  0.0990  0.2042 -0.3667
12217TIP3    H236597   5.682   2.484   6.351 -0.4911 -0.4707 -1.6566
12218TIP3   OH236598   6.393   0.871   5.524  0.2154  0.3643  0.2107
12218TIP3    H136599   6.481   0.834   5.530 -0.5401 -1.4662  0.6671
12218TIP3    H236600   6.362   0.871   5.614 -0.8213 -0.5190 -0.1303
12219TIP3   OH236601   2.972   1.222   5.114  0.7579 -0.4850 -0.1436
12219TIP3    H136602   2.915   1.192   5.185  0.4923  1.2361  0.4133
12219TIP3    H236603   2.958   1.158   5.043 -1.8133 -0.1561 -0.0092
12220TIP3   OH236604   4.731   4.425   5.210 -0.2022  0.2295  0.2511
12220TIP3    H136605   4.767   4.347   5.169  0.7114  0.1413  1.1851
12220TIP3    H236606   4.694   4.395   5.293 -0.2403  0.7213  0.4179
12221TIP3   OH236607   4.023   3.382   2.572 -0.2545 -0.4546 -0.1199
12221TIP3    H136608   3.957   3.354   2.508 -0.0653 -0.4964 -0.2957
12221TIP3    H236609   3.983   3.362   2.657 -0.4585 -0.5063 -0.2262
12222TIP3   OH236610   5.358   6.334   1.318  0.4354  0.1633  0.0273
12222TIP3    H136611   5.384   6.413   1.365  0.4631 -0.2906  0.7790
12222TIP3    H236612   5.283   6.362   1.265  0.6042  0.7557  0.0864
12223TIP3   OH236613   6.408   2.560   2.561 -0.0518  0.0401 -0.0926
12223TIP3    H136614   6.461   2.496   2.513  0.4316 -0.0424  0.5409
12223TIP3    H236615   6.408   2.529   2.651 -2.7873 -1.0323 -0.3569
12224TIP3   OH236616   6.404   6.646   2.449  0.0951  0.4976 -0.1691
12224TIP3    H136617   6.317   6.680   2.427 -0.5528 -0.0759  1.3635
12224TIP3    H236618   6.464   6.716   2.425 -1.0774  2.2580  1.6781
12225TIP3   OH236619   6.920   7.566   1.288 -0.1392 -0.2823 -0.9432
12225TIP3    H136620   6.894   7.651   1.254 -0.8381  0.0296  0.3131
12225TIP3    H236621   6.861   7.504   1.244 -0.0911 -0.0509 -1.3434
12226TIP3   OH236622   1.450   0.502   1.463 -0.5075  0.6897  0.0030
12226TIP3    H136623   1.474   0.574   1.405 -0.0853  0.7330  0.2271
12226TIP3    H236624   1.533   0.474   1.502 -0.5588 -0.3439 -0.5770
12227TIP3   OH236625   3.677   6.012   0.963  0.0340  0.3094  0.4478
12227TIP3    H136626   3.606   5.986   1.022  0.0169  0.9130  0.7005
12227TIP3    H236627   3.633   6.060   0.893  0.0534 -0.4133 -0.0772
12228TIP3   OH236628   2.958   3.456   3.171 -0.0138  0.3139  0.1730
12228TIP3    H136629   2.917   3.370   3.175 -1.7812  0.8419 -2.9729
12228TIP3    H236630   3.043   3.440   3.131  1.2707 -0.2854  2.9121
12229TIP3   OH236631   2.777   2.411   3.905  0.3495 -0.1931  0.5691
12229TIP3    H136632   2.843   2.407   3.975  0.2522 -0.8945  0.6286
12229TIP3    H236633   2.795   2.334   3.851  0.3672  0.2950 -0.1351
12230TIP3   OH236634   1.229   2.485   1.573 -0.2705  0.1711  0.2197
12230TIP3    H136635   1.316   2.471   1.537 -0.6211 -1.4168 -0.1015
12230TIP3    H236636   1.194   2.560   1.525  0.2008 -0.3870 -1.0485
12231TIP3   OH236637   8.153   6.767   0.507 -0.1208 -0.0271 -0.3615
12231TIP3    H136638   8.078   6.815   0.543 -0.4752 -1.9736  1.6566
12231TIP3    H236639   8.135   6.763   0.413 -1.5749  1.1500 -0.1860
12232TIP3   OH236640   0.339   4.045   1.807  1.1714 -0.7088  0.6142
12232TIP3    H136641   0.268   4.036   1.870  0.4429  0.3064 -0.0375
12232TIP3    H236642   0.404   4.099   1.852  1.3937 -1.3590  1.0873
12233TIP3   OH236643   6.607   6.589   5.728  0.3077  0.4712  0.3806
12233TIP3    H136644   6.539   6.598   5.795 -0.2138  0.0698 -0.0772
12233TIP3    H236645   6.617   6.677   5.692 -1.3491  0.2149 -0.8408
12234TIP3   OH236646   1.725   4.327   3.204 -0.0505 -0.6021  0.3212
12234TIP3    H136647   1.741   4.407   3.256  0.4747 -0.8246  0.5109
12234TIP3    H236648   1.808   4.311   3.160 -0.3457 -0.7029 -0.1967
12235TIP3   OH236649   2.599   2.954   6.301 -0.1533  0.4356  0.7422
12235TIP3    H136650   2.549   3.002   6.235  2.8170  2.2822 -0.3703
12235TIP3    H236651   2.580   2.999   6.383 -1.9630 -0.3338  0.7986
12236TIP3   OH236652   8.310   4.143   2.607 -0.2400 -0.0378  0.3442
12236TIP3    H136653   8.328   4.141   2.513  1.8139 -1.6815  0.7029
12236TIP3    H236654   8.215   4.132   2.614 -0.3229 -0.8464 -1.5100
12237TIP3   OH236655   6.027   2.274   4.196  0.2862  0.4214  0.7856
12237TIP3    H136656   6.082   2.349   4.216  1.0763  0.1013 -0.1032
12237TIP3    H236657   5.966   2.305   4.129  2.5127 -0.4075 -1.8274
12238TIP3   OH236658   3.349   0.495   2.833  0.2333  0.2373 -0.0394
12238TIP3    H136659   3.299   0.434   2.777 -0.1094  2.3090 -2.1566
12238TIP3    H236660   3.440   0.473   2.816  0.1392 -1.3778  1.2893
12239TIP3   OH236661   6.438   1.209   6.508  0.2211 -0.2181 -0.3056
12239TIP3    H136662   6.442   1.203   6.603 -0.5870  1.4224 -0.1396
12239TIP3    H236663   6.519   1.168   6.478  2.1107  2.1430  1.2506
12240TIP3   OH236664   5.352   4.739   4.283  0.1366  0.4365  0.4977
12240TIP3    H136665   5.390   4.657   4.251 -0.1314  0.7362 -0.6000
12240TIP3    H236666   5.292   4.711   4.352  1.2022 -0.1602  1.2242
12241TIP3   OH236667   6.860   0.243   0.063 -0.4326 -0.4127 -0.3905
12241TIP3    H136668   6.891   0.247   0.154  1.0878 -0.6993 -0.8722
12241TIP3    H236669   6.768   0.270   0.068 -0.6809 -1.4262  1.3679
12242TIP3   OH236670   0.400   3.161   2.496 -0.4660 -0.2023  0.3915
12242TIP3    H136671   0.414   3.067   2.495 -0.9131 -0.2672 -0.4738
12242TIP3    H236672   0.488   3.199   2.503 -0.3514 -0.6874  1.7313
12243TIP3   OH236673   0.385   6.799   6.360 -0.3064  0.4519  0.3949
12243TIP3    H136674   0.340   6.735   6.304  0.2013 -1.8216  2.4408
12243TIP3    H236675   0.329   6.807   6.437  1.2906 -0.1626  1.6600
12244TIP3   OH236676   1.195   0.361   1.257  0.3214  0.6746  0.1281
12244TIP3    H136677   1.280   0.379   1.298  0.8789  1.5418 -1.3565
12244TIP3    H236678   1.141   0.436   1.281  0.7965  1.4243 -1.0801
12245TIP3   OH236679   0.854   0.629   4.954 -0.6512  0.0125 -0.3510
12245TIP3    H136680   0.813   0.543   4.953  0.6213 -0.6320 -1.9915
12245TIP3    H236681   0.781   0.690   4.960 -1.5475 -1.1355  1.7106
12246TIP3   OH236682   1.222   2.619   6.591  0.4519  0.5635  0.2610
12246TIP3    H136683   1.205   2.708   6.560 -0.1897  0.1602 -0.5981
12246TIP3    H236684   1.234   2.628   6.685  1.1917  1.6654  0.0877
12247TIP3   OH236685   2.074   7.020   3.528  0.6296  0.4687 -0.1885
12247TIP3    H136686   2.030   6.984   3.605 -2.7381 -0.4770 -2.3075
12247TIP3    H236687   2.115   7.100   3.559  2.1333 -1.3890  3.1784
12248TIP3   OH236688   1.170   3.680   3.519  0.3001  0.4047 -0.0986
12248TIP3    H136689   1.082   3.645   3.534  0.6708 -0.6518 -0.2706
12248TIP3    H236690   1.181   3.747   3.586 -0.4589  0.2068  0.2342
12249TIP3   OH236691   8.187   4.236   2.129 -0.0521  0.2393  0.1894
12249TIP3    H136692   8.122   4.294   2.170  0.4759  1.0138 -0.0408
12249TIP3    H236693   8.175   4.250   2.035  1.3620  1.4617  0.1520
12250TIP3   OH236694   5.727   0.058   1.269  0.4359 -0.6154  0.2319
12250TIP3    H136695   5.810   0.049   1.222  0.2711 -0.2896 -0.1272
12250TIP3    H236696   5.715  -0.026   1.312  1.3093 -0.4217  0.8730
12251TIP3   OH236697   6.402   0.980   4.591 -0.2851  0.0236 -0.0183
12251TIP3    H136698   6.436   1.062   4.627  0.1952 -0.1970  0.0407
12251TIP3    H236699   6.477   0.920   4.593 -0.0328  0.2093 -2.0728
12252TIP3   OH236700   1.347   0.481   4.399 -0.9395 -0.3007 -0.4254
12252TIP3    H136701   1.393   0.445   4.476 -2.0777 -2.6860 -0.7591
12252TIP3    H236702   1.400   0.453   4.324 -1.1548 -0.1383 -0.6398
12253TIP3   OH236703   1.523   1.971   4.916 -0.4918 -0.4600  0.1996
12253TIP3    H136704   1.502   2.063   4.900 -1.9216 -1.0178 -1.4937
12253TIP3    H236705   1.608   1.973   4.960  0.2158  1.6247 -1.1105
12254TIP3   OH236706   7.761   6.385   6.215  0.1715  0.2281  0.2745
12254TIP3    H136707   7.684   6.443   6.222 -0.7882 -1.0897  1.1087
12254TIP3    H236708   7.728   6.299   6.239  1.9958 -0.3254  0.9667
12255TIP3   OH236709   0.000   6.902   4.550  0.2432  0.5988  0.3553
12255TIP3    H136710  -0.008   6.995   4.529 -0.4988  0.3455 -0.5390
12255TIP3    H236711   0.072   6.872   4.494  0.7281  0.6975  0.9113
12256TIP3   OH236712   0.089   1.559   0.591  0.2123 -0.0209  0.8917
12256TIP3    H136713   0.115   1.519   0.674 -0.2899  2.4147  2.3199
12256TIP3    H236714   0.151   1.524   0.527 -0.9315 -3.9665  1.6678
12257TIP3   OH236715   0.991   4.000   4.571  0.3624  0.2515 -0.2536
12257TIP3    H136716   0.982   3.958   4.656 -3.1968  2.4719  0.6936
12257TIP3    H236717   0.944   3.942   4.511  2.0278 -0.8177 -0.5802
12258TIP3   OH236718   3.940   6.672   4.652  0.2042 -0.0586 -0.1130
12258TIP3    H136719   4.002   6.608   4.618  2.3572  1.0444  1.4709
12258TIP3    H236720   3.854   6.635   4.632  1.3403 -2.2894 -1.2807
12259TIP3   OH236721   3.927   3.315   2.298  0.5514 -1.5182  0.2116
12259TIP3    H136722   3.858   3.306   2.232 -0.8457 -1.2923  1.5832
12259TIP3    H236723   4.007   3.286   2.253 -0.6678 -3.2473 -0.9857
12260TIP3   OH236724   7.803   5.337   2.251 -0.1033 -0.0870 -0.0741
12260TIP3    H136725   7.842   5.424   2.241  0.0355 -0.1076  0.2829
12260TIP3    H236726   7.720   5.343   2.204  1.0742 -0.5583 -2.3549
12261TIP3   OH236727   1.215   4.164   5.943  0.5219 -0.5568 -0.1129
12261TIP3    H136728   1.218   4.086   5.886  0.4908 -0.2925 -0.4786
12261TIP3    H236729   1.128   4.160   5.984  0.0833 -0.1325 -0.9668
12262TIP3   OH236730   1.461   5.514   3.922 -0.3867  0.9361 -0.2911
12262TIP3    H136731   1.385   5.477   3.967 -0.4555  0.2572 -0.9594
12262TIP3    H236732   1.449   5.491   3.830  0.3880  1.2397 -0.4762
12263TIP3   OH236733   2.450   1.545   0.559  0.4510  0.3332 -0.1286
12263TIP3    H136734   2.395   1.489   0.503  1.8723  0.8265 -2.1443
12263TIP3    H236735   2.537   1.542   0.518  0.8634  3.1031  0.3128
12264TIP3   OH236736   7.741   4.147   3.239  0.2584  0.1534 -0.3469
12264TIP3    H136737   7.796   4.225   3.250 -0.9323  1.0294 -0.5016
12264TIP3    H236738   7.652   4.177   3.256 -0.2398 -1.1534 -0.5297
12265TIP3   OH236739   6.780   2.301   1.694  0.4134 -0.3343 -0.2888
12265TIP3    H136740   6.834   2.253   1.631  0.9648 -0.0065 -0.0718
12265TIP3    H236741   6.727   2.233   1.735  1.8383 -0.9193  0.6718
12266TIP3   OH236742   6.609   1.295   1.230  0.1797 -0.0879 -0.0224
12266TIP3    H136743   6.697   1.329   1.243  0.6049 -0.9079 -0.6919
12266TIP3    H236744   6.609   1.211   1.275  0.4624 -1.1445 -1.9176
12267TIP3   OH236745   3.020   2.191   2.177  0.1733 -0.3087 -0.1669
12267TIP3    H136746   3.080   2.145   2.236 -1.2330 -0.1680  1.4141
12267TIP3    H236747   2.980   2.259   2.230  0.3763  1.1927 -1.8342
12268TIP3   OH236748   1.848   7.423   0.480  0.5843 -0.0552  0.3931
12268TIP3    H136749   1.854   7.508   0.524 -0.6354 -0.4655  1.4223
12268TIP3    H236750   1.761   7.424   0.439  0.0757 -1.2087  1.3764
12269TIP3   OH236751   6.864   5.690   0.931 -0.1492  0.0019  0.0221
12269TIP3    H136752   6.872   5.707   0.837  1.2942 -0.3079  0.0604
12269TIP3    H236753   6.930   5.624   0.949 -1.2679 -0.8746  1.0492
12270TIP3   OH236754   1.145   7.102   1.658  0.8119  0.4509 -0.0964
12270TIP3    H136755   1.146   7.009   1.680 -1.6892 -0.1034 -1.8633
12270TIP3    H236756   1.200   7.108   1.580  0.6199  0.3697 -0.2385
12271TIP3   OH236757   6.107   3.624   6.769 -0.0168  0.1283 -0.2538
12271TIP3    H136758   6.100   3.542   6.819  2.6337 -0.0948 -0.0625
12271TIP3    H236759   6.115   3.596   6.678  1.3861  0.0691 -0.1447
12272TIP3   OH236760   1.470   7.450   0.134  0.0620  0.0928 -0.0787
12272TIP3    H136761   1.377   7.432   0.117  0.1900 -0.3733 -0.3105
12272TIP3    H236762   1.502   7.488   0.052  0.0530  0.3434  0.0343
12273TIP3   OH236763   6.778   3.263   1.806  0.1732 -0.0063  0.5276
12273TIP3    H136764   6.799   3.331   1.742 -1.2640  0.6786  0.7482
12273TIP3    H236765   6.687   3.242   1.790  0.5611 -1.8348  0.5490
12274TIP3   OH236766   5.472   4.263   1.576 -0.0169 -0.2188  0.0592
12274TIP3    H136767   5.477   4.215   1.659  2.3510 -0.1258  0.0341
12274TIP3    H236768   5.563   4.286   1.556 -0.2895 -1.5254 -3.3392
12275TIP3   OH236769   5.203   6.813   0.237 -0.4123  0.1220 -0.4381
12275TIP3    H136770   5.281   6.776   0.277 -0.7948 -0.4828 -0.2357
12275TIP3    H236771   5.236   6.871   0.169  0.2049 -0.3913 -0.5852
12276TIP3   OH236772   1.642   3.479   5.242  0.2138  0.1224  0.0890
12276TIP3    H136773   1.709   3.440   5.185 -1.1488 -0.6146 -1.0859
12276TIP3    H236774   1.560   3.441   5.211 -0.6296 -0.0593  2.3912
12277TIP3   OH236775   2.700   5.046   0.920  0.1459 -0.2699  0.1481
12277TIP3    H136776   2.612   5.009   0.913 -0.4875  0.8727  1.6589
12277TIP3    H236777   2.748   5.007   0.846 -1.7726 -0.4353 -1.0794
12278TIP3   OH236778   1.069   5.728   3.483 -0.3801  0.5771  0.2039
12278TIP3    H136779   1.054   5.740   3.577 -1.9372  1.8679 -0.1683
12278TIP3    H236780   1.059   5.634   3.469 -1.6478  0.5482  1.1173
12279TIP3   OH236781   7.457   3.365   6.303 -0.3486  0.5798  0.3591
12279TIP3    H136782   7.406   3.300   6.352  1.3948 -0.6409  0.6402
12279TIP3    H236783   7.512   3.408   6.368  0.2075  0.6845 -0.1631
12280TIP3   OH236784   0.244   3.331   4.791  0.1016 -0.2522  0.0538
12280TIP3    H136785   0.321   3.321   4.734  0.2745 -1.1349  0.4242
12280TIP3    H236786   0.170   3.330   4.731  0.3115 -0.6781 -0.2029
12281TIP3   OH236787   0.236   4.776   4.125  0.0914 -0.0655 -0.0064
12281TIP3    H136788   0.305   4.783   4.058  1.4251 -1.9818  1.0814
12281TIP3    H236789   0.281   4.797   4.207 -0.3699 -2.1819  0.8271
12282TIP3   OH236790   8.181   3.571   2.953 -0.1706  0.0130 -0.2687
12282TIP3    H136791   8.168   3.609   3.040  0.6058  0.5116 -0.3670
12282TIP3    H236792   8.213   3.483   2.971 -0.2140  0.0391 -0.0541
12283TIP3   OH236793   6.575   6.505   4.003  0.5192  0.3001 -0.1593
12283TIP3    H136794   6.665   6.478   4.018  0.7148  1.2470  0.5125
12283TIP3    H236795   6.570   6.592   4.042 -0.4220  0.6760 -1.0657
12284TIP3   OH236796   7.737   0.184   4.045 -0.3766  0.4243  0.2096
12284TIP3    H136797   7.787   0.197   4.125  0.4583  1.1145 -0.4161
12284TIP3    H236798   7.645   0.184   4.074 -0.0478 -1.6462  1.4786
12285TIP3   OH236799   2.584   3.913   6.335  0.0467 -0.3733 -0.6680
12285TIP3    H136800   2.553   3.997   6.368  0.7995 -0.2495 -0.2323
12285TIP3    H236801   2.577   3.854   6.411  1.3828 -0.1950 -0.3733
12286TIP3   OH236802   3.689   5.407   2.583 -0.4565 -0.1123  0.0829
12286TIP3    H136803   3.765   5.465   2.592 -0.1676 -0.7098  2.1201
12286TIP3    H236804   3.640   5.419   2.665 -1.9150 -0.6441 -0.6743
12287TIP3   OH236805   0.865   2.833   5.310  0.4530 -0.1776  0.2998
12287TIP3    H136806   0.905   2.779   5.379  0.2801 -1.8950 -0.8681
12287TIP3    H236807   0.807   2.773   5.263  0.6304  0.8839 -1.3920
12288TIP3   OH236808   0.506   0.856   2.152  0.1815 -0.4580 -0.4514
12288TIP3    H136809   0.446   0.887   2.220  1.7438 -1.9519  1.7437
12288TIP3    H236810   0.558   0.933   2.129 -0.7238  0.1883 -0.3959
12289TIP3   OH236811   4.409   7.772   1.288 -0.0167 -0.1289 -0.4377
12289TIP3    H136812   4.502   7.792   1.295 -0.2763  1.5117 -1.1478
12289TIP3    H236813   4.405   7.690   1.238  1.0294  0.6573 -1.9029
12290TIP3   OH236814   0.891   4.155   1.044  0.0195  0.0134  0.3160
12290TIP3    H136815   0.975   4.197   1.025  0.4058 -0.9219 -0.1064
12290TIP3    H236816   0.906   4.062   1.026 -1.7444  0.0929 -2.0762
12291TIP3   OH236817   6.204   2.846   3.592 -0.4664  0.2102  0.0336
12291TIP3    H136818   6.168   2.788   3.660  0.8396 -1.4118 -0.5831
12291TIP3    H236819   6.296   2.854   3.614  0.0914 -0.7412 -1.7560
12292TIP3   OH236820   5.046   7.171   6.257 -0.0748  0.0076 -0.3722
12292TIP3    H136821   5.010   7.166   6.169 -3.8170 -0.7574  1.0097
12292TIP3    H236822   5.063   7.080   6.281 -1.4254 -0.0552  0.4670
12293TIP3   OH236823   0.069   2.058   1.305  0.6101 -0.2279  0.0024
12293TIP3    H136824  -0.011   2.005   1.307  0.0915  0.5341 -0.0531
12293TIP3    H236825   0.083   2.084   1.397 -0.3094  1.2334 -0.2461
12294TIP3   OH236826   4.809   1.812   4.432 -0.3765 -0.2257 -0.1788
12294TIP3    H136827   4.797   1.799   4.526  1.1349 -1.2241 -0.0958
12294TIP3    H236828   4.884   1.871   4.425  0.3354 -1.1741 -0.7580
12295TIP3   OH236829   2.086   2.624   3.476  0.3181  0.4049 -0.3615
12295TIP3    H136830   2.097   2.663   3.389  1.5966  0.4840 -0.1846
12295TIP3    H236831   2.145   2.673   3.532  0.6558 -0.6461  0.2318
12296TIP3   OH236832   5.874   1.715   0.437  0.2534  0.1984  0.6553
12296TIP3    H136833   5.813   1.785   0.459 -0.7163 -0.6189  0.6581
12296TIP3    H236834   5.848   1.687   0.349  1.0522  0.2801  0.3883
12297TIP3   OH236835   4.454   4.948   1.139 -0.3440 -0.1587 -0.0966
12297TIP3    H136836   4.384   4.940   1.204  0.3685  1.0118  0.8508
12297TIP3    H236837   4.499   4.863   1.142 -1.4632 -0.7866 -0.4461
12298TIP3   OH236838   0.395   4.834   5.791  0.1383  0.1262 -1.0169
12298TIP3    H136839   0.306   4.806   5.772  0.6593 -1.5001 -1.2535
12298TIP3    H236840   0.388   4.927   5.810 -1.8685 -0.3066  0.7404
12299TIP3   OH236841   2.919   6.413   0.649  0.0236  0.3199 -0.7808
12299TIP3    H136842   2.918   6.441   0.557 -0.9827  0.6619 -0.6804
12299TIP3    H236843   2.856   6.471   0.692  0.4001  0.0835  0.1044
12300TIP3   OH236844   3.156   0.480   4.986 -0.1278  0.3457 -0.0288
12300TIP3    H136845   3.175   0.532   4.908  1.4833 -0.2624 -0.0600
12300TIP3    H236846   3.105   0.406   4.954  0.7907 -0.0649 -0.5669
12301TIP3   OH236847   0.593   6.449   5.812 -0.0047  0.2275  0.0691
12301TIP3    H136848   0.510   6.403   5.803 -1.4218  2.1458  2.3181
12301TIP3    H236849   0.647   6.391   5.865 -0.6475 -0.1582  0.3146
12302TIP3   OH236850   8.196   6.880   2.641  0.1489  0.1551  0.6398
12302TIP3    H136851   8.213   6.946   2.574  1.7272 -0.8058  0.0499
12302TIP3    H236852   8.181   6.931   2.721  0.9566  1.2601  0.1168
12303TIP3   OH236853   6.738   3.425   1.594  0.1891 -0.7087  0.2002
12303TIP3    H136854   6.818   3.432   1.541 -0.4052  0.9906 -0.5354
12303TIP3    H236855   6.681   3.367   1.543 -0.2934  0.7387 -0.9926
12304TIP3   OH236856   5.472   0.680   0.527 -0.4838 -0.2656  0.4838
12304TIP3    H136857   5.406   0.694   0.459 -1.0262 -1.6521  0.6831
12304TIP3    H236858   5.422   0.657   0.605  0.1751  0.4101  1.1212
12305TIP3   OH236859   7.582   4.749   0.462 -0.4148 -0.1808  0.3797
12305TIP3    H136860   7.555   4.798   0.384 -0.8253 -1.1504 -0.1039
12305TIP3    H236861   7.547   4.800   0.535  0.4567  1.0432 -0.0330
12306TIP3   OH236862   4.627   1.390   6.218  0.4243 -0.8315 -0.1218
12306TIP3    H136863   4.590   1.478   6.207  0.7411 -0.8839 -2.0927
12306TIP3    H236864   4.554   1.331   6.200  0.8421 -0.9266 -1.7341
12307TIP3   OH236865   1.620   1.971   2.279 -0.0187 -0.1645 -0.5673
12307TIP3    H136866   1.541   1.983   2.225  0.5383  0.5889 -1.2400
12307TIP3    H236867   1.654   1.885   2.252 -0.4386 -0.3633 -0.4816
12308TIP3   OH236868   4.681   2.295   2.971  0.2835  0.3471  0.2669
12308TIP3    H136869   4.766   2.339   2.973 -0.2851  1.4848  1.1198
12308TIP3    H236870   4.682   2.243   2.891  2.5965 -1.4232  1.3289
12309TIP3   OH236871   8.223   1.116   0.527 -0.0433 -0.2226  0.8864
12309TIP3    H136872   8.282   1.155   0.591  1.5183 -0.0481 -0.5683
12309TIP3    H236873   8.186   1.191   0.480  1.7670 -0.3532 -0.8811
12310TIP3   OH236874   6.870   1.547   2.639  0.1564 -0.6783  0.3799
12310TIP3    H136875   6.917   1.629   2.625  0.3462 -0.4121  2.3347
12310TIP3    H236876   6.796   1.552   2.578  0.3984  0.7600  0.1646
12311TIP3   OH236877   1.813   0.813   4.949  0.1044  0.2251 -0.0094
12311TIP3    H136878   1.819   0.904   4.976 -0.4205  0.6188 -1.1724
12311TIP3    H236879   1.720   0.798   4.937  0.1369 -0.6363  0.6879
12312TIP3   OH236880   5.296   5.006   4.163 -1.0066 -0.2913  0.1834
12312TIP3    H136881   5.318   4.918   4.194 -2.2360 -0.4693  0.5748
12312TIP3    H236882   5.326   5.064   4.233 -3.2444 -0.6523  1.5435
12313TIP3   OH236883   4.509   6.167   3.307  0.1636 -0.1199 -0.0375
12313TIP3    H136884   4.564   6.200   3.379  0.7068 -1.0887  0.0079
12313TIP3    H236885   4.513   6.072   3.316 -2.2737 -0.2417  0.5235
12314TIP3   OH236886   8.242   0.128   2.403  0.5446  0.3633 -0.7603
12314TIP3    H136887   8.275   0.142   2.491 -0.6490 -1.5853  0.0886
12314TIP3    H236888   8.169   0.189   2.394  1.1352  1.0817 -0.6898
12315TIP3   OH236889   6.441   0.614   1.668 -0.0477  0.2295 -0.2081
12315TIP3    H136890   6.516   0.618   1.609 -1.1435  0.0885 -1.6686
12315TIP3    H236891   6.433   0.522   1.692  0.2903  0.2602  0.0310
12316TIP3   OH236892   4.393   5.966   1.137 -0.5113 -0.0726  0.2966
12316TIP3    H136893   4.423   6.048   1.099 -0.5470 -0.8329 -1.4857
12316TIP3    H236894   4.464   5.904   1.118 -1.0550 -0.7476  0.4423
12317TIP3   OH236895   0.386   2.908   4.069  0.8983  0.1143 -0.5569
12317TIP3    H136896   0.430   2.843   4.124 -0.3375  0.9596  1.5273
12317TIP3    H236897   0.339   2.855   4.004  2.3606 -0.9164 -0.8328
12318TIP3   OH236898   1.550   5.188   4.042  0.0334 -0.4249  0.2582
12318TIP3    H136899   1.604   5.119   4.003 -1.2201 -1.5082  0.3785
12318TIP3    H236900   1.517   5.238   3.967 -1.4013 -1.7729 -0.0550
12319TIP3   OH236901   5.303   1.355   0.767 -0.1724  0.1218  0.3554
12319TIP3    H136902   5.354   1.312   0.699  0.1136 -0.4126  0.8920
12319TIP3    H236903   5.218   1.371   0.727 -0.0347 -0.2642 -0.0972
12320TIP3   OH236904   6.046   1.919   6.139  0.1950 -0.4800 -0.0022
12320TIP3    H136905   6.026   1.892   6.049  0.9310  0.4512 -0.4629
12320TIP3    H236906   6.092   1.844   6.176  1.0977 -0.3813 -0.8581
12321TIP3   OH236907   5.873   7.036   1.002  0.6897 -0.0291  0.0441
12321TIP3    H136908   5.939   7.018   1.068  0.3477  0.1804  0.4464
12321TIP3    H236909   5.800   7.074   1.050 -0.1344 -1.1755 -0.2491
12322TIP3   OH236910   3.250   3.783   0.950 -0.3986  0.0399 -0.3917
12322TIP3    H136911   3.339   3.784   0.986  0.1082 -1.9115 -1.4349
12322TIP3    H236912   3.201   3.843   1.006  0.9965 -0.6656  1.7069
12323TIP3   OH236913   4.482   0.546   1.368 -0.7098 -0.1058  0.1369
12323TIP3    H136914   4.514   0.625   1.412 -0.2316 -1.5715  2.5706
12323TIP3    H236915   4.412   0.578   1.311  0.2355  2.2139  0.1466
12324TIP3   OH236916   1.055   4.163   2.706  0.2110 -0.0164 -0.0573
12324TIP3    H136917   1.072   4.088   2.762  1.4658  2.0013  2.5126
12324TIP3    H236918   0.977   4.204   2.744  0.7703  1.0956 -0.0517
12325TIP3   OH236919   3.210   4.037   4.829 -0.1282 -0.3117  0.1094
12325TIP3    H136920   3.131   3.984   4.835 -1.4141  1.5605  0.4569
12325TIP3    H236921   3.185   4.111   4.774  1.2724  0.5338  0.5627
12326TIP3   OH236922   6.237   3.208   5.434  0.0711  0.5108 -0.1030
12326TIP3    H136923   6.228   3.301   5.456 -1.6025  0.0675  1.4015
12326TIP3    H236924   6.153   3.185   5.396  0.7171 -0.2603 -1.0992
12327TIP3   OH236925   5.635   7.450   4.769  0.0001 -0.0590 -0.5842
12327TIP3    H136926   5.648   7.406   4.853 -0.6342 -0.7342 -0.8316
12327TIP3    H236927   5.559   7.406   4.730 -0.2765  0.8497 -1.1079
12328TIP3   OH236928   1.893   5.263   0.450 -0.8569 -0.1121 -0.3184
12328TIP3    H136929   1.843   5.188   0.416 -1.4194  0.1645 -0.1232
12328TIP3    H236930   1.953   5.225   0.514 -0.3083 -0.5407 -1.0717
12329TIP3   OH236931   4.431   5.492   6.261  0.0143  0.2794 -0.0002
12329TIP3    H136932   4.515   5.533   6.241  0.6153 -1.7407 -1.9699
12329TIP3    H236933   4.389   5.481   6.175  0.2596 -3.8569  0.2242
12330TIP3   OH236934   7.832   5.160   4.317  0.2285 -0.1770 -0.1502
12330TIP3    H136935   7.857   5.252   4.327  0.6766 -0.3512  0.3741
12330TIP3    H236936   7.780   5.158   4.237 -0.1415  0.6001  0.0627
12331TIP3   OH236937   4.374   6.584   0.594 -0.3633 -0.3427  0.6085
12331TIP3    H136938   4.399   6.665   0.549 -0.7676  0.3564  1.5944
12331TIP3    H236939   4.289   6.561   0.556 -1.2473  0.8725  1.7497
12332TIP3   OH236940   1.028   4.003   3.579 -0.6487 -0.1484 -0.1569
12332TIP3    H136941   1.124   3.999   3.585 -0.4630  1.0981 -1.6782
12332TIP3    H236942   0.998   3.935   3.639  1.1878 -0.7946  0.1115
12333TIP3   OH236943   4.070   4.916   6.028  0.5838  0.0987  0.3289
12333TIP3    H136944   4.113   4.858   6.091  0.2822 -0.8132 -0.2711
12333TIP3    H236945   4.045   4.858   5.956  0.3486  1.0028 -0.3387
12334TIP3   OH236946   6.209   0.920   3.293 -0.0550  0.3146 -0.7129
12334TIP3    H136947   6.171   0.929   3.205 -1.0752 -1.2577 -0.4840
12334TIP3    H236948   6.185   0.831   3.320  2.7975 -0.3397 -0.0377
12335TIP3   OH236949   3.095   3.329   4.049 -0.2201  0.1850 -0.1011
12335TIP3    H136950   3.154   3.346   3.975 -0.1263 -0.5077 -0.1889
12335TIP3    H236951   3.020   3.385   4.033 -0.4577 -0.3797 -1.0340
12336TIP3   OH236952   1.503   4.051   0.547 -0.5297  0.8538  0.3993
12336TIP3    H136953   1.420   4.088   0.518 -1.1507 -0.3674  0.5553
12336TIP3    H236954   1.523   3.984   0.483 -0.6338 -0.1451  1.3817
12337TIP3   OH236955   3.606   4.708   1.984  0.2382  0.3052  0.1762
12337TIP3    H136956   3.526   4.656   1.974  0.2560  0.1916  0.6069
12337TIP3    H236957   3.639   4.718   1.895  0.2508 -0.4453  0.0909
12338TIP3   OH236958   0.775   2.458   3.136 -0.0864 -0.4432 -0.1362
12338TIP3    H136959   0.823   2.389   3.090  0.3109 -0.8171  0.8206
12338TIP3    H236960   0.836   2.489   3.203 -0.5621  0.2773 -0.0219
12339TIP3   OH236961   8.112   0.900   5.136  0.1682  0.5302 -0.1196
12339TIP3    H136962   8.192   0.950   5.155  0.8353 -0.6972  0.4605
12339TIP3    H236963   8.144   0.811   5.120 -0.8417  0.4994 -2.4002
12340TIP3   OH236964   5.156   0.877   4.504 -0.0393  0.6051  0.1222
12340TIP3    H136965   5.079   0.855   4.451  1.4033 -0.2407 -1.7459
12340TIP3    H236966   5.217   0.806   4.487  1.8892  2.2163 -0.0081
12341TIP3   OH236967   4.149   4.693   4.021  0.1810  0.4487 -0.2520
12341TIP3    H136968   4.054   4.691   4.022  0.1813  0.0274 -0.8144
12341TIP3    H236969   4.171   4.772   3.971  0.1202  0.1867 -0.6999
12342TIP3   OH236970   0.055   7.492   2.143  0.4576  0.1553  0.6048
12342TIP3    H136971  -0.032   7.512   2.178  0.3824  0.8719  0.0438
12342TIP3    H236972   0.109   7.566   2.172  0.6807  0.1300  0.2500
12343TIP3   OH236973   6.807   5.984   0.772  0.3292 -0.0390 -0.0695
12343TIP3    H136974   6.826   6.058   0.713 -0.6971  1.0068  0.8514
12343TIP3    H236975   6.855   6.005   0.852  0.2665 -0.5279  0.0941
12344TIP3   OH236976   7.065   0.214   1.287  0.2290  0.8643  0.0657
12344TIP3    H136977   7.078   0.120   1.304  0.5969  0.9029 -0.0076
12344TIP3    H236978   7.119   0.258   1.353 -1.0860  1.0418  1.0590
12345TIP3   OH236979   4.223   5.069   3.560 -0.0886  0.4987  0.1421
12345TIP3    H136980   4.265   5.140   3.610 -0.3192  0.1176  0.8823
12345TIP3    H236981   4.291   5.002   3.552  0.3575  1.0711 -1.1601
12346TIP3   OH236982   7.866   5.533   3.073 -0.0505  0.5507  0.0166
12346TIP3    H136983   7.815   5.459   3.104  0.3416 -0.7850 -2.2853
12346TIP3    H236984   7.957   5.502   3.075  0.0824  0.7679 -1.3261
12347TIP3   OH236985   3.697   2.865   5.609 -0.1542  0.3715  0.1293
12347TIP3    H136986   3.687   2.859   5.514  0.8603  3.1460 -0.2452
12347TIP3    H236987   3.775   2.813   5.628  1.2570  1.9806 -1.0028
12348TIP3   OH236988   4.520   3.713   5.339  0.3971  0.1996 -0.4259
12348TIP3    H136989   4.425   3.729   5.348  0.5849  0.9440  0.4054
12348TIP3    H236990   4.560   3.789   5.381  1.4039  1.3324 -3.1827
12349TIP3   OH236991   4.483   4.153   4.371  0.3505  0.1835  0.1782
12349TIP3    H136992   4.437   4.092   4.429 -1.1535  0.3936 -0.7368
12349TIP3    H236993   4.575   4.131   4.381 -0.1229 -2.0359  0.1231
12350TIP3   OH236994   4.459   3.278   2.325 -0.4879 -0.8535 -0.1320
12350TIP3    H136995   4.552   3.253   2.331 -0.5343 -0.9876  0.0170
12350TIP3    H236996   4.413   3.208   2.371 -0.7776 -1.4985 -1.3577
12351TIP3   OH236997   2.281   1.342   1.544 -0.7352  0.1149  0.3942
12351TIP3    H136998   2.283   1.368   1.637 -1.0248  2.8298 -0.2670
12351TIP3    H236999   2.360   1.380   1.507 -1.6609  0.8865 -0.8761
12352TIP3   OH237000   0.386   5.038   3.743  0.0667 -0.1957  0.1201
12352TIP3    H137001   0.302   5.076   3.716 -0.2123 -0.1568  0.9856
12352TIP3    H237002   0.419   4.992   3.666 -0.6684 -0.0621 -0.2783
12353TIP3   OH237003   0.335   1.781   0.780  0.2229  0.5903  0.5859
12353TIP3    H137004   0.412   1.838   0.784 -0.3802  1.4678 -0.0490
12353TIP3    H237005   0.285   1.812   0.705 -0.6935 -0.0557  0.9062
12354TIP3   OH237006   7.650   3.385   1.959 -0.1616 -0.2547  0.3937
12354TIP3    H137007   7.557   3.377   1.937 -0.0637 -0.4787  0.0468
12354TIP3    H237008   7.696   3.342   1.886  0.2527  0.7465  0.0520
12355TIP3   OH237009   7.009   3.938   0.913  0.2448 -0.5893 -0.0919
12355TIP3    H137010   6.984   4.003   0.979  1.4337  1.0404 -1.1681
12355TIP3    H237011   6.939   3.940   0.849 -0.7684 -1.9681  0.8896
12356TIP3   OH237012   2.415   4.803   6.502  0.2551 -0.0848  0.9763
12356TIP3    H137013   2.408   4.841   6.590 -0.5953 -0.6486  1.1660
12356TIP3    H237014   2.378   4.715   6.511  0.8940 -0.4486  0.2270
12357TIP3   OH237015   0.056   5.765   3.683  0.0113  0.6468 -0.2107
12357TIP3    H137016   0.138   5.806   3.655  1.8417 -2.1441  0.6511
12357TIP3    H237017   0.045   5.690   3.624 -1.3016  0.3203  0.4071
12358TIP3   OH237018   5.097   1.449   5.845  0.2248  0.2354  0.0967
12358TIP3    H137019   5.183   1.457   5.805  0.3172  1.0285  0.4352
12358TIP3    H237020   5.100   1.505   5.922 -0.7577  0.6994 -0.1809
12359TIP3   OH237021   6.114   1.201   1.418  0.1525 -0.2607 -0.1283
12359TIP3    H137022   6.107   1.140   1.345 -0.1309 -0.0324 -0.2913
12359TIP3    H237023   6.026   1.206   1.454  0.6378 -1.8264  1.4209
12360TIP3   OH237024   7.057   7.219   5.331 -0.5518 -0.8253 -0.0127
12360TIP3    H137025   7.040   7.152   5.396  1.9099 -0.0969  1.5078
12360TIP3    H237026   7.142   7.196   5.294 -0.0172  0.9967 -0.0161
12361TIP3   OH237027   4.689   5.198   5.288 -0.2039  0.0263 -0.3318
12361TIP3    H137028   4.596   5.190   5.267 -0.1291  0.6477 -0.9488
12361TIP3    H237029   4.716   5.281   5.249  0.9998 -0.9360 -1.6926
12362TIP3   OH237030   0.426   0.164   2.954 -0.1149 -0.1882 -0.5063
12362TIP3    H137031   0.450   0.202   2.870  1.9571 -1.8560 -0.7546
12362TIP3    H237032   0.504   0.171   3.008 -0.5288 -1.5692  0.3390
12363TIP3   OH237033   0.874   6.026   3.075 -0.0663 -0.4664  0.0597
12363TIP3    H137034   0.882   6.099   3.137 -0.9746  1.0820 -1.5572
12363TIP3    H237035   0.866   5.948   3.130 -1.4826  0.9036  1.9122
12364TIP3   OH237036   2.993   0.413   2.625 -0.3018 -0.6040  0.0657
12364TIP3    H137037   3.084   0.396   2.651  0.6332  0.9290 -1.9045
12364TIP3    H237038   2.966   0.333   2.581 -0.0115 -1.1928  0.9436
12365TIP3   OH237039   8.032   6.585   2.198  0.0678 -0.1925 -0.0008
12365TIP3    H137040   8.090   6.619   2.266  1.2234 -0.7056 -0.6993
12365TIP3    H237041   8.090   6.538   2.138 -1.1343 -1.0777 -0.5078
12366TIP3   OH237042   1.262   0.975   6.070 -1.4507  0.2553  0.0161
12366TIP3    H137043   1.230   1.054   6.027 -0.9052  0.8403  0.6617
12366TIP3    H237044   1.327   0.940   6.011 -1.3593  0.5513 -0.0601
12367TIP3   OH237045   3.057   3.042   1.310  0.3615 -0.2552  0.3542
12367TIP3    H137046   3.126   3.065   1.247 -2.4670  0.9603 -2.5974
12367TIP3    H237047   3.070   2.949   1.328  3.0889  0.0651  0.4783
12368TIP3   OH237048   1.122   5.240   6.200  0.4625 -0.1816 -0.1592
12368TIP3    H137049   1.113   5.283   6.285  0.2892 -0.9360  0.2141
12368TIP3    H237050   1.106   5.309   6.136  3.6950  1.2144  0.3337
12369TIP3   OH237051   5.256   1.609   0.372  0.3043  0.3998  0.0025
12369TIP3    H137052   5.292   1.542   0.314  0.3163 -2.0429  2.6257
12369TIP3    H237053   5.333   1.654   0.407  0.3031  1.7562 -1.6271
12370TIP3   OH237054   2.767   1.846   2.245 -0.4261 -0.2478  0.0233
12370TIP3    H137055   2.766   1.895   2.328  1.6984 -0.2001  0.0523
12370TIP3    H237056   2.848   1.797   2.247  0.0153  0.2841 -2.3573
12371TIP3   OH237057   2.548   5.123   5.417  0.4051  0.8410  0.7508
12371TIP3    H137058   2.581   5.039   5.384  2.5985  2.0633 -0.3686
12371TIP3    H237059   2.626   5.168   5.449 -0.6755  2.6229  0.9814
12372TIP3   OH237060   2.828   3.862   2.885  0.1743 -0.3780 -0.2339
12372TIP3    H137061   2.811   3.814   2.965 -2.3803  0.2066 -0.3509
12372TIP3    H237062   2.912   3.828   2.854  0.4749 -1.7080  1.8445
12373TIP3   OH237063   4.480   6.662   1.063 -0.5542  0.0275  0.2614
12373TIP3    H137064   4.387   6.661   1.044 -0.1647  0.9778 -1.9412
12373TIP3    H237065   4.523   6.655   0.978  1.4361 -2.1539  1.2915
12374TIP3   OH237066   5.960   1.226   0.795 -0.0978 -0.2158 -0.1477
12374TIP3    H137067   5.911   1.177   0.861  0.0038 -0.8193 -0.5172
12374TIP3    H237068   5.966   1.315   0.831 -0.4898 -0.4118  0.4140
12375TIP3   OH237069   5.362   0.644   4.084  0.0865  0.4818  0.5344
12375TIP3    H137070   5.384   0.605   3.999 -0.4167  1.7558 -0.2117
12375TIP3    H237071   5.325   0.730   4.062  0.9600  1.3056  2.0824
12376TIP3   OH237072   5.420   0.248   5.379  0.1957  0.2329 -0.7368
12376TIP3    H137073   5.482   0.175   5.372  0.0646 -0.0450  0.7458
12376TIP3    H237074   5.467   0.323   5.342  0.9390 -0.2483 -0.7919
12377TIP3   OH237075   4.473   1.096   3.878  0.0076  0.3155  0.0676
12377TIP3    H137076   4.391   1.069   3.920  0.2043  1.3690  1.1969
12377TIP3    H237077   4.471   1.192   3.882  1.9024  0.3589  1.3714
12378TIP3   OH237078   1.877   2.216   2.666 -1.1869  0.6217  0.3151
12378TIP3    H137079   1.923   2.295   2.637  1.9663 -1.5556 -1.2546
12378TIP3    H237080   1.830   2.186   2.588 -1.1525  0.1814  0.4613
12379TIP3   OH237081   7.666   4.734   2.356  0.2022  0.1654 -0.2617
12379TIP3    H137082   7.653   4.647   2.317  1.5856 -0.1363 -0.1160
12379TIP3    H237083   7.710   4.716   2.439  1.9084  1.0679 -0.9337
12380TIP3   OH237084   3.994   2.232   5.537 -0.1104  0.3119  0.4480
12380TIP3    H137085   3.989   2.165   5.605  0.5209  1.2969  1.4871
12380TIP3    H237086   4.086   2.231   5.511 -0.6202 -1.1702 -1.5870
12381TIP3   OH237087   1.442   0.389   5.830 -0.4768 -0.4593  0.1825
12381TIP3    H137088   1.396   0.362   5.750 -1.8788 -0.2137  0.8886
12381TIP3    H237089   1.373   0.404   5.894  0.5330  0.8047  1.0177
12382TIP3   OH237090   6.480   5.067   5.939 -0.3824  0.0309  0.5390
12382TIP3    H137091   6.461   5.145   5.991  1.2213  0.9030 -0.1167
12382TIP3    H237092   6.466   4.994   6.000  0.8275  0.9934  2.0288
12383TIP3   OH237093   6.866   7.651   2.660 -0.6941  0.0644 -0.0947
12383TIP3    H137094   6.875   7.604   2.743 -0.7704 -1.4328 -0.9094
12383TIP3    H237095   6.913   7.597   2.597 -0.6064  1.2055 -1.0278
12384TIP3   OH237096   6.189   1.072  -0.003  0.0547  0.0147 -0.3397
12384TIP3    H137097   6.108   1.050   0.042  0.1072  0.6103  0.0518
12384TIP3    H237098   6.258   1.035   0.052  0.2271  2.2258  1.0409
12385TIP3   OH237099   4.490   7.219   3.206  0.0629  0.2682 -0.3751
12385TIP3    H137100   4.435   7.282   3.252 -0.6423  0.4639 -1.4662
12385TIP3    H237101   4.530   7.269   3.135  1.9793  0.2280  0.6159
12386TIP3   OH237102   5.247   4.232   4.530  0.0338 -0.1560 -0.2466
12386TIP3    H137103   5.288   4.185   4.602  0.2462  0.2971 -0.0727
12386TIP3    H237104   5.264   4.324   4.547 -0.2297 -0.0193 -0.6810
12387TIP3   OH237105   5.116   4.897   4.689 -0.0914  0.3443 -0.3917
12387TIP3    H137106   5.043   4.957   4.671 -0.7905 -0.0518  0.9653
12387TIP3    H237107   5.095   4.859   4.774 -0.2737 -2.6833 -1.6653
12388TIP3   OH237108   2.386   6.940   2.860 -0.1466 -0.0547 -0.1225
12388TIP3    H137109   2.470   6.986   2.869 -0.1092  0.0139 -0.7392
12388TIP3    H237110   2.356   6.963   2.772 -1.2484  0.6538  0.4060
12389TIP3   OH237111   4.250   2.653   6.205 -0.2057 -0.1048  0.2242
12389TIP3    H137112   4.156   2.662   6.185  0.0462  0.3036 -0.8384
12389TIP3    H237113   4.265   2.719   6.273 -0.9042 -0.9150  1.1875
12390TIP3   OH237114   2.312   6.046   0.607  0.2572 -0.2282  0.2025
12390TIP3    H137115   2.217   6.039   0.616  0.3397 -0.6064  0.8522
12390TIP3    H237116   2.326   6.071   0.516 -0.4566 -0.3618  0.0505
12391TIP3   OH237117   0.185   7.232   0.473  0.0739 -0.3746 -0.9947
12391TIP3    H137118   0.130   7.207   0.548  0.3798  1.0619 -0.2379
12391TIP3    H237119   0.144   7.191   0.398 -1.2824 -0.4073 -0.2669
12392TIP3   OH237120   2.474   3.261   2.371 -1.0199  0.1174  0.6691
12392TIP3    H137121   2.498   3.180   2.325 -0.6106  0.9092 -0.5567
12392TIP3    H237122   2.512   3.251   2.458  0.2101 -0.4456  0.0960
12393TIP3   OH237123   8.152   1.671   0.724 -0.1533  0.4673  0.2046
12393TIP3    H137124   8.192   1.671   0.811 -0.7414  1.8972  0.4899
12393TIP3    H237125   8.222   1.639   0.666 -0.2156 -2.0433  1.3531
12394TIP3   OH237126   1.441   1.786   6.115  0.0795  0.0021  0.1659
12394TIP3    H137127   1.507   1.762   6.050 -0.2568  0.3406 -0.3180
12394TIP3    H237128   1.480   1.763   6.199  0.3152 -0.9359 -0.1857
12395TIP3   OH237129   0.413   6.750   0.035 -0.4388 -0.2153 -0.4575
12395TIP3    H137130   0.497   6.797   0.036  0.4547 -1.6551 -1.9355
12395TIP3    H237131   0.425   6.678   0.097 -1.8083  1.3789  1.8105
12396TIP3   OH237132   7.610   7.427   5.788  0.0407 -0.7027 -0.0285
12396TIP3    H137133   7.547   7.466   5.848  0.0916  0.7876 -0.8999
12396TIP3    H237134   7.677   7.495   5.776  0.7116 -1.4693 -0.7459
12397TIP3   OH237135   6.887   6.465   0.450 -0.2023  0.3706 -0.2697
12397TIP3    H137136   6.898   6.518   0.529 -0.2370 -0.1279  0.0750
12397TIP3    H237137   6.793   6.469   0.431 -0.8136 -2.2156  1.6696
12398TIP3   OH237138   7.835   0.402   0.305 -0.6362 -0.2783  0.6363
12398TIP3    H137139   7.839   0.309   0.330  0.0058 -0.0850  1.2851
12398TIP3    H237140   7.878   0.405   0.220  2.3723 -0.1284  2.0334
12399TIP3   OH237141   5.797   0.259   1.621  0.3402  0.3150 -0.1788
12399TIP3    H137142   5.870   0.314   1.650 -0.0504  0.1984  1.0997
12399TIP3    H237143   5.788   0.194   1.691 -1.2562  0.5986 -0.0950
12400TIP3   OH237144   1.161   6.200   5.692 -0.3215 -0.0330 -0.2192
12400TIP3    H137145   1.079   6.187   5.645 -0.8843 -0.4953  0.8455
12400TIP3    H237146   1.228   6.162   5.636 -0.7370  0.8707 -1.3711
12401TIP3   OH237147   7.052   0.612   5.998 -0.1420 -0.7544 -0.1011
12401TIP3    H137148   7.029   0.593   5.907 -0.4765 -1.5794  0.1421
12401TIP3    H237149   7.076   0.704   5.999 -2.5175 -0.0860 -0.5686
12402TIP3   OH237150   5.961   4.479   5.956  0.0082 -0.2892  0.0511
12402TIP3    H137151   5.890   4.543   5.961  0.6164  0.3829  0.4357
12402TIP3    H237152   5.923   4.404   5.911  0.0747  1.4757 -3.2732
12403TIP3   OH237153   7.009   5.395   2.731  0.0706 -0.3373 -0.4604
12403TIP3    H137154   7.050   5.369   2.649  0.9230  0.1826 -0.2054
12403TIP3    H237155   6.978   5.484   2.715  2.3953  0.7267  0.5101
12404TIP3   OH237156   1.393   1.976   0.752 -0.8114  0.0355 -0.5947
12404TIP3    H137157   1.477   1.973   0.705 -1.2244  0.9081 -1.4355
12404TIP3    H237158   1.387   1.891   0.796 -0.5447 -0.9972 -2.4302
12405TIP3   OH237159   4.188   4.487   0.430  0.5711  0.0402 -0.3429
12405TIP3    H137160   4.105   4.446   0.405  0.5846 -1.5406  1.9265
12405TIP3    H237161   4.254   4.434   0.385  0.4477 -0.4263  0.0148
12406TIP3   OH237162   3.329   4.945   1.069  0.3533  0.2318 -0.2624
12406TIP3    H137163   3.317   4.884   0.997 -1.4609 -0.9409  0.9510
12406TIP3    H237164   3.373   4.893   1.137  2.5050  1.4524 -0.6347
12407TIP3   OH237165   3.612   0.691   1.362  0.1416  0.2358  0.1729
12407TIP3    H137166   3.535   0.740   1.393  1.3773  1.5284  1.3435
12407TIP3    H237167   3.580   0.641   1.287 -1.8504  0.6948  0.6644
12408TIP3   OH237168   2.955   7.686   4.764  0.3032 -0.4522 -0.2235
12408TIP3    H137169   2.893   7.750   4.799 -1.0383 -1.8931  0.1186
12408TIP3    H237170   3.041   7.724   4.784 -0.4240  1.4046 -0.3534
12409TIP3   OH237171   7.331   3.825   4.822 -0.0229 -0.5040  0.0785
12409TIP3    H137172   7.337   3.893   4.756  2.1010 -0.4987  0.2129
12409TIP3    H237173   7.237   3.817   4.840 -0.5228  0.4743 -1.8778
12410TIP3   OH237174   6.781   1.001   3.962 -0.1415 -0.1703  0.3227
12410TIP3    H137175   6.803   0.991   3.870 -1.7261 -2.2354  0.0809
12410TIP3    H237176   6.814   0.921   4.004  0.1793  0.5395  1.4860
12411TIP3   OH237177   7.421   0.551   0.493  0.0325  0.0627 -0.4574
12411TIP3    H137178   7.383   0.465   0.512  0.6847 -0.0873  0.1832
12411TIP3    H237179   7.513   0.543   0.517  0.1533  0.8743 -0.6186
12412TIP3   OH237180   3.860   3.208   3.182  0.1897  0.0672  0.2191
12412TIP3    H137181   3.851   3.115   3.202 -0.7112  0.3070  0.9715
12412TIP3    H237182   3.831   3.253   3.261  0.5972  0.9902 -0.1434
12413TIP3   OH237183   5.706   7.594   0.664 -0.1831 -0.0978 -0.0783
12413TIP3    H137184   5.632   7.579   0.605  1.3203 -0.0471 -2.0864
12413TIP3    H237185   5.677   7.665   0.722 -2.3685 -1.3561  0.4908
12414TIP3   OH237186   1.287   0.329   3.343 -0.3855 -0.6530 -0.3394
12414TIP3    H137187   1.363   0.305   3.291  0.2312 -0.1993  0.3405
12414TIP3    H237188   1.323   0.368   3.423 -1.3190  0.1699 -0.2904
12415TIP3   OH237189   2.311   0.642   2.227 -0.1321 -0.2179  0.0284
12415TIP3    H137190   2.222   0.659   2.194 -0.5351  0.1490  1.2307
12415TIP3    H237191   2.336   0.725   2.269 -0.0976 -0.9969  1.5891
12416TIP3   OH237192   4.655   0.156   4.168  0.6576  0.0453  0.3302
12416TIP3    H137193   4.695   0.086   4.116 -0.5680  0.8531 -1.8615
12416TIP3    H237194   4.578   0.116   4.208  1.8523 -0.7003  2.0030
12417TIP3   OH237195   5.741   0.474   3.390 -0.2678 -0.5379  0.0961
12417TIP3    H137196   5.804   0.458   3.320 -0.0018 -0.8112  0.3937
12417TIP3    H237197   5.794   0.480   3.470 -0.6394 -1.1391  0.4022
12418TIP3   OH237198   0.797   0.496   2.841 -0.0850  0.0599  0.5946
12418TIP3    H137199   0.850   0.458   2.912  1.5189  3.7128  1.6021
12418TIP3    H237200   0.719   0.530   2.885 -0.2777  0.1680  0.1753
12419TIP3   OH237201   3.257   5.924   0.162 -0.1147 -0.0378  0.3820
12419TIP3    H137202   3.241   5.996   0.224 -0.2304 -1.1584  1.7033
12419TIP3    H237203   3.257   5.845   0.216 -0.4337 -1.0945 -1.0944
12420TIP3   OH237204   3.043   5.551   2.844 -0.4596 -0.0880  0.0366
12420TIP3    H137205   2.991   5.470   2.843  0.8412 -0.9626 -0.4332
12420TIP3    H237206   3.060   5.569   2.751 -0.6456  0.6770  0.1466
12421TIP3   OH237207   6.462   3.038   0.466 -0.2053  0.0382  0.2675
12421TIP3    H137208   6.546   3.000   0.442  0.6737  1.9031  0.2384
12421TIP3    H237209   6.476   3.132   0.461 -2.4843  0.4011 -0.3636
12422TIP3   OH237210   0.873   6.647   3.464 -0.5306 -0.3529  0.5425
12422TIP3    H137211   0.794   6.645   3.517 -1.5047  0.5884 -0.8215
12422TIP3    H237212   0.849   6.606   3.381  0.1353  0.7504 -0.2243
12423TIP3   OH237213   6.650   3.510   0.932  0.2219  0.0384 -0.8754
12423TIP3    H137214   6.654   3.428   0.981 -0.6364 -0.4805 -1.6330
12423TIP3    H237215   6.620   3.484   0.844  0.2719  1.1201 -1.2312
12424TIP3   OH237216   6.904   4.472   0.557  0.4015  0.8581 -0.2445
12424TIP3    H137217   6.812   4.488   0.577  0.5351  0.1176  1.0417
12424TIP3    H237218   6.903   4.413   0.481 -0.1100  4.0000 -2.9149
12425TIP3   OH237219   4.742   3.234   1.223 -0.0155 -0.3354 -0.5233
12425TIP3    H137220   4.667   3.203   1.273  0.5357 -0.7536  0.0713
12425TIP3    H237221   4.707   3.301   1.164 -0.4854  1.1273  1.3262
12426TIP3   OH237222   1.547   0.736   4.399  0.2416  0.0320  0.1184
12426TIP3    H137223   1.543   0.814   4.456  0.2409  0.8797 -1.0133
12426TIP3    H237224   1.456   0.722   4.372  0.2201 -0.4613  0.4404
12427TIP3   OH237225   6.647   6.171   1.002  0.0689  0.0990  0.0481
12427TIP3    H137226   6.661   6.077   1.000 -1.0292 -0.0696 -1.0333
12427TIP3    H237227   6.602   6.190   0.920  0.2394  1.5628  0.2657
12428TIP3   OH237228   1.724   0.863   1.162  0.5506 -0.0613  0.6638
12428TIP3    H137229   1.806   0.897   1.197  1.3028 -0.5632 -0.5518
12428TIP3    H237230   1.661   0.934   1.175  1.7319  1.2514 -0.5041
12429TIP3   OH237231   5.939   0.160   2.623 -0.1367  0.1048 -0.0043
12429TIP3    H137232   5.950   0.253   2.644  0.6266 -0.2906  1.4358
12429TIP3    H237233   5.845   0.144   2.634 -0.0175  0.3208  1.4465
12430TIP3   OH237234   6.075   0.022   2.435  0.7914 -0.0621 -0.5539
12430TIP3    H137235   6.049   0.057   2.349  0.1938 -0.0079 -0.3569
12430TIP3    H237236   6.019   0.068   2.497 -0.6620 -1.9670 -0.3495
12431TIP3   OH237237   5.252   0.094   6.803 -0.1476  0.2896 -0.4169
12431TIP3    H137238   5.166   0.127   6.775 -1.7685 -2.1563  1.3115
12431TIP3    H237239   5.278   0.033   6.734  0.8481  1.8915 -1.5261
12432TIP3   OH237240   0.800   3.295   5.203  0.3614 -0.1535 -0.7706
12432TIP3    H137241   0.841   3.267   5.122  0.8181  1.0451 -0.9759
12432TIP3    H237242   0.716   3.334   5.177  0.7394  0.7093 -0.7432
12433TIP3   OH237243   5.451   7.820   5.403 -0.2945  0.0339 -0.3998
12433TIP3    H137244   5.485   7.741   5.446 -0.5334  1.4459  2.6955
12433TIP3    H237245   5.359   7.800   5.387  0.3505 -1.4355 -2.7652
12434TIP3   OH237246   5.278   4.637   3.784 -0.0017  0.2494 -0.1832
12434TIP3    H137247   5.338   4.701   3.745 -1.4872  1.8422 -0.0118
12434TIP3    H237248   5.334   4.566   3.813  1.6625  1.1469 -1.0412
12435TIP3   OH237249   6.125   6.165   0.865  0.3117  0.1112 -0.1603
12435TIP3    H137250   6.184   6.240   0.866 -1.9162  1.9934 -0.6086
12435TIP3    H237251   6.103   6.151   0.958  0.2665  0.4135 -0.1247
12436TIP3   OH237252   4.516   0.924   2.860  0.6318 -0.7052 -0.1389
12436TIP3    H137253   4.583   0.887   2.802  0.3995  0.1461 -0.9652
12436TIP3    H237254   4.475   0.994   2.809  0.0315 -0.3089  0.8523
12437TIP3   OH237255   2.072   6.350   1.299 -0.0586 -0.3741 -0.7337
12437TIP3    H137256   2.094   6.418   1.235 -2.3114  1.1398 -0.0132
12437TIP3    H237257   2.155   6.305   1.315  1.0905  0.8575 -2.7836
12438TIP3   OH237258   7.500   5.039   3.531 -0.0185  1.3280 -0.5068
12438TIP3    H137259   7.456   5.096   3.469  0.3453  1.7953 -0.3393
12438TIP3    H237260   7.507   4.955   3.486  1.1945  1.9424 -1.5335
12439TIP3   OH237261   5.789   5.800   1.621 -0.5171 -0.3661 -0.2145
12439TIP3    H137262   5.846   5.827   1.549 -0.2837 -0.4122 -0.0457
12439TIP3    H237263   5.707   5.773   1.578  0.2447 -2.1634 -0.6086
12440TIP3   OH237264   8.257   2.216   1.854 -0.5623 -0.0367  0.5919
12440TIP3    H137265   8.229   2.127   1.832  2.9079 -1.0952 -0.1120
12440TIP3    H237266   8.334   2.204   1.910  0.4520  2.5113 -0.1184
12441TIP3   OH237267   8.107   6.357   1.642  0.3278  0.1399 -0.0517
12441TIP3    H137268   8.188   6.381   1.598  0.2953 -1.4393 -1.0681
12441TIP3    H237269   8.113   6.262   1.653  0.5028  0.4519  3.8145
12442TIP3   OH237270   7.199   6.604   2.210 -0.4890 -0.4893 -0.0422
12442TIP3    H137271   7.128   6.647   2.257  1.1268  0.4944  1.6870
12442TIP3    H237272   7.169   6.514   2.196 -2.3648  0.1242 -0.1494
12443TIP3   OH237273   0.403   6.753   1.119 -0.0708  0.2445 -0.1120
12443TIP3    H137274   0.322   6.804   1.124 -0.0724  0.1586  1.2281
12443TIP3    H237275   0.455   6.796   1.052 -1.1147  0.4593 -0.8044
12444TIP3   OH237276   0.064   2.861   4.557 -0.3301  0.4770 -0.0629
12444TIP3    H137277   0.013   2.799   4.609 -0.6220  0.9153  0.1835
12444TIP3    H237278   0.133   2.808   4.517  0.1673  0.1894  1.1121
12445TIP3   OH237279   1.288   0.467   0.804 -0.2489 -0.0013 -0.0961
12445TIP3    H137280   1.209   0.516   0.829 -0.4268  0.1704 -0.9401
12445TIP3    H237281   1.255   0.382   0.774  0.0396 -0.5583  1.1276
12446TIP3   OH237282   3.066   6.812   3.396 -0.0005 -0.3055  0.4868
12446TIP3    H137283   3.109   6.857   3.323 -0.4628 -1.7569 -0.7259
12446TIP3    H237284   3.091   6.720   3.386 -0.4022 -0.6033  1.9392
12447TIP3   OH237285   6.308   2.348   1.822 -0.2654  0.2213 -0.2249
12447TIP3    H137286   6.367   2.300   1.765  1.3121  0.5978  1.0130
12447TIP3    H237287   6.226   2.354   1.773  0.6020 -0.6292 -1.8476
12448TIP3   OH237288   0.491   5.333   2.518 -0.4175  0.4872  0.1999
12448TIP3    H137289   0.491   5.391   2.441 -3.5631  1.3915  0.7487
12448TIP3    H237290   0.500   5.245   2.481 -0.5452  0.9950 -1.1081
12449TIP3   OH237291   2.833   2.054   0.231 -0.1549  0.4437  0.2905
12449TIP3    H137292   2.816   1.967   0.193 -1.1951  0.0649  1.5494
12449TIP3    H237293   2.746   2.094   0.237  0.3982  1.9586 -1.0832
12450TIP3   OH237294   2.064   2.912   2.113 -0.5220  0.1700 -0.0715
12450TIP3    H137295   2.150   2.903   2.072  0.0373  0.3080  1.0345
12450TIP3    H237296   2.052   2.832   2.163 -0.4649  0.7033  0.8131
12451TIP3   OH237297   3.630   7.769   4.354 -0.0518  0.0360  0.3622
12451TIP3    H137298   3.583   7.700   4.402  1.7632 -0.7822  1.0595
12451TIP3    H237299   3.668   7.725   4.279 -0.6048  0.7553 -0.3631
12452TIP3   OH237300   6.998   6.181   4.347 -0.3449 -1.1741  0.1288
12452TIP3    H137301   7.038   6.179   4.433  1.6834  1.1611 -0.6266
12452TIP3    H237302   6.924   6.241   4.356  0.8783  0.4298 -0.0488
12453TIP3   OH237303   5.927   7.676   0.907 -0.4802 -0.1321 -0.0556
12453TIP3    H137304   5.839   7.645   0.929 -1.1634  1.9508  0.3268
12453TIP3    H237305   5.966   7.699   0.992 -0.0040  0.0905 -0.3311
12454TIP3   OH237306   6.114   4.531   1.948  1.0618 -0.2832 -0.5848
12454TIP3    H137307   6.053   4.595   1.911  1.3583  0.0877 -0.4404
12454TIP3    H237308   6.129   4.561   2.037 -0.4728 -1.7702  0.2351
12455TIP3   OH237309   5.065   2.791   0.544  0.1558  0.0793  0.4018
12455TIP3    H137310   5.148   2.761   0.580  0.5686 -1.7787 -1.8198
12455TIP3    H237311   5.015   2.710   0.530 -0.0029  0.6009 -2.8643
12456TIP3   OH237312   5.900   0.842   0.764  0.4927  0.1969 -0.0320
12456TIP3    H137313   5.820   0.792   0.775  0.7881 -0.1134  0.7571
12456TIP3    H237314   5.871   0.932   0.748 -0.0423  0.8498  3.7356
12457TIP3   OH237315   4.846   4.929   3.701 -0.1396  0.3549 -0.1911
12457TIP3    H137316   4.809   4.845   3.672 -0.6320 -0.0097  1.3674
12457TIP3    H237317   4.915   4.948   3.638 -1.5977 -0.0012 -1.9785
12458TIP3   OH237318   3.449   2.211   1.199 -0.5837  0.1244  0.6694
12458TIP3    H137319   3.504   2.287   1.183 -0.7895  0.2709  0.6603
12458TIP3    H237320   3.501   2.156   1.258  1.4377 -1.7501 -2.4868
12459TIP3   OH237321   1.133   4.413   4.561  0.2138  0.2331  0.3678
12459TIP3    H137322   1.142   4.336   4.617 -2.1043  0.7029  1.5037
12459TIP3    H237323   1.097   4.481   4.619  0.6482  1.6953 -0.9871
12460TIP3   OH237324   2.188   4.032   2.149  0.3943  0.1235  0.1285
12460TIP3    H137325   2.094   4.052   2.139  0.4205 -0.2450 -0.8799
12460TIP3    H237326   2.190   3.945   2.188  0.3001 -0.8523 -1.9261
12461TIP3   OH237327   0.968   6.474   3.206  0.4162  0.6054  0.8364
12461TIP3    H137328   1.028   6.445   3.137  0.1095 -0.1704  0.8855
12461TIP3    H237329   1.025   6.497   3.280  0.7018  0.7247  0.5795
12462TIP3   OH237330   3.368   0.798   3.533  0.2871  0.4363  0.5398
12462TIP3    H137331   3.331   0.768   3.450  0.4133  0.8144  0.3388
12462TIP3    H237332   3.419   0.724   3.565  1.4463  0.7637 -0.4611
12463TIP3   OH237333   5.453   7.435   0.928  0.1557  0.0311  0.1592
12463TIP3    H137334   5.443   7.421   0.834  0.7480  0.3775  0.0380
12463TIP3    H237335   5.500   7.518   0.934  0.0384  0.0533  0.7644
12464TIP3   OH237336   6.497   7.437   1.043  0.1829  0.2722  0.2599
12464TIP3    H137337   6.496   7.367   0.978  0.3231  1.7705 -1.4274
12464TIP3    H237338   6.451   7.400   1.119  0.3497 -1.6569 -0.5179
12465TIP3   OH237339   3.498   1.803   6.003 -0.2594 -0.0754 -0.3486
12465TIP3    H137340   3.406   1.815   6.024 -0.5341 -2.3241 -0.0166
12465TIP3    H237341   3.506   1.828   5.911 -1.1001  0.4739 -0.2800
12466TIP3   OH237342   0.226   1.572   4.535  0.1126  0.4880 -0.1216
12466TIP3    H137343   0.224   1.499   4.473  0.6018 -0.8319  1.3519
12466TIP3    H237344   0.304   1.557   4.588 -0.3938  1.4390  0.9566
12467TIP3   OH237345   8.035   2.790   0.241  0.1299  0.0304  0.4291
12467TIP3    H137346   8.045   2.871   0.292  1.5308  0.2367 -0.1319
12467TIP3    H237347   7.940   2.774   0.240  0.0538 -0.4895  3.8485
12468TIP3   OH237348   5.626   1.580   0.062  0.0185 -0.4598 -0.4804
12468TIP3    H137349   5.540   1.620   0.047  0.6579  1.7428  1.0899
12468TIP3    H237350   5.611   1.519   0.134 -0.0012  1.1777  0.9804
12469TIP3   OH237351   2.985   3.175   6.135 -0.0868  0.1399  0.5155
12469TIP3    H137352   3.076   3.148   6.122  0.6271  2.3406  0.5050
12469TIP3    H237353   2.948   3.108   6.193  0.6958 -2.2674 -1.6184
12470TIP3   OH237354   2.985   0.776   3.007  0.2234 -0.0559 -0.4273
12470TIP3    H137355   3.020   0.689   3.022  2.2099  1.0188  1.8333
12470TIP3    H237356   3.054   0.822   2.959  0.4737  1.0618  0.9340
12471TIP3   OH237357   6.588   3.242   0.773  0.2518  0.3403  0.1331
12471TIP3    H137358   6.575   3.227   0.866 -1.0638 -0.2739 -0.1294
12471TIP3    H237359   6.504   3.277   0.742  0.5720  0.2553 -0.8826
12472TIP3   OH237360   7.124   0.983   5.793  0.2176 -0.3505 -0.2435
12472TIP3    H137361   7.206   0.952   5.756  0.6644  0.5402 -0.0257
12472TIP3    H237362   7.096   1.054   5.735  0.6193  0.6585  0.7634
12473TIP3   OH237363   2.345   1.085   6.032  0.0945  0.6204 -0.2598
12473TIP3    H137364   2.392   1.059   6.111 -0.4906 -0.6812 -0.3228
12473TIP3    H237365   2.391   1.041   5.961 -1.2756 -0.8168 -0.3050
12474TIP3   OH237366   3.609   6.856   5.692 -0.0750  0.6543 -0.8074
12474TIP3    H137367   3.642   6.916   5.758 -0.3971  0.3392 -0.3511
12474TIP3    H237368   3.515   6.873   5.689  0.1073  1.5477 -2.0928
12475TIP3   OH237369   7.968   5.987   4.885  0.2982 -0.0737  0.9495
12475TIP3    H137370   7.952   6.068   4.933  0.1559 -0.0246  0.8202
12475TIP3    H237371   7.973   5.920   4.954  1.6114  0.2102  1.1483
12476TIP3   OH237372   5.433   2.728   4.857  0.3164 -0.6146  0.3887
12476TIP3    H137373   5.429   2.694   4.946 -0.4397 -0.0801  0.5653
12476TIP3    H237374   5.378   2.806   4.859 -0.0519 -0.8404 -0.6600
12477TIP3   OH237375   3.598   1.162   3.449 -0.8118  0.4628 -0.3418
12477TIP3    H137376   3.664   1.134   3.386 -0.5403  2.1444 -0.8506
12477TIP3    H237377   3.641   1.155   3.534 -0.8305 -0.7931 -0.4085
12478TIP3   OH237378   4.552   4.673   1.249  0.0218 -0.5770  0.1390
12478TIP3    H137379   4.505   4.732   1.309  0.6844 -0.5525  0.6415
12478TIP3    H237380   4.522   4.586   1.272  1.0395 -0.6638  1.2285
12479TIP3   OH237381   1.222   3.098   0.933 -0.0900  0.2014 -0.5086
12479TIP3    H137382   1.277   3.022   0.951  2.3719  2.0944  0.5392
12479TIP3    H237383   1.277   3.155   0.880 -2.2793  0.8301 -2.2444
12480TIP3   OH237384   7.705   1.534   0.662 -0.3789  0.0098 -0.6015
12480TIP3    H137385   7.720   1.509   0.753  0.4177 -0.2572 -0.7986
12480TIP3    H237386   7.747   1.620   0.653 -1.8188  0.7805 -0.3188
12481TIP3   OH237387   6.765   7.371   5.692 -0.0807  0.0274 -0.0931
12481TIP3    H137388   6.741   7.280   5.675  2.1853 -1.0489  1.9217
12481TIP3    H237389   6.781   7.408   5.605  0.4175 -1.9560 -0.9042
12482TIP3   OH237390   6.776   2.560   3.295 -0.0136  0.0313 -0.9115
12482TIP3    H137391   6.852   2.611   3.268 -0.8514  0.7460 -1.9830
12482TIP3    H237392   6.813   2.482   3.337  1.2919  1.0065 -0.1721
12483TIP3   OH237393   7.428   1.090   3.214 -0.4328  0.1505  0.4561
12483TIP3    H137394   7.373   1.012   3.221 -0.6845  0.2617 -0.1712
12483TIP3    H237395   7.377   1.151   3.160 -0.4222  0.9223  1.2953
12484TIP3   OH237396   5.421   6.051   1.980 -0.9385 -0.2171 -0.6960
12484TIP3    H137397   5.401   6.139   2.013 -0.3355 -0.8563  1.5868
12484TIP3    H237398   5.477   6.013   2.049 -0.4156 -2.0516 -2.0777
12485TIP3   OH237399   3.829   2.214   5.069 -0.4166 -0.5562  0.3198
12485TIP3    H137400   3.852   2.230   5.160  0.9306  1.0866 -0.2445
12485TIP3    H237401   3.858   2.125   5.052  3.3558  0.5052  0.4062
12486TIP3   OH237402   3.082   2.449   5.733 -0.2215 -0.0132  0.6902
12486TIP3    H137403   3.127   2.465   5.650 -0.7808 -0.9255  0.1985
12486TIP3    H237404   2.990   2.441   5.709 -0.2665 -1.3732  1.2455
12487TIP3   OH237405   2.269   4.375   6.089  0.4054 -0.2761  0.0153
12487TIP3    H137406   2.236   4.429   6.017  1.3790 -0.9524 -0.9839
12487TIP3    H237407   2.266   4.432   6.165 -0.9057  0.3839 -0.4879
12488TIP3   OH237408   2.493   3.456   6.798 -0.1069  0.5368 -0.2731
12488TIP3    H137409   2.568   3.430   6.745  0.1134 -0.7185  0.6020
12488TIP3    H237410   2.448   3.522   6.746  1.3942  1.0364 -0.9760
12489TIP3   OH237411   5.522   4.494   4.249 -0.0333  0.4093 -0.3770
12489TIP3    H137412   5.526   4.401   4.224 -1.4791 -0.0189  0.8151
12489TIP3    H237413   5.575   4.499   4.329  1.1943  0.9330 -1.1890
12490TIP3   OH237414   1.025   1.410   3.595 -0.1353  0.9519  0.0102
12490TIP3    H137415   0.961   1.444   3.533 -0.1660  0.3155 -0.3148
12490TIP3    H237416   1.079   1.350   3.543 -0.7842 -0.3670  0.7888
12491TIP3   OH237417   2.546   4.911   5.828 -0.6712 -0.1186  0.0746
12491TIP3    H137418   2.505   4.833   5.789  0.9821 -1.2106  0.4375
12491TIP3    H237419   2.568   4.884   5.917 -1.7602  1.4176  0.8514
12492TIP3   OH237420   4.692   1.177   6.668  0.0677  0.1630 -0.0289
12492TIP3    H137421   4.731   1.240   6.607  0.8343 -1.1816 -0.9628
12492TIP3    H237422   4.684   1.226   6.751 -1.2052  2.1062 -1.2003
12493TIP3   OH237423   3.104   4.028   1.832 -0.3851  0.3370  0.0054
12493TIP3    H137424   3.016   4.065   1.838 -0.9181 -0.9054  0.1158
12493TIP3    H237425   3.117   3.983   1.916  0.3188  0.4222 -0.0518
12494TIP3   OH237426   0.387   3.149   0.423 -0.3446 -0.1370  0.2864
12494TIP3    H137427   0.386   3.194   0.338 -1.5340  1.3341  1.0442
12494TIP3    H237428   0.318   3.083   0.416 -0.1196 -0.3404 -0.0449
12495TIP3   OH237429   1.864   4.378   4.257  0.5719 -0.4287 -0.1937
12495TIP3    H137430   1.901   4.316   4.194 -0.0027 -0.7404 -0.2261
12495TIP3    H237431   1.815   4.324   4.318  0.9153 -0.0987  0.3831
12496TIP3   OH237432   6.589   1.314   3.036  0.0777  0.3940 -0.5084
12496TIP3    H137433   6.551   1.247   3.093 -0.2204  0.6416 -0.4185
12496TIP3    H237434   6.605   1.388   3.094 -2.3343  1.4984 -1.1636
12497TIP3   OH237435   5.312   5.853   2.186 -0.3553 -0.5265 -0.3257
12497TIP3    H137436   5.278   5.765   2.200  2.7550 -1.5763  1.4398
12497TIP3    H237437   5.407   5.844   2.190  0.2402  2.4699 -3.2137
12498TIP3   OH237438   1.670   4.179   4.381 -0.4067  0.4926 -0.0399
12498TIP3    H137439   1.651   4.091   4.350  1.5827  0.3926 -1.1416
12498TIP3    H237440   1.626   4.185   4.466 -2.2165 -0.8332 -0.8152
12499TIP3   OH237441   5.323   3.266   4.828 -0.2630  0.2974  0.6738
12499TIP3    H137442   5.366   3.181   4.840  0.4361  0.6369  0.6248
12499TIP3    H237443   5.337   3.312   4.911  3.9290  2.3599 -0.8919
12500TIP3   OH237444   0.868   3.121   1.764 -0.2586 -0.0595  0.0986
12500TIP3    H137445   0.867   3.094   1.672  1.5106 -1.0638  0.3379
12500TIP3    H237446   0.942   3.182   1.770 -1.0046  0.8175  0.6693
12501TIP3   OH237447   0.584   5.457   6.559 -0.2394  0.3410  0.1181
12501TIP3    H137448   0.579   5.365   6.584 -0.3660  0.0310 -1.0140
12501TIP3    H237449   0.676   5.472   6.539 -0.2130  0.4795  0.3298
12502TIP3   OH237450   0.628   5.286   5.721 -0.5242 -0.7377 -0.2619
12502TIP3    H137451   0.627   5.235   5.802 -2.0568  0.1489  0.3139
12502TIP3    H237452   0.706   5.255   5.674 -0.1878 -2.0018  1.0655
12503TIP3   OH237453   7.081   4.527   5.992 -0.0200  0.3182  0.0492
12503TIP3    H137454   7.145   4.456   5.982 -0.8153 -0.4898  0.5922
12503TIP3    H237455   7.069   4.560   5.903  1.3785  0.6945 -0.0275
12504TIP3   OH237456   1.457   1.362   0.971 -0.4981 -0.1693  0.0571
12504TIP3    H137457   1.493   1.277   0.943 -0.6270  0.2675 -1.5133
12504TIP3    H237458   1.367   1.342   0.995 -0.1100 -0.7264  1.1584
12505TIP3   OH237459   3.210   3.804   6.592  0.1083  0.1239  0.1170
12505TIP3    H137460   3.277   3.846   6.538  1.5123 -0.8349  1.0481
12505TIP3    H237461   3.147   3.769   6.529  1.1413 -0.0382 -0.8570
12506TIP3   OH237462   3.884   3.840   0.068  0.8988 -0.1146  0.3265
12506TIP3    H137463   3.864   3.806   0.155  2.2149 -1.3926  0.1696
12506TIP3    H237464   3.844   3.777   0.008 -0.4227  1.0167 -0.0460
12507TIP3   OH237465   2.370   5.491   3.059 -0.1620  0.1758  0.7628
12507TIP3    H137466   2.399   5.560   2.998 -0.9115 -0.6312 -0.5605
12507TIP3    H237467   2.431   5.419   3.043  0.2291  0.2976  1.6832
12508TIP3   OH237468   2.625   5.496   2.624 -0.6072  0.1525  0.0796
12508TIP3    H137469   2.665   5.537   2.547  0.5499 -0.5294  0.2821
12508TIP3    H237470   2.700   5.463   2.674 -1.4298 -2.8589 -0.4510
12509TIP3   OH237471   3.760   3.105   5.106  0.0638  0.2447 -0.1862
12509TIP3    H137472   3.820   3.054   5.161  0.6684 -2.0527 -2.7634
12509TIP3    H237473   3.673   3.089   5.144  0.3754 -1.8396 -0.2660
12510TIP3   OH237474   4.801   6.655   6.372 -0.1180 -0.0788 -0.8858
12510TIP3    H137475   4.726   6.599   6.394 -0.7094  1.2291  0.5524
12510TIP3    H237476   4.874   6.618   6.422 -0.8295  1.2132  1.2171
12511TIP3   OH237477   5.189   7.623   6.139 -0.1928  0.8544  0.2180
12511TIP3    H137478   5.274   7.594   6.172 -1.2755  1.5527  4.0472
12511TIP3    H237479   5.198   7.717   6.128 -0.2026  0.7903 -0.3638
12512TIP3   OH237480   2.220   1.285   1.919  0.0110 -0.4352 -0.3692
12512TIP3    H137481   2.265   1.213   1.876  1.5514 -0.8556  1.7957
12512TIP3    H237482   2.274   1.362   1.901 -0.5500 -0.1815 -1.0110
12513TIP3   OH237483   0.003   2.699   1.048 -0.3342  0.0169 -0.8198
12513TIP3    H137484   0.013   2.713   0.954  0.9296  0.5870 -0.6175
12513TIP3    H237485   0.011   2.605   1.060 -1.4756 -0.1680 -1.3764
12514TIP3   OH237486   0.980   6.555   0.503 -0.3381 -0.3226  0.5729
12514TIP3    H137487   0.898   6.604   0.499 -0.4825 -0.6057 -0.0835
12514TIP3    H237488   0.958   6.478   0.556 -0.4457 -0.3050  0.5561
12515TIP3   OH237489   4.761   7.224   1.584  0.3983  0.4562  0.3515
12515TIP3    H137490   4.754   7.156   1.517  0.4693  0.1845  0.6150
12515TIP3    H237491   4.843   7.204   1.629 -0.1405  0.0241  1.1772
12516TIP3   OH237492   2.319   1.814   5.604 -0.2065 -0.0388 -0.7753
12516TIP3    H137493   2.318   1.829   5.699  0.5927 -0.9341 -0.6141
12516TIP3    H237494   2.401   1.854   5.575 -1.2515  1.7916 -1.3901
12517TIP3   OH237495   1.605   4.283   2.815  0.0583  0.2701 -0.0907
12517TIP3    H137496   1.515   4.265   2.786 -0.2325  1.6843 -0.1518
12517TIP3    H237497   1.639   4.198   2.840 -1.4537 -0.2455  0.3549
12518TIP3   OH237498   1.692   3.022   5.672  0.5930  0.4781  0.0319
12518TIP3    H137499   1.738   3.060   5.747  0.6777  1.4835 -0.5043
12518TIP3    H237500   1.611   3.073   5.666 -0.0384 -0.4680  0.2244
12519TIP3   OH237501   2.080   4.980   5.413 -0.3016 -0.3167  0.1510
12519TIP3    H137502   2.061   4.887   5.413 -1.2045 -0.2497  3.6267
12519TIP3    H237503   2.162   4.988   5.462 -0.0164  0.7091 -0.4595
12520TIP3   OH237504   3.531   6.720   0.194 -0.4121 -0.4868 -0.0173
12520TIP3    H137505   3.561   6.784   0.129 -0.7962 -0.9500 -0.6581
12520TIP3    H237506   3.491   6.773   0.263 -0.5756 -0.0267 -0.4623
12521TIP3   OH237507   0.570   0.763   4.354 -0.0910 -0.0284  0.1586
12521TIP3    H137508   0.584   0.719   4.269  0.0819 -0.3048  0.3275
12521TIP3    H237509   0.610   0.704   4.418  0.9887  0.8157  0.2948
12522TIP3   OH237510   4.927   7.602   0.833  0.8434  0.1045 -0.6050
12522TIP3    H137511   4.899   7.663   0.765  0.5697  2.2487  1.3389
12522TIP3    H237512   5.022   7.609   0.834  0.9028 -0.5005 -1.2399
12523TIP3   OH237513   7.567   1.241   6.544 -0.0546  0.5804 -0.4813
12523TIP3    H137514   7.510   1.224   6.619 -0.5681 -1.2442 -1.2234
12523TIP3    H237515   7.530   1.319   6.503 -0.3731  1.0041  0.5722
12524TIP3   OH237516   4.550   4.596   5.999  0.3267  0.1363 -0.0621
12524TIP3    H137517   4.548   4.667   6.063 -0.7749 -0.1849  0.2859
12524TIP3    H237518   4.635   4.553   6.013  0.5842  0.7790  0.3854
12525TIP3   OH237519   1.157   3.657   2.649 -0.1982 -0.1441 -0.0002
12525TIP3    H137520   1.204   3.574   2.651  0.8507  0.2859 -2.5304
12525TIP3    H237521   1.082   3.641   2.592 -0.2521  0.5251 -0.1285
12526TIP3   OH237522   6.648   2.794   6.760 -0.3491 -0.3366 -0.5209
12526TIP3    H137523   6.616   2.775   6.848 -0.1912  0.3703 -0.3041
12526TIP3    H237524   6.608   2.878   6.738 -0.7977 -0.7458 -1.3335
12527TIP3   OH237525   1.610   7.804   4.955  0.2608  0.7017 -0.3137
12527TIP3    H137526   1.693   7.761   4.977 -0.4788 -0.6530 -0.0227
12527TIP3    H237527   1.566   7.743   4.896 -0.4800  1.4554 -0.5678
12528TIP3   OH237528   4.009   6.457   6.775  0.0580  0.2924 -0.0271
12528TIP3    H137529   3.963   6.539   6.758 -1.3011 -0.6345 -0.9901
12528TIP3    H237530   3.948   6.388   6.749  1.1844 -1.0490  0.6806
12529TIP3   OH237531   4.629   3.328   0.987  0.1086 -0.4476 -0.0252
12529TIP3    H137532   4.711   3.310   0.942 -0.2452 -1.9069 -0.1406
12529TIP3    H237533   4.575   3.373   0.922  0.7645  0.4305  0.0232
12530TIP3   OH237534   2.194   7.657   1.722  0.0919  0.5693 -0.1351
12530TIP3    H137535   2.138   7.734   1.719  1.9239  1.9755 -0.2137
12530TIP3    H237536   2.279   7.690   1.751  1.3202 -1.1850 -1.4973
12531TIP3   OH237537   3.573   3.868   4.136 -0.0171  0.0595 -0.3606
12531TIP3    H137538   3.506   3.801   4.154 -0.0699 -0.2777 -1.6908
12531TIP3    H237539   3.523   3.949   4.125 -0.3838 -0.3862 -2.4522
12532TIP3   OH237540   2.382   2.545   3.784  0.3105 -0.0330  0.1182
12532TIP3    H137541   2.327   2.623   3.785  2.0865  1.3049  1.3806
12532TIP3    H237542   2.373   2.510   3.696  0.1481  2.1592 -0.8006
12533TIP3   OH237543   5.822   0.742   3.075 -0.2363  0.7370 -0.4235
12533TIP3    H137544   5.877   0.744   2.997 -1.3146 -0.4950 -1.2574
12533TIP3    H237545   5.746   0.796   3.052 -1.0862 -0.5235 -0.6810
12534TIP3   OH237546   0.425   0.428   1.016  0.5427 -0.5284 -0.3681
12534TIP3    H137547   0.338   0.413   1.052 -0.0142  0.2274 -1.3747
12534TIP3    H237548   0.439   0.354   0.956  1.1166 -1.3092  0.6761
12535TIP3   OH237549   2.604   4.689   0.173  0.1772  0.3328  0.3457
12535TIP3    H137550   2.526   4.654   0.130  1.5640 -1.4852 -0.8734
12535TIP3    H237551   2.677   4.650   0.125  1.8601  2.0476  1.3636
12536TIP3   OH237552   3.253   7.367   1.892  0.0070 -0.4261 -0.2289
12536TIP3    H137553   3.261   7.451   1.847 -0.2165  0.6289  1.5800
12536TIP3    H237554   3.178   7.324   1.851 -0.3538  0.6085 -0.6843
12537TIP3   OH237555   7.013   2.476   3.998 -0.2310 -0.1586  0.0455
12537TIP3    H137556   6.971   2.394   3.973 -1.3501  0.1907  0.7083
12537TIP3    H237557   7.081   2.490   3.932 -0.2294 -1.4560 -0.2364
12538TIP3   OH237558   2.285   7.570   4.789 -0.0985  0.1451  0.1667
12538TIP3    H137559   2.340   7.645   4.765  1.2420 -1.4061 -2.0224
12538TIP3    H237560   2.309   7.550   4.879  0.9501  1.1797  0.1326
12539TIP3   OH237561   6.929   0.782   4.080 -0.3918  0.0355  0.0962
12539TIP3    H137562   6.977   0.763   4.161 -0.1720 -1.5841 -0.3837
12539TIP3    H237563   6.951   0.710   4.021 -2.6407 -0.2593 -0.4927
12540TIP3   OH237564   3.202   0.848   0.708  0.4209  0.1525  0.1379
12540TIP3    H137565   3.249   0.842   0.791  1.2696  2.3014 -0.1065
12540TIP3    H237566   3.261   0.808   0.644 -0.1787 -1.3886  0.4947
12541TIP3   OH237567   7.353   6.783   1.586  0.3267 -0.3738 -0.0853
12541TIP3    H137568   7.316   6.848   1.527 -2.6921  0.0844  2.0715
12541TIP3    H237569   7.446   6.782   1.566 -0.1957  1.3358 -3.2201
12542TIP3   OH237570   3.605   2.409   3.992  0.3091 -0.2117  0.1087
12542TIP3    H137571   3.579   2.454   4.072  1.1796 -0.3092  0.4616
12542TIP3    H237572   3.683   2.359   4.017  0.0192 -1.0104 -0.5618
12543TIP3   OH237573   2.927   4.109   4.928 -0.0553  0.3989 -0.3311
12543TIP3    H137574   2.980   4.186   4.949 -0.0452  1.4492 -3.6301
12543TIP3    H237575   2.847   4.146   4.890 -1.2697 -1.2437  0.5144
12544TIP3   OH237576   2.054   0.787   1.473  0.4350  0.7764  0.5774
12544TIP3    H137577   2.019   0.859   1.422  0.7038  1.3895  1.2448
12544TIP3    H237578   2.001   0.785   1.553  0.6156  0.4287  0.6918
12545TIP3   OH237579   0.935   4.574   4.062 -0.0437 -0.3380  0.6217
12545TIP3    H137580   0.997   4.514   4.020  1.8007  1.0207  1.2353
12545TIP3    H237581   0.987   4.618   4.129 -0.9038  2.8514 -0.6073
12546TIP3   OH237582   7.575   6.602   0.657 -0.3823 -0.1363 -0.7281
12546TIP3    H137583   7.633   6.544   0.707 -1.7402 -0.3647  0.6630
12546TIP3    H237584   7.574   6.564   0.569  0.1580 -1.1952 -0.2997
12547TIP3   OH237585   5.535   3.211   1.184 -0.1070  0.2144  0.2103
12547TIP3    H137586   5.603   3.271   1.218 -0.8713  2.1723 -1.4882
12547TIP3    H237587   5.568   3.185   1.098 -1.3147  0.9567 -0.5098
12548TIP3   OH237588   7.343   4.631   6.160 -0.1119  0.1870 -0.3129
12548TIP3    H137589   7.425   4.583   6.172 -1.0654 -0.9743  2.1311
12548TIP3    H237590   7.294   4.580   6.096  0.0133 -0.5892  0.2025
12549TIP3   OH237591   7.766   6.899   5.196 -0.2432  0.1808  0.0653
12549TIP3    H137592   7.800   6.987   5.211 -1.0484  0.4706  0.2033
12549TIP3    H237593   7.770   6.856   5.281  1.2691 -0.3334 -0.2262
12550TIP3   OH237594   2.565   0.359   4.256  0.0503 -0.2391 -0.2714
12550TIP3    H137595   2.655   0.391   4.254  0.3045 -0.9655 -0.7274
12550TIP3    H237596   2.511   0.438   4.248  0.6590  0.0857 -1.2444
12551TIP3   OH237597   5.487   4.281   3.096  0.1600  0.5002  0.1648
12551TIP3    H137598   5.477   4.186   3.098 -0.0002  0.5128 -0.0123
12551TIP3    H237599   5.407   4.314   3.138  0.5247  0.5394  0.8374
12552TIP3   OH237600   4.590   2.021   4.114  0.2964  0.6241 -0.4367
12552TIP3    H137601   4.657   2.078   4.151  0.2438  0.4788 -0.1124
12552TIP3    H237602   4.512   2.037   4.168  0.0688  0.7952 -0.8145
12553TIP3   OH237603   1.006   7.474   4.725  0.4673  0.1514  0.2909
12553TIP3    H137604   1.015   7.484   4.820 -0.8013 -3.5421  0.9345
12553TIP3    H237605   1.096   7.477   4.692  1.2261 -1.4569  2.0314
12554TIP3   OH237606   4.031   3.243   4.123  0.1536  0.0677  0.0439
12554TIP3    H137607   3.969   3.269   4.054 -0.3952  1.0108  0.8507
12554TIP3    H237608   4.096   3.313   4.124 -0.6719  0.8663  1.4520
12555TIP3   OH237609   4.676   3.777   3.349 -0.5379 -0.1194 -0.0907
12555TIP3    H137610   4.669   3.842   3.419  0.8507 -1.3570  1.2655
12555TIP3    H237611   4.603   3.717   3.365  0.2791 -0.8948  0.8864
12556TIP3   OH237612   6.831   0.919   3.348 -0.4011  0.9231  0.4054
12556TIP3    H137613   6.747   0.892   3.385  0.6086 -0.2223  2.0296
12556TIP3    H237614   6.886   0.842   3.356  0.6990  1.5129 -1.0431
12557TIP3   OH237615   2.571   7.190   0.047 -0.1981  0.2433 -0.4407
12557TIP3    H137616   2.495   7.220  -0.003 -0.9049 -0.7619  0.0053
12557TIP3    H237617   2.535   7.127   0.109  1.0730 -0.6291 -0.5656
12558TIP3   OH237618   6.951   0.354   6.633  0.0491 -0.4918 -0.4449
12558TIP3    H137619   6.905   0.407   6.568  0.1312 -1.0616 -0.9775
12558TIP3    H237620   7.009   0.416   6.678  0.4697 -0.2035 -1.3615
12559TIP3   OH237621   7.301   5.664   0.318  0.0353 -0.4316  0.2713
12559TIP3    H137622   7.329   5.596   0.257  0.2849 -0.6035  0.5707
12559TIP3    H237623   7.233   5.712   0.271  0.1352 -0.6383 -0.0930
12560TIP3   OH237624   3.131   3.823   2.456  0.1210 -0.1742  0.4792
12560TIP3    H137625   3.188   3.826   2.379 -1.0817  0.2873 -0.4315
12560TIP3    H237626   3.064   3.759   2.433 -1.1324  1.0888  0.4750
12561TIP3   OH237627   4.393   2.929   1.338  0.6970 -0.4470 -0.7769
12561TIP3    H137628   4.436   3.012   1.358  0.0888 -0.4670  0.7744
12561TIP3    H237629   4.426   2.904   1.252 -0.5303  2.3622 -2.1870
12562TIP3   OH237630   7.633   0.561   0.089 -0.6930 -0.8570 -0.3190
12562TIP3    H137631   7.701   0.575   0.023 -0.4786  0.8834  0.2147
12562TIP3    H237632   7.565   0.624   0.067 -0.8062 -0.5511  0.8597
12563TIP3   OH237633   0.535   2.441   0.669 -0.2821  0.0044 -0.0484
12563TIP3    H137634   0.608   2.465   0.612 -0.2821  0.0715 -0.0209
12563TIP3    H237635   0.559   2.478   0.754  0.3715 -1.2868  0.3443
12564TIP3   OH237636   3.035   3.948   0.067 -0.0197  0.3915 -0.8652
12564TIP3    H137637   3.112   4.005   0.063  0.0090  0.5485  1.2321
12564TIP3    H237638   2.983   3.973  -0.010  1.5115  0.9884 -1.7618
12565TIP3   OH237639   4.543   6.033   6.695 -0.4124 -0.7279  0.2136
12565TIP3    H137640   4.476   6.067   6.636 -0.1503  0.1085  0.3729
12565TIP3    H237641   4.495   5.983   6.761 -0.8825 -0.1451  0.3246
12566TIP3   OH237642   4.199   4.747   3.341  0.5940 -0.1092  0.3045
12566TIP3    H137643   4.143   4.699   3.280  1.1351  0.9473 -1.0916
12566TIP3    H237644   4.145   4.760   3.419 -0.7395  0.0149 -0.6152
12567TIP3   OH237645   4.155   4.664   1.550 -0.7019 -0.0770 -0.5075
12567TIP3    H137646   4.076   4.643   1.501 -1.3462  0.2181  0.3912
12567TIP3    H237647   4.143   4.622   1.635 -0.2906  0.7007 -0.0569
12568TIP3   OH237648   6.161   0.194   2.775 -0.7729  0.1151  0.4030
12568TIP3    H137649   6.084   0.174   2.722 -0.1123  0.0721 -0.5572
12568TIP3    H237650   6.135   0.270   2.827 -0.6010  1.7920 -1.8555
12569TIP3   OH237651   1.081   1.726   5.800  0.1628 -0.4543 -0.4084
12569TIP3    H137652   1.039   1.684   5.875  0.1077  1.6753  0.8167
12569TIP3    H237653   1.169   1.747   5.831 -0.3711  1.8820 -0.3308
12570TIP3   OH237654   5.003   2.472   2.034 -1.1152  0.4424  0.5058
12570TIP3    H137655   4.915   2.444   2.010 -0.8241  0.5711 -0.8271
12570TIP3    H237656   4.994   2.563   2.059 -1.0331  1.2531 -2.1173
12571TIP3   OH237657   7.265   7.110   0.890 -0.8975 -0.4255 -0.3966
12571TIP3    H137658   7.257   7.125   0.985  1.2859 -1.3164 -0.0024
12571TIP3    H237659   7.239   7.193   0.850  0.9264  0.9819  1.1521
12572TIP3   OH237660   5.792   3.950   2.998 -0.1020  0.1405 -0.3479
12572TIP3    H137661   5.713   3.998   2.971  0.2795  1.2776  0.4514
12572TIP3    H237662   5.864   4.001   2.960  0.4419  1.6184  2.3969
12573TIP3   OH237663   7.378   3.841   1.499 -0.4151  0.1251 -0.1382
12573TIP3    H137664   7.368   3.916   1.440  0.9936  0.3584 -0.0951
12573TIP3    H237665   7.309   3.780   1.471  1.1079 -0.4429 -3.0514
12574TIP3   OH237666   0.219   3.591   4.047  0.2919  0.0133 -0.2560
12574TIP3    H137667   0.178   3.622   3.966 -0.1770  0.4567  0.1498
12574TIP3    H237668   0.263   3.510   4.022  0.9005  0.6017 -1.1632
12575TIP3   OH237669   5.158   5.085   6.338 -0.2639 -0.2698 -0.1986
12575TIP3    H137670   5.123   5.161   6.384  0.1334  0.7069 -1.4493
12575TIP3    H237671   5.088   5.059   6.278 -0.5307 -1.1131  0.4771
12576TIP3   OH237672   2.073   4.489   4.606 -0.2908  0.3821 -0.0529
12576TIP3    H137673   2.052   4.397   4.620 -3.3390  1.3299  3.0536
12576TIP3    H237674   2.149   4.505   4.661 -0.2219 -0.0794 -0.0082
12577TIP3   OH237675   5.886   2.264   2.607 -0.6056  0.1522 -0.1675
12577TIP3    H137676   5.970   2.308   2.618 -1.5000  2.9476 -2.9838
12577TIP3    H237677   5.841   2.279   2.690  0.7287  0.8560  0.4720
12578TIP3   OH237678   4.959   6.637   1.517 -0.3677 -0.2419 -0.4278
12578TIP3    H137679   4.903   6.662   1.590 -0.2373 -0.5734 -0.2137
12578TIP3    H237680   4.948   6.707   1.453 -1.0321 -0.3040 -0.3870
12579TIP3   OH237681   0.748   4.869   0.745 -0.4101  0.9823 -0.0499
12579TIP3    H137682   0.705   4.814   0.810 -1.0696 -1.7889 -2.6456
12579TIP3    H237683   0.681   4.932   0.719 -0.4647  1.4426  1.1163
12580TIP3   OH237684   7.513   2.553   3.299 -0.4234 -0.0132  0.3417
12580TIP3    H137685   7.579   2.622   3.308  0.4263 -0.8759  0.8885
12580TIP3    H237686   7.539   2.486   3.362 -1.4062 -0.7114  0.0358
12581TIP3   OH237687   0.453   0.809   2.686 -0.7855 -0.2623 -0.0842
12581TIP3    H137688   0.405   0.850   2.758 -1.0232  0.1875 -0.4876
12581TIP3    H237689   0.444   0.871   2.613 -1.3317 -1.1284 -0.7789
12582TIP3   OH237690   3.670   2.267   3.181 -0.3802  0.0448 -0.0745
12582TIP3    H137691   3.640   2.345   3.228  0.2324  0.7212 -0.7733
12582TIP3    H237692   3.741   2.232   3.236 -1.1814 -0.4929  0.6412
12583TIP3   OH237693   4.089   6.864   1.083 -0.1395  0.1138  0.3116
12583TIP3    H137694   4.183   6.885   1.077 -0.3814  1.0709 -0.4577
12583TIP3    H237695   4.087   6.775   1.117  1.1600 -0.9978 -2.1899
12584TIP3   OH237696   6.376   0.678   5.214 -0.2011  0.0185  0.1966
12584TIP3    H137697   6.357   0.772   5.222  0.7152  0.4169 -1.9310
12584TIP3    H237698   6.346   0.641   5.298  0.6722  2.3887  1.6474
12585TIP3   OH237699   7.777   5.270   4.802  0.1399 -0.2362 -0.0678
12585TIP3    H137700   7.854   5.224   4.770  0.8488  0.9528 -0.1105
12585TIP3    H237701   7.734   5.302   4.723 -0.8289 -1.5103 -0.0974
12586TIP3   OH237702   5.622   4.616   4.028  0.3079 -0.5740  0.6732
12586TIP3    H137703   5.552   4.579   4.081  0.0707  1.2048  1.6917
12586TIP3    H237704   5.634   4.704   4.063  1.1360  0.1601 -1.3347
12587TIP3   OH237705   5.015   6.527   2.549  0.0338 -0.5179  0.3691
12587TIP3    H137706   4.974   6.526   2.463  1.6201 -0.8294 -0.4129
12587TIP3    H237707   5.066   6.608   2.551 -1.1610  0.2698  1.6374
12588TIP3   OH237708   4.106   1.875   1.498  0.2701 -0.0697  0.8314
12588TIP3    H137709   4.146   1.923   1.571  0.9659  0.9953 -0.2099
12588TIP3    H237710   4.180   1.845   1.446 -0.2268 -0.6560  0.4609
12589TIP3   OH237711   2.451   7.129   5.867  0.0204 -0.3768 -0.3945
12589TIP3    H137712   2.478   7.040   5.847  0.9001 -0.4771  1.0530
12589TIP3    H237713   2.513   7.158   5.934 -1.5221  0.5728  0.6932
12590TIP3   OH237714   4.631   2.675   3.764 -0.3517 -0.6988 -0.4463
12590TIP3    H137715   4.702   2.646   3.707  0.3895 -1.8658  0.9993
12590TIP3    H237716   4.566   2.712   3.704  1.3792  0.2608 -1.8263
12591TIP3   OH237717   5.296   1.928   6.698  0.1192 -0.4789  0.0810
12591TIP3    H137718   5.219   1.872   6.703  0.4614 -0.9093  0.7221
12591TIP3    H237719   5.369   1.867   6.688  0.3146 -0.0452 -1.5751
12592TIP3   OH237720   0.676   6.406   6.733 -0.4854 -0.1915 -0.7898
12592TIP3    H137721   0.640   6.335   6.680  1.3304 -0.6719 -1.4546
12592TIP3    H237722   0.661   6.485   6.681  0.8055 -0.5923 -1.8227
12593TIP3   OH237723   4.171   0.660   6.058  0.0335 -0.0488  0.2109
12593TIP3    H137724   4.160   0.643   5.965 -1.1618 -0.0109  0.3325
12593TIP3    H237725   4.255   0.619   6.080 -0.5716 -1.7481 -0.4800
12594TIP3   OH237726   7.243   0.986   4.095  0.7182 -0.5054 -0.2905
12594TIP3    H137727   7.189   0.916   4.059  0.5759 -0.5414 -0.0070
12594TIP3    H237728   7.257   1.046   4.022  0.0696 -0.3552 -0.2916
12595TIP3   OH237729   7.210   6.672   5.881 -0.7118  0.1138 -0.1214
12595TIP3    H137730   7.213   6.669   5.977 -2.0566  2.3548  0.0401
12595TIP3    H237731   7.175   6.586   5.856  0.6008 -0.8933  1.2960
12596TIP3   OH237732   1.134   7.438   3.116  0.9509 -0.0980 -0.6152
12596TIP3    H137733   1.075   7.393   3.055  0.9097  0.9779 -1.3879
12596TIP3    H237734   1.113   7.399   3.201 -0.5614 -0.0613 -0.9408
12597TIP3   OH237735   0.346   5.803   1.047 -0.3587  0.6227  0.0738
12597TIP3    H137736   0.297   5.832   1.124 -1.2058 -0.0510 -0.1910
12597TIP3    H237737   0.286   5.819   0.974  0.1112  0.4768 -0.3461
12598TIP3   OH237738   7.871   4.941   0.329  0.5650 -0.1828 -0.9682
12598TIP3    H137739   7.964   4.950   0.306  0.1419  0.8551 -2.3948
12598TIP3    H237740   7.862   4.991   0.410  1.5687 -1.7644  0.1984
12599TIP3   OH237741   6.238   6.507   2.128 -0.1871 -0.5051 -0.6105
12599TIP3    H137742   6.327   6.492   2.160 -0.5823  0.3543  0.9913
12599TIP3    H237743   6.239   6.472   2.038  1.3454 -1.7870 -0.1459
12600TIP3   OH237744   6.241   7.644   0.997 -0.2359  0.0970  0.7453
12600TIP3    H137745   6.256   7.691   0.914 -2.0706  0.0326  0.3384
12600TIP3    H237746   6.271   7.555   0.979  1.4406  0.6009  0.8912
12601TIP3   OH237747   0.285   5.373   5.977  0.2083 -0.7491  0.3438
12601TIP3    H137748   0.349   5.441   5.998  0.0304 -0.5413  0.2158
12601TIP3    H237749   0.204   5.420   5.961  0.3588 -0.8921 -0.9028
12602TIP3   OH237750   2.950   3.056   5.601  0.4949 -0.3580 -0.1036
12602TIP3    H137751   2.957   3.040   5.695  0.6938  0.8496  0.1102
12602TIP3    H237752   3.030   3.020   5.563  0.6747 -0.3534  0.2747
12603TIP3   OH237753   0.204   0.346   2.745 -0.4219  0.7991  0.1962
12603TIP3    H137754   0.221   0.440   2.731 -0.4288  0.7831  0.0829
12603TIP3    H237755   0.209   0.307   2.658 -0.0523  0.6340  0.2884
12604TIP3   OH237756   7.554   6.066   2.221  0.0447 -0.7104  0.3401
12604TIP3    H137757   7.501   6.000   2.176 -0.1499 -0.3756  0.0726
12604TIP3    H237758   7.492   6.113   2.276  0.1188 -0.5072  0.2474
12605TIP3   OH237759   5.330   2.371   1.842  0.6845 -0.1287  0.1376
12605TIP3    H137760   5.338   2.326   1.926 -1.1977 -0.2912  0.2862
12605TIP3    H237761   5.349   2.304   1.776  2.7250  0.1424  0.4124
12606TIP3   OH237762   5.348   0.322   2.499 -0.6091  0.4608 -0.6032
12606TIP3    H137763   5.435   0.335   2.461  0.7288 -1.4892  1.5058
12606TIP3    H237764   5.346   0.379   2.576 -0.8135 -0.1791 -0.1271
12607TIP3   OH237765   7.993   0.696   6.305  0.3839  0.0237  0.6371
12607TIP3    H137766   8.005   0.776   6.356  0.3453  0.7896 -0.5191
12607TIP3    H237767   7.944   0.724   6.228  0.3281 -1.1323  0.2374
12608TIP3   OH237768   3.434   0.586   5.049 -0.5641 -0.4347 -0.2286
12608TIP3    H137769   3.487   0.577   5.128  1.8624 -0.5589 -1.7684
12608TIP3    H237770   3.379   0.507   5.047  0.4087 -1.1533  0.5874
12609TIP3   OH237771   2.158   3.397   0.992 -0.0877  0.3020  0.1634
12609TIP3    H137772   2.176   3.440   0.908  1.7705 -0.1666  0.2817
12609TIP3    H237773   2.166   3.466   1.057 -1.4138  0.6403  0.0152
12610TIP3   OH237774   4.993   6.074   2.423  0.0064  0.0481  0.1511
12610TIP3    H137775   5.071   6.122   2.398  0.2105  0.4595  1.4947
12610TIP3    H237776   5.007   6.053   2.516 -2.3853  1.9764  1.0472
12611TIP3   OH237777   4.018   0.163   0.587  0.1492  0.1368  0.7611
12611TIP3    H137778   4.051   0.160   0.676 -0.4359  0.2852  0.9869
12611TIP3    H237779   3.923   0.172   0.596 -0.0872 -1.3737  0.1347
12612TIP3   OH237780   2.385   3.251   5.184 -0.1568 -0.1141  0.3214
12612TIP3    H137781   2.426   3.199   5.253  0.4365  1.5757  1.2812
12612TIP3    H237782   2.375   3.189   5.111  1.3880 -1.3303  1.0759
12613TIP3   OH237783   2.820   0.895   4.713 -0.1543  0.0802 -0.5121
12613TIP3    H137784   2.823   0.818   4.769  0.7550  0.0636 -0.5680
12613TIP3    H237785   2.747   0.879   4.654  1.0205 -1.5139 -1.6066
12614TIP3   OH237786   3.521   0.551   0.069  0.2432  0.3943  0.2927
12614TIP3    H137787   3.541   0.620   0.132  2.3578  0.4638 -0.4008
12614TIP3    H237788   3.606   0.515   0.044 -0.5276  0.1423 -2.2682
12615TIP3   OH237789   4.816   4.228   5.045  0.0925 -0.1220  0.4713
12615TIP3    H137790   4.785   4.226   4.955  1.4814  0.4482 -0.0513
12615TIP3    H237791   4.853   4.141   5.060 -3.2138 -1.4901  1.7204
12616TIP3   OH237792   0.490   1.139   0.999 -0.8654  0.3986 -0.1408
12616TIP3    H137793   0.540   1.207   0.955 -0.3045  0.4475  0.5413
12616TIP3    H237794   0.480   1.070   0.934 -0.5765  0.7169 -0.5266
12617TIP3   OH237795   6.631   3.251   1.072 -0.0151  0.2708 -0.2263
12617TIP3    H137796   6.549   3.233   1.117  0.2650  0.5768  0.4327
12617TIP3    H237797   6.698   3.234   1.138  0.5417 -1.2226 -1.1266
12618TIP3   OH237798   2.993   6.319   5.685  0.2304  0.6237  0.5244
12618TIP3    H137799   2.943   6.292   5.761 -0.2140 -0.1341 -0.0226
12618TIP3    H237800   3.051   6.245   5.667  0.2506  0.7496  0.0607
12619TIP3   OH237801   4.271   3.644   5.993 -0.4678 -0.0088 -0.5230
12619TIP3    H137802   4.350   3.688   6.027 -0.6436  1.2945 -1.7384
12619TIP3    H237803   4.304   3.562   5.956  0.2401  0.2591 -0.5127
12620TIP3   OH237804   2.247   6.414   0.414 -0.0141 -0.2173  0.6047
12620TIP3    H137805   2.341   6.394   0.422  0.2225  1.2220  1.8115
12620TIP3    H237806   2.243   6.475   0.340 -0.0652 -0.5773  0.3049
12621TIP3   OH237807   6.296   2.353   5.813 -0.0247  0.1329 -0.8753
12621TIP3    H137808   6.214   2.305   5.808 -0.9328  1.5743 -0.2307
12621TIP3    H237809   6.363   2.286   5.795 -1.1176 -1.6480  1.1879
12622TIP3   OH237810   1.290   7.003   6.510 -0.1445 -0.2500  0.1772
12622TIP3    H137811   1.348   6.932   6.537  0.3434  0.6851  1.7435
12622TIP3    H237812   1.252   6.973   6.427  2.3472 -1.0215 -0.7880
12623TIP3   OH237813   1.644   4.289   4.931 -0.0834  0.1138  0.0008
12623TIP3    H137814   1.731   4.258   4.958 -0.7711 -0.7172  1.3562
12623TIP3    H237815   1.652   4.303   4.837  1.1112 -1.3457 -0.1546
12624TIP3   OH237816   4.503   3.030   0.655  0.0237  0.0102 -0.4202
12624TIP3    H137817   4.508   3.123   0.630  0.4201 -0.1764 -1.0584
12624TIP3    H237818   4.592   2.998   0.646 -0.3752 -0.8142 -1.7215
12625TIP3   OH237819   2.594   1.277   6.166  0.2669 -0.5058 -0.1467
12625TIP3    H137820   2.627   1.328   6.241  0.6976 -0.8700 -0.0831
12625TIP3    H237821   2.562   1.196   6.205  1.6428 -1.2360 -0.4736
12626TIP3   OH237822   0.771   0.112   2.831 -1.0758 -0.5840  0.0834
12626TIP3    H137823   0.831   0.048   2.869 -0.1493  0.8847  1.2275
12626TIP3    H237824   0.747   0.168   2.905 -1.4263  0.7043 -0.9748
12627TIP3   OH237825   2.180   4.524   0.888 -0.3435 -0.5115  0.1153
12627TIP3    H137826   2.165   4.518   0.983 -0.2936 -1.0121  0.0979
12627TIP3    H237827   2.102   4.483   0.850 -0.3037 -0.4272 -0.0553
12628TIP3   OH237828   6.386   5.747   0.420  0.7168  0.1559  0.0420
12628TIP3    H137829   6.445   5.734   0.345  0.0372 -1.7144 -0.1998
12628TIP3    H237830   6.409   5.834   0.453  1.0149  1.0636 -2.3572
12629TIP3   OH237831   1.390   2.038   2.150 -0.5423  0.0435 -0.3517
12629TIP3    H137832   1.380   2.087   2.069 -2.7388 -0.0686 -0.2249
12629TIP3    H237833   1.391   1.946   2.123  2.7030  0.0325 -0.5160
12630TIP3   OH237834   2.227   2.732   4.231  0.0888  0.3396  0.3419
12630TIP3    H137835   2.270   2.697   4.153 -2.1685  0.1353 -0.8808
12630TIP3    H237836   2.198   2.654   4.279  0.0900  0.4914  0.5913
12631TIP3   OH237837   3.694   1.261   4.573  0.1134 -0.3630  0.8544
12631TIP3    H137838   3.642   1.304   4.506  0.5427 -1.1051  0.0233
12631TIP3    H237839   3.631   1.238   4.641 -0.7118 -1.5013 -0.2570
12632TIP3   OH237840   2.247   3.635   4.677  0.8948 -0.1515 -0.1189
12632TIP3    H137841   2.270   3.689   4.602 -0.8869  0.4359 -0.2690
12632TIP3    H237842   2.211   3.555   4.639  1.4843 -0.5420  0.1207
12633TIP3   OH237843   6.109   0.603   2.070  0.0825 -0.5433  0.0450
12633TIP3    H137844   6.163   0.528   2.043  1.2432 -0.3152  1.5976
12633TIP3    H237845   6.166   0.679   2.059 -1.4282  0.3620 -2.5726
12634TIP3   OH237846   0.906   6.361   4.960  0.2076 -0.5602  0.1433
12634TIP3    H137847   0.986   6.316   4.932 -0.3365 -0.8279 -1.0793
12634TIP3    H237848   0.845   6.346   4.888 -1.1005 -0.7725  1.2648
12635TIP3   OH237849   4.060   0.058   2.728 -0.3629  0.0228 -0.0705
12635TIP3    H137850   3.997   0.010   2.674 -2.9768 -0.7757  3.3373
12635TIP3    H237851   4.032   0.149   2.723 -0.0417  0.0891 -0.7173
12636TIP3   OH237852   5.383   3.663   5.872  0.2874  0.0784 -0.0474
12636TIP3    H137853   5.437   3.643   5.949  0.7101  1.1695 -0.0491
12636TIP3    H237854   5.350   3.577   5.844 -0.1288 -0.3206  1.5214
12637TIP3   OH237855   6.595   5.584   2.720  0.0487 -0.7520 -0.3548
12637TIP3    H137856   6.627   5.506   2.766 -0.2268 -1.1456 -0.8168
12637TIP3    H237857   6.644   5.656   2.758  0.8770 -1.2449 -0.4678
12638TIP3   OH237858   3.050   1.772   2.274  0.2927 -0.1237  0.3107
12638TIP3    H137859   3.076   1.859   2.304 -0.7836 -0.8761  3.8790
12638TIP3    H237860   3.073   1.771   2.181  1.0415  3.6568  0.2937
12639TIP3   OH237861   6.227   2.626   3.194 -0.1871  0.3470 -0.3685
12639TIP3    H137862   6.302   2.683   3.176  0.1855 -0.2997 -0.8732
12639TIP3    H237863   6.165   2.645   3.124 -0.2234  0.4011 -0.3222
12640TIP3   OH237864   8.049   5.061   2.220 -0.0398  0.4816 -0.0062
12640TIP3    H137865   7.966   5.024   2.249  0.4099 -1.0151 -0.5185
12640TIP3    H237866   8.064   5.135   2.279 -2.1479  1.3601 -0.4679
12641TIP3   OH237867   0.623   0.681   0.002  1.0074 -0.3607 -0.9020
12641TIP3    H137868   0.667   0.747  -0.051 -0.9998  1.3652 -0.5570
12641TIP3    H237869   0.617   0.720   0.089 -1.6761 -0.1880 -1.0829
12642TIP3   OH237870   0.783   1.917   0.912  0.0376 -0.3190  0.4724
12642TIP3    H137871   0.811   1.914   1.004  1.0053  0.4706  0.2281
12642TIP3    H237872   0.851   1.968   0.869 -0.0540 -1.2492 -0.8204
12643TIP3   OH237873   4.269   7.260   2.120 -0.1626 -0.3160  0.0006
12643TIP3    H137874   4.208   7.334   2.114 -1.1942 -1.0834  0.5997
12643TIP3    H237875   4.345   7.295   2.166  0.5012  1.0442 -2.0068
12644TIP3   OH237876   4.804   3.760   3.086 -0.0703  0.0953 -0.9567
12644TIP3    H137877   4.778   3.840   3.040 -0.9180  0.8528  0.7678
12644TIP3    H237878   4.759   3.764   3.170  1.6298 -1.1143  0.0812
12645TIP3   OH237879   8.043   0.082   5.782 -0.3060  0.0160  0.3253
12645TIP3    H137880   7.994   0.103   5.703  0.2372  3.0983  0.6639
12645TIP3    H237881   8.134   0.072   5.752 -0.2201  0.4277  0.4358
12646TIP3   OH237882   7.058   3.841   2.492 -0.0177  0.0754  0.5167
12646TIP3    H137883   7.123   3.773   2.504 -0.9908 -1.0301 -0.2064
12646TIP3    H237884   7.067   3.868   2.401 -2.0071 -1.7242 -0.3079
12647TIP3   OH237885   6.013   2.546   2.760 -0.7037  0.2490  0.5508
12647TIP3    H137886   6.069   2.624   2.766 -0.0563 -0.1243 -0.4498
12647TIP3    H237887   5.926   2.582   2.744 -0.0733  0.7726 -2.1658
12648TIP3   OH237888   4.536   0.574   3.287 -0.0737 -0.0126  0.2607
12648TIP3    H137889   4.554   0.631   3.363  1.4674  1.0219 -0.8099
12648TIP3    H237890   4.480   0.627   3.230 -2.8635 -1.4915  1.4441
12649TIP3   OH237891   3.540   0.456   5.385  0.1111  0.6111  0.2665
12649TIP3    H137892   3.542   0.478   5.478 -0.3788  1.2220  0.1432
12649TIP3    H237893   3.448   0.464   5.360  0.2493  0.5535 -0.2903
12650TIP3   OH237894   0.700   7.779   0.829  0.1727 -0.0428 -0.6534
12650TIP3    H137895   0.789   7.796   0.859  0.6781  0.5568 -2.3638
12650TIP3    H237896   0.702   7.688   0.800  0.0308 -0.2414 -0.0433
12651TIP3   OH237897   1.452   6.869   6.166  0.2834 -0.3652  0.4704
12651TIP3    H137898   1.542   6.902   6.161  0.4619 -1.0488 -1.4687
12651TIP3    H237899   1.462   6.776   6.189  0.1113 -0.5555 -0.1984
12652TIP3   OH237900   2.324   1.037   2.829 -0.3991  0.2745  0.1247
12652TIP3    H137901   2.398   1.096   2.813 -0.3509 -0.0252 -0.8258
12652TIP3    H237902   2.257   1.063   2.766  0.1704 -1.5784 -1.3625
12653TIP3   OH237903   4.894   6.308   6.629 -0.0131  0.2136 -0.8660
12653TIP3    H137904   4.868   6.251   6.700  2.0334 -0.3290 -0.4784
12653TIP3    H237905   4.815   6.318   6.576 -0.9670 -1.2663  0.1919
12654TIP3   OH237906   2.569   7.708   4.724 -0.0040  0.3911  0.2019
12654TIP3    H137907   2.634   7.763   4.767  1.0740 -2.1474  2.0532
12654TIP3    H237908   2.619   7.652   4.666 -0.6726 -0.6716  0.6211
12655TIP3   OH237909   2.546   5.631   6.588  0.0419 -0.3526  0.1190
12655TIP3    H137910   2.609   5.688   6.632  1.8594 -1.7279 -0.5593
12655TIP3    H237911   2.575   5.543   6.609 -1.7899 -1.0449 -0.0959
12656TIP3   OH237912   1.063   2.063   2.870  0.2344 -0.1549 -0.5756
12656TIP3    H137913   1.114   2.085   2.947  1.4038  1.3283 -1.7208
12656TIP3    H237914   1.123   2.012   2.815 -0.9039 -2.0830 -0.1047
12657TIP3   OH237915   5.983   0.466   5.453  0.3963  0.4809 -0.6442
12657TIP3    H137916   6.030   0.405   5.510 -0.2366  0.6682  0.1075
12657TIP3    H237917   5.899   0.479   5.497  0.8259  2.5626 -0.3248
12658TIP3   OH237918   3.282   3.475   3.372 -0.0539  0.5050  0.5249
12658TIP3    H137919   3.217   3.535   3.409 -0.2222  0.3878  0.4240
12658TIP3    H237920   3.271   3.484   3.277 -2.1501 -1.8269  0.4385
12659TIP3   OH237921   0.255   3.314   6.712 -0.5244 -0.6809  0.0169
12659TIP3    H137922   0.180   3.267   6.676  1.0536 -1.4444 -2.6527
12659TIP3    H237923   0.328   3.253   6.701  0.7655  0.6186  1.0038
12660TIP3   OH237924   6.204   3.709   3.402 -0.5117  0.0628  0.2489
12660TIP3    H137925   6.270   3.700   3.471 -2.1689  0.9903  2.0341
12660TIP3    H237926   6.129   3.659   3.434 -1.7948  1.5974 -0.2265
12661TIP3   OH237927   1.871   2.509   2.627 -0.4760 -0.4143 -0.6834
12661TIP3    H137928   1.822   2.577   2.580  0.2199  0.5827 -0.0127
12661TIP3    H237929   1.890   2.548   2.712  2.4106 -0.3029 -1.2723
12662TIP3   OH237930   2.305   7.787   5.317 -0.3496  0.3499 -0.0420
12662TIP3    H137931   2.320   7.808   5.225 -2.7622  0.2482 -0.5317
12662TIP3    H237932   2.370   7.720   5.338  0.6171  0.8011 -1.4959
12663TIP3   OH237933   6.366   6.602   3.757  0.2621 -0.3199 -0.5466
12663TIP3    H137934   6.371   6.516   3.800 -0.4409 -0.1642 -0.1344
12663TIP3    H237935   6.418   6.592   3.677  0.7207 -0.9346 -0.1844
12664TIP3   OH237936   3.702   3.122   2.884  0.0655  0.5098  0.0207
12664TIP3    H137937   3.781   3.173   2.898  0.4504 -0.2423  0.7302
12664TIP3    H237938   3.694   3.113   2.789  0.0602  1.7468 -0.0998
12665TIP3   OH237939   1.094   7.491   1.871  0.2169 -0.4950 -0.4617
12665TIP3    H137940   1.094   7.482   1.966 -2.0048 -0.7492 -0.4423
12665TIP3    H237941   1.087   7.401   1.839  0.8678 -0.4029 -0.8901
12666TIP3   OH237942   0.513   5.241   6.335 -0.6271  0.1226  0.0010
12666TIP3    H137943   0.428   5.272   6.366 -0.6189 -1.4075  1.7620
12666TIP3    H237944   0.557   5.210   6.414  0.7582 -0.9589 -1.1426
12667TIP3   OH237945   0.152   6.770   2.606 -0.1046 -0.2990  0.0702
12667TIP3    H137946   0.073   6.822   2.618 -0.4530 -0.1719 -2.3055
12667TIP3    H237947   0.130   6.684   2.641 -0.5710  0.2964  1.2850
12668TIP3   OH237948   5.610   4.567   0.918 -0.0715 -0.4300 -0.4475
12668TIP3    H137949   5.560   4.616   0.982  0.2516  2.5763 -2.2938
12668TIP3    H237950   5.546   4.539   0.853  0.1006 -0.2470 -0.6958
12669TIP3   OH237951   4.211   0.416   3.456  0.4824 -0.1057 -0.3570
12669TIP3    H137952   4.187   0.324   3.466  1.1434 -0.4426 -1.6039
12669TIP3    H237953   4.211   0.451   3.545  0.3305 -1.3407  0.1447
12670TIP3   OH237954   3.146   1.992   2.998 -0.0642 -0.1242  0.6482
12670TIP3    H137955   3.141   1.909   3.044  2.8938 -1.7252 -1.5454
12670TIP3    H237956   3.088   1.982   2.922  0.3967 -0.2548  0.3096
12671TIP3   OH237957   2.928   4.930   0.382 -0.1235 -0.3709 -0.3304
12671TIP3    H137958   2.942   4.860   0.319  0.3036 -0.1474 -0.4907
12671TIP3    H237959   2.881   4.997   0.333  0.4518 -0.0805 -0.4993
12672TIP3   OH237960   8.249   3.578   0.254 -0.1440 -0.2636 -0.5776
12672TIP3    H137961   8.248   3.565   0.159 -0.4460  0.2147 -0.6444
12672TIP3    H237962   8.208   3.499   0.289 -1.8568  0.3943 -0.9658
12673TIP3   OH237963   4.154   1.706   2.340 -0.3328 -0.1683 -0.0729
12673TIP3    H137964   4.193   1.620   2.348  0.3859  0.1101 -0.4687
12673TIP3    H237965   4.103   1.718   2.420 -1.4357 -1.4451 -0.5459
12674TIP3   OH237966   4.314   5.888   6.407  0.2874  0.9783  0.3731
12674TIP3    H137967   4.353   5.974   6.423 -0.1227  1.0897  0.7939
12674TIP3    H237968   4.349   5.861   6.323 -0.5120  2.0868 -0.3364
12675TIP3   OH237969   5.125   7.294   3.434  0.2410  0.4951  0.3656
12675TIP3    H137970   5.143   7.281   3.341  2.6855  1.1432  0.6604
12675TIP3    H237971   5.188   7.236   3.479 -1.0571  0.0058  1.6281
12676TIP3   OH237972   0.175   2.770   1.864  0.1277  0.2806  0.2636
12676TIP3    H137973   0.166   2.720   1.783  1.4407 -1.0678  0.9072
12676TIP3    H237974   0.158   2.707   1.933  0.4222  1.0739  1.0800
12677TIP3   OH237975   4.070   0.574   0.483  0.4057  0.3403  0.0837
12677TIP3    H137976   4.152   0.578   0.433 -0.0191 -0.1293 -0.6754
12677TIP3    H237977   4.094   0.531   0.565  0.4591 -2.2906 -1.1833
12678TIP3   OH237978   4.263   4.653   4.853  0.5876 -0.3433 -0.6914
12678TIP3    H137979   4.219   4.657   4.938  0.8575 -0.1276 -0.5590
12678TIP3    H237980   4.192   4.658   4.789  0.4199  0.0228 -0.4801
12679TIP3   OH237981   8.233   2.845   0.001  0.6254  0.1759 -0.3358
12679TIP3    H137982   8.211   2.758   0.035  0.2838  0.0833 -0.7863
12679TIP3    H237983   8.165   2.902   0.035 -0.9062 -0.2746 -2.4853
12680TIP3   OH237984   4.579   3.155   5.291 -0.2249  0.9065  0.3694
12680TIP3    H137985   4.598   3.244   5.322  0.9376  0.7501  0.1672
12680TIP3    H237986   4.500   3.165   5.238 -0.7381  1.6230  1.2400
12681TIP3   OH237987   4.661   1.325   0.799 -0.2229 -0.0526  0.0155
12681TIP3    H137988   4.734   1.331   0.860 -1.1729  0.7132  1.1144
12681TIP3    H237989   4.702   1.326   0.712  1.0963 -0.3699  0.6208
12682TIP3   OH237990   6.605   5.145   1.537 -0.5365 -0.4397 -0.8635
12682TIP3    H137991   6.676   5.109   1.591  0.2001 -0.1913 -1.6595
12682TIP3    H237992   6.582   5.227   1.580  0.7048  0.2334 -1.4513
12683TIP3   OH237993   4.419   4.037   0.080  0.0342 -0.6743 -0.0155
12683TIP3    H137994   4.334   4.001   0.055  0.0553 -0.8836  0.2076
12683TIP3    H237995   4.431   4.010   0.171 -0.8121  1.5119  0.8009
12684TIP3   OH237996   7.984   2.450   6.703 -0.3990 -0.2966  0.3050
12684TIP3    H137997   7.907   2.426   6.650 -1.6655  0.7141  1.5862
12684TIP3    H237998   7.971   2.403   6.786 -1.2533  2.1021  1.6389
12685TIP3   OH237999   7.900   3.072   4.659 -0.0396 -0.3234 -0.1138
12685TIP3    H138000   7.846   2.998   4.685 -0.7166 -0.4349 -1.6800
12685TIP3    H238001   7.884   3.081   4.565  0.9550  1.0627 -0.1858
12686TIP3   OH238002   6.426   2.847   1.077 -0.0547 -0.4414 -0.6147
12686TIP3    H138003   6.444   2.940   1.089  0.1587 -0.4087 -1.1735
12686TIP3    H238004   6.333   2.843   1.056  0.0079 -0.3300 -0.9041
12687TIP3   OH238005   0.122   5.210   3.164 -0.8499 -0.2483 -0.2127
12687TIP3    H138006   0.213   5.181   3.164 -0.0894  1.9439 -0.5768
12687TIP3    H238007   0.079   5.157   3.097  0.2268 -1.1156 -0.2293
12688TIP3   OH238008   2.362   6.495   2.274 -0.5245  1.0567  0.8267
12688TIP3    H138009   2.282   6.546   2.288 -0.0275  2.1770 -0.2212
12688TIP3    H238010   2.429   6.541   2.324 -0.0100  1.6476 -0.3573
12689TIP3   OH238011   4.667   3.126   1.902 -0.5625 -0.4701  0.0644
12689TIP3    H138012   4.642   3.046   1.855  1.5417 -0.6110 -0.9214
12689TIP3    H238013   4.751   3.151   1.864 -1.0297  2.0813  0.5516
12690TIP3   OH238014   3.662   3.569   2.111  0.1221 -0.4483 -0.1145
12690TIP3    H138015   3.735   3.601   2.165 -0.8046 -0.5897  1.2765
12690TIP3    H238016   3.689   3.481   2.085  0.6613 -0.3115 -0.0329
12691TIP3   OH238017   7.105   2.876   4.027  0.3330  0.6890 -0.2614
12691TIP3    H138018   7.181   2.834   3.987  0.0529  0.5486 -0.6456
12691TIP3    H238019   7.099   2.836   4.114  1.1732  1.2744  0.0831
12692TIP3   OH238020   2.496   5.744   5.762 -0.1623  0.2994  0.1330
12692TIP3    H138021   2.434   5.712   5.828  1.2443 -0.4159  1.1666
12692TIP3    H238022   2.538   5.665   5.728 -0.0009  0.7512 -0.7434
12693TIP3   OH238023   1.702   5.183   1.096  0.0491 -0.1918  0.0643
12693TIP3    H138024   1.761   5.109   1.111 -1.1159 -0.7888  1.9252
12693TIP3    H238025   1.648   5.156   1.022  0.8720 -0.3877 -0.4835
12694TIP3   OH238026   5.327   4.408   3.320  0.3915  0.0378 -0.2589
12694TIP3    H138027   5.324   4.490   3.368  0.3289 -1.0643  1.7409
12694TIP3    H238028   5.237   4.375   3.323  0.4772 -0.2570 -0.7773
12695TIP3   OH238029   1.891   0.569   0.226  0.0139 -0.1834  0.2193
12695TIP3    H138030   1.811   0.548   0.178 -1.5100  1.0734  2.0816
12695TIP3    H238031   1.895   0.504   0.296 -1.0048  1.4672  1.8747
12696TIP3   OH238032   2.596   6.006   6.026  0.2306  0.1367 -0.1240
12696TIP3    H138033   2.578   6.079   6.084 -0.5580  0.4359 -0.7338
12696TIP3    H238034   2.518   5.950   6.032 -0.6961  1.0938 -2.2598
12697TIP3   OH238035   6.425   2.177   2.716  0.4782  0.1911 -0.3597
12697TIP3    H138036   6.487   2.134   2.657  0.2985 -0.6532  0.0473
12697TIP3    H238037   6.476   2.246   2.757  0.8316  0.2536 -0.8867
12698TIP3   OH238038   7.606   6.189   2.707  0.4309  0.0791 -0.1228
12698TIP3    H138039   7.685   6.211   2.756  1.0430  0.1177 -1.1141
12698TIP3    H238040   7.595   6.095   2.721 -0.1168  0.3064  1.1042
12699TIP3   OH238041   6.096   3.625   4.410  0.9751  0.0990 -0.2065
12699TIP3    H138042   6.108   3.609   4.504  3.4803 -0.0526 -0.4860
12699TIP3    H238043   6.104   3.538   4.371  0.8650  0.2782 -0.6280
12700TIP3   OH238044   0.649   6.139   5.725  0.4580  0.0247  0.0035
12700TIP3    H138045   0.703   6.118   5.648  1.6202 -1.0758  1.0847
12700TIP3    H238046   0.571   6.083   5.715  1.4120 -1.4535  0.4880
12701TIP3   OH238047   5.401   6.095   5.577  0.4386  0.2431 -0.4867
12701TIP3    H138048   5.480   6.149   5.568  0.5819  0.1025 -0.0801
12701TIP3    H238049   5.427   6.023   5.634  0.5840 -0.9221 -1.9886
12702TIP3   OH238050   5.427   5.450   4.265  0.6353 -0.6615 -0.1234
12702TIP3    H138051   5.388   5.538   4.262  0.2716 -0.8227 -0.1916
12702TIP3    H238052   5.514   5.461   4.226  0.8769 -0.1854  0.5244
12703TIP3   OH238053   1.156   4.536   6.586  0.4877 -0.5365 -1.1018
12703TIP3    H138054   1.209   4.580   6.654  0.8601 -0.1142 -1.6503
12703TIP3    H238055   1.189   4.446   6.585  1.4582 -0.1921 -1.6737
12704TIP3   OH238056   6.782   6.020   4.290  0.8290 -0.7365  0.0405
12704TIP3    H138057   6.758   6.042   4.200  1.1691 -0.2497  0.0653
12704TIP3    H238058   6.870   6.058   4.301  0.6086 -0.4090  0.7148
12705TIP3   OH238059   6.381   7.649   0.425 -0.0578 -0.1743  0.0613
12705TIP3    H138060   6.458   7.644   0.369  1.0418  0.7370  1.4079
12705TIP3    H238061   6.351   7.740   0.417  0.3756  0.0874  1.2494
12706TIP3   OH238062   7.668   7.080   0.793 -0.1306  0.3808 -0.0673
12706TIP3    H138063   7.608   7.055   0.863 -1.2724  2.6324 -0.1319
12706TIP3    H238064   7.659   7.012   0.727 -0.0889 -1.0490  1.3430
12707TIP3   OH238065   4.270   6.364   1.330 -0.4635 -0.1376 -0.2272
12707TIP3    H138066   4.348   6.384   1.279 -0.4535  0.6071  0.0556
12707TIP3    H238067   4.303   6.340   1.417 -0.5454  0.2250 -0.0933
12708TIP3   OH238068   0.281   4.185   2.589  0.1968 -0.1709  0.3498
12708TIP3    H138069   0.323   4.137   2.660  1.4218  1.0800  0.5024
12708TIP3    H238070   0.188   4.162   2.597  0.5222 -1.2157  1.4226
12709TIP3   OH238071   7.980   0.544   3.378 -0.0993 -0.1228  0.4852
12709TIP3    H138072   7.957   0.519   3.467  0.1841  0.1464  0.6355
12709TIP3    H238073   7.963   0.638   3.374  0.0794 -0.0964  0.3182
12710TIP3   OH238074   2.429   7.371   1.591  0.0520 -0.2358 -0.0114
12710TIP3    H138075   2.473   7.350   1.673 -1.1786 -1.4936  0.3741
12710TIP3    H238076   2.462   7.307   1.528  1.5562  1.1900 -0.7523
12711TIP3   OH238077   3.540   1.204   3.948  0.0503  0.4772  0.1908
12711TIP3    H138078   3.559   1.274   4.011 -0.8107  3.6614 -2.7833
12711TIP3    H238079   3.448   1.216   3.926 -0.0060 -1.3907 -0.7195
12712TIP3   OH238080   2.471   5.968   5.597 -0.0482  0.4465  0.0148
12712TIP3    H138081   2.404   5.934   5.537  0.3207 -1.1117  0.4332
12712TIP3    H238082   2.496   5.892   5.650  1.3786  1.2234  0.5028
12713TIP3   OH238083   0.832   7.329   4.556 -0.7103  0.2963  0.4701
12713TIP3    H138084   0.891   7.258   4.529 -1.2584 -0.4120  1.1176
12713TIP3    H238085   0.885   7.383   4.616 -0.3851  0.2860  0.1973
12714TIP3   OH238086   5.121   5.585   1.927 -0.1123  0.6619  0.4482
12714TIP3    H138087   5.195   5.608   1.985 -0.6257  0.4536  1.1976
12714TIP3    H238088   5.070   5.522   1.978  0.4719 -1.0443 -1.0071
12715TIP3   OH238089   3.331   2.207   6.537  0.1651 -0.0638  0.0367
12715TIP3    H138090   3.305   2.264   6.609 -0.4339 -0.2928  0.0013
12715TIP3    H238091   3.249   2.175   6.499  0.4632  0.1949 -0.8642
12716TIP3   OH238092   4.524   7.085   5.443 -0.2827 -0.0469  0.4415
12716TIP3    H138093   4.454   7.099   5.380 -0.1692 -0.4662  0.2146
12716TIP3    H238094   4.604   7.088   5.391 -0.2531 -1.7062  0.3059
12717TIP3   OH238095   6.073   6.748   0.378  0.2612  0.5692 -0.7029
12717TIP3    H138096   6.017   6.725   0.452 -1.4172  0.0015 -2.1036
12717TIP3    H238097   6.125   6.822   0.409 -1.1603  1.0176  0.6857
12718TIP3   OH238098   1.623   1.634   0.590  0.0970 -0.2481 -0.0309
12718TIP3    H138099   1.694   1.594   0.640  0.2167  0.2631  0.2214
12718TIP3    H238100   1.583   1.696   0.652 -0.8142 -0.8079 -0.0502
12719TIP3   OH238101   3.596   4.181   5.360  0.4120 -0.1190 -0.0941
12719TIP3    H138102   3.689   4.195   5.342  0.2000  2.2319  0.3703
12719TIP3    H238103   3.593   4.164   5.454  0.2598  1.6163  0.2514
12720TIP3   OH238104   4.691   1.802   3.541 -0.0745  0.3742  0.1577
12720TIP3    H138105   4.627   1.740   3.575  0.9826 -0.5324  0.5594
12720TIP3    H238106   4.639   1.876   3.511 -1.2570 -0.0829  1.0056
12721TIP3   OH238107   5.433   3.346   3.558  0.3405 -0.2628  0.2612
12721TIP3    H138108   5.501   3.392   3.508  0.5189  0.9878  1.5705
12721TIP3    H238109   5.357   3.403   3.554  0.0904 -0.5602  0.6913
12722TIP3   OH238110   2.853   5.164   2.413  0.6282  0.7311 -0.1085
12722TIP3    H138111   2.921   5.195   2.353  0.5507  0.6227 -0.2512
12722TIP3    H238112   2.771   5.187   2.370  0.5656  1.5737  0.4198
12723TIP3   OH238113   3.252   4.121   0.053  0.5220  0.2053  0.2381
12723TIP3    H138114   3.322   4.066   0.016 -1.4998 -1.5854 -1.1896
12723TIP3    H238115   3.291   4.208   0.060  3.3377 -0.9979  0.9359
12724TIP3   OH238116   8.059   7.742   2.733 -0.3822  0.0635  0.2936
12724TIP3    H138117   7.985   7.779   2.684  1.4795  0.7265 -2.2442
12724TIP3    H238118   8.093   7.816   2.784 -0.5220  0.1766  0.2247
12725TIP3   OH238119   2.509   0.233   5.927 -0.4970  0.3838  0.1358
12725TIP3    H138120   2.434   0.189   5.967 -1.7235  1.1815 -1.1463
12725TIP3    H238121   2.534   0.301   5.989 -2.0095  1.2540 -0.1517
12726TIP3   OH238122   3.824   6.859   1.953 -0.0626  0.2473  0.0842
12726TIP3    H138123   3.906   6.857   1.904 -1.3609 -0.7920 -2.2291
12726TIP3    H238124   3.850   6.880   2.043  2.6109  0.8108 -0.7259
12727TIP3   OH238125   5.204   3.410   6.459  0.4018  0.2679  0.3895
12727TIP3    H138126   5.295   3.436   6.444  0.7890 -0.2320  1.7535
12727TIP3    H238127   5.180   3.451   6.542 -0.1919 -0.6549  0.6896
12728TIP3   OH238128   4.182   6.282   4.615  0.0252  0.0834 -0.2912
12728TIP3    H138129   4.191   6.204   4.560 -0.3083 -0.1482 -0.0209
12728TIP3    H238130   4.213   6.353   4.560  0.0468 -0.1980 -0.6497
12729TIP3   OH238131   3.961   1.438   2.649  0.1770  0.0283  0.1641
12729TIP3    H138132   3.981   1.459   2.740  1.0611  0.6689 -0.1576
12729TIP3    H238133   3.867   1.456   2.640 -0.0795 -0.7725  1.1287
12730TIP3   OH238134   5.680   7.333   1.685  0.0060  0.1761  0.0892
12730TIP3    H138135   5.634   7.409   1.720 -0.1393 -0.1260  0.5669
12730TIP3    H238136   5.716   7.363   1.602  0.9493  1.1237  0.8118
12731TIP3   OH238137   2.316   0.997   0.199 -0.4174 -0.2801  0.1730
12731TIP3    H138138   2.350   0.979   0.112 -1.0037 -2.3955  0.3363
12731TIP3    H238139   2.341   0.921   0.251 -1.7256  0.0625  1.3569
12732TIP3   OH238140   7.231   2.511   1.456  0.6049  0.0302  0.2225
12732TIP3    H138141   7.266   2.519   1.367 -1.4461 -0.8815 -0.7453
12732TIP3    H238142   7.148   2.465   1.445  0.1788  0.0829  2.6118
12733TIP3   OH238143   4.815   4.512   6.005 -0.7903 -0.3458  0.8685
12733TIP3    H138144   4.875   4.581   6.036 -1.5433  0.6357  0.2134
12733TIP3    H238145   4.864   4.431   6.017  0.3647  0.3560  1.1031
12734TIP3   OH238146   1.946   5.342   1.801 -0.2492  0.0261  0.6991
12734TIP3    H138147   1.868   5.328   1.748  0.2421 -0.7800  0.1689
12734TIP3    H238148   1.929   5.294   1.882  0.9511 -2.9587 -0.6549
12735TIP3   OH238149   8.202   1.350   6.359  0.1002 -0.3813 -0.0966
12735TIP3    H138150   8.261   1.344   6.284  0.0968  1.7261 -0.3417
12735TIP3    H238151   8.246   1.409   6.420 -0.7215 -0.6024  0.7466
12736TIP3   OH238152   3.127   4.237   2.655 -0.0399 -0.2517 -0.2500
12736TIP3    H138153   3.182   4.232   2.576 -0.0146  0.0362 -0.2525
12736TIP3    H238154   3.057   4.173   2.640  1.2099 -1.8532  0.4812
12737TIP3   OH238155   0.551   1.311   4.842 -0.0696 -0.6376  0.1541
12737TIP3    H138156   0.586   1.382   4.895 -0.7149 -0.0668 -0.1841
12737TIP3    H238157   0.583   1.231   4.886 -0.5921 -0.1856  1.4009
12738TIP3   OH238158   2.744   2.139   2.068  0.3268 -0.0996  0.3408
12738TIP3    H138159   2.792   2.089   2.002 -1.3934 -1.3595 -0.0208
12738TIP3    H238160   2.744   2.083   2.146  0.0784  0.2285  0.5814
12739TIP3   OH238161   4.041   0.369   0.049 -0.1767 -0.2824  0.1580
12739TIP3    H138162   3.977   0.306   0.082 -2.0977  1.0035 -0.8708
12739TIP3    H238163   4.031   0.365  -0.047  0.0157  1.1542  0.0491
12740TIP3   OH238164   3.726   5.672   1.044  0.4149  0.2795  0.0800
12740TIP3    H138165   3.807   5.674   1.096  0.4524  0.2904  0.0218
12740TIP3    H238166   3.756   5.685   0.954  0.3778 -0.0423  0.0215
12741TIP3   OH238167   4.177   2.301   3.993 -0.3833 -0.8592  0.0352
12741TIP3    H138168   4.272   2.307   3.982 -0.2453  1.4962  1.8353
12741TIP3    H238169   4.159   2.207   3.995  1.8666 -1.3550 -0.5669
12742TIP3   OH238170   4.627   0.821   5.057 -0.1856  0.2155 -0.0203
12742TIP3    H138171   4.700   0.844   5.115 -0.1770  0.7794 -0.2487
12742TIP3    H238172   4.551   0.820   5.115 -0.4387  2.3101 -0.2306
12743TIP3   OH238173   6.907   2.675   1.890  0.2184 -0.0213  0.2182
12743TIP3    H138174   6.830   2.708   1.936  0.1510  0.7325 -0.4067
12743TIP3    H238175   6.917   2.585   1.921 -1.4244 -0.4357 -0.3307
12744TIP3   OH238176   2.744   0.401   5.730  0.4060 -0.4792  0.4057
12744TIP3    H138177   2.798   0.379   5.805 -2.0460 -2.5300  1.7350
12744TIP3    H238178   2.708   0.317   5.700 -0.7728  0.5798 -1.3764
12745TIP3   OH238179   3.479   2.439   0.799 -0.2606 -0.1637 -0.0641
12745TIP3    H138180   3.410   2.503   0.819  0.2304  0.3942 -0.1493
12745TIP3    H238181   3.440   2.382   0.733 -0.7025  0.0506  0.0073
12746TIP3   OH238182   0.062   3.604   2.122 -0.0228 -0.7860 -0.2596
12746TIP3    H138183   0.003   3.662   2.170  0.8471 -0.9589  1.0830
12746TIP3    H238184   0.117   3.565   2.190  3.2237  1.1301 -1.5634
12747TIP3   OH238185   8.022   4.417   0.116 -0.1046 -0.2907 -0.0731
12747TIP3    H138186   7.967   4.469   0.175 -0.0938 -0.4636  0.0927
12747TIP3    H238187   7.986   4.433   0.029  0.1904  0.3578 -0.0777
12748TIP3   OH238188   6.579   3.002   4.468 -0.1455 -0.0729 -0.2331
12748TIP3    H138189   6.648   2.985   4.531 -0.2098 -0.2132 -0.1995
12748TIP3    H238190   6.498   2.996   4.518 -0.1325  1.4172  0.0150
12749TIP3   OH238191   0.332   1.984   1.489 -0.4019  0.3795 -0.2038
12749TIP3    H138192   0.400   1.950   1.548 -0.0466  0.8049 -0.3620
12749TIP3    H238193   0.353   2.077   1.479 -0.7575  0.4209 -0.6005
12750TIP3   OH238194   5.933   4.996   1.809 -0.5219 -0.0438 -0.2857
12750TIP3    H138195   5.914   4.971   1.900  1.5995 -0.6133  0.0688
12750TIP3    H238196   5.860   4.961   1.759 -0.3272 -2.3215  0.8776
12751TIP3   OH238197   2.878   0.808   0.316  0.3784  0.6387  0.1012
12751TIP3    H138198   2.924   0.725   0.333 -1.8749 -0.4329  1.4500
12751TIP3    H238199   2.858   0.805   0.222 -1.1223 -1.2332  0.4068
12752TIP3   OH238200   4.007   6.593   0.783 -0.8378 -0.7918 -0.1292
12752TIP3    H138201   3.945   6.623   0.717  0.7698  1.5653 -0.7102
12752TIP3    H238202   4.084   6.565   0.733  1.3915  3.3431  0.5549
12753TIP3   OH238203   6.682   3.382   5.520  0.1266  0.0108  0.2754
12753TIP3    H138204   6.685   3.448   5.450 -0.8325 -0.7676 -0.5155
12753TIP3    H238205   6.768   3.340   5.517  0.4161  0.5962  0.1839
12754TIP3   OH238206   1.584   0.467   2.271  0.2152  0.1765 -0.0746
12754TIP3    H138207   1.583   0.387   2.219  3.2064 -1.3375  1.9348
12754TIP3    H238208   1.674   0.499   2.264 -0.1038  1.5885  1.6836
12755TIP3   OH238209   5.810   7.692   2.319 -0.1694 -0.5272 -0.4441
12755TIP3    H138210   5.841   7.762   2.376 -2.0000 -0.4873  0.5668
12755TIP3    H238211   5.719   7.714   2.301 -0.9080 -2.7811  0.1865
12756TIP3   OH238212   5.807   3.118   5.962  0.2020 -0.9063 -0.2174
12756TIP3    H138213   5.845   3.047   5.910  1.5985 -0.6788  0.4294
12756TIP3    H238214   5.838   3.101   6.051  0.9783  0.7710 -0.1303
12757TIP3   OH238215   1.958   0.001   2.090 -0.6353  0.2442 -0.0832
12757TIP3    H138216   1.968  -0.043   2.175  0.2265 -2.9510 -1.6595
12757TIP3    H238217   2.041   0.047   2.078  0.3938 -1.5596 -0.2942
12758TIP3   OH238218   7.381   0.193   1.384 -0.2531  0.3698  0.1197
12758TIP3    H138219   7.412   0.130   1.319  1.3614  0.2541  0.9429
12758TIP3    H238220   7.382   0.277   1.339 -0.4734  0.0916 -0.4028
12759TIP3   OH238221   0.040   1.431   1.497 -0.0169 -0.0075 -0.4543
12759TIP3    H138222   0.019   1.347   1.539 -0.6009 -0.4617 -1.5899
12759TIP3    H238223  -0.032   1.489   1.521 -0.7815 -0.5068 -1.4384
12760TIP3   OH238224   0.312   0.045   4.797  0.1434 -0.0155  0.2576
12760TIP3    H138225   0.363   0.116   4.757  0.3015  0.6273  1.5478
12760TIP3    H238226   0.356   0.027   4.880  0.4878 -2.1087 -0.3224
12761TIP3   OH238227   3.965   6.196   2.349  0.3582 -0.2443 -0.4412
12761TIP3    H138228   3.881   6.226   2.314  0.7863  0.6555 -0.7229
12761TIP3    H238229   4.008   6.275   2.379  1.0397 -0.7212 -0.1411
12762TIP3   OH238230   7.410   1.804   6.734 -0.3619  0.3608 -0.0274
12762TIP3    H138231   7.504   1.806   6.751 -0.2429 -1.7912 -0.1490
12762TIP3    H238232   7.375   1.881   6.779  1.4541  1.2460 -0.0711
12763TIP3   OH238233   8.207   5.852   4.868 -0.0662  0.4727  0.0599
12763TIP3    H138234   8.243   5.898   4.944 -1.7724 -0.1870  1.3353
12763TIP3    H238235   8.124   5.897   4.850  0.5403  0.9172 -1.7296
12764TIP3   OH238236   6.647   3.247   4.759  0.2732 -0.5100 -0.7318
12764TIP3    H138237   6.643   3.333   4.801  1.0755 -0.2612 -1.1359
12764TIP3    H238238   6.735   3.244   4.720 -0.5350 -0.6026 -2.6654
12765TIP3   OH238239   7.396   3.236   0.385  0.3880  0.5206 -0.4955
12765TIP3    H138240   7.318   3.205   0.431  1.5385 -1.6934  0.1161
12765TIP3    H238241   7.445   3.285   0.451  0.7272 -0.3256 -0.0981
12766TIP3   OH238242   1.466   2.274   0.316 -0.7451 -0.2334  0.7443
12766TIP3    H138243   1.386   2.222   0.312 -0.2688 -1.0232 -2.7839
12766TIP3    H238244   1.443   2.357   0.273  0.4889 -0.8909 -1.3122
12767TIP3   OH238245   7.320   7.713   0.585 -0.3514  0.0941  0.2470
12767TIP3    H138246   7.228   7.702   0.607  0.0837 -0.1294  2.1676
12767TIP3    H238247   7.358   7.757   0.661  0.9588  1.0055 -0.8843
12768TIP3   OH238248   1.506   0.496   0.984 -0.1673  0.0077  0.3373
12768TIP3    H138249   1.431   0.478   0.927 -0.5504 -1.5794  1.2667
12768TIP3    H238250   1.530   0.410   1.019  1.2909  0.6723  1.0493
12769TIP3   OH238251   3.901   1.004   0.919  0.7311 -0.2016  0.9849
12769TIP3    H138252   3.865   0.938   0.978  1.5307 -0.9618  0.6526
12769TIP3    H238253   3.995   1.002   0.937  0.9328 -0.1719 -0.0566
12770TIP3   OH238254   4.662   2.704   2.253 -0.0526  0.1394  0.1663
12770TIP3    H138255   4.653   2.782   2.307 -0.4106 -0.0544  0.3895
12770TIP3    H238256   4.729   2.651   2.297  0.4484  0.4758 -0.1767
12771TIP3   OH238257   1.694   3.301   0.264 -0.3455  0.2671 -0.0426
12771TIP3    H138258   1.632   3.228   0.266 -1.2052  0.9823 -0.0267
12771TIP3    H238259   1.761   3.275   0.200 -0.2051 -0.8699  0.5525
12772TIP3   OH238260   7.773   1.136   4.236  0.3904  0.0871 -0.0081
12772TIP3    H138261   7.740   1.169   4.319  0.8297  0.5567 -0.0157
12772TIP3    H238262   7.695   1.105   4.190  0.1513 -0.2103  0.5869
12773TIP3   OH238263   7.580   3.053   1.808 -0.0312  0.2655  0.0835
12773TIP3    H138264   7.632   3.066   1.729  1.0584 -0.6629  0.6197
12773TIP3    H238265   7.508   2.997   1.780  0.0948  0.3098 -0.3457
12774TIP3   OH238266   3.077   4.814   5.800 -0.3072  0.1485 -0.2259
12774TIP3    H138267   3.089   4.862   5.718 -1.3021 -0.3722 -0.7009
12774TIP3    H238268   3.077   4.722   5.774 -0.6669 -0.0171  0.3516
12775TIP3   OH238269   4.336   6.391   6.482 -0.6575 -0.0868  0.0348
12775TIP3    H138270   4.312   6.445   6.557 -1.9818 -1.0573  0.3389
12775TIP3    H238271   4.266   6.405   6.419 -1.4003 -1.9477  0.3910
12776TIP3   OH238272   7.739   0.218   1.248  0.6927 -0.1171 -0.0082
12776TIP3    H138273   7.675   0.161   1.290 -1.6194  1.9165 -0.5116
12776TIP3    H238274   7.742   0.295   1.305  1.6090  0.4200 -0.7633
12777TIP3   OH238275   5.396   7.595   5.907  0.0742  0.8960 -0.2497
12777TIP3    H138276   5.385   7.608   6.002 -2.5683 -0.9160 -0.1901
12777TIP3    H238277   5.425   7.681   5.875 -0.0001  1.8705  2.0541
12778TIP3   OH238278   4.811   0.057   2.332 -0.2265 -0.0011 -0.1714
12778TIP3    H138279   4.760   0.072   2.253 -0.8726 -3.3881 -0.5573
12778TIP3    H238280   4.850  -0.030   2.320  3.2528  1.1301  1.4152
12779TIP3   OH238281   6.943   4.983   4.300  0.3344  0.1087 -0.2085
12779TIP3    H138282   6.865   4.970   4.247  0.4624  0.5537 -0.5135
12779TIP3    H238283   6.922   4.945   4.385 -0.3883  0.6658 -0.1373
12780TIP3   OH238284   4.322   4.170   3.832 -0.4868 -0.2518 -0.7265
12780TIP3    H138285   4.287   4.208   3.913 -1.2104 -2.0098 -0.1490
12780TIP3    H238286   4.416   4.165   3.847 -0.6000 -0.4377 -0.0367
12781TIP3   OH238287   0.650   1.649   4.723  0.3589 -0.0302  0.0467
12781TIP3    H138288   0.698   1.592   4.783 -0.4716 -0.5050  0.2766
12781TIP3    H238289   0.581   1.593   4.687 -1.4181  1.1875  1.4020
12782TIP3   OH238290   5.986   3.864   6.768  0.0298 -0.2968 -0.2285
12782TIP3    H138291   5.995   3.769   6.759 -1.1425 -0.4788  0.3416
12782TIP3    H238292   6.076   3.896   6.768  0.4161 -1.1225 -2.9441
12783TIP3   OH238293   0.393   1.905   4.312 -0.5318  1.1972  0.3591
12783TIP3    H138294   0.369   1.986   4.267 -0.2087  1.1189  0.0402
12783TIP3    H238295   0.448   1.933   4.385  2.7235  1.0671 -1.8585
12784TIP3   OH238296   7.482   5.769   1.780  0.3584 -0.4562  0.1811
12784TIP3    H138297   7.523   5.846   1.740  0.1761 -0.0950  0.6699
12784TIP3    H238298   7.534   5.753   1.859 -0.9338  0.5528  1.2941
12785TIP3   OH238299   8.191   6.234   5.375  0.1327  0.2452  0.4874
12785TIP3    H138300   8.098   6.251   5.361  0.1886  0.2693  0.1494
12785TIP3    H238301   8.231   6.241   5.289  0.5873  1.0974  0.7507
12786TIP3   OH238302   0.850   6.410   1.532  0.2714 -0.4598 -0.2059
12786TIP3    H138303   0.789   6.370   1.471 -0.1843  1.6598 -1.2389
12786TIP3    H238304   0.800   6.479   1.575  1.1411 -0.6237  1.1532
12787TIP3   OH238305   3.147   0.560   3.674  0.5872  1.0644 -0.1972
12787TIP3    H138306   3.223   0.581   3.728  1.0606  0.5238 -0.6468
12787TIP3    H238307   3.180   0.500   3.607 -0.7300 -1.3510  1.1771
12788TIP3   OH238308   0.006   7.147   4.934 -0.0777  0.2503 -0.7476
12788TIP3    H138309  -0.016   7.130   5.025  0.2670  0.6926 -0.5775
12788TIP3    H238310   0.050   7.067   4.905  1.0122  0.5925 -0.1222
12789TIP3   OH238311   5.694   1.334   0.545 -0.4508 -0.8473 -0.4830
12789TIP3    H138312   5.624   1.271   0.565 -0.2191 -1.9233 -2.6878
12789TIP3    H238313   5.767   1.279   0.516  1.4222  0.2489  1.8841
12790TIP3   OH238314   2.493   2.743   0.836  0.2837 -0.3414  0.0079
12790TIP3    H138315   2.418   2.789   0.875  0.4354  1.4551 -1.7198
12790TIP3    H238316   2.568   2.774   0.886  0.0409 -1.3549  1.0572
12791TIP3   OH238317   7.525   3.156   4.231  0.3220 -0.0147  0.4505
12791TIP3    H138318   7.567   3.098   4.293  0.4022 -0.5345 -0.0809
12791TIP3    H238319   7.458   3.102   4.189  0.1658  0.3727  0.1908
12792TIP3   OH238320   6.132   0.714   2.586 -0.1487 -0.1261  0.6216
12792TIP3    H138321   6.106   0.663   2.510  1.3077 -0.8549  0.5684
12792TIP3    H238322   6.199   0.661   2.629 -0.2730  0.6951  1.8912
12793TIP3   OH238323   5.627   4.685   2.667  0.0526  0.3021  0.1381
12793TIP3    H138324   5.674   4.615   2.711  0.4408 -0.1759 -0.9944
12793TIP3    H238325   5.676   4.699   2.586  0.4293  2.4098  0.6719
12794TIP3   OH238326   1.620   5.402   5.204 -0.1774  0.0904 -0.4414
12794TIP3    H138327   1.661   5.481   5.241  1.4507 -0.9361  0.0524
12794TIP3    H238328   1.532   5.430   5.180 -0.0708  1.7383  0.8920
12795TIP3   OH238329   5.415   6.862   4.010 -0.0290 -0.2019  0.2271
12795TIP3    H138330   5.504   6.829   4.011 -0.1057 -0.4199 -0.0582
12795TIP3    H238331   5.401   6.896   4.099  0.6657  0.7458 -0.0075
12796TIP3   OH238332   1.791   3.247   6.232 -0.0948  0.0917 -0.4164
12796TIP3    H138333   1.779   3.342   6.233  0.3185  0.1415  0.6039
12796TIP3    H238334   1.761   3.218   6.318  0.0241 -0.6812 -0.6269
12797TIP3   OH238335   7.229   5.334   5.170 -0.3988  0.2746  0.3184
12797TIP3    H138336   7.284   5.287   5.108 -0.1246  0.4570  0.4252
12797TIP3    H238337   7.150   5.357   5.120 -1.0225 -1.2452  0.5500
12798TIP3   OH238338   3.573   1.412   0.323 -0.1656  0.4551 -0.3071
12798TIP3    H138339   3.658   1.442   0.356  0.4626 -0.2764 -1.1952
12798TIP3    H238340   3.589   1.322   0.294 -1.0949  0.5177 -1.0610
12799TIP3   OH238341   0.800   0.501   0.294  0.4401 -0.2271  0.0749
12799TIP3    H138342   0.867   0.556   0.254  0.2555  0.1199  0.2364
12799TIP3    H238343   0.735   0.563   0.328  0.9744 -0.4756  1.5994
12800TIP3   OH238344   3.412   4.135   5.159 -1.2678  0.5430  0.3950
12800TIP3    H138345   3.425   4.170   5.071 -0.2746 -0.9185 -0.0785
12800TIP3    H238346   3.495   4.151   5.205 -1.3310  0.1628  0.6510
12801TIP3   OH238347   6.051   6.157   1.864 -0.2323  0.0723  0.3178
12801TIP3    H138348   5.972   6.122   1.823 -0.4672 -1.3436  1.8475
12801TIP3    H238349   6.066   6.100   1.939  2.9900 -0.4870 -0.6101
12802TIP3   OH238350   4.059   5.122   5.795 -0.2081 -0.2095 -0.4130
12802TIP3    H138351   3.980   5.106   5.848  1.5437 -2.2179  1.8605
12802TIP3    H238352   4.085   5.035   5.765  1.7351  0.2502 -0.1498
12803TIP3   OH238353   7.799   4.009   0.647 -0.1164  0.0641  0.5397
12803TIP3    H138354   7.865   3.962   0.698 -1.2223 -1.4164  0.6753
12803TIP3    H238355   7.722   4.011   0.704 -0.8801 -0.2112 -0.4597
12804TIP3   OH238356   6.581   6.959   3.183  0.1932 -0.1658 -0.1107
12804TIP3    H138357   6.590   6.936   3.091  1.9114 -1.3105  0.2876
12804TIP3    H238358   6.607   7.052   3.187  1.3718 -0.4506 -0.6286
12805TIP3   OH238359   2.261   4.918   1.189 -0.6546 -0.0469 -0.2295
12805TIP3    H138360   2.312   4.957   1.260 -2.4080  1.7653  0.1172
12805TIP3    H238361   2.296   4.829   1.180  0.5680  0.1592  1.9154
12806TIP3   OH238362   3.779   4.369   6.738  1.2618  0.4837  0.3746
12806TIP3    H138363   3.779   4.462   6.762  2.3086  0.6174 -0.0932
12806TIP3    H238364   3.871   4.348   6.723  0.9732 -0.4692 -0.1543
12807TIP3   OH238365   1.180   3.170   2.720  0.0806 -0.3830  0.4631
12807TIP3    H138366   1.194   3.222   2.800 -0.8316  2.0958 -0.8812
12807TIP3    H238367   1.224   3.087   2.738 -0.8113 -0.2786  3.8598
12808TIP3   OH238368   6.001   6.181   5.485 -0.7305  0.1709  0.8368
12808TIP3    H138369   5.990   6.273   5.511 -0.9332 -0.0073  1.3847
12808TIP3    H238370   6.022   6.185   5.391 -1.8693  0.7184  0.5913
12809TIP3   OH238371   3.059   7.330   3.384 -0.5381  0.1646 -0.3120
12809TIP3    H138372   2.964   7.333   3.398 -0.6303  0.8382 -1.0804
12809TIP3    H238373   3.091   7.412   3.420 -0.3099  0.2002 -0.6018
12810TIP3   OH238374   4.332   1.205   5.476 -0.2352 -0.1494  0.0413
12810TIP3    H138375   4.321   1.256   5.556 -1.2348  0.9822 -0.7744
12810TIP3    H238376   4.282   1.125   5.490  1.4811 -1.0379  1.4058
12811TIP3   OH238377   3.308   1.101   5.653  0.2530 -0.4486  0.5912
12811TIP3    H138378   3.366   1.050   5.709  2.1703  0.0409 -0.8209
12811TIP3    H238379   3.309   1.189   5.690 -0.0749 -0.5784  0.9101
12812TIP3   OH238380   2.393   3.052   1.730  0.2172  0.6161 -0.1373
12812TIP3    H138381   2.483   3.051   1.696  0.8644 -1.6091  1.4173
12812TIP3    H238382   2.393   3.123   1.794  0.7643  0.8387 -0.3743
12813TIP3   OH238383   0.354   7.756   5.805 -0.1127 -0.2812  0.3779
12813TIP3    H138384   0.333   7.820   5.737 -2.8690 -0.5410  0.8835
12813TIP3    H238385   0.332   7.799   5.887  0.9678 -0.8074  0.9681
12814TIP3   OH238386   7.590   1.597   3.375  0.5891 -0.3116  0.2739
12814TIP3    H138387   7.530   1.629   3.443  0.4811 -0.2387  0.1451
12814TIP3    H238388   7.659   1.552   3.423  1.3807  1.1365  0.5466
12815TIP3   OH238389   1.407   3.121   0.530 -0.1208  0.2330 -0.3004
12815TIP3    H138390   1.415   3.130   0.435 -0.4417 -0.6217 -0.4126
12815TIP3    H238391   1.336   3.058   0.543 -0.8217  1.1608  0.5367
12816TIP3   OH238392   8.145   3.143   3.762  0.0654  0.0295  0.1341
12816TIP3    H138393   8.200   3.086   3.815 -0.5373 -0.0833  0.6502
12816TIP3    H238394   8.195   3.156   3.681  0.4664 -0.7682  0.2402
12817TIP3   OH238395   4.947   0.434   5.187  0.4911 -0.0202  0.0968
12817TIP3    H138396   4.966   0.366   5.124  0.7711 -0.5855  0.7836
12817TIP3    H238397   4.903   0.503   5.136  0.9548 -0.3479 -0.7498
12818TIP3   OH238398   6.554   4.148   4.622 -0.1105  0.0589 -0.6344
12818TIP3    H138399   6.504   4.226   4.598 -2.2231 -0.9437  0.2422
12818TIP3    H238400   6.640   4.160   4.581 -0.5327  2.5995 -0.8789
12819TIP3   OH238401   0.488   6.914   0.887  0.0637 -0.1405 -0.2035
12819TIP3    H138402   0.514   6.969   0.813 -2.9104  0.5795 -0.8211
12819TIP3    H238403   0.417   6.859   0.854 -1.2455  0.0681  2.0191
12820TIP3   OH238404   8.016   1.590   0.366 -0.3615 -0.0173  0.2714
12820TIP3    H138405   7.948   1.544   0.416 -1.1542  0.4193 -0.3868
12820TIP3    H238406   7.972   1.618   0.286  0.6859 -0.0005 -0.3123
12821TIP3   OH238407   4.142   4.014   2.825 -0.1513  0.5113  0.4190
12821TIP3    H138408   4.188   4.086   2.868  0.8958 -0.3192  0.7408
12821TIP3    H238409   4.148   4.034   2.732 -0.2976  1.0882  0.5304
12822TIP3   OH238410   0.878   6.752   0.725 -0.1335 -0.1151  0.0912
12822TIP3    H138411   0.893   6.837   0.685  0.3467 -0.8661 -1.4004
12822TIP3    H238412   0.866   6.770   0.818 -0.7674  1.6475 -0.3037
12823TIP3   OH238413   6.483   3.664   5.380  0.2885 -0.1520  0.0812
12823TIP3    H138414   6.438   3.581   5.395 -2.1224  0.9407 -0.5600
12823TIP3    H238415   6.499   3.667   5.286  1.0686 -0.2028  0.2048
12824TIP3   OH238416   2.289   6.866   0.283 -0.6803  0.1097 -0.7600
12824TIP3    H138417   2.200   6.836   0.300 -1.1819  0.9972 -1.6925
12824TIP3    H238418   2.304   6.937   0.346  0.1905 -1.4501  0.8621
12825TIP3   OH238419   6.046   5.163   3.603 -0.4818  0.4202 -0.4852
12825TIP3    H138420   5.960   5.120   3.605  0.5849 -1.8323  1.2426
12825TIP3    H238421   6.044   5.226   3.676 -1.5822  2.5245 -2.2132
12826TIP3   OH238422   3.443   1.918  -0.007  0.6393  0.3873  0.1322
12826TIP3    H138423   3.462   1.853   0.061  0.6894  0.7678  0.4838
12826TIP3    H238424   3.358   1.955   0.018  0.8128  0.7629  0.1721
12827TIP3   OH238425   8.260   6.964   5.918  0.5373 -0.3785 -0.1159
12827TIP3    H138426   8.215   7.025   5.976 -1.9847 -2.5878  0.4272
12827TIP3    H238427   8.281   7.015   5.840  1.4361  1.9253  1.5403
12828TIP3   OH238428   5.267   4.735   3.307  0.6014  0.4695  0.1358
12828TIP3    H138429   5.211   4.701   3.377  2.3589 -0.2277  1.2725
12828TIP3    H238430   5.238   4.689   3.229 -0.5477  0.3043  0.6351
12829TIP3   OH238431   4.139   0.476   4.381 -0.4925  0.5817 -0.8470
12829TIP3    H138432   4.045   0.492   4.373 -0.5452  0.1512 -1.1187
12829TIP3    H238433   4.147   0.381   4.391 -0.1846  0.7291  0.6470
12830TIP3   OH238434   6.890   0.673   1.331  0.2182  0.0749 -0.1127
12830TIP3    H138435   6.864   0.748   1.279  1.2441  1.8715  1.8162
12830TIP3    H238436   6.950   0.624   1.274 -2.3273 -0.7662 -2.3021
12831TIP3   OH238437   6.584   0.343   1.054  0.3125 -0.2007  0.6796
12831TIP3    H138438   6.646   0.298   1.111  1.1862  1.2490  0.9418
12831TIP3    H238439   6.498   0.310   1.080  0.9685 -2.6728 -0.0852
12832TIP3   OH238440   5.765   6.602   6.319 -0.5485  0.0261  0.0163
12832TIP3    H138441   5.815   6.672   6.360  1.9675 -1.1947 -0.7248
12832TIP3    H238442   5.821   6.524   6.328 -1.2315 -0.9418 -2.9474
12833TIP3   OH238443   2.752   2.827   4.877  0.5141  0.5250  0.1157
12833TIP3    H138444   2.705   2.857   4.799 -0.7900 -1.2857  0.1244
12833TIP3    H238445   2.686   2.831   4.947  0.4694 -1.4966  0.2600
12834TIP3   OH238446   2.437   1.911   3.380 -0.6933 -0.3565  0.6243
12834TIP3    H138447   2.349   1.928   3.416 -0.7006  2.2435 -0.3766
12834TIP3    H238448   2.472   1.998   3.361  0.7744 -1.4259 -2.1301
12835TIP3   OH238449   0.542   0.247   5.660  0.5637 -0.2072 -0.0733
12835TIP3    H138450   0.539   0.334   5.700  0.7634 -0.4710  0.5424
12835TIP3    H238451   0.535   0.187   5.734  0.3612 -0.7171 -0.4983
12836TIP3   OH238452   2.530   5.023   5.082  0.2603  0.2356  0.0390
12836TIP3    H138453   2.457   5.052   5.027 -2.0699  0.1662  2.8587
12836TIP3    H238454   2.591   5.096   5.081 -0.0430  0.5323 -1.9338
12837TIP3   OH238455   6.239   4.143   0.258 -0.3170  0.1478  0.0821
12837TIP3    H138456   6.213   4.101   0.340 -0.5200  1.6858  0.8494
12837TIP3    H238457   6.254   4.235   0.282 -0.9225  0.7632 -1.7092
12838TIP3   OH238458   5.414   2.749   3.379 -0.6211 -0.0987  0.1487
12838TIP3    H138459   5.383   2.837   3.396  1.0456  0.3586  1.1315
12838TIP3    H238460   5.407   2.704   3.463 -0.8099 -0.6850 -0.1742
12839TIP3   OH238461   0.970   6.264   5.259 -0.0936 -0.7977 -0.3685
12839TIP3    H138462   0.936   6.232   5.343 -1.8876  1.1902 -0.2734
12839TIP3    H238463   1.018   6.343   5.281 -0.0799 -0.5777 -1.1636
12840TIP3   OH238464   2.388   4.445   5.799 -0.0891 -0.2990 -0.4337
12840TIP3    H138465   2.448   4.386   5.844 -0.7674  0.2811  1.2849
12840TIP3    H238466   2.316   4.389   5.770  0.0238 -0.5624 -0.2036
12841TIP3   OH238467   0.604   6.219   5.339 -0.0459  0.4016  0.2148
12841TIP3    H138468   0.577   6.236   5.429 -0.8575  0.3597 -0.0083
12841TIP3    H238469   0.649   6.135   5.343 -1.2678 -0.2709  0.3803
12842TIP3   OH238470   5.176   4.318   1.631 -0.3034 -0.2790  0.3776
12842TIP3    H138471   5.228   4.243   1.660 -0.7669 -0.0140  1.9752
12842TIP3    H238472   5.208   4.391   1.685  1.9677  1.3642 -2.8677
12843TIP3   OH238473   4.441   5.515   4.744 -0.1708 -1.0509  0.0474
12843TIP3    H138474   4.382   5.559   4.805  0.1509  0.5662 -0.7507
12843TIP3    H238475   4.384   5.467   4.685 -0.6457 -0.2004 -0.1938
12844TIP3   OH238476   0.051   6.878   0.736  0.0396 -0.0051  0.2262
12844TIP3    H138477   0.126   6.821   0.755 -0.3618 -0.3602  0.7549
12844TIP3    H238478  -0.020   6.819   0.712 -0.7430  0.1686  1.9793
12845TIP3   OH238479   7.732   1.268   3.632  0.5378  0.0970 -0.4832
12845TIP3    H138480   7.684   1.310   3.560 -1.0812  1.9522  1.5435
12845TIP3    H238481   7.695   1.180   3.638 -2.0624  1.1787  0.4245
12846TIP3   OH238482   2.950   7.585   1.834  0.1899  0.0681  0.3849
12846TIP3    H138483   2.860   7.561   1.855  0.1109  0.4941  0.5369
12846TIP3    H238484   2.975   7.523   1.765  0.5600 -1.5493  1.8828
12847TIP3   OH238485   3.574   6.661   3.763  0.1207  0.0066  0.0864
12847TIP3    H138486   3.549   6.594   3.700 -2.0550  1.1285 -0.3693
12847TIP3    H238487   3.574   6.742   3.713 -2.6044  1.0787  1.5777
12848TIP3   OH238488   1.900   6.383   3.804 -0.4547 -0.2020  0.5478
12848TIP3    H138489   1.973   6.390   3.865 -0.8289 -0.6746  1.0692
12848TIP3    H238490   1.893   6.289   3.788  0.6023  0.0151 -1.4323
12849TIP3   OH238491   6.795   3.760   1.665 -0.5330 -0.0170 -0.2084
12849TIP3    H138492   6.775   3.827   1.600 -0.2321 -0.0887 -0.3820
12849TIP3    H238493   6.710   3.723   1.689 -0.6565  0.0751 -0.4940
12850TIP3   OH238494   0.464   0.808   1.653  0.4838 -0.0810 -0.4664
12850TIP3    H138495   0.457   0.795   1.747 -0.8565 -1.3367 -0.7049
12850TIP3    H238496   0.550   0.773   1.630  0.7523  0.0864  0.2514
12851TIP3   OH238497   5.497   1.855   5.724  0.1092  0.0785 -0.2019
12851TIP3    H138498   5.457   1.903   5.651  0.5727  0.6067 -0.1152
12851TIP3    H238499   5.551   1.788   5.682 -1.1868 -0.9212 -0.3161
12852TIP3   OH238500   2.822   2.397   5.689  0.3837 -0.0616 -0.4269
12852TIP3    H138501   2.791   2.408   5.599 -0.2623  0.2190 -0.1737
12852TIP3    H238502   2.808   2.304   5.707 -0.1095  0.0185 -0.3889
12853TIP3   OH238503   7.659   5.812   3.156  0.2560 -0.0613  0.0279
12853TIP3    H138504   7.698   5.778   3.236  0.4359  0.6336  0.2451
12853TIP3    H238505   7.708   5.770   3.085 -0.1458 -0.9588  0.2689
12854TIP3   OH238506   7.271   1.984   4.433 -0.0416  0.2037 -0.0753
12854TIP3    H138507   7.340   2.006   4.372  0.3500  0.5435  0.4816
12854TIP3    H238508   7.190   2.005   4.386  0.2890  2.6561  0.3187
12855TIP3   OH238509   2.528   7.169   3.713  0.1544 -0.1780 -1.1090
12855TIP3    H138510   2.593   7.173   3.643  1.3149 -1.1667 -0.1567
12855TIP3    H238511   2.550   7.243   3.770  2.5167 -2.1800  0.8263
12856TIP3   OH238512   3.252   1.297   1.309 -0.3957  0.1282 -0.2531
12856TIP3    H138513   3.194   1.272   1.380  0.3590 -0.0625  0.3140
12856TIP3    H238514   3.325   1.341   1.352  1.4108 -2.3357 -0.5519
12857TIP3   OH238515   5.028   5.957   4.301  0.2101 -0.3866  0.1108
12857TIP3    H138516   5.101   6.016   4.285  2.1630 -1.8764  2.7635
12857TIP3    H238517   5.021   5.905   4.221  0.5837  1.2133 -1.0079
12858TIP3   OH238518   3.310   6.201   6.074 -0.1413  0.0474 -0.4154
12858TIP3    H138519   3.327   6.263   6.144  1.1192 -0.5203 -0.1887
12858TIP3    H238520   3.233   6.236   6.029  0.6506  1.8853 -0.4332
12859TIP3   OH238521   1.117   6.551   5.014  0.3683  0.6741  0.3869
12859TIP3    H138522   1.057   6.479   4.994  1.6832 -0.3822  0.1013
12859TIP3    H238523   1.094   6.577   5.104  0.7490 -1.0374  1.0183
12860TIP3   OH238524   5.696   3.422   4.084 -0.1574 -0.1107  0.3649
12860TIP3    H138525   5.678   3.415   4.178 -0.1985 -1.9189  0.2701
12860TIP3    H238526   5.745   3.504   4.075 -0.8647  0.5137  1.8375
12861TIP3   OH238527   7.928   1.447   5.157 -0.0671 -0.3980  0.7389
12861TIP3    H138528   8.023   1.446   5.142 -0.2902 -0.0130 -0.9698
12861TIP3    H238529   7.891   1.403   5.081 -1.2934  0.0817  1.0273
12862TIP3   OH238530   0.300   2.002   2.783  0.7102  0.0466 -0.1825
12862TIP3    H138531   0.347   2.003   2.700  2.2007  1.6158  0.6267
12862TIP3    H238532   0.366   2.026   2.848 -0.8719  0.7903  1.2069
12863TIP3   OH238533   4.211   1.795   3.243  0.6109  0.3265 -0.5261
12863TIP3    H138534   4.154   1.827   3.313 -0.3197  0.3806 -1.2994
12863TIP3    H238535   4.179   1.838   3.164  0.4903 -1.1209 -1.2913
12864TIP3   OH238536   4.846   7.053   3.677  0.4418 -0.2720 -0.0135
12864TIP3    H138537   4.801   6.977   3.713 -1.2151  0.3115 -0.7397
12864TIP3    H238538   4.776   7.113   3.653  1.5049  0.0282 -2.7178
12865TIP3   OH238539   5.704   4.602   1.734 -0.0837 -0.1247 -0.4631
12865TIP3    H138540   5.632   4.629   1.677  0.1578  0.2296 -0.6045
12865TIP3    H238541   5.754   4.682   1.748 -0.8517  0.0949  1.2911
12866TIP3   OH238542   3.416   7.197   1.613  0.8481 -0.1744 -0.3729
12866TIP3    H138543   3.491   7.256   1.620  0.6775  0.1781 -1.3424
12866TIP3    H238544   3.401   7.188   1.519  0.7782 -1.6663 -0.2380
12867TIP3   OH238545   7.221   2.148   2.307  0.3712  0.1095 -0.2567
12867TIP3    H138546   7.273   2.229   2.312  1.4397 -0.3567 -2.4876
12867TIP3    H238547   7.141   2.174   2.262  0.0889  0.1922  0.2887
12868TIP3   OH238548   2.903   7.115   1.547 -0.0427 -0.5400  0.1777
12868TIP3    H138549   2.844   7.045   1.573 -0.1864 -0.4965 -0.0320
12868TIP3    H238550   2.856   7.162   1.479  0.1635 -0.4016  0.1307
12869TIP3   OH238551   3.767   6.314   0.093  0.2138 -0.4362 -0.3069
12869TIP3    H138552   3.842   6.269   0.054  0.1717  0.1824 -1.1180
12869TIP3    H238553   3.777   6.300   0.187  0.6074 -1.4953 -0.4907
12870TIP3   OH238554   3.413   1.111   4.364  0.4878 -0.4021 -0.0371
12870TIP3    H138555   3.391   1.195   4.404 -0.7513 -0.6899 -0.0593
12870TIP3    H238556   3.337   1.090   4.309  1.3676 -0.8918 -1.0899
12871TIP3   OH238557   5.601   7.740   4.726  0.7415 -0.2602 -0.5123
12871TIP3    H138558   5.581   7.655   4.765  2.8559 -1.1493 -1.2463
12871TIP3    H238559   5.694   7.753   4.744  0.6085  1.6005 -1.0150
12872TIP3   OH238560   6.679   1.638   4.990  0.0415 -1.0148 -0.2026
12872TIP3    H138561   6.766   1.677   4.979 -0.4140  0.2056  0.3250
12872TIP3    H238562   6.654   1.610   4.902  0.0278  0.7436 -0.8031
12873TIP3   OH238563   5.723   4.289   1.997  0.4507 -0.4199  0.2399
12873TIP3    H138564   5.740   4.331   2.081 -0.3967  0.0009  0.2161
12873TIP3    H238565   5.656   4.344   1.956  1.5617 -0.0322 -1.1503
12874TIP3   OH238566   6.762   6.659   1.933 -0.1771  0.8539  0.2900
12874TIP3    H138567   6.667   6.649   1.943 -0.1456  0.4970  0.2585
12874TIP3    H238568   6.773   6.740   1.884 -0.4903  0.6319 -0.1577
12875TIP3   OH238569   4.503   4.596   4.047 -0.9641 -0.5692 -0.1990
12875TIP3    H138570   4.565   4.603   4.120 -0.9279 -0.4591 -0.2419
12875TIP3    H238571   4.417   4.600   4.089 -0.9430 -0.5279 -0.1597
12876TIP3   OH238572   2.797   6.208   6.154  0.3041 -0.5056 -0.5611
12876TIP3    H138573   2.867   6.271   6.137 -0.0220  0.7821  2.3601
12876TIP3    H238574   2.721   6.261   6.177 -1.0000 -1.9329 -1.4310
12877TIP3   OH238575   1.305   6.762   3.284  0.1861  0.1823 -0.1993
12877TIP3    H138576   1.367   6.737   3.215  0.1797 -0.3369 -0.0144
12877TIP3    H238577   1.234   6.806   3.237 -0.3416 -1.1185 -0.6556
12878TIP3   OH238578   3.596   0.235   2.835 -0.4633 -0.1833  0.4844
12878TIP3    H138579   3.538   0.171   2.875  0.4263 -0.2986  1.6726
12878TIP3    H238580   3.669   0.243   2.897 -0.6684  2.1556  0.5217
12879TIP3   OH238581   1.809   5.147   4.793 -0.2358  0.3278  0.0639
12879TIP3    H138582   1.819   5.106   4.879  1.1401  1.0462  0.2861
12879TIP3    H238583   1.830   5.077   4.731 -2.2979 -0.4939  0.2340
12880TIP3   OH238584   7.657   6.096   0.505  0.4115 -0.2365 -0.0541
12880TIP3    H138585   7.656   6.081   0.411 -0.8802  1.2288 -0.3230
12880TIP3    H238586   7.568   6.076   0.534  0.8445 -0.8718  0.9016
12881TIP3   OH238587   5.171   4.727   0.237 -0.6826 -0.1429  0.1223
12881TIP3    H138588   5.227   4.728   0.160 -1.8240  2.8429 -0.8142
12881TIP3    H238589   5.089   4.689   0.207 -1.0440  0.7904 -0.0965
12882TIP3   OH238590   6.698   2.679   5.292  0.8767  0.2058  0.0664
12882TIP3    H138591   6.757   2.689   5.217  0.6129  1.8495  0.0553
12882TIP3    H238592   6.714   2.589   5.322  1.1991 -0.4016 -1.7662
12883TIP3   OH238593   2.379   0.018   2.523  0.2143 -0.0752  0.0222
12883TIP3    H138594   2.355  -0.042   2.452 -0.1264  0.8810 -0.7063
12883TIP3    H238595   2.440   0.079   2.481 -0.9521  1.2606  0.1954
12884TIP3   OH238596   1.381   1.792   2.064  0.1338 -0.1259 -0.0804
12884TIP3    H138597   1.449   1.756   2.008  0.8513  1.7027 -0.4324
12884TIP3    H238598   1.344   1.715   2.108 -0.2287 -1.6034 -2.7505
12885TIP3   OH238599   5.467   7.046   6.676 -0.6158 -0.2141  0.2270
12885TIP3    H138600   5.528   7.010   6.612 -2.4940 -2.9819 -0.1957
12885TIP3    H238601   5.412   7.106   6.624 -0.3571 -0.2530 -0.1004
12886TIP3   OH238602   7.841   2.045   3.579  0.2665  0.4569  0.7100
12886TIP3    H138603   7.747   2.025   3.581  1.0570 -4.1613  1.7247
12886TIP3    H238604   7.859   2.065   3.487 -1.2959 -1.5203 -0.1064
12887TIP3   OH238605   4.901   6.122   1.552  0.3298 -0.2691 -0.3315
12887TIP3    H138606   4.961   6.053   1.580  1.3515  1.1281  1.1091
12887TIP3    H238607   4.925   6.138   1.460  1.4759 -0.4294 -0.0771
12888TIP3   OH238608   6.506   4.546   1.706  0.1610 -0.5546  0.2660
12888TIP3    H138609   6.586   4.586   1.671  0.4150 -0.7728  0.5917
12888TIP3    H238610   6.442   4.617   1.706  0.5214 -0.2221  0.5501
12889TIP3   OH238611   7.650   2.908   2.951 -0.0650  0.4316 -0.1312
12889TIP3    H138612   7.565   2.950   2.943 -1.1917 -1.8641 -1.1983
12889TIP3    H238613   7.698   2.937   2.873 -0.5777  0.2903 -0.5090
12890TIP3   OH238614   6.061   0.714   5.979 -0.0158  0.2470  0.4992
12890TIP3    H138615   6.096   0.795   6.014  1.2815 -1.0711  2.4383
12890TIP3    H238616   5.989   0.691   6.037 -0.1428 -0.1732  0.1855
12891TIP3   OH238617   4.885   6.964   2.536  0.0194  0.2608  0.2477
12891TIP3    H138618   4.841   7.030   2.481  1.4664  0.9972 -0.0809
12891TIP3    H238619   4.928   7.015   2.605  0.8151 -0.3674  0.2354
12892TIP3   OH238620   5.353   3.148   3.724  0.0115  0.2224  0.3641
12892TIP3    H138621   5.420   3.177   3.785  0.1572  0.1614  0.2341
12892TIP3    H238622   5.365   3.203   3.647  1.2035 -1.1062 -0.4341
12893TIP3   OH238623   0.916   2.526   3.343  0.3268  0.2162  0.2843
12893TIP3    H138624   0.976   2.455   3.364 -0.5277 -0.2619  1.2084
12893TIP3    H238625   0.830   2.494   3.372 -0.6393  0.3023 -2.2090
12894TIP3   OH238626   4.655   2.417   3.861 -0.4533  0.0311  0.3912
12894TIP3    H138627   4.747   2.411   3.834 -0.3513 -0.2478  0.7858
12894TIP3    H238628   4.626   2.503   3.830 -0.4484 -0.4208 -0.8969
12895TIP3   OH238629   6.963   5.485   0.305 -0.1192  0.3158 -0.0186
12895TIP3    H138630   6.979   5.578   0.291  0.9975  0.1737  0.1776
12895TIP3    H238631   7.024   5.442   0.245  1.9366 -0.2907  2.3576
12896TIP3   OH238632   7.839   5.029   5.000 -0.2763  0.3537 -0.6707
12896TIP3    H138633   7.774   5.012   5.068  1.8147 -0.6262  1.1912
12896TIP3    H238634   7.852   4.945   4.957  1.1022  0.0706  0.2506
12897TIP3   OH238635   1.188   0.166   3.993  0.6673 -0.1498  0.0203
12897TIP3    H138636   1.130   0.105   4.039  0.0993  0.7210  0.4894
12897TIP3    H238637   1.159   0.253   4.022 -0.7759  0.5678 -3.2043
12898TIP3   OH238638   6.795   3.229   5.032  0.7170 -0.1215 -0.3059
12898TIP3    H138639   6.794   3.145   5.077  2.3271  1.0408  2.0967
12898TIP3    H238640   6.703   3.254   5.024  0.3266 -0.2396  2.7703
12899TIP3   OH238641   3.110   0.430   5.585 -0.3684  0.1354 -0.4523
12899TIP3    H138642   3.149   0.438   5.498  0.7290  0.6885  0.0777
12899TIP3    H238643   3.111   0.337   5.604 -0.9154 -0.0187 -1.1652
12900TIP3   OH238644   7.203   3.919   3.293  0.4939  0.3547  0.2546
12900TIP3    H138645   7.289   3.895   3.259  0.0823 -0.3453 -0.3242
12900TIP3    H238646   7.168   3.838   3.331  0.9717  1.1262  2.4926
12901TIP3   OH238647   3.437   6.505   4.268  0.4780  0.4587 -0.4493
12901TIP3    H138648   3.500   6.451   4.316  0.5982 -0.2072 -1.3267
12901TIP3    H238649   3.466   6.499   4.177 -1.5184 -0.8371 -1.0738
12902TIP3   OH238650   3.344   0.340   1.932  0.2517 -0.4937 -0.3277
12902TIP3    H138651   3.403   0.265   1.924 -1.6297 -2.4916  2.5738
12902TIP3    H238652   3.288   0.335   1.854  2.2652  0.0115 -1.8790
12903TIP3   OH238653   3.547   5.477   1.001 -0.1129 -0.2323 -0.7129
12903TIP3    H138654   3.592   5.560   1.014  0.7303 -0.3730 -2.4340
12903TIP3    H238655   3.466   5.500   0.956 -0.7818 -0.1956  0.4594
12904TIP3   OH238656   4.056   3.367   3.063 -0.1344  0.2555 -0.3464
12904TIP3    H138657   3.997   3.326   3.125  0.3224  1.8695  1.2416
12904TIP3    H238658   4.043   3.461   3.076  1.1481  0.6360 -1.5462
12905TIP3   OH238659   4.583   5.944   4.451  0.1431 -0.2635  0.4788
12905TIP3    H138660   4.594   5.905   4.364 -0.0732  0.0097  0.3291
12905TIP3    H238661   4.671   5.976   4.473 -0.0782  0.8825 -0.2269
12906TIP3   OH238662   7.481   1.490   6.457  0.1869 -0.0251  0.0333
12906TIP3    H138663   7.560   1.526   6.418 -0.2183  1.5252  0.5904
12906TIP3    H238664   7.500   1.488   6.551 -0.2805 -0.0582  0.1275
12907TIP3   OH238665   4.474   5.273   1.838 -0.0525  0.1828  0.2583
12907TIP3    H138666   4.477   5.355   1.888 -0.3089  0.5835 -0.3649
12907TIP3    H238667   4.469   5.301   1.746  0.3556 -0.5391  0.0086
12908TIP3   OH238668   7.146   5.663   5.891  0.2755 -0.2316  0.7443
12908TIP3    H138669   7.156   5.704   5.977  0.4171 -0.8171  1.0119
12908TIP3    H238670   7.230   5.680   5.847 -0.7754  2.5806 -0.4097
12909TIP3   OH238671   2.509   3.502   4.572  0.1857  0.4175 -0.2577
12909TIP3    H138672   2.565   3.548   4.509  0.8954 -0.5252 -0.3321
12909TIP3    H238673   2.420   3.518   4.541  0.5553 -1.6984 -2.7411
12910TIP3   OH238674   6.869   4.813   5.753 -0.1888  0.3422 -0.2477
12910TIP3    H138675   6.833   4.883   5.698 -1.8547  0.5202  0.9910
12910TIP3    H238676   6.916   4.858   5.822 -0.0399  0.1854 -0.2449
12911TIP3   OH238677   5.464   7.111   6.293 -0.1273 -0.0186 -0.0456
12911TIP3    H138678   5.514   7.045   6.342  2.2088  1.1387 -0.7388
12911TIP3    H238679   5.428   7.168   6.360 -0.6673 -0.9421  0.4770
12912TIP3   OH238680   7.511   2.394   6.410 -0.3430  0.1085  0.6113
12912TIP3    H138681   7.565   2.446   6.470  0.7661  0.4262 -0.6316
12912TIP3    H238682   7.568   2.322   6.383 -1.5542 -1.2888  1.5880
12913TIP3   OH238683   5.012   1.621   4.652  0.2420  0.2117 -0.1522
12913TIP3    H138684   4.970   1.535   4.647 -0.1491  0.3963 -0.1266
12913TIP3    H238685   4.940   1.682   4.669  0.4964  0.5599 -0.2992
12914TIP3   OH238686   7.165   6.363   1.903 -0.0840 -0.6612 -0.1581
12914TIP3    H138687   7.168   6.275   1.939 -0.8374 -0.4905  0.3545
12914TIP3    H238688   7.244   6.370   1.849  0.2303 -1.4737  0.1810
12915TIP3   OH238689   1.448   5.974   0.118  0.7997  1.1644 -0.2708
12915TIP3    H138690   1.367   6.018   0.145  1.4770  1.7817  0.8716
12915TIP3    H238691   1.469   5.915   0.190  0.4853 -0.2741 -1.3181
12916TIP3   OH238692   0.900   2.631   2.056  0.3881  0.2039  0.0441
12916TIP3    H138693   0.880   2.694   2.125  1.0023  0.2589  0.1807
12916TIP3    H238694   0.918   2.684   1.979 -0.8326  0.1246 -0.3183
12917TIP3   OH238695   0.962   5.157   5.897  0.2533 -0.0553 -0.2980
12917TIP3    H138696   1.016   5.100   5.952 -1.3692 -0.3816  1.0047
12917TIP3    H238697   0.879   5.111   5.888 -0.8781  1.7887  0.2440
12918TIP3   OH238698   7.620   3.491   5.646 -0.1163  0.0402 -0.0261
12918TIP3    H138699   7.602   3.407   5.603  0.2311 -0.0923  0.0862
12918TIP3    H238700   7.598   3.557   5.579 -2.0426 -0.0560  0.4488
12919TIP3   OH238701   6.019   2.126   2.325  0.2127 -0.2071  0.4069
12919TIP3    H138702   6.061   2.068   2.390  1.3671  1.1238  0.8902
12919TIP3    H238703   6.043   2.214   2.353 -1.7682  0.5618 -0.1330
12920TIP3   OH238704   2.298   4.077   5.252 -0.1108 -0.0127 -0.1944
12920TIP3    H138705   2.352   3.999   5.267 -0.3888 -0.5035 -1.5321
12920TIP3    H238706   2.211   4.052   5.285 -0.3255 -0.4896 -1.0663
12921TIP3   OH238707   7.727   6.267   0.093  0.4901 -0.0575  0.0570
12921TIP3    H138708   7.756   6.331   0.027  0.5054  0.3389  0.4407
12921TIP3    H238709   7.803   6.257   0.151  0.5547 -0.5763 -0.1110
12922TIP3   OH238710   3.375   4.404   6.145 -0.5223  0.0673 -0.6290
12922TIP3    H138711   3.333   4.321   6.121 -0.1290 -0.9131  1.8245
12922TIP3    H238712   3.305   4.456   6.183 -0.5186  0.3971 -1.0703
12923TIP3   OH238713   0.038   0.665   5.376 -0.0277  0.5333 -0.7713
12923TIP3    H138714   0.083   0.601   5.431  0.1629  0.7191 -0.7100
12923TIP3    H238715  -0.055   0.648   5.391  0.0232  0.3116 -0.7067
12924TIP3   OH238716   1.960   6.560   3.484  0.1310 -0.7448 -0.1639
12924TIP3    H138717   1.998   6.597   3.564  0.7191  1.0926 -1.2309
12924TIP3    H238718   1.875   6.605   3.475 -0.0885 -1.2015 -0.3786
12925TIP3   OH238719   1.895   0.580   1.417  0.5120 -1.0821  0.2885
12925TIP3    H138720   1.924   0.505   1.364  1.1504 -0.4607 -0.2546
12925TIP3    H238721   1.971   0.637   1.421 -0.0687 -0.3103  0.4586
12926TIP3   OH238722   6.056   2.874   5.360 -0.1595  0.3770 -0.2628
12926TIP3    H138723   6.013   2.960   5.360 -2.5791 -0.7548 -0.4933
12926TIP3    H238724   6.002   2.820   5.417  0.2770 -1.4701 -1.5073
12927TIP3   OH238725   7.893   0.034   6.353 -0.4090 -0.2492 -0.3388
12927TIP3    H138726   7.985   0.061   6.353  0.3616 -2.6391  1.1053
12927TIP3    H238727   7.863   0.051   6.442 -0.3889 -2.4147  0.1232
12928TIP3   OH238728   1.013   7.753   4.284 -0.2709 -0.3080  0.0336
12928TIP3    H138729   0.936   7.733   4.337 -1.1148 -1.1329 -1.4237
12928TIP3    H238730   0.996   7.841   4.250 -0.7986 -0.6356 -0.5961
12929TIP3   OH238731   0.664   2.894   6.370  0.0952  0.2096  0.3228
12929TIP3    H138732   0.733   2.872   6.433  0.2208 -1.9890 -0.4885
12929TIP3    H238733   0.703   2.875   6.285 -0.3425  2.3631 -0.4035
12930TIP3   OH238734   7.030   6.945   5.450 -0.5672  0.0125 -0.1113
12930TIP3    H138735   6.997   6.861   5.417  0.3535 -0.6998  0.7377
12930TIP3    H238736   7.086   6.922   5.524  1.1290  1.2511 -0.9488
12931TIP3   OH238737   2.768   5.995   1.199 -0.0869  0.5045  0.4224
12931TIP3    H138738   2.837   6.061   1.213  0.4834  0.2561 -1.1267
12931TIP3    H238739   2.813   5.921   1.158 -1.2961  0.3985 -0.7566
12932TIP3   OH238740   1.252   4.884   1.037 -0.0749  0.2820  0.6186
12932TIP3    H138741   1.158   4.877   1.052 -0.3730  0.3459 -1.0436
12932TIP3    H238742   1.274   4.974   1.060 -0.7994  0.8371 -0.7621
12933TIP3   OH238743   1.103   7.384   3.631 -0.1453 -0.2690  0.1916
12933TIP3    H138744   1.180   7.327   3.631 -0.5182 -0.8529 -1.7940
12933TIP3    H238745   1.039   7.338   3.685 -0.1795 -1.4002 -0.7675
12934TIP3   OH238746   3.322   1.440   6.287  0.2519  0.2456 -0.0977
12934TIP3    H138747   3.273   1.456   6.206  1.1354 -0.3719 -0.7642
12934TIP3    H238748   3.254   1.436   6.355 -0.5144  0.6117 -0.8208
12935TIP3   OH238749   6.913   3.440   3.962 -0.0249  0.4774 -0.2684
12935TIP3    H138750   6.905   3.371   4.028 -1.0799  1.8341  1.1107
12935TIP3    H238751   7.006   3.464   3.964  0.4150 -1.0461 -0.9699
12936TIP3   OH238752   0.312   6.247   2.259  0.1958 -0.4189 -0.3857
12936TIP3    H138753   0.376   6.237   2.188 -2.4548 -0.6333 -2.9492
12936TIP3    H238754   0.262   6.325   2.236 -0.1685  0.0861  1.8516
12937TIP3   OH238755   5.661   3.751   1.845 -0.3027  0.4676  0.2059
12937TIP3    H138756   5.683   3.784   1.758  1.6988  0.1569  0.5424
12937TIP3    H238757   5.590   3.689   1.830  0.2184  0.1841 -1.2641
12938TIP3   OH238758   7.167   3.697   5.518  0.0489 -0.0726  0.0767
12938TIP3    H138759   7.245   3.703   5.463 -0.0848 -1.3524 -0.2833
12938TIP3    H238760   7.113   3.631   5.475 -0.6572 -0.1172  1.0198
12939TIP3   OH238761   3.824   7.596   6.653 -0.2446 -0.2272 -0.0568
12939TIP3    H138762   3.799   7.650   6.728 -2.8224 -1.1841 -0.1129
12939TIP3    H238763   3.810   7.653   6.577 -2.1687 -0.6345 -0.0613
12940TIP3   OH238764   5.146   0.319   4.761 -0.1716  0.2114 -0.5202
12940TIP3    H138765   5.230   0.356   4.735 -0.1966  0.0452 -0.8390
12940TIP3    H238766   5.137   0.240   4.708  0.6254 -1.1652  1.2755
12941TIP3   OH238767   3.362   5.716   2.161 -0.5668 -0.4994  0.0903
12941TIP3    H138768   3.280   5.743   2.205 -0.5239  0.4081 -0.3709
12941TIP3    H238769   3.343   5.628   2.127 -1.1525 -0.5340  0.4871
12942TIP3   OH238770   0.481   3.876   4.243  0.2280 -0.1105  0.5293
12942TIP3    H138771   0.392   3.841   4.234  0.4405 -0.2432 -1.4497
12942TIP3    H238772   0.471   3.952   4.300 -1.4969  1.0073 -1.1540
12943TIP3   OH238773   3.397   5.917   4.524 -0.5346  0.2758  0.2217
12943TIP3    H138774   3.404   5.886   4.614 -2.1706  0.4183  0.4152
12943TIP3    H238775   3.429   5.843   4.471  0.0398  0.0381  0.8754
12944TIP3   OH238776   5.526   4.755   5.535  0.0628  0.5849 -0.3478
12944TIP3    H138777   5.562   4.762   5.446  0.6711  0.6060 -0.1020
12944TIP3    H238778   5.444   4.803   5.531 -0.4860 -0.3720 -1.2035
12945TIP3   OH238779   3.527   2.215   1.702  0.0538  0.0859 -0.2463
12945TIP3    H138780   3.609   2.177   1.735  1.2747  2.3993 -0.3893
12945TIP3    H238781   3.484   2.250   1.780  0.8560  1.7643 -0.5049
12946TIP3   OH238782   0.648   6.856   6.111  0.3771 -0.2006 -0.0172
12946TIP3    H138783   0.639   6.801   6.032  1.9289  0.2399 -0.5301
12946TIP3    H238784   0.695   6.933   6.081  0.2044  0.3869  1.1805
12947TIP3   OH238785   2.669   1.512   3.227  0.4606 -0.2310  0.3429
12947TIP3    H138786   2.718   1.533   3.306  0.0115 -3.2943  1.5655
12947TIP3    H238787   2.732   1.527   3.156  1.2286  1.5296  1.3278
12948TIP3   OH238788   1.826   7.009   1.577 -0.4069  1.0662 -0.4314
12948TIP3    H138789   1.881   7.087   1.585  0.6300  0.4187 -0.9316
12948TIP3    H238790   1.863   6.947   1.641 -1.2220  0.9911 -0.0298
12949TIP3   OH238791   0.384   7.795   1.103 -0.6830  0.5027  0.0156
12949TIP3    H138792   0.329   7.718   1.086 -0.2620  0.4586 -1.2550
12949TIP3    H238793   0.437   7.770   1.179 -0.8534 -0.3090 -0.1210
12950TIP3   OH238794   4.829   7.227   6.484  0.1100 -0.4281  0.2923
12950TIP3    H138795   4.895   7.164   6.514 -0.3132 -1.4587 -0.8573
12950TIP3    H238796   4.880   7.304   6.458  0.8491 -1.0975 -0.3023
12951TIP3   OH238797   3.524   4.332   4.968 -0.9395 -0.1179 -0.3265
12951TIP3    H138798   3.555   4.386   4.895  0.8717 -1.0131 -0.2655
12951TIP3    H238799   3.515   4.244   4.930  1.1992 -0.8649  0.7400
12952TIP3   OH238800   5.824   4.920   2.695  0.4556 -0.0768  0.1998
12952TIP3    H138801   5.876   4.946   2.771  0.2060  1.0328  0.0045
12952TIP3    H238802   5.799   4.829   2.713 -0.3657  0.4358  1.8637
12953TIP3   OH238803   0.487   6.683   1.367 -0.7375 -0.2504 -0.0977
12953TIP3    H138804   0.518   6.763   1.409  2.3008 -0.8619 -0.8949
12953TIP3    H238805   0.437   6.713   1.291  2.1957  1.0654 -1.6685
12954TIP3   OH238806   4.662   3.485   4.728 -0.3411  0.2617 -0.1423
12954TIP3    H138807   4.577   3.463   4.691  0.0947 -0.6700 -0.6502
12954TIP3    H238808   4.718   3.498   4.651  0.3919 -0.9380  0.1539
12955TIP3   OH238809   4.212   2.220   1.508  0.2079  0.0428 -0.4063
12955TIP3    H138810   4.141   2.188   1.565  1.5373 -1.8703  0.2774
12955TIP3    H238811   4.213   2.314   1.522 -0.3390 -0.2175  1.7899
12956TIP3   OH238812   1.350   0.596   0.196 -0.3893 -0.1107  0.0106
12956TIP3    H138813   1.298   0.590   0.276  0.2079 -0.6603  0.3710
12956TIP3    H238814   1.360   0.506   0.167  0.0652  0.0139 -0.2398
12957TIP3   OH238815   0.358   7.637   6.586  0.6197  0.3256 -0.1326
12957TIP3    H138816   0.440   7.616   6.541  0.3345 -2.2806  0.3738
12957TIP3    H238817   0.376   7.718   6.634  2.8648 -0.1378 -0.1133
12958TIP3   OH238818   1.925   0.219   6.750 -0.1315 -0.0867  0.1216
12958TIP3    H138819   1.985   0.154   6.787 -1.5585 -1.5295  0.0171
12958TIP3    H238820   1.983   0.287   6.713  1.3811 -0.6281  1.3803
12959TIP3   OH238821   6.488   7.539   4.614  0.0949  0.3056 -0.1108
12959TIP3    H138822   6.531   7.510   4.695  0.4133  0.2086 -0.3131
12959TIP3    H238823   6.407   7.580   4.643 -1.1849 -2.1618  0.1309
12960TIP3   OH238824   5.819   6.141   6.528 -0.5082 -0.2177  0.0229
12960TIP3    H138825   5.726   6.142   6.549 -0.3090 -0.4175  1.0123
12960TIP3    H238826   5.825   6.097   6.444 -1.5015  1.9436 -1.2500
12961TIP3   OH238827   0.576   3.477   6.265 -0.4750  0.2381 -0.1491
12961TIP3    H138828   0.538   3.398   6.305 -1.7653  1.3497  0.9329
12961TIP3    H238829   0.631   3.514   6.333 -1.9684  1.6608  0.3432
12962TIP3   OH238830   3.725   5.827   2.030  0.6975 -0.7078 -0.1680
12962TIP3    H138831   3.755   5.912   1.997 -2.7121  0.2729 -1.1226
12962TIP3    H238832   3.728   5.836   2.125  1.1723  0.1372 -0.2510
12963TIP3   OH238833   3.633   4.423   5.237  0.0453  0.3776  0.0801
12963TIP3    H138834   3.578   4.384   5.305  0.3639  0.2322  0.2616
12963TIP3    H238835   3.583   4.414   5.156 -0.1977  0.2510  0.2451
12964TIP3   OH238836   1.728   5.831   3.597 -0.4733  0.0372  0.0693
12964TIP3    H138837   1.769   5.916   3.610 -0.8900 -0.1089  2.8768
12964TIP3    H238838   1.799   5.773   3.570  0.1550  0.8736 -0.0790
12965TIP3   OH238839   2.659   0.873   2.811 -0.5104 -0.2215  0.1151
12965TIP3    H138840   2.704   0.789   2.799 -1.5574 -1.0430  1.6105
12965TIP3    H238841   2.567   0.855   2.790 -0.6108  0.7633 -0.3449
12966TIP3   OH238842   3.666   2.595   0.427 -0.3464 -0.4065 -0.4220
12966TIP3    H138843   3.671   2.546   0.509 -1.1301  0.7962  0.3714
12966TIP3    H238844   3.735   2.661   0.435  1.4791 -2.0111 -1.9735
12967TIP3   OH238845   3.634   3.278   5.665  0.3569 -0.1046  0.4848
12967TIP3    H138846   3.692   3.324   5.727 -0.3453 -0.3841  1.3667
12967TIP3    H238847   3.693   3.250   5.595  1.3859 -0.7109  1.5439
12968TIP3   OH238848   7.281   3.389   5.461 -0.2742 -0.7145  0.1282
12968TIP3    H138849   7.224   3.448   5.412 -1.2133 -3.1073 -1.9070
12968TIP3    H238850   7.245   3.390   5.550 -0.0904  1.8616  0.2386
12969TIP3   OH238851   0.168   1.801   4.435 -0.2362  0.3098  0.3303
12969TIP3    H138852   0.247   1.817   4.384 -0.3491  4.2050  1.0896
12969TIP3    H238853   0.183   1.716   4.476  2.1220 -0.5138 -1.9497
12970TIP3   OH238854   6.445   3.620   1.068 -0.1575  0.2787  0.3510
12970TIP3    H138855   6.514   3.594   1.007 -0.1843  3.8842 -1.4940
12970TIP3    H238856   6.408   3.537   1.099  0.9736 -1.8347 -3.2628
12971TIP3   OH238857   2.252   5.463   3.807 -0.2447 -0.1688 -1.0345
12971TIP3    H138858   2.290   5.478   3.721 -0.9454 -0.8753 -1.4830
12971TIP3    H238859   2.171   5.415   3.790 -0.7044  0.2110 -0.0213
12972TIP3   OH238860   5.314   2.040   3.611  0.9720 -0.0287 -0.6041
12972TIP3    H138861   5.353   2.081   3.688  0.1764 -1.0263  0.3495
12972TIP3    H238862   5.220   2.055   3.620  0.1436 -4.9329  1.6791
12973TIP3   OH238863   3.628   4.961   4.389 -0.2269 -0.8785 -0.3429
12973TIP3    H138864   3.713   4.959   4.433  0.5119  0.8101 -1.5412
12973TIP3    H238865   3.591   4.874   4.402  1.9110 -1.8180 -0.2123
12974TIP3   OH238866   6.901   2.113   0.457  0.0851  0.1898 -0.2269
12974TIP3    H138867   6.853   2.139   0.379 -1.3359 -2.5013 -0.3810
12974TIP3    H238868   6.846   2.142   0.530  0.9942  1.9463 -0.1986
12975TIP3   OH238869   2.362   0.045   3.859  0.7659 -0.1222  0.0565
12975TIP3    H138870   2.411  -0.037   3.848  2.1080  0.5905  0.4428
12975TIP3    H238871   2.276   0.018   3.891  1.1880 -1.3719  0.1892
12976TIP3   OH238872   1.007   3.448   1.576 -0.2521 -0.4541 -0.4794
12976TIP3    H138873   1.061   3.371   1.557 -1.2241 -1.1131 -0.6665
12976TIP3    H238874   0.986   3.484   1.490  0.1758  0.0090 -0.3925
12977TIP3   OH238875   2.086   6.658   0.906  0.1881 -0.4649 -0.7026
12977TIP3    H138876   2.121   6.744   0.929  0.1767 -0.8172  0.7520
12977TIP3    H238877   1.994   6.672   0.888  0.4594  0.0233 -1.7236
12978TIP3   OH238878   4.336   0.329   5.885  0.0151 -0.5344  0.0914
12978TIP3    H138879   4.353   0.419   5.858 -1.6813 -0.1783  0.1311
12978TIP3    H238880   4.323   0.334   5.979 -0.3416 -0.7861  0.0560
12979TIP3   OH238881   4.795   6.458   3.063 -0.0378  0.4664  0.3064
12979TIP3    H138882   4.890   6.468   3.055 -0.0788 -0.0478 -0.8769
12979TIP3    H238883   4.784   6.394   3.134  0.5662 -0.9701 -0.8554
12980TIP3   OH238884   6.913   3.533   2.875  0.3577  0.0904 -0.1130
12980TIP3    H138885   6.920   3.486   2.792 -0.2718 -2.5009  1.2054
12980TIP3    H238886   6.887   3.622   2.850 -1.7537 -1.1009 -2.5982
12981TIP3   OH238887   2.457   5.845   0.987  0.2335  0.6670  0.3781
12981TIP3    H138888   2.413   5.769   0.950 -1.8644  1.0486  1.9052
12981TIP3    H238889   2.504   5.811   1.063  2.3084  0.3461 -0.9708
12982TIP3   OH238890   0.186   0.606   0.170  0.3745 -0.0839  0.3554
12982TIP3    H138891   0.271   0.563   0.168  1.6109  2.2402 -1.1120
12982TIP3    H238892   0.199   0.688   0.122 -2.7497  0.2569 -0.1311
12983TIP3   OH238893   2.986   4.622   2.405 -0.3892  0.7507 -0.0426
12983TIP3    H138894   3.053   4.658   2.348  0.3640 -0.2928  0.1663
12983TIP3    H238895   2.928   4.572   2.346 -1.4894  2.3059 -0.3474
12984TIP3   OH238896   5.602   6.327   6.056  0.1257  0.2236 -0.0485
12984TIP3    H138897   5.518   6.345   6.014 -0.0599  1.5153  0.8103
12984TIP3    H238898   5.582   6.324   6.150  0.8572 -0.5747  0.0927
12985TIP3   OH238899   7.721   4.177   5.777  0.2185 -0.4042 -0.2735
12985TIP3    H138900   7.803   4.225   5.784  0.8590 -1.6399  1.0986
12985TIP3    H238901   7.708   4.137   5.863 -0.0396 -3.0400 -1.4188
12986TIP3   OH238902   4.626   5.330   4.657 -0.0684 -0.0155 -0.8985
12986TIP3    H138903   4.546   5.280   4.642 -0.7709  1.3679 -2.0422
12986TIP3    H238904   4.596   5.420   4.671  1.2074  0.2785  0.1753
12987TIP3   OH238905   2.474   3.390   6.495 -0.3401 -0.1206  0.2588
12987TIP3    H138906   2.423   3.419   6.571 -0.3117  1.0814 -0.1690
12987TIP3    H238907   2.549   3.450   6.492 -0.5525  0.0961 -0.9516
12988TIP3   OH238908   6.370   0.468   0.855 -0.9303  0.2368 -0.5058
12988TIP3    H138909   6.281   0.437   0.870 -1.5241  1.9438 -0.3210
12988TIP3    H238910   6.381   0.466   0.760 -0.1910 -2.4238 -0.4612
12989TIP3   OH238911   0.219   4.398   4.277  0.0882 -0.2783  0.6473
12989TIP3    H138912   0.188   4.423   4.190 -1.7246 -0.7580  1.1176
12989TIP3    H238913   0.312   4.419   4.276 -0.1999  1.1421 -0.8911
12990TIP3   OH238914   4.596   5.778   5.816  0.4500  0.1553  0.6194
12990TIP3    H138915   4.563   5.715   5.880 -0.0373  0.2072  0.4207
12990TIP3    H238916   4.552   5.755   5.735 -0.9500  1.7135  0.8689
12991TIP3   OH238917   2.209   5.599   2.550  0.0379 -0.5061  0.2031
12991TIP3    H138918   2.115   5.591   2.537 -0.0536  1.6456 -0.9474
12991TIP3    H238919   2.220   5.625   2.641 -0.5676  0.2975  0.0478
12992TIP3   OH238920   7.241   5.270   5.457  0.2629 -0.0258 -0.1052
12992TIP3    H138921   7.300   5.195   5.450  0.3973  0.2376 -2.2314
12992TIP3    H238922   7.232   5.302   5.368 -2.3829  0.5256  0.2913
12993TIP3   OH238923   6.608   3.383   2.725  0.7810  0.0867 -0.1038
12993TIP3    H138924   6.611   3.454   2.789  1.1291 -0.6861  0.7574
12993TIP3    H238925   6.697   3.380   2.688  0.9182 -0.2260  0.2397
12994TIP3   OH238926   7.199   5.955   3.693  0.6939 -0.1480 -0.2388
12994TIP3    H138927   7.191   5.986   3.783  2.1695 -0.2944 -0.0228
12994TIP3    H238928   7.225   5.864   3.701  1.6034  0.0444 -0.7844
12995TIP3   OH238929   0.938   2.670   4.622  0.0574 -0.3386 -0.6158
12995TIP3    H138930   0.930   2.654   4.716  0.3362  0.2727 -0.4809
12995TIP3    H238931   0.922   2.585   4.581  1.1290 -0.8763  0.0439
12996TIP3   OH238932   4.116   4.291   2.451 -0.3395 -0.2981 -0.0467
12996TIP3    H138933   4.176   4.340   2.506  0.3365 -0.1359 -0.9113
12996TIP3    H238934   4.158   4.288   2.365 -1.2114 -0.8322 -0.4758
12997TIP3   OH238935   6.979   0.115   2.471 -0.3065  0.0307 -0.0591
12997TIP3    H138936   6.904   0.172   2.492 -1.4559 -1.4537  0.0240
12997TIP3    H238937   7.007   0.082   2.556 -0.1697 -0.1592 -0.1792
12998TIP3   OH238938   1.887   1.506   4.308  0.3283 -0.5084  0.0737
12998TIP3    H138939   1.932   1.588   4.329  1.0052 -0.6890 -0.6012
12998TIP3    H238940   1.918   1.444   4.374 -0.5543 -0.1092  0.8760
12999TIP3   OH238941   4.847   5.543   3.313  0.0468 -0.2163  0.3706
12999TIP3    H138942   4.884   5.564   3.398  1.4262 -1.1252  0.0322
12999TIP3    H238943   4.775   5.482   3.332 -2.0537  2.3150  1.1046
13000TIP3   OH238944   3.496   0.032   6.366 -0.4234 -0.3967  0.2328
13000TIP3    H138945   3.449   0.048   6.284  0.9661  0.0045 -0.5264
13000TIP3    H238946   3.574   0.088   6.359 -1.5319  1.7425  3.0042
13001TIP3   OH238947   5.963   7.599   2.814 -0.4706  0.1459  0.3795
13001TIP3    H138948   5.883   7.573   2.768  0.4002 -1.3213 -0.3492
13001TIP3    H238949   5.947   7.574   2.905 -0.6700 -0.5853  0.1523
13002TIP3   OH238950   7.923   5.059   2.612 -0.1531 -0.2560 -0.2565
13002TIP3    H138951   7.938   4.989   2.676  1.4365  0.8402  0.6488
13002TIP3    H238952   7.901   5.135   2.666  0.4034  0.4913 -1.0755
13003TIP3   OH238953   3.791   5.526   3.165  0.2048  0.3293  0.1242
13003TIP3    H138954   3.844   5.521   3.245  2.6396  1.3454 -1.2907
13003TIP3    H238955   3.825   5.604   3.119  0.1178 -1.1463 -2.6762
13004TIP3   OH238956   0.162   7.752   0.870 -0.2962  0.3605  0.1959
13004TIP3    H138957   0.163   7.659   0.889 -0.1458  0.0924 -1.0034
13004TIP3    H238958   0.254   7.775   0.857 -0.2545  0.8691  1.2942
13005TIP3   OH238959   0.041   3.574   1.165  0.0113 -0.5309 -0.0430
13005TIP3    H138960   0.025   3.493   1.117  1.4073 -0.3363 -0.8787
13005TIP3    H238961   0.105   3.622   1.112  0.1793  0.5445  1.0742
13006TIP3   OH238962   3.006   3.000   3.728  0.1252  0.4719  0.3704
13006TIP3    H138963   3.095   2.978   3.699 -0.6311 -1.7332 -0.5255
13006TIP3    H238964   2.954   2.997   3.648 -0.8834  1.1001  0.9826
13007TIP3   OH238965   2.470   5.797   5.100  0.4831  0.0558  0.3311
13007TIP3    H138966   2.542   5.794   5.162 -1.4464  0.1386  2.7049
13007TIP3    H238967   2.425   5.713   5.111  0.2361 -0.0523 -1.2077
13008TIP3   OH238968   6.610   2.036   0.920  0.5459 -0.4977 -0.1668
13008TIP3    H138969   6.606   2.100   0.991 -0.6801 -1.2382  0.4595
13008TIP3    H238970   6.519   2.019   0.897  0.7819 -2.4868  0.1444
13009TIP3   OH238971   3.693   6.646   6.158  0.7978 -0.1102  0.5428
13009TIP3    H138972   3.783   6.650   6.127  0.7083  1.1268  0.4176
13009TIP3    H238973   3.646   6.710   6.105  0.1766  0.4201  1.7045
13010TIP3   OH238974   8.283   3.710   4.176 -0.6764 -0.2951  0.3400
13010TIP3    H138975   8.354   3.665   4.131 -0.9995  0.6051 -1.1441
13010TIP3    H238976   8.204   3.686   4.127 -0.7820  2.3117 -0.9820
13011TIP3   OH238977   5.190   4.465   4.199 -0.3752  0.3621 -0.3022
13011TIP3    H138978   5.131   4.389   4.197  0.1862 -0.0636 -1.3166
13011TIP3    H238979   5.133   4.539   4.179 -1.0146  0.2935  1.1151
13012TIP3   OH238980   6.641   2.445   3.870 -0.3165  0.1622  0.2841
13012TIP3    H138981   6.628   2.382   3.799  2.2092 -1.3655  1.0457
13012TIP3    H238982   6.608   2.399   3.948  1.1031 -0.0914  0.7673
13013TIP3   OH238983   5.011   1.218   0.201 -0.4906  0.0261 -0.4236
13013TIP3    H138984   5.062   1.187   0.276  0.1683 -0.0623 -0.8996
13013TIP3    H238985   5.034   1.311   0.192  2.6257 -0.8016 -2.9457
13014TIP3   OH238986   3.173   4.920   4.463  0.2480 -0.8031 -0.1832
13014TIP3    H138987   3.100   4.965   4.507  0.5397 -0.7131  0.2163
13014TIP3    H238988   3.158   4.936   4.370 -0.8250 -1.6580 -0.1867
13015TIP3   OH238989   3.773   4.803   4.939  0.0922 -0.2963  0.2762
13015TIP3    H138990   3.796   4.724   4.891 -0.0326 -0.8173  1.0688
13015TIP3    H238991   3.733   4.772   5.020  0.3989  0.5688  0.7767
13016TIP3   OH238992   5.779   7.469   3.652  0.1083  0.4091  0.0793
13016TIP3    H138993   5.727   7.400   3.693 -1.8849  2.5526  1.4179
13016TIP3    H238994   5.842   7.423   3.598 -1.4320 -2.4288  0.5214
13017TIP3   OH238995   2.545   1.950   3.088  0.8785 -0.5326  0.1805
13017TIP3    H138996   2.554   2.027   3.144  1.8371 -0.4878 -0.0066
13017TIP3    H238997   2.575   1.877   3.143  1.4488 -0.5414 -0.1288
13018TIP3   OH238998   5.002   5.621   3.523 -0.1546  0.2340  0.0060
13018TIP3    H138999   5.052   5.658   3.596 -1.4147  0.7391  0.6479
13018TIP3    H239000   4.951   5.551   3.561 -0.7140  0.3999 -0.4255
13019TIP3   OH239001   6.981   4.256   1.534  0.3545  0.2462  0.0861
13019TIP3    H139002   6.964   4.258   1.628 -0.5902  1.2892 -0.0906
13019TIP3    H239003   7.042   4.328   1.519  0.8045 -0.1620 -0.0461
13020TIP3   OH239004   7.215   4.784   1.911  0.1379  0.5126  0.2614
13020TIP3    H139005   7.208   4.791   2.007  0.3037  0.2904  0.2894
13020TIP3    H239006   7.304   4.814   1.891  0.3738 -0.1777  0.2515
13021TIP3   OH239007   2.984   1.972   5.055 -0.3373  0.0376  0.3090
13021TIP3    H139008   2.993   2.067   5.063 -1.7680  0.2643 -0.4552
13021TIP3    H239009   2.980   1.957   4.961 -0.6818 -0.7211  0.4430
13022TIP3   OH239010   6.152   5.951   2.039 -0.0226  0.2938 -0.3746
13022TIP3    H139011   6.196   5.868   2.024  1.3506  1.1729 -1.4505
13022TIP3    H239012   6.221   6.009   2.073 -1.2396  0.6617  1.6747
13023TIP3   OH239013   1.383   0.452   3.563 -0.1062  0.0709 -0.4990
13023TIP3    H139014   1.312   0.486   3.618 -1.2875  0.4608 -2.1828
13023TIP3    H239015   1.429   0.389   3.619 -0.7769  0.9851  1.1571
13024TIP3   OH239016   1.764   2.732   0.777 -0.3160  0.1469 -0.3582
13024TIP3    H139017   1.694   2.793   0.754  0.6869  1.5484  0.1392
13024TIP3    H239018   1.720   2.648   0.790 -2.0310  1.1433  0.6914
13025TIP3   OH239019   3.949   0.844   3.540 -0.1866 -0.6923  0.0193
13025TIP3    H139020   3.869   0.889   3.567 -0.6349 -0.0136 -2.1989
13025TIP3    H239021   3.920   0.783   3.472  1.4592  2.2850 -3.7552
13026TIP3   OH239022   5.110   0.096   2.836 -0.4490  0.3880  0.3673
13026TIP3    H139023   5.202   0.120   2.849 -0.4229 -0.4327  2.1384
13026TIP3    H239024   5.078   0.156   2.770  1.4733  0.4236 -0.6022
13027TIP3   OH239025   4.105   2.773   5.828  0.9364 -0.2357  0.0191
13027TIP3    H139026   4.183   2.719   5.844  2.1604  1.5191  0.2814
13027TIP3    H239027   4.062   2.780   5.914  1.9355  0.8817  0.4558
13028TIP3   OH239028   7.533   7.107   1.375  0.0657  0.3357  0.9950
13028TIP3    H139029   7.557   7.175   1.312  0.8399  0.4725  1.4259
13028TIP3    H239030   7.438   7.113   1.383 -0.0788  0.1350 -0.3567
13029TIP3   OH239031   7.038   1.673   0.104 -0.0708 -0.5582 -0.3672
13029TIP3    H139032   7.102   1.720   0.157  0.4989  0.5270 -1.9207
13029TIP3    H239033   7.089   1.604   0.060 -0.9418 -2.9314  2.0861
13030TIP3   OH239034   3.973   2.115   1.660  0.4525  0.3196 -0.3622
13030TIP3    H139035   3.918   2.104   1.738  0.2231  0.9378 -0.4330
13030TIP3    H239036   3.912   2.114   1.587  0.6436 -0.0147 -0.5160
13031TIP3   OH239037   6.317   7.389   3.508 -0.2477  0.3198 -0.4761
13031TIP3    H139038   6.272   7.311   3.477  0.8587 -0.4582 -0.1934
13031TIP3    H239039   6.393   7.397   3.450 -0.3382  1.1694 -0.4843
13032TIP3   OH239040   6.220   7.424   0.311 -0.3057 -0.0043  0.3077
13032TIP3    H139041   6.183   7.413   0.223  0.8324 -0.3193 -0.1433
13032TIP3    H239042   6.247   7.516   0.315 -1.3001  0.2935  0.7271
13033TIP3   OH239043   1.195   2.072   6.356  0.1257  0.2265  0.0334
13033TIP3    H139044   1.134   2.143   6.376  1.8840  1.7876  0.1632
13033TIP3    H239045   1.243   2.058   6.438  1.3918  0.5374 -0.6250
13034TIP3   OH239046   0.095   4.355   5.084 -0.7446 -0.3963 -0.1626
13034TIP3    H139047   0.056   4.409   5.153 -0.3020 -1.4884  0.9802
13034TIP3    H239048   0.037   4.367   5.009 -1.0361  1.1083  0.2653
13035TIP3   OH239049   6.424   1.036   0.128 -0.5342  0.8064 -0.0987
13035TIP3    H139050   6.449   1.089   0.205 -1.4966  1.0942  0.0225
13035TIP3    H239051   6.371   0.965   0.164  2.3701 -1.5132  0.0157
13036TIP3   OH239052   2.457   2.344   1.451 -0.0439  0.3726 -0.0819
13036TIP3    H139053   2.376   2.393   1.459  0.0570  0.3163  1.8545
13036TIP3    H239054   2.433   2.254   1.473  0.5344  0.3816  0.6496
13037TIP3   OH239055   7.315   3.132   5.377 -0.1669 -0.2259 -0.0695
13037TIP3    H139056   7.236   3.108   5.329 -0.6963  0.4236  0.4438
13037TIP3    H239057   7.306   3.226   5.393  0.0474 -0.3969  1.1666
13038TIP3   OH239058   1.280   0.448   1.674 -0.2490  0.0482  0.1285
13038TIP3    H139059   1.345   0.448   1.744 -0.3089  2.6883  0.3134
13038TIP3    H239060   1.330   0.455   1.593 -0.2295 -1.3934  0.0008
13039TIP3   OH239061   7.248   6.389   4.336  0.2138 -0.4483 -0.2200
13039TIP3    H139062   7.186   6.375   4.265  0.5951  0.0192 -0.6543
13039TIP3    H239063   7.324   6.429   4.294  1.2830 -2.0704  0.1023
13040TIP3   OH239064   6.381   5.966   4.532 -0.1948  0.1595  0.3679
13040TIP3    H139065   6.453   6.001   4.585 -1.4066  2.3997  0.6554
13040TIP3    H239066   6.385   6.015   4.450 -0.8836 -0.2862  0.0575
13041TIP3   OH239067   7.831   3.823   3.186  0.5923  0.5643 -0.1935
13041TIP3    H139068   7.738   3.814   3.168  0.4870 -0.3622  0.7365
13041TIP3    H239069   7.840   3.911   3.224 -0.0347  0.3190  0.5291
13042TIP3   OH239070   5.174   3.411   1.811 -0.2671 -0.6134 -0.3052
13042TIP3    H139071   5.178   3.385   1.903 -0.1061 -0.6933 -0.3356
13042TIP3    H239072   5.178   3.329   1.763 -1.4722 -0.6627 -0.3548
13043TIP3   OH239073   4.766   5.302   5.630  0.7792  0.2801 -0.6046
13043TIP3    H139074   4.843   5.358   5.623  0.9379 -0.0229 -1.3183
13043TIP3    H239075   4.790   5.221   5.584 -0.0926  0.3304 -1.1756
13044TIP3   OH239076   5.001   6.265   2.908 -0.0402  0.3817 -0.5870
13044TIP3    H139077   4.989   6.180   2.950 -1.7837  0.9681  0.2129
13044TIP3    H239078   5.071   6.307   2.958  0.4025 -0.3305 -0.5952
13045TIP3   OH239079   5.525   3.323   3.892  0.1765 -0.2273  0.7244
13045TIP3    H139080   5.599   3.360   3.940 -0.4347  0.6643  0.9910
13045TIP3    H239081   5.503   3.389   3.826 -0.5116 -0.3956  0.7778
13046TIP3   OH239082   3.342   6.929   5.754 -0.7609  0.1285 -0.0832
13046TIP3    H139083   3.259   6.933   5.706 -0.3137  0.0889 -0.8794
13046TIP3    H239084   3.323   6.871   5.828 -1.5868  0.5475  0.0518
13047TIP3   OH239085   1.205   7.000   2.152 -0.0380 -0.9270  0.5880
13047TIP3    H139086   1.229   6.977   2.062 -1.7513  1.3020 -0.5519
13047TIP3    H239087   1.152   6.926   2.183 -1.2464 -0.8183 -1.0822
13048TIP3   OH239088   1.666   2.586   6.306  0.4807 -0.5358  0.1716
13048TIP3    H139089   1.633   2.641   6.235 -0.1224 -1.3320 -0.1813
13048TIP3    H239090   1.651   2.638   6.385  0.6453  0.1282 -0.2250
13049TIP3   OH239091   1.906   1.268   3.603 -0.0054  0.3326 -0.5179
13049TIP3    H139092   1.980   1.214   3.575  0.0801 -0.7683  1.6555
13049TIP3    H239093   1.915   1.349   3.553  3.3591  0.7218  0.5371
13050TIP3   OH239094   3.933   3.266   0.727  0.0709  0.3066 -0.7145
13050TIP3    H139095   3.858   3.318   0.756  0.2983 -0.1692  0.8231
13050TIP3    H239096   3.986   3.326   0.676  0.3989  1.6654  1.1263
13051TIP3   OH239097   7.023   7.639   5.223 -0.0546 -0.3281 -0.1555
13051TIP3    H139098   7.060   7.574   5.165  2.1349 -0.1136  0.8915
13051TIP3    H239099   6.981   7.702   5.165 -1.8355 -2.3650 -1.2030
13052TIP3   OH239100   5.874   0.933   2.826 -0.5506  0.1755  0.2847
13052TIP3    H139101   5.909   0.991   2.894 -0.4608 -1.0996  1.3693
13052TIP3    H239102   5.904   0.972   2.744 -0.9216  1.9289  0.9257
13053TIP3   OH239103   1.830   7.210   6.613 -0.0787 -0.6339 -0.2267
13053TIP3    H139104   1.860   7.201   6.522  3.6147  1.0323  0.6126
13053TIP3    H239105   1.891   7.158   6.664 -0.9161 -0.0412  1.4611
13054TIP3   OH239106   2.794   7.317   0.151  0.8625 -0.2117  0.3949
13054TIP3    H139107   2.722   7.266   0.116 -0.3703  0.9768  1.0949
13054TIP3    H239108   2.808   7.387   0.087  0.4639  0.3495  0.9075
13055TIP3   OH239109   2.455   3.544   0.384  0.3516  0.2880 -0.2029
13055TIP3    H139110   2.458   3.616   0.321  0.6413  1.3215  0.9537
13055TIP3    H239111   2.506   3.576   0.459 -1.2539 -0.2821  1.1883
13056TIP3   OH239112   1.280   5.504   5.815  0.0674  0.5123  0.9782
13056TIP3    H139113   1.238   5.587   5.794 -1.1173 -0.3165 -0.1155
13056TIP3    H239114   1.247   5.443   5.748  2.8926 -0.2510  0.1548
13057TIP3   OH239115   7.124   7.677   1.762  0.2218  0.1054 -0.8556
13057TIP3    H139116   7.138   7.736   1.835  1.9843 -0.0883 -1.0001
13057TIP3    H239117   7.048   7.713   1.716 -0.1248  0.9360  0.3248
13058TIP3   OH239118   6.322   0.563   2.718 -0.3715 -0.0907  0.0838
13058TIP3    H139119   6.370   0.548   2.799 -0.2585 -0.7100 -0.0888
13058TIP3    H239120   6.327   0.479   2.672 -1.8092 -0.2515  0.1751
13059TIP3   OH239121   1.347   2.690   1.778 -0.0539  0.2581  0.1247
13059TIP3    H139122   1.440   2.679   1.794 -0.2024 -1.4880 -0.0266
13059TIP3    H239123   1.339   2.688   1.682 -0.0475  2.5771  0.0222
13060TIP3   OH239124   4.835   0.086   4.727 -0.2169 -0.4570 -0.1241
13060TIP3    H139125   4.843   0.010   4.669  1.9407 -0.6833  0.4019
13060TIP3    H239126   4.865   0.160   4.674 -1.0691 -0.1567 -0.2092
13061TIP3   OH239127   4.406   1.724   3.516  0.2941  0.3070  0.3716
13061TIP3    H139128   4.396   1.783   3.591 -0.5322  0.4276  0.1811
13061TIP3    H239129   4.428   1.782   3.443  0.0636  0.3160  0.3076
13062TIP3   OH239130   5.041   2.071   2.375 -0.4266 -0.0772  0.0672
13062TIP3    H139131   5.025   2.014   2.449 -0.2598 -1.7012 -1.1021
13062TIP3    H239132   5.026   2.016   2.298  0.8225  1.1387 -1.1040
13063TIP3   OH239133   6.624   5.800   0.730 -0.0674  0.1251 -0.7399
13063TIP3    H139134   6.664   5.832   0.649 -0.6845  1.2687 -0.6156
13063TIP3    H239135   6.649   5.864   0.796 -0.6547 -0.0874 -0.3032
13064TIP3   OH239136   6.329   6.172   1.130 -0.0013 -0.5648  0.2842
13064TIP3    H139137   6.394   6.105   1.106  1.8769  0.8002  1.2567
13064TIP3    H239138   6.302   6.148   1.219 -1.0894 -1.2883 -0.2226
13065TIP3   OH239139   4.232   3.411   0.287  0.2758 -0.0995  0.0100
13065TIP3    H139140   4.264   3.322   0.303  0.3511 -0.0046  0.4058
13065TIP3    H239141   4.299   3.468   0.325  0.4222  0.1389 -0.5902
13066TIP3   OH239142   7.155   2.170   4.053  0.4088  0.6016  0.3360
13066TIP3    H139143   7.076   2.223   4.050  1.3373  1.9780 -1.0203
13066TIP3    H239144   7.131   2.087   4.011 -0.5305  0.6434  0.7636
13067TIP3   OH239145   4.476   5.177   0.980  0.0073 -0.2688  0.3278
13067TIP3    H139146   4.473   5.092   1.023  1.4962 -0.2410  0.5594
13067TIP3    H239147   4.490   5.239   1.051 -0.2522  0.0806  0.0748
13068TIP3   OH239148   1.023   6.632   5.640  0.5056 -0.0078  0.0359
13068TIP3    H139149   0.990   6.687   5.569  2.8942 -0.5206 -1.5962
13068TIP3    H239150   1.069   6.561   5.596  1.3727 -0.8187  2.1114
13069TIP3   OH239151   7.928   6.045   0.388 -0.2195  0.1220  0.1694
13069TIP3    H139152   7.848   6.016   0.344 -0.4865  1.1212 -0.0341
13069TIP3    H239153   7.935   5.988   0.464  0.3111 -1.7157 -1.1836
13070TIP3   OH239154   5.664   5.604   5.257 -0.7622  0.0329 -0.2077
13070TIP3    H139155   5.735   5.599   5.193 -0.6258  0.8068 -0.1285
13070TIP3    H239156   5.684   5.535   5.321 -0.6512 -0.4364 -0.7375
13071TIP3   OH239157   0.825   3.475   1.137 -0.6515  0.2254 -0.5068
13071TIP3    H139158   0.890   3.447   1.072 -0.6932  3.4662 -2.1531
13071TIP3    H239159   0.741   3.457   1.095 -0.8586 -1.4553  0.4992
13072TIP3   OH239160   6.864   1.786   1.501  0.3476 -0.7817 -0.2859
13072TIP3    H139161   6.880   1.817   1.590  0.6630 -2.0549  0.1234
13072TIP3    H239162   6.909   1.701   1.496  0.2166 -0.8050 -1.6135
13073TIP3   OH239163   5.318   7.310   0.286  0.5421  0.0561  0.2626
13073TIP3    H139164   5.267   7.332   0.208 -0.5865  0.4754  1.0779
13073TIP3    H239165   5.269   7.238   0.327  1.1807 -0.2354  0.5194
13074TIP3   OH239166   3.950   5.775   1.794 -0.3154  0.5449  0.2993
13074TIP3    H139167   3.883   5.720   1.754  0.4292  0.0993 -0.3583
13074TIP3    H239168   3.993   5.719   1.858 -0.1777  0.6506  0.3007
13075TIP3   OH239169   3.969   7.036   6.117  0.0683 -0.9375  0.1355
13075TIP3    H139170   3.922   6.967   6.070  0.4062 -0.8189 -0.3851
13075TIP3    H239171   3.906   7.069   6.181 -1.1030  0.2387 -1.5218
13076TIP3   OH239172   0.568   6.043   2.149  0.0690 -0.4729  0.2675
13076TIP3    H139173   0.605   6.126   2.178 -0.7710 -0.1679  0.5111
13076TIP3    H239174   0.502   6.068   2.084  0.0460 -0.9708  0.0960
13077TIP3   OH239175   6.417   2.280   4.179  0.0260 -0.3999  0.2235
13077TIP3    H139176   6.326   2.284   4.149 -0.2584 -1.5756  0.8619
13077TIP3    H239177   6.413   2.232   4.261  1.3427 -1.4528 -0.2930
13078TIP3   OH239178   0.382   6.988   2.253  0.3476 -0.0372 -0.3241
13078TIP3    H139179   0.459   6.950   2.209  0.8320  0.9723 -0.3697
13078TIP3    H239180   0.413   7.072   2.287 -0.4730 -0.0607  0.5285
13079TIP3   OH239181   3.610   4.009   3.540  0.2047  0.1249  0.2168
13079TIP3    H139182   3.674   3.970   3.599  0.3526 -0.3724 -0.2665
13079TIP3    H239183   3.659   4.028   3.460  0.1792  1.4643  0.4844
13080TIP3   OH239184   7.299   0.951   1.208 -0.2872 -0.6331 -0.1258
13080TIP3    H139185   7.367   1.017   1.195 -0.0219 -0.7891  0.4319
13080TIP3    H239186   7.324   0.906   1.289 -1.4839 -0.1519  0.5364
13081TIP3   OH239187   4.691   2.417   6.672  0.3913 -0.2513 -0.1591
13081TIP3    H139188   4.721   2.499   6.632 -0.6157  0.4105  0.3936
13081TIP3    H239189   4.727   2.419   6.761 -0.5952  0.1869  0.2537
13082TIP3   OH239190   5.180   0.063   5.733 -0.3254  0.2902 -0.0730
13082TIP3    H139191   5.147   0.080   5.645 -0.3705  1.2671  0.1262
13082TIP3    H239192   5.164  -0.031   5.746 -1.9767  0.4876 -0.4236
13083TIP3   OH239193   4.095   6.135   1.364 -0.1835 -0.3225  0.3988
13083TIP3    H139194   4.045   6.129   1.445 -0.0356 -0.6012  0.4739
13083TIP3    H239195   4.178   6.174   1.390  0.1059 -0.9862  0.5004
13084TIP3   OH239196   2.867   5.178   0.200 -0.5983  0.2575  0.3709
13084TIP3    H139197   2.794   5.240   0.205 -1.4877 -0.7454  0.1057
13084TIP3    H239198   2.826   5.094   0.185  0.7327 -0.0310 -2.0440
13085TIP3   OH239199   3.294   5.027   4.692 -0.6769  0.7152 -0.9435
13085TIP3    H139200   3.279   4.967   4.620 -0.5258 -0.8585  0.2816
13085TIP3    H239201   3.277   5.114   4.655 -1.2519 -0.0880 -2.6651
13086TIP3   OH239202   5.981   0.002   0.057 -0.4583 -0.7517 -0.0387
13086TIP3    H139203   5.893  -0.023   0.086 -0.5257  0.9416  1.3837
13086TIP3    H239204   5.972   0.093   0.030  0.9293 -0.4335  0.4865
13087TIP3   OH239205   5.425   0.411   2.132 -0.0482 -0.0397  0.3957
13087TIP3    H139206   5.487   0.455   2.190  0.4077  0.3374 -0.3700
13087TIP3    H239207   5.419   0.468   2.055  0.6820 -1.3811 -0.6901
13088TIP3   OH239208   4.912   1.717   2.779  0.5910  0.9752  0.6272
13088TIP3    H139209   4.956   1.634   2.796 -0.4210 -0.2792 -2.1897
13088TIP3    H239210   4.877   1.744   2.864  1.1336 -1.3868  1.6691
13089TIP3   OH239211   6.490   0.073   4.107  0.2799 -0.0389 -0.0355
13089TIP3    H139212   6.520   0.154   4.147 -2.2386  1.2145 -0.5280
13089TIP3    H239213   6.452   0.023   4.179 -2.4083  1.3340 -0.3975
13090TIP3   OH239214   6.007   0.809   2.351  0.2712 -0.1376  0.0602
13090TIP3    H139215   6.036   0.880   2.295  1.4520 -0.6472  0.0102
13090TIP3    H239216   6.041   0.830   2.437  0.9503 -0.8078 -0.0281
13091TIP3   OH239217   1.693   5.480   6.711 -0.0498  0.0483 -0.3198
13091TIP3    H139218   1.706   5.570   6.681  0.4304  0.0369 -0.1665
13091TIP3    H239219   1.774   5.459   6.758 -0.3831 -0.2782  0.1124
13092TIP3   OH239220   5.613   2.882   2.889 -0.2373 -0.7623 -0.2110
13092TIP3    H139221   5.548   2.903   2.956  0.5365  1.1014  0.0340
13092TIP3    H239222   5.656   2.965   2.871  1.8960 -1.8668 -0.5571
13093TIP3   OH239223   7.904   3.130   0.563  0.0511  0.4079  0.5111
13093TIP3    H139224   7.904   3.128   0.659 -2.9747  0.9780  0.6381
13093TIP3    H239225   7.917   3.222   0.541  0.9646  0.2461  0.3298
13094TIP3   OH239226   7.884   5.776   5.503 -0.5286  0.0378  0.2130
13094TIP3    H139227   7.895   5.817   5.589 -0.3952 -0.8135  0.6128
13094TIP3    H239228   7.948   5.819   5.447 -0.4489  0.4329  0.6033
13095TIP3   OH239229   1.848   3.086   6.556  0.6271  0.6934  0.2230
13095TIP3    H139230   1.936   3.076   6.518  0.8344 -0.5929  0.9791
13095TIP3    H239231   1.789   3.055   6.488  0.9976 -1.6815  0.8902
13096TIP3   OH239232   0.871   0.851   5.237 -0.8052  0.0862 -0.5615
13096TIP3    H139233   0.851   0.854   5.330  0.4297  1.2594 -0.2958
13096TIP3    H239234   0.810   0.914   5.197 -0.1981  0.8733 -0.2804
13097TIP3   OH239235   1.317   6.577   3.634  0.2135 -0.0583 -0.7969
13097TIP3    H139236   1.405   6.611   3.623 -0.4191  1.6532 -0.7998
13097TIP3    H239237   1.280   6.577   3.545 -0.3426  0.8327 -0.5728
13098TIP3   OH239238   3.427   1.710   0.717 -0.0192 -0.4544  0.4380
13098TIP3    H139239   3.522   1.715   0.712 -0.0953 -0.0247 -1.2120
13098TIP3    H239240   3.399   1.802   0.722 -0.3813 -0.5080 -0.4276
13099TIP3   OH239241   5.861   5.730   2.057  0.0451 -0.8277 -0.0547
13099TIP3    H139242   5.818   5.789   1.996  0.6815 -0.0494  0.2232
13099TIP3    H239243   5.867   5.646   2.010 -2.3588 -1.1823  0.1650
13100TIP3   OH239244   4.130   4.038   3.155 -0.2614  0.1209  0.6450
13100TIP3    H139245   4.199   4.099   3.126 -1.0319  0.3882 -0.6888
13100TIP3    H239246   4.053   4.064   3.105 -1.1423 -0.6640  1.5720
13101TIP3   OH239247   1.858   6.108   3.189  0.2701  0.3905  0.1779
13101TIP3    H139248   1.847   6.191   3.235  1.5902  0.7525 -0.1364
13101TIP3    H239249   1.787   6.107   3.125  0.4546  1.4500 -0.0608
13102TIP3   OH239250   2.080   7.305   4.179 -0.2387 -0.0061 -0.4350
13102TIP3    H139251   2.089   7.216   4.213 -0.7438  0.8490  2.1716
13102TIP3    H239252   1.991   7.309   4.145 -0.6612 -0.1617  0.6138
13103TIP3   OH239253   2.750   0.423   4.922 -0.2896 -0.2136 -0.0672
13103TIP3    H139254   2.666   0.403   4.883 -0.3957  2.2751 -1.3019
13103TIP3    H239255   2.812   0.364   4.879 -1.1889 -1.1159 -0.1358
13104TIP3   OH239256   3.514   6.127   0.766  0.0573  0.3175 -0.2429
13104TIP3    H139257   3.526   6.221   0.774  0.2240  0.1923  1.3371
13104TIP3    H239258   3.421   6.113   0.785  0.1984  0.0961  0.2956
13105TIP3   OH239259   0.864   2.415   1.883 -0.0903 -0.0363  0.2044
13105TIP3    H139260   0.943   2.361   1.875  0.9372  1.6404 -2.1539
13105TIP3    H239261   0.891   2.487   1.941 -0.5449 -0.4776  0.9835
13106TIP3   OH239262   0.940   6.532   2.670  0.0396  0.3902  0.0140
13106TIP3    H139263   1.026   6.565   2.646  0.2656 -0.5224 -0.4719
13106TIP3    H239264   0.951   6.437   2.676 -0.0433  0.4521  3.5147
13107TIP3   OH239265   4.194   1.714   4.968 -0.6362 -0.2345 -0.6441
13107TIP3    H139266   4.256   1.758   4.910  0.0148 -1.5343 -0.9596
13107TIP3    H239267   4.162   1.640   4.917 -2.3915  0.3429 -0.4497
13108TIP3   OH239268   6.290   7.508   4.033 -0.9585  0.1573 -0.3876
13108TIP3    H139269   6.379   7.482   4.012 -0.0187  2.8873 -0.1398
13108TIP3    H239270   6.240   7.487   3.954 -0.5226 -2.8222  0.0136
13109TIP3   OH239271   2.441   0.360   2.949  0.0924 -0.1158  0.0601
13109TIP3    H139272   2.451   0.392   3.039 -1.2392  0.1851  0.1299
13109TIP3    H239273   2.364   0.303   2.953  0.7155 -1.0191 -0.6639
13110TIP3   OH239274   7.151   5.906   5.276 -0.1019  0.8323  0.0982
13110TIP3    H139275   7.127   5.818   5.305  0.0119  0.5191 -0.7359
13110TIP3    H239276   7.081   5.962   5.310  1.0799  0.8168  2.7697
13111TIP3   OH239277   5.382   7.791   6.657 -0.3722  0.0501  0.4172
13111TIP3    H139278   5.407   7.779   6.748 -0.3228 -2.9896  0.0948
13111TIP3    H239279   5.316   7.723   6.641  1.2189 -0.9943 -2.3657
13112TIP3   OH239280   0.213   2.571   5.108 -0.0452  0.3164  0.5280
13112TIP3    H139281   0.214   2.526   5.193  0.5098 -0.0135  0.3566
13112TIP3    H239282   0.253   2.656   5.125 -0.1470  0.3398  0.6475
13113TIP3   OH239283   1.144   3.038   3.993 -0.3839  0.3545  0.2346
13113TIP3    H139284   1.122   2.956   4.036 -0.0490  0.5273  0.7456
13113TIP3    H239285   1.140   3.018   3.899 -0.4075 -0.2154  0.3543
13114TIP3   OH239286   4.667   5.174   6.148  0.0097 -0.1959  0.1042
13114TIP3    H139287   4.730   5.104   6.131  0.6027  0.1022  0.9739
13114TIP3    H239288   4.652   5.214   6.063 -1.0414 -1.9401 -0.5663
13115TIP3   OH239289   5.043   7.738   1.221  0.0370 -0.1704  0.1479
13115TIP3    H139290   5.068   7.736   1.129 -1.4119  1.3781 -0.3350
13115TIP3    H239291   5.053   7.648   1.251  1.2192 -0.5603 -1.3223
13116TIP3   OH239292   5.022   0.025   3.951 -0.2475  0.0628  0.5472
13116TIP3    H139293   5.012   0.118   3.968  0.1471  0.3494 -0.6772
13116TIP3    H239294   4.938  -0.014   3.977  0.4703  0.3191  3.5942
13117TIP3   OH239295   3.047   3.298   2.590  0.0334 -0.2597 -0.6415
13117TIP3    H139296   2.992   3.241   2.536 -1.1810 -0.1354  0.4362
13117TIP3    H239297   3.137   3.274   2.565 -0.4762 -1.0615 -1.8133
13118TIP3   OH239298   5.624   6.439   2.208  0.0122 -0.4854 -0.1440
13118TIP3    H139299   5.605   6.437   2.302  1.4276  0.4044  0.1893
13118TIP3    H239300   5.551   6.487   2.169 -1.6572 -2.6020  0.1708
13119TIP3   OH239301   4.687   4.400   6.231 -0.5525  0.1111 -0.6263
13119TIP3    H139302   4.757   4.464   6.243  0.4168 -0.7727 -1.4969
13119TIP3    H239303   4.669   4.401   6.137 -1.7283  0.3179 -0.4236
13120TIP3   OH239304   5.957   1.858   1.901 -0.1056  0.6488  0.6836
13120TIP3    H139305   6.025   1.793   1.919 -0.7144 -0.0267  0.6081
13120TIP3    H239306   5.875   1.810   1.910 -0.7626  2.0518  3.6415
13121TIP3   OH239307   2.575   1.011   0.862  0.1273 -0.9181 -0.1708
13121TIP3    H139308   2.661   1.002   0.821  0.3538  0.7054 -0.1132
13121TIP3    H239309   2.519   1.047   0.793  0.4341  1.5442  0.7664
13122TIP3   OH239310   8.047   4.338   5.187 -0.5012 -0.0982 -0.4047
13122TIP3    H139311   8.053   4.411   5.249 -1.2609  0.1249 -0.5755
13122TIP3    H239312   8.101   4.364   5.113 -0.5601  0.1725 -0.3519
13123TIP3   OH239313   4.708   6.885   5.128 -0.1978 -0.4490  0.0738
13123TIP3    H139314   4.631   6.921   5.084 -0.2380  0.2680  0.7034
13123TIP3    H239315   4.746   6.960   5.174  1.7497 -0.4452 -1.4163
13124TIP3   OH239316   5.367   3.108   0.824 -0.1611 -0.4649  0.1894
13124TIP3    H139317   5.310   3.101   0.748  2.0498 -0.7904 -1.5637
13124TIP3    H239318   5.417   3.026   0.824  0.2682 -0.2378  1.7022
13125TIP3   OH239319   7.690   4.072   4.881 -0.1846  0.0104 -0.2395
13125TIP3    H139320   7.707   4.162   4.909 -1.1431  0.3281 -0.6231
13125TIP3    H239321   7.658   4.028   4.960  0.7624 -0.1445  0.0731
13126TIP3   OH239322   5.679   5.323   1.484  0.4070  0.1839  0.1473
13126TIP3    H139323   5.702   5.338   1.392  1.6209  1.6521  0.6428
13126TIP3    H239324   5.589   5.292   1.481  0.1252  1.0246 -1.4973
13127TIP3   OH239325   1.894   6.789   6.067  0.6894  0.1444  0.0212
13127TIP3    H139326   1.988   6.806   6.057  1.1259 -2.1570 -0.2063
13127TIP3    H239327   1.860   6.792   5.977  0.4243  1.3507  0.1345
13128TIP3   OH239328   2.754   2.416   2.040  0.6704 -0.4627  0.1432
13128TIP3    H139329   2.755   2.321   2.054  1.3967 -0.7348 -1.5980
13128TIP3    H239330   2.831   2.434   1.988 -1.6580  0.4493 -3.3242
13129TIP3   OH239331   4.623   4.889   1.452  0.5408 -0.2100 -0.2479
13129TIP3    H139332   4.538   4.852   1.472  1.1763 -1.6967 -0.1733
13129TIP3    H239333   4.647   4.939   1.530 -0.1406  0.0111 -0.1756
13130TIP3   OH239334   3.185   4.634   4.429  0.4213 -1.0474  0.5059
13130TIP3    H139335   3.199   4.728   4.439 -0.3201 -0.9751  0.9186
13130TIP3    H239336   3.225   4.595   4.507 -0.1166 -0.9883  0.8156
13131TIP3   OH239337   7.245   5.520   1.556 -1.3183 -0.3675  0.3226
13131TIP3    H139338   7.221   5.553   1.470 -0.3668 -1.0576 -0.2214
13131TIP3    H239339   7.224   5.592   1.616 -0.2214  0.8621 -0.7110
13132TIP3   OH239340   4.546   1.559   1.495 -0.2092  0.4341 -0.3750
13132TIP3    H139341   4.629   1.588   1.533 -0.5805  0.8341  0.1419
13132TIP3    H239342   4.526   1.478   1.541  0.0593  0.1532 -0.7418
13133TIP3   OH239343   7.389   3.712   5.350 -0.2076 -0.0216  0.4434
13133TIP3    H139344   7.474   3.730   5.389 -0.3081  2.5260 -0.3293
13133TIP3    H239345   7.407   3.644   5.284  1.0402 -0.1477  0.8873
13134TIP3   OH239346   7.779   6.478   0.833 -0.5253 -0.3631  0.2710
13134TIP3    H139347   7.746   6.388   0.839 -0.1845 -0.3992  2.9090
13134TIP3    H239348   7.824   6.492   0.916 -0.7650  2.3355  0.0313
13135TIP3   OH239349   7.686   7.252   2.073  0.0070  0.2746 -0.1873
13135TIP3    H139350   7.746   7.323   2.097 -1.2202  1.3731 -0.2305
13135TIP3    H239351   7.689   7.249   1.977  0.0981  0.2458 -0.1831
13136TIP3   OH239352   2.798   7.281   4.884 -0.1684 -0.6785 -0.5858
13136TIP3    H139353   2.743   7.347   4.924  0.6001  0.1080 -0.7937
13136TIP3    H239354   2.881   7.326   4.867 -0.1143 -1.2752 -2.0528
13137TIP3   OH239355   2.469   6.502   1.004 -0.4150  0.3609  0.3855
13137TIP3    H139356   2.477   6.464   1.091  2.8461 -0.2521 -0.0583
13137TIP3    H239357   2.460   6.427   0.946  1.9486  0.4187 -0.1347
13138TIP3   OH239358   4.470   6.897   4.736  0.0635 -0.2369  0.6145
13138TIP3    H139359   4.520   6.817   4.717 -0.5144 -0.7237  1.0687
13138TIP3    H239360   4.397   6.894   4.673  0.3322  0.2203  0.2740
13139TIP3   OH239361   2.474   3.621   2.744  0.3213  0.5269 -0.2853
13139TIP3    H139362   2.491   3.700   2.795  1.4483  0.2019 -0.1232
13139TIP3    H239363   2.513   3.639   2.658  0.4188  0.2255 -0.3071
13140TIP3   OH239364   2.848   6.834   3.567 -0.1407  0.3344  0.0076
13140TIP3    H139365   2.934   6.839   3.527  1.0115 -0.3124  2.2347
13140TIP3    H239366   2.851   6.897   3.639 -1.1213 -0.4869  0.8053
13141TIP3   OH239367   4.529   5.905   3.356 -0.2850  0.1781  0.3826
13141TIP3    H139368   4.545   5.831   3.298  0.6515  0.8317 -0.2243
13141TIP3    H239369   4.463   5.873   3.418 -0.3848 -0.9367 -0.2667
13142TIP3   OH239370   3.637   5.548   4.745  0.0834 -0.4454 -0.3495
13142TIP3    H139371   3.658   5.581   4.658 -1.4886  0.5023 -0.4072
13142TIP3    H239372   3.686   5.466   4.753  2.0935  0.6223 -1.1925
13143TIP3   OH239373   0.126   1.622   0.005  0.3287  0.2536 -0.4457
13143TIP3    H139374   0.176   1.558   0.056 -1.9063 -0.5560  0.8728
13143TIP3    H239375   0.075   1.569  -0.056 -1.0450  0.7758  0.1973
13144TIP3   OH239376   1.223   7.328   4.931 -0.1563 -0.2564 -0.6780
13144TIP3    H139377   1.186   7.287   4.853  2.9888 -2.6025 -1.1521
13144TIP3    H239378   1.257   7.254   4.982  0.7285  1.4430  1.3269
13145TIP3   OH239379   6.605   7.495   4.877  0.4269  0.2159  0.1999
13145TIP3    H139380   6.633   7.424   4.935  0.6570  0.7289  0.7320
13145TIP3    H239381   6.509   7.488   4.876  0.5022 -1.0147 -0.9469
13146TIP3   OH239382   4.645   5.614   0.701  0.2295  0.1924 -0.1041
13146TIP3    H139383   4.622   5.696   0.659 -0.0790  0.1877  0.0550
13146TIP3    H239384   4.667   5.555   0.629 -0.1193  0.2388 -0.2481
13147TIP3   OH239385   7.139   2.771   4.297  0.4920  0.0510 -0.6421
13147TIP3    H139386   7.233   2.782   4.312  0.5318 -1.2485  0.2135
13147TIP3    H239387   7.125   2.676   4.299 -0.6733  0.1653 -1.8470
13148TIP3   OH239388   6.823   2.929   0.760 -0.5280 -0.5746  0.0830
13148TIP3    H139389   6.839   2.835   0.755  1.2741 -0.3900  1.5678
13148TIP3    H239390   6.764   2.939   0.835 -0.9543 -0.5266 -0.2528
13149TIP3   OH239391   1.731   0.044   1.927  0.0852 -0.3134  0.3070
13149TIP3    H139392   1.780   0.093   1.860 -0.3728 -0.7848 -0.3910
13149TIP3    H239393   1.798  -0.008   1.972  0.4945  0.5147  0.6686
13150TIP3   OH239394   1.646   1.420   4.457  0.1034 -0.4582 -0.2488
13150TIP3    H139395   1.606   1.445   4.540  1.1844 -0.4214  0.2700
13150TIP3    H239396   1.701   1.494   4.433  1.2371 -1.2217 -0.0593
13151TIP3   OH239397   5.643   4.183   4.226 -0.0805  0.0905 -0.1418
13151TIP3    H139398   5.567   4.126   4.238 -0.8077  1.2556  0.9996
13151TIP3    H239399   5.708   4.127   4.183 -1.0101 -1.3804  0.2896
13152TIP3   OH239400   5.074   4.660   5.402  0.0357 -0.7780 -0.2321
13152TIP3    H139401   5.169   4.652   5.389  0.1901  1.9412 -1.6073
13152TIP3    H239402   5.066   4.715   5.480 -0.4373 -1.4832  0.2203
13153TIP3   OH239403   1.162   6.210   1.133  0.1567  0.0115  0.2559
13153TIP3    H139404   1.219   6.208   1.209  1.2872 -1.1188 -0.5810
13153TIP3    H239405   1.182   6.130   1.085  2.0378  2.2244 -3.0258
13154TIP3   OH239406   5.626   0.674   1.195 -0.4191  0.3092 -0.1218
13154TIP3    H139407   5.617   0.604   1.131  1.5539 -0.2724  0.1711
13154TIP3    H239408   5.614   0.632   1.279 -1.7323  0.8390 -0.0126
13155TIP3   OH239409   5.462   4.400   0.041  0.3523 -0.0081 -0.0234
13155TIP3    H139410   5.417   4.329  -0.005  0.1618  0.1196 -0.0318
13155TIP3    H239411   5.545   4.361   0.068  0.4826 -0.0745 -0.5073
13156TIP3   OH239412   7.198   1.436   0.356  0.2187 -0.0680 -0.1190
13156TIP3    H139413   7.290   1.413   0.372  0.3617  0.1347 -0.6094
13156TIP3    H239414   7.184   1.516   0.406  0.6330  0.5119 -0.9064
13157TIP3   OH239415   0.529   3.586   3.927  0.1611 -0.2458 -0.5940
13157TIP3    H139416   0.612   3.610   3.968  1.0389 -1.5763 -1.5345
13157TIP3    H239417   0.485   3.532   3.992 -0.6319  1.5455  0.4520
13158TIP3   OH239418   3.579   5.503   0.635 -0.5133  0.2300  1.0697
13158TIP3    H139419   3.573   5.506   0.539 -2.8573 -0.2635  1.1275
13158TIP3    H239420   3.560   5.412   0.657 -0.4376  0.4357  2.0278
13159TIP3   OH239421   1.284   6.848   2.443 -0.0154 -0.7665 -0.0348
13159TIP3    H139422   1.293   6.862   2.349 -1.5799 -1.6367 -0.3571
13159TIP3    H239423   1.298   6.935   2.481  1.0489 -0.4851 -1.0211
13160TIP3   OH239424   3.419   3.392   2.953 -0.3866  0.7115  0.2313
13160TIP3    H139425   3.443   3.326   3.019 -0.2067  3.1031  2.7406
13160TIP3    H239426   3.385   3.341   2.880 -0.1781 -2.1638  1.9685
13161TIP3   OH239427   3.919   2.138   6.624 -0.0352  0.2414  0.4241
13161TIP3    H139428   3.897   2.064   6.568  0.0913 -0.2045  0.9609
13161TIP3    H239429   3.917   2.214   6.565 -1.2631 -0.0259  0.0988
13162TIP3   OH239430   6.568   1.159   6.031 -0.6170  0.1562 -0.6302
13162TIP3    H139431   6.655   1.141   6.066 -1.4485  1.2067  2.2746
13162TIP3    H239432   6.539   1.236   6.079 -4.1415 -1.6507  0.4394
13163TIP3   OH239433   0.285   1.408   1.598  0.3449 -0.5070 -0.0631
13163TIP3    H139434   0.269   1.364   1.682 -0.1061 -0.9866 -0.3895
13163TIP3    H239435   0.198   1.416   1.558  0.5754 -0.4792 -0.5720
13164TIP3   OH239436   5.639   3.922   2.207 -0.4034  0.1375  0.4359
13164TIP3    H139437   5.557   3.896   2.164  0.6121 -3.4375  0.3483
13164TIP3    H239438   5.612   3.953   2.293 -1.8493 -2.1024  0.8600
13165TIP3   OH239439   3.462   2.363   0.157  0.1644  0.1835 -0.2779
13165TIP3    H139440   3.394   2.426   0.133  0.8385  0.7304 -0.7848
13165TIP3    H239441   3.526   2.368   0.086 -0.5270 -2.2260 -1.1484
13166TIP3   OH239442   0.319   6.207   0.702 -0.2296  0.2124  0.1939
13166TIP3    H139443   0.412   6.225   0.694 -0.4326  0.6822 -1.6101
13166TIP3    H239444   0.277   6.284   0.663 -1.3965  0.2368  1.4208
13167TIP3   OH239445   7.128   0.103   6.618  0.0940  0.1223  0.0436
13167TIP3    H139446   7.221   0.126   6.616  0.2691 -0.4801  0.7495
13167TIP3    H239447   7.086   0.174   6.665  0.2367  0.2823 -0.0697
13168TIP3   OH239448   0.291   4.971   0.172  0.3556 -0.8440 -1.0770
13168TIP3    H139449   0.330   4.936   0.092 -1.0119  0.4278 -2.3758
13168TIP3    H239450   0.267   5.061   0.149  1.3646  0.1193  1.2784
13169TIP3   OH239451   5.073   0.590   3.603 -0.1226  0.1908 -0.2712
13169TIP3    H139452   4.996   0.646   3.619  2.4795  3.8963  0.5268
13169TIP3    H239453   5.086   0.596   3.508 -0.5721 -0.1183 -0.3572
13170TIP3   OH239454   3.659   6.385   3.165  0.0401  0.1154 -0.7964
13170TIP3    H139455   3.643   6.338   3.248 -0.0229 -0.6160 -1.2103
13170TIP3    H239456   3.752   6.406   3.168 -0.4807  2.5728  0.7006
13171TIP3   OH239457   7.777   7.672   0.041 -0.0647  0.1877  0.4807
13171TIP3    H139458   7.837   7.717   0.101 -0.0928  0.6417  0.1788
13171TIP3    H239459   7.696   7.661   0.092  0.5025 -1.1107  1.1423
13172TIP3   OH239460   7.014   2.518   2.806  0.2863  0.1366  0.4281
13172TIP3    H139461   7.075   2.526   2.879 -1.1321  0.3210  1.6452
13172TIP3    H239462   7.021   2.427   2.778  1.7815  0.3893 -0.0891
13173TIP3   OH239463   2.941   4.189   3.348  0.1445  0.3956 -0.2663
13173TIP3    H139464   3.034   4.171   3.357 -0.0383 -0.5630 -0.1776
13173TIP3    H239465   2.898   4.106   3.366 -0.9619  1.5586  3.3120
13174TIP3   OH239466   6.478   5.770   6.699 -0.3581  0.0487 -0.1201
13174TIP3    H139467   6.388   5.786   6.730 -0.3126  1.5373 -0.6464
13174TIP3    H239468   6.505   5.854   6.663  0.5356 -0.9133 -1.8030
13175TIP3   OH239469   3.054   5.500   5.652  0.0102  0.0501 -0.9380
13175TIP3    H139470   3.035   5.573   5.592 -0.4827  0.1147 -0.7098
13175TIP3    H239471   3.035   5.535   5.739 -1.0254 -0.5982 -0.8922
13176TIP3   OH239472   2.418   4.271   2.189 -0.1728  0.0588 -0.6642
13176TIP3    H139473   2.401   4.179   2.211  0.7703  0.2417  0.9293
13176TIP3    H239474   2.434   4.270   2.094 -0.1548 -1.4163 -0.6653
13177TIP3   OH239475   0.169   2.977   0.375  0.1888  0.2819  0.1195
13177TIP3    H139476   0.136   2.888   0.377  0.0537  0.3244 -0.1920
13177TIP3    H239477   0.127   3.017   0.299  2.0904 -0.1112 -1.2411
13178TIP3   OH239478   1.739   0.517   5.145 -0.5788  0.1560 -0.2126
13178TIP3    H139479   1.689   0.441   5.116  2.3357 -1.4650 -1.5091
13178TIP3    H239480   1.714   0.587   5.084 -1.1341 -0.6315 -0.9098
13179TIP3   OH239481   6.567   1.536   3.862 -0.1234 -0.0023 -0.0822
13179TIP3    H139482   6.538   1.445   3.874  0.0136 -0.3262 -1.9044
13179TIP3    H239483   6.509   1.588   3.917 -0.0630 -1.1998  1.1629
13180TIP3   OH239484   4.329   1.866   6.106  0.5641 -0.1892  0.6353
13180TIP3    H139485   4.380   1.920   6.045 -0.2322  0.1314  0.2408
13180TIP3    H239486   4.331   1.915   6.189 -1.3865  1.2608 -0.0910
13181TIP3   OH239487   4.053   0.704   6.440 -0.1486  0.3645  0.0655
13181TIP3    H139488   4.124   0.713   6.504 -0.8067 -0.4358  0.9332
13181TIP3    H239489   4.032   0.793   6.414  1.1911  0.6099 -0.2257
13182TIP3   OH239490   2.047   4.089   3.620 -0.1685 -0.0667 -0.5777
13182TIP3    H139491   1.982   4.033   3.662  1.0836 -3.1360 -2.4332
13182TIP3    H239492   2.118   4.098   3.684 -1.7631  2.4068  1.0311
13183TIP3   OH239493   6.765   0.347   3.401 -0.2183 -0.5367 -0.2637
13183TIP3    H139494   6.857   0.373   3.409 -0.4064  0.2681 -0.6655
13183TIP3    H239495   6.742   0.367   3.310 -1.5809  1.9032  0.5454
13184TIP3   OH239496   1.061   1.020   1.058  0.2107  0.0175  0.3952
13184TIP3    H139497   1.089   1.018   1.150  0.0271 -0.7405  0.4441
13184TIP3    H239498   1.094   1.103   1.024  0.8335  0.0152  0.9798
13185TIP3   OH239499   8.047   2.470   1.639 -0.3388 -0.5115  0.3408
13185TIP3    H139500   8.045   2.455   1.544 -1.2714 -1.6017  0.5102
13185TIP3    H239501   8.084   2.558   1.648 -0.2415 -0.3797 -1.0290
13186TIP3   OH239502   5.447   6.472   0.317 -0.5500 -0.4727  0.4408
13186TIP3    H139503   5.467   6.415   0.243 -1.8910  0.1626 -0.4437
13186TIP3    H239504   5.354   6.457   0.334 -1.1107  1.8564 -0.2065
13187TIP3   OH239505   5.281   0.610   1.519  0.0533 -0.2276  0.7116
13187TIP3    H139506   5.251   0.602   1.609 -0.4430 -3.5380  0.3434
13187TIP3    H239507   5.315   0.524   1.496 -1.9366 -0.2292 -2.9882
13188TIP3   OH239508   6.724   4.220   0.513  0.2637  0.0251  0.2420
13188TIP3    H139509   6.671   4.276   0.569  0.2083  0.1647  0.0486
13188TIP3    H239510   6.728   4.266   0.429 -0.5216 -0.6852 -0.2006
13189TIP3   OH239511   4.767   3.907   4.944  0.2810 -0.2480 -0.0766
13189TIP3    H139512   4.859   3.880   4.950  0.7272  1.0052 -0.8433
13189TIP3    H239513   4.760   3.946   4.857 -0.7735  0.4438  0.3043
13190TIP3   OH239514   7.066   4.892   1.692 -0.4612 -0.0468 -0.0174
13190TIP3    H139515   7.118   4.964   1.656  1.0292 -1.7881 -1.5613
13190TIP3    H239516   7.099   4.881   1.781 -0.9217  1.3276  0.3509
13191TIP3   OH239517   0.139   2.193   2.259 -0.0391 -0.0582  0.0969
13191TIP3    H139518   0.172   2.124   2.317 -1.6845 -0.8129  0.1819
13191TIP3    H239519   0.050   2.209   2.289 -0.2027  1.0379 -0.9068
13192TIP3   OH239520   3.306   4.799   0.444  0.6983 -0.4112 -0.2016
13192TIP3    H139521   3.274   4.713   0.415  0.3528 -0.3925  0.1147
13192TIP3    H239522   3.281   4.859   0.374 -2.2679  0.0683  1.1209
13193TIP3   OH239523   5.492   3.331   1.705 -0.2033  0.7036 -0.2279
13193TIP3    H139524   5.462   3.274   1.775 -0.6538  1.4218  0.1736
13193TIP3    H239525   5.474   3.282   1.625 -0.7015  0.3394  0.1035
13194TIP3   OH239526   4.954   2.902   6.714  0.2795 -0.2549 -0.0757
13194TIP3    H139527   4.887   2.948   6.763 -1.2486 -1.6584 -0.7476
13194TIP3    H239528   4.995   2.969   6.659  0.1997  0.8179  1.1387
13195TIP3   OH239529   7.375   6.893   0.336 -0.7382 -0.3918  0.5668
13195TIP3    H139530   7.367   6.837   0.259  2.0278 -2.0817  1.3431
13195TIP3    H239531   7.319   6.851   0.402 -1.3209 -0.2708  0.1534
13196TIP3   OH239532   1.370   7.777   6.448 -0.0948 -0.5924  0.1249
13196TIP3    H139533   1.437   7.750   6.511 -0.4315  0.8554  1.1571
13196TIP3    H239534   1.402   7.860   6.413 -0.5184 -0.7647 -0.6890
13197TIP3   OH239535   5.280   4.441   0.328 -0.2854  0.3377  0.7045
13197TIP3    H139536   5.217   4.498   0.283  1.2679  3.8844  2.6706
13197TIP3    H239537   5.236   4.416   0.409  0.5445  2.4254  1.8562
13198TIP3   OH239538   7.120   6.910   5.169  0.0507 -0.0433  0.2789
13198TIP3    H139539   7.175   6.832   5.174 -0.9858 -0.9029 -1.2190
13198TIP3    H239540   7.074   6.912   5.254  0.5853 -0.6731  0.5944
13199TIP3   OH239541   0.121   4.381   0.358  0.2264 -0.1449  0.1428
13199TIP3    H139542   0.040   4.402   0.310  0.4664  0.8457  0.1508
13199TIP3    H239543   0.191   4.402   0.297  0.5051 -0.2695  0.4173
13200TIP3   OH239544   3.966   1.260   5.509 -0.2155 -0.2679  0.3742
13200TIP3    H139545   3.910   1.308   5.449 -1.0549 -1.7052 -0.0391
13200TIP3    H239546   3.928   1.278   5.596  0.1209  0.6368  0.3465
13201TIP3   OH239547   6.974   4.713   4.891 -0.0148  0.6283  0.0579
13201TIP3    H139548   7.059   4.674   4.870  0.0739  0.9520 -0.1831
13201TIP3    H239549   6.951   4.675   4.976  0.3503  0.5047  0.1032
13202TIP3   OH239550   6.903   7.829   5.662 -0.1082  0.1455  0.1818
13202TIP3    H139551   6.864   7.748   5.696 -2.6076  0.5572 -1.5146
13202TIP3    H239552   6.837   7.896   5.679  0.4233  1.1556 -1.5799
13203TIP3   OH239553   2.755   3.995   3.570 -0.0672  0.1252  0.1019
13203TIP3    H139554   2.690   3.941   3.615 -0.4103  0.6160  0.1959
13203TIP3    H239555   2.771   3.949   3.487 -1.8943  0.9386 -0.7381
13204TIP3   OH239556   4.381   0.831   5.217  0.1047  0.1746  0.1229
13204TIP3    H139557   4.352   0.785   5.139  1.8118 -1.1391  0.2035
13204TIP3    H239558   4.330   0.793   5.288 -0.2309  0.1403 -0.1375
13205TIP3   OH239559   5.083   7.371   1.012 -0.0568 -0.6518  0.1161
13205TIP3    H139560   4.994   7.338   1.023  0.4138 -1.4775  1.8126
13205TIP3    H239561   5.097   7.429   1.087  0.7958 -0.4200 -0.2016
13206TIP3   OH239562   5.702   5.512   0.851  0.6012 -0.1083 -0.1503
13206TIP3    H139563   5.782   5.515   0.797  0.6396 -0.4034 -0.1085
13206TIP3    H239564   5.681   5.419   0.857 -1.0361  0.0682 -2.0640
13207TIP3   OH239565   1.967   5.703   1.716 -0.4148 -0.6737 -0.6111
13207TIP3    H139566   2.021   5.646   1.661  1.9121 -0.3539  1.2035
13207TIP3    H239567   2.028   5.767   1.752 -2.1465  0.1802  0.9751
13208TIP3   OH239568   4.832   2.586   3.602 -0.0065  0.2590  0.1010
13208TIP3    H139569   4.910   2.633   3.631  0.3071 -0.5831  0.6773
13208TIP3    H239570   4.852   2.559   3.512 -0.0187  0.8438 -0.0830
13209TIP3   OH239571   1.517   2.981   3.181  0.3539 -0.6209 -0.9152
13209TIP3    H139572   1.489   3.068   3.212  1.7227  0.0903 -1.5722
13209TIP3    H239573   1.436   2.932   3.171 -0.3464  0.0310  1.0462
13210TIP3   OH239574   6.551   6.630   1.212  0.4797  0.3081 -0.2108
13210TIP3    H139575   6.597   6.546   1.206  0.4384  0.3127 -0.6239
13210TIP3    H239576   6.618   6.692   1.241 -0.1448 -0.4205  3.2308
13211TIP3   OH239577   8.080   7.583   1.780  0.2756  0.1491 -0.1680
13211TIP3    H139578   8.074   7.609   1.688 -1.0811 -0.3706 -0.2340
13211TIP3    H239579   8.173   7.594   1.801  0.1324  3.4671 -0.6407
13212TIP3   OH239580   5.803   2.215   6.044 -0.4927  0.2422 -0.1963
13212TIP3    H139581   5.877   2.273   6.062  0.2603 -0.8791  0.4460
13212TIP3    H239582   5.834   2.157   5.974 -0.9465  0.0942 -0.2802
13213TIP3   OH239583   0.033   1.260   0.729  0.0034 -0.3963  0.0091
13213TIP3    H139584   0.102   1.193   0.735 -0.7199 -1.0478  1.5641
13213TIP3    H239585   0.072   1.337   0.770 -0.0934 -0.6911  0.6677
13214TIP3   OH239586   6.546   5.656   5.892 -0.3617  0.0086  0.2098
13214TIP3    H139587   6.534   5.563   5.910  0.5572 -0.0004  0.8804
13214TIP3    H239588   6.462   5.685   5.857 -0.2931 -1.3382 -1.2252
13215TIP3   OH239589   4.670   0.258   4.919  0.0399  0.3792 -0.1191
13215TIP3    H139590   4.704   0.212   4.842  1.6629  0.3843  0.5386
13215TIP3    H239591   4.746   0.307   4.953 -0.9804  1.4495  0.7055
13216TIP3   OH239592   1.977   4.436   6.221 -0.0901  0.8463  0.2825
13216TIP3    H139593   1.910   4.439   6.153 -0.6723 -0.3691  0.7681
13216TIP3    H239594   2.008   4.526   6.229  1.3662  0.7651 -2.9043
13217TIP3   OH239595   4.869   7.145   4.284 -0.5979  0.3366 -0.1681
13217TIP3    H139596   4.864   7.200   4.361 -0.3897 -1.1559  0.9615
13217TIP3    H239597   4.949   7.173   4.240 -0.7567  1.2507  0.1073
13218TIP3   OH239598   5.051   0.966   6.411 -0.3984 -0.2852 -0.0791
13218TIP3    H139599   5.129   1.000   6.455  1.0410 -0.6721 -2.1443
13218TIP3    H239600   4.980   0.978   6.474  1.3905 -0.3440  2.0820
13219TIP3   OH239601   7.309   6.373   5.870  0.1697 -0.1455 -0.5817
13219TIP3    H139602   7.374   6.304   5.882 -0.9738 -1.0771  0.5403
13219TIP3    H239603   7.323   6.432   5.943  2.3551  1.9233 -2.5074
13220TIP3   OH239604   5.373   7.756   3.969  0.6219  0.0062 -0.1293
13220TIP3    H139605   5.342   7.846   3.983 -0.7876 -0.3657 -0.7577
13220TIP3    H239606   5.459   7.767   3.929  0.5206  1.0730 -0.0911
13221TIP3   OH239607   6.260   5.705   3.921 -0.6560  0.4672  0.1205
13221TIP3    H139608   6.319   5.630   3.928 -1.2288  0.1210  1.9682
13221TIP3    H239609   6.175   5.667   3.898 -0.8477  0.5655  0.6309
13222TIP3   OH239610   8.126   0.939   3.285  0.3451 -0.1210  0.4291
13222TIP3    H139611   8.217   0.919   3.309  0.3136 -1.4521 -0.4401
13222TIP3    H239612   8.076   0.864   3.317  0.1141 -1.2892 -2.3436
13223TIP3   OH239613   1.796   3.156   4.952 -0.6233  0.2314 -0.0203
13223TIP3    H139614   1.800   3.246   4.919 -0.5749  0.7785  1.4285
13223TIP3    H239615   1.886   3.124   4.947 -0.6575  0.2244 -0.6244
13224TIP3   OH239616   0.968   7.115   4.270  0.1974  0.3244 -0.0913
13224TIP3    H139617   0.923   7.032   4.288 -1.1658  0.9252 -0.5707
13224TIP3    H239618   0.902   7.169   4.227  1.0277  1.7124  0.3114
13225TIP3   OH239619   3.976   4.022   2.352 -0.3393  0.1671 -0.4190
13225TIP3    H139620   3.952   3.949   2.295 -0.7181 -0.3764  0.4089
13225TIP3    H239621   3.989   4.096   2.293  1.0106 -0.7877 -1.3967
13226TIP3   OH239622   2.569   6.250   0.903  0.7005 -0.0409 -0.4282
13226TIP3    H139623   2.581   6.180   0.839  1.8068  0.0829 -0.3768
13226TIP3    H239624   2.655   6.292   0.909  0.0488  1.3245 -0.4562
13227TIP3   OH239625   2.406   7.022   4.348  0.4943  0.5350  0.0718
13227TIP3    H139626   2.492   7.009   4.308  1.0633 -2.0805  1.9181
13227TIP3    H239627   2.423   7.019   4.442 -1.7173 -1.0084  0.4795
13228TIP3   OH239628   3.049   2.313   3.401  0.3502 -0.2722  0.4620
13228TIP3    H139629   3.085   2.312   3.312  0.5108 -1.8298  0.5251
13228TIP3    H239630   3.065   2.402   3.431  0.4262  0.2460 -1.0139
13229TIP3   OH239631   3.983   6.304   4.337 -0.7743  0.2549 -0.2714
13229TIP3    H139632   4.029   6.335   4.415 -1.5875 -2.0699  1.2285
13229TIP3    H239633   3.950   6.384   4.296  0.1116  1.6005  1.4871
13230TIP3   OH239634   5.575   4.822   2.023  0.3899 -0.0335 -0.3346
13230TIP3    H139635   5.656   4.871   2.010  0.3613 -0.4024 -2.2252
13230TIP3    H239636   5.604   4.731   2.037  0.3263 -0.5004 -2.7954
13231TIP3   OH239637   7.907   3.746   2.585  0.4131  0.1984 -0.5090
13231TIP3    H139638   7.985   3.690   2.593  0.5190  0.4503  0.3022
13231TIP3    H239639   7.842   3.704   2.642  0.6122  1.0905  0.3996
13232TIP3   OH239640   8.066   3.821   6.011  0.2012  0.0776  0.9265
13232TIP3    H139641   8.115   3.885   5.960  0.1952  0.1454  1.0066
13232TIP3    H239642   8.131   3.778   6.066  0.2400 -0.1428  0.7111
13233TIP3   OH239643   5.489   0.328   5.624  0.1424 -0.0453 -0.5923
13233TIP3    H139644   5.417   0.373   5.668 -1.4988 -2.8360 -0.2234
13233TIP3    H239645   5.451   0.296   5.542  2.2163  2.0635 -2.5337
13234TIP3   OH239646   1.718   2.148   2.453 -0.8263  0.1039  0.0316
13234TIP3    H139647   1.730   2.076   2.392 -0.1663  1.1453 -1.1122
13234TIP3    H239648   1.626   2.173   2.444 -0.5803  0.6627 -1.0344
13235TIP3   OH239649   0.782   1.078   1.006  0.3803 -0.2531 -0.7869
13235TIP3    H139650   0.795   1.146   0.939  1.0585  0.9274  0.4897
13235TIP3    H239651   0.858   1.020   0.996 -0.4715 -1.1803 -2.2298
13236TIP3   OH239652   4.018   5.182   3.372 -0.1806 -0.7642  0.3520
13236TIP3    H139653   4.065   5.146   3.447 -1.5484  0.1181  1.6927
13236TIP3    H239654   3.960   5.112   3.343 -0.2144 -0.8441  0.6153
13237TIP3   OH239655   1.818   0.203   2.445 -0.6300 -0.0618  0.0595
13237TIP3    H139656   1.795   0.263   2.516 -1.5888 -0.7726  0.3729
13237TIP3    H239657   1.781   0.243   2.367 -1.4020 -0.3059  0.2902
13238TIP3   OH239658   7.185   7.602   6.410 -0.1225 -0.3213  0.5136
13238TIP3    H139659   7.162   7.691   6.383 -0.2320 -0.6586 -0.5535
13238TIP3    H239660   7.152   7.547   6.339  2.1714 -1.0148 -0.0940
13239TIP3   OH239661   0.149   4.229   1.765 -0.3367 -0.1877 -0.0047
13239TIP3    H139662   0.084   4.167   1.798 -2.2011  0.9784 -1.2656
13239TIP3    H239663   0.217   4.174   1.726 -2.6766 -1.5190 -2.5025
13240TIP3   OH239664   3.190   6.867   0.894  0.0743 -0.0534 -0.3761
13240TIP3    H139665   3.248   6.903   0.962  1.0278 -2.2967  0.1126
13240TIP3    H239666   3.136   6.803   0.941 -0.5250 -0.3245 -1.4155
13241TIP3   OH239667   0.616   3.984   3.396  0.3614 -0.2187 -0.3640
13241TIP3    H139668   0.576   4.024   3.473  1.2707  0.5146 -0.2421
13241TIP3    H239669   0.640   3.896   3.424 -1.9663 -1.0158 -0.7334
13242TIP3   OH239670   1.384   6.564   1.734 -0.2560 -0.3206  0.5601
13242TIP3    H139671   1.348   6.587   1.648 -1.4579 -1.4294  0.7299
13242TIP3    H239672   1.427   6.644   1.764 -1.1976  0.5766 -0.3824
13243TIP3   OH239673   2.664   3.279   3.759  0.1074 -0.1811  0.2337
13243TIP3    H139674   2.683   3.372   3.773  0.7714  0.1777 -2.4176
13243TIP3    H239675   2.715   3.234   3.826  0.0715  1.3343  1.3411
13244TIP3   OH239676   3.463   2.309   5.643 -0.3657 -0.2954 -1.0539
13244TIP3    H139677   3.494   2.226   5.679  0.2773 -0.6124 -2.2918
13244TIP3    H239678   3.442   2.362   5.720 -0.6220 -1.5336 -0.2430
13245TIP3   OH239679   5.648   5.854   6.656  0.2032 -0.3016  0.2106
13245TIP3    H139680   5.583   5.891   6.596  0.1464  0.6502  0.8290
13245TIP3    H239681   5.676   5.773   6.614 -1.0721 -0.5167 -0.2743
13246TIP3   OH239682   1.733   3.410   6.476  0.3371  0.3141  0.0647
13246TIP3    H139683   1.640   3.392   6.464  0.1293  2.1017 -1.3967
13246TIP3    H239684   1.736   3.490   6.528  1.1235 -0.5601  1.4351
13247TIP3   OH239685   3.952   0.125   5.211  0.1922 -0.5141  0.0600
13247TIP3    H139686   4.045   0.127   5.192  0.2543 -2.7234 -0.1855
13247TIP3    H239687   3.918   0.053   5.158 -1.3855 -0.6816  1.2020
13248TIP3   OH239688   7.709   3.716   4.159 -0.4527 -0.0868  0.6203
13248TIP3    H139689   7.791   3.668   4.166 -0.7686 -0.4221  2.5919
13248TIP3    H239690   7.730   3.804   4.190 -0.5272  0.2451 -0.2480
13249TIP3   OH239691   2.333   6.860   4.027 -0.0975 -0.2654 -0.1738
13249TIP3    H139692   2.325   6.955   4.028 -1.0803 -0.3405 -0.4216
13249TIP3    H239693   2.259   6.828   4.079  0.1394 -0.9023 -0.2118
13250TIP3   OH239694   4.242   5.515   2.186  0.3595 -0.1005 -0.7177
13250TIP3    H139695   4.178   5.513   2.115  0.2166 -0.5430 -0.5799
13250TIP3    H239696   4.211   5.584   2.245  0.4006  0.1681 -1.0097
13251TIP3   OH239697   6.072   0.614   4.509  0.2005 -0.2605 -0.1637
13251TIP3    H139698   6.061   0.645   4.598  1.9197 -0.3121  0.0958
13251TIP3    H239699   6.000   0.552   4.496 -1.9669  2.0372  0.0718
13252TIP3   OH239700   1.858   0.057   2.766 -0.0383  0.8447 -0.0895
13252TIP3    H139701   1.780   0.034   2.716  0.2112 -2.6037  0.8101
13252TIP3    H239702   1.920   0.092   2.702 -1.5612  1.6290 -1.1736
13253TIP3   OH239703   1.621   1.506   3.527 -0.0759  0.1657  0.7097
13253TIP3    H139704   1.660   1.593   3.516 -0.5060  0.1775 -1.0607
13253TIP3    H239705   1.656   1.474   3.610  5.6991 -0.7614 -1.6085
13254TIP3   OH239706   1.842   7.397   1.362 -0.6377 -0.3937 -0.4015
13254TIP3    H139707   1.774   7.463   1.380 -0.4167  0.1182 -1.3759
13254TIP3    H239708   1.817   7.359   1.278  0.3627 -0.0787 -0.8506
13255TIP3   OH239709   5.815   7.772   3.012 -0.1960 -0.2258  0.4633
13255TIP3    H139710   5.757   7.768   2.936 -1.6298  0.6523  1.4461
13255TIP3    H239711   5.871   7.848   2.996 -0.8830  0.3030  0.5310
13256TIP3   OH239712   5.318   7.338   2.482 -0.1661 -0.4333 -0.1771
13256TIP3    H139713   5.255   7.270   2.503 -0.1320 -0.5057 -0.3114
13256TIP3    H239714   5.391   7.292   2.440  1.2952 -0.8142  2.5146
13257TIP3   OH239715   7.075   5.071   2.643  0.0017 -0.0261  0.1981
13257TIP3    H139716   7.162   5.035   2.660 -0.3647 -0.7278  0.6380
13257TIP3    H239717   7.044   5.103   2.727 -0.2351  0.0723  0.0766
13258TIP3   OH239718   2.139   5.895   1.852 -0.5528 -0.5005  0.0492
13258TIP3    H139719   2.165   5.938   1.771  0.0282 -1.0207 -0.0447
13258TIP3    H239720   2.210   5.834   1.872 -0.5080 -0.1214  1.1459
13259TIP3   OH239721   4.959   2.474   3.955 -0.0751  0.1882  0.4507
13259TIP3    H139722   5.019   2.547   3.939  0.8221 -0.7653 -0.8247
13259TIP3    H239723   4.893   2.509   4.015  1.3215  1.5092  1.2909
13260TIP3   OH239724   6.283   2.763   6.273  1.1272  0.5686 -0.0590
13260TIP3    H139725   6.227   2.803   6.340 -1.3611 -1.3537 -0.8876
13260TIP3    H239726   6.271   2.669   6.284 -0.4237  0.1530 -3.9867
13261TIP3   OH239727   6.661   0.001   0.135 -0.5231 -0.1724  0.6348
13261TIP3    H139728   6.743   0.008   0.087 -1.3936 -0.8191 -1.0588
13261TIP3    H239729   6.685   0.011   0.227  1.4330 -0.3751  0.1861
13262TIP3   OH239730   3.600   6.489   6.407 -0.2389 -0.5009  0.1177
13262TIP3    H139731   3.670   6.501   6.470  0.1327 -1.6402 -0.0514
13262TIP3    H239732   3.639   6.512   6.322 -0.4513  0.0832  0.1724
13263TIP3   OH239733   2.359   2.915   2.018  0.5420 -0.2927 -0.1237
13263TIP3    H139734   2.402   2.915   2.104  1.5039  1.0618 -0.5756
13263TIP3    H239735   2.422   2.874   1.959  1.3998  1.9219 -0.8387
13264TIP3   OH239736   5.348   6.833   5.824 -0.1325 -0.2852  0.1000
13264TIP3    H139737   5.311   6.745   5.825  2.1610 -1.3291  0.6106
13264TIP3    H239738   5.317   6.873   5.905 -0.2782 -1.0413  0.4216
13265TIP3   OH239739   2.156   6.950   6.087  0.5863 -0.1187  0.2274
13265TIP3    H139740   2.173   7.019   6.151 -0.7736  0.7635 -0.3068
13265TIP3    H239741   2.191   6.871   6.127  1.7630  0.7946  1.0704
13266TIP3   OH239742   8.214   7.847   0.825 -0.0031 -0.2421 -0.8471
13266TIP3    H139743   8.296   7.801   0.807 -0.8641 -1.2484 -2.4171
13266TIP3    H239744   8.189   7.817   0.913  0.7046 -0.8471 -0.8409
13267TIP3   OH239745   5.761   6.801   1.716 -0.3550  0.1759 -0.5692
13267TIP3    H139746   5.809   6.883   1.706  0.7611 -0.6350 -2.5066
13267TIP3    H239747   5.816   6.749   1.775 -1.0096  0.7401  0.5734
13268TIP3   OH239748   4.411   7.413   5.375 -0.1631  0.5266 -0.3844
13268TIP3    H139749   4.424   7.398   5.469  1.3873 -0.2963 -0.6988
13268TIP3    H239750   4.319   7.390   5.360 -0.1674 -0.3068  0.7575
13269TIP3   OH239751   1.615   0.654   1.297  0.0819 -0.0004 -0.4080
13269TIP3    H139752   1.649   0.649   1.387 -0.0209  0.4176 -0.3460
13269TIP3    H239753   1.664   0.726   1.257  1.6498 -1.5025 -1.3379
13270TIP3   OH239754   2.560   1.112   3.823  0.3717 -0.1331 -0.5721
13270TIP3    H139755   2.561   1.018   3.841  0.3346 -0.1777 -0.7964
13270TIP3    H239756   2.648   1.130   3.789 -0.1660 -0.4191 -2.1751
13271TIP3   OH239757   7.784   4.349   1.476 -0.5583  0.3497  0.3074
13271TIP3    H139758   7.851   4.412   1.501  0.3751 -0.9839  1.3065
13271TIP3    H239759   7.724   4.347   1.550  0.2773 -1.0396  0.9852
13272TIP3   OH239760   2.700   2.498   1.436 -0.2172  0.3856 -0.2294
13272TIP3    H139761   2.619   2.447   1.431 -1.0853  1.5717  0.9509
13272TIP3    H239762   2.704   2.544   1.352  0.4049 -1.3151 -1.1727
13273TIP3   OH239763   5.629   1.327   4.129  0.4804 -0.0572 -0.5792
13273TIP3    H139764   5.600   1.261   4.192 -2.0354  0.3092 -1.2310
13273TIP3    H239765   5.705   1.287   4.086  2.3041 -0.2900  2.5948
13274TIP3   OH239766   8.176   6.775   2.359 -0.2315  0.6340  0.2828
13274TIP3    H139767   8.212   6.822   2.434 -0.0937  0.0610  0.5857
13274TIP3    H239768   8.231   6.801   2.285  0.2977  0.3883  0.5879
13275TIP3   OH239769   5.385   6.333   0.949 -0.0880  0.2219 -0.3401
13275TIP3    H139770   5.414   6.286   0.871  0.8027 -0.4305  0.3737
13275TIP3    H239771   5.457   6.393   0.969 -1.0628  1.6955 -1.0392
13276TIP3   OH239772   5.458   7.774   4.337  0.0580  0.6465  0.0982
13276TIP3    H139773   5.385   7.736   4.385 -0.4379  2.5472  0.9334
13276TIP3    H239774   5.513   7.699   4.314 -1.2074 -0.6258  1.0381
13277TIP3   OH239775   7.951   7.665   2.019  0.4135  0.0880  0.0784
13277TIP3    H139776   8.006   7.649   1.942 -0.1035 -0.7030 -0.1407
13277TIP3    H239777   7.865   7.684   1.984  0.6842  2.0897  0.3935
13278TIP3   OH239778   4.305   5.881   4.189  0.2509  0.4888  0.3011
13278TIP3    H139779   4.290   5.844   4.276  0.4075  0.2884  0.2452
13278TIP3    H239780   4.222   5.923   4.165  0.0388  0.0886  0.3265
13279TIP3   OH239781   0.106   6.358   3.474  0.1544 -0.0228 -0.3589
13279TIP3    H139782   0.077   6.375   3.564 -1.1213 -1.2923 -0.4999
13279TIP3    H239783   0.089   6.265   3.460 -0.0997  0.2432 -2.0622
13280TIP3   OH239784   2.114   1.482   3.208 -0.0532 -0.2474  0.2607
13280TIP3    H139785   2.056   1.480   3.285 -0.7429  1.0303 -0.2054
13280TIP3    H239786   2.201   1.462   3.244 -0.0563  1.9305  1.6964
13281TIP3   OH239787   0.294   2.215   0.398 -0.3825 -0.4182  0.2528
13281TIP3    H139788   0.202   2.222   0.372 -0.2797  2.2159  0.2876
13281TIP3    H239789   0.337   2.288   0.354  1.2669 -0.2906  1.9274
13282TIP3   OH239790   5.297   1.358   2.168  0.5079  0.0720 -0.2739
13282TIP3    H139791   5.337   1.397   2.090 -0.3145  1.6360  0.0432
13282TIP3    H239792   5.240   1.290   2.134  0.1324  0.7510 -1.0593
13283TIP3   OH239793   0.317   6.822   1.958  0.7005 -0.1760 -0.6809
13283TIP3    H139794   0.296   6.841   2.049  0.7648 -0.4748 -0.6028
13283TIP3    H239795   0.412   6.834   1.953  0.6682  0.0674 -0.7669
13284TIP3   OH239796   4.633   3.031   3.767  0.0444  0.1557  0.1713
13284TIP3    H139797   4.550   3.074   3.748 -0.2147 -0.6060 -0.4803
13284TIP3    H239798   4.674   3.017   3.681  2.6876  3.9714  0.5611
13285TIP3   OH239799   6.247   0.875   0.283  0.0135  0.1788 -0.2258
13285TIP3    H139800   6.318   0.876   0.347 -0.0601  0.0002 -0.1424
13285TIP3    H239801   6.212   0.786   0.287  1.5028 -0.5626 -2.1555
13286TIP3   OH239802   7.221   4.373   4.709 -0.7178 -0.4691 -0.6782
13286TIP3    H139803   7.302   4.328   4.734  0.0927  0.7100 -1.1426
13286TIP3    H239804   7.155   4.338   4.769  0.5122 -0.0844  0.9634
13287TIP3   OH239805   4.700   5.519   2.953 -0.6352 -0.0453  0.3357
13287TIP3    H139806   4.751   5.598   2.971  0.4379 -0.3279 -1.2584
13287TIP3    H239807   4.620   5.550   2.912 -0.0561  0.2367 -0.6295
13288TIP3   OH239808   4.155   5.180   6.139 -0.3322  0.4508  0.2695
13288TIP3    H139809   4.128   5.101   6.093  0.1158  1.2508 -1.4326
13288TIP3    H239810   4.243   5.161   6.171  0.0320  0.4741 -0.6980
13289TIP3   OH239811   6.303   2.112   3.238 -0.1271  0.1361  0.9226
13289TIP3    H139812   6.330   2.184   3.181 -0.4279 -1.5091 -1.4477
13289TIP3    H239813   6.377   2.052   3.238 -0.2955 -0.0949  1.9627
13290TIP3   OH239814   3.635   7.652   5.731  0.1877 -0.1277  0.1181
13290TIP3    H139815   3.582   7.697   5.666  1.7123  0.7642 -0.5568
13290TIP3    H239816   3.726   7.673   5.708  0.8523 -1.3984  1.3641
13291TIP3   OH239817   0.048   7.408   4.901 -0.2173  0.0238  1.2333
13291TIP3    H139818   0.034   7.318   4.930 -2.0760 -0.3453 -0.5773
13291TIP3    H239819  -0.029   7.456   4.932 -0.7014  0.3008 -0.3221
13292TIP3   OH239820   3.393   6.598   6.569  0.1982 -0.2175 -0.4045
13292TIP3    H139821   3.454   6.625   6.638 -0.6978 -1.2795  0.8537
13292TIP3    H239822   3.444   6.539   6.513 -0.0138 -2.3896  1.5553
13293TIP3   OH239823   7.810   5.385   3.482  0.3805 -0.4451  0.0208
13293TIP3    H139824   7.788   5.299   3.518  0.2776 -1.0031 -1.2929
13293TIP3    H239825   7.873   5.366   3.412  1.6452  0.7268  0.8026
13294TIP3   OH239826   4.103   3.090   4.458  0.5039 -0.1529 -0.3581
13294TIP3    H139827   4.080   2.997   4.463 -2.0076  0.4356  0.7535
13294TIP3    H239828   4.020   3.135   4.472  2.0619  2.2763  1.8314
13295TIP3   OH239829   2.496   0.466   0.662 -0.3553 -0.6333  0.1521
13295TIP3    H139830   2.516   0.394   0.722  0.4033 -0.7782 -0.2565
13295TIP3    H239831   2.538   0.543   0.701  0.6736 -0.8489 -0.4813
13296TIP3   OH239832   7.872   5.977   2.141  0.2422 -0.2430  0.0551
13296TIP3    H139833   7.914   6.003   2.058 -2.6439  0.1392 -1.4051
13296TIP3    H239834   7.852   6.060   2.184 -0.3104 -0.3638  0.0336
13297TIP3   OH239835   3.875   1.697   1.830 -0.4176  0.1752 -0.2164
13297TIP3    H139836   3.860   1.674   1.921 -0.3212  0.5405 -0.1069
13297TIP3    H239837   3.943   1.636   1.801 -0.8525 -0.3160 -0.2099
13298TIP3   OH239838   3.570   0.468   2.663 -0.5720  0.0603  0.2915
13298TIP3    H139839   3.587   0.386   2.709 -1.4585 -1.7416 -2.3902
13298TIP3    H239840   3.625   0.465   2.585 -2.3869  0.8345 -1.1157
13299TIP3   OH239841   4.704   2.542   1.509 -0.1779 -0.2644 -0.1713
13299TIP3    H139842   4.623   2.541   1.560  0.5877  2.4671  1.3252
13299TIP3    H239843   4.676   2.568   1.421 -1.1581 -1.8804 -0.3773
13300TIP3   OH239844   6.781   1.092   2.944  0.3881 -0.0813  0.6038
13300TIP3    H139845   6.703   1.037   2.936 -0.0084  0.6751 -1.4316
13300TIP3    H239846   6.850   1.043   2.900  0.4097  0.3755  0.1199
13301TIP3   OH239847   0.105   4.584   1.150  0.4111 -0.1368  0.5449
13301TIP3    H139848   0.072   4.554   1.065  1.0466 -0.0705  0.2677
13301TIP3    H239849   0.142   4.506   1.191  0.5246 -0.0795  0.5542
13302TIP3   OH239850   7.282   1.576   0.815  0.3398 -0.4703 -0.1979
13302TIP3    H139851   7.300   1.665   0.787  0.6373 -0.7579 -0.9569
13302TIP3    H239852   7.196   1.556   0.778  0.7236 -0.8452 -0.9022
13303TIP3   OH239853   6.087   2.398   1.650 -0.4362  0.2242 -0.3784
13303TIP3    H139854   6.066   2.309   1.622  1.8518 -0.9920  1.3913
13303TIP3    H239855   6.112   2.444   1.570  0.8410 -1.5233 -1.0324
13304TIP3   OH239856   7.533   4.185   3.752  0.6573  0.6167 -0.2952
13304TIP3    H139857   7.538   4.113   3.689  0.0591 -0.1120  0.4636
13304TIP3    H239858   7.599   4.164   3.818 -0.2407  0.1889  0.4892
13305TIP3   OH239859   6.807   0.545   6.063  0.4609  0.5091 -0.9912
13305TIP3    H139860   6.887   0.563   6.014 -0.4736  2.4274 -1.9275
13305TIP3    H239861   6.814   0.599   6.142  0.0570  0.7842 -1.1372
13306TIP3   OH239862   7.997   6.558   3.845  0.3922  0.2492 -0.1176
13306TIP3    H139863   7.953   6.533   3.926 -0.9522 -0.3922 -1.0193
13306TIP3    H239864   7.957   6.642   3.821  1.3417  0.8328  0.2636
13307TIP3   OH239865   5.863   5.918   2.846 -0.0150  0.1216 -0.2887
13307TIP3    H139866   5.785   5.968   2.873 -0.3138 -0.9835  0.9899
13307TIP3    H239867   5.845   5.894   2.755 -0.8180  0.5285 -0.2523
13308TIP3   OH239868   1.643   2.998   6.414 -0.0481 -0.1524 -0.3593
13308TIP3    H139869   1.639   2.911   6.452 -1.0547  0.0091 -0.0624
13308TIP3    H239870   1.663   2.983   6.321  0.8737 -0.6247 -0.0974
13309TIP3   OH239871   3.469   5.524   5.160  0.0326 -0.3341  0.0499
13309TIP3    H139872   3.550   5.566   5.191  0.4487 -0.0148 -1.4211
13309TIP3    H239873   3.425   5.592   5.109 -0.7920 -0.7608  0.1766
13310TIP3   OH239874   5.911   2.659   4.909 -0.2509  0.2917  0.0271
13310TIP3    H139875   5.970   2.593   4.873  0.3223  1.1422 -0.6325
13310TIP3    H239876   5.941   2.671   4.999  0.2143  0.2998 -0.1276
13311TIP3   OH239877   7.016   2.515   4.295  0.3498 -0.5168 -0.4330
13311TIP3    H139878   6.948   2.491   4.231  1.1390 -0.6749 -1.2445
13311TIP3    H239879   6.968   2.535   4.375 -0.6355 -0.8491 -0.9202
13312TIP3   OH239880   6.615   1.575   0.041 -0.2490  0.3916  0.5717
13312TIP3    H139881   6.578   1.489   0.019  0.9809 -0.4446  1.6690
13312TIP3    H239882   6.638   1.569   0.133 -0.5298  2.0698  0.7899
13313TIP3   OH239883   2.928   7.841   0.770  0.4624 -0.9542  0.2201
13313TIP3    H139884   2.961   7.768   0.718 -1.7357 -0.4879 -2.0535
13313TIP3    H239885   2.853   7.805   0.817  0.5085 -0.5856  0.5829
13314TIP3   OH239886   2.273   1.313   3.949  0.1029 -0.4523 -0.1552
13314TIP3    H139887   2.318   1.289   3.868  1.3159 -0.4598  0.4989
13314TIP3    H239888   2.338   1.298   4.018  0.0306  2.0703  0.5675
13315TIP3   OH239889   3.236   5.822   1.545 -0.0005 -0.1908  0.4166
13315TIP3    H139890   3.217   5.778   1.627  1.0124 -0.8302  0.3228
13315TIP3    H239891   3.313   5.876   1.563 -1.6627  2.2492  0.7539
13316TIP3   OH239892   2.220   0.795   1.957  0.3071  0.2207  1.1898
13316TIP3    H139893   2.172   0.855   1.901  0.5320  0.4199  1.2080
13316TIP3    H239894   2.157   0.767   2.023 -0.5018 -1.4351 -0.2025
13317TIP3   OH239895   1.813   2.988   2.790 -1.0263 -0.0818  0.1393
13317TIP3    H139896   1.891   3.043   2.805 -1.1238  1.1003 -3.0192
13317TIP3    H239897   1.848   2.900   2.776 -0.2442  0.4211 -1.1560
13318TIP3   OH239898   2.780   2.786   1.784  0.5086 -0.4294  0.3644
13318TIP3    H139899   2.873   2.788   1.809  1.1048  0.5008 -1.7037
13318TIP3    H239900   2.768   2.699   1.746  0.1530 -1.0448  1.8194
13319TIP3   OH239901   6.412   2.115   5.705 -0.2970  0.4909 -0.5558
13319TIP3    H139902   6.339   2.065   5.670 -0.9447  1.6858 -0.9814
13319TIP3    H239903   6.489   2.079   5.662 -0.7611 -0.0399 -0.9563
13320TIP3   OH239904   7.939   0.293   5.074 -0.1426 -0.0147 -0.2877
13320TIP3    H139905   7.860   0.253   5.110  0.5451  0.1510  1.4976
13320TIP3    H239906   8.000   0.297   5.148  1.7864 -0.7265 -1.7605
13321TIP3   OH239907   8.216   5.624   6.689  0.0792 -0.0579  0.1275
13321TIP3    H139908   8.205   5.599   6.597  1.9963 -0.6203  0.0037
13321TIP3    H239909   8.259   5.709   6.686  0.1427 -0.0762  0.4929
13322TIP3   OH239910   3.682   5.255   3.518 -0.6374 -0.2307 -0.1143
13322TIP3    H139911   3.688   5.263   3.423 -2.7237 -1.2878 -0.3736
13322TIP3    H239912   3.589   5.266   3.538 -0.4704 -1.5669  1.6365
13323TIP3   OH239913   1.306   3.226   2.989  0.1549  0.9116  0.4408
13323TIP3    H139914   1.247   3.173   3.042  1.0415  0.3283  0.8649
13323TIP3    H239915   1.380   3.168   2.970  0.3796  1.4755 -0.4798
13324TIP3   OH239916   5.952   4.267   5.369 -0.1619  0.1453 -0.0725
13324TIP3    H139917   5.969   4.341   5.427  1.2225  1.5176 -2.0470
13324TIP3    H239918   5.900   4.304   5.297 -1.5331 -1.3996  0.0653
13325TIP3   OH239919   6.944   1.382   5.513 -0.7020  0.2767 -0.0115
13325TIP3    H139920   7.020   1.423   5.555 -0.7698 -0.0849  0.4798
13325TIP3    H239921   6.882   1.368   5.585 -0.7188 -0.5881 -0.1800
13326TIP3   OH239922   1.121   6.342   6.163 -0.1363  0.1011  0.3760
13326TIP3    H139923   1.170   6.422   6.183 -1.3218  0.7204  0.8431
13326TIP3    H239924   1.120   6.338   6.067 -0.5205  0.9270  0.3445
13327TIP3   OH239925   7.243   1.138   5.179 -0.1392  0.1067  0.1925
13327TIP3    H139926   7.211   1.220   5.216 -0.7357 -0.2483  0.4845
13327TIP3    H239927   7.164   1.095   5.145 -0.2101 -1.3302  1.9875
13328TIP3   OH239928   7.642   4.411   5.626  0.1647  0.2265  0.1834
13328TIP3    H139929   7.631   4.317   5.641  1.5197  0.1465  0.8019
13328TIP3    H239930   7.591   4.453   5.695 -0.4037 -0.0338 -0.0661
13329TIP3   OH239931   1.412   3.237   1.268  0.5080 -0.3279 -0.2984
13329TIP3    H139932   1.460   3.318   1.254  0.7724 -0.2175  1.1270
13329TIP3    H239933   1.480   3.170   1.279  0.3167 -0.5097 -0.2113
13330TIP3   OH239934   4.963   6.044   3.076  0.5374 -0.3635  0.3269
13330TIP3    H139935   4.909   6.110   3.121  0.1064  0.1937 -0.9615
13330TIP3    H239936   4.965   5.970   3.136 -0.0755  0.3307  1.2395
13331TIP3   OH239937   6.462   2.459   0.870  0.3196 -0.0611  0.0499
13331TIP3    H139938   6.502   2.385   0.822  0.0443  0.0274 -0.3179
13331TIP3    H239939   6.483   2.441   0.962  0.0698 -0.7173 -0.0112
13332TIP3   OH239940   6.154   7.687   5.663  0.2445  0.2249  0.0941
13332TIP3    H139941   6.124   7.656   5.578 -0.1750 -1.4480  0.8217
13332TIP3    H239942   6.192   7.773   5.645 -1.8944  0.9269 -1.3975
13333TIP3   OH239943   0.783   3.811   6.608 -0.0414 -0.0541 -0.2865
13333TIP3    H139944   0.876   3.806   6.633 -0.0304 -1.4471 -0.4989
13333TIP3    H239945   0.784   3.822   6.513 -0.1017  1.1733 -0.1557
13334TIP3   OH239946   7.242   3.213   1.589 -0.6077  0.2818 -0.6452
13334TIP3    H139947   7.335   3.200   1.570 -0.3400  0.0470  0.7425
13334TIP3    H239948   7.212   3.128   1.622 -0.9601  0.7452  0.2563
13335TIP3   OH239949   7.842   3.287   6.469  0.0343  0.0101  0.1692
13335TIP3    H139950   7.784   3.354   6.505  1.2666 -0.0762  2.5257
13335TIP3    H239951   7.822   3.209   6.521  1.7201 -0.2002  0.5715
13336TIP3   OH239952   1.242   5.717   4.906  0.1608  0.4457 -0.2606
13336TIP3    H139953   1.334   5.699   4.923 -0.1194  0.1483  1.1083
13336TIP3    H239954   1.238   5.811   4.887  0.6484  0.6062  0.4173
13337TIP3   OH239955   7.552   1.202   2.578 -0.3292  0.1706 -0.4379
13337TIP3    H139956   7.613   1.133   2.604 -0.9515  0.2273  1.3221
13337TIP3    H239957   7.479   1.193   2.639 -0.7529  1.9512 -0.6374
13338TIP3   OH239958   6.227   6.092   0.474  0.0865  0.1566 -0.3235
13338TIP3    H139959   6.315   6.071   0.505 -0.1631 -0.5356 -0.0498
13338TIP3    H239960   6.231   6.185   0.452  0.6341  0.3707  0.5846
13339TIP3   OH239961   6.629   7.202   2.576  0.6585 -0.3792 -0.4504
13339TIP3    H139962   6.557   7.179   2.518  0.8571 -0.9419 -0.4812
13339TIP3    H239963   6.704   7.213   2.518  0.8579 -0.9405 -0.3074
13340TIP3   OH239964   2.466   5.242   6.066  0.3206 -0.4819  0.4957
13340TIP3    H139965   2.538   5.302   6.045 -1.8210  2.1177  0.1295
13340TIP3    H239966   2.437   5.269   6.154  0.0648 -1.8304  0.8523
13341TIP3   OH239967   5.561   4.091   1.055 -1.0590  0.3464 -0.9502
13341TIP3    H139968   5.539   4.109   0.964 -2.2121  1.0540 -0.5403
13341TIP3    H239969   5.533   4.168   1.103  0.4679  0.4170 -0.1047
13342TIP3   OH239970   1.882   6.901   6.344 -0.3851 -0.2125  0.7230
13342TIP3    H139971   1.843   6.846   6.412 -1.9540  0.9874  0.8483
13342TIP3    H239972   1.869   6.852   6.263  1.5676 -1.6885  1.2125
13343TIP3   OH239973   5.191   6.625   6.019  0.4804 -0.1425 -0.3357
13343TIP3    H139974   5.127   6.599   6.085  0.4403 -0.4682 -0.4979
13343TIP3    H239975   5.228   6.542   5.988 -0.9228 -0.1373 -2.1533
13344TIP3   OH239976   4.471   0.587   5.576  0.3103  0.2982 -0.5634
13344TIP3    H139977   4.484   0.564   5.668  0.9960  0.8307 -0.5220
13344TIP3    H239978   4.558   0.576   5.536  0.5665  2.2454 -0.6553
13345TIP3   OH239979   5.502   5.518   1.766 -0.1466  0.4677 -0.4350
13345TIP3    H139980   5.595   5.502   1.748 -0.3480 -1.6972  0.1902
13345TIP3    H239981   5.500   5.605   1.806  1.7054  0.2722  0.1771
13346TIP3   OH239982   1.143   4.646   0.704  0.4362  0.1386  0.0771
13346TIP3    H139983   1.199   4.571   0.687  0.8502  0.2805  0.7893
13346TIP3    H239984   1.100   4.625   0.787 -1.0784 -0.2699 -0.7747
13347TIP3   OH239985   2.006   4.145   4.068 -0.2706  0.6188  0.2703
13347TIP3    H139986   2.069   4.084   4.032 -1.7162  0.1867 -1.7107
13347TIP3    H239987   1.950   4.091   4.124 -1.2792  0.1484 -1.1345
13348TIP3   OH239988   7.077   2.665   2.245  0.0859 -0.3801  0.1674
13348TIP3    H139989   7.029   2.595   2.289 -1.4994 -0.2762 -1.2744
13348TIP3    H239990   7.037   2.745   2.279 -0.2358 -0.2743 -0.4332
13349TIP3   OH239991   0.851   1.136   0.706 -0.5975  0.4338  0.5374
13349TIP3    H139992   0.814   1.224   0.704 -1.4050  0.1017  0.4262
13349TIP3    H239993   0.788   1.082   0.657  0.3078 -0.0488 -0.1256
13350TIP3   OH239994   4.173   6.746   0.252  0.0839 -0.1668 -0.1109
13350TIP3    H139995   4.080   6.766   0.243 -0.0492 -0.8573 -0.3292
13350TIP3    H239996   4.206   6.811   0.315 -0.2988  0.8006 -0.8791
13351TIP3   OH239997   1.138   3.394   3.263  0.0740  0.0795  0.1348
13351TIP3    H139998   1.052   3.425   3.293  0.8757  3.1629 -0.3913
13351TIP3    H239999   1.196   3.410   3.337  0.9145  2.0259 -0.8657
13352TIP3   OH240000   7.579   7.622   1.638  0.5418  0.2398  0.2286
13352TIP3    H140001   7.571   7.572   1.557  1.2123  0.9697 -0.2985
13352TIP3    H240002   7.582   7.555   1.707  0.9712 -0.4239 -0.4238
13353TIP3   OH240003   2.019   4.444   1.210  0.3897 -0.2478  0.4506
13353TIP3    H140004   1.971   4.445   1.293 -0.2359  1.1937  0.1119
13353TIP3    H240005   1.953   4.468   1.144  1.1083 -0.3465 -0.3216
13354TIP3   OH240006   7.056   4.980   3.329  0.3974 -0.8922  0.2732
13354TIP3    H140007   7.019   5.045   3.389  0.8524 -0.0895 -0.2939
13354TIP3    H240008   7.045   5.019   3.242  3.1395 -0.2958  0.1144
13355TIP3   OH240009   6.355   6.430   5.678  0.3680 -0.1892 -0.0752
13355TIP3    H140010   6.285   6.402   5.620  0.9012  0.9303 -1.3160
13355TIP3    H240011   6.368   6.523   5.657  1.6741 -0.1683  0.6934
13356TIP3   OH240012   3.176   3.315   5.196  0.0318 -0.4757  0.1446
13356TIP3    H140013   3.272   3.306   5.192 -0.0605 -1.0527 -1.3560
13356TIP3    H240014   3.155   3.373   5.123 -0.7250  0.0523  0.7776
13357TIP3   OH240015   2.761   3.819   6.577 -0.3577 -0.2980 -0.1378
13357TIP3    H140016   2.850   3.823   6.542 -0.2141 -0.2394  0.2295
13357TIP3    H240017   2.725   3.907   6.563 -1.1286 -0.8933 -2.2649
13358TIP3   OH240018   7.355   1.642   4.641 -0.2495 -0.6895 -0.4230
13358TIP3    H140019   7.290   1.708   4.665 -1.7197 -1.1491 -2.8580
13358TIP3    H240020   7.310   1.558   4.651  0.9381 -1.2409  0.6255
13359TIP3   OH240021   3.469   5.686   2.879  0.3910  0.7621  0.0381
13359TIP3    H140022   3.414   5.700   2.956  1.6105  0.0496  1.0712
13359TIP3    H240023   3.407   5.683   2.806 -0.9767 -0.1949  1.1760
13360TIP3   OH240024   1.483   7.648   2.218 -0.1106 -0.0642 -0.0985
13360TIP3    H140025   1.390   7.650   2.244 -0.0473 -0.3425  0.1506
13360TIP3    H240026   1.520   7.574   2.266  0.5983  0.9792  1.0273
13361TIP3   OH240027   2.810   5.894   5.882 -0.4471 -0.0380  0.0866
13361TIP3    H140028   2.723   5.917   5.916 -0.8588  0.7129 -1.4150
13361TIP3    H240029   2.819   5.945   5.802  2.4850  2.0105  1.5355
13362TIP3   OH240030   0.597   2.819   0.194  0.2972  0.0675 -0.6058
13362TIP3    H140031   0.517   2.856   0.157 -0.9979 -2.0667 -0.1229
13362TIP3    H240032   0.618   2.876   0.268 -1.6051 -0.0786  0.1073
13363TIP3   OH240033   1.317   0.749   6.530  0.1834  0.9657  0.1534
13363TIP3    H140034   1.333   0.796   6.449 -0.1119  0.3787 -0.2557
13363TIP3    H240035   1.399   0.758   6.580  0.7355  0.5052 -0.6333
13364TIP3   OH240036   3.818   6.034   4.983  0.1857  0.0545  0.1777
13364TIP3    H140037   3.834   6.029   4.889 -0.5473  2.0511 -0.0891
13364TIP3    H240038   3.879   6.100   5.015  0.4989 -0.6741  1.1421
13365TIP3   OH240039   7.944   7.049   1.978 -0.0855  0.0178  0.2716
13365TIP3    H140040   7.920   6.972   2.030 -0.2582 -0.4207 -0.4457
13365TIP3    H240041   7.906   7.123   2.026  0.2235 -0.3264  1.0550
13366TIP3   OH240042   1.526   2.842   1.336 -0.0434 -0.7942 -0.5164
13366TIP3    H140043   1.574   2.765   1.367 -0.9853 -1.4634 -0.6916
13366TIP3    H240044   1.544   2.845   1.242  1.7106  0.4523 -0.1909
13367TIP3   OH240045   3.465   3.115   6.506 -0.4648 -0.3616  0.0457
13367TIP3    H140046   3.410   3.062   6.565 -0.4604 -0.0999  0.2896
13367TIP3    H240047   3.554   3.084   6.523 -0.4181 -0.0113  0.4792
13368TIP3   OH240048   4.712   2.420   0.835 -0.8492  0.5287  0.0526
13368TIP3    H140049   4.718   2.502   0.885  0.4059 -0.2031  1.1845
13368TIP3    H240050   4.622   2.390   0.848 -0.8452  0.8962  1.0271
13369TIP3   OH240051   5.729   3.152   4.769  0.2079  0.7980  0.6595
13369TIP3    H140052   5.681   3.124   4.847  0.2195 -0.8869  0.0826
13369TIP3    H240053   5.821   3.142   4.794  0.2644 -2.5541 -0.4395
13370TIP3   OH240054   6.306   0.141   5.888 -0.2711  0.8582 -0.0469
13370TIP3    H140055   6.354   0.086   5.951 -1.1752 -0.1963 -0.2539
13370TIP3    H240056   6.369   0.208   5.862  0.9125 -0.1626  0.1120
13371TIP3   OH240057   4.464   5.504   2.818  0.5547  0.0554  0.0988
13371TIP3    H140058   4.411   5.510   2.897  1.1494 -1.1256  0.6100
13371TIP3    H240059   4.438   5.421   2.778  1.5049 -0.2078 -0.0047
13372TIP3   OH240060   4.165   2.881   5.559 -0.0400 -0.0719 -0.4603
13372TIP3    H140061   4.192   2.870   5.650 -1.4077 -0.1420 -0.0523
13372TIP3    H240062   4.079   2.839   5.553 -1.0367  1.9442 -1.2018
13373TIP3   OH240063   3.681   7.596   2.737  0.7655 -0.4375 -0.0264
13373TIP3    H140064   3.640   7.554   2.662  1.4754 -0.9117 -0.1554
13373TIP3    H240065   3.613   7.653   2.772  0.4611 -0.1005 -1.1095
13374TIP3   OH240066   1.374   2.422   3.003  0.5083  0.0456  0.6932
13374TIP3    H140067   1.293   2.387   3.039 -0.6079  0.9079 -0.8839
13374TIP3    H240068   1.376   2.513   3.033  1.1258 -0.0890  1.0835
13375TIP3   OH240069   2.265   3.577   5.184 -0.6862 -0.2468 -0.1090
13375TIP3    H140070   2.278   3.484   5.170  0.7414 -0.3342  1.4677
13375TIP3    H240071   2.222   3.608   5.105  1.7512 -1.6426 -2.1157
13376TIP3   OH240072   4.147   6.346   1.738 -0.6596  0.2752  0.0162
13376TIP3    H140073   4.220   6.316   1.684 -0.9933  0.0823 -0.3409
13376TIP3    H240074   4.076   6.361   1.675 -0.9800  0.2911  0.3761
13377TIP3   OH240075   3.068   5.313   0.688 -0.2052 -0.4319 -0.8514
13377TIP3    H140076   3.001   5.296   0.753 -0.5292 -1.4951 -1.4253
13377TIP3    H240077   3.065   5.236   0.630  1.6615 -0.6445 -0.7532
13378TIP3   OH240078   0.568   1.969   4.512  0.5249  0.4545 -0.2963
13378TIP3    H140079   0.540   1.942   4.600 -0.3157  0.1510 -0.6500
13378TIP3    H240080   0.650   1.922   4.498  0.4188  0.1312  0.1350
13379TIP3   OH240081   0.967   0.677   0.578  0.4557  0.2946  0.1985
13379TIP3    H140082   1.003   0.748   0.632  1.6687  0.4920 -0.8166
13379TIP3    H240083   0.927   0.723   0.504  2.0612 -0.0496 -0.9479
13380TIP3   OH240084   6.377   4.153   0.884 -0.1718  0.0458 -0.0829
13380TIP3    H140085   6.341   4.100   0.813  0.7343  0.2308 -0.6918
13380TIP3    H240086   6.306   4.214   0.906 -0.0890  0.7262 -1.5931
13381TIP3   OH240087   5.185   3.723   0.973  0.1760  0.5025 -0.5146
13381TIP3    H140088   5.279   3.704   0.968  0.3896  0.4544  2.2942
13381TIP3    H240089   5.179   3.801   1.028 -1.4790 -0.3424  0.5893
13382TIP3   OH240090   5.592   3.956   0.061 -0.6155  0.2580 -0.0478
13382TIP3    H140091   5.676   4.002   0.066 -0.4238 -0.1526  0.7605
13382TIP3    H240092   5.536   4.004   0.122  0.2217 -1.8044  2.5198
13383TIP3   OH240093   2.121   5.727   6.499 -0.3098  0.0166  0.2841
13383TIP3    H140094   2.028   5.750   6.502 -0.0133  1.2104  2.0067
13383TIP3    H240095   2.137   5.685   6.584  0.7197 -0.2356 -0.0291
13384TIP3   OH240096   6.984   2.528   0.564 -0.4389  0.4072  0.0275
13384TIP3    H140097   7.035   2.506   0.486  0.5938  1.7395  0.2812
13384TIP3    H240098   6.894   2.505   0.541  0.3145 -3.0479 -0.0573
13385TIP3   OH240099   6.815   1.787   0.910  0.0369  0.2495 -0.1026
13385TIP3    H140100   6.775   1.873   0.925  1.4178  1.0729 -0.9922
13385TIP3    H240101   6.896   1.805   0.864 -0.3465 -1.6421 -1.6802
13386TIP3   OH240102   2.731   3.217   6.042  0.6657 -0.0215  0.4101
13386TIP3    H140103   2.811   3.198   6.091  0.6983  0.7004  0.6593
13386TIP3    H240104   2.699   3.299   6.080 -0.6054 -0.6918  0.8324
13387TIP3   OH240105   3.369   1.270   3.268  0.1905  0.1324 -0.1690
13387TIP3    H140106   3.440   1.231   3.319 -0.3113 -1.6414 -0.7569
13387TIP3    H240107   3.310   1.196   3.249 -2.2778  1.6470  1.0187
13388TIP3   OH240108   2.653   2.413   3.229 -0.1592 -0.4909  0.1175
13388TIP3    H140109   2.613   2.436   3.145 -0.2821 -2.0081 -0.2821
13388TIP3    H240110   2.740   2.452   3.227 -0.4299  0.0906 -0.4124
13389TIP3   OH240111   7.080   3.947   2.755 -0.9253  0.6870  0.0903
13389TIP3    H140112   7.154   3.894   2.783 -1.5593  0.4010  1.3082
13389TIP3    H240113   7.078   3.937   2.659 -0.6429 -0.9806  0.2289
13390TIP3   OH240114   0.220   4.860   2.096 -0.0393 -0.3807  0.1150
13390TIP3    H140115   0.127   4.840   2.098  0.1799 -1.4391  1.2848
13390TIP3    H240116   0.263   4.776   2.113  1.0466  0.4121  1.5975
13391TIP3   OH240117   3.233   0.637   1.179 -0.5906  0.2052 -0.4220
13391TIP3    H140118   3.238   0.542   1.192  0.4770  0.3999  0.7727
13391TIP3    H240119   3.180   0.668   1.253  1.8819  0.8671  1.1862
13392TIP3   OH240120   1.569   6.798   0.607 -0.1582  0.0059 -0.3493
13392TIP3    H140121   1.594   6.787   0.515  3.6357  2.3682  0.1685
13392TIP3    H240122   1.496   6.859   0.605  0.5307  0.8255 -1.7900
13393TIP3   OH240123   7.455   3.958   6.734 -0.4371 -0.2600 -0.0698
13393TIP3    H140124   7.460   3.885   6.795 -0.5013  0.5831  0.9754
13393TIP3    H240125   7.362   3.982   6.731 -0.4151 -0.2068 -0.3839
13394TIP3   OH240126   6.367   3.938   2.761  0.1191 -0.1684  0.5620
13394TIP3    H140127   6.427   3.928   2.687  0.2163  0.9885  0.4747
13394TIP3    H240128   6.295   3.878   2.741  0.7284 -0.7905  0.1540
13395TIP3   OH240129   2.454   0.710   3.436  0.3075 -0.3984 -0.2807
13395TIP3    H140130   2.462   0.805   3.446 -0.3825 -0.4205  0.5562
13395TIP3    H240131   2.510   0.674   3.506 -1.4460 -0.5746  1.1009
13396TIP3   OH240132   6.195   1.094   0.788  0.4065 -0.2384 -0.1274
13396TIP3    H140133   6.109   1.132   0.805  1.3256  1.8012  0.2991
13396TIP3    H240134   6.257   1.160   0.819  2.1409 -1.0835 -1.5856
13397TIP3   OH240135   3.132   6.930   5.191 -0.1671  0.4841 -0.6121
13397TIP3    H140136   3.043   6.942   5.159 -0.1245 -1.8600 -1.7668
13397TIP3    H240137   3.156   6.841   5.166  2.6325  1.1285 -0.6086
13398TIP3   OH240138   7.013   3.336   1.493  0.2710 -0.1351  0.5434
13398TIP3    H140139   7.082   3.322   1.558  0.1356 -1.3324  0.4434
13398TIP3    H240140   7.058   3.374   1.418  0.7536 -0.5103  0.6371
13399TIP3   OH240141   6.134   7.270   0.630 -0.2383  0.3690 -0.3359
13399TIP3    H140142   6.088   7.194   0.665 -0.8325  0.0261 -1.7832
13399TIP3    H240143   6.066   7.327   0.595  0.3215  0.5738 -1.1428
13400TIP3   OH240144   5.683   3.951   0.725 -0.2501  0.1694 -0.1158
13400TIP3    H140145   5.707   3.878   0.781 -0.2776 -1.1627 -1.7767
13400TIP3    H240146   5.656   3.911   0.643  0.0064  2.0608 -1.1798
13401TIP3   OH240147   1.684   7.373   3.389  0.0680  0.0423  0.6731
13401TIP3    H140148   1.754   7.325   3.343  1.6762  1.5345  1.4378
13401TIP3    H240149   1.676   7.455   3.341 -0.9298  0.0370  0.8189
13402TIP3   OH240150   1.573   2.086   5.236 -0.2832  0.1374 -0.1271
13402TIP3    H140151   1.586   1.991   5.225  0.3486  0.1200  0.6704
13402TIP3    H240152   1.661   2.122   5.241 -0.5210  0.7855 -0.4655
13403TIP3   OH240153   0.377   1.874   1.247 -0.4020  0.0239 -0.1077
13403TIP3    H140154   0.319   1.928   1.302 -1.1530  0.3679 -1.2039
13403TIP3    H240155   0.462   1.878   1.292 -0.7283  1.1607  0.4672
13404TIP3   OH240156   1.000   3.585   1.309 -0.0791  0.0884 -0.4758
13404TIP3    H140157   0.942   3.551   1.240  0.0310  0.1687 -0.6079
13404TIP3    H240158   1.088   3.566   1.278  0.0760  2.0105 -1.3772
13405TIP3   OH240159   4.840   5.266   5.903 -0.2486  0.3392 -0.4519
13405TIP3    H140160   4.805   5.354   5.919  0.6185  1.0099 -2.0092
13405TIP3    H240161   4.798   5.238   5.821 -0.0054 -0.4135 -0.3302
13406TIP3   OH240162   7.170   3.118   0.508 -0.5585  0.1870 -0.4757
13406TIP3    H140163   7.152   3.162   0.591 -1.0175  1.0402 -1.0161
13406TIP3    H240164   7.096   3.142   0.452 -0.7263 -1.1238 -0.8487
13407TIP3   OH240165   4.950   3.704   5.457  0.2840  0.6334  0.2088
13407TIP3    H140166   4.998   3.779   5.492  2.7832 -0.2772 -1.0457
13407TIP3    H240167   4.906   3.739   5.379  1.6815  0.7868 -0.5440
13408TIP3   OH240168   5.799   3.278   0.106 -0.6480 -0.4110  0.4084
13408TIP3    H140169   5.807   3.223   0.028  1.5756  0.9433 -0.4010
13408TIP3    H240170   5.717   3.325   0.093 -0.5075 -0.4896 -0.9390
13409TIP3   OH240171   8.219   5.952   0.886  0.3331  0.2270 -0.3358
13409TIP3    H140172   8.213   6.048   0.879  3.9021  0.7144  1.0201
13409TIP3    H240173   8.305   5.931   0.849 -0.6771 -2.6060 -1.3232
13410TIP3   OH240174   5.995   5.165   4.857  0.2498 -0.3295  0.0600
13410TIP3    H140175   5.951   5.082   4.877 -2.4500  1.1794  0.8579
13410TIP3    H240176   6.077   5.160   4.905 -0.4534 -1.9967  1.2001
13411TIP3   OH240177   1.845   4.545   0.140  0.3260 -0.0594 -0.1688
13411TIP3    H140178   1.865   4.638   0.150  0.7216 -0.1704  0.0909
13411TIP3    H240179   1.768   4.543   0.084  0.2488  0.4307 -0.0839
13412TIP3   OH240180   0.211   6.583   6.473 -0.1904 -0.2538  0.5854
13412TIP3    H140181   0.173   6.590   6.386 -0.0955  0.2200  0.5825
13412TIP3    H240182   0.191   6.666   6.516  1.5575  0.3730  0.2901
13413TIP3   OH240183   4.823   6.424   4.817  0.0963  0.2592  0.1485
13413TIP3    H140184   4.892   6.490   4.815  1.7074 -1.3259  0.4685
13413TIP3    H240185   4.811   6.399   4.726 -1.3617  1.7856 -0.1065
13414TIP3   OH240186   6.496   7.391   6.602  0.7518 -0.4022  0.2263
13414TIP3    H140187   6.555   7.460   6.632  2.3927 -0.4696 -2.5134
13414TIP3    H240188   6.539   7.355   6.524 -1.8646 -2.0055 -0.5891
13415TIP3   OH240189   0.543   5.047   0.667  0.1841 -0.4062  0.6736
13415TIP3    H140190   0.566   5.046   0.574 -1.2624 -0.5498  0.2896
13415TIP3    H240191   0.461   4.997   0.672 -0.3036  0.4631  1.8682
13416TIP3   OH240192   1.346   1.712   2.584  0.6388  0.3661 -0.0929
13416TIP3    H140193   1.422   1.668   2.545 -1.2102  0.1617 -3.9282
13416TIP3    H240194   1.352   1.802   2.554 -0.5502  0.3782 -0.3482
13417TIP3   OH240195   5.689   2.268   5.125  0.1189  0.4769 -0.2780
13417TIP3    H140196   5.726   2.326   5.059  1.6434 -1.1679 -0.9705
13417TIP3    H240197   5.765   2.236   5.174 -0.6606 -0.7782  0.1767
13418TIP3   OH240198   1.563   5.217   5.489  0.4100  0.1136  0.4213
13418TIP3    H140199   1.658   5.205   5.487  0.5464  1.1780  0.0390
13418TIP3    H240200   1.550   5.310   5.473 -0.7675 -0.3812 -1.9251
13419TIP3   OH240201   4.558   6.742   1.712 -0.2993 -0.4271  0.3325
13419TIP3    H140202   4.648   6.715   1.692 -0.8122 -2.2140  0.2227
13419TIP3    H240203   4.518   6.664   1.751 -2.3105 -0.3137 -1.2855
13420TIP3   OH240204   3.064   6.804   6.483 -0.2772 -0.4168  0.2776
13420TIP3    H140205   2.988   6.765   6.527 -0.6566  0.0485  0.0486
13420TIP3    H240206   3.120   6.835   6.555  0.4939 -2.2065  0.4847
13421TIP3   OH240207   7.022   2.810   0.468 -0.0032  0.1591  0.3997
13421TIP3    H140208   7.000   2.720   0.446  0.8985 -0.5109  2.0114
13421TIP3    H240209   6.938   2.853   0.482 -0.4468 -0.3973 -0.4946
13422TIP3   OH240210   6.470   6.379   6.526  0.2475 -0.1854 -0.2618
13422TIP3    H140211   6.445   6.467   6.498  1.4123 -0.1231 -1.1829
13422TIP3    H240212   6.407   6.322   6.483 -0.4562  0.1788  0.2632
13423TIP3   OH240213   5.397   5.325   2.397 -0.3838 -0.3413  0.0512
13423TIP3    H140214   5.310   5.285   2.395 -0.6551  0.2521 -0.4518
13423TIP3    H240215   5.385   5.405   2.449  0.4309 -1.5054  2.1388
13424TIP3   OH240216   1.103   0.584   5.567  1.1148  0.4673  0.3339
13424TIP3    H140217   1.145   0.662   5.532 -0.4034  0.8298 -0.7625
13424TIP3    H240218   1.174   0.520   5.575  2.0397  1.3493 -0.5542
13425TIP3   OH240219   5.858   1.292   5.979 -0.2659  0.2637  0.1843
13425TIP3    H140220   5.804   1.231   6.030 -1.3079  0.1810 -0.9849
13425TIP3    H240221   5.929   1.237   5.945 -0.9415 -0.2341 -0.4736
13426TIP3   OH240222   7.870   6.224   3.857 -0.1591  0.2631 -0.5152
13426TIP3    H140223   7.782   6.247   3.887 -0.1738 -0.4307  0.0225
13426TIP3    H240224   7.857   6.187   3.770 -0.6375 -1.3555  0.1874
13427TIP3   OH240225   6.932   3.610   0.428 -0.1673 -0.3472 -0.2705
13427TIP3    H140226   6.919   3.695   0.471  0.8340 -0.7126  0.8076
13427TIP3    H240227   6.853   3.597   0.376  0.5152  2.2202 -2.1644
13428TIP3   OH240228   5.149   0.825   5.145  0.0130  0.0877  0.3654
13428TIP3    H140229   5.113   0.772   5.073 -0.0844 -0.4418  0.7977
13428TIP3    H240230   5.111   0.912   5.132  1.2618  0.4466 -1.1632
13429TIP3   OH240231   6.309   6.755   1.164 -0.1256 -0.1116  0.4245
13429TIP3    H140232   6.231   6.747   1.219  0.8161 -1.7316  1.6150
13429TIP3    H240233   6.374   6.699   1.207  1.4459  0.5645 -0.9776
13430TIP3   OH240234   1.059   2.215   2.014  0.4111  0.5194 -0.9074
13430TIP3    H140235   1.073   2.217   2.108 -0.7230  0.0053 -0.7098
13430TIP3    H240236   1.137   2.256   1.977  1.1839  0.1049  0.2162
13431TIP3   OH240237   5.856   6.451   0.658 -0.5038  0.2424 -0.2351
13431TIP3    H140238   5.836   6.527   0.603  0.6114 -0.4195 -1.6061
13431TIP3    H240239   5.909   6.486   0.730 -0.4660  0.8431 -0.5506
13432TIP3   OH240240   8.106   3.558   2.670 -0.3139 -0.8190 -0.0430
13432TIP3    H140241   8.139   3.552   2.760 -1.8578  0.2186  0.6387
13432TIP3    H240242   8.050   3.481   2.660 -0.3086 -0.8214 -0.0543
13433TIP3   OH240243   6.094   0.919   2.086  0.7232  0.1766  0.1698
13433TIP3    H140244   6.167   0.948   2.141  1.4591 -0.5284 -0.4171
13433TIP3    H240245   6.133   0.907   1.999 -0.1418  0.0055 -0.2028
13434TIP3   OH240246   3.719   4.164   3.996  0.2390 -0.1546 -0.3265
13434TIP3    H140247   3.660   4.100   3.957 -1.2912  1.1443 -0.2195
13434TIP3    H240248   3.720   4.237   3.934  1.5223 -0.0115 -0.1845
13435TIP3   OH240249   1.699   3.087   1.502 -0.3414  0.6612 -0.4407
13435TIP3    H140250   1.685   2.997   1.472  2.0678  0.7089 -1.9188
13435TIP3    H240251   1.739   3.078   1.588  0.8788  0.2735 -1.0390
13436TIP3   OH240252   4.789   3.511   2.139  0.5673  0.1664 -0.0020
13436TIP3    H140253   4.793   3.417   2.159 -0.8552  0.0737 -0.0454
13436TIP3    H240254   4.823   3.554   2.217 -1.3713 -0.3211  1.1750
13437TIP3   OH240255   3.507   1.919   2.857  0.2627  0.7978 -0.0117
13437TIP3    H140256   3.513   1.986   2.790  1.8708 -0.9680 -1.7425
13437TIP3    H240257   3.548   1.958   2.934  0.3987  2.0731 -0.6985
13438TIP3   OH240258   6.062   4.686   5.653  0.1310  0.2545  0.0744
13438TIP3    H140259   6.132   4.631   5.690 -0.3046 -0.4344 -0.0980
13438TIP3    H240260   6.056   4.761   5.712  1.9344  1.0126 -0.6498
13439TIP3   OH240261   4.085   2.270   6.324 -0.0734  0.1354 -0.1484
13439TIP3    H140262   4.064   2.321   6.246 -0.6844  0.9889  0.5571
13439TIP3    H240263   4.019   2.296   6.389  0.4913 -0.4640  0.6938
13440TIP3   OH240264   4.836   1.125   4.834  0.3385  0.0734 -0.2605
13440TIP3    H140265   4.789   1.170   4.904 -0.8373 -2.0405  0.3885
13440TIP3    H240266   4.773   1.062   4.799  1.6472 -0.5128 -1.6743
13441TIP3   OH240267   2.777   7.553   4.618  0.0373 -0.6753  0.2798
13441TIP3    H140268   2.817   7.470   4.592  0.6272  0.0920 -1.4574
13441TIP3    H240269   2.849   7.605   4.652 -0.0796 -0.4058  0.1148
13442TIP3   OH240270   7.850   2.144   5.461  0.5345 -0.0241 -1.1153
13442TIP3    H140271   7.825   2.119   5.550 -0.0902  0.8864 -1.0180
13442TIP3    H240272   7.929   2.093   5.443  1.8865  1.2532  0.7363
13443TIP3   OH240273   0.094   2.948   1.204  0.2907 -0.0488 -0.2663
13443TIP3    H140274   0.065   2.861   1.176  0.4973 -0.0237 -0.5635
13443TIP3    H240275   0.043   3.008   1.150 -0.1665  0.0221  0.2466
13444TIP3   OH240276   7.564   1.338   1.587 -0.4116  0.0520 -0.3522
13444TIP3    H140277   7.558   1.380   1.673  0.1768 -1.3218  0.3824
13444TIP3    H240278   7.512   1.258   1.594  0.0212 -0.3156 -1.1246
13445TIP3   OH240279   5.825   4.338   5.765 -0.4522 -0.6046 -0.6345
13445TIP3    H140280   5.792   4.253   5.793 -1.6609 -0.5658 -1.8617
13445TIP3    H240281   5.781   4.356   5.683 -0.4757  1.3651 -0.2531
13446TIP3   OH240282   2.379   3.052   5.385  0.6102  0.1407  0.5775
13446TIP3    H140283   2.381   3.000   5.466  0.0360 -1.2259 -0.2478
13446TIP3    H240284   2.387   2.987   5.315  2.0647  1.3689 -0.4666
13447TIP3   OH240285   4.412   7.761   4.035  0.0699 -0.3757 -0.0592
13447TIP3    H140286   4.444   7.681   4.077  0.0655 -0.0909  0.4979
13447TIP3    H240287   4.330   7.781   4.080  0.4432  0.3463  0.3167
13448TIP3   OH240288   2.734   0.177   0.225  0.4530  0.0062 -0.3881
13448TIP3    H140289   2.713   0.177   0.318 -0.6295  1.1322 -0.5970
13448TIP3    H240290   2.667   0.233   0.185  1.4230  0.2894 -1.7160
13449TIP3   OH240291   3.418   4.698   4.772 -0.4987 -0.2775 -0.1437
13449TIP3    H140292   3.502   4.714   4.728 -0.4597  1.0868  0.3602
13449TIP3    H240293   3.435   4.718   4.864 -1.2502 -0.5123  0.0516
13450TIP3   OH240294   3.890   6.057   1.548 -0.3247  1.0678 -0.1388
13450TIP3    H140295   3.856   6.006   1.621 -0.7155 -0.1320 -1.1107
13450TIP3    H240296   3.824   6.047   1.479  1.2937 -0.2093 -1.6082
13451TIP3   OH240297   6.221   3.016   5.670  0.3590  0.3607  0.1273
13451TIP3    H140298   6.298   2.967   5.698  0.0497 -0.6652 -0.7638
13451TIP3    H240299   6.251   3.069   5.596  0.2085 -0.0496 -0.2285
13452TIP3   OH240300   0.190   1.971   2.426 -0.0576 -0.2179  0.1083
13452TIP3    H140301   0.112   1.943   2.377  0.2322  0.9818 -1.1059
13452TIP3    H240302   0.161   1.974   2.517 -1.2427 -0.4554 -0.2433
13453TIP3   OH240303   8.187   2.644   0.566  0.4040  0.1267 -0.1827
13453TIP3    H140304   8.208   2.551   0.575  1.3030  0.3852  0.6111
13453TIP3    H240305   8.093   2.646   0.551  0.1258 -0.8559  1.2074
13454TIP3   OH240306   7.015   6.834   0.138  0.2656 -0.2831  0.0983
13454TIP3    H140307   6.981   6.923   0.143 -0.3621 -0.5091 -0.0068
13454TIP3    H240308   6.940   6.782   0.109  0.1860 -1.0999  1.6601
13455TIP3   OH240309   7.614   5.503   0.515  0.0731 -0.1749  0.1603
13455TIP3    H140310   7.627   5.597   0.524  2.8621 -0.4643 -0.1261
13455TIP3    H240311   7.643   5.465   0.598  0.9311 -0.8933 -0.4404
13456TIP3   OH240312   8.086   0.633   5.471  0.1014  0.1033 -0.0302
13456TIP3    H140313   8.064   0.566   5.535  0.7563 -0.1450 -0.0550
13456TIP3    H240314   8.013   0.695   5.475 -0.8770 -0.9920 -0.5531
13457TIP3   OH240315   1.535   4.056   6.697 -0.1190 -0.2282 -0.1379
13457TIP3    H140316   1.553   4.130   6.639 -1.6729  1.3049  1.2549
13457TIP3    H240317   1.492   4.094   6.773 -0.6194 -2.5341  0.8225
13458TIP3   OH240318   3.197   0.315   6.249 -0.1221  0.4635  0.0236
13458TIP3    H140319   3.242   0.357   6.322  0.3285  0.9395 -0.5282
13458TIP3    H240320   3.265   0.265   6.204 -0.6027 -0.7031  0.5344
13459TIP3   OH240321   3.883   4.777   3.844 -0.7403 -0.2320  0.1205
13459TIP3    H140322   3.846   4.795   3.758  1.0867 -0.7418 -0.8297
13459TIP3    H240323   3.959   4.836   3.850 -0.5721 -0.5279  1.1865
13460TIP3   OH240324   3.422   4.885   3.641  0.6049  0.3240 -0.3420
13460TIP3    H140325   3.452   4.901   3.730  0.4099  1.1101 -0.4083
13460TIP3    H240326   3.437   4.792   3.626  0.3966  0.1383  0.6022
13461TIP3   OH240327   2.087   6.863   2.471 -0.1205 -0.2194 -0.3728
13461TIP3    H140328   2.132   6.917   2.405 -0.6707  1.1080  0.2933
13461TIP3    H240329   1.996   6.860   2.442 -0.2908  0.0568  0.1210
13462TIP3   OH240330   7.890   6.122   6.437  0.1351 -0.3673  0.0443
13462TIP3    H140331   7.890   6.100   6.344 -0.2897 -3.0715  0.6046
13462TIP3    H240332   7.936   6.206   6.441  2.8622 -1.5366 -2.3208
13463TIP3   OH240333   5.314   5.758   4.308 -0.1472  0.0572 -0.3498
13463TIP3    H140334   5.327   5.829   4.371  0.3950 -0.0029 -0.3908
13463TIP3    H240335   5.237   5.711   4.341  0.8747 -0.7564  1.0157
13464TIP3   OH240336   0.064   4.440   2.518 -0.3134  0.3389  0.1194
13464TIP3    H140337   0.085   4.383   2.444 -0.9750 -0.3883  0.4726
13464TIP3    H240338  -0.031   4.451   2.513 -0.3502  0.3620  0.8055
13465TIP3   OH240339   0.206   1.084   4.911  0.2860  0.0697  0.4268
13465TIP3    H140340   0.278   1.045   4.960  0.3070 -0.0102  0.3322
13465TIP3    H240341   0.230   1.072   4.819  0.1828  0.1000  0.3960
13466TIP3   OH240342   5.190   3.487   0.606 -0.6436  0.2036  0.5567
13466TIP3    H140343   5.250   3.461   0.675  1.2837  2.0473 -0.3207
13466TIP3    H240344   5.140   3.560   0.643 -0.3492  0.5045  0.3679
13467TIP3   OH240345   2.947   5.492   1.088 -0.2336  0.0958 -0.1791
13467TIP3    H140346   2.897   5.421   1.049  0.2681 -0.1315 -0.4208
13467TIP3    H240347   3.001   5.449   1.155 -0.1684  0.2958 -0.1021
13468TIP3   OH240348   6.333   3.983   4.153  0.3199 -0.5043  0.7883
13468TIP3    H140349   6.409   4.033   4.125  0.1252  0.6294  2.1571
13468TIP3    H240350   6.273   3.987   4.078  0.6565  0.6242  0.5582
13469TIP3   OH240351   8.045   5.883   0.651 -0.7111 -0.2791 -0.7866
13469TIP3    H140352   8.022   5.976   0.657  0.8788  0.2413 -1.9933
13469TIP3    H240353   7.967   5.837   0.681 -1.3272  1.4528  0.4096
13470TIP3   OH240354   3.071   3.896   2.075 -0.0904 -0.0721 -0.1677
13470TIP3    H140355   2.994   3.866   2.124 -1.1918  1.3243 -0.9647
13470TIP3    H240356   3.141   3.899   2.141 -0.4353 -2.2174  0.3894
13471TIP3   OH240357   7.815   5.448   1.910  0.3946  0.0895  0.9626
13471TIP3    H140358   7.766   5.444   1.828  0.1662 -0.9782  1.1473
13471TIP3    H240359   7.799   5.364   1.952  1.0464  0.3743  1.7985
13472TIP3   OH240360   7.157   6.909   6.468  0.3650 -0.3993  0.0895
13472TIP3    H140361   7.149   6.896   6.374 -1.8129 -0.0578  0.1674
13472TIP3    H240362   7.166   6.821   6.504 -1.3734 -0.7636 -0.2861
13473TIP3   OH240363   3.758   4.933   2.021  0.1971 -0.7763  1.0183
13473TIP3    H140364   3.747   4.995   2.093 -0.2538 -0.2991  0.5509
13473TIP3    H240365   3.683   4.874   2.028 -0.9655  0.4695 -0.2064
13474TIP3   OH240366   2.644   1.063   4.914 -0.2014 -0.0509  0.1771
13474TIP3    H140367   2.600   0.980   4.934 -1.2913  0.3305 -0.5447
13474TIP3    H240368   2.729   1.037   4.881 -0.5711 -0.8984 -0.1394
13475TIP3   OH240369   8.165   4.706   3.691 -0.2617 -0.2249 -0.1922
13475TIP3    H140370   8.230   4.777   3.696  0.2328 -0.7326  0.9762
13475TIP3    H240371   8.082   4.751   3.679 -0.0169  0.6194  1.0228
13476TIP3   OH240372   1.968   3.700   3.498  0.4053  0.0777  0.1556
13476TIP3    H140373   1.876   3.727   3.504  0.8202  1.7862 -0.4916
13476TIP3    H240374   1.966   3.625   3.438 -0.3622  1.5237 -1.7455
13477TIP3   OH240375   1.003   2.903   1.516  0.0543 -0.1525  0.2678
13477TIP3    H140376   1.025   2.812   1.537  0.8506  0.2891  1.4468
13477TIP3    H240377   1.025   2.952   1.595  0.7177  1.2273 -0.7255
13478TIP3   OH240378   7.364   7.598   2.901  0.1347 -0.1013 -0.3084
13478TIP3    H140379   7.335   7.662   2.966  0.3910 -0.7787  0.4961
13478TIP3    H240380   7.356   7.643   2.817  0.8735  1.1821  0.2872
13479TIP3   OH240381   1.021   6.849   4.515  0.3506 -0.1686  0.2466
13479TIP3    H140382   0.955   6.836   4.447  0.1466  2.9570 -0.3063
13479TIP3    H240383   0.976   6.899   4.583  1.6865  0.4697  0.6902
13480TIP3   OH240384   3.176   6.225   0.503 -0.4770  0.2265 -0.3544
13480TIP3    H140385   3.237   6.294   0.529 -0.2481 -0.1237  0.0475
13480TIP3    H240386   3.232   6.156   0.465 -0.4655 -0.6469  1.1688
13481TIP3   OH240387   7.450   7.009   3.297 -0.4406  0.5568  0.7898
13481TIP3    H140388   7.522   7.036   3.240  0.7879 -1.2697  1.3697
13481TIP3    H240389   7.377   6.991   3.237  0.8222 -1.3224 -0.2891
13482TIP3   OH240390   3.919   7.684   6.387 -0.7942  0.1543 -0.1366
13482TIP3    H140391   4.011   7.708   6.390 -1.1499  1.5465  0.5184
13482TIP3    H240392   3.874   7.755   6.433 -2.1529 -0.7006 -0.0797
13483TIP3   OH240393   7.862   6.545   4.390  0.2194  0.0781  0.0646
13483TIP3    H140394   7.778   6.587   4.372 -1.3160 -3.1246 -0.9355
13483TIP3    H240395   7.905   6.604   4.452 -2.4213  2.1996  0.0802
13484TIP3   OH240396   1.758   4.625   4.152 -0.0292 -0.5008  0.0394
13484TIP3    H140397   1.836   4.642   4.100 -0.6245 -1.1770 -1.1210
13484TIP3    H240398   1.767   4.534   4.181  1.2356  0.4115  2.8524
13485TIP3   OH240399   5.345   4.994   2.124  0.1822  0.0364 -0.3672
13485TIP3    H140400   5.417   4.944   2.086  0.2516  1.8087 -2.8264
13485TIP3    H240401   5.371   5.086   2.114 -1.1609  0.6845  1.3855
13486TIP3   OH240402   3.300   7.059   0.118  0.0003 -0.0865 -0.7539
13486TIP3    H140403   3.359   7.020   0.183  1.5723  0.0734 -2.0263
13486TIP3    H240404   3.315   7.153   0.125 -1.3872  0.0996  0.0682
13487TIP3   OH240405   1.193   7.666   5.176 -0.1898 -0.0182 -0.1619
13487TIP3    H140406   1.283   7.686   5.149  0.3162 -1.5551  0.2883
13487TIP3    H240407   1.156   7.617   5.102  0.0911 -1.3120  0.5350
13488TIP3   OH240408   3.754   0.404   2.463  0.3213  0.8858  0.2103
13488TIP3    H140409   3.708   0.412   2.379  0.4193  1.7784  0.2250
13488TIP3    H240410   3.836   0.451   2.449  0.9539 -0.1396  0.3870
13489TIP3   OH240411   6.203   7.452   5.847 -0.1231 -0.0174 -0.0036
13489TIP3    H140412   6.160   7.530   5.812 -0.5140 -0.7329 -1.1810
13489TIP3    H240413   6.136   7.410   5.901  0.8000  1.6464  2.6441
13490TIP3   OH240414   2.056   0.127   5.595  0.4555  0.2746 -0.2559
13490TIP3    H140415   2.003   0.172   5.660 -1.1193  0.0867 -1.3547
13490TIP3    H240416   2.122   0.191   5.568 -2.0166  2.2547 -2.1570
13491TIP3   OH240417   8.156   4.850   5.523 -0.7722 -0.5767  0.4242
13491TIP3    H140418   8.140   4.876   5.614 -2.4106 -1.8838  0.5657
13491TIP3    H240419   8.180   4.931   5.478  1.5412 -0.1366  2.2813
13492TIP3   OH240420   0.439   4.390   5.924  0.1146  0.1289 -0.4492
13492TIP3    H140421   0.530   4.395   5.955 -0.5842  0.9988  1.6409
13492TIP3    H240422   0.412   4.300   5.942 -0.0407  0.4173  0.8845
13493TIP3   OH240423   1.818   2.475   2.239  0.2142 -0.0285 -0.0808
13493TIP3    H140424   1.801   2.553   2.186  0.7314 -0.2641 -0.6043
13493TIP3    H240425   1.735   2.457   2.282 -0.4730 -0.3127 -1.4489
13494TIP3   OH240426   1.867   4.981   1.722  0.1315  0.1438 -0.0045
13494TIP3    H140427   1.854   5.070   1.755 -1.3522  0.0908 -0.3869
13494TIP3    H240428   1.880   4.992   1.628 -0.4694 -0.0669 -0.1150
13495TIP3   OH240429   7.210   7.104   6.204 -0.4326 -0.1647 -0.2336
13495TIP3    H140430   7.128   7.056   6.190  0.0202 -0.9012 -0.3899
13495TIP3    H240431   7.182   7.187   6.243 -1.1745 -0.9199  0.9160
13496TIP3   OH240432   3.402   1.465   2.798  0.9512  0.4483  0.2099
13496TIP3    H140433   3.349   1.544   2.811 -0.1037 -0.4918  2.0582
13496TIP3    H240434   3.360   1.420   2.725  0.6899  0.8977  0.0799
13497TIP3   OH240435   5.629   5.608   4.150  0.0344 -0.3969  0.0560
13497TIP3    H140436   5.690   5.563   4.092  1.5329  1.3386  0.2002
13497TIP3    H240437   5.557   5.635   4.092  1.1797  0.7107 -0.9062
13498TIP3   OH240438   0.540   0.134   1.148  0.4827  0.0447  0.1574
13498TIP3    H140439   0.544   0.149   1.054  0.2948 -2.6252 -0.3793
13498TIP3    H240440   0.454   0.168   1.174  0.3866  0.4897 -0.7009
13499TIP3   OH240441   6.287   7.738   4.311 -0.4323 -0.3011  0.2367
13499TIP3    H140442   6.276   7.644   4.324 -1.3116 -0.2656 -0.2028
13499TIP3    H240443   6.235   7.779   4.379 -0.0709 -0.1272  0.4129
13500TIP3   OH240444   4.615   6.033   2.157 -0.1495 -0.3386  0.4142
13500TIP3    H140445   4.691   6.042   2.100 -0.6957  3.4172  0.0401
13500TIP3    H240446   4.651   6.006   2.241  1.0442 -2.5416 -0.7079
13501TIP3   OH240447   5.081   5.959   2.672 -0.2640 -0.3758  0.0263
13501TIP3    H140448   5.152   5.907   2.710 -1.7894 -1.7201  1.1549
13501TIP3    H240449   5.003   5.933   2.721 -1.9809 -0.6913 -2.6583
13502TIP3   OH240450   2.625   3.142   6.495 -0.5925 -0.0788 -0.0805
13502TIP3    H140451   2.718   3.157   6.476  0.0352 -2.7311  0.4909
13502TIP3    H240452   2.587   3.230   6.501  1.5076  1.0665 -1.9827
13503TIP3   OH240453   0.095   2.116   2.974  0.5478  0.3905 -0.7936
13503TIP3    H140454   0.134   2.185   2.920  1.1586  1.3608  0.8087
13503TIP3    H240455   0.167   2.057   2.994  0.3227  0.0284 -1.0385
13504TIP3   OH240456   3.035   0.949   6.770  0.1043 -0.1101  0.1526
13504TIP3    H140457   3.023   1.003   6.692 -0.6921  0.6032  0.7598
13504TIP3    H240458   3.069   1.009   6.836  1.1126 -0.7855  0.2728
13505TIP3   OH240459   7.881   5.932   5.781  0.2637  0.3047  0.2487
13505TIP3    H140460   7.857   5.988   5.708 -0.2080 -0.7414 -0.4235
13505TIP3    H240461   7.976   5.938   5.785  0.2669  0.6465 -0.2266
13506TIP3   OH240462   7.505   0.619   3.164 -0.0478  0.2435  0.4711
13506TIP3    H140463   7.569   0.654   3.226 -0.3259  0.3373  0.7115
13506TIP3    H240464   7.421   0.630   3.209 -0.3760  1.4007 -0.4054
13507TIP3   OH240465   0.709   4.383   4.097 -0.1325 -0.3699 -0.8854
13507TIP3    H140466   0.782   4.445   4.094 -0.1767 -0.2172  0.5255
13507TIP3    H240467   0.633   4.435   4.070  0.1075 -0.2788 -1.4090
13508TIP3   OH240468   6.257   5.694   2.023  0.3949 -0.4507  0.0918
13508TIP3    H140469   6.334   5.745   1.998 -1.2538  1.3400 -1.6548
13508TIP3    H240470   6.257   5.619   1.963 -0.1331  0.5052 -1.1492
13509TIP3   OH240471   6.735   3.148   6.067  0.0387  0.1670  0.0198
13509TIP3    H140472   6.704   3.166   5.978 -0.4478 -0.0190  0.1497
13509TIP3    H240473   6.810   3.206   6.078 -0.6383  1.0712 -0.0751
13510TIP3   OH240474   5.259   0.191   1.925  0.3185 -0.0272 -0.1519
13510TIP3    H140475   5.298   0.243   1.854 -0.2970  0.3390 -0.2305
13510TIP3    H240476   5.187   0.245   1.957  0.7419 -0.0784  0.9267
13511TIP3   OH240477   5.740   1.379   2.588  0.9303  0.6633 -0.5219
13511TIP3    H140478   5.662   1.426   2.561 -0.5446 -0.4717  1.5494
13511TIP3    H240479   5.807   1.447   2.599 -0.0696  1.7913 -1.1834
13512TIP3   OH240480   5.422   0.792   0.910  0.5679  0.2892 -0.2484
13512TIP3    H140481   5.369   0.812   0.987  0.1027  0.6419 -0.6505
13512TIP3    H240482   5.384   0.711   0.875  0.6415  0.2460 -0.2279
13513TIP3   OH240483   7.467   1.835   0.628 -0.0249  0.8557 -0.2054
13513TIP3    H140484   7.395   1.863   0.685 -0.3554  1.5796 -0.9594
13513TIP3    H240485   7.542   1.824   0.688 -0.8902 -0.5256  0.6866
13514TIP3   OH240486   0.566   6.480   4.393  0.4495 -0.3324  0.1907
13514TIP3    H140487   0.497   6.535   4.430  0.4713  0.8057 -1.3620
13514TIP3    H240488   0.645   6.502   4.443  0.0488 -0.3788  0.8434
13515TIP3   OH240489   7.347   3.807   2.857  0.0912 -0.4045 -0.2244
13515TIP3    H140490   7.383   3.757   2.930  0.5977 -0.6555 -0.6403
13515TIP3    H240491   7.370   3.756   2.779 -0.7502 -0.3256 -0.5354
13516TIP3   OH240492   2.800   0.948   0.752  0.4278 -0.3395 -0.5294
13516TIP3    H140493   2.838   0.861   0.765  0.4847 -0.0690  1.4786
13516TIP3    H240494   2.860   0.992   0.692  1.2442 -1.1604 -0.3437
13517TIP3   OH240495   4.365   3.336   2.730 -1.2730 -0.3989 -0.3980
13517TIP3    H140496   4.367   3.254   2.779 -1.6423  0.3162  0.8777
13517TIP3    H240497   4.325   3.399   2.791  3.2233  1.9329  0.5746
13518TIP3   OH240498   8.035   1.857   4.746 -0.3153 -0.5756  0.2046
13518TIP3    H140499   8.051   1.887   4.836 -0.0979 -0.0587 -0.0016
13518TIP3    H240500   8.035   1.761   4.752 -1.6481 -0.5410  0.9844
13519TIP3   OH240501   6.248   6.073   2.679  0.0855 -0.4660 -0.3270
13519TIP3    H140502   6.227   6.051   2.769  0.3333 -2.9420 -0.7876
13519TIP3    H240503   6.166   6.108   2.643 -0.4755 -0.9801  0.4301
13520TIP3   OH240504   1.346   1.742   5.837  0.2507  0.6915 -0.2738
13520TIP3    H140505   1.407   1.755   5.910  0.3532 -1.2493  0.0282
13520TIP3    H240506   1.378   1.802   5.769  1.1143  1.3605  0.6808
13521TIP3   OH240507   5.514   6.651   6.051  0.1014  0.2778  0.0952
13521TIP3    H140508   5.570   6.588   6.006  0.1258  0.3256  0.0578
13521TIP3    H240509   5.539   6.735   6.014  1.0715  0.4811  1.1373
13522TIP3   OH240510   7.635   2.128   6.339  0.7105  0.8992  0.6003
13522TIP3    H140511   7.575   2.081   6.280  1.5681  1.2695 -0.6189
13522TIP3    H240512   7.662   2.063   6.403  0.7372  0.1244 -0.1818
13523TIP3   OH240513   7.587   0.504   2.006  0.3334 -0.3374 -0.0386
13523TIP3    H140514   7.549   0.476   2.089  0.0204 -1.2724 -0.4764
13523TIP3    H240515   7.568   0.431   1.946  0.8556  0.1714 -0.8344
13524TIP3   OH240516   0.953   6.148   1.913 -0.3581 -0.1478  0.0684
13524TIP3    H140517   0.884   6.202   1.874 -0.8853 -1.5895 -1.0628
13524TIP3    H240518   0.984   6.200   1.988 -1.1990  1.4699 -0.6488
13525TIP3   OH240519   3.365   2.936   2.714 -0.0570  0.4397 -0.3278
13525TIP3    H140520   3.453   2.921   2.749  0.7202  1.0452 -1.9250
13525TIP3    H240521   3.370   2.907   2.623 -1.0072  2.0723 -0.9377
13526TIP3   OH240522   2.435   2.880   2.331  0.3795  0.1383 -0.0862
13526TIP3    H140523   2.415   2.933   2.408  1.2499 -0.5076  0.6056
13526TIP3    H240524   2.496   2.934   2.279  0.4673  0.2274  0.1099
13527TIP3   OH240525   6.782   3.630   5.362  0.2949  0.6635 -0.4590
13527TIP3    H140526   6.766   3.704   5.303  2.2402  1.8593  0.3999
13527TIP3    H240527   6.760   3.663   5.449  3.9454  1.3556  0.3432
13528TIP3   OH240528   6.175   5.780   4.990  0.5382  0.1144 -0.3254
13528TIP3    H140529   6.261   5.738   4.978  0.4326 -0.2557  0.1701
13528TIP3    H240530   6.196   5.868   5.021  0.7424 -0.8533  2.5807
13529TIP3   OH240531   1.238   2.808   4.377 -0.0852  0.4565  0.3770
13529TIP3    H140532   1.267   2.841   4.463 -0.2383  0.2667  0.5021
13529TIP3    H240533   1.144   2.795   4.387 -0.0372  0.0473  0.3093
13530TIP3   OH240534   0.317   1.457   3.072 -0.1160  0.3138  0.1682
13530TIP3    H140535   0.367   1.411   3.138 -1.6012  0.0716  1.1766
13530TIP3    H240536   0.313   1.548   3.103 -0.7765  0.2099  0.4078
13531TIP3   OH240537   2.929   7.751   0.104  0.0101 -0.2450 -0.2173
13531TIP3    H140538   2.849   7.699   0.120  0.7912 -1.1305  0.9664
13531TIP3    H240539   2.958   7.722   0.017  0.4302 -1.8684  0.4150
13532TIP3   OH240540   5.534   5.819   3.300  0.3263  0.1088 -0.0169
13532TIP3    H140541   5.604   5.813   3.365  0.8866  0.7820 -0.5352
13532TIP3    H240542   5.577   5.799   3.217 -0.4743 -1.1785 -0.1497
13533TIP3   OH240543   7.923   4.094   5.115 -0.4888  0.3029 -0.5569
13533TIP3    H140544   8.000   4.055   5.073  0.0068  0.4030  0.2175
13533TIP3    H240545   7.945   4.187   5.122 -1.4411  0.6457 -1.9236
13534TIP3   OH240546   3.391   3.442   5.979 -0.1270  0.1063  0.1421
13534TIP3    H140547   3.318   3.486   6.023  0.3263  2.5984 -1.3714
13534TIP3    H240548   3.349   3.379   5.920 -0.9420  0.2238  0.5728
13535TIP3   OH240549   3.844   2.510   2.220  0.4492 -0.3213 -0.2309
13535TIP3    H140550   3.882   2.543   2.138  0.4920 -0.1455 -0.1424
13535TIP3    H240551   3.855   2.415   2.215  1.7506 -0.2223  0.1897
13536TIP3   OH240552   3.396   2.212   4.542  0.1539 -0.1455  0.2585
13536TIP3    H140553   3.363   2.146   4.603  1.5130 -0.7027  0.4465
13536TIP3    H240554   3.372   2.296   4.582 -1.4124 -0.5055  0.1240
13537TIP3   OH240555   0.653   6.887   0.040 -0.0273 -0.1185 -0.6373
13537TIP3    H140556   0.694   6.824  -0.019  1.3769 -1.1804  1.3387
13537TIP3    H240557   0.690   6.971   0.014  0.4146 -0.5328 -1.4048
13538TIP3   OH240558   8.166   3.605   0.814 -0.0364 -0.0396 -0.2361
13538TIP3    H140559   8.260   3.599   0.800 -0.2102 -1.2247 -1.0958
13538TIP3    H240560   8.156   3.645   0.900  1.2163  1.8438 -0.9045
13539TIP3   OH240561   6.735   3.923   1.458  0.1880 -0.2329  0.4456
13539TIP3    H140562   6.761   4.004   1.414  2.1422  0.3888  2.5248
13539TIP3    H240563   6.642   3.934   1.477  0.4987  1.7856  1.0784
13540TIP3   OH240564   3.552   3.957   2.539  0.4544  0.3633 -0.2340
13540TIP3    H140565   3.641   3.959   2.573  1.0627  2.3895 -1.7027
13540TIP3    H240566   3.562   3.927   2.448 -0.4002  0.2906 -0.3116
13541TIP3   OH240567   1.691   6.733   0.059 -0.2796  0.1141  0.2651
13541TIP3    H140568   1.664   6.822   0.038  0.2686  0.4772  1.0481
13541TIP3    H240569   1.612   6.680   0.047 -0.1098  0.3263 -2.2844
13542TIP3   OH240570   0.148   5.373   3.955 -0.1481  0.4809 -0.4726
13542TIP3    H140571   0.086   5.445   3.962 -0.1819  0.3913  0.2319
13542TIP3    H240572   0.097   5.295   3.977  0.2667  0.4340  0.3664
13543TIP3   OH240573   2.742   3.555   4.212  0.2534 -0.1602  0.3688
13543TIP3    H140574   2.720   3.467   4.241  2.1286 -1.1297 -0.9570
13543TIP3    H240575   2.809   3.543   4.145 -1.2460  2.1300 -1.7588
13544TIP3   OH240576   4.244   6.169   2.631 -0.2132 -0.0306 -0.1260
13544TIP3    H140577   4.301   6.157   2.555  0.0482 -1.3248  0.2503
13544TIP3    H240578   4.290   6.126   2.703 -1.0366  0.0915  0.4916
13545TIP3   OH240579   5.582   2.306   4.705 -0.0918 -0.5540 -0.1286
13545TIP3    H140580   5.572   2.401   4.709 -0.3350 -0.4931 -1.7189
13545TIP3    H240581   5.583   2.279   4.797  1.2867  1.0992  0.3901
13546TIP3   OH240582   7.222   6.244   3.939 -0.0029  0.1913  0.2903
13546TIP3    H140583   7.153   6.263   4.003  1.7065 -2.3516  3.1626
13546TIP3    H240584   7.248   6.154   3.958  2.1747  0.0809 -2.5903
13547TIP3   OH240585   1.444   3.213   2.048  0.5946 -0.2254 -0.0309
13547TIP3    H140586   1.428   3.171   1.963 -2.3864 -1.7576  1.1527
13547TIP3    H240587   1.367   3.268   2.062  1.0865  0.0696  1.6577
13548TIP3   OH240588   6.373   0.011   1.866 -0.5269  0.3794 -0.3522
13548TIP3    H140589   6.342   0.002   1.956 -2.2408  1.7747 -0.7470
13548TIP3    H240590   6.449   0.068   1.872  0.7788 -1.3645  0.4132
13549TIP3   OH240591   6.244   2.996   0.622 -0.0679  0.5408 -0.2101
13549TIP3    H140592   6.177   2.965   0.561  1.1696 -1.2457 -0.7251
13549TIP3    H240593   6.314   3.029   0.567 -0.7500  3.1037  0.3307
13550TIP3   OH240594   3.833   4.470   2.019  0.1745  0.0145 -0.2310
13550TIP3    H140595   3.797   4.542   1.967  1.2257  1.5869  1.1284
13550TIP3    H240596   3.909   4.508   2.062  0.8873 -2.0035  0.3589
13551TIP3   OH240597   2.414   7.084   5.019  0.6851 -0.1361 -0.1070
13551TIP3    H140598   2.442   6.998   4.989 -0.9881 -0.2504 -1.5087
13551TIP3    H240599   2.415   7.138   4.939  2.8353  1.5287  0.9200
13552TIP3   OH240600   6.353   1.349   0.843 -0.1829  0.0573  0.4866
13552TIP3    H140601   6.324   1.398   0.920  0.4703 -0.7265  1.2498
13552TIP3    H240602   6.409   1.280   0.878 -0.4314 -0.7425 -0.6363
13553TIP3   OH240603   0.438   0.864   0.181  0.7633 -0.7808 -0.2941
13553TIP3    H140604   0.479   0.943   0.147  0.5754 -0.5770 -0.0509
13553TIP3    H240605   0.368   0.845   0.119  1.0255 -0.9569 -0.5430
13554TIP3   OH240606   6.848   4.938   1.960  0.0835 -0.3393 -0.5037
13554TIP3    H140607   6.825   4.915   1.870  0.7983 -2.2430 -0.2346
13554TIP3    H240608   6.786   4.890   2.014 -1.5067  2.1401  0.0902
13555TIP3   OH240609   7.396   6.679   4.548  0.0804 -0.3241  0.1710
13555TIP3    H140610   7.416   6.710   4.637 -0.2906 -0.6152  0.3568
13555TIP3    H240611   7.480   6.687   4.502  0.5493 -1.1758  0.8442
13556TIP3   OH240612   6.262   4.960   5.728  0.5718  0.2631  0.2395
13556TIP3    H140613   6.346   4.915   5.740  0.3104  0.0882  1.5180
13556TIP3    H240614   6.214   4.944   5.809 -0.3967  1.0184 -0.1620
13557TIP3   OH240615   6.468   6.312   1.358  0.2984  0.5910  0.2155
13557TIP3    H140616   6.426   6.229   1.336  1.1047 -0.1888  1.4740
13557TIP3    H240617   6.517   6.336   1.279 -0.6654  0.3468 -0.4670
13558TIP3   OH240618   3.740   5.568   6.207  0.0105  0.4768 -0.1085
13558TIP3    H140619   3.681   5.495   6.190 -2.2421  2.0331  0.5827
13558TIP3    H240620   3.806   5.563   6.138 -0.9303 -1.3293 -0.9304
13559TIP3   OH240621   2.574   3.057   0.974  0.2894  0.1780 -0.4682
13559TIP3    H140622   2.570   3.039   0.880  0.8439  0.9108 -0.6385
13559TIP3    H240623   2.667   3.062   0.994  0.2231 -1.5299  0.4490
13560TIP3   OH240624   1.496   5.281   6.668 -0.1493  0.0373  0.1405
13560TIP3    H140625   1.421   5.340   6.663  0.2146  0.8522  2.7522
13560TIP3    H240626   1.573   5.338   6.667  0.3322 -0.5932  0.1501
13561TIP3   OH240627   0.571   5.850   5.947 -0.2255  0.0873  0.0004
13561TIP3    H140628   0.580   5.817   6.036 -0.2416 -0.2727 -0.1291
13561TIP3    H240629   0.660   5.848   5.912 -0.2883 -0.2226 -0.1472
13562TIP3   OH240630   5.029   7.392   0.543  0.0979  0.1196  0.3168
13562TIP3    H140631   5.028   7.416   0.635  0.7149  2.5046 -0.2171
13562TIP3    H240632   5.111   7.343   0.531 -0.3438 -0.8541  1.1338
13563TIP3   OH240633   2.890   4.686   4.436  0.1476  0.2883 -0.0296
13563TIP3    H140634   2.964   4.676   4.497 -0.0708 -3.9915 -0.1827
13563TIP3    H240635   2.927   4.663   4.351 -0.9773 -0.3798 -0.3520
13564TIP3   OH240636   5.912   4.777   3.204 -0.9455 -0.4770 -0.2677
13564TIP3    H140637   5.871   4.697   3.237  0.5154 -0.7411  1.0551
13564TIP3    H240638   5.840   4.840   3.196 -2.1764 -1.9873 -1.6704
13565TIP3   OH240639   3.409   0.263   5.922 -0.2208  0.4515  0.0653
13565TIP3    H140640   3.348   0.337   5.924 -0.6013  0.1611  2.8443
13565TIP3    H240641   3.494   0.303   5.903 -0.9298  1.0903 -2.0320
13566TIP3   OH240642   2.094   2.408   3.660 -0.0920 -0.5331 -0.5435
13566TIP3    H140643   2.111   2.438   3.749  1.1496  1.4332 -1.3973
13566TIP3    H240644   2.115   2.483   3.604 -2.0432 -1.2966 -2.4302
13567TIP3   OH240645   5.229   7.358   1.635  0.3553  0.2343  0.6720
13567TIP3    H140646   5.212   7.401   1.719 -1.4383 -0.0819  0.5241
13567TIP3    H240647   5.172   7.281   1.636  0.5403  0.0537 -0.7035
13568TIP3   OH240648   8.277   2.592   5.597  0.2479  0.2815  0.7529
13568TIP3    H140649   8.362   2.549   5.583  0.4733  1.1925 -0.8761
13568TIP3    H240650   8.213   2.523   5.576  0.4619 -1.1624  4.2538
13569TIP3   OH240651   8.268   3.877   4.891  0.7663  0.5821  0.5295
13569TIP3    H140652   8.271   3.928   4.972  1.0381 -0.8142  1.4409
13569TIP3    H240653   8.207   3.924   4.835  1.7025  2.4141  0.9448
13570TIP3   OH240654   2.211   7.765   1.397  0.4536 -0.6901 -0.0256
13570TIP3    H140655   2.289   7.728   1.439  1.0059 -0.0837 -0.4872
13570TIP3    H240656   2.143   7.698   1.409  1.3053 -1.6720 -0.4658
13571TIP3   OH240657   1.940   6.638   1.195 -0.3086  1.1724  0.5492
13571TIP3    H140658   1.866   6.614   1.250 -0.1354  1.8405  1.0918
13571TIP3    H240659   1.908   6.629   1.106 -0.6910  0.3845  0.7578
13572TIP3   OH240660   0.942   2.184   4.077  0.1615  0.7416  0.2513
13572TIP3    H140661   0.984   2.225   4.153  0.4024 -1.3237  1.3110
13572TIP3    H240662   0.917   2.097   4.108  2.2048 -1.0523 -2.6236
13573TIP3   OH240663   1.849   6.981   4.124 -0.6416 -0.1831 -0.2369
13573TIP3    H140664   1.815   6.981   4.214 -1.5425  1.5627 -0.5300
13573TIP3    H240665   1.860   6.888   4.103  0.1870 -0.6349  1.8780
13574TIP3   OH240666   7.320   7.299   6.552  0.3394  0.2534 -0.4622
13574TIP3    H140667   7.247   7.237   6.555 -0.3409  1.0597  0.8702
13574TIP3    H240668   7.393   7.252   6.593  0.0941  0.0167 -0.2927
13575TIP3   OH240669   7.913   7.238   1.282  0.5918  0.6287  0.3823
13575TIP3    H140670   7.833   7.233   1.230  1.2406  0.8121 -0.6611
13575TIP3    H240671   7.899   7.313   1.339  0.9179  2.1135 -1.4061
13576TIP3   OH240672   2.089   6.902   6.545 -0.5934  0.4825 -0.3646
13576TIP3    H140673   2.027   6.941   6.483 -1.8954  0.6368  0.9600
13576TIP3    H240674   2.085   6.960   6.622  1.0855  0.3831 -0.1739
13577TIP3   OH240675   7.616   7.770   2.962  0.1158  0.2768  0.0826
13577TIP3    H140676   7.563   7.764   2.882  0.5629  0.1145 -0.2070
13577TIP3    H240677   7.676   7.696   2.957  1.5139  1.3782 -0.4552
13578TIP3   OH240678   6.768   5.501   6.013 -0.2921 -0.8852  0.2462
13578TIP3    H140679   6.844   5.550   6.045  0.3161 -1.8475  0.3277
13578TIP3    H240680   6.711   5.567   5.974  0.9771 -0.2366 -0.5709
13579TIP3   OH240681   3.788   5.312   1.022 -0.3112  0.3866 -0.5455
13579TIP3    H140682   3.821   5.342   1.106 -0.3078  2.7041 -1.3125
13579TIP3    H240683   3.704   5.356   1.011 -0.0451  0.5945 -1.9950
13580TIP3   OH240684   0.682   4.686   2.033 -0.3459  0.1339 -0.1673
13580TIP3    H140685   0.660   4.602   1.992 -3.1731  0.5019  0.4580
13580TIP3    H240686   0.724   4.736   1.963 -0.4450 -1.0712 -1.1191
13581TIP3   OH240687   8.176   5.076   3.559  0.8404  0.2055  0.0402
13581TIP3    H140688   8.088   5.111   3.552  1.0916  1.0543  0.9282
13581TIP3    H240689   8.193   5.070   3.653  2.1605  1.1933 -0.0989
13582TIP3   OH240690   7.728   5.370   2.702  0.2788  0.0175 -0.0044
13582TIP3    H140691   7.648   5.416   2.725 -0.2881 -1.0280  0.1418
13582TIP3    H240692   7.700   5.292   2.655  1.3037  0.6743 -1.8155
13583TIP3   OH240693   4.066   3.358   0.060  0.3892  0.7224  0.4260
13583TIP3    H140694   4.121   3.375   0.137  1.1023  0.8755 -0.1079
13583TIP3    H240695   4.127   3.360  -0.014  0.0010 -1.0311  0.0085
13584TIP3   OH240696   3.612   5.885   0.671 -0.3199 -0.3311 -0.3258
13584TIP3    H140697   3.590   5.969   0.712  3.2507 -0.1893  1.7915
13584TIP3    H240698   3.628   5.907   0.579 -3.0874  0.4665 -0.7019
13585TIP3   OH240699   5.380   6.012   2.381 -0.1812 -0.6554  0.2153
13585TIP3    H140700   5.350   6.102   2.366  0.9731 -0.3487 -0.3784
13585TIP3    H240701   5.359   5.966   2.299  0.8499 -0.4561 -0.1780
13586TIP3   OH240702   4.098   5.208   6.748  0.1913  0.0264  0.1820
13586TIP3    H140703   4.088   5.266   6.823 -0.0910 -2.3310  2.0665
13586TIP3    H240704   4.009   5.197   6.714 -0.0526 -0.8029  1.0507
13587TIP3   OH240705   7.250   3.526   6.235  0.5139 -0.3074 -0.0365
13587TIP3    H140706   7.223   3.555   6.323 -1.3180  1.0327 -0.9747
13587TIP3    H240707   7.330   3.476   6.250  0.3055 -0.0363  2.3891
13588TIP3   OH240708   2.111   6.607   6.444 -0.7376  0.2330  0.0280
13588TIP3    H140709   2.110   6.700   6.420 -1.2752  0.0004 -0.9191
13588TIP3    H240710   2.023   6.577   6.424 -0.9751 -0.1819  1.6262
13589TIP3   OH240711   7.069   0.324   3.612  0.7075 -0.1793 -0.5611
13589TIP3    H140712   7.069   0.347   3.705  0.4906 -0.7578 -0.4196
13589TIP3    H240713   7.115   0.240   3.608 -1.2126 -1.2798 -0.6976
13590TIP3   OH240714   7.075   6.114   4.580  0.0343  0.5071 -0.9710
13590TIP3    H140715   7.130   6.187   4.609  1.4779 -0.4063 -1.2848
13590TIP3    H240716   7.096   6.043   4.641 -0.9670  0.1942 -0.9744
13591TIP3   OH240717   7.786   2.724   1.136  0.0887  0.0454  0.1099
13591TIP3    H140718   7.751   2.657   1.195 -0.5723 -1.3566 -1.7894
13591TIP3    H240719   7.709   2.769   1.101  0.4907  1.1426  0.5706
13592TIP3   OH240720   3.214   0.413   2.311 -0.4613  0.1648 -0.3036
13592TIP3    H140721   3.245   0.471   2.241 -0.7430  1.1446  0.3738
13592TIP3    H240722   3.126   0.387   2.284 -1.4258  2.2094  0.6330
13593TIP3   OH240723   2.098   0.591   1.101 -0.0422 -0.3513 -0.1591
13593TIP3    H140724   2.115   0.673   1.056  0.1442 -0.6668 -0.6797
13593TIP3    H240725   2.026   0.552   1.053 -0.0690 -0.5353  0.0280
13594TIP3   OH240726   4.362   2.250   3.483  0.5003  0.4191  0.3409
13594TIP3    H140727   4.428   2.310   3.449  1.1453  0.3660  1.4559
13594TIP3    H240728   4.298   2.243   3.413 -0.5677  3.8346  0.7664
13595TIP3   OH240729   4.801   2.887   4.671  0.1372 -0.2927 -0.1125
13595TIP3    H140730   4.787   2.866   4.578  0.3986 -0.4296 -0.1246
13595TIP3    H240731   4.803   2.982   4.674  2.5688 -0.2585 -0.6587
13596TIP3   OH240732   5.084   0.588   1.295  0.5350 -0.7638  0.1497
13596TIP3    H140733   5.116   0.588   1.385  1.6513 -0.6943 -0.2369
13596TIP3    H240734   5.045   0.674   1.283 -2.1098 -1.6769  1.3919
13597TIP3   OH240735   7.836   3.186   3.212  0.2228  0.4792 -0.2877
13597TIP3    H140736   7.776   3.250   3.251 -0.9358 -0.0087 -1.2133
13597TIP3    H240737   7.849   3.217   3.123  1.7032  0.7927  0.0120
13598TIP3   OH240738   3.266   7.432   0.508 -0.1209 -0.4898 -0.0291
13598TIP3    H140739   3.205   7.434   0.582 -1.1261  1.5118 -0.8342
13598TIP3    H240740   3.216   7.466   0.434  1.2791 -1.0763 -1.3083
13599TIP3   OH240741   4.040   2.719   2.798  0.4861 -0.6365  0.5437
13599TIP3    H140742   4.025   2.736   2.704  1.2826 -1.9100  0.1583
13599TIP3    H240743   4.099   2.644   2.799  1.5908  0.2162  2.0778
13600TIP3   OH240744   2.763   5.504   0.613 -0.1344 -0.6667 -0.2234
13600TIP3    H140745   2.744   5.415   0.583  2.2823 -0.9344 -1.1991
13600TIP3    H240746   2.797   5.549   0.536 -1.3394  1.1557  0.2449
13601TIP3   OH240747   4.447   5.014   3.159  1.0634 -0.0702  0.1464
13601TIP3    H140748   4.468   5.076   3.090 -0.2084  0.6567  0.3831
13601TIP3    H240749   4.396   5.064   3.223 -1.0623 -1.5953 -0.2436
13602TIP3   OH240750   3.940   7.067   4.925  0.0793 -0.1298  0.0318
13602TIP3    H140751   3.988   6.985   4.910 -0.0041 -0.3026  0.6930
13602TIP3    H240752   3.863   7.060   4.868  0.8986  0.2215 -1.1684
13603TIP3   OH240753   2.618   2.468   6.543 -0.8884  0.2422  0.1829
13603TIP3    H140754   2.698   2.496   6.586 -0.3377 -0.2058 -0.5227
13603TIP3    H240755   2.588   2.544   6.494 -0.0406 -0.0335 -0.7892
13604TIP3   OH240756   0.337   5.958   3.010  0.4326  0.0528 -0.2176
13604TIP3    H140757   0.334   5.927   3.100  0.6474  0.4784 -0.0621
13604TIP3    H240758   0.314   6.051   3.016  0.6521  0.1308 -0.5779
13605TIP3   OH240759   3.736   2.061   2.985  0.1136  0.8267 -0.1450
13605TIP3    H140760   3.774   2.066   3.073  0.0332 -0.2296 -0.0383
13605TIP3    H240761   3.754   2.147   2.946 -0.2857  1.4776  1.0684
13606TIP3   OH240762   5.478   7.241   4.618 -0.2418  1.1465 -0.8138
13606TIP3    H140763   5.555   7.185   4.611  0.8376  2.6148 -1.1522
13606TIP3    H240764   5.433   7.210   4.696 -0.2585 -0.8587 -1.5821
13607TIP3   OH240765   6.377   7.689   5.374  0.4160 -0.0719  0.0547
13607TIP3    H140766   6.338   7.633   5.307 -0.8764  1.3907 -0.4868
13607TIP3    H240767   6.388   7.632   5.450 -0.9391 -1.0412 -0.4303
13608TIP3   OH240768   7.242   4.851   1.237 -0.3359  0.5345  1.0958
13608TIP3    H140769   7.295   4.809   1.304  1.7429  0.2977 -0.6165
13608TIP3    H240770   7.248   4.945   1.258  2.2595  0.6850 -0.0193
13609TIP3   OH240771   1.890   5.549   3.243  0.0508 -0.0457 -0.2763
13609TIP3    H140772   1.871   5.637   3.275 -1.4055 -0.2564 -0.4786
13609TIP3    H240773   1.985   5.541   3.248  0.0814  0.9709  1.2029
13610TIP3   OH240774   4.157   0.214   0.837  0.5811  0.3863  0.1545
13610TIP3    H140775   4.199   0.129   0.831  0.6903  0.5294 -2.5298
13610TIP3    H240776   4.111   0.213   0.921  0.8372 -2.1667  0.3360
13611TIP3   OH240777   4.334   6.949   1.056  0.4941 -0.3914 -0.0240
13611TIP3    H140778   4.414   6.946   1.108  1.1227 -0.7079 -0.9833
13611TIP3    H240779   4.347   7.024   0.997  0.3865 -0.8488 -0.6443
13612TIP3   OH240780   5.106   2.708   3.899 -0.5278 -0.3897  0.6542
13612TIP3    H140781   5.081   2.798   3.876  0.3389 -0.3498 -0.2168
13612TIP3    H240782   5.199   2.703   3.876 -0.4609 -1.3916  1.0925
13613TIP3   OH240783   3.347   0.459   1.433 -0.0806  0.5577 -0.5312
13613TIP3    H140784   3.334   0.532   1.493 -0.1913 -0.3937  0.6545
13613TIP3    H240785   3.410   0.402   1.478  0.7559  0.3975 -1.8636
13614TIP3   OH240786   4.441   1.588   6.085  0.2201  0.6827  0.1144
13614TIP3    H140787   4.451   1.554   5.996 -1.5515 -0.1439  0.1988
13614TIP3    H240788   4.413   1.679   6.072 -0.7276  0.3577 -0.2040
13615TIP3   OH240789   4.893   4.343   5.562 -0.1041  0.0885  0.1294
13615TIP3    H140790   4.972   4.323   5.513  0.1606 -0.0173  0.5933
13615TIP3    H240791   4.913   4.425   5.607  0.3128 -0.6998  1.4485
13616TIP3   OH240792   1.490   5.402   6.150  0.2506  0.1313  0.3565
13616TIP3    H140793   1.480   5.462   6.224  0.5940  0.2444  0.3131
13616TIP3    H240794   1.582   5.409   6.126  0.1822 -0.0448  0.0359
13617TIP3   OH240795   7.722   4.671   3.334  0.1891  0.2185 -0.3124
13617TIP3    H140796   7.655   4.655   3.401 -0.1124  0.8868 -0.4402
13617TIP3    H240797   7.803   4.679   3.384 -0.0370  0.7304 -0.0172
13618TIP3   OH240798   1.987   4.816   1.907 -0.4298  0.6290  0.0073
13618TIP3    H140799   1.931   4.740   1.898  1.1389 -0.4198 -1.6603
13618TIP3    H240800   1.970   4.868   1.828  1.0118  0.1808 -0.6434
13619TIP3   OH240801   5.824   2.561   6.743  0.2950 -0.5296 -0.1919
13619TIP3    H140802   5.842   2.650   6.713  1.7830 -0.0467  1.9420
13619TIP3    H240803   5.730   2.562   6.762  0.1883  0.4279 -0.6826
13620TIP3   OH240804   2.467   3.875   0.707  0.6412  0.3220 -0.1685
13620TIP3    H140805   2.422   3.793   0.727  0.4858  0.0546 -1.5431
13620TIP3    H240806   2.557   3.861   0.738  0.6582 -0.4320 -0.5350
13621TIP3   OH240807   3.985   4.875   2.283 -1.2438 -0.2604 -0.0725
13621TIP3    H140808   4.045   4.825   2.227  0.0162 -0.2584  1.2398
13621TIP3    H240809   3.997   4.966   2.256  0.9921  0.0107  1.5861
13622TIP3   OH240810   7.028   4.856   4.558  0.4475 -0.8557 -0.4680
13622TIP3    H140811   7.078   4.920   4.609  0.3361  0.2127 -1.6600
13622TIP3    H240812   7.086   4.780   4.552  0.8977 -0.5872  0.2835
13623TIP3   OH240813   8.109   0.915   2.969 -0.1886 -0.2507 -0.0512
13623TIP3    H140814   8.093   0.985   2.906 -1.5165 -0.3586  0.1464
13623TIP3    H240815   8.022   0.891   3.002  0.3476 -1.1975  0.7415
13624TIP3   OH240816   1.045   3.427   5.028 -0.1927  0.4141 -0.6183
13624TIP3    H140817   1.107   3.487   5.070 -2.2914  2.2764  0.0289
13624TIP3    H240818   1.018   3.473   4.949 -1.2228 -0.0575 -0.5579
13625TIP3   OH240819   5.429   4.069   3.768 -0.5368 -0.0963  0.5120
13625TIP3    H140820   5.421   4.152   3.814 -0.9276 -0.5680  1.3166
13625TIP3    H240821   5.499   4.083   3.704 -1.5629  1.2899 -0.3722
13626TIP3   OH240822   8.164   5.734   2.309  0.0062 -0.4257 -0.0389
13626TIP3    H140823   8.258   5.753   2.314 -0.2203  0.5202  0.9450
13626TIP3    H240824   8.133   5.743   2.399 -1.1571 -0.0317 -0.4621
13627TIP3   OH240825   1.303   5.066   2.100 -0.0903  0.4057  0.4661
13627TIP3    H140826   1.220   5.044   2.143  0.7776 -1.6461  1.2281
13627TIP3    H240827   1.320   4.992   2.042  0.3758  1.6297 -1.0051
13628TIP3   OH240828   7.309   3.009   4.165  0.2756 -0.6108  0.2155
13628TIP3    H140829   7.237   2.958   4.129 -0.3468 -0.4470  1.1701
13628TIP3    H240830   7.366   2.944   4.206  0.3500 -0.6923 -0.0218
13629TIP3   OH240831   6.963   3.874   5.615 -0.1158  0.0176  0.5739
13629TIP3    H140832   7.041   3.927   5.595 -0.8637  0.6077 -0.8913
13629TIP3    H240833   6.999   3.793   5.651  1.2123  0.1571 -0.3313
13630TIP3   OH240834   7.232   6.057   4.249 -0.4936  0.7600  0.2373
13630TIP3    H140835   7.143   6.085   4.267 -0.0950  2.5104 -0.3585
13630TIP3    H240836   7.235   5.967   4.281 -1.4641  1.7381  3.4733
13631TIP3   OH240837   1.543   4.726   5.450  0.0851 -0.0185  0.2603
13631TIP3    H140838   1.563   4.808   5.495 -0.6677 -0.7005  1.8958
13631TIP3    H240839   1.505   4.753   5.366  0.6277  1.2864  0.4203
13632TIP3   OH240840   6.217   6.682   2.856  0.1749  0.9756 -0.2256
13632TIP3    H140841   6.194   6.727   2.938  0.7935  0.0100  0.5044
13632TIP3    H240842   6.139   6.632   2.833 -0.6048  2.5533 -1.1722
13633TIP3   OH240843   6.391   2.967   1.829  0.4031 -0.2250 -0.5967
13633TIP3    H140844   6.302   2.987   1.800 -0.3556 -0.1819  1.5593
13633TIP3    H240845   6.416   2.890   1.779 -1.1075 -0.6311 -0.7687
13634TIP3   OH240846   0.943   6.206   3.249 -0.1898  0.2286 -0.3327
13634TIP3    H140847   0.956   6.301   3.242 -0.1789  0.2622  0.0648
13634TIP3    H240848   1.019   6.175   3.298 -0.0881 -0.0163 -0.6506
13635TIP3   OH240849   2.451   6.509   4.905 -0.1361 -0.2252 -0.0878
13635TIP3    H140850   2.392   6.480   4.974 -0.4327  1.8447  0.5896
13635TIP3    H240851   2.530   6.538   4.951  0.3279 -0.3728 -0.7648
13636TIP3   OH240852   4.157   6.804   6.453 -0.3589 -0.3039 -0.1736
13636TIP3    H140853   4.204   6.846   6.381  0.6226  1.8273  1.5827
13636TIP3    H240854   4.081   6.860   6.468 -0.5223 -0.6892  0.4747
13637TIP3   OH240855   8.022   7.447   4.005  0.4880 -0.0188 -0.1820
13637TIP3    H140856   8.024   7.414   3.916  0.9682  1.0667 -0.6004
13637TIP3    H240857   8.106   7.493   4.015 -1.0076  2.9790 -0.4243
13638TIP3   OH240858   6.382   1.624   3.672 -0.3309  0.1287  0.0364
13638TIP3    H140859   6.340   1.708   3.688  0.5573  0.7354 -0.6603
13638TIP3    H240860   6.424   1.601   3.755  0.4206  0.9832 -0.0845
13639TIP3   OH240861   0.663   0.957   1.237  0.5944 -0.1931  0.3584
13639TIP3    H140862   0.575   0.989   1.258 -0.0583 -0.7274 -1.3539
13639TIP3    H240863   0.684   0.997   1.153  1.8176 -0.4140  0.5427
13640TIP3   OH240864   3.546   2.664   4.480 -0.4806 -0.1081  0.4324
13640TIP3    H140865   3.624   2.708   4.514  0.7428 -1.5124 -0.4171
13640TIP3    H240866   3.523   2.600   4.547  0.8862 -1.6786 -0.5226
13641TIP3   OH240867   7.054   3.889   4.677  0.1158  0.0187 -0.3307
13641TIP3    H140868   7.140   3.917   4.648  0.4448 -1.2490 -0.6587
13641TIP3    H240869   7.012   3.968   4.710  1.5882  0.5764  0.2898
13642TIP3   OH240870   0.637   3.330   2.491  0.4050 -0.0373  0.6806
13642TIP3    H140871   0.707   3.351   2.430  0.6935 -2.8101 -0.0579
13642TIP3    H240872   0.581   3.408   2.492  1.7396  0.9954 -1.2029
13643TIP3   OH240873   3.451   2.624   6.179  0.5090  0.0721  0.0908
13643TIP3    H140874   3.399   2.676   6.117  0.7752 -1.4853 -1.5315
13643TIP3    H240875   3.399   2.545   6.192  1.2942 -0.3909  0.4526
13644TIP3   OH240876   4.728   4.666   6.717 -0.2987  0.3269  0.3027
13644TIP3    H140877   4.775   4.734   6.668  0.3931 -1.4973 -1.7542
13644TIP3    H240878   4.724   4.699   6.807  1.1944  2.4435 -0.3270
13645TIP3   OH240879   4.394   3.222   1.966  0.4374 -0.3971  0.5678
13645TIP3    H140880   4.444   3.142   1.949 -2.3430 -1.7802 -2.2093
13645TIP3    H240881   4.400   3.271   1.884  1.2893  1.8697  1.8979
13646TIP3   OH240882   6.045   6.125   1.310 -0.0180  0.4038 -0.3103
13646TIP3    H140883   6.041   6.068   1.386 -1.9742  1.4172  0.4184
13646TIP3    H240884   6.062   6.067   1.236  0.6591 -0.7568  0.7395
13647TIP3   OH240885   6.207   1.715   4.424  0.3461  0.2686 -0.5415
13647TIP3    H140886   6.274   1.647   4.433  0.2062  0.0945 -0.7837
13647TIP3    H240887   6.141   1.675   4.367  0.4007  0.7159 -0.9198
13648TIP3   OH240888   0.702   0.875   0.748  0.1567 -0.4871  0.2076
13648TIP3    H140889   0.746   0.881   0.833 -0.9879 -0.3873  0.8158
13648TIP3    H240890   0.706   0.782   0.726 -0.2080 -0.6467  0.7639
13649TIP3   OH240891   7.814   4.603   2.901 -0.1076 -0.2437  0.1014
13649TIP3    H140892   7.835   4.617   2.809 -0.2176 -2.5566 -0.3245
13649TIP3    H240893   7.733   4.651   2.915  0.1619  0.5250 -0.8633
13650TIP3   OH240894   7.166   0.114   0.819 -0.2434 -0.5342  0.2817
13650TIP3    H140895   7.236   0.065   0.861 -0.0248 -1.3759 -0.9856
13650TIP3    H240896   7.153   0.069   0.735  1.0295  2.4964 -1.6897
13651TIP3   OH240897   5.133   6.872   1.638 -0.3305 -0.0608  0.3249
13651TIP3    H140898   5.202   6.877   1.703 -0.4811  1.0509  0.4040
13651TIP3    H240899   5.164   6.806   1.576  1.2571  1.0743 -0.1542
13652TIP3   OH240900   1.149   5.031   6.037 -0.0064 -0.2397  0.1040
13652TIP3    H140901   1.153   5.075   6.122 -0.1463  0.4669 -0.2499
13652TIP3    H240902   1.138   4.938   6.059 -0.0863 -0.0612  0.8553
13653TIP3   OH240903   2.109   4.563   5.907 -0.3240  0.6270  0.0957
13653TIP3    H140904   2.104   4.492   5.843 -0.6466  0.3594  0.4114
13653TIP3    H240905   2.021   4.601   5.906 -0.1644  0.9929 -0.0370
13654TIP3   OH240906   5.042   2.517   0.593 -0.4062  0.0914  0.5281
13654TIP3    H140907   5.051   2.532   0.687 -2.3161  0.9583  0.6165
13654TIP3    H240908   4.973   2.450   0.586  1.1320 -1.4884 -0.2184
13655TIP3   OH240909   7.516   5.202   0.599  0.6119 -0.2026 -0.0087
13655TIP3    H140910   7.508   5.286   0.644  1.4248 -0.5641  0.8511
13655TIP3    H240911   7.609   5.196   0.577  0.1209  0.3678 -2.6046
13656TIP3   OH240912   0.575   1.525   4.189 -0.0597 -0.3434 -0.3702
13656TIP3    H140913   0.583   1.447   4.134 -1.4734  0.0929 -1.2413
13656TIP3    H240914   0.534   1.493   4.269 -1.6573 -0.3463 -1.1550
13657TIP3   OH240915   3.291   1.726   2.813 -0.1886  0.1354 -0.3108
13657TIP3    H140916   3.266   1.710   2.723  0.2703 -1.0779 -0.2345
13657TIP3    H240917   3.366   1.785   2.808  0.8702 -1.2191 -0.8079
13658TIP3   OH240918   7.756   6.222   2.231  0.1706  0.3478 -0.5884
13658TIP3    H140919   7.687   6.157   2.243  0.4963  0.1160  0.0360
13658TIP3    H240920   7.745   6.283   2.304  0.1975  0.7033 -0.8775
13659TIP3   OH240921   5.982   5.944   4.192 -0.4288  0.1004  0.1943
13659TIP3    H140922   6.077   5.946   4.201 -0.4214 -0.2427  0.1959
13659TIP3    H240923   5.955   5.862   4.233 -0.7281  0.2049  0.2121
13660TIP3   OH240924   6.120   6.796   2.335  0.2045 -0.3231 -0.0660
13660TIP3    H140925   6.091   6.814   2.245  0.5455 -1.1086 -0.3418
13660TIP3    H240926   6.099   6.703   2.349  1.2084 -0.5113  0.2582
13661TIP3   OH240927   4.233   6.632   3.466 -0.0110 -0.0295  0.0292
13661TIP3    H140928   4.196   6.637   3.378 -1.5829  2.7266  0.7271
13661TIP3    H240929   4.328   6.635   3.452 -0.2239  0.0811 -1.5801
13662TIP3   OH240930   1.686   1.683   6.610  0.3765 -0.1195 -0.0154
13662TIP3    H140931   1.704   1.746   6.679  0.3910  0.4546 -0.5368
13662TIP3    H240932   1.641   1.611   6.655 -0.2458  0.5564  0.4706
13663TIP3   OH240933   3.060   0.178   0.394 -0.1129 -0.3659 -0.1293
13663TIP3    H140934   3.060   0.114   0.323  0.7939 -0.7437  0.2018
13663TIP3    H240935   3.011   0.252   0.359 -0.2381 -0.8035 -0.9093
13664TIP3   OH240936   8.128   2.010   5.736  0.3123 -0.0687  0.3674
13664TIP3    H140937   8.202   1.995   5.678 -0.9668 -0.3813 -1.2560
13664TIP3    H240938   8.136   2.102   5.762 -0.4354  0.8730 -2.3848
13665TIP3   OH240939   1.929   0.047   6.351 -0.3262  0.1787  0.4231
13665TIP3    H140940   1.919  -0.047   6.337 -1.3477  0.3684 -0.2457
13665TIP3    H240941   1.986   0.077   6.280 -2.3226  0.5002 -1.1302
13666TIP3   OH240942   0.619   4.045   1.415 -0.3074  0.5249  0.1503
13666TIP3    H140943   0.701   4.082   1.449 -0.7095  2.5073 -0.8490
13666TIP3    H240944   0.590   3.984   1.483  2.3659 -0.8595  0.1782
13667TIP3   OH240945   5.364   6.683   5.016 -0.0954 -0.0393 -0.0407
13667TIP3    H140946   5.433   6.743   5.044  0.4351  0.4242 -2.1791
13667TIP3    H240947   5.410   6.612   4.971 -0.8811 -0.8985  0.4716
13668TIP3   OH240948   4.818   5.520   5.285  0.1960  0.1575 -0.1224
13668TIP3    H140949   4.750   5.480   5.340 -0.6311  0.4990 -0.8642
13668TIP3    H240950   4.815   5.613   5.307 -0.1734  0.3025 -0.7676
13669TIP3   OH240951   1.876   3.113   3.164  0.5538 -0.1636  0.3145
13669TIP3    H140952   1.826   3.131   3.243  0.9556 -0.3343  0.6092
13669TIP3    H240953   1.861   3.190   3.108 -0.5554 -0.4980  0.1207
13670TIP3   OH240954   5.843   3.337   3.029 -0.1032  0.2086 -0.1211
13670TIP3    H140955   5.933   3.328   2.998 -0.3771 -1.1841 -0.5796
13670TIP3    H240956   5.851   3.346   3.124  0.5746  1.5938 -0.2787
13671TIP3   OH240957   5.719   6.545   0.413  0.1727 -0.3062  0.1387
13671TIP3    H140958   5.637   6.519   0.373  1.2354 -0.8943 -1.7667
13671TIP3    H240959   5.779   6.473   0.395  1.6131  0.9250 -0.1959
13672TIP3   OH240960   0.632   2.665   3.492 -0.7130 -0.0557 -0.3539
13672TIP3    H140961   0.695   2.713   3.438 -1.4805  1.3857 -0.0177
13672TIP3    H240962   0.547   2.689   3.457 -1.1641 -0.2872  0.5435
13673TIP3   OH240963   5.980   4.836   4.459  0.1081 -0.1186  0.3656
13673TIP3    H140964   5.961   4.851   4.366 -1.9765  2.1783  1.0429
13673TIP3    H240965   6.017   4.919   4.489 -0.1227 -0.5128  1.7850
13674TIP3   OH240966   0.348   1.699   2.746 -0.0966 -0.2163  0.0284
13674TIP3    H140967   0.338   1.794   2.753  1.9804  0.2841 -2.2679
13674TIP3    H240968   0.390   1.674   2.829  1.3743  1.2522 -0.2215
13675TIP3   OH240969   6.997   3.683   0.994  0.1661  0.1662 -0.2688
13675TIP3    H140970   7.008   3.770   0.956  2.2598  1.3516  2.6167
13675TIP3    H240971   7.060   3.627   0.948 -1.7015 -0.1125 -2.6368
13676TIP3   OH240972   8.076   7.314   3.265 -0.3416  0.0666  0.2500
13676TIP3    H140973   8.097   7.405   3.287  0.0195  0.4246 -1.4036
13676TIP3    H240974   8.031   7.281   3.342 -0.4751  1.6437  0.9037
13677TIP3   OH240975   4.744   5.057   2.674 -0.4817 -0.2003  0.8036
13677TIP3    H140976   4.830   5.016   2.679 -0.8491 -0.9819  0.9219
13677TIP3    H240977   4.746   5.108   2.594 -0.8520 -2.4820 -0.7484
13678TIP3   OH240978   5.435   2.331   1.077 -0.0736 -0.3583  0.2355
13678TIP3    H140979   5.387   2.274   1.138  0.4043 -0.1186  0.8470
13678TIP3    H240980   5.367   2.373   1.025 -0.6282  0.7664  1.7814
13679TIP3   OH240981   4.153   6.151   3.004  0.2065 -0.4130 -0.5766
13679TIP3    H140982   4.213   6.216   3.040 -0.0914  0.8042 -2.1599
13679TIP3    H240983   4.102   6.121   3.079  0.7601  0.7455  0.2926
13680TIP3   OH240984   6.978   6.305   4.082 -0.3326  0.0399 -0.2482
13680TIP3    H140985   6.893   6.283   4.045 -1.3500  2.6219  0.3291
13680TIP3    H240986   6.959   6.326   4.174  1.2440 -0.9672  0.3485
13681TIP3   OH240987   8.272   2.690   2.052 -0.4499 -0.2995  0.7395
13681TIP3    H140988   8.223   2.762   2.013  0.8215  1.1342  1.6855
13681TIP3    H240989   8.272   2.622   1.984 -0.7094  1.0306 -0.6506
13682TIP3   OH240990   4.037   3.644   6.407  0.0968  0.0025 -0.1897
13682TIP3    H140991   3.958   3.659   6.459 -0.7999  0.6692 -1.7092
13682TIP3    H240992   4.093   3.719   6.427 -0.7293  0.8723 -1.0353
13683TIP3   OH240993   4.774   4.037   1.295 -0.1468  0.6054 -0.1238
13683TIP3    H140994   4.866   4.010   1.290  0.1101  1.2463  0.6942
13683TIP3    H240995   4.765   4.102   1.225 -0.5580 -0.9563 -1.5716
13684TIP3   OH240996   3.780   0.941   5.654 -0.1602  0.1845 -0.0626
13684TIP3    H140997   3.754   0.977   5.570 -0.5265 -0.1922 -0.1100
13684TIP3    H240998   3.716   0.976   5.716 -0.1573  0.0990 -0.0117
13685TIP3   OH240999   6.035   7.697   1.158 -0.2548 -0.0564  0.0514
13685TIP3    H141000   6.043   7.792   1.165  0.0977 -0.1262  0.7766
13685TIP3    H241001   6.124   7.667   1.139 -0.8083 -0.0654 -2.8672
13686TIP3   OH241002   4.068   2.042   4.971  0.2603 -0.0612  0.5592
13686TIP3    H141003   4.137   2.084   4.919 -0.3256 -1.0221 -1.0682
13686TIP3    H241004   4.082   1.948   4.957 -0.5532 -0.3079  1.3404
13687TIP3   OH241005   4.454   4.117   5.461 -0.2817  0.1437 -0.3073
13687TIP3    H141006   4.412   4.133   5.376 -1.4813 -0.3051  0.1702
13687TIP3    H241007   4.500   4.198   5.481 -1.5314  0.9386 -0.5348
13688TIP3   OH241008   6.951   1.874   2.215  0.0416 -0.4233 -0.6408
13688TIP3    H141009   7.038   1.861   2.177  1.8946  3.2898  1.7605
13688TIP3    H241010   6.925   1.962   2.187 -2.6785 -1.0920 -0.5922
13689TIP3   OH241011   5.062   2.057   1.620  0.1081 -1.0148 -1.1217
13689TIP3    H141012   5.067   1.965   1.647  0.4824 -1.4049 -2.4335
13689TIP3    H241013   4.987   2.092   1.668  0.9555 -1.5416  0.6713
13690TIP3   OH241014   4.962   4.130   3.557  0.4287  0.1508 -0.4857
13690TIP3    H141015   4.972   4.133   3.652  0.1626 -1.3850 -0.3770
13690TIP3    H241016   4.888   4.071   3.543  0.0394  0.8728 -1.6398
13691TIP3   OH241017   3.700   5.705   5.211 -0.9962  0.0969  0.6044
13691TIP3    H141018   3.758   5.705   5.135 -0.1312  0.7052  1.2400
13691TIP3    H241019   3.664   5.794   5.213  0.8250  0.8866  2.2147
13692TIP3   OH241020   2.047   4.871   1.460 -0.2674  0.2088  0.4795
13692TIP3    H141021   2.062   4.965   1.450 -1.7321  0.4164  0.0013
13692TIP3    H241022   2.131   4.836   1.489  0.3438  1.6395  0.5026
13693TIP3   OH241023   1.230   6.079   0.216 -0.3125  0.0849 -0.0977
13693TIP3    H141024   1.148   6.064   0.168  1.3442  1.4601 -3.6738
13693TIP3    H241025   1.231   6.173   0.232  0.2352 -0.0338  0.5913
13694TIP3   OH241026   7.460   3.631   1.936  0.4731  0.4802  0.6489
13694TIP3    H141027   7.476   3.698   1.870 -0.6965 -0.2588 -0.4328
13694TIP3    H241028   7.546   3.594   1.954  0.9035  1.1589  0.0404
13695TIP3   OH241029   4.071   1.628   5.241 -0.4688  0.0605 -0.4419
13695TIP3    H141030   4.115   1.554   5.198 -2.4205 -1.3105 -0.2525
13695TIP3    H241031   4.073   1.698   5.177  2.6861  0.3841 -0.1087
13696TIP3   OH241032   0.887   0.475   3.598  0.2161 -0.2782  0.1646
13696TIP3    H141033   0.925   0.522   3.524  2.1550  0.7168  1.6680
13696TIP3    H241034   0.914   0.384   3.586  0.2490 -0.1791 -0.5159
13697TIP3   OH241035   6.041   2.030   4.535 -0.2142  0.3678 -0.4405
13697TIP3    H141036   6.017   1.968   4.605  0.7635  1.3216  0.7978
13697TIP3    H241037   6.003   1.992   4.456  0.0073 -1.6029  0.3259
13698TIP3   OH241038   3.386   7.254   5.146 -0.1609  0.5705  0.1207
13698TIP3    H141039   3.451   7.322   5.161 -1.1048  1.3116  0.9723
13698TIP3    H241040   3.310   7.300   5.112 -1.0397  0.0642  1.3254
13699TIP3   OH241041   5.164   4.163   6.113  0.1362  0.1661  0.4066
13699TIP3    H141042   5.111   4.164   6.193  0.3118 -0.6274  0.5419
13699TIP3    H241043   5.246   4.120   6.139  0.5857  0.7751  0.0360
13700TIP3   OH241044   7.569   6.208   4.747  0.2765 -0.8092  0.2393
13700TIP3    H141045   7.501   6.164   4.696 -0.4352  0.1734  0.3127
13700TIP3    H241046   7.642   6.220   4.686 -2.4298  5.3107 -2.5722
13701TIP3   OH241047   5.883   7.556   4.919  0.2529  0.0164  0.4554
13701TIP3    H141048   5.833   7.604   4.985 -1.2266  0.3903 -0.8686
13701TIP3    H241049   5.872   7.607   4.839 -0.9397 -2.1907 -0.9014
13702TIP3   OH241050   4.553   3.676   2.253  0.3566 -0.4655  0.0660
13702TIP3    H141051   4.504   3.608   2.299 -0.3503 -0.3635 -0.5129
13702TIP3    H241052   4.637   3.635   2.233 -0.5836 -1.7569 -1.6141
13703TIP3   OH241053   4.681   1.765   0.408  0.3585 -0.8270 -0.4399
13703TIP3    H141054   4.753   1.827   0.399 -0.0341 -0.5504 -1.7665
13703TIP3    H241055   4.715   1.684   0.370  0.3015 -0.9880 -0.1583
13704TIP3   OH241056   4.958   1.242   2.928 -0.2379 -0.2900 -0.6262
13704TIP3    H141057   4.998   1.322   2.894  0.0278 -0.0780  0.1425
13704TIP3    H241058   4.977   1.175   2.862  2.8772 -0.5931  0.3857
13705TIP3   OH241059   6.591   6.057   2.079  0.1936 -0.3875 -0.4849
13705TIP3    H141060   6.653   6.117   2.039  0.2288 -0.2615 -0.2463
13705TIP3    H241061   6.527   6.114   2.122 -0.6256 -0.5020 -1.5155
13706TIP3   OH241062   5.592   1.430   0.305  0.0046  0.4374  0.4146
13706TIP3    H141063   5.496   1.433   0.297  0.1384  1.2395 -1.2110
13706TIP3    H241064   5.607   1.403   0.396 -1.7555  0.1479  0.6639
13707TIP3   OH241065   8.099   7.483   5.603  0.2977  0.0799  0.1966
13707TIP3    H141066   8.153   7.413   5.564  2.1335  0.2541  2.2262
13707TIP3    H241067   8.045   7.438   5.668 -0.3653  0.2416 -0.2305
13708TIP3   OH241068   6.229   1.963   5.219 -1.0294  0.2839  0.1820
13708TIP3    H141069   6.180   2.016   5.282 -0.0809  1.5473 -0.0804
13708TIP3    H241070   6.169   1.951   5.145 -1.8077 -0.3703  0.9078
13709TIP3   OH241071   7.877   2.115   2.753  0.1176  0.2244 -0.3030
13709TIP3    H141072   7.900   2.145   2.841  0.0076  0.3521 -0.3166
13709TIP3    H241073   7.783   2.095   2.758  0.0701  0.4128 -0.4397
13710TIP3   OH241074   7.750   2.585   2.675  0.5051 -0.3518 -0.3111
13710TIP3    H141075   7.750   2.490   2.668  0.0956 -0.2901 -1.3514
13710TIP3    H241076   7.676   2.606   2.731 -0.7721 -0.5664 -1.8384
13711TIP3   OH241077   5.050   2.138   0.142 -0.5618  0.0555  0.2837
13711TIP3    H141078   5.122   2.113   0.084 -0.2239 -1.0245  1.1337
13711TIP3    H241079   5.077   2.222   0.180 -0.3968  0.3418 -0.4486
13712TIP3   OH241080   0.541   4.619   3.008 -0.1469  1.0550  0.1589
13712TIP3    H141081   0.626   4.577   2.991 -0.3669 -0.4026  2.2793
13712TIP3    H241082   0.482   4.581   2.942  0.4437  0.6908 -0.1706
13713TIP3   OH241083   3.615   5.274   1.907  0.2718  0.1892  0.3077
13713TIP3    H141084   3.659   5.358   1.915  1.9083 -0.4598 -1.2297
13713TIP3    H241085   3.679   5.210   1.940 -0.6763 -0.5200  0.8257
13714TIP3   OH241086   2.644   4.781   1.581  0.0426 -0.2510 -0.9404
13714TIP3    H141087   2.665   4.776   1.488 -2.0047 -0.7948 -1.4236
13714TIP3    H241088   2.634   4.689   1.608 -0.2726 -0.0660 -0.4168
13715TIP3   OH241089   7.022   7.161   3.115 -0.0580  0.0642 -0.3567
13715TIP3    H141090   6.943   7.110   3.101 -0.2041  0.5266 -1.3401
13715TIP3    H241091   7.055   7.178   3.027 -1.1947  3.4997 -0.2670
13716TIP3   OH241092   4.278   4.331   4.456 -0.1594  0.2685 -0.0508
13716TIP3    H141093   4.357   4.290   4.421  0.9570  2.8647 -0.8086
13716TIP3    H241094   4.286   4.322   4.551 -0.6920 -2.3984 -0.1783
13717TIP3   OH241095   0.294   7.513   4.857  0.2494 -0.5646  0.1530
13717TIP3    H141096   0.217   7.456   4.855  0.6160 -1.0436 -0.9775
13717TIP3    H241097   0.318   7.517   4.949 -0.7096 -0.9764  0.4355
13718TIP3   OH241098   1.710   2.704   2.502  0.0388 -0.0782  0.3180
13718TIP3    H141099   1.647   2.642   2.465  0.7997  1.3210 -3.7665
13718TIP3    H241100   1.678   2.790   2.474  3.5830  0.6900 -1.9058
13719TIP3   OH241101   1.966   0.372   4.329 -0.4533 -0.5317  0.0925
13719TIP3    H141102   1.954   0.287   4.372 -0.1308 -0.9360 -0.6057
13719TIP3    H241103   1.954   0.353   4.236 -2.9225  0.6434  0.1001
13720TIP3   OH241104   7.976   5.482   5.023  0.2872 -0.3020 -0.2340
13720TIP3    H141105   8.029   5.472   4.944  0.5791 -0.0044 -0.0802
13720TIP3    H241106   8.039   5.487   5.094  0.1526  1.4407 -0.1841
13721TIP3   OH241107   2.537   7.499   5.838 -0.0673  0.1163 -0.9033
13721TIP3    H141108   2.451   7.531   5.811 -0.0412  0.5748 -0.4629
13721TIP3    H241109   2.580   7.472   5.757 -0.4531  0.3143 -1.1740
13722TIP3   OH241110   5.441   3.901   1.640 -0.4023 -0.5373  0.2149
13722TIP3    H141111   5.511   3.917   1.703 -0.7518 -2.5244  1.1644
13722TIP3    H241112   5.445   3.808   1.621 -0.7431 -0.1174 -2.2532
13723TIP3   OH241113   4.470   4.503   2.990 -0.8712  0.0798  0.0314
13723TIP3    H141114   4.438   4.593   2.991  2.2896  1.3514  0.6005
13723TIP3    H241115   4.468   4.477   2.898  0.3030  1.6278 -0.4638
13724TIP3   OH241116   2.543   4.600   2.072  0.3073 -0.3363  0.0537
13724TIP3    H141117   2.633   4.626   2.092 -0.0565  1.9145 -0.8997
13724TIP3    H241118   2.500   4.592   2.157  0.7463  1.2628  0.4505
13725TIP3   OH241119   1.924   7.171   6.372 -0.7801 -0.4080  0.2302
13725TIP3    H141120   2.007   7.210   6.344 -0.9989 -0.1110 -0.0110
13725TIP3    H241121   1.919   7.088   6.324 -0.3311 -0.7247  0.7176
13726TIP3   OH241122   0.651   3.829   5.218 -0.3403 -0.5012 -0.0201
13726TIP3    H141123   0.585   3.762   5.201 -0.6560 -0.0744 -0.5174
13726TIP3    H241124   0.717   3.785   5.273 -1.4104 -0.7267  1.1371
13727TIP3   OH241125   0.107   0.453   5.763 -0.3883 -0.7848 -0.1886
13727TIP3    H141126   0.139   0.527   5.712  0.4164 -0.6692  0.4682
13727TIP3    H241127   0.021   0.481   5.795  0.2497  0.1898  0.7204
13728TIP3   OH241128   1.497   6.344   0.603  0.4122 -0.1732 -0.0770
13728TIP3    H141129   1.520   6.385   0.520  0.8162  1.3899  0.7655
13728TIP3    H241130   1.404   6.364   0.615  0.2992 -0.5820 -0.2326
13729TIP3   OH241131   0.721   7.308   1.998 -0.5020 -0.6615 -0.4117
13729TIP3    H141132   0.626   7.309   1.989 -0.5751  2.3350 -0.3127
13729TIP3    H241133   0.736   7.313   2.093 -0.2881 -0.0900 -0.4705
13730TIP3   OH241134   5.012   0.811   3.242 -0.5202 -0.6015  0.2650
13730TIP3    H141135   5.081   0.877   3.231 -0.9016 -0.1973  0.2342
13730TIP3    H241136   4.969   0.836   3.324 -2.6691  1.1087 -1.2386
13731TIP3   OH241137   0.500   2.024   2.978 -0.1366  0.0462  0.0705
13731TIP3    H141138   0.565   2.055   3.041 -0.6387 -0.2891  0.7561
13731TIP3    H241139   0.552   1.975   2.914  0.4371  0.7900 -0.0637
13732TIP3   OH241140   6.850   1.670   2.909  0.2688 -0.2269 -0.5247
13732TIP3    H141141   6.817   1.611   2.977  1.7423 -0.8645 -0.3324
13732TIP3    H241142   6.907   1.615   2.855  1.5656  0.9816 -0.4245
13733TIP3   OH241143   2.249   0.612   2.914 -0.1578 -0.9046  0.0156
13733TIP3    H141144   2.331   0.563   2.905  0.6191 -0.5430  3.5873
13733TIP3    H241145   2.181   0.545   2.910  0.4051 -1.4483 -1.1200
13734TIP3   OH241146   7.904   4.685   1.251  0.3056  0.0711 -0.3307
13734TIP3    H141147   7.998   4.691   1.231  0.3166 -3.3063 -1.9515
13734TIP3    H241148   7.901   4.635   1.332 -0.1243  0.3567 -0.1675
13735TIP3   OH241149   6.649   5.986   2.332 -0.7204 -0.2009  0.2980
13735TIP3    H141150   6.575   6.018   2.383  0.7700  1.2703  1.6364
13735TIP3    H241151   6.624   6.002   2.241 -1.4863  1.5532  0.7873
13736TIP3   OH241152   2.506   6.381   4.434 -0.9705 -0.0822  0.1329
13736TIP3    H141153   2.590   6.426   4.437 -0.7691 -0.4147 -0.2516
13736TIP3    H241154   2.471   6.386   4.523  0.2687 -1.4563  0.7400
13737TIP3   OH241155   0.052   4.774   2.489  0.0133  0.6690 -0.3692
13737TIP3    H141156  -0.023   4.720   2.464 -0.5185  1.0149  0.4572
13737TIP3    H241157   0.014   4.847   2.538  0.8733  0.9499 -0.1061
13738TIP3   OH241158   2.953   7.185   3.795 -0.3396 -0.5487  0.3639
13738TIP3    H141159   2.945   7.279   3.810 -2.3993 -0.5648 -0.3696
13738TIP3    H241160   3.038   7.175   3.751 -0.2011  0.9853  0.2305
13739TIP3   OH241161   1.931   5.596   6.020 -0.3482 -0.3726  0.1631
13739TIP3    H141162   1.997   5.529   6.039  0.0959  0.1782  0.6253
13739TIP3    H241163   1.916   5.590   5.926 -0.8565 -1.6083  0.3114
13740TIP3   OH241164   7.931   6.886   0.277  0.6495  0.4635  0.3096
13740TIP3    H141165   7.838   6.902   0.293  0.6131  1.6753 -0.9517
13740TIP3    H241166   7.934   6.833   0.197  1.0141 -1.0598  1.2802
13741TIP3   OH241167   5.293   4.124   4.781  0.3753  0.0029  0.4118
13741TIP3    H141168   5.307   4.038   4.743 -0.3487 -0.1672  0.5099
13741TIP3    H241169   5.202   4.146   4.759  0.4154  0.5489  0.7571
13742TIP3   OH241170   0.981   2.475   0.517 -0.0787 -0.4583 -0.2291
13742TIP3    H141171   1.037   2.550   0.538 -0.3120 -0.1836 -0.5669
13742TIP3    H241172   0.972   2.428   0.600  0.6878 -0.5369 -0.1808
13743TIP3   OH241173   1.419   6.278   2.942 -0.1663  0.2160 -0.2945
13743TIP3    H141174   1.364   6.353   2.963  0.3738  0.6746 -0.4790
13743TIP3    H241175   1.366   6.201   2.964 -1.1494  0.6333 -1.1684
13744TIP3   OH241176   5.880   6.096   0.749 -0.0180  0.6277  0.3823
13744TIP3    H141177   5.857   6.037   0.820  0.2418  0.1823  0.1005
13744TIP3    H241178   5.957   6.144   0.781  1.3008 -0.9214 -0.2945
13745TIP3   OH241179   5.464   1.781   0.452 -0.7769 -0.3581 -0.0446
13745TIP3    H141180   5.527   1.817   0.513  0.2140  0.7162 -1.6314
13745TIP3    H241181   5.463   1.843   0.379 -1.7936 -1.6739 -1.1998
13746TIP3   OH241182   2.099   5.334   3.627 -0.1676 -0.2890 -0.2333
13746TIP3    H141183   2.057   5.264   3.577  0.7048 -0.0228 -1.4068
13746TIP3    H241184   2.169   5.365   3.569  0.8418  0.0973  1.1438
13747TIP3   OH241185   1.254   7.548   4.625  0.4322 -0.3764 -0.2503
13747TIP3    H141186   1.288   7.526   4.538  0.9435 -1.9930  0.3260
13747TIP3    H241187   1.331   7.574   4.675  0.1578  0.4023 -0.2194
13748TIP3   OH241188   0.983   4.367   6.133  0.1786  0.1857 -0.3883
13748TIP3    H141189   0.923   4.304   6.093 -2.1513  1.2574  1.1905
13748TIP3    H241190   0.949   4.380   6.222  1.4375  2.5552 -0.1704
13749TIP3   OH241191   1.756   7.731   0.341  0.8851 -0.3396 -0.0548
13749TIP3    H141192   1.733   7.785   0.417 -1.2069  0.6731 -1.3118
13749TIP3    H241193   1.724   7.643   0.363  1.2246 -0.3007  0.6245
13750TIP3   OH241194   2.038   4.010   5.351  0.1206 -0.0575 -0.4711
13750TIP3    H141195   2.028   4.004   5.446  0.3309 -0.0348 -0.4468
13750TIP3    H241196   1.980   3.942   5.317 -0.9172  0.7611 -0.3850
13751TIP3   OH241197   3.119   6.454   5.343 -0.5965  0.2545  0.3190
13751TIP3    H141198   3.174   6.376   5.351 -1.0431 -0.3055 -1.6449
13751TIP3    H241199   3.179   6.523   5.315 -0.6162  0.0295 -0.2819
13752TIP3   OH241200   4.006   1.318   4.515 -0.0432 -0.4200 -0.7121
13752TIP3    H141201   3.969   1.230   4.522 -1.1221 -0.1697 -2.6834
13752TIP3    H241202   3.930   1.376   4.517  0.6203  0.4660  0.0231
13753TIP3   OH241203   2.397   6.149   3.912  0.0724 -0.8627 -0.4955
13753TIP3    H141204   2.388   6.063   3.953  1.5900 -1.6121 -1.6491
13753TIP3    H241205   2.312   6.164   3.870 -0.5205 -1.3602  0.4826
13754TIP3   OH241206   0.698   1.419   5.968  0.3207 -0.5804  0.0617
13754TIP3    H141207   0.618   1.437   6.017  0.4007 -0.8727  0.3056
13754TIP3    H241208   0.675   1.346   5.911  0.4369 -0.7186  0.1912
13755TIP3   OH241209   7.436   0.784   5.032  0.7410 -0.0491 -0.2764
13755TIP3    H141210   7.370   0.771   4.963 -0.4146 -0.1072  0.7894
13755TIP3    H241211   7.421   0.711   5.092 -0.1306  1.4288  1.4188
13756TIP3   OH241212   7.512   3.822   1.735  0.1210  0.1288  0.9918
13756TIP3    H141213   7.446   3.805   1.668 -1.1745 -1.0207  2.4903
13756TIP3    H241214   7.592   3.783   1.701 -0.1359  0.8283 -0.4941
13757TIP3   OH241215   7.323   1.972   3.680  0.5985 -0.6856  0.4136
13757TIP3    H141216   7.306   2.018   3.762 -1.2046  0.2383 -0.4222
13757TIP3    H241217   7.256   1.904   3.676 -0.6328  0.5362 -1.1575
13758TIP3   OH241218   4.204   4.575   0.909 -0.0828  0.7343  0.1258
13758TIP3    H141219   4.157   4.529   0.978  0.2625  1.1362  0.6423
13758TIP3    H241220   4.144   4.644   0.880 -1.3272 -1.0731 -1.8958
13759TIP3   OH241221   5.765   5.246   5.106  0.1199 -0.8603 -0.0345
13759TIP3    H141222   5.854   5.273   5.126 -0.2347 -0.0276  0.4884
13759TIP3    H241223   5.731   5.315   5.049 -0.9399  0.0808  1.6415
13760TIP3   OH241224   5.239   7.136   5.132 -0.1924  0.4287 -0.1043
13760TIP3    H141225   5.222   7.042   5.124 -0.4557  0.4319  0.3750
13760TIP3    H241226   5.323   7.141   5.177  1.0843  0.4132 -2.3674
13761TIP3   OH241227   3.512   3.644   4.915  0.1397 -0.1129  0.1831
13761TIP3    H141228   3.585   3.660   4.854  0.9518  1.3771  1.4566
13761TIP3    H241229   3.540   3.686   4.997 -1.2541 -1.3689  1.3564
13762TIP3   OH241230   0.669   4.173   2.777  0.4718 -0.0066  0.1166
13762TIP3    H141231   0.747   4.227   2.766  0.3120  0.3325  0.6092
13762TIP3    H241232   0.703   4.084   2.791  0.8088  0.2565  1.0804
13763TIP3   OH241233   8.026   6.094   6.163 -0.8057 -0.0590  0.1232
13763TIP3    H141234   7.956   6.109   6.099  0.6488 -0.3372 -1.5828
13763TIP3    H241235   8.082   6.171   6.156  1.5685 -1.8339 -1.9324
13764TIP3   OH241236   2.940   7.510   5.578 -0.5643 -0.1712  0.1684
13764TIP3    H141237   2.854   7.479   5.605 -0.6655  0.6610  0.8382
13764TIP3    H241238   2.996   7.432   5.584 -1.2181 -0.6676 -0.0602
13765TIP3   OH241239   1.966   2.773   0.316  0.5555  0.3266  0.0359
13765TIP3    H141240   1.920   2.846   0.274 -0.6366 -0.8013 -0.7061
13765TIP3    H241241   2.049   2.811   0.346 -0.7709  2.4335  1.3245
13766TIP3   OH241242   4.748   2.854   4.402 -0.4066  0.2527 -0.0368
13766TIP3    H141243   4.661   2.895   4.405 -0.3286  0.4709 -0.6841
13766TIP3    H241244   4.732   2.765   4.372 -0.2615  0.7304 -1.5773
13767TIP3   OH241245   2.951   7.661   3.265  0.2340  0.6686 -0.0449
13767TIP3    H141246   3.024   7.674   3.325  1.2306  3.5170 -1.6696
13767TIP3    H241247   2.965   7.574   3.228  0.5295 -0.4389  2.4879
13768TIP3   OH241248   5.680   4.594   3.763 -0.4722  0.5204  0.3610
13768TIP3    H141249   5.773   4.572   3.755 -0.6456 -0.4754  0.9939
13768TIP3    H241250   5.664   4.597   3.857 -1.4337 -0.9103  0.2793
13769TIP3   OH241251   2.714   2.668   0.621 -0.0510  0.1976 -0.4402
13769TIP3    H141252   2.729   2.760   0.641  0.6168 -0.0008  0.0060
13769TIP3    H241253   2.740   2.621   0.700  1.7740 -0.5476 -1.4234
13770TIP3   OH241254   2.565   4.536   0.548 -0.2069 -0.3707 -0.0667
13770TIP3    H141255   2.497   4.603   0.545 -0.9278 -1.1023 -1.7733
13770TIP3    H241256   2.646   4.584   0.563 -0.7397  0.8866 -1.0082
13771TIP3   OH241257   4.478   1.497   5.821  0.5979  0.4340 -0.1946
13771TIP3    H141258   4.434   1.528   5.741  1.7956  0.2024 -0.9613
13771TIP3    H241259   4.501   1.406   5.802 -0.0047  0.0529  0.8165
13772TIP3   OH241260   8.073   1.966   3.668  0.1639  0.3093  0.3989
13772TIP3    H141261   7.991   1.998   3.631  0.2605 -1.0895 -1.1719
13772TIP3    H241262   8.129   1.950   3.592  1.4743  0.1427  1.3641
13773TIP3   OH241263   3.872   4.236   6.241  0.0785 -0.1767  0.6069
13773TIP3    H141264   3.914   4.220   6.325 -0.1361 -1.0231  0.5647
13773TIP3    H241265   3.789   4.188   6.247 -0.7090  1.1303  0.5446
13774TIP3   OH241266   4.766   5.380   2.699  0.3177 -0.4874 -0.3983
13774TIP3    H141267   4.680   5.379   2.656  1.1595 -2.3342 -2.1918
13774TIP3    H241268   4.748   5.415   2.786 -2.0314  0.3759 -1.1332
13775TIP3   OH241269   7.624   1.278   2.043  0.2923  0.1054 -0.0325
13775TIP3    H141270   7.618   1.319   2.130 -0.1937  0.5391 -0.2612
13775TIP3    H241271   7.663   1.346   1.988  0.4490 -0.1121 -0.1882
13776TIP3   OH241272   7.530   4.500   4.742  0.0754  0.3876  0.7134
13776TIP3    H141273   7.539   4.554   4.821  1.4869 -0.7246  1.3486
13776TIP3    H241274   7.596   4.535   4.682  0.4373 -0.0957  0.8232
13777TIP3   OH241275   5.671   4.643   5.052 -0.1824  0.6236  0.2985
13777TIP3    H141276   5.648   4.700   4.980  1.1598  0.5252 -0.2449
13777TIP3    H241277   5.676   4.556   5.013 -0.4800  0.4029  0.7415
13778TIP3   OH241278   2.965   0.177   6.476  0.4145  0.0589  0.1612
13778TIP3    H141279   3.003   0.101   6.432 -1.0551 -0.0939 -0.9358
13778TIP3    H241280   3.035   0.210   6.533  1.5544 -1.2381 -0.4332
13779TIP3   OH241281   2.387   0.561   4.270  0.3391 -0.0109  0.1733
13779TIP3    H141282   2.334   0.528   4.343 -0.6302 -0.6602 -0.7874
13779TIP3    H241283   2.328   0.559   4.195  1.0020  1.6640 -0.4244
13780TIP3   OH241284   7.576   5.669   3.684 -0.4478  0.5909  0.1953
13780TIP3    H141285   7.586   5.759   3.653 -0.5484  0.7546  0.6448
13780TIP3    H241286   7.642   5.659   3.752 -0.2773  0.2482 -0.0117
13781TIP3   OH241287   3.068   6.559   3.281  0.1975 -0.1196  0.2820
13781TIP3    H141288   3.054   6.558   3.186  1.5725  1.0217  0.0269
13781TIP3    H241289   3.009   6.492   3.315 -1.3561  0.4111 -1.2257
13782TIP3   OH241290   4.244   2.329   1.152 -0.1354  0.2573  0.1483
13782TIP3    H141291   4.203   2.303   1.069 -0.2313 -0.6053  0.4527
13782TIP3    H241292   4.320   2.272   1.160  0.1000  0.6147  0.4578
13783TIP3   OH241293   2.057   2.678   2.272 -0.2734 -0.0872 -0.2425
13783TIP3    H141294   1.979   2.624   2.281  0.1141 -0.4536  1.2060
13783TIP3    H241295   2.122   2.621   2.231 -0.3255 -0.2602 -0.0855
13784TIP3   OH241296   5.771   0.519   4.930 -0.4829 -0.1440  0.1520
13784TIP3    H141297   5.784   0.573   5.008 -2.0117 -0.2835  0.5243
13784TIP3    H241298   5.679   0.495   4.932 -0.0235 -2.1541 -0.4073
13785TIP3   OH241299   6.235   5.432   2.874 -0.2107 -0.3774 -0.1076
13785TIP3    H141300   6.262   5.388   2.955 -1.8387 -1.7361 -0.2435
13785TIP3    H241301   6.195   5.514   2.903 -1.6395 -1.2888  0.5698
13786TIP3   OH241302   7.271   3.346   4.602 -0.2204 -0.0029  0.8134
13786TIP3    H141303   7.314   3.369   4.520  0.8321 -2.3071  0.6526
13786TIP3    H241304   7.335   3.367   4.669 -0.4600  0.3894  0.9218
13787TIP3   OH241305   6.565   3.290   0.406 -0.7168  0.3555  0.3488
13787TIP3    H141306   6.655   3.271   0.434 -0.3480  1.1354 -0.3048
13787TIP3    H241307   6.571   3.370   0.355 -1.1425 -1.6272 -3.1212
13788TIP3   OH241308   0.793   0.470   4.024  0.5476  0.2824  0.2978
13788TIP3    H141309   0.766   0.385   4.058 -1.6348  1.4288  1.6463
13788TIP3    H241310   0.771   0.466   3.930  0.4740 -0.6320  0.3418
13789TIP3   OH241311   7.100   2.381   1.803  0.4699  0.2921 -0.1981
13789TIP3    H141312   7.006   2.368   1.818  0.1152 -0.2406 -2.5350
13789TIP3    H241313   7.132   2.417   1.886 -1.5284 -0.7322  1.1135
13790TIP3   OH241314   4.184   7.130   3.793 -0.1821 -0.2869 -0.3697
13790TIP3    H141315   4.166   7.059   3.855  0.0580  0.4944  0.6189
13790TIP3    H241316   4.264   7.171   3.826 -1.5827  1.9429  0.5169
13791TIP3   OH241317   8.001   7.048   2.309  0.6475  0.2832 -0.6526
13791TIP3    H141318   8.024   6.962   2.275  2.2805  0.0512  0.8806
13791TIP3    H241319   7.905   7.052   2.301  0.6545 -1.1303 -1.9219
13792TIP3   OH241320   1.150   3.938   2.885 -0.0675 -0.0527 -0.0422
13792TIP3    H141321   1.138   3.937   2.980  0.0763  0.1114 -0.0202
13792TIP3    H241322   1.085   3.878   2.851 -1.3149  1.2104  0.0167
13793TIP3   OH241323   4.109   4.522   1.773 -0.5803 -0.2281 -0.3870
13793TIP3    H141324   4.051   4.447   1.770 -0.6627 -0.2306  0.8210
13793TIP3    H241325   4.196   4.485   1.789 -0.4824 -0.1246 -0.6762
13794TIP3   OH241326   3.399   4.359   2.569  0.0273  0.2866  0.0316
13794TIP3    H141327   3.358   4.296   2.510 -1.2123  0.4705  0.6750
13794TIP3    H241328   3.334   4.428   2.580  0.8937  1.0785  0.3053
13795TIP3   OH241329   7.941   6.694   0.050  0.3949  0.4220  0.8296
13795TIP3    H141330   7.974   6.655  -0.031  0.7847 -0.5721  1.4384
13795TIP3    H241331   7.870   6.751   0.022  0.7071  0.3189 -0.2351
13796TIP3   OH241332   2.199   0.837   3.450 -0.1587 -0.1285 -0.1162
13796TIP3    H141333   2.136   0.820   3.381  0.2697  0.4679 -0.6703
13796TIP3    H241334   2.261   0.765   3.445 -0.2352 -0.1855 -0.2350
13797TIP3   OH241335   6.383   3.278   2.923 -0.9319  0.0328 -0.1845
13797TIP3    H141336   6.378   3.366   2.886  0.3927  0.4549  0.5708
13797TIP3    H241337   6.433   3.228   2.859  0.3574  0.4613  0.4640
13798TIP3   OH241338   4.130   0.811   2.323 -0.0631  0.4023  0.6112
13798TIP3    H141339   4.168   0.882   2.376  0.3511  1.9299 -1.5774
13798TIP3    H241340   4.089   0.856   2.249  0.9346 -1.6746 -1.3290
13799TIP3   OH241341   0.754   4.949   3.866 -0.1307 -0.2439  0.0588
13799TIP3    H141342   0.787   4.867   3.831  0.0954 -0.5426  0.9372
13799TIP3    H241343   0.717   4.926   3.952 -0.9169  0.4121 -0.0926
13800TIP3   OH241344   6.436   4.414   2.297 -0.6640 -0.0413 -0.1906
13800TIP3    H141345   6.341   4.424   2.292 -0.5851  0.0918 -2.6781
13800TIP3    H241346   6.462   4.386   2.209  1.5167 -0.9287  0.6620
13801TIP3   OH241347   7.868   5.716   2.235 -0.4399 -0.7372 -0.0499
13801TIP3    H141348   7.924   5.655   2.188  0.3545  0.9355 -1.3706
13801TIP3    H241349   7.892   5.802   2.201  0.7834  0.7495  3.9532
13802TIP3   OH241350   3.759   3.700   0.285  0.5341  0.1291  0.3520
13802TIP3    H141351   3.815   3.652   0.345  1.0592 -0.8890 -0.8935
13802TIP3    H241352   3.707   3.632   0.241 -0.7716  0.9537  0.5795
13803TIP3   OH241353   0.498   1.005   6.053 -0.1905  0.1970 -0.6338
13803TIP3    H141354   0.544   1.085   6.076  1.9747 -0.8113 -1.2230
13803TIP3    H241355   0.426   1.034   5.996  0.0193  1.7796 -0.1338
13804TIP3   OH241356   2.299   6.594   1.975 -0.5917 -0.0725 -0.4396
13804TIP3    H141357   2.334   6.505   1.982  0.1602  0.2653  0.3442
13804TIP3    H241358   2.375   6.650   1.986 -0.3269  0.7466 -4.6881
13805TIP3   OH241359   1.918   5.918   4.083 -0.0097 -0.3749  0.0844
13805TIP3    H141360   1.836   5.954   4.118 -0.1626  0.5293 -1.1460
13805TIP3    H241361   1.899   5.825   4.070 -1.1040 -0.0319 -0.8933
13806TIP3   OH241362   0.775   3.469   1.751 -0.4312  0.2950 -0.2998
13806TIP3    H141363   0.853   3.442   1.703 -0.5409 -0.3752 -0.1066
13806TIP3    H241364   0.730   3.528   1.690  0.0555  0.4297 -0.5390
13807TIP3   OH241365   1.759   5.626   1.478  0.1854  0.5231 -0.5325
13807TIP3    H141366   1.734   5.542   1.515 -0.5670  1.2711  0.7340
13807TIP3    H241367   1.853   5.632   1.495  0.1051  0.2460  0.0486
13808TIP3   OH241368   4.039   7.705   3.425  0.3365  0.0788 -0.2544
13808TIP3    H141369   3.971   7.691   3.359 -0.6696 -0.3389  0.8585
13808TIP3    H241370   4.021   7.641   3.493  1.7525  0.0747  0.1408
13809TIP3   OH241371   7.490   6.424   5.506  0.0825 -0.0836 -0.4578
13809TIP3    H141372   7.522   6.336   5.487  1.6818  0.1706  0.7211
13809TIP3    H241373   7.412   6.411   5.559 -0.5291 -0.7714 -1.5112
13810TIP3   OH241374   5.485   6.412   6.307 -0.0309  0.5965  0.0164
13810TIP3    H141375   5.413   6.386   6.364 -0.6111  1.9515 -0.0390
13810TIP3    H241376   5.481   6.508   6.307 -0.7478  0.6833 -3.1279
13811TIP3   OH241377   7.030   0.682   4.311 -0.8714  0.5446 -0.1606
13811TIP3    H141378   6.952   0.626   4.313 -0.3009 -0.2595  0.2473
13811TIP3    H241379   7.102   0.621   4.294 -0.2938  1.2356 -0.2202
13812TIP3   OH241380   5.135   2.444   4.289 -0.1944 -0.1573  0.1030
13812TIP3    H141381   5.148   2.449   4.383 -0.5956 -1.6020  0.2560
13812TIP3    H241382   5.110   2.533   4.263  0.1450  0.3038  1.3094
13813TIP3   OH241383   4.464   3.488   2.495  0.1575  0.3842  0.3418
13813TIP3    H141384   4.483   3.421   2.429 -0.7511 -0.6518  1.0892
13813TIP3    H241385   4.460   3.440   2.577  0.7573  1.5767  1.0968
13814TIP3   OH241386   6.818   0.068   5.099 -0.0504  0.2637 -0.0039
13814TIP3    H141387   6.740   0.084   5.151  0.6431  0.6592  0.9430
13814TIP3    H241388   6.863   0.152   5.096  0.0125  0.2095 -1.1178
13815TIP3   OH241389   5.861   2.887   4.295  0.4069  0.1910 -0.1726
13815TIP3    H141390   5.837   2.925   4.210  0.3995  1.6551  0.4556
13815TIP3    H241391   5.832   2.952   4.359  2.0468 -0.0385  0.8498
13816TIP3   OH241392   1.143   6.897   0.805  0.3621 -0.0477 -0.5801
13816TIP3    H141393   1.190   6.980   0.811  0.3035  0.0771 -1.6211
13816TIP3    H241394   1.131   6.883   0.711 -1.3076 -0.2932 -0.3641
13817TIP3   OH241395   7.880   6.121   0.705  0.2040 -0.0702 -0.2271
13817TIP3    H141396   7.787   6.102   0.707  0.3113 -0.8495 -1.3645
13817TIP3    H241397   7.897   6.149   0.615  1.3638 -1.6326 -0.5419
13818TIP3   OH241398   5.979   3.999   4.299  0.0351 -0.0291  0.1939
13818TIP3    H141399   5.972   4.065   4.229 -0.1429 -0.5098 -0.2511
13818TIP3    H241400   6.064   4.016   4.340  0.7703 -0.5940 -1.0329
13819TIP3   OH241401   5.445   7.531   6.190  0.1494 -0.1489 -0.1590
13819TIP3    H141402   5.503   7.459   6.166 -0.0800 -0.7008  0.8666
13819TIP3    H241403   5.503   7.603   6.213  0.4467 -0.6850  0.8213
13820TIP3   OH241404   3.493   2.856   2.384 -1.3644 -0.5811  0.2739
13820TIP3    H141405   3.585   2.858   2.409 -1.5255  0.1242  0.8425
13820TIP3    H241406   3.486   2.782   2.324  0.4908  2.0518 -3.5609
13821TIP3   OH241407   3.337   3.262   6.291  0.0664  0.0798  0.1283
13821TIP3    H141408   3.300   3.346   6.320  0.3044 -0.0521  0.8365
13821TIP3    H241409   3.389   3.232   6.366  0.3167 -0.5015 -0.2751
13822TIP3   OH241410   4.521   1.795   4.366  0.2271 -0.0041  0.4968
13822TIP3    H141411   4.500   1.862   4.432 -0.3270  0.2471  0.0797
13822TIP3    H241412   4.444   1.793   4.309  0.2629 -0.9656  0.4670
13823TIP3   OH241413   0.946   4.968   5.645 -0.6109  0.4660 -0.0859
13823TIP3    H141414   1.041   4.973   5.661 -0.7662  1.7950  0.6038
13823TIP3    H241415   0.921   5.058   5.623 -1.6168 -0.0001 -0.8999
13824TIP3   OH241416   2.680   0.589   2.966 -0.2418 -0.0464  0.5381
13824TIP3    H141417   2.613   0.644   3.007  0.6163  0.6057  1.0928
13824TIP3    H241418   2.684   0.511   3.022 -1.2783 -0.5765 -0.1031
13825TIP3   OH241419   0.837   2.417   4.548 -0.2009 -0.2797 -0.5587
13825TIP3    H141420   0.805   2.331   4.521 -3.0567  1.0107 -1.6480
13825TIP3    H241421   0.809   2.426   4.639  0.8854 -0.7970 -0.1520
13826TIP3   OH241422   3.609   2.977   0.561  0.5405 -0.0549  0.4073
13826TIP3    H141423   3.662   2.946   0.487  1.3602 -1.1984  1.4355
13826TIP3    H241424   3.609   3.072   0.552  3.0482  0.0240  0.5270
13827TIP3   OH241425   0.104   0.924   2.487 -0.2978 -0.2058 -0.5078
13827TIP3    H141426   0.049   0.989   2.444  0.1319 -0.4136 -1.3869
13827TIP3    H241427   0.050   0.890   2.558  0.5694  3.4722  2.2122
13828TIP3   OH241428   3.330   5.421   5.652 -0.0547  0.2580  0.3201
13828TIP3    H141429   3.242   5.456   5.639  0.1976  1.6511  2.0015
13828TIP3    H241430   3.385   5.476   5.596 -0.0130  0.7110  0.8005
13829TIP3   OH241431   3.284   0.529   5.813  0.1284  0.7136  0.5716
13829TIP3    H141432   3.216   0.501   5.751  1.2294  0.4081 -0.5530
13829TIP3    H241433   3.257   0.616   5.840  0.8211  1.9666 -2.3223
13830TIP3   OH241434   7.855   0.494   4.905 -0.2984 -0.6271 -0.3129
13830TIP3    H141435   7.890   0.424   4.960 -0.1169 -0.0169  0.3723
13830TIP3    H241436   7.779   0.456   4.862 -2.4672 -0.2445  2.8259
13831TIP3   OH241437   4.529   0.402   6.432 -0.5499 -0.0649 -0.0136
13831TIP3    H141438   4.596   0.449   6.483 -1.6796  1.6646 -0.0501
13831TIP3    H241439   4.446   0.442   6.459 -1.3335 -0.2707 -1.9842
13832TIP3   OH241440   3.144   6.575   6.345 -0.2903  0.0733  0.4237
13832TIP3    H141441   3.091   6.508   6.389 -0.1556 -1.9509 -2.2416
13832TIP3    H241442   3.122   6.656   6.391 -0.1920 -1.7368  4.0722
13833TIP3   OH241443   8.213   7.722   5.530  0.4094  0.1176 -0.6891
13833TIP3    H141444   8.293   7.726   5.582  0.8192  0.6384 -1.3477
13833TIP3    H241445   8.170   7.641   5.558  1.4134 -0.4320 -0.6874
13834TIP3   OH241446   0.136   5.580   4.325  0.0899  0.2460 -0.0154
13834TIP3    H141447   0.131   5.485   4.335 -0.1124  0.3037  0.4589
13834TIP3    H241448   0.088   5.598   4.245 -1.4931  0.1287  0.8713
13835TIP3   OH241449   4.535   6.217   0.168 -0.6044 -0.3313 -0.0568
13835TIP3    H141450   4.604   6.174   0.118  0.7872 -0.0374  1.5307
13835TIP3    H241451   4.573   6.301   0.194 -1.5914 -0.1114  0.7384
13836TIP3   OH241452   3.534   1.343   2.133  0.2751  0.3271  0.0133
13836TIP3    H141453   3.526   1.399   2.055 -0.3627 -1.8851 -1.6194
13836TIP3    H241454   3.444   1.334   2.165  0.4215  0.4965  0.4788
13837TIP3   OH241455   1.721   2.761   4.410  0.3162 -0.1207  0.1624
13837TIP3    H141456   1.712   2.844   4.456 -0.1745  0.1245 -0.3631
13837TIP3    H241457   1.637   2.718   4.422 -0.1258  0.3055 -1.1768
13838TIP3   OH241458   7.225   2.584   4.614  0.0491 -1.1867 -0.4194
13838TIP3    H141459   7.138   2.614   4.587 -0.9290 -2.3463  1.2532
13838TIP3    H241460   7.212   2.550   4.702  1.7699 -3.3604 -0.9215
13839TIP3   OH241461   6.419   0.887   0.489  0.1694  0.1198  0.0544
13839TIP3    H141462   6.427   0.811   0.546 -1.7187 -0.1793 -0.0102
13839TIP3    H241463   6.422   0.962   0.549 -0.9368 -0.1560  0.4872
13840TIP3   OH241464   0.154   5.309   2.330  0.1464 -0.7073  0.7104
13840TIP3    H141465   0.173   5.240   2.267  1.9325 -1.2729  1.7836
13840TIP3    H241466   0.066   5.289   2.362  0.8941 -2.9801  1.5455
13841TIP3   OH241467   3.975   6.350   5.168 -0.9814 -0.4410 -0.2242
13841TIP3    H141468   3.995   6.431   5.121  1.1281 -0.8320 -0.1194
13841TIP3    H241469   3.906   6.374   5.229 -1.1370  1.0127 -0.9287
13842TIP3   OH241470   0.253   7.782   6.310  0.2810  0.0238 -0.0846
13842TIP3    H141471   0.187   7.760   6.245  1.7603 -0.5488 -1.4411
13842TIP3    H241472   0.316   7.710   6.306  1.8323  1.3270  0.0280
13843TIP3   OH241473   5.323   4.105   5.646  0.4282 -0.5951  0.1907
13843TIP3    H141474   5.401   4.049   5.642  1.1696  0.3925  0.2133
13843TIP3    H241475   5.348   4.184   5.597  0.0474  0.4240  1.5506
13844TIP3   OH241476   7.191   1.377   4.577  0.1580 -0.0207 -0.0980
13844TIP3    H141477   7.188   1.365   4.482  1.6041 -0.0478 -0.1630
13844TIP3    H241478   7.234   1.298   4.610 -0.8506 -0.2754  0.6456
13845TIP3   OH241479   2.958   1.665   0.720 -0.3899 -0.4135  0.4212
13845TIP3    H141480   2.930   1.665   0.629 -0.7225  0.0503  0.5205
13845TIP3    H241481   2.883   1.628   0.768 -1.0134  1.1915  0.7326
13846TIP3   OH241482   7.791   1.244   3.312  0.2304  0.2930  0.3279
13846TIP3    H141483   7.861   1.197   3.267 -2.0147 -2.1721 -0.8483
13846TIP3    H241484   7.748   1.294   3.243 -1.9100 -1.8138  0.0432
13847TIP3   OH241485   1.997   2.975   5.670 -0.2897  0.3965 -0.1660
13847TIP3    H141486   1.959   2.973   5.758 -0.9875 -0.7745 -0.4793
13847TIP3    H241487   1.979   3.063   5.638  1.8154  1.5949  1.6299
13848TIP3   OH241488   4.025   7.310   4.815  0.9554 -0.1213 -0.0389
13848TIP3    H141489   4.118   7.318   4.792  0.9451  0.3182  0.0686
13848TIP3    H241490   4.017   7.223   4.854  1.6702  0.5425  1.6371
13849TIP3   OH241491   7.712   2.808   2.547 -0.1492 -0.1518  0.7731
13849TIP3    H141492   7.625   2.788   2.513  0.3408  0.1788 -0.7570
13849TIP3    H241493   7.743   2.726   2.586 -0.6655 -0.6090  0.2303
13850TIP3   OH241494   5.570   5.022   2.772 -0.5247 -0.8159  0.4144
13850TIP3    H141495   5.596   4.959   2.839  0.6177 -0.1395  0.6397
13850TIP3    H241496   5.649   5.032   2.717 -1.4126 -1.3265 -1.0214
13851TIP3   OH241497   5.949   5.577   5.155 -0.5118 -0.0438  0.4521
13851TIP3    H141498   5.982   5.488   5.146  2.1022  0.8075  0.8827
13851TIP3    H241499   5.952   5.613   5.066 -1.8314 -0.4424  0.2318
13852TIP3   OH241500   3.217   2.504   4.208  0.1278  0.8506  0.1514
13852TIP3    H141501   3.270   2.454   4.146  0.1880  0.3552  0.5945
13852TIP3    H241502   3.193   2.441   4.276 -2.1957  0.6873 -0.7281
13853TIP3   OH241503   0.862   0.195   4.616  0.5792  0.0977  0.0365
13853TIP3    H141504   0.916   0.253   4.562  1.3315  0.1071  0.7735
13853TIP3    H241505   0.807   0.254   4.667 -0.9449  0.0676 -1.4900
13854TIP3   OH241506   8.089   1.219   1.229 -0.4605 -0.3709 -0.8231
13854TIP3    H141507   8.031   1.296   1.226 -0.5415 -0.2884  1.5650
13854TIP3    H241508   8.033   1.147   1.201 -0.3523  0.3699 -3.2408
13855TIP3   OH241509   0.750   1.744   1.646  0.2275  0.1116  0.0262
13855TIP3    H141510   0.791   1.658   1.632 -0.6665 -0.4784  0.8885
13855TIP3    H241511   0.819   1.807   1.625  1.4144 -0.8372  0.9027
13856TIP3   OH241512   2.380   1.890   5.163 -0.2212 -0.0069  0.1370
13856TIP3    H141513   2.319   1.828   5.203 -0.3079 -0.7755 -1.1322
13856TIP3    H241514   2.452   1.836   5.131 -0.6120  0.4399 -1.5818
13857TIP3   OH241515   3.713   1.267   5.709  0.6767  0.3578 -0.5720
13857TIP3    H141516   3.678   1.248   5.622  1.7717  1.8873 -1.4022
13857TIP3    H241517   3.686   1.193   5.763  3.5419 -2.8992 -3.1697
13858TIP3   OH241518   2.434   2.537   5.565 -0.1286  0.0745  0.6201
13858TIP3    H141519   2.343   2.546   5.593 -0.0857  0.5570  0.6122
13858TIP3    H241520   2.483   2.588   5.630  0.1265 -0.1394  0.5930
13859TIP3   OH241521   6.204   1.686   2.866 -0.0885 -0.5115  0.0805
13859TIP3    H141522   6.257   1.677   2.787 -0.2683 -0.0889 -0.0946
13859TIP3    H241523   6.185   1.780   2.871  1.1441 -0.2852  1.4183
13860TIP3   OH241524   2.846   6.759   0.527 -0.9771 -0.0737  0.3676
13860TIP3    H141525   2.826   6.690   0.590 -0.1613 -0.2953  0.3962
13860TIP3    H241526   2.908   6.816   0.572 -0.9801  0.1962  0.0361
13861TIP3   OH241527   3.244   6.338   2.436 -0.3024  0.2284 -0.6062
13861TIP3    H141528   3.247   6.257   2.487  1.8391 -0.0652 -1.1194
13861TIP3    H241529   3.174   6.322   2.372  1.8424 -2.4390 -2.5252
13862TIP3   OH241530   5.970   0.076   6.600  0.1891  0.5544  0.1977
13862TIP3    H141531   5.922   0.093   6.519  1.6131 -1.0869 -1.0902
13862TIP3    H241532   5.907   0.033   6.657 -0.6765  1.1810 -0.2686
13863TIP3   OH241533   8.135   0.504   2.686 -0.3175  0.5055 -0.0636
13863TIP3    H141534   8.161   0.535   2.773 -2.2192  1.0089  0.3803
13863TIP3    H241535   8.167   0.414   2.682  1.8333  1.2086  0.1988
13864TIP3   OH241536   3.322   5.478   1.610  0.8251  0.5428  0.0086
13864TIP3    H141537   3.356   5.399   1.567 -0.7822 -0.8125  1.0899
13864TIP3    H241538   3.302   5.538   1.538 -0.3196 -1.0535 -1.0735
13865TIP3   OH241539   5.337   4.892   3.060 -0.4135 -0.6419  0.2161
13865TIP3    H141540   5.260   4.943   3.035 -0.7332 -0.7128  1.0219
13865TIP3    H241541   5.327   4.879   3.154  0.0169 -1.6140  0.1316
13866TIP3   OH241542   0.172   0.146   3.634 -0.4330 -0.0504 -0.0906
13866TIP3    H141543   0.199   0.107   3.551  1.5793  2.3123 -0.6604
13866TIP3    H241544   0.155   0.071   3.692  1.2230 -1.7551 -1.6810
13867TIP3   OH241545   5.924   3.871   0.198  0.0503 -0.3657  0.2352
13867TIP3    H141546   6.007   3.826   0.184  0.8514  0.2262  2.5290
13867TIP3    H241547   5.861   3.801   0.212  0.3215 -0.8178 -0.7345
13868TIP3   OH241548   7.854   6.814   2.102 -0.2291 -0.5552  0.1978
13868TIP3    H141549   7.891   6.736   2.145 -3.5318 -0.8705  2.8703
13868TIP3    H241550   7.764   6.790   2.081 -1.2936  2.4001  0.8787
13869TIP3   OH241551   4.816   5.788   5.375 -0.0466  0.0731  0.4436
13869TIP3    H141552   4.743   5.805   5.316  0.7530 -0.5254 -0.7432
13869TIP3    H241553   4.811   5.860   5.439 -1.5465  0.1436  0.2974
13870TIP3   OH241554   8.251   6.675   4.229 -0.0548  0.0216 -0.4603
13870TIP3    H141555   8.299   6.592   4.219  0.5489  0.4107 -0.8678
13870TIP3    H241556   8.294   6.735   4.168 -0.1462  0.7857  0.2095
13871TIP3   OH241557   3.174   6.182   5.373  0.0614 -0.1615 -0.3775
13871TIP3    H141558   3.150   6.115   5.310 -2.2749 -1.5114  1.7338
13871TIP3    H241559   3.221   6.135   5.442  0.3123  0.7674  0.1078
13872TIP3   OH241560   1.675   2.985   4.565  0.0584  0.3231  0.2631
13872TIP3    H141561   1.690   2.995   4.659  0.7082  0.5382  0.1479
13872TIP3    H241562   1.708   3.067   4.527  1.7792 -0.5956 -0.3443
13873TIP3   OH241563   3.022   2.981   2.807  0.0864 -0.1009  0.4633
13873TIP3    H141564   3.089   2.930   2.762 -0.3180  0.6587 -1.0582
13873TIP3    H241565   2.963   2.915   2.844  1.0972 -0.7570  0.9569
13874TIP3   OH241566   3.736   0.952   2.438 -0.2266  0.0995 -0.0536
13874TIP3    H141567   3.800   1.023   2.435 -1.0250  0.8035 -1.2337
13874TIP3    H241568   3.750   0.911   2.523  1.5829  0.4076 -0.1492
13875TIP3   OH241569   3.753   6.790   4.353 -0.5408  0.5012  0.1421
13875TIP3    H141570   3.732   6.709   4.400 -0.2977 -1.1925 -2.4347
13875TIP3    H241571   3.675   6.809   4.301  0.3618  0.2849 -1.3742
13876TIP3   OH241572   7.946   6.012   0.961 -0.3758 -0.6598  0.0116
13876TIP3    H141573   8.032   5.973   0.943 -1.1279 -2.2671 -0.3029
13876TIP3    H241574   7.926   6.063   0.883 -0.1381 -1.0793 -0.3288
13877TIP3   OH241575   0.949   7.616   0.384 -0.0290 -0.8369  0.2595
13877TIP3    H141576   0.886   7.686   0.406 -0.5682 -1.0466 -0.5717
13877TIP3    H241577   0.996   7.650   0.308  0.1629 -1.1118  0.2570
13878TIP3   OH241578   4.625   5.879   1.701 -0.2246  0.7289 -0.2380
13878TIP3    H141579   4.634   5.959   1.753 -0.1648  0.8862 -0.4944
13878TIP3    H241580   4.698   5.824   1.728 -0.0577  0.9076 -0.3307
13879TIP3   OH241581   2.950   0.768   1.566 -0.2155 -0.4617 -0.7464
13879TIP3    H141582   2.859   0.743   1.550 -0.7962  0.3452  1.0057
13879TIP3    H241583   2.984   0.701   1.624 -0.5422  0.6009  0.7252
13880TIP3   OH241584   5.459   5.359   1.156  0.0203 -0.0161  0.3337
13880TIP3    H141585   5.522   5.332   1.088 -0.6134 -1.2274  0.1916
13880TIP3    H241586   5.450   5.281   1.211 -1.5510  0.0428  0.1920
13881TIP3   OH241587   5.437   1.196   3.490 -0.2212  0.0533  0.8799
13881TIP3    H141588   5.520   1.153   3.470 -0.4315  0.2699 -0.5963
13881TIP3    H241589   5.392   1.202   3.406 -1.5388  0.3639  1.5704
13882TIP3   OH241590   2.324   0.850   1.435  0.5039  0.2380 -0.2835
13882TIP3    H141591   2.231   0.836   1.449  0.5026  0.6157  0.1248
13882TIP3    H241592   2.335   0.945   1.440  0.8858  0.2067 -0.4867
13883TIP3   OH241593   1.013   3.583   0.333 -0.0881 -0.2223 -0.0869
13883TIP3    H141594   1.090   3.551   0.287  0.1197  0.1936 -0.0360
13883TIP3    H241595   0.943   3.582   0.267 -0.1067 -0.8499 -0.0615
13884TIP3   OH241596   1.455   4.876   4.944  0.6553  0.6115 -0.9010
13884TIP3    H141597   1.408   4.820   4.882  1.0877 -1.3298  0.4507
13884TIP3    H241598   1.439   4.965   4.912 -0.6187 -0.2122 -2.7429
13885TIP3   OH241599   2.549   6.831   3.236 -0.3380 -0.3905 -0.4448
13885TIP3    H141600   2.584   6.821   3.147 -1.8456 -0.2634 -1.0727
13885TIP3    H241601   2.556   6.924   3.254 -2.9531  0.1385 -1.7320
13886TIP3   OH241602   2.561   6.537   5.917  0.6537 -0.0337  0.2066
13886TIP3    H141603   2.541   6.535   5.824 -0.9543 -0.5432  0.5124
13886TIP3    H241604   2.494   6.594   5.955 -1.0920 -2.6644  1.4585
13887TIP3   OH241605   2.701   4.293   6.773  0.2464  0.2313 -0.4042
13887TIP3    H141606   2.675   4.380   6.746 -3.3409  0.9682  4.3073
13887TIP3    H241607   2.790   4.304   6.808  1.6300  0.8077 -3.6632
13888TIP3   OH241608   1.550   1.151   4.724 -0.2220 -0.3825 -0.0966
13888TIP3    H141609   1.615   1.196   4.778 -0.3192 -0.3803  0.0194
13888TIP3    H241610   1.501   1.222   4.682 -1.0297 -0.3446  0.8545
13889TIP3   OH241611   0.036   2.044   3.681  0.5988 -0.5287  0.4350
13889TIP3    H141612   0.096   2.014   3.612 -0.6033 -2.8064  0.2870
13889TIP3    H241613  -0.033   1.978   3.682  0.5400 -0.5500  3.8248
13890TIP3   OH241614   3.342   2.078   6.274  0.1446 -0.0584  0.3928
13890TIP3    H141615   3.401   2.083   6.350  0.3739 -1.7007  0.3520
13890TIP3    H241616   3.394   2.112   6.202  1.5169 -2.4705  0.1376
13891TIP3   OH241617   5.441   5.937   2.788  0.2002  0.0402  0.5831
13891TIP3    H141618   5.417   5.999   2.719  1.3387  1.5694  1.4959
13891TIP3    H241619   5.360   5.926   2.840 -0.3175 -0.1475 -0.2469
13892TIP3   OH241620   5.071   3.020   4.041  0.6109  0.0575  0.4317
13892TIP3    H141621   5.005   3.065   3.988  1.2912 -0.2229 -0.6994
13892TIP3    H241622   5.022   2.981   4.113 -0.3864  0.2268 -0.1329
13893TIP3   OH241623   0.804   3.256   6.669 -0.4961  0.2512  0.8502
13893TIP3    H141624   0.862   3.317   6.623  0.2220 -1.5213 -0.7280
13893TIP3    H241625   0.741   3.228   6.603 -0.4351 -1.1720  1.3621
13894TIP3   OH241626   7.938   1.810   0.911  0.2234 -0.0029  0.0366
13894TIP3    H141627   7.985   1.880   0.864 -0.0688 -1.0499 -1.9154
13894TIP3    H241628   7.998   1.736   0.910 -0.9840 -1.0136 -1.5056
13895TIP3   OH241629   2.332   0.765   4.516  0.8911 -0.1733  0.2055
13895TIP3    H141630   2.317   0.670   4.518 -1.8869  0.1746  2.2634
13895TIP3    H241631   2.267   0.798   4.455 -0.0975  0.5877  1.6082
13896TIP3   OH241632   6.855   7.524   4.431 -0.4390 -0.2119  0.3088
13896TIP3    H141633   6.874   7.595   4.493 -0.8173  0.3003 -0.1573
13896TIP3    H241634   6.888   7.556   4.347 -1.4306 -0.2012 -0.0868
13897TIP3   OH241635   5.976   7.078   5.588 -0.4689 -0.1848  0.4972
13897TIP3    H141636   5.936   7.093   5.502  0.3631  0.5303  0.2201
13897TIP3    H241637   5.916   7.119   5.650 -1.3114 -1.1033  0.3198
13898TIP3   OH241638   0.734   0.450   6.446 -0.2333 -0.4516 -0.2320
13898TIP3    H141639   0.791   0.522   6.470  0.9308 -1.8412  1.4232
13898TIP3    H241640   0.684   0.482   6.371  1.1603  1.5783 -0.3544
13899TIP3   OH241641   6.326   7.622   6.759 -0.0379  0.3684  0.4992
13899TIP3    H141642   6.346   7.570   6.837 -0.1443 -0.4755 -0.0377
13899TIP3    H241643   6.237   7.597   6.735 -0.8892  2.2879  1.4047
13900TIP3   OH241644   2.758   6.888   1.623 -0.4405 -0.1915  0.7255
13900TIP3    H141645   2.694   6.816   1.623  0.6492 -1.2469 -0.9446
13900TIP3    H241646   2.816   6.868   1.697 -0.2692 -0.9549  0.4006
13901TIP3   OH241647   6.609   4.376   2.733  0.0928 -0.1864 -0.0404
13901TIP3    H141648   6.652   4.419   2.659  1.5329 -0.7791  0.4110
13901TIP3    H241649   6.525   4.348   2.698 -0.6005  2.2591 -0.5655
13902TIP3   OH241650   2.843   0.070   3.730 -0.2071 -0.5896  1.1203
13902TIP3    H141651   2.841  -0.019   3.767 -1.7745 -1.7529 -1.5349
13902TIP3    H241652   2.866   0.057   3.638 -2.2781  1.5359  0.2172
13903TIP3   OH241653   1.248   0.890   3.010  0.1336  0.5107  0.0478
13903TIP3    H141654   1.207   0.938   2.938  0.0742 -0.3700 -0.5188
13903TIP3    H241655   1.333   0.933   3.021  0.3037  0.4209 -0.8154
13904TIP3   OH241656   2.648   6.680   2.661 -0.2188  1.0851  0.1843
13904TIP3    H141657   2.633   6.619   2.588 -1.0508  0.5268  0.8064
13904TIP3    H241658   2.742   6.696   2.659 -0.2996  1.5061 -1.3502
13905TIP3   OH241659   1.213   6.307   6.690  0.6328 -0.0907  0.1833
13905TIP3    H141660   1.208   6.396   6.656 -0.7671  0.5075  1.8120
13905TIP3    H241661   1.292   6.270   6.649  1.6391  2.1026 -0.0185
13906TIP3   OH241662   1.196   1.247   0.956 -0.1597  0.3239 -0.2941
13906TIP3    H141663   1.158   1.335   0.963  2.9005  1.9062 -1.8211
13906TIP3    H241664   1.196   1.228   0.863 -0.0102 -0.9738 -0.0495
13907TIP3   OH241665   0.059   7.202   3.825 -0.0487  0.1154  0.1821
13907TIP3    H141666   0.136   7.244   3.784 -1.5410  1.4178 -1.4577
13907TIP3    H241667   0.044   7.124   3.772 -0.9290  0.8593 -0.6997
13908TIP3   OH241668   1.123   2.821   6.429  0.0289 -0.1066 -0.0685
13908TIP3    H141669   1.108   2.914   6.445 -0.2696 -0.3576  1.1971
13908TIP3    H241670   1.037   2.787   6.404 -0.3225 -0.3973  1.4062
13909TIP3   OH241671   2.868   4.447   3.833  0.1686 -0.0123  0.1057
13909TIP3    H141672   2.948   4.498   3.821 -0.8301  1.1936 -1.8780
13909TIP3    H241673   2.874   4.377   3.768 -1.1142  1.0905 -1.2528
13910TIP3   OH241674   7.444   7.514   5.540 -0.0529  0.2139  0.4744
13910TIP3    H141675   7.371   7.556   5.495 -1.1921 -2.3132 -0.2496
13910TIP3    H241676   7.486   7.584   5.589 -1.9994  2.0638 -0.3472
13911TIP3   OH241677   6.602   5.072   0.014  0.2350  0.0420 -0.1750
13911TIP3    H141678   6.630   5.091   0.103 -0.3736  0.4548 -0.0690
13911TIP3    H241679   6.585   5.157  -0.025 -2.0477 -0.1894  0.1536
13912TIP3   OH241680   2.783   0.776   0.031 -0.0577 -0.2565  0.2687
13912TIP3    H141681   2.696   0.755   0.063  0.9868 -1.9772  2.2315
13912TIP3    H241682   2.828   0.691   0.024  0.9926  0.4142 -2.2827
13913TIP3   OH241683   5.947   7.491   3.067 -0.7689  0.6308  0.3516
13913TIP3    H141684   6.030   7.485   3.116  1.1657  0.7392 -2.6536
13913TIP3    H241685   5.899   7.413   3.094  2.1092 -1.7107 -0.7079
13914TIP3   OH241686   3.811   3.414   2.783 -0.0266  0.0638 -0.5307
13914TIP3    H141687   3.852   3.360   2.850  0.2343  0.9513  0.0368
13914TIP3    H241688   3.799   3.499   2.824 -1.3696  0.1665 -1.0736
13915TIP3   OH241689   7.808   2.222   4.945 -0.1487  0.0558 -0.2659
13915TIP3    H141690   7.738   2.240   4.881 -0.3147  0.8061  0.1160
13915TIP3    H241691   7.773   2.150   4.998 -0.6379  0.4359 -0.0680
13916TIP3   OH241692   1.349   3.027   1.483 -0.0810  0.5808 -0.1033
13916TIP3    H141693   1.344   2.991   1.395  1.1256  1.2675 -0.4667
13916TIP3    H241694   1.421   2.980   1.525  1.5561  2.5300 -0.6058
13917TIP3   OH241695   0.615   4.826   2.546 -0.3635 -0.2923  0.2567
13917TIP3    H141696   0.588   4.874   2.624  2.0491 -0.3920  1.2296
13917TIP3    H241697   0.690   4.774   2.574  1.2164  0.3949 -2.3246
13918TIP3   OH241698   5.882   1.237   4.077  0.2961  0.4198 -0.9133
13918TIP3    H141699   5.954   1.268   4.022 -0.2989  0.3929 -1.7392
13918TIP3    H241700   5.903   1.146   4.096  1.2528  0.8481  0.1755
13919TIP3   OH241701   6.312   7.206   4.759  0.0730 -0.2102 -0.1695
13919TIP3    H141702   6.400   7.175   4.739  0.5109  0.8514  0.0085
13919TIP3    H241703   6.279   7.144   4.824  1.6025  0.6423  1.5165
13920TIP3   OH241704   4.945   3.948   4.330 -0.1845  0.1357  0.1235
13920TIP3    H141705   4.946   3.874   4.391  1.1628  0.0276  0.0108
13920TIP3    H241706   5.007   3.922   4.261 -0.1493  1.1191 -0.2267
13921TIP3   OH241707   3.389   1.227   5.034 -0.4882  0.4456 -0.0275
13921TIP3    H141708   3.445   1.254   5.107 -1.7771 -0.2738  1.2836
13921TIP3    H241709   3.353   1.142   5.061 -2.6459  1.1208 -0.5318
13922TIP3   OH241710   1.199   0.633   5.947 -0.7915 -0.1376  0.4149
13922TIP3    H141711   1.239   0.720   5.959  0.0754 -0.3283 -0.8652
13922TIP3    H241712   1.110   0.651   5.919 -0.4481  0.3708 -0.3949
13923TIP3   OH241713   1.443   5.759   6.572  0.0810  0.3018  0.3689
13923TIP3    H141714   1.524   5.804   6.597  1.4252 -1.7259 -0.0834
13923TIP3    H241715   1.385   5.771   6.648  0.9178  1.4946  0.8507
13924TIP3   OH241716   3.446   3.691   5.706 -0.1929  0.0860 -0.3396
13924TIP3    H141717   3.533   3.654   5.694 -1.0259 -1.8726 -0.8211
13924TIP3    H241718   3.459   3.786   5.701  1.4941 -0.1445 -3.6791
13925TIP3   OH241719   2.501   2.933   3.033 -0.2322 -0.3868  0.2243
13925TIP3    H141720   2.453   3.007   3.070 -0.1515  0.9961 -2.2572
13925TIP3    H241721   2.563   2.908   3.103 -0.6756  1.4771  1.3521
13926TIP3   OH241722   7.463   1.405   2.864  0.1343 -0.1462  0.0060
13926TIP3    H141723   7.467   1.441   2.776 -2.2482 -0.2431 -0.1994
13926TIP3    H241724   7.437   1.479   2.919 -1.9147 -0.8376  0.0292
13927TIP3   OH241725   4.998   1.945   2.628 -0.2974 -0.4889  0.5659
13927TIP3    H141726   4.998   1.859   2.670 -0.7837 -1.0255 -0.4983
13927TIP3    H241727   4.906   1.967   2.617 -0.1992  0.8754  2.1953
13928TIP3   OH241728   0.080   5.641   5.219 -0.3825  0.4362  0.0048
13928TIP3    H141729   0.092   5.729   5.183  1.1810  0.3210  0.1733
13928TIP3    H241730   0.139   5.638   5.294  1.6442 -1.5968 -1.5294
13929TIP3   OH241731  -0.002   3.340   2.397  0.2002  0.0828  0.2916
13929TIP3    H141732  -0.031   3.254   2.427  0.0392  0.6567  1.9161
13929TIP3    H241733   0.084   3.352   2.439 -0.5787  1.4288  1.6022
13930TIP3   OH241734   2.388   2.806   0.080  0.1934  0.5067 -0.5518
13930TIP3    H141735   2.321   2.742   0.054 -1.1225  1.0514  1.2906
13930TIP3    H241736   2.436   2.764   0.150 -0.4239  1.3387  0.4031
13931TIP3   OH241737   5.316   4.156   2.354  0.2626  0.4262  0.5052
13931TIP3    H141738   5.387   4.097   2.380 -0.5158 -1.1223 -0.6848
13931TIP3    H241739   5.317   4.225   2.420  1.7891 -0.4491  1.4670
13932TIP3   OH241740   5.495   4.215   6.660  0.1339 -0.3164 -0.2824
13932TIP3    H141741   5.513   4.155   6.732 -0.0526 -1.4621 -1.1753
13932TIP3    H241742   5.520   4.301   6.694  0.8803 -0.9552  0.8327
13933TIP3   OH241743   0.216   3.733   4.287 -0.3285 -0.0955  0.2928
13933TIP3    H141744   0.243   3.676   4.215  1.9722  0.8117  0.3602
13933TIP3    H241745   0.121   3.725   4.290 -0.3775 -0.9953 -2.1261
13934TIP3   OH241746   0.513   1.158   5.272 -0.4093  0.6935  0.0425
13934TIP3    H141747   0.499   1.116   5.187 -1.0085  0.0335  0.4434
13934TIP3    H241748   0.608   1.163   5.281 -0.3323  0.2736 -0.4333
13935TIP3   OH241749   3.518   6.824   4.235  0.2442 -0.8519 -0.2227
13935TIP3    H141750   3.511   6.890   4.166 -0.1657  1.2748  1.7101
13935TIP3    H241751   3.496   6.741   4.192 -0.7907  0.4667 -2.4188
13936TIP3   OH241752   3.014   4.238   0.603 -0.0501 -0.1571  0.4243
13936TIP3    H141753   2.968   4.312   0.642 -2.6610 -1.3735 -0.1213
13936TIP3    H241754   2.945   4.183   0.566  1.9932 -0.8281 -2.8942
13937TIP3   OH241755   7.081   2.371   5.877  0.3928  0.2118 -0.0542
13937TIP3    H141756   7.041   2.369   5.791  0.0383  1.0172  0.0907
13937TIP3    H241757   7.011   2.346   5.937  0.8622 -1.2473 -0.0589
13938TIP3   OH241758   4.916   2.539   2.302 -0.2117 -0.6552  0.1017
13938TIP3    H141759   4.896   2.446   2.314  0.3482 -1.1671 -2.3568
13938TIP3    H241760   5.000   2.551   2.346  0.2641 -1.6103 -0.5050
13939TIP3   OH241761   5.002   5.971   3.768  0.2762  0.0603  0.2026
13939TIP3    H141762   5.012   5.876   3.757 -0.1945  0.1761 -1.6153
13939TIP3    H241763   4.997   5.984   3.862 -3.0060 -2.1076  0.4833
13940TIP3   OH241764   5.454   0.391   6.726 -0.6431  0.3081  0.2358
13940TIP3    H141765   5.514   0.464   6.710  0.2124 -0.7046 -1.3993
13940TIP3    H241766   5.372   0.418   6.685 -0.9909  1.1929  1.4474
13941TIP3   OH241767   7.679   0.686   3.400 -1.2008 -0.5093  0.3273
13941TIP3    H141768   7.688   0.655   3.490 -0.0645 -0.8183  0.1309
13941TIP3    H241769   7.683   0.781   3.406 -1.8946 -0.5026  0.6752
13942TIP3   OH241770   2.945   1.691   1.197 -0.1345 -0.1767 -0.1895
13942TIP3    H141771   2.929   1.637   1.275  3.4912 -1.6539 -0.2691
13942TIP3    H241772   2.878   1.662   1.135 -1.4286 -0.9208  1.4515
13943TIP3   OH241773   6.607   0.377   2.023  0.2128 -0.5160  0.0343
13943TIP3    H141774   6.634   0.462   1.987  0.8830 -0.2383  1.1575
13943TIP3    H241775   6.613   0.388   2.117 -1.8625 -1.1204  0.2829
13944TIP3   OH241776   0.312   1.874   5.813 -0.2713 -0.0012 -0.1633
13944TIP3    H141777   0.380   1.812   5.841 -0.0245 -0.4972 -1.7414
13944TIP3    H241778   0.234   1.847   5.861 -0.6016 -2.6375 -1.9291
13945TIP3   OH241779   6.218   3.963   2.035  0.4759  0.3012  0.6287
13945TIP3    H141780   6.157   3.889   2.033  1.3188 -0.3949 -0.3320
13945TIP3    H241781   6.304   3.923   2.022  0.9345  1.4600  0.0229
13946TIP3   OH241782   1.312   3.787   4.595  0.0033  0.2108 -0.4578
13946TIP3    H141783   1.263   3.730   4.535  1.9230 -0.8915 -1.0683
13946TIP3    H241784   1.304   3.744   4.680  1.3573 -1.0247 -0.8950
13947TIP3   OH241785   4.173   5.084   5.315  0.7799 -0.4282 -0.2815
13947TIP3    H141786   4.218   4.999   5.312  0.4145 -0.6733  0.8940
13947TIP3    H241787   4.080   5.063   5.323  0.3620  0.0785 -2.8151
13948TIP3   OH241788   4.874   3.338   6.031  0.2113  0.0571  0.3853
13948TIP3    H141789   4.842   3.310   5.945 -1.7130  0.4361  0.9105
13948TIP3    H241790   4.951   3.391   6.012 -0.4081  0.4698 -1.1592
13949TIP3   OH241791   3.668   0.339   2.159  0.8127  0.1047  0.1528
13949TIP3    H141792   3.633   0.274   2.099 -0.3873  1.3047 -0.5084
13949TIP3    H241793   3.758   0.351   2.132  0.8086 -0.6768 -0.2385
13950TIP3   OH241794   2.163   3.218   5.442 -1.1547  0.4802 -0.7589
13950TIP3    H141795   2.242   3.166   5.442 -0.6047  1.2905 -0.5634
13950TIP3    H241796   2.113   3.187   5.367 -2.9179 -3.3352  1.7045
13951TIP3   OH241797   4.883   5.043   2.340 -0.0037 -0.6243 -0.3297
13951TIP3    H141798   4.949   4.974   2.332  0.3687 -0.2870 -0.1673
13951TIP3    H241799   4.913   5.097   2.412  0.0989  0.1373 -0.9358
13952TIP3   OH241800   1.760   1.952   1.842  0.1690  0.1357  0.8377
13952TIP3    H141801   1.767   2.047   1.832 -0.4997  0.6549  4.0097
13952TIP3    H241802   1.848   1.924   1.867  0.3157 -0.0789  0.1136
13953TIP3   OH241803   0.052   7.743   6.104  0.0535 -0.4731 -0.0434
13953TIP3    H141804  -0.023   7.685   6.092 -0.9883  0.6681  0.7598
13953TIP3    H241805   0.017   7.820   6.148  2.0271 -0.6474  2.0458
13954TIP3   OH241806   7.245   3.745   4.097 -0.1992 -0.3246 -0.1967
13954TIP3    H141807   7.320   3.689   4.078 -0.5382 -0.4070 -1.3447
13954TIP3    H241808   7.185   3.689   4.147  0.3154 -0.3712  0.3870
13955TIP3   OH241809   7.354   0.292   2.936 -0.6163 -0.0396  0.0436
13955TIP3    H141810   7.408   0.366   2.909 -1.2956  0.0284 -1.1909
13955TIP3    H241811   7.344   0.240   2.857  1.7227 -2.7242  1.3382
13956TIP3   OH241812   5.381   5.355   6.020 -0.5419  0.2492 -0.7540
13956TIP3    H141813   5.296   5.376   5.982 -1.4993 -1.3703  0.3931
13956TIP3    H241814   5.365   5.279   6.076  1.3091  0.9155  0.8083
13957TIP3   OH241815   3.637   7.129   1.254  0.9611  0.0483  0.3818
13957TIP3    H141816   3.697   7.079   1.199  0.9056  1.5197 -1.0759
13957TIP3    H241817   3.632   7.078   1.336  1.7533 -1.7139 -0.6034
13958TIP3   OH241818   0.869   6.661   0.154  0.2060 -0.5358 -0.2583
13958TIP3    H141819   0.833   6.667   0.065 -0.7064  0.6708  0.1654
13958TIP3    H241820   0.851   6.571   0.181  0.2501 -0.8387 -1.1858
13959TIP3   OH241821   5.441   4.889   0.405  0.1663  0.3415 -0.1537
13959TIP3    H141822   5.368   4.939   0.369 -1.3478 -1.6129  0.0725
13959TIP3    H241823   5.406   4.847   0.484  2.0056  0.5942  0.8769
13960TIP3   OH241824   5.292   5.782   3.647 -0.0884 -0.0545  0.2427
13960TIP3    H141825   5.348   5.795   3.723 -0.0431 -0.0272  0.2049
13960TIP3    H241826   5.247   5.866   3.635  1.0390  0.4406 -0.6744
13961TIP3   OH241827   4.967   4.644   4.170 -0.4310  0.4567 -0.0311
13961TIP3    H141828   4.915   4.670   4.245 -0.2558  0.2344  0.1708
13961TIP3    H241829   4.979   4.724   4.119 -1.4435  0.3986 -0.3777
13962TIP3   OH241830   7.544   3.175  -0.000 -0.3774  0.6483  0.2491
13962TIP3    H141831   7.542   3.112   0.072  0.2219  0.0416 -0.2572
13962TIP3    H241832   7.586   3.253   0.037 -1.0428  0.7351  0.8518
13963TIP3   OH241833   3.540   4.525   5.764  0.0256  0.0876 -0.2688
13963TIP3    H141834   3.606   4.482   5.817  0.3363  1.0663  0.1702
13963TIP3    H241835   3.483   4.569   5.827 -0.8911 -0.5226 -0.6579
13964TIP3   OH241836   5.349   7.012   1.109  0.4203  0.9337  0.3494
13964TIP3    H141837   5.376   7.103   1.110  1.0246  0.7552  1.0815
13964TIP3    H241838   5.330   6.991   1.200 -0.6072  0.5801  0.0739
13965TIP3   OH241839   2.097   1.762   1.240 -0.4540 -0.2106 -0.0265
13965TIP3    H141840   2.106   1.805   1.154  0.8346 -0.5527 -0.0787
13965TIP3    H241841   2.110   1.669   1.221 -1.3154 -0.4152  0.3770
13966TIP3   OH241842   4.765   6.926   1.939 -0.1297  0.2800 -0.2430
13966TIP3    H141843   4.777   6.831   1.946  1.1684  0.1245 -3.1409
13966TIP3    H241844   4.673   6.940   1.962  0.0252 -1.4485  1.6735
13967TIP3   OH241845   2.133   1.711   5.905  0.1510 -0.1437  0.1909
13967TIP3    H141846   2.151   1.674   5.992  0.0577  0.3222  0.4137
13967TIP3    H241847   2.219   1.725   5.866  0.1909 -2.9058 -0.9200
13968TIP3   OH241848   6.253   4.178   6.460  0.0711 -0.0708  0.4772
13968TIP3    H141849   6.231   4.271   6.460 -1.6292 -0.4310 -0.1561
13968TIP3    H241850   6.247   4.151   6.368  0.8275 -0.7611  0.6115
13969TIP3   OH241851   4.599   3.958   1.718 -0.7745  0.2405 -0.4877
13969TIP3    H141852   4.509   3.980   1.694 -0.3626  1.3600 -1.0652
13969TIP3    H241853   4.652   3.990   1.646 -0.0651 -2.5380 -1.3452
13970TIP3   OH241854   6.890   5.769   3.531 -0.5198 -0.1975 -0.0450
13970TIP3    H141855   6.844   5.842   3.572  0.1569  0.2737 -0.1084
13970TIP3    H241856   6.835   5.693   3.548 -1.0309  0.2612  0.3735
13971TIP3   OH241857   1.688   3.722   5.814  0.1295 -0.2423 -0.5156
13971TIP3    H141858   1.730   3.808   5.809 -1.6887  0.6959 -0.4496
13971TIP3    H241859   1.711   3.680   5.731  0.5995  0.5150 -0.7863
13972TIP3   OH241860   1.331   4.621   0.082  0.5047 -0.5170  0.4176
13972TIP3    H141861   1.288   4.672   0.151 -0.5846 -1.0380  0.1357
13972TIP3    H241862   1.261   4.569   0.043  0.7851  0.7726 -2.0117
13973TIP3   OH241863   2.493   2.213   1.996 -0.0295 -0.2744 -0.9816
13973TIP3    H141864   2.572   2.222   2.050 -0.6276  2.0732 -0.3970
13973TIP3    H241865   2.523   2.233   1.907  0.5352 -2.1113 -1.2496
13974TIP3   OH241866   4.710   4.575   5.759  0.4261  0.3003  0.4979
13974TIP3    H141867   4.772   4.621   5.702  0.5135 -0.6758 -0.2189
13974TIP3    H241868   4.765   4.541   5.829  0.3585  1.2750  1.0486
13975TIP3   OH241869   6.183   5.224   5.858 -0.4681 -0.0621 -0.2737
13975TIP3    H141870   6.202   5.143   5.810 -1.9162 -0.9065  0.5028
13975TIP3    H241871   6.176   5.197   5.949  0.9568  1.3055  0.2802
13976TIP3   OH241872   0.457   6.694   1.700 -0.0006 -0.2934 -0.3377
13976TIP3    H141873   0.465   6.765   1.765 -3.3915 -0.2496  0.2380
13976TIP3    H241874   0.392   6.726   1.638  0.4341 -1.8407 -1.6446
13977TIP3   OH241875   1.009   7.626   5.933 -0.0543 -0.1340 -0.2725
13977TIP3    H141876   1.098   7.653   5.911  0.2470 -1.6919 -1.1527
13977TIP3    H241877   1.014   7.598   6.024  0.0549  0.9005  0.0541
13978TIP3   OH241878   1.604   7.739   6.594  0.1801  0.2215 -0.0676
13978TIP3    H141879   1.671   7.800   6.563  0.7491  0.2718  1.2114
13978TIP3    H241880   1.647   7.688   6.662 -0.9800  0.0031  0.5312
13979TIP3   OH241881   2.464   3.288   1.915 -0.5147 -0.0153  0.4171
13979TIP3    H141882   2.547   3.313   1.956 -0.8412 -0.1352  1.1711
13979TIP3    H241883   2.400   3.293   1.986 -1.4371  1.4767 -0.4516
13980TIP3   OH241884   3.480   7.522   3.337  0.6916 -0.3041  0.0707
13980TIP3    H141885   3.499   7.440   3.292 -2.0433 -0.0961 -1.6657
13980TIP3    H241886   3.425   7.497   3.411  0.3843 -0.0962 -0.0859
13981TIP3   OH241887   8.249   4.339   3.269 -0.0815  0.0193  0.4791
13981TIP3    H141888   8.243   4.246   3.290  0.3376 -0.2841 -0.6491
13981TIP3    H241889   8.341   4.361   3.286  0.0321  0.0007 -0.0822
13982TIP3   OH241890   7.224   4.556   5.417 -0.3683  0.1869 -0.1352
13982TIP3    H141891   7.139   4.513   5.420  0.2596 -1.1576 -0.6818
13982TIP3    H241892   7.223   4.617   5.491 -2.2427  1.1009 -0.8452
13983TIP3   OH241893   6.507   1.851   0.391  0.1170 -0.3296 -0.9580
13983TIP3    H141894   6.513   1.887   0.480  0.5044 -2.4628 -0.0721
13983TIP3    H241895   6.422   1.882   0.359 -0.8037 -0.8709  0.8066
13984TIP3   OH241896   7.592   2.736   1.352  0.4273 -0.3428  0.0261
13984TIP3    H141897   7.557   2.654   1.317  1.1583  0.5714 -3.2058
13984TIP3    H241898   7.566   2.802   1.288  2.6881  1.3695  0.7543
13985TIP3   OH241899   0.826   4.898   1.518  0.6397 -0.0073  0.1344
13985TIP3    H141900   0.780   4.849   1.586  0.6457 -0.2627 -0.0474
13985TIP3    H241901   0.875   4.965   1.566  0.7377 -0.2630  0.3914
13986TIP3   OH241902   1.667   2.308   0.518 -0.6871  0.2857  0.1114
13986TIP3    H141903   1.749   2.352   0.498 -0.4785 -0.0383  0.2439
13986TIP3    H241904   1.629   2.287   0.432  0.2325 -1.1484  0.0201
13987TIP3   OH241905   5.686   1.640   1.450 -0.0104 -0.6252 -0.1128
13987TIP3    H141906   5.693   1.732   1.422 -1.1997 -0.8450 -1.2587
13987TIP3    H241907   5.649   1.595   1.373  0.4782 -2.0488  0.4606
13988TIP3   OH241908   8.156   1.122   3.673 -0.2529 -0.0664  0.2400
13988TIP3    H141909   8.118   1.210   3.675 -2.4248 -0.9419  1.5748
13988TIP3    H241910   8.184   1.109   3.583 -0.4667  1.7557 -0.1193
13989TIP3   OH241911   3.021   6.059   4.336  0.0841 -0.3193 -0.0784
13989TIP3    H141912   3.049   6.027   4.251 -1.2472  1.4226 -1.2295
13989TIP3    H241913   2.943   6.008   4.357 -0.8013  0.6247 -0.9269
13990TIP3   OH241914   4.113   7.504   2.088  0.3155 -0.4180 -0.2035
13990TIP3    H141915   4.080   7.535   2.003  0.0665 -2.0192 -0.7179
13990TIP3    H241916   4.196   7.551   2.099  0.8582 -0.9302 -1.8244
13991TIP3   OH241917   7.117   3.515   5.751 -0.2031  0.3574  0.0525
13991TIP3    H141918   7.107   3.560   5.667  1.1184  1.9617  0.6844
13991TIP3    H241919   7.083   3.577   5.816 -1.1280 -0.8186  0.7231
13992TIP3   OH241920   3.042   5.894   2.586  0.1443  0.6371 -0.2651
13992TIP3    H141921   2.952   5.928   2.585  0.1545  0.7730  1.1914
13992TIP3    H241922   3.035   5.805   2.552 -0.6580  0.4113  0.4666
13993TIP3   OH241923   6.909   5.670   2.673 -0.0085  0.0421 -0.3241
13993TIP3    H141924   6.886   5.682   2.580 -1.8733  1.4268  0.2527
13993TIP3    H241925   6.933   5.757   2.703  1.1630 -0.5045  0.3801
13994TIP3   OH241926   4.810   3.417   6.694  0.1078 -0.4473  0.0355
13994TIP3    H141927   4.899   3.416   6.728 -0.0811 -0.7655  0.5459
13994TIP3    H241928   4.755   3.421   6.772 -0.3304 -0.7057 -0.2527
13995TIP3   OH241929   7.672   7.032   4.769  0.9276 -0.1448 -0.8681
13995TIP3    H141930   7.580   7.021   4.744  0.4705  2.9728 -1.0043
13995TIP3    H241931   7.686   6.968   4.839 -2.2019  1.0243  1.0670
13996TIP3   OH241932   7.804   7.222   1.025  0.5636 -0.0248 -0.5942
13996TIP3    H141933   7.890   7.180   1.032 -0.0672 -1.2322  0.3300
13996TIP3    H241934   7.765   7.186   0.946  0.7758  0.2890 -0.8448
13997TIP3   OH241935   0.634   5.009   0.401  0.4319  0.0517  0.0858
13997TIP3    H141936   0.618   5.080   0.339  0.2842 -0.8553 -0.9471
13997TIP3    H241937   0.721   5.028   0.437 -0.3496  1.7243  1.2036
13998TIP3   OH241938   3.255   7.624   5.728  0.3346 -0.2596 -0.0220
13998TIP3    H141939   3.267   7.531   5.746  1.3417  0.1396  1.5607
13998TIP3    H241940   3.211   7.659   5.806 -0.1919  0.5664 -0.6630
13999TIP3   OH241941   0.143   7.157   4.093 -0.3118  0.1507 -0.0811
13999TIP3    H141942   0.113   7.224   4.154 -0.6071  0.9057 -1.0143
13999TIP3    H241943   0.099   7.179   4.011  2.2943  0.9649 -1.3714
14000TIP3   OH241944   5.384   6.148   2.621  0.0481 -0.3655  0.4592
14000TIP3    H141945   5.316   6.214   2.605  1.0282  0.4460 -0.5164
14000TIP3    H241946   5.386   6.096   2.541 -0.3850 -1.2886  1.0402
14001TIP3   OH241947   1.347   6.651   4.896 -0.3531 -0.1370 -0.3118
14001TIP3    H141948   1.263   6.618   4.929  0.1619 -0.5380  0.6513
14001TIP3    H241949   1.388   6.575   4.855 -0.6448  0.1709 -1.2072
14002TIP3   OH241950   1.232   7.263   5.696 -0.3691 -0.2393 -0.0733
14002TIP3    H141951   1.154   7.219   5.728 -0.6095  1.4215  1.8890
14002TIP3    H241952   1.200   7.347   5.661  0.2641 -0.7283 -1.9443
14003TIP3   OH241953   7.532   5.344   2.198  0.2694  0.2056  0.1398
14003TIP3    H141954   7.453   5.384   2.233 -0.8190  0.3651 -2.2615
14003TIP3    H241955   7.501   5.263   2.156  1.7860 -1.0121  1.2315
14004TIP3   OH241956   3.311   3.885   2.670 -0.4105 -0.5882  0.0142
14004TIP3    H141957   3.256   3.862   2.595 -1.1803  1.6798 -0.1852
14004TIP3    H241958   3.376   3.945   2.634 -0.4779  0.1377  1.0499
14005TIP3   OH241959   6.709   6.842   4.274 -0.1452 -0.1156 -0.2159
14005TIP3    H141960   6.673   6.930   4.287 -1.0096 -0.5757  0.6327
14005TIP3    H241961   6.800   6.857   4.250 -0.5741  1.0427 -1.2414
14006TIP3   OH241962   6.720   3.866   4.170 -0.5093 -0.2152 -0.1122
14006TIP3    H141963   6.781   3.802   4.207  1.3338  1.3287 -0.3763
14006TIP3    H241964   6.744   3.949   4.210 -3.7605  0.1982  1.2936
14007TIP3   OH241965   0.764   0.083   5.531  0.4473  0.2622 -0.1654
14007TIP3    H141966   0.817   0.022   5.480  0.3724  0.7745 -0.8713
14007TIP3    H241967   0.691   0.105   5.473  1.1742  2.0603 -0.4745
14008TIP3   OH241968   1.107   2.785   3.503 -0.5686 -0.3100 -0.0992
14008TIP3    H141969   1.175   2.718   3.511  0.0699  0.3400  0.0929
14008TIP3    H241970   1.095   2.796   3.409  1.9177  1.7897 -0.2870
14009TIP3   OH241971   3.537   1.582   5.476 -0.2222 -0.0680  0.6170
14009TIP3    H141972   3.511   1.625   5.557  0.9390  0.5914  0.6706
14009TIP3    H241973   3.480   1.619   5.409 -2.2400 -1.7354  1.3184
14010TIP3   OH241974   7.393   2.596   6.742 -0.5816  0.5646  0.5305
14010TIP3    H141975   7.348   2.678   6.763  1.1775  1.6824  0.2071
14010TIP3    H241976   7.342   2.557   6.671 -0.8639  1.9484 -0.0510
14011TIP3   OH241977   5.437  -0.019   0.880  0.3968  0.0814 -0.1271
14011TIP3    H141978   5.346   0.013   0.881  0.2864 -0.2296 -0.1319
14011TIP3    H241979   5.484   0.043   0.936  0.1908  0.2735 -0.1637
14012TIP3   OH241980   0.495   5.065   4.157  0.7813 -0.2833 -0.1894
14012TIP3    H141981   0.578   5.048   4.201  1.9651  1.5932 -1.5370
14012TIP3    H241982   0.489   4.998   4.089  1.2162 -0.3829 -0.1294
14013TIP3   OH241983   7.461   0.350   5.705 -0.5858  0.1007  0.0921
14013TIP3    H141984   7.393   0.284   5.694 -0.2889 -0.4849  1.5703
14013TIP3    H241985   7.534   0.303   5.745 -0.2187  1.2377  0.8031
14014TIP3   OH241986   0.409   3.965   2.444  0.3740 -0.1060 -0.4767
14014TIP3    H141987   0.351   4.031   2.482 -0.7112 -1.7824  0.9391
14014TIP3    H241988   0.362   3.933   2.367 -0.3536 -1.0113  0.3099
14015TIP3   OH241989   1.588   6.462   6.641  0.0120 -0.1168  0.0115
14015TIP3    H141990   1.609   6.539   6.694 -0.6850  1.2426 -1.5990
14015TIP3    H241991   1.493   6.463   6.633 -0.1442 -1.9138  1.0013
14016TIP3   OH241992   1.408   1.420   6.582 -0.0746 -0.2648  0.1903
14016TIP3    H141993   1.378   1.370   6.658 -0.6376  0.8877  0.7420
14016TIP3    H241994   1.503   1.429   6.595 -0.3547  1.1387  1.5267
14017TIP3   OH241995   6.476   0.845   1.295  0.3568  0.5501  0.8265
14017TIP3    H141996   6.390   0.817   1.327 -0.1909  1.6324  0.3463
14017TIP3    H241997   6.510   0.768   1.248 -1.8634  1.0826 -1.9500
14018TIP3   OH241998   0.370   7.702   4.436  0.1252 -0.1044 -0.2994
14018TIP3    H141999   0.364   7.777   4.496 -1.6915 -0.3640 -0.1021
14018TIP3    H242000   0.294   7.648   4.458 -0.2205 -0.5366 -2.3937
14019TIP3   OH242001   1.415   2.522   0.212  0.1769  0.4001 -0.1320
14019TIP3    H142002   1.357   2.509   0.138  0.1064 -1.4120  0.2066
14019TIP3    H242003   1.388   2.606   0.250 -1.3683  0.1813 -0.7167
14020TIP3   OH242004   5.984   1.490   2.871 -0.0812 -0.5158 -0.1482
14020TIP3    H142005   6.072   1.500   2.906  0.5010  0.9658 -1.8725
14020TIP3    H242006   5.996   1.444   2.788 -0.8253  0.2738 -0.7190
14021TIP3   OH242007   1.950   2.298   2.029 -0.7223  0.0783 -0.3030
14021TIP3    H142008   2.028   2.295   2.085 -0.6395  0.2173 -0.4107
14021TIP3    H242009   1.879   2.324   2.089 -0.9930 -1.5253  0.1288
14022TIP3   OH242010   3.867   6.047   0.142  0.5429 -0.0090 -0.3782
14022TIP3    H142011   3.949   6.005   0.119  1.6288  0.4830  2.1778
14022TIP3    H242012   3.892   6.112   0.208 -1.7966  0.7457 -0.1515
14023TIP3   OH242013   0.742   5.626   5.114  0.1444  0.1052 -0.6130
14023TIP3    H142014   0.729   5.617   5.020  0.7859  0.0937 -0.7040
14023TIP3    H242015   0.804   5.557   5.137  1.6133  1.3982 -0.5450
14024TIP3   OH242016   0.671   6.188   5.991  0.0002 -0.3189 -0.3827
14024TIP3    H142017   0.750   6.241   5.984 -0.1999  0.1954  0.9467
14024TIP3    H242018   0.660   6.149   5.905  0.9560  0.6675 -0.9695
14025TIP3   OH242019   3.230   2.217   1.354  0.0129  0.3786  0.1232
14025TIP3    H142020   3.308   2.227   1.299  1.8138 -0.8286  2.2977
14025TIP3    H242021   3.185   2.141   1.319  0.3851  0.4392 -0.4977
14026TIP3   OH242022   6.289   7.224   2.141  0.3089  0.1776  0.0866
14026TIP3    H142023   6.312   7.144   2.092  0.2055  0.7544 -0.9193
14026TIP3    H242024   6.195   7.216   2.157 -0.4898  1.6599 -3.0590
14027TIP3   OH242025   5.917   0.816   6.182  0.5352  0.3059 -0.0738
14027TIP3    H142026   5.984   0.853   6.239  0.5395  0.6258 -0.2804
14027TIP3    H242027   5.850   0.885   6.176  1.0639  0.7365 -1.3574
14028TIP3   OH242028   5.912   6.305   2.163  0.6206 -0.1676  0.3893
14028TIP3    H142029   5.828   6.351   2.161  0.1367 -0.8893  2.2090
14028TIP3    H242030   5.962   6.344   2.091  0.3539  3.4136  1.9304
14029TIP3   OH242031   3.615   3.953   0.253 -0.2668  0.0306 -0.2983
14029TIP3    H142032   3.647   3.864   0.269  0.6545  0.3904 -0.0853
14029TIP3    H242033   3.572   3.947   0.168 -0.8846 -0.7843  0.0529
14030TIP3   OH242034   3.708   3.458   0.670  0.1537 -0.0602 -0.6219
14030TIP3    H142035   3.659   3.454   0.588  0.7780 -1.6124 -0.9484
14030TIP3    H242036   3.742   3.547   0.673 -1.8519  0.7810 -0.8519
14031TIP3   OH242037   5.751   6.267   1.909 -0.1290 -0.5662 -0.3807
14031TIP3    H142038   5.791   6.204   1.849  1.7654 -0.6058  0.8372
14031TIP3    H242039   5.776   6.352   1.874 -0.2669 -0.5585 -0.4596
14032TIP3   OH242040   6.057   4.566   2.572 -0.5881 -0.0651 -0.2308
14032TIP3    H142041   6.130   4.625   2.553 -0.9365  0.7001  0.6974
14032TIP3    H242042   6.094   4.478   2.563 -0.0760  0.2802 -1.7069
14033TIP3   OH242043   3.293   3.493   0.359 -0.6875 -0.0510  0.0816
14033TIP3    H142044   3.214   3.463   0.402 -0.6479 -0.2891 -0.0100
14033TIP3    H242045   3.315   3.575   0.403 -0.2319 -0.6569  1.0240
14034TIP3   OH242046   7.789   2.495   0.842  0.0684 -0.2120  0.3735
14034TIP3    H142047   7.872   2.543   0.846  1.3070 -2.2467  0.4537
14034TIP3    H242048   7.783   2.464   0.752 -0.5631 -0.1573  0.3920
14035TIP3   OH242049   3.762   7.762   3.851  0.3789  0.8168  0.0863
14035TIP3    H142050   3.743   7.669   3.864  0.7804  0.4659 -1.5147
14035TIP3    H242051   3.736   7.805   3.932  0.2592 -0.7098  0.8718
14036TIP3   OH242052   0.114   2.298   5.856  0.0993 -0.2178 -0.2013
14036TIP3    H142053   0.025   2.277   5.884  0.3280 -0.4195  0.3806
14036TIP3    H242054   0.168   2.232   5.898  0.6646  0.6353  0.4265
14037TIP3   OH242055   6.000   3.936   2.484  0.0236 -0.5176 -0.0383
14037TIP3    H142056   6.020   3.963   2.394 -1.0165 -1.6283 -0.6343
14037TIP3    H242057   5.972   4.017   2.527  1.1384  0.1404 -0.5240
14038TIP3   OH242058   7.065   3.283   2.226 -0.0509  0.0026 -0.1276
14038TIP3    H142059   7.137   3.308   2.168  0.8136 -1.5726  0.2266
14038TIP3    H242060   6.996   3.252   2.167  0.8674 -1.7008 -0.3479
14039TIP3   OH242061   5.346   5.732   5.568 -0.3194 -0.0971 -0.2619
14039TIP3    H142062   5.438   5.743   5.542  0.1978  0.7629  1.7429
14039TIP3    H242063   5.334   5.794   5.639 -1.9906 -1.4115  0.6743
14040TIP3   OH242064   6.901   2.766   3.634 -0.0158 -0.2156  0.8918
14040TIP3    H142065   6.938   2.845   3.672 -0.8313 -0.1028  1.4733
14040TIP3    H242066   6.862   2.795   3.551  1.0813 -0.3182  0.3254
14041TIP3   OH242067   8.183   1.530   3.553 -0.4148 -0.2196  0.0941
14041TIP3    H142068   8.127   1.480   3.612 -1.1156 -0.6064 -0.8812
14041TIP3    H242069   8.170   1.490   3.467  0.2462  0.6166 -0.4167
14042TIP3   OH242070   4.025   4.740   6.398  0.9510  0.3640 -0.2381
14042TIP3    H142071   4.055   4.827   6.424  3.2962  0.0458 -1.5667
14042TIP3    H242072   4.101   4.701   6.353 -0.7961 -1.4584 -1.7832
14043TIP3   OH242073   6.861   1.205   2.147  0.6821 -0.1491  0.3589
14043TIP3    H142074   6.771   1.199   2.179  0.3280 -0.7678 -0.6990
14043TIP3    H242075   6.888   1.114   2.135  1.1075  0.0536 -0.2351
14044TIP3   OH242076   1.427   3.900   4.962  0.0132  0.5812  0.3239
14044TIP3    H142077   1.406   3.810   4.939  2.6438  0.0108 -0.2338
14044TIP3    H242078   1.381   3.953   4.898 -0.4498 -0.4561 -0.2316
14045TIP3   OH242079   4.586   6.469   5.745 -0.0275 -0.4377 -0.1088
14045TIP3    H142080   4.546   6.542   5.698 -0.0158 -1.6735 -2.1364
14045TIP3    H242081   4.522   6.445   5.812 -0.1428  1.2285  0.4216
14046TIP3   OH242082   6.754   5.075   1.148 -0.1414  0.3348 -0.6121
14046TIP3    H142083   6.817   5.004   1.155 -1.0292 -0.4567 -0.4098
14046TIP3    H242084   6.675   5.042   1.192 -1.2444  0.6626 -2.2489
14047TIP3   OH242085   7.428   7.356   0.165 -0.1266  0.2293  0.1027
14047TIP3    H142086   7.388   7.426   0.216 -2.3995  0.5754 -1.9459
14047TIP3    H242087   7.376   7.278   0.186 -1.2324  0.4207 -1.6856
14048TIP3   OH242088   5.928   1.626   0.883 -0.9517  0.1316 -0.3863
14048TIP3    H142089   5.940   1.547   0.936  0.1186 -0.3580 -1.3215
14048TIP3    H242090   5.991   1.617   0.812 -0.2368  2.2093 -0.0850
14049TIP3   OH242091   5.314   4.994   0.034  0.2107  0.2843 -0.5503
14049TIP3    H142092   5.270   4.927  -0.019 -2.0862  1.5991 -0.4587
14049TIP3    H242093   5.355   4.946   0.105  1.6194 -1.3302 -2.3526
14050TIP3   OH242094   7.210   6.664   3.975 -0.4976  0.1440  0.4082
14050TIP3    H142095   7.116   6.647   3.986 -0.5787  0.0619 -0.3877
14050TIP3    H242096   7.227   6.648   3.883 -0.0192  1.7286  0.1953
14051TIP3   OH242097   0.731   3.120   1.982 -0.1614 -0.1017 -0.5064
14051TIP3    H142098   0.789   3.094   2.054 -1.6656 -0.7095  0.5333
14051TIP3    H242099   0.786   3.115   1.904  0.5302 -3.4107  0.0331
14052TIP3   OH242100   2.840   6.618   2.306 -0.2779 -0.1909 -0.2317
14052TIP3    H142101   2.761   6.619   2.360 -0.6109 -0.8120 -0.6872
14052TIP3    H242102   2.811   6.580   2.223  0.6630 -1.1184 -0.1554
14053TIP3   OH242103   4.734   1.538   0.270  0.0438  0.3975 -0.6701
14053TIP3    H142104   4.820   1.522   0.232  1.0326 -0.7068  1.8465
14053TIP3    H242105   4.688   1.454   0.261 -0.2220  0.5386 -0.6327
14054TIP3   OH242106   6.685   5.395   5.705 -0.6163 -0.5720  0.9546
14054TIP3    H142107   6.596   5.411   5.735 -0.5188 -1.0170  1.5101
14054TIP3    H242108   6.710   5.312   5.747 -0.5565 -1.3496 -0.5487
14055TIP3   OH242109   0.100   6.088   0.292  0.5708  0.0040  0.0177
14055TIP3    H142110   0.067   6.037   0.365  1.4801  0.3239  0.6698
14055TIP3    H242111   0.053   6.054   0.216  0.5909 -1.2599  0.5435
14056TIP3   OH242112   4.026   5.780   3.421  0.3492 -0.1604  0.3349
14056TIP3    H142113   3.992   5.865   3.449  0.7359 -0.1070  0.6568
14056TIP3    H242114   4.000   5.720   3.491 -0.1135 -0.3532  0.0023
14057TIP3   OH242115   3.193   0.295   1.692 -0.3947 -0.1518  0.1124
14057TIP3    H142116   3.123   0.235   1.717 -2.7429  2.7797  1.2925
14057TIP3    H242117   3.188   0.300   1.597 -0.1356 -1.8003 -0.0011
14058TIP3   OH242118   1.590   0.786   2.304  0.3864  0.3662  0.5639
14058TIP3    H142119   1.567   0.849   2.373  0.4792  0.9699  0.0463
14058TIP3    H242120   1.515   0.727   2.300 -0.1304  1.0264  0.3882
14059TIP3   OH242121   3.495   7.521   6.618 -0.3051 -0.2349  0.0809
14059TIP3    H142122   3.471   7.559   6.533  2.5189  0.5816 -0.4621
14059TIP3    H242123   3.485   7.426   6.604 -0.2652 -0.0966 -1.0394
14060TIP3   OH242124   1.581   5.475   4.236 -0.1714  0.3573 -0.0891
14060TIP3    H142125   1.671   5.466   4.203 -0.1269  2.0622 -0.5046
14060TIP3    H242126   1.539   5.534   4.174 -1.6976 -0.6540 -0.0730
14061TIP3   OH242127   0.775   2.610   1.369  0.4121 -0.5259  0.2180
14061TIP3    H142128   0.693   2.625   1.416  0.3724  0.8715 -0.2612
14061TIP3    H242129   0.843   2.616   1.437  0.2122 -0.3792  0.4055
14062TIP3   OH242130   0.178   4.906   5.225  0.2532  0.1199  0.2286
14062TIP3    H142131   0.259   4.920   5.273 -0.4190 -1.2084  1.8377
14062TIP3    H242132   0.177   4.975   5.159  1.8999  1.1529  1.2211
14063TIP3   OH242133   7.053   1.253   0.779 -0.0834  0.0871 -0.1754
14063TIP3    H142134   6.967   1.285   0.807  0.3002 -0.6379  2.0449
14063TIP3    H242135   7.035   1.168   0.739 -0.3282 -0.6580  1.4452
14064TIP3   OH242136   1.926   1.309   1.534 -0.3308  0.1576  0.1653
14064TIP3    H142137   2.000   1.253   1.555 -0.1706  0.1919 -0.2977
14064TIP3    H242138   1.889   1.270   1.454 -1.4557 -0.4883  0.9703
14065TIP3   OH242139   3.619   6.649   5.457 -0.3860 -0.4356  0.5850
14065TIP3    H142140   3.630   6.703   5.536 -0.9645  0.7491 -0.1153
14065TIP3    H242141   3.524   6.637   5.450 -0.2977 -1.0322  0.3795
14066TIP3   OH242142   3.036   7.433   1.613 -0.3483 -0.6975  0.1904
14066TIP3    H142143   3.031   7.361   1.677 -0.2857 -1.5617 -0.7556
14066TIP3    H242144   3.120   7.419   1.568  0.2717  0.7264  0.8546
14067TIP3   OH242145   6.445   1.113   0.606  0.3278  0.1686  0.0505
14067TIP3    H142146   6.390   1.106   0.683  0.2067  1.2671  0.0769
14067TIP3    H242147   6.533   1.126   0.641  0.2099  1.1138  0.0157
14068TIP3   OH242148   0.724   1.480   1.235  0.1205 -0.2489 -0.2355
14068TIP3    H142149   0.682   1.401   1.270 -0.1549  0.4169  1.0116
14068TIP3    H242150   0.777   1.449   1.162 -0.1292 -1.5588  0.1175
14069TIP3   OH242151   8.016   2.854   1.484 -0.3801  0.4357 -0.5275
14069TIP3    H142152   8.075   2.808   1.424  0.8176  1.5056 -0.2257
14069TIP3    H242153   7.935   2.804   1.482  0.6544 -1.3154 -0.6831
14070TIP3   OH242154   2.809   5.338   4.218  0.1553 -0.0188  0.2797
14070TIP3    H142155   2.861   5.261   4.239  0.3923 -0.0054 -0.2522
14070TIP3    H242156   2.722   5.318   4.254  0.5454  0.0090  1.2644
14071TIP3   OH242157   6.638   5.513   6.632 -0.1195  0.1718 -0.1016
14071TIP3    H142158   6.624   5.602   6.600  0.7277  0.1282 -0.6088
14071TIP3    H242159   6.665   5.463   6.555  1.4127 -0.0540  0.5529
14072TIP3   OH242160   2.615   3.663   2.510  0.0511  0.0445 -0.8927
14072TIP3    H142161   2.693   3.607   2.514 -0.2627 -0.3455  0.1497
14072TIP3    H242162   2.608   3.689   2.418  0.5407 -1.1580 -1.2858
14073TIP3   OH242163   2.722   3.109   3.522 -0.5126  0.4604 -0.4349
14073TIP3    H142164   2.718   3.173   3.594  0.9786  0.0677  0.0494
14073TIP3    H242165   2.699   3.026   3.563  0.7070  0.1703 -0.2855
14074TIP3   OH242166   4.371   7.150   0.314  0.6238  0.6300 -0.3292
14074TIP3    H142167   4.372   7.141   0.218 -0.4957  2.1042 -0.5101
14074TIP3    H242168   4.446   7.206   0.333  0.8485  0.3341 -0.3284
14075TIP3   OH242169   6.965   0.032   6.226 -1.0702 -0.2117 -0.6894
14075TIP3    H142170   7.047   0.046   6.180 -0.6739  0.3763  0.1734
14075TIP3    H242171   6.908   0.103   6.197 -0.7711  0.2451 -0.1795
14076TIP3   OH242172   3.941   6.871   0.257  0.0674 -0.5108 -0.0674
14076TIP3    H142173   3.898   6.846   0.339 -0.8537  1.0131 -0.0406
14076TIP3    H242174   3.903   6.815   0.190 -0.3635 -0.6635  0.3071
14077TIP3   OH242175   2.538   7.708   3.030  0.0899  0.1711  0.2103
14077TIP3    H142176   2.451   7.678   3.003  0.3761  0.6085 -1.3240
14077TIP3    H242177   2.521   7.781   3.089 -0.5838 -1.3685  2.0424
14078TIP3   OH242178   3.831   1.724   5.332 -0.0111 -0.0786 -0.2279
14078TIP3    H142179   3.809   1.701   5.242  1.3709 -0.8284 -0.3916
14078TIP3    H242180   3.904   1.668   5.355  1.9331  2.4141  0.1802
14079TIP3   OH242181   3.427   1.763   3.421 -0.0438 -0.2415  0.0837
14079TIP3    H142182   3.458   1.684   3.464  0.3004 -0.2420 -0.1621
14079TIP3    H242183   3.505   1.818   3.412 -0.1057 -0.2413 -0.5429
14080TIP3   OH242184   1.948   5.198   3.374  0.3847 -0.0274 -0.0856
14080TIP3    H142185   1.907   5.125   3.328  1.6730 -1.5438  1.0431
14080TIP3    H242186   2.034   5.206   3.334  0.8206 -0.1603  0.7916
14081TIP3   OH242187   2.581   5.231   2.319 -0.4219 -0.0825  0.0570
14081TIP3    H142188   2.523   5.222   2.243 -0.9921 -1.4523  0.6195
14081TIP3    H242189   2.523   5.251   2.392  0.0733  0.7826  0.2188
14082TIP3   OH242190   1.938   4.132   2.036  0.2809 -0.4542 -0.0834
14082TIP3    H142191   1.967   4.222   2.020  0.9585 -0.4897  0.8803
14082TIP3    H242192   1.843   4.137   2.039  0.1700 -0.1587 -2.2722
14083TIP3   OH242193   4.109   4.667   2.847 -0.4794  0.5367  0.0279
14083TIP3    H142194   4.117   4.635   2.937  0.4054  1.5212  0.3192
14083TIP3    H242195   4.023   4.708   2.844 -1.1734 -0.8594 -0.0446
14084TIP3   OH242196   5.513   4.429   1.865 -0.1969  0.0954  0.2664
14084TIP3    H142197   5.579   4.496   1.850 -0.1982 -0.0878 -0.5661
14084TIP3    H242198   5.432   4.466   1.829 -0.8438  0.8171  2.3166
14085TIP3   OH242199   7.943   0.961   2.046  0.2974  0.4853  0.5484
14085TIP3    H142200   8.003   0.966   2.120 -0.0040 -0.5640  0.8799
14085TIP3    H242201   7.900   0.876   2.055  0.5160  0.1667 -1.0354
14086TIP3   OH242202   3.475   6.189   2.383  0.7525 -0.4395 -0.0532
14086TIP3    H142203   3.407   6.256   2.378  0.3169 -0.8749  0.0479
14086TIP3    H242204   3.515   6.189   2.296  0.6347 -0.1745 -0.1076
14087TIP3   OH242205   0.711   2.911   5.652  0.2049 -0.0051  0.1614
14087TIP3    H142206   0.652   2.983   5.675 -0.1744  0.3268 -1.6836
14087TIP3    H242207   0.780   2.953   5.600  1.3676 -0.5991  1.1812
14088TIP3   OH242208   1.471   4.012   2.521 -0.2316  0.6332  0.0338
14088TIP3    H142209   1.560   3.978   2.525  0.8976  3.2441 -0.3445
14088TIP3    H242210   1.456   4.050   2.608  0.8315  4.0502 -1.1249
14089TIP3   OH242211   1.183   6.829   1.702 -0.1737  0.3746 -0.8018
14089TIP3    H142212   1.219   6.806   1.616 -0.0965  0.1647 -0.7115
14089TIP3    H242213   1.118   6.761   1.720 -0.4631  0.6276 -0.8628
14090TIP3   OH242214   2.237   1.398   2.784  0.2905 -0.1128  0.1360
14090TIP3    H142215   2.180   1.351   2.845 -0.5780  0.9672  0.1887
14090TIP3    H242216   2.197   1.383   2.698 -0.5447  1.2497  0.2539
14091TIP3   OH242217   0.592   6.609   5.381 -0.4867 -0.1574  0.1558
14091TIP3    H142218   0.640   6.581   5.303  1.1773  0.5950  0.8490
14091TIP3    H242219   0.641   6.572   5.454 -1.7338 -0.4398  0.8767
14092TIP3   OH242220   5.706   6.415   3.829  0.1472 -0.1613 -0.9901
14092TIP3    H142221   5.790   6.420   3.782 -0.1435 -0.2662 -1.5255
14092TIP3    H242222   5.640   6.420   3.760 -0.3235  1.4893 -0.4564
14093TIP3   OH242223   1.615   1.109   5.620  0.1718  0.1676  0.0026
14093TIP3    H142224   1.671   1.047   5.573 -1.6166 -1.7584  0.2865
14093TIP3    H242225   1.571   1.158   5.552 -0.8290 -1.1619 -0.3531
14094TIP3   OH242226   1.051   7.565   6.188  0.1502  0.4138 -0.1459
14094TIP3    H142227   0.977   7.510   6.217 -1.2990  1.8686 -0.9354
14094TIP3    H242228   1.123   7.503   6.178 -0.9415 -1.0737  0.6716
14095TIP3   OH242229   4.696   4.463   3.335 -0.2477 -0.1684 -0.9846
14095TIP3    H142230   4.752   4.435   3.407 -0.2469 -1.0754 -1.3210
14095TIP3    H242231   4.632   4.521   3.375 -0.4726 -0.9447 -0.1752
14096TIP3   OH242232   3.485   5.359   0.402 -0.0005  0.4147 -0.1614
14096TIP3    H142233   3.503   5.298   0.474  0.3393  2.3309  1.4636
14096TIP3    H242234   3.545   5.331   0.333 -0.4894 -1.6348  0.1684
14097TIP3   OH242235   2.744   6.159   6.435  0.3478  0.2053  0.1773
14097TIP3    H142236   2.701   6.084   6.393 -0.1177 -0.4468  1.7421
14097TIP3    H242237   2.809   6.188   6.371 -1.9416  0.8268 -2.0242
14098TIP3   OH242238   4.426   4.559   6.448  0.8056  0.2051  0.3547
14098TIP3    H142239   4.356   4.562   6.514  0.4319 -2.7524  0.2004
14098TIP3    H242240   4.394   4.617   6.378 -0.9130 -0.0608  0.8562
14099TIP3   OH242241   6.200   7.197   2.562  0.0168  0.0255  0.5549
14099TIP3    H142242   6.154   7.236   2.635 -0.8383 -0.0293  0.0616
14099TIP3    H242243   6.132   7.151   2.512  0.3539  1.0581 -0.9306
14100TIP3   OH242244   7.190   2.265   3.202  0.7615  0.3453 -0.2345
14100TIP3    H142245   7.206   2.347   3.248  1.6349  0.1120 -0.1049
14100TIP3    H242246   7.177   2.200   3.271 -1.0086  0.5498 -0.3299
14101TIP3   OH242247   0.190   6.296   4.975  0.0793 -0.1494  0.0637
14101TIP3    H142248   0.208   6.390   4.970 -0.1459 -0.1027  0.1021
14101TIP3    H242249   0.276   6.255   4.976  0.2019  0.1054  0.9922
14102TIP3   OH242250   3.628   2.916   3.309  0.3526 -0.0971  0.0238
14102TIP3    H142251   3.600   2.959   3.390  2.5783  0.1180  0.7549
14102TIP3    H242252   3.547   2.888   3.267 -1.1933  3.6639  0.1142
14103TIP3   OH242253   5.721   0.003   6.693 -0.1486  0.0906  0.0447
14103TIP3    H142254   5.667   0.056   6.751  0.9087  1.3024 -0.0242
14103TIP3    H242255   5.659  -0.036   6.631 -0.8871  2.1684 -0.6071
14104TIP3   OH242256   1.688   1.761   3.475 -0.1908  0.1479  0.2223
14104TIP3    H142257   1.737   1.785   3.553  0.2117 -0.7206  0.2540
14104TIP3    H242258   1.599   1.794   3.490 -0.1203 -0.0367  1.0541
14105TIP3   OH242259   0.084   5.769   0.046 -0.2257  0.1172  0.5505
14105TIP3    H142260   0.066   5.755  -0.047  0.5307 -1.7473  0.6416
14105TIP3    H242261   0.044   5.854   0.065  0.2160  0.8994 -1.6287
14106TIP3   OH242262   0.603   6.223   4.323 -0.7224 -0.7449 -0.4523
14106TIP3    H142263   0.544   6.150   4.345 -0.2436 -1.1120 -0.3657
14106TIP3    H242264   0.560   6.300   4.360 -0.5208 -1.1848  0.7739
14107TIP3   OH242265   2.130   5.767   5.666  0.0155  0.0901  0.6072
14107TIP3    H142266   2.195   5.780   5.736  0.3729 -0.8154  0.4547
14107TIP3    H242267   2.183   5.748   5.588 -0.4339 -1.0799  0.5701
14108TIP3   OH242268   0.478   1.358   4.385 -0.2393  0.0020  0.0150
14108TIP3    H142269   0.394   1.360   4.338  0.2993  1.5216 -0.9508
14108TIP3    H242270   0.513   1.271   4.366 -2.2938 -1.3101  1.8067
14109TIP3   OH242271   4.686   6.141   6.486 -0.0505 -0.5624  0.0946
14109TIP3    H142272   4.664   6.076   6.419 -1.6987 -0.1663  0.1909
14109TIP3    H242273   4.642   6.109   6.565 -0.6837  0.5047  0.2048
14110TIP3   OH242274   2.099   7.181   4.514  0.4739  0.1028 -0.2734
14110TIP3    H142275   2.040   7.110   4.541  1.1359  0.1306  1.3478
14110TIP3    H242276   2.139   7.149   4.433 -1.5411 -0.0145 -1.2902
14111TIP3   OH242277   5.228   2.277   5.463 -0.1586  0.1018  0.3758
14111TIP3    H142278   5.143   2.314   5.489  0.2618  1.2671  0.1349
14111TIP3    H242279   5.258   2.230   5.541  0.3028  2.1251  1.5016
14112TIP3   OH242280   0.819   2.159   5.703  0.6457 -0.3990 -0.1292
14112TIP3    H142281   0.856   2.181   5.789 -1.4190  0.6203  0.5800
14112TIP3    H242282   0.891   2.119   5.655  2.3034  0.4327  1.5338
14113TIP3   OH242283   3.517   1.994   3.240 -0.0653 -0.3563 -0.0394
14113TIP3    H142284   3.546   2.079   3.208  0.8895 -1.0900 -1.2554
14113TIP3    H242285   3.597   1.940   3.240 -0.5887 -1.1718  0.9875
14114TIP3   OH242286   0.915   2.593   3.642  0.3738 -0.3733  0.2168
14114TIP3    H142287   0.992   2.594   3.585 -0.0178 -0.4007 -0.3169
14114TIP3    H242288   0.945   2.635   3.723  0.8514 -0.0600 -0.1177
14115TIP3   OH242289   7.655   4.732   1.206 -0.3173 -0.1243 -0.6116
14115TIP3    H142290   7.747   4.717   1.229 -0.3381  0.0513 -0.4154
14115TIP3    H242291   7.612   4.648   1.224 -0.7262  0.5496  1.9102
14116TIP3   OH242292   5.887   0.582   6.550  0.4521  0.0157  0.4459
14116TIP3    H142293   5.920   0.669   6.573  0.0409 -0.2357  2.0652
14116TIP3    H242294   5.966   0.530   6.533  0.7582  1.4097 -3.7866
14117TIP3   OH242295   1.136   4.177   5.381 -0.4325 -0.4241 -0.0226
14117TIP3    H142296   1.051   4.221   5.386  0.6943  2.0699 -1.1158
14117TIP3    H242297   1.147   4.158   5.288  1.6833  2.7087 -0.5733
14118TIP3   OH242298   1.690   4.497   5.464  0.0144 -0.1211 -0.4181
14118TIP3    H142299   1.621   4.440   5.427 -0.4338 -1.0818  1.7092
14118TIP3    H242300   1.646   4.581   5.478  0.3481  0.4504 -2.4712
14119TIP3   OH242301   6.288   5.137   4.171  0.1791  0.0291  0.2824
14119TIP3    H142302   6.364   5.151   4.115 -0.1985  0.0189 -0.2413
14119TIP3    H242303   6.219   5.107   4.111 -0.6499  1.3648  0.5005
14120TIP3   OH242304   7.766   1.411   1.865 -0.3997  0.0023 -0.2167
14120TIP3    H142305   7.748   1.330   1.816 -0.4261 -2.0523  2.9125
14120TIP3    H242306   7.861   1.422   1.861 -0.3298 -0.5616 -0.1544
14121TIP3   OH242307   3.078   4.352   0.896 -0.1779 -0.3562 -0.2455
14121TIP3    H142308   3.162   4.397   0.883  0.5956 -2.1218 -1.7784
14121TIP3    H242309   3.089   4.304   0.978 -0.8177  1.6814  1.1199
14122TIP3   OH242310   4.406   1.569   4.618  0.1929 -0.1753 -0.2878
14122TIP3    H142311   4.496   1.548   4.645  0.0673 -0.0156  0.2752
14122TIP3    H242312   4.373   1.488   4.581 -0.7856 -1.5574  3.1666
14123TIP3   OH242313   3.290   2.464   2.910 -0.6055  0.6388 -0.7032
14123TIP3    H142314   3.335   2.536   2.866 -0.1214 -0.4651 -2.0967
14123TIP3    H242315   3.310   2.387   2.857 -0.7223 -0.6327  0.9972
14124TIP3   OH242316   2.136   5.413   6.049 -0.4290 -0.7177 -0.2250
14124TIP3    H142317   2.120   5.325   6.081 -0.1100 -0.6131  0.2336
14124TIP3    H242318   2.159   5.463   6.128 -0.4070 -0.2741 -0.5093
14125TIP3   OH242319   4.338   4.396   4.727 -0.8288 -0.1082  0.0767
14125TIP3    H142320   4.387   4.388   4.809  0.4766  1.5440 -0.4670
14125TIP3    H242321   4.246   4.394   4.753 -0.4634  1.8369  1.8194
14126TIP3   OH242322   5.227   1.591   4.932 -0.0160  0.2507  0.0482
14126TIP3    H142323   5.134   1.611   4.938 -0.3922 -1.7009  1.9210
14126TIP3    H242324   5.240   1.558   4.843 -1.1606  0.2955 -0.1435
14127TIP3   OH242325   2.030   3.136   6.793 -0.5044  0.4401 -0.0563
14127TIP3    H142326   2.045   3.228   6.773 -0.3444  0.6861  1.1172
14127TIP3    H242327   1.947   3.115   6.750  0.0576  0.7814 -1.3482
14128TIP3   OH242328   1.698   5.500   4.529 -0.3617 -0.0018  0.2217
14128TIP3    H142329   1.772   5.547   4.491 -0.4138  0.2967  0.4792
14128TIP3    H242330   1.684   5.426   4.471 -0.5579  0.5468 -0.4452
14129TIP3   OH242331   5.297   5.558   4.887  0.0834  0.0322 -0.4951
14129TIP3    H142332   5.350   5.605   4.823 -1.1929 -0.2226 -1.7857
14129TIP3    H242333   5.359   5.499   4.931  0.9551  0.0613 -1.6320
14130TIP3   OH242334   6.826   2.264   4.363 -1.1708 -0.3572  0.5780
14130TIP3    H142335   6.783   2.333   4.313 -1.5659 -0.2017  1.1277
14130TIP3    H242336   6.803   2.282   4.454  1.6002  0.8742  1.1269
14131TIP3   OH242337   5.182   4.123   2.900  0.2847 -0.4011  0.2689
14131TIP3    H142338   5.253   4.145   2.839  1.4082  1.8072  2.2330
14131TIP3    H242339   5.134   4.205   2.912 -2.0722 -1.6117 -0.2087
14132TIP3   OH242340   7.670   4.261   4.401  0.5196 -0.6151 -0.2427
14132TIP3    H142341   7.701   4.326   4.464 -0.5832  0.9144 -1.2001
14132TIP3    H242342   7.750   4.217   4.371  1.1048 -1.0029  1.7808
14133TIP3   OH242343   2.431   6.108   2.750  0.4026  0.0920 -0.2485
14133TIP3    H142344   2.367   6.144   2.812  0.3466  0.7558 -0.6906
14133TIP3    H242345   2.423   6.013   2.762  0.0751  0.1932  0.4438
14134TIP3   OH242346   5.313   1.296   1.670  0.2087 -0.0209 -0.1604
14134TIP3    H142347   5.356   1.377   1.645  1.5543 -0.6844 -0.0771
14134TIP3    H242348   5.326   1.237   1.596 -1.1970 -0.0342 -0.4351
14135TIP3   OH242349   2.865   6.147   0.822  0.5067 -0.5589 -0.2848
14135TIP3    H142350   2.909   6.186   0.746 -1.6059 -0.5005 -1.5474
14135TIP3    H242351   2.831   6.221   0.871 -1.2635 -0.6378 -1.2952
14136TIP3   OH242352   3.079   2.772   1.372  0.6085 -0.3887  0.2418
14136TIP3    H142353   3.174   2.780   1.382  0.5763  0.4019  0.0166
14136TIP3    H242354   3.056   2.693   1.420  1.7065 -1.9562 -1.6489
14137TIP3   OH242355   4.487   3.573   3.368 -1.0261  0.2099 -0.1094
14137TIP3    H142356   4.495   3.591   3.274 -0.3163 -0.2870 -0.1498
14137TIP3    H242357   4.397   3.596   3.389 -0.7227  2.0031 -0.5549
14138TIP3   OH242358   7.144   1.366   4.296 -0.3788 -0.0185  0.1513
14138TIP3    H142359   7.090   1.308   4.243  0.1151 -0.1372 -0.2175
14138TIP3    H242360   7.126   1.454   4.261  1.6640 -0.2975 -1.7500
14139TIP3   OH242361   5.637   0.615   4.213  0.1772 -0.1617 -0.1490
14139TIP3    H142362   5.553   0.577   4.187 -0.2177  0.5855  0.0139
14139TIP3    H242363   5.664   0.564   4.289 -1.0707  0.8057  0.9742
14140TIP3   OH242364   3.152   6.064   1.115  0.1612 -0.2703 -0.4505
14140TIP3    H142365   3.178   6.114   1.193 -2.9159  1.5841 -0.4811
14140TIP3    H242366   3.146   5.974   1.146 -1.0545  0.4303  1.5287
14141TIP3   OH242367   6.808   0.957   1.882  0.3202  0.5132 -0.1359
14141TIP3    H142368   6.830   1.037   1.834  0.9281  2.3573  2.9157
14141TIP3    H242369   6.715   0.965   1.901  0.5359  0.9648  0.8305
14142TIP3   OH242370   2.217   3.758   5.589  0.0584 -0.0427 -0.0976
14142TIP3    H142371   2.237   3.846   5.558  0.6111 -0.2408 -0.3385
14142TIP3    H242372   2.288   3.738   5.650 -0.3848 -0.1004  0.4002
14143TIP3   OH242373   8.325   4.096   0.077 -0.0463 -0.0302 -0.6416
14143TIP3    H142374   8.299   4.172   0.026 -0.8841 -1.3618 -2.3209
14143TIP3    H242375   8.247   4.039   0.075  0.3940 -0.7481  0.9519
14144TIP3   OH242376   2.830   2.152   5.821  0.3124 -0.1571  0.0099
14144TIP3    H142377   2.907   2.101   5.799  0.3858  0.1003 -0.3321
14144TIP3    H242378   2.837   2.166   5.916 -0.0124 -1.2759  0.2166
14145TIP3   OH242379   3.875   6.558   6.427 -0.0938 -0.1484 -0.0451
14145TIP3    H142380   3.945   6.505   6.390 -0.6081  0.3034 -1.7647
14145TIP3    H242381   3.853   6.621   6.358 -0.6484  1.2174  1.2991
14146TIP3   OH242382   2.601   4.151   5.215 -0.1454  0.4125 -0.0915
14146TIP3    H142383   2.520   4.186   5.253  0.2205  1.2207 -0.0276
14146TIP3    H242384   2.571   4.088   5.149 -0.8012 -0.3277  0.8818
14147TIP3   OH242385   3.835   4.861   2.512  0.0293 -0.1517  0.6058
14147TIP3    H142386   3.818   4.953   2.531 -1.9116  0.1061 -1.8314
14147TIP3    H242387   3.894   4.862   2.437 -2.5332 -0.6712 -1.5999
14148TIP3   OH242388   5.536   7.139   1.488  0.0374 -0.3003  0.0415
14148TIP3    H142389   5.582   7.057   1.469 -1.3974 -0.9806 -0.6095
14148TIP3    H242390   5.581   7.174   1.565  0.5248 -1.8221  0.4822
14149TIP3   OH242391   4.074   6.522   0.055 -0.3660  0.1041 -0.3339
14149TIP3    H142392   4.119   6.450   0.099 -0.8383 -0.8557 -1.3788
14149TIP3    H242393   4.137   6.595   0.058 -0.2311 -0.0354  1.5265
14150TIP3   OH242394   5.147   4.447   4.893  0.0306 -1.0048 -0.0387
14150TIP3    H142395   5.194   4.524   4.926 -0.4462 -0.6928 -0.0837
14150TIP3    H242396   5.152   4.383   4.965 -1.2462 -0.2297  0.7767
14151TIP3   OH242397   6.847   6.257   0.230 -0.6201  0.4585 -0.1040
14151TIP3    H142398   6.841   6.324   0.298  1.2200  0.2446  0.3381
14151TIP3    H242399   6.930   6.275   0.186 -0.3882 -1.1452 -0.3826
14152TIP3   OH242400   2.655   3.990   4.414  0.3644  0.0741  0.2861
14152TIP3    H142401   2.627   4.080   4.393  0.7643  0.0709 -0.2930
14152TIP3    H242402   2.609   3.969   4.495 -2.5069 -0.4954 -1.3838
14153TIP3   OH242403   8.149   1.758   3.201  0.3653 -0.0846  0.0630
14153TIP3    H142404   8.214   1.796   3.142  0.2550  1.2727  0.7971
14153TIP3    H242405   8.166   1.664   3.197  0.5401 -0.0150 -1.9220
14154TIP3   OH242406   2.306   7.537   2.948 -0.3508  0.5028  0.3976
14154TIP3    H142407   2.226   7.590   2.951  0.0743  1.1574  0.3280
14154TIP3    H242408   2.278   7.454   2.910 -0.6445  1.3631 -1.3940
14155TIP3   OH242409   0.876   6.390   3.795 -0.0852 -0.1459  0.2092
14155TIP3    H142410   0.785   6.384   3.826 -0.4245  2.3252 -0.0674
14155TIP3    H242411   0.917   6.309   3.826 -2.1048 -0.8599  1.2506
14156TIP3   OH242412   0.618   2.148   1.190  0.4423  0.0298  0.5864
14156TIP3    H142413   0.667   2.066   1.190 -1.2838 -1.0744 -0.0792
14156TIP3    H242414   0.633   2.185   1.103 -2.2649 -1.9375 -0.9129
14157TIP3   OH242415   0.583   6.264   0.756  0.3661  0.8648 -0.2354
14157TIP3    H142416   0.572   6.340   0.699  0.4248  2.3270  1.5934
14157TIP3    H242417   0.567   6.298   0.844 -1.0167 -1.5771  0.5335
14158TIP3   OH242418   1.825   0.030   4.156  0.4215  0.2689  0.6898
14158TIP3    H142419   1.843   0.107   4.102 -1.5901 -0.3600 -1.0462
14158TIP3    H242420   1.879  -0.039   4.118 -1.7481 -0.4333 -1.3638
14159TIP3   OH242421   4.826   5.770   2.205 -0.4229  0.3624 -0.7168
14159TIP3    H142422   4.813   5.835   2.274  0.3051 -0.2989  0.0584
14159TIP3    H242423   4.906   5.798   2.160 -0.4266  0.3246 -0.7474
14160TIP3   OH242424   1.652   0.358   3.902  0.2957 -0.1822  0.3106
14160TIP3    H142425   1.629   0.450   3.885  0.6122 -0.1626 -0.0264
14160TIP3    H242426   1.748   0.359   3.909  0.4469 -0.7277 -1.2575
14161TIP3   OH242427   4.209   0.194   4.298  0.3563  0.0573  0.0626
14161TIP3    H142428   4.218   0.232   4.211 -2.3368  1.5270  0.3203
14161TIP3    H242429   4.299   0.182   4.328  1.3728 -0.3303 -2.8043
14162TIP3   OH242430   3.460   7.209   5.683  0.9053 -0.0791 -0.3080
14162TIP3    H142431   3.434   7.168   5.600  0.8319  1.4169 -1.0737
14162TIP3    H242432   3.442   7.143   5.750 -1.3960 -0.4713 -1.2184
14163TIP3   OH242433   5.121   4.174   0.141 -0.0455  0.9092 -0.1834
14163TIP3    H142434   5.157   4.218   0.218  0.4863  0.7119 -0.3185
14163TIP3    H242435   5.170   4.211   0.067 -0.8647  1.4351 -0.4796
14164TIP3   OH242436   1.979   0.973   1.029  0.1270  0.0512  0.6146
14164TIP3    H142437   1.932   1.006   1.106 -1.2432  3.8386 -1.5734
14164TIP3    H242438   2.070   0.999   1.044 -0.3190  1.7739  0.5475
14165TIP3   OH242439   2.412   1.409   2.223  0.3069 -0.0135  0.4916
14165TIP3    H142440   2.432   1.497   2.193  1.3370 -0.5271 -0.3627
14165TIP3    H242441   2.436   1.409   2.316 -1.0431  1.0021  0.8693
14166TIP3   OH242442   1.347   6.001   6.362  0.6325  0.2201 -0.4936
14166TIP3    H142443   1.402   5.947   6.419 -0.6535 -0.2473  0.3509
14166TIP3    H242444   1.374   5.976   6.274  2.4159  0.7043 -0.1221
14167TIP3   OH242445   4.308   5.868   5.901 -0.7530  0.1198 -0.3676
14167TIP3    H142446   4.386   5.915   5.873 -0.8220  2.4509  2.7311
14167TIP3    H242447   4.332   5.828   5.985 -2.1924 -1.1548 -0.5230
14168TIP3   OH242448   2.302   5.867   5.403  0.0002 -0.8934  0.1137
14168TIP3    H142449   2.283   5.876   5.310  0.1147  1.5283  0.2526
14168TIP3    H242450   2.307   5.773   5.418 -3.0925 -1.4642 -1.6714
14169TIP3   OH242451   4.126   4.939   1.847  0.1506  0.1887  0.2035
14169TIP3    H142452   4.057   4.883   1.882  1.1412 -1.0293  0.2825
14169TIP3    H242453   4.106   4.945   1.753 -1.4658  1.9574  0.5906
14170TIP3   OH242454   4.292   2.873   0.274 -0.1000 -0.4138 -0.4506
14170TIP3    H142455   4.313   2.833   0.189  0.1594  0.0375 -0.6057
14170TIP3    H242456   4.376   2.876   0.320 -0.3027 -0.9850 -0.0283
14171TIP3   OH242457   0.034   5.034   4.044 -0.0161 -0.6722  0.3824
14171TIP3    H142458  -0.037   5.049   4.106 -0.3072 -0.0298 -0.0970
14171TIP3    H242459   0.070   4.949   4.069 -2.3159 -2.0543 -0.6787
14172TIP3   OH242460   3.735   2.505   0.667  0.0976  0.0749 -0.5853
14172TIP3    H142461   3.802   2.478   0.730 -0.3488  0.0180 -0.1253
14172TIP3    H242462   3.654   2.506   0.718 -0.0708  1.2747 -0.8435
14173TIP3   OH242463   3.035   5.813   4.985 -0.2601 -0.2543 -0.7067
14173TIP3    H142464   3.042   5.899   4.945  0.1676  0.2607  0.4154
14173TIP3    H242465   2.949   5.781   4.960 -1.9522  2.0063  1.6666
14174TIP3   OH242466   1.296   4.207   3.772 -0.0512 -0.1989 -0.1107
14174TIP3    H142467   1.211   4.221   3.732  0.0985  2.5287  0.3299
14174TIP3    H242468   1.336   4.294   3.774  1.0612 -0.6374  3.4175
14175TIP3   OH242469   3.051   6.644   4.466 -0.2488 -0.0577 -0.4951
14175TIP3    H142470   3.102   6.633   4.385  0.3676 -0.1354 -0.0973
14175TIP3    H242471   2.964   6.611   4.443  0.4894 -2.1800 -0.5015
14176TIP3   OH242472   5.730   5.442   2.739 -0.2508 -0.0129  0.1063
14176TIP3    H142473   5.650   5.493   2.750  0.7865  1.9556 -0.9229
14176TIP3    H242474   5.743   5.400   2.824 -2.2675 -0.2732  0.3426
14177TIP3   OH242475   3.184   1.966   0.631  0.3179  0.4641  0.0962
14177TIP3    H142476   3.118   1.998   0.569 -1.1088 -0.9322  0.8240
14177TIP3    H242477   3.134   1.945   0.710  1.6741 -0.5128  0.7249
14178TIP3   OH242478   1.542   1.318   0.289 -0.3663  0.1510  0.4431
14178TIP3    H142479   1.622   1.293   0.242 -1.9224 -0.1094 -2.3136
14178TIP3    H242480   1.501   1.235   0.313 -0.1153  0.2745  1.3160
14179TIP3   OH242481   2.380   6.183   0.098  0.1161  0.3978 -0.1262
14179TIP3    H142482   2.292   6.145   0.090  0.8545 -1.1810 -1.2289
14179TIP3    H242483   2.438   6.108   0.108  1.2190  1.4631  2.6822
14180TIP3   OH242484   4.802   1.804   6.087 -0.1777 -0.3566  0.4339
14180TIP3    H142485   4.745   1.817   6.163 -0.9220  0.6371 -0.2642
14180TIP3    H242486   4.806   1.889   6.045 -0.1711 -0.9869 -0.9085
14181TIP3   OH242487   6.275   2.615   1.951 -0.4300  0.0536  0.3790
14181TIP3    H142488   6.318   2.550   1.895 -1.5928  0.3630 -0.9219
14181TIP3    H242489   6.207   2.566   1.996  0.7038 -0.2643  1.8348
14182TIP3   OH242490   7.642   0.325   4.381  0.2288  0.0900 -0.3166
14182TIP3    H142491   7.556   0.285   4.393  1.4390 -2.5981  0.3872
14182TIP3    H242492   7.656   0.377   4.459 -1.6141  2.4806 -1.4769
14183TIP3   OH242493   3.353   7.731   5.073 -0.7633 -0.5427 -0.4679
14183TIP3    H142494   3.344   7.750   5.167  0.9972 -0.5189 -0.2773
14183TIP3    H242495   3.350   7.636   5.067 -0.2612 -0.5695 -0.3101
14184TIP3   OH242496   7.809   5.049   3.319  0.5255  1.2809  0.0013
14184TIP3    H142497   7.729   5.016   3.279  0.0201 -0.7305  2.4158
14184TIP3    H242498   7.880   5.008   3.270  0.0644  1.8060 -1.1339
14185TIP3   OH242499   2.390   6.734   5.996  0.0762 -0.0635  0.1758
14185TIP3    H142500   2.387   6.764   6.087  1.0542  1.0024 -0.1184
14185TIP3    H242501   2.299   6.723   5.971 -0.1911 -0.9880  1.4788
14186TIP3   OH242502   2.315   5.055   5.551  0.4517  0.2377 -0.1648
14186TIP3    H142503   2.384   5.082   5.492  0.7136  1.6365  0.7302
14186TIP3    H242504   2.351   5.068   5.639 -0.5024 -0.1974  0.3180
14187TIP3   OH242505   1.706   4.863   5.044  0.0650 -0.3895  0.1245
14187TIP3    H142506   1.721   4.774   5.078  0.1137 -0.0615  0.9970
14187TIP3    H242507   1.632   4.853   4.984  1.2417 -1.3418 -1.2234
14188TIP3   OH242508   1.966   6.691   4.388 -0.3608  0.2355 -0.2625
14188TIP3    H142509   1.880   6.676   4.428 -0.8873  2.4363 -0.4684
14188TIP3    H242510   2.006   6.604   4.386 -2.0512 -0.6448  1.0263
14189TIP3   OH242511   4.371   0.247   1.092 -0.2960  0.0151  0.6992
14189TIP3    H142512   4.365   0.199   1.010  0.6764 -1.1606  1.2775
14189TIP3    H242513   4.300   0.212   1.146 -0.4763  0.2548  0.6174
14190TIP3   OH242514  -0.006   4.169   0.480  0.1906  0.0187  0.5944
14190TIP3    H142515   0.070   4.112   0.485 -0.5874 -0.9937  1.6749
14190TIP3    H242516   0.026   4.255   0.505  0.8047 -0.6169  2.1530
14191TIP3   OH242517   4.465   0.458   0.221  0.0039  0.5625  0.6005
14191TIP3    H142518   4.520   0.536   0.220  1.3025 -0.3373  0.1464
14191TIP3    H242519   4.514   0.393   0.172 -0.8530 -0.6934  1.3508
14192TIP3   OH242520   3.028   1.212   2.472 -0.6581 -0.1410 -0.7222
14192TIP3    H142521   3.047   1.262   2.552 -0.1179  1.7282 -1.9427
14192TIP3    H242522   3.106   1.158   2.459 -0.6693 -0.3178 -0.0851
14193TIP3   OH242523   4.590   1.071   3.146 -0.3179 -0.2311  0.4328
14193TIP3    H142524   4.671   1.119   3.161 -0.2408 -0.1659 -0.1731
14193TIP3    H242525   4.583   1.065   3.051 -0.4007 -1.2859  0.4930
14194TIP3   OH242526   6.875   1.937   3.655  0.0726 -0.0398  0.3039
14194TIP3    H142527   6.795   1.919   3.706  0.0113 -0.6989 -0.0225
14194TIP3    H242528   6.843   1.967   3.570  0.1700 -0.5833  0.0737
14195TIP3   OH242529   5.228   6.245   2.289 -0.0343  0.6920  0.1040
14195TIP3    H142530   5.240   6.327   2.242 -3.4238  0.9902 -0.5120
14195TIP3    H242531   5.166   6.266   2.359  1.8162 -0.6181  2.2715
14196TIP3   OH242532   7.171   6.780   0.518 -0.0430  0.4913  0.0469
14196TIP3    H142533   7.119   6.707   0.484 -0.4830  0.4716  0.7466
14196TIP3    H242534   7.109   6.831   0.570 -0.1666  2.2980 -1.7423
14197TIP3   OH242535   6.691   2.339   4.611 -0.2786 -0.0697  1.0287
14197TIP3    H142536   6.642   2.271   4.659  2.2524 -2.4875  0.4433
14197TIP3    H242537   6.770   2.353   4.664  0.4314  0.5315 -0.1645
14198TIP3   OH242538   1.520   3.302   4.209 -0.2628 -0.1671 -0.3158
14198TIP3    H142539   1.433   3.306   4.170 -0.2105 -0.9452 -0.5172
14198TIP3    H242540   1.578   3.278   4.137 -0.0800 -1.0160  0.0994
14199TIP3   OH242541   7.363   5.985   5.629  0.1759  0.0783  0.0705
14199TIP3    H142542   7.279   6.031   5.621 -0.7960 -1.6284 -0.0108
14199TIP3    H242543   7.388   5.966   5.538  0.1825 -0.2176  0.1341
14200TIP3   OH242544   6.896   5.469   1.922  0.1026  1.5048 -0.0418
14200TIP3    H142545   6.879   5.489   1.830  1.9768  1.3676 -0.4490
14200TIP3    H242546   6.978   5.514   1.942  0.8690 -0.2109  0.9426
14201TIP3   OH242547   7.264   2.193   1.700  0.0285 -0.3358  0.6804
14201TIP3    H142548   7.309   2.224   1.622  0.8362  0.8136  1.5717
14201TIP3    H242549   7.196   2.258   1.716 -1.0560 -1.2891  0.1908
14202TIP3   OH242550   3.684   6.280   0.386  0.6076 -0.6224 -0.1577
14202TIP3    H142551   3.715   6.309   0.472 -0.5878  1.1761 -0.2693
14202TIP3    H242552   3.621   6.347   0.360 -1.6034 -2.8546 -0.9590
14203TIP3   OH242553   5.559   0.810   3.841 -0.3672  0.0444  0.1563
14203TIP3    H142554   5.534   0.773   3.757  0.7835 -0.0259 -0.1773
14203TIP3    H242555   5.478   0.813   3.892 -0.9252 -0.6539 -0.6724
14204TIP3   OH242556   4.562   6.065   0.433 -0.2240  0.0164 -0.9874
14204TIP3    H142557   4.572   6.151   0.474 -0.4203 -0.5002  0.1993
14204TIP3    H242558   4.582   6.079   0.341  0.4303  1.1939 -0.6804
14205TIP3   OH242559   5.958   6.749   3.833  0.9566 -0.1801  0.3072
14205TIP3    H142560   5.985   6.680   3.893  0.2883 -0.7192 -0.0010
14205TIP3    H242561   6.022   6.746   3.762  0.3765 -1.1547 -0.1985
14206TIP3   OH242562   6.940   6.238   5.914  0.2290  0.5517 -0.5970
14206TIP3    H142563   6.891   6.305   5.866  1.6133  0.6930 -1.9050
14206TIP3    H242564   6.910   6.155   5.877 -0.7348  0.4768  0.3017
14207TIP3   OH242565   7.921   6.296   5.436 -0.0307 -0.1934 -0.3122
14207TIP3    H142566   7.893   6.337   5.518  1.1500 -0.5962  0.3144
14207TIP3    H242567   7.892   6.356   5.368  1.1996  1.4779  0.5572
14208TIP3   OH242568   5.826   7.797   4.423 -0.4990  0.1493  0.2211
14208TIP3    H142569   5.836   7.888   4.451 -1.8261  0.3430  0.1236
14208TIP3    H242570   5.837   7.746   4.504 -2.0261  0.5660  0.7400
14209TIP3   OH242571   1.933   5.313   4.177  0.0911  0.0034  0.6042
14209TIP3    H142572   1.999   5.245   4.163  2.3743  2.2674 -0.5070
14209TIP3    H242573   1.909   5.341   4.088  0.1173  1.4388  1.0221
14210TIP3   OH242574   7.848   1.106   5.106 -0.8651 -0.7447 -0.2725
14210TIP3    H142575   7.882   1.099   5.017  1.1961  2.8489  0.0492
14210TIP3    H242576   7.791   1.183   5.105  1.6375  1.3397  1.9978
14211TIP3   OH242577   2.894   2.170   3.797 -0.4476 -0.2082  0.5742
14211TIP3    H142578   2.825   2.110   3.826 -1.6343  0.4512 -0.8206
14211TIP3    H242579   2.880   2.181   3.703  1.9429 -0.5290  0.1127
14212TIP3   OH242580   0.165   7.111   6.642 -0.4092  0.3863  0.1939
14212TIP3    H142581   0.070   7.113   6.628 -0.5528 -1.1808  0.6866
14212TIP3    H242582   0.194   7.200   6.623 -2.4986  2.1000  3.9361
14213TIP3   OH242583   7.968   3.629   4.112  0.9817  0.1713  0.4432
14213TIP3    H142584   8.009   3.559   4.162  0.0101 -2.2066 -1.8406
14213TIP3    H242585   8.016   3.631   4.029 -0.7126  0.3067 -0.5829
14214TIP3   OH242586   2.689   2.315   4.879  0.4777 -0.4768 -0.3011
14214TIP3    H142587   2.783   2.325   4.864  0.2465  1.5860 -0.6222
14214TIP3    H242588   2.653   2.297   4.792  0.4995 -0.6812 -0.2690
14215TIP3   OH242589   4.771   5.333   1.224 -0.4772 -0.0047 -0.3274
14215TIP3    H142590   4.785   5.239   1.212 -1.1550 -0.2371  0.6142
14215TIP3    H242591   4.682   5.348   1.192  0.2436  0.6658 -2.1579
14216TIP3   OH242592   2.145   6.994   5.122  0.4862  0.5623  0.3591
14216TIP3    H142593   2.227   7.028   5.088  0.8749 -0.2446  0.4612
14216TIP3    H242594   2.114   6.934   5.054 -1.2920  2.6519 -0.8249
14217TIP3   OH242595   6.697   6.428   4.811 -0.0718 -0.0031 -0.0929
14217TIP3    H142596   6.752   6.354   4.786  1.0845  0.7525  0.0908
14217TIP3    H242597   6.652   6.454   4.731  0.3986 -0.1880 -0.4177
14218TIP3   OH242598   8.130   5.720   0.966  0.1303 -0.9460  0.3285
14218TIP3    H142599   8.207   5.691   1.016  0.4334 -2.6931 -1.0725
14218TIP3    H242600   8.154   5.808   0.936  0.4991 -0.4179  2.0421
14219TIP3   OH242601   5.060   3.136   5.029 -0.5970  0.3452  0.4685
14219TIP3    H142602   4.978   3.175   5.060 -1.2685 -0.3014 -0.4507
14219TIP3    H242603   5.084   3.074   5.097 -0.3157  1.2538  1.2257
14220TIP3   OH242604   6.835   6.578   6.511  0.4111 -0.1667  0.1750
14220TIP3    H142605   6.761   6.570   6.451  0.1076 -0.5758  0.5874
14220TIP3    H242606   6.876   6.491   6.510  0.6496 -0.0551  0.2416
14221TIP3   OH242607   1.995   5.317   6.451 -0.0991  0.3180 -1.1458
14221TIP3    H142608   2.050   5.336   6.375  0.1303  3.1803 -0.3543
14221TIP3    H242609   1.928   5.385   6.450 -0.9849 -0.4807  0.3958
14222TIP3   OH242610   2.501   3.196   3.365 -0.6463 -0.0731  0.1011
14222TIP3    H142611   2.447   3.117   3.370 -1.9983  0.8363  0.3506
14222TIP3    H242612   2.582   3.172   3.410  0.4527 -2.4215 -2.7836
14223TIP3   OH242613   7.207   1.395   6.167 -0.0520  0.1401  0.3364
14223TIP3    H142614   7.213   1.434   6.254  2.2341 -0.9204  0.7072
14223TIP3    H242615   7.293   1.359   6.150 -0.8604 -0.9885 -1.7872
14224TIP3   OH242616   4.079   6.003   1.136 -0.3186 -0.3991  0.0401
14224TIP3    H142617   4.087   6.033   1.227 -0.5002  0.7424 -0.3126
14224TIP3    H242618   4.169   5.981   1.110  0.5632  3.6630 -0.9494
14225TIP3   OH242619   4.099   3.910   2.550 -0.1101  0.2388 -0.3883
14225TIP3    H142620   4.049   3.840   2.592  0.0028  0.6793  0.5094
14225TIP3    H242621   4.048   3.933   2.472  0.0559 -1.1016 -0.9267
14226TIP3   OH242622   3.143   5.508   3.966  0.7413  0.1793 -0.1606
14226TIP3    H142623   3.159   5.498   4.060 -1.2999  1.3064  0.3477
14226TIP3    H242624   3.106   5.424   3.938  4.1489 -1.3317 -0.7205
14227TIP3   OH242625   4.543   3.811   3.745  0.2962  0.2825 -0.2938
14227TIP3    H142626   4.593   3.864   3.684 -0.6454  1.1187 -0.3773
14227TIP3    H242627   4.461   3.793   3.699  0.3877 -0.8142 -0.0574
14228TIP3   OH242628   5.549   0.935   0.005  0.3389 -0.1340 -0.2903
14228TIP3    H142629   5.563   1.012  -0.050  2.0782 -0.3350 -0.1780
14228TIP3    H242630   5.554   0.968   0.095  1.3363 -0.3886 -0.2387
14229TIP3   OH242631   0.356   7.769   4.759 -0.0387 -0.4517 -0.4489
14229TIP3    H142632   0.340   7.677   4.781 -2.4799 -0.2066 -0.9205
14229TIP3    H242633   0.277   7.815   4.787  1.2902  1.6185  0.1749
14230TIP3   OH242634   5.764   4.389   6.419  0.1359 -0.3230  0.0073
14230TIP3    H142635   5.849   4.358   6.450 -0.3123 -1.1618  0.4426
14230TIP3    H242636   5.763   4.482   6.439 -0.0990 -0.7901  2.5407
14231TIP3   OH242637   1.719   2.295   5.910  0.1640  0.7636  0.0182
14231TIP3    H142638   1.624   2.304   5.911  0.1889  1.1441 -0.8440
14231TIP3    H242639   1.744   2.295   6.003 -0.3529  4.1170  0.2757
14232TIP3   OH242640   1.689   2.757   0.049 -0.3177  0.3458 -0.5119
14232TIP3    H142641   1.714   2.849   0.037  0.4508  0.2047 -0.0895
14232TIP3    H242642   1.621   2.742  -0.016  1.3350  0.5087 -2.3811
14233TIP3   OH242643   0.062   0.932   3.099  0.1616 -0.6025 -0.0821
14233TIP3    H142644   0.081   0.889   3.182  0.4280 -1.2114 -0.4512
14233TIP3    H242645  -0.032   0.919   3.086  0.1505 -0.6475  0.0443
14234TIP3   OH242646   1.991   3.831   3.079 -0.5554 -0.1445 -0.5604
14234TIP3    H142647   1.967   3.837   2.987  0.1978  0.1998 -0.7337
14234TIP3    H242648   2.048   3.906   3.095  0.4668 -0.9822 -0.1660
14235TIP3   OH242649   0.206   7.120   5.392  0.7514 -0.1887 -0.5048
14235TIP3    H142650   0.191   7.054   5.459  1.2082 -0.2410 -0.4486
14235TIP3    H242651   0.276   7.175   5.427 -0.7995  1.4227  0.2288
14236TIP3   OH242652   1.427   1.706   3.332  0.1263  0.6237  0.1868
14236TIP3    H142653   1.412   1.645   3.259  3.5632  0.2389 -0.3355
14236TIP3    H242654   1.400   1.657   3.410  3.4785 -2.0648 -0.1216
14237TIP3   OH242655   1.287   2.214   3.551  0.3406 -0.8555 -0.5644
14237TIP3    H142656   1.367   2.178   3.589  0.0935 -0.0587  0.7721
14237TIP3    H242657   1.218   2.152   3.575  0.6164 -1.9387 -2.3497
14238TIP3   OH242658   3.145   5.471   6.360 -0.1486  0.0940  0.6774
14238TIP3    H142659   3.097   5.409   6.416 -1.5666 -0.0152 -0.5981
14238TIP3    H242660   3.090   5.549   6.359 -0.3110 -0.0210 -0.7992
14239TIP3   OH242661   0.439   6.247   5.057 -0.2934 -0.0884 -0.2320
14239TIP3    H142662   0.500   6.281   4.991  1.2364 -1.3464  0.4455
14239TIP3    H242663   0.426   6.320   5.117 -0.6515  0.6610 -1.2066
14240TIP3   OH242664   6.410   0.532   4.316  0.4717  0.2829  0.1674
14240TIP3    H142665   6.392   0.582   4.396  2.8531  0.6136  0.5623
14240TIP3    H242666   6.365   0.449   4.329 -0.4809  0.9151  1.1328
14241TIP3   OH242667   3.885   7.081   1.532  0.1239  0.9482  0.4261
14241TIP3    H142668   3.928   6.996   1.519 -2.0743 -0.6642  2.7860
14241TIP3    H242669   3.954   7.137   1.569  1.2772 -0.1736  0.0664
14242TIP3   OH242670   3.481   0.779   5.806  0.1005 -0.2260 -0.0204
14242TIP3    H142671   3.475   0.713   5.875  0.4100 -0.0436  0.1820
14242TIP3    H242672   3.399   0.828   5.813 -1.0700 -1.8438 -1.4770
14243TIP3   OH242673   5.207   1.446   3.546 -0.1221 -0.2751  0.3195
14243TIP3    H142674   5.196   1.541   3.552  1.0911 -0.1315  0.5201
14243TIP3    H242675   5.298   1.434   3.517  0.1491 -1.3932  1.5127
14244TIP3   OH242676   6.434   5.659   4.958 -0.0298 -0.1943 -0.5315
14244TIP3    H142677   6.439   5.670   4.863 -0.3037  1.1259 -0.4089
14244TIP3    H242678   6.525   5.653   4.987  0.1124  1.0625 -0.7024
14245TIP3   OH242679   7.461   2.158   6.690 -0.1672 -0.2784  0.0047
14245TIP3    H142680   7.395   2.097   6.722 -1.1089 -0.7368 -2.5946
14245TIP3    H242681   7.429   2.185   6.604  3.4232 -1.2168 -1.8110
14246TIP3   OH242682   0.280   7.018   2.857 -1.0565 -0.1324 -0.6868
14246TIP3    H142683   0.362   7.028   2.809 -1.6936  0.0025 -1.7657
14246TIP3    H242684   0.284   6.930   2.894  1.7067  1.3950  3.4208
14247TIP3   OH242685   4.196   4.868   2.519  0.3583 -0.4713 -0.4050
14247TIP3    H142686   4.115   4.835   2.480  0.2393 -0.5595 -0.0786
14247TIP3    H242687   4.184   4.857   2.613  0.7934 -0.5836 -0.3632
14248TIP3   OH242688   6.776   7.160   0.881 -0.0656  0.2347 -0.3730
14248TIP3    H142689   6.691   7.186   0.845 -0.2112 -1.3961 -1.2983
14248TIP3    H242690   6.839   7.187   0.814 -0.0621 -0.3103 -0.5946
14249TIP3   OH242691   1.464   3.114   1.773 -0.6510  0.2208 -0.6055
14249TIP3    H142692   1.418   3.138   1.692 -4.5973 -2.3451  0.5884
14249TIP3    H242693   1.491   3.023   1.758  1.0811  0.5991  0.0253
14250TIP3   OH242694   6.713   0.333   4.469  0.2014  0.0569 -1.1069
14250TIP3    H142695   6.797   0.287   4.463 -0.3788 -0.9989 -1.4304
14250TIP3    H242696   6.648   0.267   4.446 -0.6723  1.0404 -1.5523
14251TIP3   OH242697   0.650   4.166   4.271 -0.1832 -0.0716  0.1543
14251TIP3    H142698   0.690   4.237   4.220 -2.2862  0.5445 -0.7280
14251TIP3    H242699   0.637   4.096   4.208 -0.5154 -0.2644  0.4383
14252TIP3   OH242700   5.003   4.182   1.349 -0.0457  0.4041 -0.6086
14252TIP3    H142701   4.986   4.207   1.258 -1.5768 -1.7059 -0.9731
14252TIP3    H242702   5.098   4.189   1.359  0.5008 -1.7350 -3.2004
14253TIP3   OH242703   7.582   3.038   0.793 -0.4885  0.7875 -0.4763
14253TIP3    H142704   7.490   3.029   0.819 -0.9435  1.8736 -1.5937
14253TIP3    H242705   7.592   3.131   0.773  0.9127  0.7218 -0.2138
14254TIP3   OH242706   1.832   1.227   4.504 -0.2732  0.1299 -0.2694
14254TIP3    H142707   1.897   1.286   4.542  0.9980  1.4957 -4.1192
14254TIP3    H242708   1.763   1.285   4.473 -1.0668 -0.8640 -0.3832
14255TIP3   OH242709   4.640   7.472   5.697  0.0560 -0.0198  0.2023
14255TIP3    H142710   4.602   7.545   5.747  0.3710  0.2586  0.0345
14255TIP3    H242711   4.565   7.414   5.679  0.0427 -0.4629  1.5591
14256TIP3   OH242712   1.589   6.145   1.672  0.3182  0.5014 -0.1339
14256TIP3    H142713   1.677   6.113   1.657  0.6432  0.1537  2.0726
14256TIP3    H242714   1.532   6.076   1.638  0.9223  0.0402 -0.2271
14257TIP3   OH242715   5.136   0.939   5.634  0.1927  0.4550 -0.5572
14257TIP3    H142716   5.081   0.869   5.601  0.8453 -0.4252  0.1788
14257TIP3    H242717   5.177   0.976   5.556 -2.9022  2.5057 -1.4136
14258TIP3   OH242718   6.028   2.302   4.636 -0.2260 -0.2012  0.2505
14258TIP3    H142719   6.030   2.228   4.575  1.2107 -0.9028  1.0889
14258TIP3    H242720   5.981   2.370   4.589 -0.0977 -1.0801 -1.2284
14259TIP3   OH242721   2.087   4.426   6.528 -0.5261  0.3429  0.1105
14259TIP3    H142722   2.145   4.442   6.602  0.1998 -1.3126 -0.0458
14259TIP3    H242723   2.039   4.508   6.516 -1.9120  0.2039  3.4576
14260TIP3   OH242724   5.759   5.213   2.597  0.6947 -0.6466 -0.1964
14260TIP3    H142725   5.806   5.156   2.657  2.2017 -0.1041 -0.8180
14260TIP3    H242726   5.744   5.293   2.648  0.5566 -0.7715 -0.0388
14261TIP3   OH242727   0.686   6.816   2.515  0.4289  0.0790 -0.5877
14261TIP3    H142728   0.591   6.809   2.507  0.4697 -2.2837  0.0783
14261TIP3    H242729   0.715   6.848   2.430 -0.9077  0.1854 -1.0336
14262TIP3   OH242730   8.246   6.606   3.722  0.4120  0.4544 -0.1968
14262TIP3    H142731   8.238   6.576   3.632  1.3283 -2.2300  0.5370
14262TIP3    H242732   8.179   6.558   3.770  0.8298  0.8278  0.7920
14263TIP3   OH242733   7.248   4.683   2.715  0.2975 -0.3541 -0.3066
14263TIP3    H142734   7.284   4.645   2.635 -1.4989 -0.8557 -0.9259
14263TIP3    H242735   7.266   4.777   2.707  0.9363 -0.5138 -0.8446
14264TIP3   OH242736   7.541   6.502   6.498  0.5805 -0.4710 -0.3319
14264TIP3    H142737   7.556   6.425   6.552  0.5660 -0.5757 -0.4783
14264TIP3    H242738   7.612   6.562   6.522 -0.0403 -0.0798  0.5892
14265TIP3   OH242739   1.571   2.670   5.985  0.0414  0.3410 -0.3367
14265TIP3    H142740   1.509   2.603   6.016  2.1012 -1.7293 -0.4451
14265TIP3    H242741   1.577   2.655   5.891  0.2247  0.9687 -0.4282
14266TIP3   OH242742   4.880   7.147   0.533 -0.4098  0.1451  0.1228
14266TIP3    H142743   4.929   7.228   0.516 -1.6167  0.9739  0.4486
14266TIP3    H242744   4.869   7.108   0.446  0.6132  0.0657  0.0187
14267TIP3   OH242745   7.566   0.266   0.139  0.5011  0.6169  0.2470
14267TIP3    H142746   7.620   0.247   0.216 -2.0473  1.2976  2.3348
14267TIP3    H242747   7.573   0.361   0.128  0.3517  0.6041  0.0320
14268TIP3   OH242748   2.436   5.710   3.369  0.1939  0.4672 -0.6809
14268TIP3    H142749   2.387   5.718   3.287 -1.1706  2.3163  0.2407
14268TIP3    H242750   2.499   5.782   3.367  0.1995  0.4787 -0.1247
14269TIP3   OH242751   2.244   7.503   4.094  0.4066  0.6707  0.2651
14269TIP3    H142752   2.178   7.434   4.090  1.0602  0.0738 -0.6573
14269TIP3    H242753   2.238   7.537   4.184 -1.7196  1.2251 -0.0369
14270TIP3   OH242754   3.368   6.397   6.262 -0.1591  0.4779 -0.3893
14270TIP3    H142755   3.298   6.462   6.255 -0.1406  0.4715 -0.6267
14270TIP3    H242756   3.442   6.445   6.299 -0.5307  0.3066  0.6059
14271TIP3   OH242757   6.144   2.410   4.962 -0.0178 -0.1091 -0.5909
14271TIP3    H142758   6.205   2.340   4.938  0.3921  0.3317 -0.8538
14271TIP3    H242759   6.186   2.453   5.037 -0.6579 -0.6502  0.0931
14272TIP3   OH242760   1.183   2.703   6.098  0.8965  0.6945  0.2169
14272TIP3    H142761   1.256   2.756   6.065  0.6613  1.0968  0.3256
14272TIP3    H242762   1.212   2.673   6.184  0.2500  2.3695  1.0787
14273TIP3   OH242763   8.159   2.191   2.118  0.5846  0.0681  0.3882
14273TIP3    H142764   8.184   2.283   2.123 -1.0659  0.5710  0.1622
14273TIP3    H242765   8.122   2.172   2.205  1.3115 -0.5150  0.5772
14274TIP3   OH242766   3.153   3.278   1.943 -0.0634  0.0660 -0.6770
14274TIP3    H142767   3.148   3.258   1.850  0.9520 -0.3721 -0.6487
14274TIP3    H242768   3.119   3.367   1.950 -0.2581  0.0594 -1.4431
14275TIP3   OH242769   7.024   3.337   4.447  0.2623 -0.1212 -1.2624
14275TIP3    H142770   7.057   3.292   4.369  1.3046 -0.2316 -0.7771
14275TIP3    H242771   7.102   3.350   4.502 -0.2181  1.1961 -0.8588
14276TIP3   OH242772   7.343   1.963   5.219 -0.3867 -0.2835  0.3555
14276TIP3    H142773   7.377   2.049   5.194 -0.8230 -0.0709  0.4766
14276TIP3    H242774   7.378   1.948   5.307 -0.7896  0.0422  0.5770
14277TIP3   OH242775   5.827   5.916   0.948 -0.0640  0.1596  0.4000
14277TIP3    H142776   5.877   5.848   0.994  1.1537  0.5446 -0.3034
14277TIP3    H242777   5.740   5.878   0.938  0.2755 -0.8478  1.0116
14278TIP3   OH242778   5.717   4.146   2.778 -0.2866 -0.1274 -0.8329
14278TIP3    H142779   5.699   4.239   2.770  0.2572 -0.0869 -1.7408
14278TIP3    H242780   5.789   4.130   2.717 -0.2386 -1.1016 -0.5404
14279TIP3   OH242781   1.485   5.769   2.243 -0.3114 -0.5976  0.0621
14279TIP3    H142782   1.407   5.809   2.205 -0.4263 -0.9878 -0.1230
14279TIP3    H242783   1.483   5.679   2.210  0.3365 -0.5457 -0.1203
14280TIP3   OH242784   2.494   4.035   1.815 -0.2561 -0.0082  0.6809
14280TIP3    H142785   2.510   3.991   1.732 -0.9217  1.2479 -0.1567
14280TIP3    H242786   2.568   4.095   1.825 -0.8502  0.8241  0.2759
14281TIP3   OH242787   8.106   6.184   1.163  0.4272 -0.3869 -0.0848
14281TIP3    H142788   8.049   6.125   1.113 -0.8214 -0.8459  1.7666
14281TIP3    H242789   8.048   6.223   1.229  2.4400 -2.0623  2.9370
14282TIP3   OH242790   1.309   6.902   4.520  0.1239  0.0637  0.3483
14282TIP3    H142791   1.312   6.946   4.435  0.3548  1.7025  1.1662
14282TIP3    H242792   1.216   6.881   4.533  0.0615 -0.0145 -0.2098
14283TIP3   OH242793   5.909   2.575   6.465 -0.7344  0.0803 -0.0521
14283TIP3    H142794   5.843   2.507   6.481 -0.6847 -0.0441 -0.3578
14283TIP3    H242795   5.918   2.577   6.370 -1.3836  1.1382 -0.1057
14284TIP3   OH242796   4.658   2.906   1.058 -0.4067  0.2480 -0.1349
14284TIP3    H142797   4.620   2.819   1.072  1.1265 -1.3279 -4.1679
14284TIP3    H242798   4.586   2.958   1.023 -0.6272 -0.3579 -0.5983
14285TIP3   OH242799   2.657   0.907   6.065 -0.2579 -0.6791  0.2696
14285TIP3    H142800   2.624   0.983   6.018  0.0735 -0.0603  1.0113
14285TIP3    H242801   2.701   0.853   5.999  0.7178  0.4565 -0.0330
14286TIP3   OH242802   1.106   3.423   0.052  0.4702 -0.1338  0.2521
14286TIP3    H142803   1.171   3.446   0.119 -0.4297  1.8307  0.5166
14286TIP3    H242804   1.137   3.467  -0.027  2.3056 -3.5727 -1.1681
14287TIP3   OH242805   3.618   7.715   0.104 -0.1894  0.7114 -0.0550
14287TIP3    H142806   3.679   7.661   0.053 -0.1506 -0.0371  0.7578
14287TIP3    H242807   3.544   7.730   0.046 -0.8235 -1.3939  0.1463
14288TIP3   OH242808   8.307   4.853   1.835 -0.5416 -0.0049 -0.2787
14288TIP3    H142809   8.228   4.896   1.868  1.4073  1.8758  2.3071
14288TIP3    H242810   8.369   4.924   1.821  0.9755 -1.4929 -1.5146
14289TIP3   OH242811   8.185   2.430   6.417  0.0879 -0.2689 -0.1323
14289TIP3    H142812   8.256   2.367   6.430  2.9257  2.7171  0.1469
14289TIP3    H242813   8.151   2.447   6.505  0.3458 -0.3285 -0.0210
14290TIP3   OH242814   4.116   3.442   5.668  0.4503 -0.1205 -0.0268
14290TIP3    H142815   4.053   3.394   5.722  0.0108  0.9586  0.4551
14290TIP3    H242816   4.074   3.449   5.582  0.2581 -0.0892  0.0696
14291TIP3   OH242817   4.950   5.482   0.638  0.8131 -0.6370  0.2619
14291TIP3    H142818   4.988   5.561   0.599 -1.7934  0.5344 -0.1372
14291TIP3    H242819   4.975   5.487   0.731  1.0281  0.4394  0.1602
14292TIP3   OH242820   2.149   7.064   4.274 -0.1925  0.3521 -0.3042
14292TIP3    H142821   2.110   7.006   4.209  0.7028 -0.2358 -0.3371
14292TIP3    H242822   2.233   7.023   4.295  0.0644  1.1778  0.3249
14293TIP3   OH242823   1.287   7.682   5.925 -0.5983 -0.3875  0.1279
14293TIP3    H142824   1.332   7.598   5.916  0.0884  0.0188 -0.2465
14293TIP3    H242825   1.320   7.735   5.853  0.2888  0.8064  1.3794
14294TIP3   OH242826   5.886   3.279   4.504  0.3999 -0.1391  0.3568
14294TIP3    H142827   5.867   3.187   4.521  2.2260 -0.2859  1.9090
14294TIP3    H242828   5.969   3.278   4.456  0.6067  0.6926  0.6813
14295TIP3   OH242829   4.898   2.208   2.781  0.4086  0.2189 -0.0855
14295TIP3    H142830   4.968   2.208   2.716  1.9483  0.3490  1.5120
14295TIP3    H242831   4.826   2.255   2.738  1.9745  1.8204 -1.0842
14296TIP3   OH242832   5.712   4.068   3.751 -0.1969  0.7408 -0.3102
14296TIP3    H142833   5.793   4.055   3.700 -0.8291  0.0921 -1.1913
14296TIP3    H242834   5.709   4.162   3.768  0.4576  0.8498 -0.7625
14297TIP3   OH242835   3.910   3.855   5.719  0.2755 -0.1143  0.2757
14297TIP3    H142836   3.965   3.916   5.670  0.2873 -0.7555 -0.5154
14297TIP3    H242837   3.971   3.790   5.753  0.3432  0.5970  1.6053
14298TIP3   OH242838   6.467   3.495   2.506  0.1361 -0.0684  0.0334
14298TIP3    H142839   6.523   3.464   2.577 -1.6853 -1.3947  0.9806
14298TIP3    H242840   6.378   3.492   2.543 -0.9533 -1.3395 -2.4542
14299TIP3   OH242841   0.313   1.336   2.344 -0.0716 -0.6134 -0.1477
14299TIP3    H142842   0.381   1.283   2.302  0.6385 -0.3459  0.6187
14299TIP3    H242843   0.355   1.370   2.424 -0.8546  0.2074 -0.0605
14300TIP3   OH242844   5.113   6.331   5.513 -0.1171 -0.5084  0.1147
14300TIP3    H142845   5.096   6.408   5.566 -0.9758 -0.1228 -0.6843
14300TIP3    H242846   5.077   6.258   5.564  0.9873 -0.4435  1.0155
14301TIP3   OH242847   1.683   6.497   3.939 -0.1275 -0.5835  0.1560
14301TIP3    H142848   1.680   6.589   3.913 -1.7483 -0.9508 -1.1089
14301TIP3    H242849   1.753   6.459   3.885 -0.0062 -0.2686  0.0912
14302TIP3   OH242850   4.929   2.550   6.088 -0.2274 -0.3242 -0.3999
14302TIP3    H142851   4.987   2.513   6.155 -0.1982 -2.5570 -1.5603
14302TIP3    H242852   4.850   2.574   6.135  0.1934 -0.8349  0.5994
14303TIP3   OH242853   2.950   2.158   1.472  0.3512  0.2478  0.0495
14303TIP3    H142854   3.022   2.145   1.534  0.7870 -2.0991 -0.8626
14303TIP3    H242855   2.976   2.234   1.421  2.4047 -0.7576 -0.4967
14304TIP3   OH242856   2.015   3.201   2.802  0.5287  0.4495  0.3854
14304TIP3    H142857   2.036   3.250   2.882 -0.6888 -0.2096  1.1365
14304TIP3    H242858   2.086   3.223   2.742  0.9313  1.7729  1.2869
14305TIP3   OH242859   8.088   3.503   5.746  0.5811  0.1801 -0.8214
14305TIP3    H142860   7.995   3.498   5.768  0.7286  1.6911  0.3209
14305TIP3    H242861   8.127   3.427   5.789  0.0610  0.2482 -0.2091
14306TIP3   OH242862   0.332   4.029   6.484 -0.4521 -0.5094 -0.0144
14306TIP3    H142863   0.427   4.030   6.498 -0.4444  1.2047  0.0875
14306TIP3    H242864   0.307   4.122   6.487 -2.3734 -1.0136  1.5883
14307TIP3   OH242865   0.698   6.343   2.827 -0.6480  0.0253 -0.2729
14307TIP3    H142866   0.757   6.295   2.769 -0.4518 -0.8741  0.6335
14307TIP3    H242867   0.611   6.330   2.790 -0.6878 -1.6889  0.3503
14308TIP3   OH242868   4.020   0.796   5.415  0.2200  0.1020  0.6196
14308TIP3    H142869   3.940   0.768   5.369  0.4725  1.1710 -0.5335
14308TIP3    H242870   4.083   0.726   5.400 -0.0055 -0.0022  0.1578
14309TIP3   OH242871   0.334   5.757   4.734  0.4838 -1.3195 -0.1499
14309TIP3    H142872   0.418   5.721   4.706 -0.3204 -2.9964 -0.4729
14309TIP3    H242873   0.272   5.685   4.725 -0.5249 -0.9251  2.5748
14310TIP3   OH242874   1.822   3.271   0.900 -0.2899 -0.7781 -0.1457
14310TIP3    H142875   1.888   3.294   0.834 -1.5559 -2.0736 -1.9610
14310TIP3    H242876   1.796   3.355   0.938 -0.0550  0.1066 -1.8521
14311TIP3   OH242877   0.819   7.299   3.021  0.2520  0.3311  0.6523
14311TIP3    H142878   0.760   7.322   2.950  0.2656  0.9271  0.8344
14311TIP3    H242879   0.877   7.233   2.983 -1.4963 -1.4535  0.9024
14312TIP3   OH242880   0.647   0.670   2.996 -0.2201  0.0558  0.1741
14312TIP3    H142881   0.632   0.762   2.975 -0.3192  0.1105  0.4703
14312TIP3    H242882   0.715   0.671   3.063 -0.7520 -0.0373  0.7228
14313TIP3   OH242883   6.855   2.663   0.742 -0.1126  0.2907  0.2526
14313TIP3    H142884   6.914   2.617   0.682 -0.6170  1.3195 -1.0786
14313TIP3    H242885   6.769   2.658   0.701 -0.1042  2.8034 -0.2056
14314TIP3   OH242886   1.064   5.138   2.235 -0.0612 -0.0282  0.0027
14314TIP3    H142887   1.005   5.084   2.288 -1.3635 -0.5076 -1.8487
14314TIP3    H242888   1.008   5.208   2.201  0.1266 -1.0158 -2.5556
14315TIP3   OH242889   0.936   3.549   5.263  0.5097 -0.1126 -0.6559
14315TIP3    H142890   0.919   3.455   5.251 -0.5424  0.0427 -0.4742
14315TIP3    H242891   0.983   3.575   5.184 -1.6191 -0.2378 -2.0627
14316TIP3   OH242892   5.024   3.306   4.164  0.6460  0.2669  0.5405
14316TIP3    H142893   5.050   3.395   4.186 -0.4136  0.5666  0.6436
14316TIP3    H242894   5.096   3.271   4.111  0.8524  1.3574  0.0846
14317TIP3   OH242895   3.021   6.312   4.181 -0.1963  0.0773 -0.2446
14317TIP3    H142896   3.003   6.229   4.225 -0.5965  0.2418 -0.1019
14317TIP3    H242897   2.935   6.349   4.162 -0.0378 -0.0817 -1.3342
14318TIP3   OH242898   1.634   7.737   1.357 -0.2264  0.5164  0.2113
14318TIP3    H142899   1.582   7.730   1.437  0.3053  0.3618  0.5564
14318TIP3    H242900   1.645   7.831   1.343 -0.3762  0.5450  0.2846
14319TIP3   OH242901   3.687   4.611   0.413  0.2965  0.2828  0.5243
14319TIP3    H142902   3.697   4.674   0.343 -0.6589 -2.2467 -2.0986
14319TIP3    H242903   3.621   4.649   0.471  0.5713  2.1242 -0.3182
14320TIP3   OH242904   7.871   7.578   6.489  0.0109  0.0601 -0.0033
14320TIP3    H142905   7.825   7.496   6.505  0.5071 -0.2450 -0.1174
14320TIP3    H242906   7.842   7.636   6.560  0.6821 -0.6512  0.8693
14321TIP3   OH242907   1.432   7.788   2.962 -0.0901 -0.1069 -0.7459
14321TIP3    H142908   1.350   7.827   2.991 -0.6765 -1.0379 -1.1299
14321TIP3    H242909   1.416   7.762   2.871  0.6904 -0.1206 -0.8863
14322TIP3   OH242910   4.640   5.694   3.615 -0.4870  0.0361 -0.2716
14322TIP3    H142911   4.682   5.718   3.698 -2.8483  0.5103  0.8697
14322TIP3    H242912   4.631   5.599   3.618  3.8605 -0.7343 -2.3384
14323TIP3   OH242913   2.627   2.313   2.334  0.0653  0.5031  0.0950
14323TIP3    H142914   2.597   2.403   2.322 -2.2019 -0.4165 -2.3881
14323TIP3    H242915   2.553   2.268   2.375  0.2135 -0.6636 -0.8414
14324TIP3   OH242916   0.867   2.143   0.737 -0.1909 -0.0874 -0.0853
14324TIP3    H142917   0.885   2.180   0.651 -0.4183  1.8994  0.6714
14324TIP3    H242918   0.772   2.142   0.744 -0.1789 -0.4385  0.0666
14325TIP3   OH242919   8.262   6.596   5.186 -0.4508 -0.0185  0.2768
14325TIP3    H142920   8.320   6.631   5.253  1.2860  0.9259 -1.5955
14325TIP3    H242921   8.252   6.503   5.208  1.7276 -0.1874  0.7351
14326TIP3   OH242922   3.493   2.426   5.905  0.9261  0.0463  0.4026
14326TIP3    H142923   3.412   2.474   5.924  1.0574  0.4374  0.0178
14326TIP3    H242924   3.560   2.494   5.903  0.9371  0.0259 -1.2666
14327TIP3   OH242925   1.850   5.694   4.931 -0.0881 -1.1552  0.7535
14327TIP3    H142926   1.890   5.763   4.878 -2.2626 -0.8467 -0.5964
14327TIP3    H242927   1.813   5.740   5.007 -1.6025 -0.7530 -0.1831
14328TIP3   OH242928   0.905   1.714   0.673 -0.0737  0.5254  0.1243
14328TIP3    H142929   0.979   1.663   0.705 -0.0441 -0.1288 -0.9285
14328TIP3    H242930   0.852   1.731   0.750  1.8399  2.1950  1.1623
14329TIP3   OH242931   1.298   0.908   4.746  0.4616  0.3197 -0.1014
14329TIP3    H142932   1.239   0.840   4.715 -0.8263  1.7218 -0.8737
14329TIP3    H242933   1.288   0.979   4.683  3.0677  0.5927 -0.3068
14330TIP3   OH242934   0.225   0.566   6.106 -0.3125 -0.4373  0.5439
14330TIP3    H142935   0.141   0.611   6.113 -0.2238 -0.4843  2.4538
14330TIP3    H242936   0.243   0.536   6.195  2.0945  0.2105  0.3348
14331TIP3   OH242937   0.192   1.158   6.342 -0.6634  0.1399  0.0015
14331TIP3    H142938   0.188   1.065   6.322  0.5286  0.3812 -1.5538
14331TIP3    H242939   0.227   1.162   6.431 -0.5523 -0.8856  0.0130
14332TIP3   OH242940   5.336   0.120   4.081 -0.1038  0.2192 -0.1839
14332TIP3    H142941   5.327   0.151   4.171  1.0113 -0.0200  0.0230
14332TIP3    H242942   5.270   0.169   4.032 -0.0749  1.0584  0.5948
14333TIP3   OH242943   6.962   0.948   1.441  0.4788  0.0717 -0.1870
14333TIP3    H142944   6.961   0.966   1.347  0.0629  1.5599  0.0772
14333TIP3    H242945   6.918   0.863   1.450  0.0940  0.1396 -1.2889
14334TIP3   OH242946   0.713   7.211   0.965  0.2480 -0.2294 -0.0381
14334TIP3    H142947   0.733   7.261   1.044 -0.6143 -0.6669  0.4728
14334TIP3    H242948   0.784   7.147   0.959  1.5944  1.2572 -0.9242
14335TIP3   OH242949   2.855   7.395   6.360  0.1647 -0.2770  0.3443
14335TIP3    H142950   2.826   7.473   6.311 -0.6613 -0.6407  0.2379
14335TIP3    H242951   2.937   7.369   6.318 -1.0198 -1.1783 -1.5388
14336TIP3   OH242952   3.723   5.022   6.351 -0.3128 -0.1118  0.1122
14336TIP3    H142953   3.710   4.928   6.339 -2.1759  0.4634 -3.5273
14336TIP3    H242954   3.818   5.032   6.357  0.4634 -1.9495 -4.6701
14337TIP3   OH242955   5.230   3.571   6.184 -0.4959 -0.2119 -0.4599
14337TIP3    H142956   5.171   3.527   6.246 -0.0473 -0.0810  0.0709
14337TIP3    H242957   5.220   3.522   6.102  0.1723 -1.4701  0.1785
14338TIP3   OH242958   7.768   1.621   6.606 -0.1148  0.0466 -0.4948
14338TIP3    H142959   7.847   1.629   6.660  0.6538  0.6396 -1.6457
14338TIP3    H242960   7.708   1.569   6.658  0.8333  0.0572  0.6537
14339TIP3   OH242961   5.846   2.762   0.967 -0.4901 -0.6870  0.0263
14339TIP3    H142962   5.871   2.854   0.959 -0.9438 -0.6078 -0.5772
14339TIP3    H242963   5.873   2.723   0.884 -1.9445 -0.6876 -0.4795
14340TIP3   OH242964   2.169   1.369   2.521 -0.4053  0.5710  0.2733
14340TIP3    H142965   2.262   1.376   2.497  0.0296  1.1594  1.9742
14340TIP3    H242966   2.127   1.333   2.443  1.0016  1.6891 -1.0761
14341TIP3   OH242967   0.201   5.142   2.115 -0.5766 -0.1990  0.0135
14341TIP3    H142968   0.228   5.051   2.098  1.5888  0.4301 -0.1906
14341TIP3    H242969   0.262   5.195   2.064 -2.2250  1.3916 -0.3973
14342TIP3   OH242970   1.301   0.838   1.711 -0.2277 -0.0077 -0.5546
14342TIP3    H142971   1.256   0.901   1.767 -0.5330 -2.2245  1.8967
14342TIP3    H242972   1.256   0.755   1.727  2.5021 -1.6482 -0.6573
14343TIP3   OH242973   5.589   2.610   2.069  0.0196  0.3838 -0.0421
14343TIP3    H142974   5.656   2.677   2.086 -0.6552  0.6025  1.9511
14343TIP3    H242975   5.632   2.527   2.088  0.0207  0.4556  0.2711
14344TIP3   OH242976   4.957   0.852   4.055 -0.0883  0.2026 -0.7130
14344TIP3    H142977   4.910   0.895   4.127 -1.3135 -0.0887 -1.3174
14344TIP3    H242978   4.966   0.761   4.083 -1.1316 -0.0566 -1.1846
14345TIP3   OH242979   2.594   7.734   1.298 -0.1831 -0.0649  0.1173
14345TIP3    H142980   2.577   7.828   1.291  0.0186  0.0430  1.0133
14345TIP3    H242981   2.561   7.709   1.384  0.1978 -0.7204  0.0834
14346TIP3   OH242982   5.572   6.569   1.858  0.1464  0.2803  0.2411
14346TIP3    H142983   5.660   6.550   1.827 -0.3267 -0.4708 -0.7015
14346TIP3    H242984   5.514   6.521   1.798 -0.8564 -0.3339  1.6418
14347TIP3   OH242985   5.332   5.226   6.590  0.2697  0.0413  0.5603
14347TIP3    H142986   5.334   5.162   6.519 -0.2295 -0.0710  0.6407
14347TIP3    H242987   5.332   5.173   6.670  1.1506  0.1735  0.6533
14348TIP3   OH242988   4.353   0.884   1.292  0.2884  0.1899  0.2168
14348TIP3    H142989   4.416   0.936   1.241  0.6972  0.6195  1.1438
14348TIP3    H242990   4.322   0.818   1.230  0.4306  0.9746 -0.7273
14349TIP3   OH242991   6.065   1.943   6.728 -0.0118 -0.1018  0.5916
14349TIP3    H142992   6.023   1.868   6.686  1.8229 -0.7517 -0.2045
14349TIP3    H242993   6.023   1.949   6.814 -0.2931 -1.9777  0.6224
14350TIP3   OH242994   0.076   4.134   5.353  0.4564 -0.2166  0.3595
14350TIP3    H142995   0.075   4.229   5.342 -0.9046 -0.2119  0.4324
14350TIP3    H242996   0.127   4.119   5.433  0.0403  0.4902  0.7611
14351TIP3   OH242997   5.206   0.817   4.788  0.5098 -0.7549  0.2901
14351TIP3    H142998   5.205   0.856   4.700  0.3750 -0.9133  0.2212
14351TIP3    H242999   5.299   0.801   4.806  0.5603 -0.4803  0.2851
14352TIP3   OH243000   2.421   6.674   2.819 -0.1001  0.0883  0.6323
14352TIP3    H143001   2.484   6.679   2.747 -0.2643  1.3830  0.5620
14352TIP3    H243002   2.400   6.765   2.839  0.2199 -0.2273  2.5750
14353TIP3   OH243003   6.986   2.123   2.863  0.1482  0.3896 -0.7294
14353TIP3    H143004   6.901   2.117   2.819  0.3847  0.9807 -1.2792
14353TIP3    H243005   7.013   2.032   2.876  0.1904  0.2010 -2.0414
14354TIP3   OH243006   2.440   5.164   5.807  0.2493 -0.4550  0.5126
14354TIP3    H143007   2.441   5.199   5.896  0.2116 -0.7412  0.6304
14354TIP3    H243008   2.483   5.078   5.815  0.5031 -0.3600  0.2002
14355TIP3   OH243009   6.794   2.216   5.231  0.1584  0.0911  0.3370
14355TIP3    H143010   6.791   2.309   5.253  0.7678  0.1600  0.1619
14355TIP3    H243011   6.703   2.189   5.225 -0.0516  0.9529 -0.7527
14356TIP3   OH243012   1.302   0.854   4.376 -0.3280  0.1771 -0.4842
14356TIP3    H143013   1.278   0.915   4.445 -0.5622  0.6162 -0.9425
14356TIP3    H243014   1.332   0.910   4.304  1.3573 -0.3240 -0.2081
14357TIP3   OH243015   1.392   3.689   6.426  0.1772  0.3296 -0.4978
14357TIP3    H143016   1.371   3.747   6.499  0.1991 -0.0346 -0.2015
14357TIP3    H243017   1.392   3.601   6.464 -0.3591  0.0857 -1.0476
14358TIP3   OH243018   5.054   4.308   0.392  0.0579 -0.0183  0.5866
14358TIP3    H143019   4.967   4.270   0.407  0.2980 -0.0461  1.9933
14358TIP3    H243020   5.102   4.293   0.473  1.3427  0.1375 -0.1058
14359TIP3   OH243021   1.916   5.202   3.024  0.0891 -0.0087  0.0177
14359TIP3    H143022   1.898   5.281   3.075  1.8161  0.0365  0.6348
14359TIP3    H243023   1.889   5.223   2.935  2.0745  1.9596 -0.2024
14360TIP3   OH243024   7.724   6.786   5.439 -1.1350 -0.4844 -0.0128
14360TIP3    H143025   7.652   6.814   5.496 -0.5760  1.0713 -0.0136
14360TIP3    H243026   7.803   6.799   5.493 -0.7932 -1.5454 -0.2369
14361TIP3   OH243027   5.121   4.463   0.614  0.2495 -0.2600  0.6622
14361TIP3    H143028   5.065   4.514   0.555 -0.8937 -0.5608  1.4483
14361TIP3    H243029   5.116   4.510   0.698  0.2763 -0.8972  1.0284
14362TIP3   OH243030   1.417   6.244   1.280 -0.8833 -0.1039  0.3342
14362TIP3    H143031   1.503   6.203   1.266 -0.9873  0.2835 -2.0055
14362TIP3    H243032   1.434   6.315   1.342  0.4191 -0.2981  0.2262
14363TIP3   OH243033   1.712   0.615   4.622  0.2801 -0.4147 -0.0684
14363TIP3    H143034   1.676   0.654   4.542 -0.4776  0.5688  0.7232
14363TIP3    H243035   1.700   0.521   4.610 -0.5134 -0.2345 -0.7941
14364TIP3   OH243036   6.388   4.132   2.320 -0.0053 -0.2770  0.2458
14364TIP3    H143037   6.477   4.096   2.331  0.3502  0.0919 -1.2345
14364TIP3    H243038   6.402   4.224   2.297 -0.7167 -0.5036 -1.1757
14365TIP3   OH243039   7.962   6.387  -0.000 -0.1162 -0.1996 -0.0056
14365TIP3    H143040   8.052   6.387  -0.033 -0.4332 -0.1496 -0.9077
14365TIP3    H243041   7.970   6.365   0.093  0.8883  0.5930  0.1123
14366TIP3   OH243042   6.082   6.496   2.374 -0.0219 -0.4433 -0.1689
14366TIP3    H143043   6.111   6.530   2.289 -0.3670 -0.6884 -0.3872
14366TIP3    H243044   6.096   6.401   2.369  2.3973 -0.2269  1.0021
14367TIP3   OH243045   0.002   6.285   0.890 -0.5833  0.3706 -0.3419
14367TIP3    H143046   0.030   6.363   0.841 -1.4996 -0.4943 -2.3146
14367TIP3    H243047   0.082   6.255   0.933  0.5795  0.4859 -2.3032
14368TIP3   OH243048   3.584   5.167   5.237 -0.0604 -0.1008 -0.0452
14368TIP3    H143049   3.655   5.135   5.182  0.1608  0.8220 -0.3141
14368TIP3    H243050   3.522   5.206   5.175 -0.7642 -0.8080  0.1949
14369TIP3   OH243051   7.076   5.821   2.902  0.0869  0.7235  0.3785
14369TIP3    H143052   7.130   5.900   2.897 -0.4829  1.0219 -1.6896
14369TIP3    H243053   7.112   5.763   2.835 -1.6006  0.5904 -0.4642
14370TIP3   OH243054   4.011   2.570   2.009 -0.0892  0.1930  0.0264
14370TIP3    H143055   3.948   2.548   1.940 -0.1045  0.5523 -0.0785
14370TIP3    H243056   4.083   2.612   1.962 -1.0180  2.3637  0.4291
14371TIP3   OH243057   4.743   2.004   2.597 -0.5226  0.3680 -0.1558
14371TIP3    H143058   4.688   2.010   2.675 -0.2558  1.5799 -0.0439
14371TIP3    H243059   4.713   2.076   2.541  0.6806  0.8024 -0.2713
14372TIP3   OH243060   2.706   6.878   4.460  0.0889 -0.6425 -0.3206
14372TIP3    H143061   2.739   6.791   4.437  1.9429 -0.7515  2.2942
14372TIP3    H243062   2.640   6.863   4.528  1.9436 -0.0441  1.7430
14373TIP3   OH243063   8.062   2.890   2.031 -0.0046 -0.0052 -0.2054
14373TIP3    H143064   8.102   2.952   2.091  0.1001 -0.3842  0.1242
14373TIP3    H243065   8.025   2.944   1.962  0.9525  0.3642 -0.4476
14374TIP3   OH243066   7.129   0.211   3.247  0.3097 -0.7015  0.2658
14374TIP3    H143067   7.222   0.197   3.230  0.3601 -0.1530  0.0741
14374TIP3    H243068   7.106   0.143   3.310  0.2580 -2.3629 -1.4756
14375TIP3   OH243069   2.078   3.396   4.262 -0.3878 -0.1564  0.1863
14375TIP3    H143070   2.048   3.486   4.278 -0.9720 -0.4539  0.7940
14375TIP3    H243071   2.066   3.383   4.168 -0.8985  0.1903  0.2015
14376TIP3   OH243072   6.741   4.487   1.326  0.7576  0.2653 -0.3692
14376TIP3    H143073   6.810   4.488   1.392  0.1517  0.7405  0.2690
14376TIP3    H243074   6.674   4.546   1.360 -1.4559 -2.6046  0.6494
14377TIP3   OH243075   2.330   3.053   4.726 -0.5387  0.4813 -0.2662
14377TIP3    H143076   2.282   3.126   4.764  0.6589  1.6403 -0.8901
14377TIP3    H243077   2.353   2.998   4.801 -2.4355  0.0921  0.0786
14378TIP3   OH243078   6.066   1.765   4.678  0.4235  0.0331  0.5387
14378TIP3    H143079   6.114   1.740   4.599  0.4949 -1.0919  0.9102
14378TIP3    H243080   6.026   1.683   4.708 -1.0965  0.7884  0.6721
14379TIP3   OH243081   1.871   7.651   5.500  0.1506  0.0495  0.9681
14379TIP3    H143082   1.783   7.621   5.480  0.6305 -0.3385 -0.7470
14379TIP3    H243083   1.925   7.618   5.428  1.6113  0.7163  1.6980
14380TIP3   OH243084   3.578   1.594   0.966 -0.2802 -0.3857 -0.1700
14380TIP3    H143085   3.553   1.625   0.879 -1.2577  2.5150  0.9876
14380TIP3    H243086   3.654   1.648   0.990  0.7710 -2.0181  0.3205
14381TIP3   OH243087   1.438   6.646   3.041  0.7741 -0.4390 -0.0589
14381TIP3    H143088   1.375   6.576   3.022  0.2804 -0.0733  0.2073
14381TIP3    H243089   1.522   6.601   3.047  0.5833 -0.8922 -0.7103
14382TIP3   OH243090   6.510   3.748   6.623 -0.3832 -0.0622 -0.3295
14382TIP3    H143091   6.465   3.767   6.706 -0.2629 -2.4912  0.3615
14382TIP3    H243092   6.442   3.710   6.568 -0.2311  0.6382 -1.0100
14383TIP3   OH243093   1.153   6.659   0.981 -0.2138  0.2438 -0.6528
14383TIP3    H143094   1.152   6.572   0.941 -0.4006  0.2831 -0.7369
14383TIP3    H243095   1.133   6.719   0.908  2.8595  0.6715 -1.3021
14384TIP3   OH243096   4.696   7.688   3.679  0.2019 -0.5225  0.1541
14384TIP3    H143097   4.601   7.690   3.687 -0.0168  3.5929 -1.2171
14384TIP3    H243098   4.729   7.717   3.764  0.1838 -0.5975  0.1869
14385TIP3   OH243099   6.671   7.481   3.386 -0.3545 -0.1002 -0.2470
14385TIP3    H143100   6.679   7.563   3.434 -0.6895  0.4886 -1.1495
14385TIP3    H243101   6.671   7.413   3.453  2.5401  0.4223  0.4076
14386TIP3   OH243102   6.583   4.735   5.512 -0.4551 -0.2182  0.2133
14386TIP3    H143103   6.564   4.698   5.599  2.1511 -0.6248  0.6761
14386TIP3    H243104   6.605   4.659   5.458  0.9318  0.2662  0.0574
14387TIP3   OH243105   0.610   2.172   0.602  0.2740  0.2527  0.2406
14387TIP3    H143106   0.687   2.202   0.553  0.4341  0.9598  0.9063
14387TIP3    H243107   0.565   2.253   0.628  0.2750 -0.0959  1.3767
14388TIP3   OH243108   7.507   7.359   0.849 -0.0503  0.1697 -0.3139
14388TIP3    H143109   7.491   7.276   0.894  0.1688  0.4921  0.3748
14388TIP3    H243110   7.601   7.359   0.833 -0.1757 -0.0958 -1.0950
14389TIP3   OH243111   1.388   2.011   1.160  0.0585 -0.2265  0.3321
14389TIP3    H143112   1.452   2.081   1.160 -0.3326  0.1431 -0.1721
14389TIP3    H243113   1.404   1.963   1.241  0.8079  0.0019  0.3282
14390TIP3   OH243114   5.560   4.085   0.511 -0.3319 -0.2912 -0.5781
14390TIP3    H143115   5.636   4.076   0.453  0.6620 -2.7617  0.9405
14390TIP3    H243116   5.595   4.072   0.599 -1.8982  2.6504  0.6345
14391TIP3   OH243117   5.974   5.719   1.113  0.2961 -0.2041  0.2133
14391TIP3    H143118   6.016   5.646   1.067 -0.8380 -1.1458  0.6201
14391TIP3    H243119   5.904   5.678   1.164 -1.5961  1.3676 -0.9835
14392TIP3   OH243120   4.284   5.934   0.882  0.0203 -0.1334 -0.2427
14392TIP3    H143121   4.268   6.027   0.867 -0.0999 -0.0952  0.1226
14392TIP3    H243122   4.345   5.932   0.956  1.7705 -0.2613 -1.6159
14393TIP3   OH243123   7.176   1.365   5.343  0.2363 -0.0217 -0.2476
14393TIP3    H143124   7.139   1.338   5.427  2.3491  0.6084  0.9584
14393TIP3    H243125   7.170   1.461   5.344  0.7286  0.0156 -0.5970
14394TIP3   OH243126   5.328   7.730   4.783 -0.0809  0.5854 -0.1976
14394TIP3    H143127   5.268   7.718   4.709 -0.4461 -3.3927  0.5267
14394TIP3    H243128   5.412   7.752   4.743 -0.6681  0.2447 -1.6744
14395TIP3   OH243129   5.988   2.833   1.299  0.1312 -0.2815 -0.1939
14395TIP3    H143130   5.938   2.772   1.245 -1.6947  1.3126 -0.4102
14395TIP3    H243131   5.940   2.837   1.381  0.8356  0.0679  0.2085
14396TIP3   OH243132   5.712   4.611   6.000 -0.5603 -0.3620 -0.3534
14396TIP3    H143133   5.633   4.605   6.055  0.6431  2.4916  1.9580
14396TIP3    H243134   5.689   4.673   5.932 -0.8949 -1.0984 -0.9304
14397TIP3   OH243135   5.270   7.226   0.671 -0.5082  0.4158  0.1450
14397TIP3    H143136   5.297   7.154   0.614 -1.0703 -1.5098  2.1930
14397TIP3    H243137   5.211   7.186   0.735 -0.7845  2.6935  1.4361
14398TIP3   OH243138   2.488   6.375   3.544  0.3156  0.0146  0.1007
14398TIP3    H143139   2.467   6.435   3.616  0.3159 -0.1855  0.2682
14398TIP3    H243140   2.529   6.300   3.587 -0.6257 -0.5760  0.0092
14399TIP3   OH243141   5.856   7.077   3.636  0.3371 -0.0261  0.4471
14399TIP3    H143142   5.764   7.077   3.607  0.0590  1.2090  1.2715
14399TIP3    H243143   5.891   7.159   3.602  0.9217 -0.1186  0.8320
14400TIP3   OH243144   2.226   0.247   6.120  0.0459  0.2151  0.3168
14400TIP3    H143145   2.237   0.304   6.044 -0.1315  0.8224  0.7362
14400TIP3    H243146   2.253   0.161   6.090 -1.4614  0.1187 -0.8879
14401TIP3   OH243147   7.529   4.689   5.289  0.6637  0.2933 -0.0149
14401TIP3    H143148   7.561   4.735   5.367  0.2701 -0.6976  0.7442
14401TIP3    H243149   7.589   4.615   5.278 -0.7956 -1.0995  0.9331
14402TIP3   OH243150   2.147   3.339   3.986 -0.8513 -0.3557  0.4114
14402TIP3    H143151   2.206   3.301   4.051  1.2765  0.5961 -0.8878
14402TIP3    H243152   2.162   3.289   3.906 -2.0666 -0.2987  0.1188
14403TIP3   OH243153   2.254   1.207   1.025  0.6800 -0.1528 -0.5570
14403TIP3    H143154   2.208   1.222   1.107  0.5042 -2.2751 -0.2161
14403TIP3    H243155   2.306   1.129   1.040  3.3851  1.3609 -1.3873
14404TIP3   OH243156   4.676   0.127   0.964 -0.1358 -0.5199 -0.0166
14404TIP3    H143157   4.622   0.048   0.960 -1.2593  0.2476 -0.9823
14404TIP3    H243158   4.670   0.156   1.055 -1.9681 -0.0879 -0.2241
14405TIP3   OH243159   4.838   1.604   1.389 -0.1114  0.1770 -0.2388
14405TIP3    H143160   4.840   1.557   1.473  1.4635  1.1810  0.3249
14405TIP3    H243161   4.927   1.594   1.354 -0.8814 -0.6567 -2.0727
14406TIP3   OH243162   1.385   3.724   4.296  0.6182 -0.0118  0.2415
14406TIP3    H143163   1.294   3.757   4.296  1.2355  1.8338  0.0673
14406TIP3    H243164   1.400   3.696   4.386 -0.3351 -1.0318  0.1108
14407TIP3   OH243165   8.109   2.152   1.602 -0.2388 -0.3565 -0.0988
14407TIP3    H143166   8.063   2.127   1.522  0.4138  1.1341 -0.9787
14407TIP3    H243167   8.068   2.233   1.630 -0.3276 -0.7595  0.9848
14408TIP3   OH243168   2.747   6.940   0.905  0.1300 -0.0713  0.2677
14408TIP3    H143169   2.829   6.976   0.940  0.4473 -0.6497  0.1407
14408TIP3    H243170   2.741   6.975   0.817  2.7271 -3.6431 -1.5941
14409TIP3   OH243171   1.169   4.298   0.717  0.2844  0.1402 -0.0905
14409TIP3    H143172   1.163   4.320   0.810 -1.3903  1.2251 -0.4071
14409TIP3    H243173   1.089   4.250   0.699  0.3251  0.4420 -1.0970
14410TIP3   OH243174   5.624   2.885   6.343  0.0179 -0.2539 -0.1382
14410TIP3    H143175   5.676   2.805   6.340 -0.5585 -0.6242 -0.4441
14410TIP3    H243176   5.560   2.875   6.272 -1.8748 -0.7856  1.5687
14411TIP3   OH243177   1.729   4.065   5.237 -0.3178  0.2380 -0.5074
14411TIP3    H143178   1.718   3.981   5.282  0.0802  1.0283  1.1530
14411TIP3    H243179   1.731   4.042   5.144 -0.7658 -1.5215 -0.1277
14412TIP3   OH243180   7.376   7.044   4.132 -0.2010  0.2820  0.1051
14412TIP3    H143181   7.305   6.991   4.096 -0.4954  0.2337  0.7453
14412TIP3    H243182   7.332   7.109   4.186  0.2653 -0.1818  1.0759
14413TIP3   OH243183   6.043   4.434   6.255 -0.3089 -0.5063 -0.1965
14413TIP3    H143184   6.083   4.381   6.186 -2.0118 -1.4099 -0.5460
14413TIP3    H243185   5.949   4.432   6.236 -0.4700  2.7033 -0.2265
14414TIP3   OH243186   0.177   3.068   4.878 -0.5326  0.1533  0.1045
14414TIP3    H143187   0.088   3.064   4.844 -0.3571  2.0557 -0.6804
14414TIP3    H243188   0.189   3.160   4.904 -0.0564 -0.7573  3.7770
14415TIP3   OH243189   4.632   4.416   6.615 -0.5644  0.3461  0.1703
14415TIP3    H143190   4.590   4.446   6.534 -1.0058  1.4217  0.7652
14415TIP3    H243191   4.653   4.497   6.661  1.9348 -0.1506  0.0478
14416TIP3   OH243192   6.570   5.753   0.212 -0.8416  0.4508  0.2118
14416TIP3    H143193   6.606   5.700   0.141 -0.1511 -0.2122  1.0320
14416TIP3    H243194   6.501   5.806   0.171  0.4577  1.0938 -1.2201
14417TIP3   OH243195   1.100   4.343   1.475  0.2348 -0.3593 -0.4784
14417TIP3    H143196   1.068   4.430   1.451 -0.9043 -0.4719  0.4808
14417TIP3    H243197   1.033   4.283   1.441  0.5528 -0.7795 -0.3726
14418TIP3   OH243198   4.330   4.208   5.233  0.5106  0.0943  0.4032
14418TIP3    H143199   4.248   4.256   5.243 -0.3428 -0.2264 -3.3532
14418TIP3    H243200   4.374   4.250   5.159  1.3945 -2.6335 -0.7741
14419TIP3   OH243201   2.244   1.623   3.500  0.2273  0.1461  0.1176
14419TIP3    H143202   2.305   1.584   3.437 -0.3918  0.2177 -0.5338
14419TIP3    H243203   2.301   1.665   3.565  0.8959 -1.1860  0.4255
14420TIP3   OH243204   0.545   5.501   4.360  0.3450  0.5729 -0.7405
14420TIP3    H143205   0.472   5.499   4.299  0.9919  1.2012 -1.5619
14420TIP3    H243206   0.547   5.591   4.393 -0.6103  0.0106  1.0097
14421TIP3   OH243207   6.366   1.450   5.902 -0.3170 -0.3150  0.3161
14421TIP3    H143208   6.387   1.374   5.848 -1.1109  1.3682 -2.5621
14421TIP3    H243209   6.437   1.512   5.887 -1.5795  1.0098 -0.6020
14422TIP3   OH243210   0.890   0.997   6.429  0.2081 -0.2276 -0.3294
14422TIP3    H143211   0.836   1.032   6.358  2.7996  2.0848 -1.3322
14422TIP3    H243212   0.881   1.062   6.499 -1.1001 -1.7118  0.9570
14423TIP3   OH243213   0.425   2.921   1.856 -0.5505  0.4539 -0.0015
14423TIP3    H143214   0.332   2.900   1.849 -0.6639  0.3531  1.4750
14423TIP3    H243215   0.429   2.991   1.921  0.5070 -0.4315  0.9267
14424TIP3   OH243216   4.292   6.033   0.202 -0.0805  0.0119  0.6440
14424TIP3    H143217   4.363   6.091   0.175  0.0378 -0.3384  0.1832
14424TIP3    H243218   4.283   6.048   0.296 -1.1006  1.9167  0.2752
14425TIP3   OH243219   0.478   1.820   1.646  0.2546 -0.4891 -0.4412
14425TIP3    H143220   0.569   1.837   1.674  1.2159 -0.2676 -3.3855
14425TIP3    H243221   0.477   1.727   1.623 -0.1019 -0.3650 -0.9412
14426TIP3   OH243222   3.149   5.255   3.374 -0.0553 -0.3183 -0.4250
14426TIP3    H143223   3.118   5.205   3.299  0.0726 -2.1677  0.6877
14426TIP3    H243224   3.238   5.281   3.350 -0.1855 -0.4776 -1.1057
14427TIP3   OH243225   3.445   0.778   5.513  0.0307  0.0675 -0.0265
14427TIP3    H143226   3.462   0.782   5.607  0.4511  1.4571 -0.1370
14427TIP3    H243227   3.353   0.755   5.505 -0.6040  2.1377  0.7892
14428TIP3   OH243228   3.702   3.517   6.010  0.2619 -0.0299  0.7727
14428TIP3    H143229   3.618   3.480   6.037  0.2587 -0.0327  0.7589
14428TIP3    H243230   3.722   3.583   6.077 -0.3498  0.8366  0.1173
14429TIP3   OH243231   5.672   6.140   2.227  0.0242  0.5605 -0.0291
14429TIP3    H143232   5.768   6.143   2.231  0.0911 -1.4542  1.2197
14429TIP3    H243233   5.649   6.198   2.155  2.3637 -1.0537 -2.2435
14430TIP3   OH243234   3.282   1.498   5.668 -0.1311 -0.0816  0.4165
14430TIP3    H143235   3.282   1.587   5.634 -1.7909 -0.5809 -1.0393
14430TIP3    H243236   3.365   1.490   5.715 -0.1483  2.3621  1.0085
14431TIP3   OH243237   1.042   4.271   2.448  0.2297 -0.1110 -0.1191
14431TIP3    H143238   1.062   4.235   2.534 -2.0885 -0.9764  0.1397
14431TIP3    H243239   1.118   4.249   2.394  0.4051 -2.3543  0.9207
14432TIP3   OH243240   0.103   2.388   2.552  0.2131  0.5012 -0.2262
14432TIP3    H143241   0.049   2.464   2.573 -0.3245  0.1982 -0.5192
14432TIP3    H243242   0.177   2.424   2.503 -0.0497  0.8294 -0.3803
14433TIP3   OH243243   7.144   7.554   4.992  0.1805 -0.0912  0.0233
14433TIP3    H143244   7.218   7.520   4.943 -0.4331 -4.2157  1.5521
14433TIP3    H243245   7.148   7.649   4.980  3.6283 -0.4032 -2.7074
14434TIP3   OH243246   7.203   3.937   0.574  0.3176 -0.5827 -0.3066
14434TIP3    H143247   7.268   3.873   0.605  0.4952 -0.0005  0.5716
14434TIP3    H243248   7.252   3.995   0.516  0.6544 -0.0372  0.4920
14435TIP3   OH243249   2.167   6.558   3.321  0.5258  0.7807 -0.2293
14435TIP3    H143250   2.203   6.644   3.346 -0.0223  1.3846 -1.4403
14435TIP3    H243251   2.076   6.561   3.349  0.6840  0.3194  0.3469
14436TIP3   OH243252   5.229   3.758   5.172  0.6843  0.5254 -0.1693
14436TIP3    H143253   5.162   3.692   5.188 -1.0582  2.4218  0.8060
14436TIP3    H243254   5.301   3.734   5.230 -0.4721  0.2299  1.1931
14437TIP3   OH243255   0.799   4.891   0.119  0.2387 -0.3037 -0.4886
14437TIP3    H143256   0.747   4.826   0.166  1.7328 -1.5716 -0.5043
14437TIP3    H243257   0.860   4.925   0.184 -1.5437  2.3828 -0.0329
14438TIP3   OH243258   2.743   3.401   5.257 -0.6023  0.3257 -0.2839
14438TIP3    H143259   2.684   3.346   5.205 -2.5971  1.4115  0.7252
14438TIP3    H243260   2.784   3.458   5.193  0.8910 -1.6984 -1.2514
14439TIP3   OH243261   4.067   5.510   5.352 -0.0466  0.1303 -0.5617
14439TIP3    H143262   4.001   5.491   5.284 -0.1718  0.4114 -0.5185
14439TIP3    H243263   4.093   5.423   5.384 -1.0539  0.0312  0.0554
14440TIP3   OH243264   4.475   1.739   6.500  0.2695 -0.2891 -0.1667
14440TIP3    H143265   4.449   1.687   6.576  0.1500  1.0357  0.7368
14440TIP3    H243266   4.420   1.706   6.428 -0.4909 -0.7310  0.5989
14441TIP3   OH243267   3.245   0.112   6.564  0.1815  0.2850 -0.4958
14441TIP3    H143268   3.313   0.141   6.624  0.1127 -0.3477 -0.1027
14441TIP3    H243269   3.289   0.050   6.505 -0.3548 -1.3590  0.7445
14442TIP3   OH243270   4.580   5.138   2.894  0.1927  0.0903 -0.2326
14442TIP3    H143271   4.642   5.173   2.958 -0.3537 -0.2132  0.4816
14442TIP3    H243272   4.633   5.117   2.817  0.6605  1.7786 -0.4114
14443TIP3   OH243273   6.715   7.696   3.557 -0.3518  0.3438  0.4104
14443TIP3    H143274   6.748   7.656   3.637 -0.2494  1.1356  0.7778
14443TIP3    H243275   6.755   7.783   3.556 -2.2949  1.3037  0.7934
14444TIP3   OH243276   6.874   4.748   3.050 -0.1547 -0.1554  0.0095
14444TIP3    H143277   6.898   4.833   3.012  0.0302  1.0560  2.6109
14444TIP3    H243278   6.934   4.686   3.010  0.9194  1.2487 -0.6495
14445TIP3   OH243279   0.632   3.472   4.445 -0.5174  0.3046  0.0455
14445TIP3    H143280   0.617   3.487   4.352 -0.5158 -2.1131 -0.4014
14445TIP3    H243281   0.723   3.497   4.459 -0.1419 -0.4578 -0.9088
14446TIP3   OH243282   7.347   5.231   3.404 -0.0681 -0.0825 -0.0185
14446TIP3    H143283   7.257   5.259   3.419 -0.5544 -1.7194  0.2924
14446TIP3    H243284   7.392   5.309   3.372 -1.7264  0.6178 -0.7027
14447TIP3   OH243285   4.010   6.737   5.323 -0.6667 -0.1793  0.0549
14447TIP3    H143286   4.052   6.757   5.240 -0.6948 -0.0865  0.0627
14447TIP3    H243287   3.923   6.776   5.315 -0.8594 -0.6288 -0.0785
14448TIP3   OH243288   3.385   6.951   3.423  0.6354  0.3268  0.1478
14448TIP3    H143289   3.465   6.916   3.461  0.7434  1.3941  0.9759
14448TIP3    H243290   3.350   6.880   3.370  0.7515 -1.0586  1.8470
14449TIP3   OH243291   7.103   3.562   4.244  0.3045 -0.1852  0.6440
14449TIP3    H143292   7.113   3.478   4.289  0.3643  0.6750  2.2845
14449TIP3    H243293   7.144   3.626   4.302 -0.6630  1.1490 -0.0923
14450TIP3   OH243294   5.127   1.221   3.379  0.3190 -0.9070 -0.2631
14450TIP3    H143295   5.085   1.160   3.440 -1.1313 -0.2718 -0.5838
14450TIP3    H243296   5.129   1.304   3.426 -1.1534 -0.3215 -1.1722
14451TIP3   OH243297   1.505   3.697   3.194 -0.0041 -0.2578  0.0397
14451TIP3    H143298   1.601   3.690   3.195 -0.0726 -1.2124  1.1131
14451TIP3    H243299   1.475   3.611   3.164 -0.5774 -0.8169  2.1189
14452TIP3   OH243300   0.231   3.487   4.424  0.5746 -0.1578  0.0185
14452TIP3    H143301   0.243   3.574   4.386 -0.9859  0.1809  0.2473
14452TIP3    H243302   0.260   3.496   4.514 -0.1734  0.2986  0.2186
14453TIP3   OH243303   2.051   6.505   4.032 -0.5205  0.3306 -0.0533
14453TIP3    H143304   2.033   6.425   4.081  1.0761 -0.5177 -0.7473
14453TIP3    H243305   2.128   6.542   4.075 -1.5712  1.8245  0.6003
14454TIP3   OH243306   6.636   5.017   2.430 -0.5304  0.3291 -0.4279
14454TIP3    H143307   6.672   4.939   2.471  0.9852  0.0153 -2.2201
14454TIP3    H243308   6.560   5.040   2.484  0.6181 -0.7341  1.7610
14455TIP3   OH243309   0.802   0.972   4.374 -0.0349 -1.0279 -0.2312
14455TIP3    H143310   0.834   0.941   4.290 -0.3412  1.4641 -1.3691
14455TIP3    H243311   0.714   0.934   4.382  0.1796 -1.6554 -0.8171
14456TIP3   OH243312   2.352   3.151   4.184  0.0276  0.4202  0.8177
14456TIP3    H143313   2.338   3.117   4.272  3.6780 -0.7394  1.0916
14456TIP3    H243314   2.325   3.080   4.126  0.8219 -0.1428  1.1330
14457TIP3   OH243315   1.196   2.272   6.008  0.0997 -0.2329 -0.2513
14457TIP3    H143316   1.211   2.311   6.094 -1.1942 -0.4054  0.0812
14457TIP3    H243317   1.195   2.178   6.025  0.4452 -0.2934 -0.5643
14458TIP3   OH243318   8.096   3.957   0.786 -0.3805 -0.8197  0.2895
14458TIP3    H143319   8.189   3.966   0.806 -0.2947  0.8673 -0.6848
14458TIP3    H243320   8.051   4.001   0.859 -0.3998 -1.2775  0.5548
14459TIP3   OH243321   8.015   6.443   3.083 -0.0480  0.2261  0.1864
14459TIP3    H143322   8.039   6.446   2.990  0.7850 -2.1710  0.2592
14459TIP3    H243323   8.088   6.397   3.125  0.0232  2.0405  2.2331
14460TIP3   OH243324   5.257   1.566   0.030  0.2377  0.8312 -0.4779
14460TIP3    H143325   5.312   1.496  -0.005  1.1646  1.4407 -0.2711
14460TIP3    H243326   5.295   1.646  -0.006 -1.4757  1.1814 -1.6051
14461TIP3   OH243327   2.732   6.313   5.136 -0.2392 -0.5779  0.1566
14461TIP3    H143328   2.658   6.261   5.105  0.0670 -1.5114  0.9524
14461TIP3    H243329   2.753   6.277   5.222  1.4610 -0.6812 -0.2557
14462TIP3   OH243330   8.273   4.492   0.167 -0.1510  0.8699  0.1086
14462TIP3    H143331   8.304   4.520   0.081 -0.1464  0.4419 -0.0321
14462TIP3    H243332   8.189   4.450   0.149 -0.3523  1.1572  0.3684
14463TIP3   OH243333   5.781   0.363   5.593  0.1281 -0.0924 -0.4467
14463TIP3    H143334   5.838   0.286   5.588 -0.8299 -0.9204  0.6776
14463TIP3    H243335   5.693   0.326   5.599 -0.5471  1.1529 -2.0456
14464TIP3   OH243336   4.402   1.401   2.930  0.0234  0.7608 -0.9383
14464TIP3    H143337   4.392   1.495   2.947  2.1352  0.9301 -0.3334
14464TIP3    H243338   4.493   1.382   2.953 -0.7867 -1.7884  0.6096
14465TIP3   OH243339   7.139   4.473   3.339  0.2306  0.5117 -0.0933
14465TIP3    H143340   7.066   4.413   3.326  0.2307 -0.2820  2.9765
14465TIP3    H243341   7.100   4.560   3.335 -0.4835  0.1763 -0.6062
14466TIP3   OH243342   5.051   0.473   6.240  0.0272 -0.0797 -0.2432
14466TIP3    H143343   5.119   0.481   6.307 -0.1741 -1.5990  0.1868
14466TIP3    H243344   5.099   0.453   6.160  0.2112  0.8673 -0.3754
14467TIP3   OH243345   7.322   0.529   1.690  0.0140 -0.3981 -0.1324
14467TIP3    H143346   7.357   0.555   1.606 -0.0268 -1.6506 -0.5630
14467TIP3    H243347   7.308   0.611   1.738  0.7180  0.2738 -1.0622
14468TIP3   OH243348   0.610   0.065   3.321 -0.0026 -0.5377  0.7630
14468TIP3    H143349   0.542   0.013   3.279 -1.2805  0.6175  1.3106
14468TIP3    H243350   0.590   0.062   3.414  1.5766 -1.3605  1.1158
14469TIP3   OH243351   0.068   6.045   5.926 -0.2170  0.6108 -0.1853
14469TIP3    H143352   0.161   6.041   5.905  0.1360 -1.5353  1.4890
14469TIP3    H243353   0.064   6.090   6.010 -0.6240  0.0709  0.0890
14470TIP3   OH243354   1.914   3.783   5.226 -0.6294 -0.5799 -0.9674
14470TIP3    H143355   1.972   3.739   5.288 -0.9982 -2.0519 -1.6044
14470TIP3    H243356   1.831   3.791   5.272 -0.2573  0.5093 -0.4526
14471TIP3   OH243357   5.932   7.436   0.588 -0.8046 -0.0092 -0.3788
14471TIP3    H143358   5.878   7.368   0.627  0.9372 -1.7104 -0.8042
14471TIP3    H243359   5.895   7.518   0.623 -2.3445 -1.1758  0.9221
14472TIP3   OH243360   6.818   0.462   4.974  0.6017 -0.7820  0.5579
14472TIP3    H143361   6.804   0.556   4.959  2.8085 -0.4502  0.1996
14472TIP3    H243362   6.746   0.420   4.928  1.1252  0.6681 -1.7762
14473TIP3   OH243363   6.259   4.526   5.756  0.2356  1.1592  0.3538
14473TIP3    H143364   6.260   4.512   5.850 -0.3318  0.0346  0.2119
14473TIP3    H243365   6.219   4.446   5.720  0.2524  1.6540 -0.8178
14474TIP3   OH243366   1.623   6.822   0.889 -0.1377  0.2790 -0.1272
14474TIP3    H143367   1.607   6.794   0.799 -3.6198 -1.1717  0.7930
14474TIP3    H243368   1.680   6.754   0.926 -1.8354 -1.2836 -0.2364
14475TIP3   OH243369   7.956   4.795   5.948  0.0855 -0.4218  0.3024
14475TIP3    H143370   7.943   4.828   6.037 -1.6722 -1.6956  0.5756
14475TIP3    H243371   7.868   4.770   5.918  1.0144 -3.0402 -0.5413
14476TIP3   OH243372   7.217   5.774   1.694  0.1086 -0.1949  0.0540
14476TIP3    H143373   7.195   5.819   1.612  0.9141  1.8318  0.8962
14476TIP3    H243374   7.312   5.779   1.699  0.1236 -1.0371  0.7318
14477TIP3   OH243375   6.036   7.564   2.455  0.4701  0.9589  0.7518
14477TIP3    H143376   5.965   7.551   2.391  0.9900 -2.7176  0.6839
14477TIP3    H243377   5.994   7.605   2.530 -1.8472 -1.0862  0.7102
14478TIP3   OH243378   7.101   3.388   1.880  0.5742 -0.4212  0.1586
14478TIP3    H143379   7.085   3.301   1.916 -0.1598 -0.4032 -0.1092
14478TIP3    H243380   7.018   3.435   1.892 -0.1920 -0.8269 -2.6940
14479TIP3   OH243381   2.919   3.918   3.323  0.2004  0.0107 -0.1469
14479TIP3    H143382   3.005   3.922   3.279  0.2726  0.5512  0.0475
14479TIP3    H243383   2.861   3.882   3.256  0.3043  0.8532 -0.7104
14480TIP3   OH243384   6.142   1.960   0.659  0.4714  0.3004  0.0406
14480TIP3    H143385   6.126   2.047   0.622 -0.9088  0.1554  0.2390
14480TIP3    H243386   6.112   1.967   0.750  2.6928  0.3044  0.8313
14481TIP3   OH243387   7.473   2.883   5.813 -0.1633  0.4012 -0.0705
14481TIP3    H143388   7.429   2.909   5.731 -1.6385 -0.2029  0.4993
14481TIP3    H243389   7.489   2.789   5.803 -2.0070 -0.0685  1.0333
14482TIP3   OH243390   2.205   4.207   4.413  0.0878  0.6716  0.3367
14482TIP3    H143391   2.141   4.221   4.482  0.0732  0.9607  0.2687
14482TIP3    H243392   2.232   4.295   4.387  0.2276  0.5625  0.1003
14483TIP3   OH243393   1.176   1.825   4.735  0.4696  0.5685 -0.2321
14483TIP3    H143394   1.127   1.743   4.725  0.8179 -0.1632  3.0315
14483TIP3    H243395   1.111   1.893   4.718 -0.5266 -0.3799 -0.3432
14484TIP3   OH243396   0.620   5.509   1.927 -0.4899 -0.4566 -0.3178
14484TIP3    H143397   0.665   5.504   2.011 -1.4157 -1.3512  0.1354
14484TIP3    H243398   0.691   5.504   1.862  0.3904  1.7465  0.3630
14485TIP3   OH243399   1.613   7.590   5.628 -0.4267  0.3282  0.3769
14485TIP3    H143400   1.695   7.596   5.677  0.7437  0.8437 -1.5137
14485TIP3    H243401   1.582   7.501   5.645  0.3815  0.2090  1.3365
14486TIP3   OH243402   2.714   5.585   0.352  0.2093 -0.3776 -0.4527
14486TIP3    H143403   2.652   5.513   0.357  1.1985 -1.2101 -0.0013
14486TIP3    H243404   2.753   5.577   0.265  0.3104 -0.3691 -0.4078
14487TIP3   OH243405   4.080   2.079   2.022 -0.5463 -0.0996  0.4177
14487TIP3    H143406   4.066   1.996   2.067 -0.5518  0.1718  0.9272
14487TIP3    H243407   4.002   2.090   1.968 -0.3729 -0.6042  0.0574
14488TIP3   OH243408   0.698   6.450   5.565  0.3358  0.3129 -0.1680
14488TIP3    H143409   0.770   6.388   5.579  1.1861  0.6424 -2.5479
14488TIP3    H243410   0.647   6.447   5.646  2.3793 -0.7877  1.1601
14489TIP3   OH243411   5.625   7.760   3.834 -0.1929  0.0717  0.0965
14489TIP3    H143412   5.605   7.721   3.749  0.7531 -1.8881  0.7058
14489TIP3    H243413   5.717   7.736   3.851  0.1615  1.8566  0.9314
14490TIP3   OH243414   6.013   5.317   5.161 -0.4593  0.3862  0.3136
14490TIP3    H143415   6.013   5.331   5.256  0.4396 -0.0987  0.3968
14490TIP3    H243416   6.043   5.227   5.150  1.2302  1.0107 -0.4944
14491TIP3   OH243417   7.852   6.767   5.954 -0.2299  0.0781 -0.1356
14491TIP3    H143418   7.772   6.773   6.007  0.9048  1.5874  1.5101
14491TIP3    H243419   7.822   6.779   5.864 -1.7208  2.0479  0.5614
14492TIP3   OH243420   5.470   0.818   4.676 -0.1219  0.1096  0.0914
14492TIP3    H143421   5.542   0.767   4.715 -0.1312  1.0956  1.4621
14492TIP3    H243422   5.507   0.905   4.664 -0.0738 -0.1946 -2.3449
14493TIP3   OH243423   6.404   3.145   3.989  1.1911 -0.0636  0.4859
14493TIP3    H143424   6.455   3.124   4.067 -0.1544  0.1967  1.4819
14493TIP3    H243425   6.344   3.215   4.017  0.1610 -0.4794 -0.5593
14494TIP3   OH243426   6.272   7.699   4.668 -0.0287 -0.4809  0.9438
14494TIP3    H143427   6.251   7.787   4.636  1.1768 -0.0835  1.1720
14494TIP3    H243428   6.223   7.640   4.612 -2.5578  0.3802  2.1331
14495TIP3   OH243429   7.334   4.689   1.027 -0.5686 -0.2281 -0.5264
14495TIP3    H143430   7.331   4.748   1.102  0.4067 -0.6644 -0.1227
14495TIP3    H243431   7.243   4.662   1.014 -1.0480  1.4105 -0.7835
14496TIP3   OH243432   7.583   6.614   6.127  0.7569 -0.6208 -0.5212
14496TIP3    H143433   7.623   6.678   6.185 -0.0809 -0.6614  0.1237
14496TIP3    H243434   7.550   6.666   6.053 -0.5374 -0.1714  0.3270
14497TIP3   OH243435   2.760   3.991   5.646  0.2269 -0.1228  0.3277
14497TIP3    H143436   2.814   3.945   5.582 -0.5475 -2.4155  1.1909
14497TIP3    H243437   2.821   4.026   5.710  1.1554  3.4993 -2.2590
14498TIP3   OH243438   3.191   7.667   3.392  0.4336  0.6424 -0.2009
14498TIP3    H143439   3.239   7.708   3.320  0.0616 -0.8954 -1.3769
14498TIP3    H243440   3.256   7.613   3.437  0.7749  1.9598  0.9513
14499TIP3   OH243441   1.115   0.040   4.795 -0.0506  0.0672 -0.4480
14499TIP3    H143442   1.042  -0.010   4.758  0.6490 -0.8329 -0.6410
14499TIP3    H243443   1.084   0.067   4.882  0.0404 -1.8801  0.2287
14500TIP3   OH243444   6.911   0.264   0.858  0.2095  0.1918 -0.3262
14500TIP3    H143445   6.928   0.357   0.844 -0.0933 -0.0048 -2.3218
14500TIP3    H243446   6.997   0.223   0.855  0.3827  0.4174  0.9406
14501TIP3   OH243447   1.676   3.975   1.480  0.4219 -0.0445  0.4171
14501TIP3    H143448   1.647   3.947   1.393  0.5974  1.2308 -0.0663
14501TIP3    H243449   1.672   4.071   1.477 -1.7683  0.0344  2.5546
14502TIP3   OH243450   8.246   4.574   1.831 -0.2757 -0.0642 -0.0398
14502TIP3    H143451   8.293   4.654   1.810 -1.5792  0.8988  0.5399
14502TIP3    H243452   8.261   4.517   1.756  1.0287  0.5561 -0.2701
14503TIP3   OH243453   6.231   0.088   0.595  0.4551  1.2008 -0.4348
14503TIP3    H143454   6.321   0.071   0.623 -0.2784 -2.0514  0.3805
14503TIP3    H243455   6.230   0.065   0.502  0.3259  0.3798 -0.2424
14504TIP3   OH243456   3.019   5.523   4.246 -0.3039 -0.0734  0.0905
14504TIP3    H143457   2.980   5.523   4.334 -0.2580  1.9939  0.1611
14504TIP3    H243458   2.945   5.505   4.188 -0.5365 -0.4161  0.4838
14505TIP3   OH243459   0.559   0.411   2.619  0.1175  0.4373 -0.3823
14505TIP3    H143460   0.550   0.458   2.702  0.8867  0.1442 -0.1176
14505TIP3    H243461   0.639   0.359   2.630  0.2836  0.4725 -1.3414
14506TIP3   OH243462   1.467   3.669   4.048  0.0389  0.1561 -0.3158
14506TIP3    H143463   1.432   3.674   4.137  0.5717  3.1313 -0.1525
14506TIP3    H243464   1.542   3.729   4.049 -0.0073  0.3481 -2.7813
14507TIP3   OH243465   4.218   1.849   5.353  0.4215  0.2529  0.0370
14507TIP3    H143466   4.175   1.764   5.362 -0.0510  0.4088 -0.6691
14507TIP3    H243467   4.310   1.828   5.337  0.0554 -0.1857 -1.6585
14508TIP3   OH243468   0.290   2.749   2.412  0.6109  0.7234  0.7045
14508TIP3    H143469   0.224   2.681   2.422  0.9651  0.1520 -0.6304
14508TIP3    H243470   0.241   2.828   2.390  0.3383  0.4347  0.2751
14509TIP3   OH243471   2.919   3.875   4.444  0.0688  0.0237 -0.1925
14509TIP3    H143472   2.990   3.937   4.426  1.1318 -0.5887  1.6335
14509TIP3    H243473   2.841   3.930   4.453  0.3967  0.7694 -1.6173
14510TIP3   OH243474   0.960   1.641   6.042 -0.1389  0.0746 -0.6131
14510TIP3    H143475   0.894   1.620   6.109 -0.8176 -0.4512 -1.4280
14510TIP3    H243476   1.044   1.632   6.087 -0.4027 -3.4617 -0.5884
14511TIP3   OH243477   1.621   7.400   6.772 -0.2202 -0.2455  0.3155
14511TIP3    H143478   1.695   7.436   6.820  0.6489 -1.5403  0.0228
14511TIP3    H243479   1.651   7.313   6.744 -2.0149 -1.0101  0.5925
14512TIP3   OH243480   5.798   1.427   3.505  0.0779  0.3360  0.6359
14512TIP3    H143481   5.714   1.426   3.550  0.1633 -0.5240  0.7858
14512TIP3    H243482   5.847   1.354   3.542  0.6070  0.3550  0.0062
14513TIP3   OH243483   1.130   1.577   3.761 -0.0189  0.3083 -0.0195
14513TIP3    H143484   1.077   1.633   3.818  0.7424  1.7760 -0.6789
14513TIP3    H243485   1.066   1.526   3.711 -0.7968  1.2855 -0.0571
14514TIP3   OH243486   4.817   6.107   4.379  0.2264  0.0358  0.5646
14514TIP3    H143487   4.894   6.052   4.367 -0.1150 -0.3922  0.3080
14514TIP3    H243488   4.783   6.121   4.291  1.3236  2.1691  0.4095
14515TIP3   OH243489   1.328   3.868   6.637 -0.2430 -0.0551  0.0241
14515TIP3    H143490   1.410   3.915   6.654  0.0048  0.1730 -1.6901
14515TIP3    H243491   1.334   3.789   6.691 -0.3899  1.5136  2.4830
14516TIP3   OH243492   3.872   5.464   1.501 -0.4807  0.1195  0.3843
14516TIP3    H143493   3.892   5.557   1.492  0.6693 -0.0747  0.7873
14516TIP3    H243494   3.792   5.461   1.553 -0.7718  0.8870 -0.0020
14517TIP3   OH243495   0.442   3.436   3.341  0.3448 -0.2356  0.0902
14517TIP3    H143496   0.510   3.377   3.374 -0.4226 -0.3491  1.5558
14517TIP3    H243497   0.436   3.505   3.407 -1.1357 -0.3794  0.1440
14518TIP3   OH243498   6.641   0.870   5.127 -0.6812  0.0021 -0.0679
14518TIP3    H143499   6.592   0.837   5.051  2.1127 -1.8096 -1.2616
14518TIP3    H243500   6.581   0.860   5.201 -2.9550  0.3312 -1.7635
14519TIP3   OH243501   5.691   3.276   5.263  0.4139  0.0415 -0.7864
14519TIP3    H143502   5.731   3.348   5.214 -0.0361  0.0698 -1.1199
14519TIP3    H243503   5.631   3.235   5.201 -2.0674  1.6070  0.4019
14520TIP3   OH243504   3.606   2.510   1.535  0.2783  0.2423  0.8255
14520TIP3    H143505   3.665   2.442   1.503  2.1087  2.0844  0.0830
14520TIP3    H243506   3.526   2.498   1.484  1.1599 -0.3416 -0.4643
14521TIP3   OH243507   0.111   7.650   2.909 -0.6513 -0.9692  0.0638
14521TIP3    H143508   0.075   7.628   2.995 -1.1864 -0.5907 -0.0581
14521TIP3    H243509   0.205   7.658   2.924 -0.9387  1.4916  1.1791
14522TIP3   OH243510   8.268   0.626   0.324  0.1981  0.2650  0.1374
14522TIP3    H143511   8.336   0.614   0.258  0.2307 -0.7446  0.3422
14522TIP3    H243512   8.186   0.626   0.273  0.2392 -0.2471  0.0708
14523TIP3   OH243513   2.281   6.238   2.952 -0.1298  0.4129  0.0464
14523TIP3    H143514   2.278   6.217   3.045 -1.8034  0.9551  0.1418
14523TIP3    H243515   2.283   6.334   2.949 -0.0312  0.3988 -0.4746
14524TIP3   OH243516   7.900   6.979   2.990  0.0315  0.2821 -0.0290
14524TIP3    H143517   7.929   6.937   3.071  0.3540 -2.0577 -1.2539
14524TIP3    H243518   7.930   7.069   2.997  1.4703 -0.2864  1.7682
14525TIP3   OH243519   0.904   5.550   2.381 -0.1329 -0.0779  0.6940
14525TIP3    H143520   0.901   5.489   2.454 -0.9717 -0.7914  0.0850
14525TIP3    H243521   0.851   5.625   2.411  0.7372  0.2893  1.3638
14526TIP3   OH243522   0.889   1.229   1.537  0.1833 -0.3426  0.4311
14526TIP3    H143523   0.929   1.215   1.623 -0.0011  0.6027  0.6855
14526TIP3    H243524   0.797   1.205   1.549  0.1673 -0.2537  0.4880
14527TIP3   OH243525   6.058   4.908   4.955  0.0203  0.5270 -0.5465
14527TIP3    H143526   6.004   4.837   4.990 -0.1539  0.6253 -0.6165
14527TIP3    H243527   6.087   4.956   5.032  1.4697 -0.5622 -0.3629
14528TIP3   OH243528   2.440   6.361   5.349 -0.1548 -0.0225  0.1060
14528TIP3    H143529   2.398   6.302   5.412  1.0287 -1.1812 -0.1221
14528TIP3    H243530   2.468   6.303   5.278 -0.0688  1.0282 -0.7364
14529TIP3   OH243531   6.755   5.084   4.624 -0.1571 -0.0177 -0.3309
14529TIP3    H143532   6.820   5.152   4.602 -1.0678  1.0265  0.1279
14529TIP3    H243533   6.688   5.093   4.557 -0.2957 -0.4671 -0.2531
14530TIP3   OH243534   0.212   1.915   4.667 -0.5110  0.3735  0.2582
14530TIP3    H143535   0.302   1.884   4.673 -0.1646  1.3618  0.2619
14530TIP3    H243536   0.188   1.901   4.575 -1.0465 -1.7257  0.6772
14531TIP3   OH243537   0.137   6.324   6.121  0.3790  0.1902  0.2019
14531TIP3    H143538   0.228   6.312   6.147  1.1454 -1.1929 -2.6787
14531TIP3    H243539   0.136   6.406   6.071  0.1799 -0.0661 -0.2267
14532TIP3   OH243540   3.037   5.082   1.696  0.6029  0.1294 -0.1059
14532TIP3    H143541   3.058   5.095   1.788 -0.8503 -0.3128  0.3172
14532TIP3    H243542   2.946   5.050   1.696  0.9103 -0.8623 -1.6250
14533TIP3   OH243543   4.055   0.815   0.087  0.5242 -0.7326 -0.1687
14533TIP3    H143544   4.095   0.746   0.140  0.8333  0.7445  1.6453
14533TIP3    H243545   3.964   0.820   0.118  0.8362  0.4680  0.6290
14534TIP3   OH243546   6.741   2.795   1.594 -0.4350  0.4332  0.0884
14534TIP3    H143547   6.784   2.853   1.657  0.0901  1.4378 -1.1371
14534TIP3    H243548   6.801   2.722   1.584 -1.3602 -0.6724  2.0710
14535TIP3   OH243549   1.740   4.819   6.537  0.4423  0.5286 -0.6478
14535TIP3    H143550   1.661   4.870   6.553 -0.5440 -1.1531  0.1349
14535TIP3    H243551   1.711   4.747   6.482  1.3852 -0.2046 -0.2080
14536TIP3   OH243552   2.333   0.324   3.852 -0.2694 -0.1001 -0.5837
14536TIP3    H143553   2.338   0.230   3.869 -0.6745 -0.1126 -0.5423
14536TIP3    H243554   2.253   0.335   3.800 -1.6950  0.5599  1.6405
14537TIP3   OH243555   7.810   5.938   2.425  0.7191  0.2018  0.4672
14537TIP3    H143556   7.904   5.956   2.426  1.1350 -1.7522  0.4183
14537TIP3    H243557   7.783   5.955   2.335  0.9954  0.8567  0.5024
14538TIP3   OH243558   4.301   6.740   0.812  0.2584  0.1414  0.7180
14538TIP3    H143559   4.237   6.703   0.873 -2.7284  1.7090 -1.2319
14538TIP3    H243560   4.301   6.679   0.738 -2.0044  1.9870 -0.9398
14539TIP3   OH243561   3.974   4.989   0.145 -0.1300  0.3270  0.2363
14539TIP3    H143562   4.006   5.053   0.081 -1.9500  0.7208 -0.3584
14539TIP3    H243563   3.989   5.029   0.230  0.7228  0.5766 -0.0257
14540TIP3   OH243564   3.153   0.762   5.487  0.4290 -0.5857  0.0980
14540TIP3    H143565   3.124   0.853   5.492  2.3067  0.0684 -0.1332
14540TIP3    H243566   3.075   0.710   5.508 -0.6340  1.0711  0.3770
14541TIP3   OH243567   2.346   3.620   6.624  0.4246  0.2327 -0.5817
14541TIP3    H143568   2.279   3.610   6.557 -1.9333 -0.2100  1.6574
14541TIP3    H243569   2.346   3.714   6.645  0.6153  0.2531 -0.6679
14542TIP3   OH243570   1.459   3.517   4.459  0.0290  0.4402  0.5028
14542TIP3    H143571   1.408   3.475   4.389 -0.0644  0.9535  0.2617
14542TIP3    H243572   1.430   3.472   4.539  1.6084 -1.6004  0.0196
14543TIP3   OH243573   3.705   4.162   6.516 -0.2435 -0.1140 -0.1200
14543TIP3    H143574   3.700   4.234   6.580  1.4068  0.1525 -0.2410
14543TIP3    H243575   3.638   4.183   6.451 -1.2251  0.1767  0.9514
14544TIP3   OH243576   2.318   4.363   0.633  0.2381  0.1067 -0.3305
14544TIP3    H143577   2.397   4.416   0.639 -0.3373  0.8136  1.7599
14544TIP3    H243578   2.267   4.387   0.710 -2.3714  0.2362 -1.9774
14545TIP3   OH243579   1.738   2.800   1.096 -0.1789  0.6660 -0.4833
14545TIP3    H143580   1.729   2.804   1.000  1.2301  0.3756 -0.6505
14545TIP3    H243581   1.799   2.727   1.111 -2.3350 -1.0030  0.7950
14546TIP3   OH243582   5.576   5.580   2.091  0.7047 -0.6539  0.5453
14546TIP3    H143583   5.584   5.598   1.997 -1.9139 -0.6431  0.2646
14546TIP3    H243584   5.589   5.665   2.132  0.6741 -0.4271  0.1007
14547TIP3   OH243585   2.252   2.776   5.245  0.0466  0.1951 -0.4944
14547TIP3    H143586   2.158   2.794   5.239 -0.4450 -1.7972  0.3878
14547TIP3    H243587   2.273   2.730   5.164  0.0698 -0.0707 -0.3396
14548TIP3   OH243588   4.480   7.099   3.789  0.2022  0.3357 -0.3858
14548TIP3    H143589   4.550   7.152   3.828  0.7617 -0.3901 -0.3764
14548TIP3    H243590   4.450   7.043   3.861  0.2095  0.0421 -0.6087
14549TIP3   OH243591   0.655   1.196   6.176  0.0184  0.6224  0.0677
14549TIP3    H143592   0.713   1.239   6.240  2.5726  1.4466 -2.5701
14549TIP3    H243593   0.676   1.238   6.093 -1.1353 -2.2456 -1.8256
14550TIP3   OH243594   7.384   0.414   4.755  0.1537  0.1643 -0.2628
14550TIP3    H143595   7.365   0.418   4.661 -0.6606 -1.0412 -0.1795
14550TIP3    H243596   7.364   0.502   4.787 -0.3095  0.3770 -1.0874
14551TIP3   OH243597   5.583   0.241   1.418  0.5441  0.4978 -0.1313
14551TIP3    H143598   5.630   0.263   1.498  1.8504  0.4217 -0.8437
14551TIP3    H243599   5.629   0.164   1.384 -1.1181 -0.5851 -0.0349
14552TIP3   OH243600   6.078   4.433   3.384 -0.0858 -0.1099  0.6426
14552TIP3    H143601   6.049   4.345   3.410 -0.6540  0.0431  0.5527
14552TIP3    H243602   6.121   4.420   3.300  0.1164 -0.3456  0.7808
14553TIP3   OH243603   0.960   7.285   5.507 -0.1716  0.6393  0.3566
14553TIP3    H143604   1.001   7.344   5.444 -0.7350  0.4967 -0.1583
14553TIP3    H243605   0.928   7.343   5.576 -0.3595  0.9080  0.0548
14554TIP3   OH243606   0.977   5.405   0.969  0.4462  0.2231  0.2978
14554TIP3    H143607   0.929   5.464   1.026 -0.0221  0.1065  0.0332
14554TIP3    H243608   1.063   5.445   0.959 -0.1461  1.3413 -0.6047
14555TIP3   OH243609   6.592   2.146   1.873  0.4587  0.0215 -0.2171
14555TIP3    H143610   6.517   2.206   1.862 -1.0053 -1.6268  0.2497
14555TIP3    H243611   6.592   2.126   1.967  0.9069 -0.7182 -0.3739
14556TIP3   OH243612   4.996   3.554   2.999  0.4589  0.9126 -0.3181
14556TIP3    H143613   5.004   3.493   3.072 -0.5262 -0.1177 -1.0325
14556TIP3    H243614   4.911   3.596   3.012  1.0791  2.0481  0.0986
14557TIP3   OH243615   1.433   6.863   1.074 -0.0286 -0.0915  0.4094
14557TIP3    H143616   1.365   6.804   1.043 -0.9454  1.7734 -1.3795
14557TIP3    H243617   1.500   6.862   1.006  0.5855 -0.0709  0.9980
14558TIP3   OH243618   3.399   3.736   6.315  0.0369  0.0647  0.3940
14558TIP3    H143619   3.360   3.819   6.342  1.5324  1.1091 -0.4998
14558TIP3    H243620   3.432   3.752   6.226  1.0640 -1.2317  0.5028
14559TIP3   OH243621   3.171   4.561   0.064 -0.0811 -0.0694  0.0223
14559TIP3    H143622   3.191   4.611  -0.015  0.5727 -0.8019 -0.2817
14559TIP3    H243623   3.095   4.508   0.039 -1.6944  1.7533  0.7777
14560TIP3   OH243624   3.183   4.224   6.071  0.0925 -0.2032 -0.5375
14560TIP3    H143625   3.128   4.269   6.007 -1.2974 -2.6482 -1.1966
14560TIP3    H243626   3.209   4.143   6.028  0.3807 -1.2389  1.4575
14561TIP3   OH243627   3.751   1.664   6.525  0.0229  0.3891  0.3879
14561TIP3    H143628   3.807   1.593   6.495  0.0953  0.3221  0.6814
14561TIP3    H243629   3.718   1.704   6.445  0.2761  0.2585  0.2191
14562TIP3   OH243630   5.549   0.353   5.986  0.0781 -0.2082 -0.2474
14562TIP3    H143631   5.558   0.277   5.929 -0.1902  0.6621 -1.4849
14562TIP3    H243632   5.636   0.366   6.024  0.2664 -0.7768 -0.4869
14563TIP3   OH243633   5.653   4.731   3.496 -0.0148 -1.0511  0.0573
14563TIP3    H143634   5.632   4.683   3.577 -2.8383 -2.3969 -1.3155
14563TIP3    H243635   5.726   4.683   3.458 -0.2000 -1.8644  0.6775
14564TIP3   OH243636   5.357   6.385   4.088  0.0664  0.1457 -0.5527
14564TIP3    H143637   5.318   6.341   4.013  0.1519 -1.6523  0.4190
14564TIP3    H243638   5.282   6.422   4.135 -0.2062 -0.6676 -0.3310
14565TIP3   OH243639   0.870   2.827   2.967  0.4473 -0.1742  0.0621
14565TIP3    H143640   0.842   2.918   2.967 -1.2763 -0.6553  0.2577
14565TIP3    H243641   0.906   2.812   3.054 -1.0766 -0.1529  0.7310
14566TIP3   OH243642   3.460   5.899   1.960 -0.3632  0.2300 -0.1486
14566TIP3    H143643   3.549   5.890   1.928 -0.5524 -0.7250 -0.4354
14566TIP3    H243644   3.455   5.836   2.032 -1.2553 -0.8760 -1.1385
14567TIP3   OH243645   7.906   2.273   3.329 -0.8174 -0.3489 -0.2067
14567TIP3    H143646   7.966   2.205   3.357  1.4513  1.1761 -1.1030
14567TIP3    H243647   7.865   2.237   3.249  0.7955 -0.4667 -1.0120
14568TIP3   OH243648   0.209   1.023   4.619  0.3140  0.0233  0.1087
14568TIP3    H143649   0.133   0.983   4.575  0.6184  0.1073 -0.4968
14568TIP3    H243650   0.276   1.029   4.551  1.0102 -0.4291  0.7372
14569TIP3   OH243651   7.919   6.038   2.682 -0.1053 -0.3811  0.3553
14569TIP3    H143652   7.884   6.017   2.595 -2.2160  1.6371  0.6116
14569TIP3    H243653   7.845   6.022   2.741 -0.3012  2.7697  1.1169
14570TIP3   OH243654   8.136   6.627   0.248  0.2271 -0.4010 -0.2576
14570TIP3    H143655   8.066   6.647   0.185  0.0978  0.5862  0.1799
14570TIP3    H243656   8.215   6.621   0.195  0.1219  0.4503 -0.5263
14571TIP3   OH243657   6.363   4.459   0.831  0.0749 -0.0045 -0.0638
14571TIP3    H143658   6.373   4.549   0.800  2.0815 -0.0351  0.4034
14571TIP3    H243659   6.406   4.405   0.764 -1.9799 -0.7652 -0.8618
14572TIP3   OH243660   2.103   6.188   4.590 -0.5415 -0.3129 -0.2228
14572TIP3    H143661   2.009   6.206   4.595 -0.3700  0.4042  0.8822
14572TIP3    H243662   2.125   6.154   4.677  0.9860  3.6404  1.1765
14573TIP3   OH243663   7.676   2.762   5.442  0.2202 -0.2121 -0.4796
14573TIP3    H143664   7.753   2.776   5.498  0.4723 -0.3400 -0.7901
14573TIP3    H243665   7.694   2.815   5.364 -0.1159 -0.0559 -0.4511
14574TIP3   OH243666   2.421   7.514   5.072  0.7179  0.4271  0.6085
14574TIP3    H143667   2.494   7.472   5.026  0.0025 -0.0377 -0.1356
14574TIP3    H243668   2.396   7.451   5.140  1.5158  0.9387  1.3948
14575TIP3   OH243669   6.411   4.714   0.732 -0.2067  0.1210  0.4499
14575TIP3    H143670   6.368   4.749   0.654  0.5584 -2.0067 -1.0253
14575TIP3    H243671   6.440   4.792   0.781 -1.7396  1.5208 -0.7507
14576TIP3   OH243672   7.509   2.657   4.544 -0.3294  0.0567 -0.1477
14576TIP3    H143673   7.428   2.625   4.583  0.4909 -0.5948  1.1104
14576TIP3    H243674   7.521   2.605   4.465 -1.0504  0.0449 -0.2492
14577TIP3   OH243675   1.138   6.165   2.938 -0.1245  0.4753 -0.3135
14577TIP3    H143676   1.151   6.087   2.884  0.2150  0.2126  0.1438
14577TIP3    H243677   1.073   6.139   3.003 -0.4647  0.7640 -0.5319
14578TIP3   OH243678   6.745   6.213   2.952  0.8969 -0.1567  0.0687
14578TIP3    H143679   6.735   6.185   2.861 -1.3213  1.1580 -0.1602
14578TIP3    H243680   6.701   6.145   3.003 -0.8494  0.7192 -0.1716
14579TIP3   OH243681   2.104   0.036   1.545 -0.0208  0.0224 -0.1156
14579TIP3    H143682   2.045   0.043   1.470  0.7614 -1.0032 -0.8690
14579TIP3    H243683   2.075  -0.043   1.591  0.0796  0.1284  0.1312
14580TIP3   OH243684   8.327   1.755   5.871  0.5173  0.1166  0.4562
14580TIP3    H143685   8.342   1.719   5.783  0.8997  0.3226  0.4355
14580TIP3    H243686   8.234   1.780   5.871  0.7727  1.1409 -0.2749
14581TIP3   OH243687   6.728   7.264   1.351  0.2992  0.7509 -0.4245
14581TIP3    H143688   6.730   7.328   1.280 -1.0411  0.7578 -0.4676
14581TIP3    H243689   6.652   7.210   1.333  1.8359 -1.4161 -0.8365
14582TIP3   OH243690   6.325   0.600   6.145 -0.3743  0.2710  0.6899
14582TIP3    H143691   6.380   0.676   6.128 -1.5809  1.3122  1.2656
14582TIP3    H243692   6.347   0.538   6.075  0.1192  1.4407 -0.2233
14583TIP3   OH243693   4.357   3.462   2.148 -0.1574 -0.0691  0.5116
14583TIP3    H143694   4.375   3.381   2.194 -1.4550 -0.0946  1.0300
14583TIP3    H243695   4.356   3.438   2.056  2.0373 -0.1015  0.4457
14584TIP3   OH243696   7.414   5.215   0.157 -0.3669 -0.0855 -0.2317
14584TIP3    H143697   7.336   5.177   0.196  0.5361 -0.4577  1.2814
14584TIP3    H243698   7.483   5.200   0.222  1.0350 -0.0577 -1.6591
14585TIP3   OH243699   0.870   1.016   3.358  0.3976  0.0514 -0.3046
14585TIP3    H143700   0.841   1.064   3.436 -1.1523 -0.5261 -0.4985
14585TIP3    H243701   0.849   1.074   3.285  1.1128  0.2507 -0.3601
14586TIP3   OH243702   3.545   1.159   0.212 -0.1825  0.3630  0.4219
14586TIP3    H143703   3.468   1.171   0.157 -1.1103 -0.5528  1.4711
14586TIP3    H243704   3.612   1.125   0.153 -1.1190 -0.4895 -0.1770
14587TIP3   OH243705   7.828   2.030   4.066  0.4832  0.1135  0.1557
14587TIP3    H143706   7.890   1.968   4.105  1.8458 -0.2404 -2.3610
14587TIP3    H243707   7.771   1.976   4.012  0.8886  0.8806 -1.0816
14588TIP3   OH243708   4.587   5.422   3.647 -0.3814 -0.0237  0.1888
14588TIP3    H143709   4.593   5.332   3.616 -0.2024 -0.1259  0.5164
14588TIP3    H243710   4.530   5.417   3.724 -1.3248  0.3182 -0.4665
14589TIP3   OH243711   4.831   5.828   0.808  0.3875  0.1036 -0.6570
14589TIP3    H143712   4.772   5.880   0.864  0.2045  0.7800 -1.4569
14589TIP3    H243713   4.865   5.760   0.866  0.9915  1.3962  0.5574
14590TIP3   OH243714   2.224   3.280   6.415  0.3436 -0.4717  0.2614
14590TIP3    H143715   2.205   3.341   6.344  0.2157 -0.7647  0.0460
14590TIP3    H243716   2.316   3.297   6.436  0.9005 -1.5822 -1.1434
14591TIP3   OH243717   5.814   7.388   0.309  0.6366 -1.1378  0.2982
14591TIP3    H143718   5.892   7.424   0.268 -0.8480  1.9265 -0.1351
14591TIP3    H243719   5.832   7.390   0.402  1.0992 -0.5001  0.1965
14592TIP3   OH243720   7.546   7.730   1.175  0.3804 -0.0420 -0.5474
14592TIP3    H143721   7.496   7.741   1.256  0.2188 -0.9249 -0.5155
14592TIP3    H243722   7.509   7.795   1.116  1.1662  1.3068  0.3783
14593TIP3   OH243723   4.038   3.820   6.645  0.3009 -0.3348  0.0803
14593TIP3    H143724   4.049   3.782   6.732  1.1776 -2.1643 -0.7701
14593TIP3    H243725   3.979   3.894   6.659  2.5372  1.1622  2.6610
14594TIP3   OH243726   3.061   1.005   0.243 -0.2473 -0.1915 -0.2199
14594TIP3    H143727   2.986   0.959   0.281 -2.6683  2.5754 -1.2433
14594TIP3    H243728   3.052   0.993   0.149  0.9304 -0.2293 -0.3435
14595TIP3   OH243729   2.446   3.668   5.773  0.1593  0.2744  0.4543
14595TIP3    H143730   2.478   3.713   5.695  0.9376 -1.9426 -0.5971
14595TIP3    H243731   2.513   3.684   5.839 -1.3794  3.7365  1.4080
14596TIP3   OH243732   1.706   6.451   2.734 -0.2234  0.1299 -0.1873
14596TIP3    H143733   1.755   6.464   2.653 -1.1737 -1.3764 -1.0419
14596TIP3    H243734   1.674   6.361   2.729 -1.5882  0.5019  1.1602
14597TIP3   OH243735   7.461   0.001   2.801  0.3277  0.2493  0.0377
14597TIP3    H143736   7.418  -0.017   2.717  0.9717 -1.5235  0.0520
14597TIP3    H243737   7.542   0.046   2.777  0.2852  0.1650 -0.2689
14598TIP3   OH243738   2.791   2.379   5.143  0.4812 -0.0480 -0.0053
14598TIP3    H143739   2.829   2.463   5.116  1.2891 -0.3129  0.2974
14598TIP3    H243740   2.748   2.347   5.064  0.0030  0.7330 -0.0774
14599TIP3   OH243741   3.728   4.181   2.838 -0.1638  0.7536 -0.1037
14599TIP3    H143742   3.784   4.180   2.760  0.1385  2.7403  0.0173
14599TIP3    H243743   3.656   4.239   2.814 -0.8211  0.2474  0.6281
14600TIP3   OH243744   6.164   5.121   0.407  0.4895  1.0714 -0.9042
14600TIP3    H143745   6.232   5.084   0.350  2.1388  2.8720 -0.1852
14600TIP3    H243746   6.210   5.149   0.485 -1.3933  0.7525  0.4026
14601TIP3   OH243747   3.716   0.180   4.188 -0.3059 -0.7230 -0.1003
14601TIP3    H143748   3.731   0.266   4.149  0.2010 -0.7329  0.0661
14601TIP3    H243749   3.622   0.166   4.178 -0.5717  0.2862  0.7551
14602TIP3   OH243750   7.709   0.161   5.200  0.0540 -0.2853  0.3783
14602TIP3    H143751   7.647   0.174   5.272 -2.5259 -1.1611 -1.5133
14602TIP3    H243752   7.722   0.067   5.197  1.1668 -0.1408  0.4686
14603TIP3   OH243753   3.714   1.886   0.426 -0.0421 -0.2395 -0.2197
14603TIP3    H143754   3.717   1.850   0.337  0.0643 -1.6560  0.3325
14603TIP3    H243755   3.621   1.884   0.450 -0.0358 -0.1291 -0.1845
14604TIP3   OH243756   5.601   5.226   6.297  0.0220  0.0808 -0.5385
14604TIP3    H143757   5.657   5.274   6.359 -0.2949 -0.7267  0.3948
14604TIP3    H243758   5.537   5.291   6.268  1.0344  0.8474 -1.1272
14605TIP3   OH243759   3.451   4.228   5.709 -0.2685  0.0798 -0.3199
14605TIP3    H143760   3.421   4.275   5.787 -1.4077  0.4932 -0.9756
14605TIP3    H243761   3.458   4.295   5.641  1.0519 -0.2179 -0.5015
14606TIP3   OH243762   7.231   3.610   2.500  0.5104  0.1368  0.1075
14606TIP3    H143763   7.291   3.564   2.441  0.5163  1.2340 -0.7736
14606TIP3    H243764   7.249   3.572   2.586  0.6104 -1.3814 -0.5611
14607TIP3   OH243765   4.790   6.325   4.545  0.5666 -0.7769  0.0577
14607TIP3    H143766   4.757   6.377   4.471  1.5094  1.2509  0.9651
14607TIP3    H243767   4.818   6.242   4.506 -1.4290 -0.8389 -1.4052
14608TIP3   OH243768   6.170   5.004   2.718  0.3831 -0.1918  0.3072
14608TIP3    H143769   6.133   4.957   2.792  1.6977  0.5122  1.4529
14608TIP3    H243770   6.131   5.091   2.722 -1.3844 -0.8347 -1.2999
14609TIP3   OH243771   2.458   7.296   0.458  0.2759 -0.0154 -0.6326
14609TIP3    H143772   2.468   7.326   0.548  0.2946  0.5670 -0.8237
14609TIP3    H243773   2.543   7.256   0.436  0.8328  1.2719 -0.9113
14610TIP3   OH243774   4.892   5.825   2.809  0.1299  0.1408 -0.2344
14610TIP3    H143775   4.912   5.803   2.900  0.0597  2.1742  0.3138
14610TIP3    H243776   4.898   5.741   2.763  0.0929 -0.9590  1.6353
14611TIP3   OH243777   0.840   7.703   5.295 -0.0294  0.3247 -0.0301
14611TIP3    H143778   0.898   7.777   5.276 -0.6364  0.2444 -2.4422
14611TIP3    H243779   0.767   7.742   5.343  1.0480  0.7370  1.3680
14612TIP3   OH243780   7.254   2.381   4.357  0.3848 -0.1158 -0.1419
14612TIP3    H143781   7.306   2.432   4.296 -0.6561  0.5513 -0.4971
14612TIP3    H243782   7.164   2.408   4.340 -0.1573 -1.7843 -0.0651
14613TIP3   OH243783   1.278   2.385   5.090  0.1309 -0.1845 -0.5049
14613TIP3    H143784   1.272   2.367   5.184  1.8085  0.7379 -0.1821
14613TIP3    H243785   1.283   2.480   5.085  0.2455 -0.2410 -1.5195
14614TIP3   OH243786   5.860   2.847   1.751  0.3378 -0.2339 -0.1740
14614TIP3    H143787   5.860   2.763   1.797  1.8665 -0.4344 -0.4844
14614TIP3    H243788   5.825   2.909   1.814  1.3516 -0.7029  0.8912
14615TIP3   OH243789   6.837   4.892  -0.004  0.2848  0.3012 -0.1698
14615TIP3    H143790   6.878   4.887   0.082  1.5400 -4.3210 -0.8115
14615TIP3    H243791   6.744   4.897   0.014  0.4723 -1.3678  1.5342
14616TIP3   OH243792   0.670   4.511   2.405  0.2140 -0.5700 -1.2925
14616TIP3    H143793   0.762   4.536   2.417  0.0378 -0.7276  0.5970
14616TIP3    H243794   0.627   4.591   2.375  0.3843  0.4135  0.9417
14617TIP3   OH243795   3.372   3.242   2.750 -0.3090  0.2520  0.1428
14617TIP3    H143796   3.349   3.150   2.738 -0.9318  0.3329  0.6864
14617TIP3    H243797   3.447   3.255   2.692 -0.1973 -0.6019  0.0773
14618TIP3   OH243798   1.606   3.739   2.706 -0.2259 -0.5119 -0.1801
14618TIP3    H143799   1.538   3.806   2.719 -0.7101 -1.1883  1.0331
14618TIP3    H243800   1.639   3.754   2.618 -2.8963 -0.9790 -1.3478
14619TIP3   OH243801   3.910   1.312   6.558 -0.0386  0.3011 -0.1272
14619TIP3    H143802   3.957   1.383   6.513 -0.4012  0.9076  0.4334
14619TIP3    H243803   3.961   1.233   6.538 -0.3291  0.5047 -1.8043
14620TIP3   OH243804   5.238   6.020   4.760  0.5151 -0.1820 -0.0487
14620TIP3    H143805   5.272   6.086   4.820  2.7945 -1.9221  0.7167
14620TIP3    H243806   5.145   6.041   4.751  0.4837  1.1959  2.6815
14621TIP3   OH243807   4.273   2.355   2.597  0.1129  0.0564  0.1537
14621TIP3    H143808   4.345   2.387   2.542  0.2010  0.1429  0.3183
14621TIP3    H243809   4.301   2.268   2.624  0.3365  0.2496  0.5450
14622TIP3   OH243810   4.510   5.396   1.162  0.3512 -0.1420  0.4518
14622TIP3    H143811   4.458   5.437   1.231 -1.1990 -1.2057 -0.0292
14622TIP3    H243812   4.503   5.457   1.088  0.0246 -0.1398  0.4826
14623TIP3   OH243813   1.777   0.958   6.599  0.3898  0.8868  0.0668
14623TIP3    H143814   1.735   1.028   6.650  1.5099  2.1621 -0.6776
14623TIP3    H243815   1.868   0.985   6.593  1.1698 -1.3641  0.8964
14624TIP3   OH243816   6.080   6.189   0.054 -0.3004  0.8682 -0.2631
14624TIP3    H143817   5.987   6.203   0.070 -0.3356  0.7787 -0.3927
14624TIP3    H243818   6.092   6.095   0.066  0.2536  1.1946  2.3347
14625TIP3   OH243819   3.160   5.063   2.395 -0.2621 -0.3271  0.1183
14625TIP3    H143820   3.140   5.130   2.330 -0.9791 -1.0143 -0.3909
14625TIP3    H243821   3.196   4.990   2.343 -0.9035 -0.9062  0.4758
14626TIP3   OH243822   0.606   4.880   1.345 -1.0315  0.0110 -0.4807
14626TIP3    H143823   0.685   4.851   1.390 -0.9295  0.4719 -0.3530
14626TIP3    H243824   0.565   4.800   1.311 -1.3947 -0.3994  0.8851
14627TIP3   OH243825   7.569   1.641   1.503  0.2264  0.4694 -0.1123
14627TIP3    H143826   7.504   1.570   1.506 -0.7612  1.3604 -0.0626
14627TIP3    H243827   7.525   1.715   1.544  1.9847  0.5560  1.7530
14628TIP3   OH243828   0.961   1.416   0.478  0.6970  1.1118  0.4297
14628TIP3    H143829   0.871   1.407   0.446 -0.5438  2.0132  3.3577
14628TIP3    H243830   1.000   1.330   0.462 -0.7562  0.6083 -0.6513
14629TIP3   OH243831   7.554   7.206   5.285 -0.2246 -0.0104 -0.3137
14629TIP3    H143832   7.640   7.199   5.243 -0.4437 -1.5571 -0.5855
14629TIP3    H243833   7.521   7.291   5.258  1.1876  0.5908 -0.2655
14630TIP3   OH243834   5.299   2.141   1.252  0.2524  0.2614 -0.3371
14630TIP3    H143835   5.322   2.072   1.314 -0.8939 -0.1429 -0.3417
14630TIP3    H243836   5.220   2.181   1.289 -0.2953  0.1923 -1.3937
14631TIP3   OH243837   3.887   2.365   6.473  0.2143  0.2301 -0.4558
14631TIP3    H143838   3.907   2.451   6.438  0.5462  0.2672 -0.1855
14631TIP3    H243839   3.791   2.360   6.474  0.1879  0.8275  0.0956
14632TIP3   OH243840   6.116   1.945   3.087  0.1904  0.2711 -0.9425
14632TIP3    H143841   6.161   1.997   3.153 -0.2376  0.0929 -0.5023
14632TIP3    H243842   6.100   1.861   3.129 -1.5981  0.7225 -0.6618
14633TIP3   OH243843   6.670   0.714   2.335  0.4491 -0.0017  0.0369
14633TIP3    H143844   6.642   0.804   2.349  1.6580  0.1024  2.3461
14633TIP3    H243845   6.759   0.710   2.372  0.3641 -2.1569  0.1631
14634TIP3   OH243846   3.478   4.068   4.589  0.8094 -0.5607  0.4741
14634TIP3    H143847   3.534   4.136   4.552  0.1325  0.2333  0.8849
14634TIP3    H243848   3.446   4.020   4.513 -1.3153  1.6225 -0.1461
14635TIP3   OH243849   4.043   6.852   1.606 -0.0178  0.2980 -0.0232
14635TIP3    H143850   4.072   6.828   1.694 -0.0087 -0.2563 -0.1717
14635TIP3    H243851   4.107   6.811   1.548  0.2558  1.0710 -0.2774
14636TIP3   OH243852   0.292   0.324   5.229 -0.2200 -0.1742 -0.0477
14636TIP3    H143853   0.331   0.314   5.142 -1.5185 -1.3771 -0.5435
14636TIP3    H243854   0.231   0.251   5.236 -1.6575  1.0713  1.0683
14637TIP3   OH243855   0.232   0.374   3.034  0.0757  0.7973 -0.1886
14637TIP3    H143856   0.312   0.346   3.080  0.0481  0.6945 -0.2024
14637TIP3    H243857   0.237   0.331   2.949 -0.9344 -0.7852  0.5025
14638TIP3   OH243858   0.880   4.848   5.881  0.1672 -0.5911 -0.1319
14638TIP3    H143859   0.901   4.754   5.874 -0.0379 -0.6014 -0.7051
14638TIP3    H243860   0.892   4.881   5.792  0.5820  0.0021  0.1436
14639TIP3   OH243861   1.456   4.878   6.277 -0.5135  0.4494  0.2569
14639TIP3    H143862   1.504   4.810   6.323  0.5655  2.0267  1.5708
14639TIP3    H243863   1.524   4.938   6.245 -1.1715 -0.6018 -3.5881
14640TIP3   OH243864   6.281   3.234   0.873 -0.2475  0.0567 -0.3796
14640TIP3    H143865   6.216   3.304   0.863  0.1733  0.5008 -0.0901
14640TIP3    H243866   6.287   3.195   0.786 -0.1985  0.6508 -0.6511
14641TIP3   OH243867   4.732   1.628   6.654  0.2672  0.5262 -0.3272
14641TIP3    H143868   4.821   1.593   6.662 -0.5087 -1.3176  0.7651
14641TIP3    H243869   4.720   1.639   6.559  1.2077 -0.4734 -0.5880
14642TIP3   OH243870   5.696   5.106   4.328  0.0102  0.0350 -0.0012
14642TIP3    H143871   5.763   5.052   4.287 -0.6567 -1.3921  0.6959
14642TIP3    H243872   5.723   5.112   4.420 -0.2911  0.2994  0.0728
14643TIP3   OH243873   1.284   5.600   6.101 -0.2663  0.2300 -0.0180
14643TIP3    H143874   1.319   5.585   6.189 -0.2335 -2.1229 -0.3627
14643TIP3    H243875   1.204   5.649   6.116 -0.5250 -0.5393  1.3992
14644TIP3   OH243876   1.691   0.883   0.738  0.8394 -0.5623 -0.1775
14644TIP3    H143877   1.706   0.833   0.819  0.2551  0.1139  0.3596
14644TIP3    H243878   1.624   0.832   0.692  0.7454 -0.6401  0.0413
14645TIP3   OH243879   2.560   0.401   2.700  0.0668  0.2401 -0.3046
14645TIP3    H143880   2.528   0.395   2.790 -0.7526  0.4708 -0.5779
14645TIP3    H243881   2.562   0.495   2.682  1.7629  0.3093  0.0011
14646TIP3   OH243882   2.984   5.060   6.401  0.2305  0.4908 -0.2825
14646TIP3    H143883   3.024   5.144   6.425 -0.2660 -0.0788  2.9534
14646TIP3    H243884   3.058   5.006   6.372  1.2686  0.7763  1.6341
14647TIP3   OH243885   2.147   5.552   6.713 -0.4350  0.0854 -0.1538
14647TIP3    H143886   2.073   5.566   6.772 -1.2798  1.2255 -1.4328
14647TIP3    H243887   2.141   5.459   6.690  0.1034 -0.4689  1.7524
14648TIP3   OH243888   0.064   0.813   3.342  0.4780  0.1366 -0.7430
14648TIP3    H143889   0.067   0.717   3.348 -1.2008  0.1286  0.5007
14648TIP3    H243890   0.106   0.843   3.423 -0.6456  0.4104 -0.2493
14649TIP3   OH243891   6.093   2.760   6.533 -0.1325 -0.1889 -0.6131
14649TIP3    H143892   6.029   2.692   6.513 -0.5896 -0.0825  0.4436
14649TIP3    H243893   6.041   2.841   6.538  0.1643 -0.0130 -0.3100
14650TIP3   OH243894   4.177   1.705   0.918 -0.3084 -0.6757  0.0106
14650TIP3    H143895   4.156   1.634   0.857 -0.5036 -0.9255  0.3609
14650TIP3    H243896   4.237   1.664   0.981  2.5666  0.3905 -1.8197
14651TIP3   OH243897   1.949   2.113   4.681  0.3131  0.2471 -0.0717
14651TIP3    H143898   2.033   2.076   4.653  0.1815  0.6795 -1.0815
14651TIP3    H243899   1.963   2.136   4.773  1.0162 -0.5018  0.0174
14652TIP3   OH243900   5.897   2.306   4.902  0.6123  0.0882  0.0046
14652TIP3    H143901   5.982   2.349   4.896  0.6841 -0.0386  0.0924
14652TIP3    H243902   5.883   2.268   4.815 -0.9514  3.0348 -1.1546
14653TIP3   OH243903   2.016   3.227   5.973  0.3115  0.0353 -0.1650
14653TIP3    H143904   2.061   3.305   5.940  1.7432 -0.6342  0.1425
14653TIP3    H243905   1.924   3.254   5.980  0.9746  2.1602  1.3098
14654TIP3   OH243906   0.625   7.850   4.722 -0.1022  0.1389  0.1356
14654TIP3    H143907   0.673   7.771   4.697  0.2576  0.4929 -0.3141
14654TIP3    H243908   0.533   7.825   4.714 -0.0210 -0.7368  1.6254
14655TIP3   OH243909   3.023   4.482   5.327  0.3866 -0.2763 -0.2195
14655TIP3    H143910   3.022   4.578   5.324  1.1692 -0.2270  0.6068
14655TIP3    H243911   2.974   4.455   5.250 -1.4347  0.7888  0.5204
14656TIP3   OH243912   2.954   0.144   1.734  0.0855  0.5686  0.8902
14656TIP3    H143913   2.975   0.058   1.770 -0.0035  0.3364  0.3967
14656TIP3    H243914   2.934   0.198   1.810  1.1378  0.4292  1.2740
14657TIP3   OH243915   6.000   5.612   6.449  0.0618 -0.0039  0.0490
14657TIP3    H143916   5.925   5.662   6.419 -1.0548 -1.8837 -0.4940
14657TIP3    H243917   5.981   5.591   6.540 -0.6628 -1.3830 -0.3793
14658TIP3   OH243918   8.114   5.211   1.049  0.4785  0.3146  0.0247
14658TIP3    H143919   8.052   5.163   0.993 -0.0191 -1.4778  1.9989
14658TIP3    H243920   8.200   5.192   1.011  0.2581 -1.8669  0.4550
14659TIP3   OH243921   3.990   0.323   5.456 -0.2208 -0.0571 -0.0789
14659TIP3    H143922   3.984   0.254   5.389 -1.7995  1.0755 -1.1970
14659TIP3    H243923   3.927   0.296   5.523 -2.0021  0.9817 -1.2544
14660TIP3   OH243924   0.480   4.139   0.850  0.7712 -0.2645  0.0345
14660TIP3    H143925   0.415   4.171   0.912 -0.4509 -0.6112 -1.0408
14660TIP3    H243926   0.514   4.059   0.890 -1.0702 -1.3057 -0.3814
14661TIP3   OH243927   0.530   5.022   6.173 -0.3548 -0.3677  0.1552
14661TIP3    H143928   0.590   4.967   6.224  1.4963  1.5235  0.1223
14661TIP3    H243929   0.505   5.092   6.233 -3.1458 -1.4137  0.3837
14662TIP3   OH243930   4.727   5.263   3.090 -0.1577  0.8047 -0.0191
14662TIP3    H143931   4.808   5.280   3.138  0.5765 -0.3000 -0.8264
14662TIP3    H243932   4.709   5.344   3.043 -0.5578  1.6953  1.5999
14663TIP3   OH243933   5.775   4.304   3.093 -0.4325 -0.6397  0.7057
14663TIP3    H143934   5.682   4.285   3.083 -0.7299  0.4476  1.2475
14663TIP3    H243935   5.779   4.369   3.163  0.6146  0.3343 -0.2229
14664TIP3   OH243936   6.691   0.888   0.831 -0.1836  0.3411  0.0466
14664TIP3    H143937   6.775   0.870   0.789 -0.3210  2.1538 -1.1494
14664TIP3    H243938   6.713   0.904   0.922  0.6590 -0.0354 -0.0805
14665TIP3   OH243939   3.851   5.161   6.650  0.3666 -0.0380  0.6387
14665TIP3    H143940   3.839   5.225   6.580 -0.9369  0.8636  1.6716
14665TIP3    H243941   3.795   5.088   6.625 -2.9396  1.6956  2.3950
14666TIP3   OH243942   5.061   4.958   0.317 -0.3424  0.0062  0.1319
14666TIP3    H143943   5.083   4.878   0.269 -0.4746 -1.5389  2.4735
14666TIP3    H243944   5.145   4.987   0.354 -0.7524 -0.8557  1.8165
14667TIP3   OH243945   7.880   7.024   1.555 -0.3752 -0.2659 -0.3200
14667TIP3    H143946   7.893   6.949   1.613 -1.9726 -0.0400  0.4085
14667TIP3    H243947   7.954   7.081   1.572  1.1376 -1.8497 -1.2449
14668TIP3   OH243948   1.648   2.028   0.153  0.3026  0.2473  0.4075
14668TIP3    H143949   1.595   1.954   0.122  0.4163  0.9611 -1.6465
14668TIP3    H243950   1.583   2.096   0.171  0.2577 -0.0884  1.5905
14669TIP3   OH243951   7.730   0.190   1.997 -0.1454 -0.0629 -0.1283
14669TIP3    H143952   7.815   0.163   1.962 -0.4649 -1.6943  0.2722
14669TIP3    H243953   7.697   0.254   1.934  1.8118  1.3842  0.2349
14670TIP3   OH243954   3.829   4.764   6.220  0.4347 -0.3371  0.0328
14670TIP3    H143955   3.917   4.758   6.257  0.5566 -1.0267 -0.3614
14670TIP3    H243956   3.817   4.683   6.171  0.5968  0.8743 -2.1381
14671TIP3   OH243957   7.663   7.167   1.614  0.3854 -0.4923  0.3043
14671TIP3    H143958   7.600   7.156   1.543  1.0547 -0.6900 -0.2799
14671TIP3    H243959   7.736   7.110   1.590  0.5919 -0.6231  1.1983
14672TIP3   OH243960   6.766   1.328   6.551  0.1668  0.8841 -0.2864
14672TIP3    H143961   6.726   1.246   6.525  0.3789  0.3072  1.0969
14672TIP3    H243962   6.855   1.323   6.518 -0.0965  0.9778 -1.0198
14673TIP3   OH243963   2.811   0.622   2.749  0.1788 -0.0256  0.5120
14673TIP3    H143964   2.868   0.555   2.711  0.8723  0.1176  1.2650
14673TIP3    H243965   2.807   0.599   2.842  1.5018  1.7169  1.0393
14674TIP3   OH243966   2.542   3.205   2.656 -0.1065 -0.2843  0.1578
14674TIP3    H143967   2.541   3.257   2.736 -0.1589  1.3603 -0.8585
14674TIP3    H243968   2.632   3.171   2.650 -0.9495 -3.4148  2.6581
14675TIP3   OH243969   5.409   6.417   4.633 -0.0313  0.0041 -0.2238
14675TIP3    H143970   5.453   6.501   4.624  0.1741 -0.0985 -0.1721
14675TIP3    H243971   5.457   6.371   4.702 -0.0554 -0.2124 -0.3501
14676TIP3   OH243972   6.219   4.438   3.088  0.4239  0.6749  0.3709
14676TIP3    H143973   6.258   4.391   3.015 -0.2258  1.7385 -0.6977
14676TIP3    H243974   6.223   4.530   3.063 -1.9153  0.9035  0.5929
14677TIP3   OH243975   5.535   7.679   2.352  0.4337  0.1704 -0.1203
14677TIP3    H143976   5.515   7.768   2.381 -0.5824 -0.2104  0.4159
14677TIP3    H243977   5.486   7.623   2.412  2.0493 -0.8100  0.3621
14678TIP3   OH243978   3.802   0.476   1.470 -0.0337 -0.5014  0.1449
14678TIP3    H143979   3.832   0.564   1.493 -1.0647  0.6706 -2.5661
14678TIP3    H243980   3.711   0.474   1.498  0.0797 -0.8384  0.4941
14679TIP3   OH243981   6.638   0.222   0.771 -0.0324  0.4553 -0.3126
14679TIP3    H143982   6.732   0.234   0.761 -0.3493  1.8777 -2.0566
14679TIP3    H243983   6.612   0.283   0.839  0.2993  0.0355  0.1935
14680TIP3   OH243984   1.257   6.030   3.585 -0.6100 -0.0127  0.9468
14680TIP3    H143985   1.318   5.957   3.599  0.1750 -0.2522 -2.7194
14680TIP3    H243986   1.299   6.105   3.627  0.0777 -1.0347  2.1474
14681TIP3   OH243987   5.239   7.242   5.805 -0.2937 -0.0140 -0.3810
14681TIP3    H143988   5.275   7.190   5.877  1.4236  1.4021 -0.1448
14681TIP3    H243989   5.215   7.326   5.845  0.9828  0.9091 -1.4652
14682TIP3   OH243990   1.889   5.818   5.273  0.0566  0.5948  0.3461
14682TIP3    H143991   1.879   5.729   5.308  0.9779  0.6801  0.8690
14682TIP3    H243992   1.809   5.834   5.224 -0.0660 -0.5772  0.1361
14683TIP3   OH243993   5.163   3.565   1.594  0.1956  0.1228 -0.0026
14683TIP3    H143994   5.164   3.504   1.668 -0.4432  1.3942  1.0820
14683TIP3    H243995   5.250   3.557   1.555  0.9247  0.2224  1.5526
14684TIP3   OH243996   4.709   5.499   5.878 -0.2827 -0.1893  0.0926
14684TIP3    H143997   4.777   5.533   5.936 -0.0015 -1.5099  0.5785
14684TIP3    H243998   4.717   5.551   5.797  0.7561  0.2033  0.4415
14685TIP3   OH243999   3.663   1.503   2.657 -0.9804 -0.0450  0.2087
14685TIP3    H144000   3.685   1.464   2.573 -0.6804 -1.2331  0.8243
14685TIP3    H244001   3.595   1.447   2.694 -1.5440  0.8091  0.5040
14686TIP3   OH244002   6.117   3.833   1.425 -0.0052 -0.5985 -0.1030
14686TIP3    H144003   6.151   3.854   1.512  0.6623  0.7708 -0.6604
14686TIP3    H244004   6.024   3.854   1.430 -0.0280 -0.7948  0.3613
14687TIP3   OH244005   7.383   6.014   0.571  0.3700 -0.1666  0.2016
14687TIP3    H144006   7.368   6.095   0.523 -1.4106  1.9576  3.9234
14687TIP3    H244007   7.317   5.953   0.536  0.2222  0.7205 -1.1307
14688TIP3   OH244008   4.492   1.355   6.572 -0.0600 -0.9199 -0.3074
14688TIP3    H144009   4.456   1.443   6.559  0.0742 -0.8368 -0.1204
14688TIP3    H244010   4.564   1.348   6.509 -1.2711 -1.5956 -1.6755
14689TIP3   OH244011   8.173   6.009   4.578  0.2402 -0.3566  0.1209
14689TIP3    H144012   8.213   6.093   4.598  0.7378 -0.4854 -0.3312
14689TIP3    H244013   8.210   5.948   4.642  0.4778 -0.3976 -0.0568
14690TIP3   OH244014   3.752   2.039   4.014 -0.3266 -0.3733 -0.7869
14690TIP3    H144015   3.725   2.014   3.926 -1.4813 -1.6930 -0.0881
14690TIP3    H244016   3.671   2.065   4.058  0.2329  0.2717 -0.0990
14691TIP3   OH244017   8.320   7.178   3.149  0.4376  0.0255 -0.1700
14691TIP3    H144018   8.290   7.090   3.123  1.3146  0.3571 -2.5678
14691TIP3    H244019   8.240   7.226   3.167 -0.1151 -0.9629  0.0779
14692TIP3   OH244020   7.448   6.410   1.840 -0.2483 -0.4199  0.1773
14692TIP3    H144021   7.457   6.467   1.917  1.5127  0.7389 -0.8178
14692TIP3    H244022   7.498   6.332   1.863  0.4781  0.0234  0.1604
14693TIP3   OH244023   6.234   0.640   5.468 -0.3525  0.0459  0.5202
14693TIP3    H144024   6.256   0.569   5.529 -0.7723  0.9484  1.7639
14693TIP3    H244025   6.275   0.718   5.506  0.4424  0.4286 -1.0379
14694TIP3   OH244026   5.089   5.189   2.018 -0.0861  0.1924  0.3082
14694TIP3    H144027   5.168   5.242   2.014 -0.2973  0.5146  0.4146
14694TIP3    H244028   5.099   5.137   2.098 -0.3319  0.7892  0.7320
14695TIP3   OH244029   0.599   0.742   3.613  0.1604 -0.1115  0.1435
14695TIP3    H144030   0.621   0.765   3.523  0.9128  1.4110  0.6860
14695TIP3    H244031   0.677   0.765   3.664  0.2755 -2.2150  1.0303
14696TIP3   OH244032   1.979   2.468   5.972  0.1996 -0.3466  0.5955
14696TIP3    H144033   1.964   2.547   6.023 -1.8183  0.1142 -0.5949
14696TIP3    H244034   1.963   2.396   6.033  1.4995  0.1233  1.5340
14697TIP3   OH244035   4.463   7.536   4.174 -0.0285  0.0300  0.5086
14697TIP3    H144036   4.551   7.539   4.212  0.7352 -0.2187 -1.1824
14697TIP3    H244037   4.425   7.456   4.211  0.3436  0.2541  1.4269
14698TIP3   OH244038   8.066   5.041   1.271 -0.2266 -0.1362 -0.1075
14698TIP3    H144039   8.074   5.081   1.184 -0.4644  0.5328  0.1670
14698TIP3    H244040   7.972   5.029   1.283 -0.2799  0.6870  0.4409
14699TIP3   OH244041   2.162   1.210   5.769 -0.1352  0.0607 -0.2601
14699TIP3    H144042   2.114   1.174   5.694  0.8237  2.0396 -1.9096
14699TIP3    H244043   2.250   1.227   5.735 -0.2228  2.8757  0.6545
14700TIP3   OH244044   8.275   0.295   3.591  0.2582  0.1391  0.4030
14700TIP3    H144045   8.300   0.333   3.507 -0.4670 -0.5998 -0.1655
14700TIP3    H244046   8.348   0.238   3.614  0.7391  0.8097  0.5994
14701TIP3   OH244047   5.304   2.261   2.922  0.5409 -0.3411  0.6072
14701TIP3    H144048   5.256   2.191   2.878  0.9887 -0.2089 -0.1101
14701TIP3    H244049   5.368   2.216   2.977 -0.2590 -0.5136  1.4034
14702TIP3   OH244050   8.055   7.156   0.721  0.1485 -0.8427 -0.3622
14702TIP3    H144051   8.055   7.075   0.670  1.1506 -0.2121 -1.4076
14702TIP3    H244052   7.989   7.211   0.679 -1.4271 -1.5331  1.1026
14703TIP3   OH244053   1.823   4.835   6.009  0.5366  0.0704  0.0296
14703TIP3    H144054   1.844   4.874   6.094  0.4079 -0.7364  0.4415
14703TIP3    H244055   1.890   4.869   5.950  0.9615  0.2065  0.5829
14704TIP3   OH244056   0.843   3.561   4.604 -0.0943 -0.0013 -0.4678
14704TIP3    H144057   0.901   3.493   4.639 -1.2223 -0.4329  0.6311
14704TIP3    H244058   0.885   3.644   4.628 -1.6958 -0.1871  3.7885
14705TIP3   OH244059   4.752   0.720   2.361  0.3359  0.0407  0.1238
14705TIP3    H144060   4.815   0.663   2.405  2.5555  1.6089 -0.8105
14705TIP3    H244061   4.677   0.723   2.420  1.8141 -0.6062  2.1545
14706TIP3   OH244062   3.480   0.526   2.115 -0.0930 -0.2186  0.1748
14706TIP3    H144063   3.439   0.459   2.061 -0.5179 -0.5174  0.8523
14706TIP3    H244064   3.553   0.481   2.157  1.0352  0.3413 -1.1177
14707TIP3   OH244065   2.900   7.342   5.325  0.3331 -0.3709  0.3469
14707TIP3    H144066   2.990   7.371   5.312 -0.0304  0.7945  0.3344
14707TIP3    H244067   2.904   7.288   5.404  0.8824  0.4548  0.8967
14708TIP3   OH244068   3.163   7.099   3.528  0.3367  0.2261  0.1717
14708TIP3    H144069   3.132   7.144   3.450  2.6008 -1.0326 -1.5663
14708TIP3    H244070   3.242   7.054   3.500  1.2290 -0.3091  3.2135
14709TIP3   OH244071   5.341   4.653   2.513  0.3407 -0.0762  0.1660
14709TIP3    H144072   5.340   4.739   2.470  0.2888 -0.0592  0.2007
14709TIP3    H244073   5.412   4.659   2.577  0.8733 -0.3350 -0.3930
14710TIP3   OH244074   6.044   0.708   4.752  0.5238  0.1386 -0.2562
14710TIP3    H144075   5.986   0.785   4.759  0.0425 -0.1286 -1.0985
14710TIP3    H244076   6.100   0.714   4.829 -0.4863  0.5286  0.4887
14711TIP3   OH244077   0.585   1.726   6.563 -0.3125  0.5642 -0.2758
14711TIP3    H144078   0.591   1.751   6.656  0.7013  0.5201 -0.3183
14711TIP3    H244079   0.658   1.771   6.522 -0.6073  0.3748 -1.0128
14712TIP3   OH244080   0.821   2.820   6.591 -0.2417 -0.5801  0.0165
14712TIP3    H144081   0.862   2.883   6.651 -1.7879  1.6334 -1.1045
14712TIP3    H244082   0.829   2.736   6.636  0.8408  0.5765  2.1712
14713TIP3   OH244083   4.386   7.296   4.284 -0.1589  0.4739  0.7333
14713TIP3    H144084   4.458   7.235   4.267 -0.5625  0.4710 -1.1922
14713TIP3    H244085   4.314   7.240   4.314 -0.3125  0.0628 -0.3615
14714TIP3   OH244086   0.148   3.715   1.894  0.3117 -0.3529 -0.1820
14714TIP3    H144087   0.114   3.682   1.977  0.9765 -0.1996  0.1633
14714TIP3    H244088   0.156   3.637   1.839 -0.6308 -0.3792 -0.2926
14715TIP3   OH244089   7.789   0.323   6.733  0.5473  0.6872  0.3295
14715TIP3    H144090   7.805   0.253   6.669  1.8530  0.3389  0.9996
14715TIP3    H244091   7.695   0.320   6.749  0.5291 -0.6681  0.0659
14716TIP3   OH244092   5.287   7.535   4.998 -0.2605  0.5221  0.5628
14716TIP3    H144093   5.335   7.612   5.031  2.7670 -0.3222 -1.5088
14716TIP3    H244094   5.267   7.557   4.907 -1.7815 -0.1460  0.7119
14717TIP3   OH244095   4.970   6.416   1.288  0.3115 -0.1095  0.3285
14717TIP3    H144096   4.896   6.417   1.349  0.1010 -4.1404  0.4354
14717TIP3    H244097   5.045   6.445   1.340 -0.7411  1.9385  0.8094
14718TIP3   OH244098   0.848   4.441   3.543  0.3373 -0.5780 -0.2046
14718TIP3    H144099   0.763   4.430   3.584  0.5689 -2.0203 -0.0552
14718TIP3    H244100   0.854   4.535   3.523 -0.4793 -0.1215  1.5076
14719TIP3   OH244101   1.971   1.257   3.946 -0.0225 -0.1483  0.1714
14719TIP3    H144102   1.989   1.172   3.987 -1.8434 -0.5075  0.2942
14719TIP3    H244103   2.058   1.293   3.927  0.7992 -1.6167  0.9642
14720TIP3   OH244104   2.287   7.689   4.316  0.1757 -0.5584 -0.1556
14720TIP3    H144105   2.270   7.780   4.290  1.5833 -0.1336  0.2881
14720TIP3    H244106   2.383   7.682   4.313  0.0944 -1.9278  0.1714
14721TIP3   OH244107   0.221   5.901   5.175 -0.2315  0.2245  0.6359
14721TIP3    H144108   0.213   5.989   5.212 -0.2312  0.4060  0.2181
14721TIP3    H244109   0.315   5.883   5.174 -0.0761  0.9460 -0.8989
14722TIP3   OH244110   0.921   0.902   2.577 -0.4951  0.1703  0.1807
14722TIP3    H144111   0.867   0.823   2.585  0.5654 -0.6474 -0.4889
14722TIP3    H244112   0.995   0.876   2.522 -0.6044  1.8851 -0.8849
14723TIP3   OH244113   7.363   4.313   2.605 -0.2159 -0.0250  0.0328
14723TIP3    H144114   7.362   4.296   2.700 -1.9014 -1.2022 -0.1604
14723TIP3    H244115   7.455   4.328   2.585  0.1870  0.2167  1.8461
14724TIP3   OH244116   7.706   7.309   3.842  0.5121 -0.3175 -0.0864
14724TIP3    H144117   7.676   7.242   3.903  0.0695 -0.0477 -0.0001
14724TIP3    H244118   7.706   7.265   3.757  0.7401 -0.5765  0.0446
14725TIP3   OH244119   3.459   4.891   6.807  0.3793 -0.2682  0.3446
14725TIP3    H144120   3.411   4.904   6.725 -0.9876 -1.9692  0.8163
14725TIP3    H244121   3.551   4.886   6.780  0.1999  1.5093 -0.7716
14726TIP3   OH244122   1.901   7.487   6.592 -0.1887 -0.3962  0.1504
14726TIP3    H144123   1.844   7.432   6.645  0.7024 -2.8361 -1.3002
14726TIP3    H244124   1.890   7.455   6.503  0.6205  1.6157 -0.7368
14727TIP3   OH244125   7.134   5.574   3.445 -0.6142 -0.2167  0.5209
14727TIP3    H144126   7.209   5.633   3.453 -0.1537 -0.7462  0.1572
14727TIP3    H244127   7.058   5.632   3.438 -0.4910  0.3515  2.9313
14728TIP3   OH244128   1.824   3.886   2.207 -0.0252 -0.1619  0.3889
14728TIP3    H144129   1.886   3.931   2.265 -0.5280 -0.1154  0.9023
14728TIP3    H244130   1.795   3.954   2.146  0.8576 -0.3195 -0.2386
14729TIP3   OH244131   7.089   1.067   6.635  0.3212 -0.2803  0.6144
14729TIP3    H144132   7.029   1.090   6.706 -2.1576 -1.9787 -0.7760
14729TIP3    H244133   7.066   1.127   6.564  1.0424 -0.2370  0.4111
14730TIP3   OH244134   7.376   0.192   1.643 -0.3159 -0.1211  0.7171
14730TIP3    H144135   7.402   0.105   1.672  0.4093  0.1041  0.7718
14730TIP3    H244136   7.384   0.189   1.548 -0.4168 -0.1560  0.7101
14731TIP3   OH244137   5.809   5.431   3.275  0.6853  0.2593 -0.2535
14731TIP3    H144138   5.751   5.420   3.200  0.6636  1.5096 -0.4407
14731TIP3    H244139   5.887   5.474   3.239 -0.0810  2.5885  0.7200
14732TIP3   OH244140   7.021   1.540   1.557  0.7557 -0.0145 -0.5122
14732TIP3    H144141   6.955   1.472   1.569  1.8744 -0.9689  0.5570
14732TIP3    H244142   7.046   1.533   1.465 -0.7814  0.5380 -0.9980
14733TIP3   OH244143   3.781   0.690   0.475  0.0099  0.2610 -0.3815
14733TIP3    H144144   3.753   0.782   0.472 -1.4427 -0.1720 -1.0216
14733TIP3    H244145   3.797   0.673   0.567  1.3001  1.4268 -0.3570
14734TIP3   OH244146   4.607   1.546   5.494  0.1880 -0.2281 -0.1815
14734TIP3    H144147   4.665   1.510   5.560  0.5228 -0.6121 -0.6788
14734TIP3    H244148   4.524   1.561   5.540  0.6111  0.1229  0.4788
14735TIP3   OH244149   1.702   1.100   3.619  0.4235  0.0722  0.1022
14735TIP3    H144150   1.778   1.156   3.601  1.6781 -1.7606 -0.5313
14735TIP3    H244151   1.712   1.076   3.711  1.9108 -1.9353 -0.5178
14736TIP3   OH244152   1.234   5.293   5.638  0.7659 -0.2458  0.6386
14736TIP3    H144153   1.256   5.256   5.553 -0.4425  0.0956  0.1644
14736TIP3    H244154   1.236   5.218   5.698  0.0016 -0.7938  0.0008
14737TIP3   OH244155   2.080   0.780   3.182  0.5009  0.2946  0.1639
14737TIP3    H144156   2.160   0.747   3.141  0.3915 -0.5486  0.5915
14737TIP3    H244157   2.010   0.728   3.143  0.1211  1.2570 -0.4465
14738TIP3   OH244158   6.438   2.517   6.124  0.5013  0.1137  0.1736
14738TIP3    H144159   6.362   2.523   6.181  0.0303  1.0605 -0.5378
14738TIP3    H244160   6.486   2.441   6.156 -1.3757 -1.2620 -0.1368
14739TIP3   OH244161   4.445   5.094   0.282 -0.0269 -0.0889 -0.0348
14739TIP3    H144162   4.443   5.184   0.247  1.4437 -0.4240 -1.0669
14739TIP3    H244163   4.528   5.089   0.329 -1.3381 -0.1020  2.3939
14740TIP3   OH244164   1.059   4.109   0.245  0.4261 -0.1617  0.0336
14740TIP3    H144165   1.049   4.150   0.159  1.5180 -0.6601 -0.3500
14740TIP3    H244166   1.022   4.172   0.306 -0.5658  0.1055 -0.8212
14741TIP3   OH244167   5.897   0.882   5.416  0.1644 -0.0828  0.1791
14741TIP3    H144168   5.890   0.955   5.355  0.6551 -1.3050 -1.4298
14741TIP3    H244169   5.943   0.918   5.492 -1.2922  1.7206  0.2634
14742TIP3   OH244170   7.943   0.962   5.957  0.1335 -0.4001  0.5411
14742TIP3    H144171   7.979   0.933   5.873  0.8986  0.6359  0.5010
14742TIP3    H244172   7.884   0.891   5.983  0.8409 -1.3087 -0.2608
14743TIP3   OH244173   0.430   4.056   4.488 -0.6273 -0.5368  0.8171
14743TIP3    H144174   0.439   4.151   4.492 -0.6416 -0.5170  0.3946
14743TIP3    H244175   0.422   4.029   4.580  4.3435 -0.6247  1.4749
14744TIP3   OH244176   3.890   5.004   4.518  0.4036 -0.4867  0.2953
14744TIP3    H144177   3.891   4.964   4.605  1.1645  3.6880  2.4434
14744TIP3    H244178   3.982   5.011   4.494  0.4285  1.4142  0.8064
14745TIP3   OH244179   7.219   5.969   3.967 -0.2305  0.5214 -0.2948
14745TIP3    H144180   7.126   5.990   3.955 -0.1523  0.6351 -0.7116
14745TIP3    H244181   7.227   5.948   4.060 -0.7218  0.2645 -0.3100
14746TIP3   OH244182   2.365   7.369   2.109 -0.7947 -0.2114  0.3847
14746TIP3    H144183   2.444   7.315   2.110 -0.6718 -0.0215  1.2302
14746TIP3    H244184   2.398   7.459   2.115 -1.0064 -0.0330 -0.8483
14747TIP3   OH244185   3.485   6.468   4.876  0.1042  0.0547  0.3168
14747TIP3    H144186   3.478   6.377   4.847  1.8685 -0.1050  0.2376
14747TIP3    H244187   3.446   6.519   4.805 -1.7297 -0.6606  0.7752
14748TIP3   OH244188   5.933   2.482   3.377 -0.4025  0.5524 -0.2544
14748TIP3    H144189   6.004   2.510   3.319  1.2453 -0.0185  1.3730
14748TIP3    H244190   5.936   2.387   3.374 -1.4618  0.5201 -0.5510
14749TIP3   OH244191   4.734   7.437   4.150 -0.2639 -0.3636  0.0257
14749TIP3    H144192   4.774   7.513   4.107 -0.1515 -0.1698  0.4602
14749TIP3    H244193   4.768   7.441   4.240  1.8649 -2.4336 -0.5969
14750TIP3   OH244194   5.826   2.993   2.530 -0.1157 -0.0990  0.4237
14750TIP3    H144195   5.919   3.005   2.550  0.0284 -1.0327  0.3766
14750TIP3    H244196   5.822   2.906   2.490 -1.2317 -0.7687  1.8989
14751TIP3   OH244197   8.059   7.182   4.145 -0.4524 -0.2462  0.3115
14751TIP3    H144198   8.050   7.261   4.092 -1.8836 -0.5454  0.0695
14751TIP3    H244199   8.072   7.112   4.081 -2.5273 -0.6581  0.2679
14752TIP3   OH244200   0.781   7.434   3.259  0.0673  0.2157  0.4019
14752TIP3    H144201   0.800   7.375   3.332 -0.7872  0.0431  0.4910
14752TIP3    H244202   0.809   7.386   3.181  1.4958  0.6213  0.6469
14753TIP3   OH244203   1.053   5.715   0.790  0.3821  0.1309 -0.4811
14753TIP3    H144204   1.022   5.657   0.721  0.3591 -1.1854  0.5922
14753TIP3    H244205   1.007   5.798   0.775 -0.8983 -0.6587 -1.0393
14754TIP3   OH244206   3.518   4.841   1.253 -0.1603  0.1009  0.0959
14754TIP3    H144207   3.522   4.747   1.236  0.5978 -0.0004  0.7429
14754TIP3    H244208   3.597   4.876   1.212  0.7092  0.1178  1.6944
14755TIP3   OH244209   6.312   2.541   3.434 -0.3259  0.4550 -0.3659
14755TIP3    H144210   6.298   2.568   3.343 -1.2156  0.3697 -0.2588
14755TIP3    H244211   6.391   2.588   3.460 -0.4801  1.0606 -0.9493
14756TIP3   OH244212   2.172   1.727   3.075  0.8698 -0.4505  0.3321
14756TIP3    H144213   2.268   1.728   3.084  0.9506 -1.3422 -0.3433
14756TIP3    H244214   2.146   1.643   3.112  0.2189  0.2435  1.5231
14757TIP3   OH244215   5.976   6.940   4.704  0.2463 -0.3492 -0.4379
14757TIP3    H144216   6.026   7.007   4.658  0.3485 -1.1222 -1.4799
14757TIP3    H244217   6.041   6.877   4.734 -0.1185 -2.2790 -3.2862
14758TIP3   OH244218   4.746   1.215   1.996  0.2741 -0.2176 -0.8242
14758TIP3    H144219   4.681   1.165   2.045  0.4219  0.2212 -0.1647
14758TIP3    H244220   4.803   1.253   2.064  0.0300  1.0307 -1.3003
14759TIP3   OH244221   7.649   4.957   1.068 -0.1903 -0.1041  0.0048
14759TIP3    H144222   7.628   4.876   1.114  2.2045 -0.1361  1.2249
14759TIP3    H244223   7.728   4.990   1.112 -0.5474  2.4220 -1.0430
14760TIP3   OH244224   0.748   7.427   5.921 -0.5670  0.3532  0.6229
14760TIP3    H144225   0.666   7.477   5.921  0.2110  1.8013  2.7473
14760TIP3    H244226   0.807   7.479   5.976  1.9207 -0.4570 -1.1230
14761TIP3   OH244227   1.495   6.983   3.917  0.3140 -0.0515 -0.4570
14761TIP3    H144228   1.549   7.060   3.937  0.0152 -0.3990  2.0369
14761TIP3    H244229   1.406   7.012   3.936  0.0592 -0.6362 -0.7654
14762TIP3   OH244230   4.262   5.853   6.668  0.0042  0.0115 -0.4953
14762TIP3    H144231   4.289   5.867   6.577  2.9069  0.0339  0.2734
14762TIP3    H244232   4.181   5.804   6.661  0.0469  0.1521 -3.0949
14763TIP3   OH244233   6.735   3.714   1.119 -0.3829  1.0381  0.3074
14763TIP3    H144234   6.690   3.649   1.065  0.9145 -0.5981  1.0788
14763TIP3    H244235   6.820   3.726   1.076  0.2111  0.5873  1.3109
14764TIP3   OH244236   7.148   0.840   3.887  0.5244  0.0601  0.4622
14764TIP3    H144237   7.136   0.745   3.892 -0.2693  0.0664 -0.8594
14764TIP3    H244238   7.059   0.875   3.879  0.7449  0.9990  1.7349
14765TIP3   OH244239   1.118   7.433   2.152 -0.0257  0.8786  0.3948
14765TIP3    H144240   1.201   7.390   2.127 -0.0834  0.6759  0.5461
14765TIP3    H244241   1.054   7.361   2.154  0.0468  0.8250  1.4666
14766TIP3   OH244242   7.377   1.171   0.490  0.3071  0.3297  0.5759
14766TIP3    H144243   7.458   1.185   0.441 -0.6480  0.4450 -1.0529
14766TIP3    H244244   7.369   1.248   0.547  1.5499  0.0975  1.0868
14767TIP3   OH244245   7.967   2.163   5.980 -0.4613  0.1820 -0.0667
14767TIP3    H144246   8.037   2.104   6.008 -1.3265 -0.3221  1.1246
14767TIP3    H244247   8.012   2.235   5.935  0.8372  0.0136  0.9282
14768TIP3   OH244248   2.966   3.777   5.942  0.2785 -0.0927  0.0533
14768TIP3    H144249   2.926   3.736   5.866  0.3168 -3.0447  1.4762
14768TIP3    H244250   2.899   3.771   6.010  1.6198 -1.2831  1.3274
14769TIP3   OH244251   6.462   1.618   1.954 -0.5282  0.3657 -0.1654
14769TIP3    H144252   6.469   1.547   1.889  0.3069 -0.5884  0.9155
14769TIP3    H244253   6.427   1.575   2.032 -0.9788  1.3789  0.2073
14770TIP3   OH244254   6.757   6.233   3.911 -0.3525  0.0656  0.3083
14770TIP3    H144255   6.682   6.206   3.964 -0.3728 -0.5895 -0.0469
14770TIP3    H244256   6.719   6.273   3.833 -0.3674 -1.1503 -0.3380
14771TIP3   OH244257   1.976   4.746   0.786 -0.3922  0.1356  0.1965
14771TIP3    H144258   1.920   4.819   0.759 -0.2291 -0.1843 -1.0732
14771TIP3    H244259   1.948   4.673   0.731  0.6806 -0.2620  0.1531
14772TIP3   OH244260   4.809   6.496   3.703 -0.1475  0.4050  0.2366
14772TIP3    H144261   4.776   6.495   3.793 -0.6675 -0.7927  0.0530
14772TIP3    H244262   4.863   6.417   3.696 -2.0278 -0.8602 -1.1533
14773TIP3   OH244263   0.215   3.100   3.833 -0.1173  0.1067  0.2037
14773TIP3    H144264   0.280   3.060   3.891 -0.1521  0.1400  0.2654
14773TIP3    H244265   0.137   3.110   3.887  0.1003  0.8752  0.3842
14774TIP3   OH244266   8.280   7.379   6.639 -0.2321 -0.4199 -0.0977
14774TIP3    H144267   8.233   7.321   6.578  0.5234 -0.1223 -0.9839
14774TIP3    H244268   8.314   7.450   6.583 -1.0866  0.8677  0.9486
14775TIP3   OH244269   2.257   0.727   5.684  0.1480  0.5032  0.5534
14775TIP3    H144270   2.304   0.670   5.624 -0.5157  1.3854 -0.8604
14775TIP3    H244271   2.261   0.814   5.644 -1.4598  0.8703  1.0859
14776TIP3   OH244272   5.044   5.871   2.040 -0.1900  0.0823  0.2008
14776TIP3    H144273   5.080   5.851   1.953 -1.5165 -0.0812 -0.3332
14776TIP3    H244274   5.121   5.895   2.092  0.9074 -1.8126 -0.4226
14777TIP3   OH244275   0.614   5.689   3.936 -0.6954 -0.3067  0.7837
14777TIP3    H144276   0.636   5.711   4.026 -0.3560 -0.6507  0.7900
14777TIP3    H244277   0.686   5.727   3.884 -0.4797 -0.7765  0.7331
14778TIP3   OH244278   4.081   6.070   4.120 -0.1094 -0.1865  0.5636
14778TIP3    H144279   4.020   6.051   4.049  0.4258 -0.5191  0.1809
14778TIP3    H244280   4.026   6.080   4.197 -0.8248  1.4780 -0.1145
14779TIP3   OH244281   5.749   3.407   6.543  0.0497 -0.0492  1.0278
14779TIP3    H144282   5.731   3.484   6.597 -0.9712  0.2378  0.3077
14779TIP3    H244283   5.817   3.436   6.482 -2.2058  1.2350 -1.0779
14780TIP3   OH244284   3.948   4.698   5.524 -0.2334  0.0346  0.3166
14780TIP3    H144285   4.008   4.630   5.493  0.7218  0.6429  0.7931
14780TIP3    H244286   3.993   4.737   5.599 -0.3254  1.8205 -0.5154
14781TIP3   OH244287   7.973   3.456   6.287  0.6220  0.2787 -0.3040
14781TIP3    H144288   7.978   3.536   6.339 -1.5100 -0.3324  0.9722
14781TIP3    H244289   7.923   3.395   6.341  1.6092 -1.7275 -1.5028
14782TIP3   OH244290   6.139   7.577   6.257  0.5812  0.2405  0.1375
14782TIP3    H144291   6.174   7.551   6.342  1.2682  0.1209 -0.1777
14782TIP3    H244292   6.213   7.617   6.211 -0.1437  1.6731  0.1514
14783TIP3   OH244293   6.870   2.403   1.944  0.3944  0.2355  0.0111
14783TIP3    H144294   6.857   2.361   2.028  0.4928  0.3652  0.0920
14783TIP3    H244295   6.823   2.348   1.881 -0.9277  0.9188  0.3535
14784TIP3   OH244296   7.655   4.487   4.169 -0.1331 -0.2146  0.1875
14784TIP3    H144297   7.597   4.458   4.098 -0.8556  0.0230  0.6760
14784TIP3    H244298   7.733   4.431   4.160 -0.2262 -0.2069 -0.7694
14785TIP3   OH244299   3.437   6.333   3.925 -0.1699 -0.1040  0.0581
14785TIP3    H144300   3.476   6.328   3.838 -0.5735  2.6366 -0.3834
14785TIP3    H244301   3.508   6.364   3.981 -0.7935  1.8088 -0.1212
14786TIP3   OH244302   4.305   1.442   5.322 -0.0407  1.1074  0.1506
14786TIP3    H144303   4.332   1.410   5.236 -0.2663  0.9125  0.1550
14786TIP3    H244304   4.295   1.364   5.375 -4.0512  0.7848 -0.7692
14787TIP3   OH244305   0.967   5.411   3.974 -0.1946  0.4499  0.1376
14787TIP3    H144306   0.942   5.328   4.016 -2.3810  0.0692 -1.7222
14787TIP3    H244307   0.931   5.479   4.031 -1.2562  0.0111  0.0065
14788TIP3   OH244308   3.227   6.019   0.851 -0.1367  0.1927 -0.2203
14788TIP3    H144309   3.145   6.058   0.822 -0.2859  0.5182  0.6159
14788TIP3    H244310   3.223   6.021   0.946  0.7771  0.0668 -0.1623
14789TIP3   OH244311   2.674   1.991   0.808 -0.2455  0.1479 -0.9754
14789TIP3    H144312   2.605   2.023   0.866  1.1375  2.0713 -0.2831
14789TIP3    H244313   2.629   1.932   0.747 -1.9835 -0.8877  1.1692
14790TIP3   OH244314   2.453   1.786   4.815 -0.7284  0.2448  0.1857
14790TIP3    H144315   2.524   1.743   4.767  0.0094 -0.2819  1.6954
14790TIP3    H244316   2.471   1.880   4.807 -0.5222  0.1581 -0.4027
14791TIP3   OH244317   5.253   1.904   6.029  0.0222 -0.4933  0.4188
14791TIP3    H144318   5.333   1.912   5.977  0.5952 -0.4924  1.2844
14791TIP3    H244319   5.283   1.907   6.120 -1.1731  1.9404  0.8201
14792TIP3   OH244320   8.292   1.496   4.158  0.2663  0.4939  0.0579
14792TIP3    H144321   8.228   1.430   4.132  1.4569 -0.3728 -0.7700
14792TIP3    H244322   8.243   1.556   4.214 -0.5720 -1.7992  1.9328
14793TIP3   OH244323   3.942   2.346   6.088 -0.3557  0.1465 -0.5319
14793TIP3    H144324   3.861   2.340   6.037  0.8763  1.2555 -2.7639
14793TIP3    H244325   4.001   2.282   6.048  0.3825  0.4410  0.0567
14794TIP3   OH244326   5.186   6.230   3.872  0.0549 -0.4902  0.3714
14794TIP3    H144327   5.174   6.136   3.882  0.2502 -0.5172  0.3685
14794TIP3    H244328   5.098   6.266   3.867 -0.0199 -0.6662  0.4379
14795TIP3   OH244329   3.569   1.058   0.769  0.5476 -0.0050 -0.5524
14795TIP3    H144330   3.589   0.969   0.741  1.1341 -0.3155  0.7852
14795TIP3    H244331   3.492   1.083   0.716 -1.4379 -2.3502  1.0049
14796TIP3   OH244332   4.606   2.637   5.257 -0.2448  0.5237  0.2023
14796TIP3    H144333   4.518   2.643   5.220 -0.3877 -0.1182  0.4386
14796TIP3    H244334   4.593   2.641   5.351 -0.0538  0.1088  0.2492
14797TIP3   OH244335   2.014   2.889   4.607  0.1267  0.1052 -0.0184
14797TIP3    H144336   2.008   2.803   4.563  2.1476 -0.0620 -0.0535
14797TIP3    H244337   2.028   2.867   4.699  2.5959  0.3144 -0.2952
14798TIP3   OH244338   8.194   0.505   4.971 -0.4470  0.0370  0.6952
14798TIP3    H144339   8.157   0.557   4.900  1.4466 -1.1126 -1.2659
14798TIP3    H244340   8.257   0.562   5.014  1.1631 -0.3592 -1.0425
14799TIP3   OH244341   6.494   0.516   5.939  0.2814  0.1607 -0.2899
14799TIP3    H144342   6.579   0.475   5.921  0.9207  0.6863  1.3069
14799TIP3    H244343   6.502   0.605   5.905  0.6381  0.4181  0.4348
14800TIP3   OH244344   5.147   5.392   3.323 -0.0035 -0.2011  0.0432
14800TIP3    H144345   5.191   5.382   3.408  0.5657  0.2613 -0.1906
14800TIP3    H244346   5.092   5.470   3.334 -1.0600 -0.9744  0.4479
14801TIP3   OH244347   7.452   6.006   6.378 -0.0981 -0.5730 -0.0744
14801TIP3    H144348   7.363   5.988   6.349 -0.7055  0.7318  0.8606
14801TIP3    H244349   7.490   6.057   6.306  0.0174 -1.4200 -0.6210
14802TIP3   OH244350   7.268   2.002   1.890  0.3190 -0.1521  0.4622
14802TIP3    H144351   7.362   1.983   1.893  0.3230 -0.2199  0.0165
14802TIP3    H244352   7.258   2.057   1.812 -0.1596 -0.9979 -0.0907
14803TIP3   OH244353   3.180   4.199   1.099 -0.0063  0.3264  0.4038
14803TIP3    H144354   3.196   4.261   1.170  1.3724  1.4430 -0.8259
14803TIP3    H244355   3.234   4.123   1.121 -0.2308  0.3214  0.9514
14804TIP3   OH244356   3.609   5.315   4.144 -0.3794 -0.0159 -0.0491
14804TIP3    H144357   3.607   5.292   4.051 -1.8543  0.1010 -0.0566
14804TIP3    H244358   3.549   5.254   4.186  1.2914 -0.9756  1.0738
14805TIP3   OH244359   4.511   3.477   6.723  0.0240 -0.3385  0.1240
14805TIP3    H144360   4.576   3.460   6.791  1.0781  0.5773 -0.6202
14805TIP3    H244361   4.479   3.566   6.742  0.7229  0.1390 -0.8621
14806TIP3   OH244362   1.508   4.402   4.247  0.2366 -0.1499 -0.3469
14806TIP3    H144363   1.467   4.488   4.249 -0.3375 -0.3924  2.8349
14806TIP3    H244364   1.588   4.411   4.298  0.3162 -1.4485 -0.1916
14807TIP3   OH244365   5.100   3.694   3.277 -0.3471  0.4293 -0.4199
14807TIP3    H144366   5.030   3.634   3.302  0.3350 -0.1317  0.2319
14807TIP3    H244367   5.056   3.775   3.252 -1.1557  0.7965  1.9422
14808TIP3   OH244368   3.117   6.812   2.675 -0.4969  0.2042  0.0794
14808TIP3    H144369   3.100   6.813   2.769  0.6427 -0.2137  0.3033
14808TIP3    H244370   3.173   6.735   2.662 -2.6623 -1.2653 -1.3148
14809TIP3   OH244371   7.928   6.211   5.040  0.5175 -0.3349  0.1040
14809TIP3    H144372   7.935   6.272   5.113  3.5519 -0.6377  0.2226
14809TIP3    H244373   7.892   6.263   4.968 -1.2885  0.3072  1.3999
14810TIP3   OH244374   5.054   5.927   1.684 -0.0998  0.3317 -0.2018
14810TIP3    H144375   5.123   5.916   1.749 -0.2083  0.7831 -0.0098
14810TIP3    H244376   4.986   5.866   1.712  1.6114 -2.8362 -2.3699
14811TIP3   OH244377   0.368   2.621   5.734  0.3610 -0.2992  0.3495
14811TIP3    H144378   0.379   2.637   5.828 -0.9324 -0.4809  0.5557
14811TIP3    H244379   0.387   2.528   5.724  3.0958  0.2222 -0.0437
14812TIP3   OH244380   5.798   6.006   5.491 -0.3822 -0.1721  0.1337
14812TIP3    H144381   5.874   6.057   5.519  0.9207 -2.4551  1.0836
14812TIP3    H244382   5.771   6.046   5.408  1.6006  0.9590 -0.0233
14813TIP3   OH244383   6.201   1.460   1.365  0.3247  0.3402  0.3312
14813TIP3    H144384   6.205   1.453   1.269  2.4620  0.5042  0.3593
14813TIP3    H244385   6.183   1.370   1.394 -0.1006  0.2420 -0.2265
14814TIP3   OH244386   2.958   7.782   2.152 -0.2222  0.4284  0.1868
14814TIP3    H144387   2.985   7.765   2.243  0.4093  0.3410 -0.0119
14814TIP3    H244388   3.037   7.766   2.101 -0.1140  2.0945 -0.2202
14815TIP3   OH244389   8.098   5.086   3.173 -0.2782  0.3266  0.2178
14815TIP3    H144390   8.174   5.102   3.117  1.2574 -1.1807  1.7369
14815TIP3    H244391   8.075   4.994   3.156  0.1474 -0.1245  1.8698
14816TIP3   OH244392   5.898   7.047   6.709  0.1031  0.5764 -0.2019
14816TIP3    H144393   5.848   7.064   6.788  1.2229 -0.1909  0.7066
14816TIP3    H244394   5.870   6.960   6.681 -0.1522  0.7674 -0.5437
14817TIP3   OH244395   6.014   7.602   3.704 -0.6876 -0.0512  0.5519
14817TIP3    H144396   5.927   7.563   3.707 -0.2552 -1.1308 -0.3750
14817TIP3    H244397   6.069   7.540   3.751 -0.1523 -0.1055 -0.1367
14818TIP3   OH244398   7.669   5.380   4.570 -0.3854 -0.0189 -0.5721
14818TIP3    H144399   7.637   5.338   4.490 -1.4217  0.4805 -0.4465
14818TIP3    H244400   7.733   5.444   4.540 -1.7347  1.1158 -1.1688
14819TIP3   OH244401   1.128   3.188   1.172 -0.5309 -0.4322  0.0704
14819TIP3    H144402   1.157   3.139   1.094 -2.3126  0.3950 -1.1781
14819TIP3    H244403   1.182   3.267   1.172  0.4570 -1.0879  0.5212
14820TIP3   OH244404   2.638   5.866   0.405 -0.9643  0.3380 -0.0857
14820TIP3    H144405   2.668   5.777   0.388 -1.8807  0.0698 -0.3452
14820TIP3    H244406   2.590   5.860   0.487 -0.6696  0.6809  0.1137
14821TIP3   OH244407   6.917   3.355   2.665  0.0096  0.5546 -0.4506
14821TIP3    H144408   6.932   3.388   2.577  0.4686 -1.1813 -1.0547
14821TIP3    H244409   6.927   3.260   2.658 -1.5816  0.1979  1.1222
14822TIP3   OH244410   5.189   3.144   1.723 -0.0604  0.2078 -0.1429
14822TIP3    H144411   5.246   3.071   1.699  0.0052  0.9420 -2.4660
14822TIP3    H244412   5.156   3.178   1.640 -0.3680  2.6061  0.8568
14823TIP3   OH244413   5.942   2.591   1.784  0.2267 -0.4265  0.1240
14823TIP3    H144414   5.855   2.565   1.753 -0.5456  1.2798  0.7092
14823TIP3    H244415   6.003   2.534   1.736 -1.0929 -0.2362 -1.8978
14824TIP3   OH244416   1.739   1.206   0.121 -0.1634  0.4030 -0.0046
14824TIP3    H144417   1.770   1.142   0.185 -0.7703 -0.1088 -0.2109
14824TIP3    H244418   1.716   1.154   0.044  0.2263  0.9763 -0.5145
14825TIP3   OH244419   1.480   4.783   1.236 -0.3982  0.0494  0.4197
14825TIP3    H144420   1.574   4.767   1.226 -0.7997 -2.0251 -0.8540
14825TIP3    H244421   1.471   4.878   1.239  1.7400  0.2827  0.5932
14826TIP3   OH244422   0.833   1.316   6.389  0.0440  0.6328  0.1624
14826TIP3    H144423   0.924   1.321   6.357  0.8275 -0.8221  1.9930
14826TIP3    H244424   0.791   1.394   6.352  0.9732 -0.4943 -3.7726
14827TIP3   OH244425   4.410   3.442   4.625 -0.0164  0.1488 -0.1989
14827TIP3    H144426   4.365   3.387   4.688  1.5062 -0.1399  0.7025
14827TIP3    H244427   4.395   3.400   4.540 -2.4546  0.7889 -0.1491
14828TIP3   OH244428   1.188   1.807   4.074  0.0599 -0.3779  0.4384
14828TIP3    H144429   1.113   1.769   4.028 -0.2324  0.7425 -0.0579
14828TIP3    H244430   1.209   1.886   4.024  1.5922 -0.6772  0.5612
14829TIP3   OH244431   3.038   4.867   3.974  0.1761  0.3275  0.3862
14829TIP3    H144432   2.984   4.938   3.940 -0.1359 -0.3691 -0.6267
14829TIP3    H244433   3.097   4.846   3.901 -0.2917 -0.9982  0.3761
14830TIP3   OH244434   7.732   0.077   1.587 -0.0030 -0.2665  0.1214
14830TIP3    H144435   7.791   0.064   1.513  0.8590 -0.9913  0.9135
14830TIP3    H244436   7.716   0.171   1.589  1.2621 -0.0316 -0.0141
14831TIP3   OH244437   8.276   0.156   4.744  0.5592 -0.0755  0.2224
14831TIP3    H144438   8.246   0.174   4.833 -2.0638  1.8139 -0.8887
14831TIP3    H244439   8.308   0.066   4.746  1.3159  0.1688  3.2042
14832TIP3   OH244440   3.779   3.662   4.473 -0.6199  0.1388 -0.2314
14832TIP3    H144441   3.826   3.729   4.423  1.6570 -1.5729 -0.5223
14832TIP3    H244442   3.776   3.697   4.563  2.8257 -0.3221  0.2130
14833TIP3   OH244443   4.494   6.653   5.589 -0.1398 -0.1717  0.2022
14833TIP3    H144444   4.553   6.677   5.518  0.2451  0.4284  0.7156
14833TIP3    H244445   4.410   6.692   5.565  0.7690  2.9424  1.6489
14834TIP3   OH244446   2.590   1.537   4.256 -0.6109  0.5498 -0.5033
14834TIP3    H144447   2.546   1.479   4.195 -0.9763 -0.0734  0.3281
14834TIP3    H244448   2.680   1.544   4.223 -0.5460 -0.5381 -0.5971
14835TIP3   OH244449   2.037   6.886   3.206 -0.1592 -0.2450  0.0727
14835TIP3    H144450   2.121   6.851   3.176 -0.1377  0.1286 -0.3223
14835TIP3    H244451   2.055   6.979   3.224 -0.8849  0.3149 -1.7625
14836TIP3   OH244452   6.051   7.230   5.042 -0.7372  0.3190  0.3314
14836TIP3    H144453   5.999   7.154   5.069  2.3012 -2.2119 -0.3933
14836TIP3    H244454   6.012   7.257   4.959 -1.9242 -0.3598  0.6359
14837TIP3   OH244455   4.209   2.173   2.865  0.0759 -0.4293  0.6332
14837TIP3    H144456   4.268   2.195   2.937  0.9211 -0.3436 -0.0673
14837TIP3    H244457   4.267   2.158   2.790 -0.7714 -0.7230  0.0178
14838TIP3   OH244458   3.519   4.617   3.430  0.0381  0.4427  0.7038
14838TIP3    H144459   3.436   4.572   3.413  0.1558 -0.4763  2.3081
14838TIP3    H244460   3.582   4.572   3.374 -0.4235  0.7367 -0.0629
14839TIP3   OH244461   1.073   1.434   2.463  0.1614 -0.1385 -0.3609
14839TIP3    H144462   1.033   1.347   2.464  0.3202 -0.2128  0.9293
14839TIP3    H244463   1.139   1.429   2.394  0.0086 -0.9689 -0.4583
   8.30814   7.83300   6.78357   0.00000   0.00000  -2.76938   0.00000  -2.76938  -3.91650
