Title
29212
    1ASP      N    1   1.550   1.470   1.853  0.1651  0.7851  1.3228
    1ASP    HT1    2   1.563   1.532   1.935 -2.3375  1.9745  0.9292
    1ASP    HT2    3   1.638   1.474   1.799  1.0608  1.0980  2.7489
    1ASP    HT3    4   1.544   1.367   1.870 -1.3615  0.2838 -1.5623
    1ASP     CA    5   1.441   1.520   1.763 -0.2313 -0.6573  0.3656
    1ASP     HA    6   1.472   1.621   1.739  2.3044 -1.2017  1.0561
    1ASP     CB    7   1.425   1.431   1.627  0.2025  0.7349 -0.2928
    1ASP    HB1    8   1.353   1.480   1.558 -2.1889 -1.4519  0.5175
    1ASP    HB2    9   1.398   1.327   1.657 -0.2297  0.9107 -0.0581
    1ASP     CG   10   1.557   1.405   1.555 -0.2863  0.0286  0.3711
    1ASP    OD1   11   1.665   1.449   1.601 -0.1183  0.4211 -0.2576
    1ASP    OD2   12   1.554   1.339   1.449  0.1912 -0.6603  0.0443
    1ASP      C   13   1.313   1.525   1.826  0.5934 -0.0276  0.3866
    1ASP      O   14   1.295   1.484   1.938  0.2092  0.6633 -0.4858
    2GLY      N   15   1.201   1.570   1.759  0.2566 -0.0225 -0.0023
    2GLY     HN   16   1.213   1.623   1.675  0.0520  0.8949  0.5428
    2GLY     CA   17   1.068   1.545   1.808  0.1973  0.4949  0.0065
    2GLY    HA1   18   1.061   1.440   1.832 -0.8080  0.9237  1.7640
    2GLY    HA2   19   0.998   1.574   1.731  0.6254  0.9870 -0.2093
    2GLY      C   20   1.022   1.617   1.928 -0.4346 -0.2264  0.3688
    2GLY      O   21   1.080   1.716   1.974 -0.2172  0.1116  0.3909
    3ASP      N   22   0.908   1.579   1.987  0.0275  0.1508  0.0376
    3ASP     HN   23   0.871   1.490   1.960  1.1493 -0.6403  0.9936
    3ASP     CA   24   0.850   1.644   2.098  0.2339 -0.2496 -0.4305
    3ASP     HA   25   0.851   1.750   2.077  0.2969 -0.5470 -2.0411
    3ASP     CB   26   0.706   1.597   2.115 -0.5427  0.2942 -0.2047
    3ASP    HB1   27   0.664   1.647   2.204 -0.8600  1.4835 -0.9954
    3ASP    HB2   28   0.701   1.489   2.137  1.0004  0.0859 -0.7235
    3ASP     CG   29   0.623   1.615   1.991  0.0981 -0.8527 -0.0614
    3ASP    OD1   30   0.664   1.657   1.877  0.5604  0.5470 -0.0741
    3ASP    OD2   31   0.502   1.572   2.001 -0.2745  0.0592 -0.1255
    3ASP      C   32   0.936   1.623   2.225 -0.4011 -0.2629 -0.0703
    3ASP      O   33   1.015   1.528   2.231 -0.0212 -0.1098 -0.8386
    4GLY      N   34   0.935   1.723   2.317  0.1597  0.3933 -0.0465
    4GLY     HN   35   0.878   1.803   2.300 -0.7054 -0.2274 -0.1215
    4GLY     CA   36   1.011   1.722   2.444 -0.0742 -0.3836  0.0126
    4GLY    HA1   37   0.996   1.816   2.496 -0.5163 -1.2196  1.4236
    4GLY    HA2   38   1.112   1.709   2.410  0.8023 -1.5976  2.8191
    4GLY      C   39   0.971   1.615   2.538  0.0493  0.4352  0.3436
    4GLY      O   40   0.861   1.564   2.526  0.3949  0.3914  0.4291
    5PRO      N   41   1.047   1.587   2.644  0.8699  0.2774  0.6198
    5PRO     CD   42   1.188   1.625   2.656 -0.4807  0.0110 -0.3743
    5PRO    HD1   43   1.187   1.736   2.652 -0.7297 -0.0097 -4.1699
    5PRO    HD2   44   1.258   1.594   2.575  0.1918  2.1654 -0.6966
    5PRO     CA   45   0.997   1.539   2.768 -0.0800 -0.1145 -0.2655
    5PRO     HA   46   0.973   1.435   2.753 -0.2129 -0.2738  0.9310
    5PRO     CB   47   1.111   1.571   2.870  0.4055 -0.2918  0.6741
    5PRO    HB1   48   1.105   1.498   2.954  0.3701 -0.1425  0.8008
    5PRO    HB2   49   1.097   1.671   2.917 -1.3533 -0.7950  1.3044
    5PRO     CG   50   1.238   1.564   2.789  0.1547 -0.3728  0.8030
    5PRO    HG1   51   1.319   1.625   2.835  0.0813 -0.2560  0.7800
    5PRO    HG2   52   1.270   1.459   2.778 -0.8993 -0.5902 -0.5491
    5PRO      C   53   0.868   1.612   2.815 -0.3192 -0.3131  0.0199
    5PRO      O   54   0.863   1.735   2.807  0.5656  0.3865  0.6799
    6GLY      N   55   0.771   1.533   2.869 -0.4242  0.6536  0.1060
    6GLY     HN   56   0.791   1.436   2.876  0.6460  0.8586  0.0477
    6GLY     CA   57   0.639   1.569   2.920  0.5030  0.0876  0.4369
    6GLY    HA1   58   0.566   1.490   2.911 -0.0619  0.5975  0.4439
    6GLY    HA2   59   0.611   1.663   2.874 -0.2552 -0.6434 -0.6471
    6GLY      C   60   0.648   1.601   3.061 -0.1009 -0.4227 -0.3899
    6GLY      O   61   0.735   1.684   3.089 -0.5535 -0.1372  0.9018
    7ASP      N   62   0.559   1.547   3.144  0.2437 -0.2152  0.5617
    7ASP     HN   63   0.496   1.480   3.106  1.8664 -0.2653 -2.2509
    7ASP     CA   64   0.568   1.571   3.289  0.0530 -0.8565 -0.0800
    7ASP     HA   65   0.534   1.673   3.299  0.2174 -0.7998 -0.0942
    7ASP     CB   66   0.459   1.486   3.360  0.4425  0.4453 -0.1690
    7ASP    HB1   67   0.462   1.519   3.466  2.3092  0.6083 -0.2324
    7ASP    HB2   68   0.482   1.377   3.357 -0.2149  0.3177 -2.0574
    7ASP     CG   69   0.321   1.505   3.313 -0.0426  0.0210 -0.3011
    7ASP    OD1   70   0.248   1.405   3.291 -0.0944  0.1022 -0.2114
    7ASP    OD2   71   0.273   1.618   3.298 -0.6684  0.2539  0.2923
    7ASP      C   72   0.705   1.555   3.343  0.2322 -0.5573 -0.8770
    7ASP      O   73   0.768   1.451   3.322 -0.0000  0.4798 -0.4517
    8PRO      N   74   0.757   1.643   3.428 -0.0267 -0.5292  0.3032
    8PRO     CD   75   0.700   1.779   3.431  0.0385 -0.4294 -0.3763
    8PRO    HD1   76   0.603   1.787   3.485  0.7032  1.0379  0.6860
    8PRO    HD2   77   0.677   1.826   3.333 -1.4533  0.5866  0.4157
    8PRO     CA   78   0.867   1.611   3.523 -0.0673 -0.6233 -0.4452
    8PRO     HA   79   0.947   1.579   3.459 -0.9860 -0.3280 -1.7842
    8PRO     CB   80   0.883   1.754   3.595  0.5007  0.2511 -0.2804
    8PRO    HB1   81   0.992   1.771   3.607  0.5067 -0.1779  0.3390
    8PRO    HB2   82   0.830   1.752   3.693  0.5164 -1.0506 -0.2844
    8PRO     CG   83   0.823   1.852   3.497  0.0280  0.3597 -0.1195
    8PRO    HG1   84   0.799   1.945   3.553 -0.8123  1.3008 -1.9394
    8PRO    HG2   85   0.894   1.884   3.417  1.6527 -1.9222  0.3293
    8PRO      C   86   0.839   1.490   3.618 -0.2803  0.1051  0.0859
    8PRO      O   87   0.724   1.468   3.659 -0.3106  0.0004  0.6736
    9GLY      N   88   0.935   1.402   3.644 -0.1993  0.1072 -0.5494
    9GLY     HN   89   1.030   1.429   3.631 -0.4327  1.4218  0.3003
    9GLY     CA   90   0.919   1.287   3.729  0.2563  0.3612 -0.7725
    9GLY    HA1   91   1.012   1.233   3.737 -0.3295 -0.9059 -2.0761
    9GLY    HA2   92   0.847   1.224   3.679  0.4185  0.3347 -0.9742
    9GLY      C   93   0.877   1.320   3.873  0.1235 -1.2434 -0.0290
    9GLY      O   94   0.903   1.436   3.918  0.4123 -0.0793  0.2429
   10ASP      N   95   0.826   1.222   3.946 -0.2793  0.2830  0.6151
   10ASP     HN   96   0.797   1.145   3.891 -0.7941 -0.3183  1.7060
   10ASP     CA   97   0.793   1.215   4.090  0.2378 -0.4192 -0.3306
   10ASP     HA   98   0.764   1.317   4.106  1.0608 -0.1691 -0.3814
   10ASP     CB   99   0.681   1.101   4.117  0.0672 -0.2477  0.3390
   10ASP    HB1  100   0.686   1.075   4.225  0.6949  0.9315  0.6075
   10ASP    HB2  101   0.710   1.018   4.049  1.2621  2.6908 -3.0488
   10ASP     CG  102   0.550   1.155   4.069  0.1008 -0.5361  0.1941
   10ASP    OD1  103   0.521   1.277   4.050 -0.6045 -0.5408 -0.0835
   10ASP    OD2  104   0.457   1.072   4.055 -0.3093 -0.6757 -0.1279
   10ASP      C  105   0.915   1.194   4.170 -0.7429  0.1239  0.2289
   10ASP      O  106   1.024   1.151   4.130  0.2796 -0.1468 -0.4682
   11GLY      N  107   0.914   1.250   4.296 -0.6251  0.5544 -0.2058
   11GLY     HN  108   0.836   1.302   4.331 -1.3432  0.5558 -1.7268
   11GLY     CA  109   1.025   1.260   4.391 -0.0524 -0.2980  0.5659
   11GLY    HA1  110   1.102   1.187   4.374  0.4778  0.1897  0.8599
   11GLY    HA2  111   0.986   1.247   4.491 -0.1078  0.3866  0.6388
   11GLY      C  112   1.077   1.406   4.369  0.2281  1.4523  0.6720
   11GLY    OT1  113   1.193   1.425   4.328 -0.3003 -0.1062 -0.9812
   11GLY    OT2  114   0.999   1.494   4.401 -0.4634 -0.2103  0.0020
   12LIT    LIT  115   2.033   6.387   5.405  0.4489 -0.1881 -0.1313
   13LIT    LIT  116   4.804   1.171   2.296 -0.2538 -0.7753 -0.9415
   14LIT    LIT  117   4.288   6.626   4.566  0.5361 -0.6353 -0.3405
   15LIT    LIT  118   1.732   5.857   4.216  0.6448 -0.2596 -0.4474
   16LIT    LIT  119   1.126   1.618   4.321  0.5069 -0.3589 -0.0015
   17LIT    LIT  120   5.416   1.143   1.747 -0.4312  0.2527 -0.1331
   18LIT    LIT  121   1.073   0.764   5.367 -1.3672  0.6336 -0.2981
   19LIT    LIT  122   5.996   5.919   0.194 -0.2329  0.6843 -0.2198
   20LIT    LIT  123   6.554   3.211   2.728  0.3546 -0.0192  0.4828
   21LIT    LIT  124   2.336   0.396   0.264 -0.5423  0.1212 -0.1580
   22LIT    LIT  125   5.756   4.841   1.677 -0.2589 -0.6900  0.3134
   23LIT    LIT  126   1.826   2.299   1.253 -0.3649 -0.2084 -0.8420
   24LIT    LIT  127   5.116   4.747   0.799  0.3641 -0.5276 -0.0769
   25LIT    LIT  128   0.129   1.533   3.229 -0.3335  0.6837 -0.5712
   26LIT    LIT  129   0.351   1.246   3.958  0.0967 -0.3666  0.7686
   27LIT    LIT  130   5.490   5.474   1.197 -0.3166 -1.1415 -0.0377
   28LIT    LIT  131   4.234   3.700   1.037  1.2819  0.2382  0.4655
   29LIT    LIT  132   2.792   4.950   5.062 -0.0714 -0.5188 -0.2733
   30LIT    LIT  133   4.124   1.348   5.518  1.0997 -0.5863  1.5693
   31LIT    LIT  134   6.901   0.835   2.423  0.5584 -0.5889  0.1888
   32LIT    LIT  135   2.403   1.325   2.737  0.1714 -0.3387 -0.8427
   33LIT    LIT  136   5.228   2.491   5.690 -0.8524 -0.4803 -0.0180
   34LIT    LIT  137   1.435   6.247   3.218  0.8382 -0.5825 -0.0825
   35LIT    LIT  138   0.639   2.697   3.430  0.4345  0.1513 -0.1959
   36LIT    LIT  139   2.750   0.109   5.816  0.6217 -0.4270  0.6387
   37LIT    LIT  140   2.987   4.287   3.485  0.4133 -0.3828 -0.3325
   38LIT    LIT  141   0.793   1.887   4.725  0.6089 -0.3809  0.3395
   39LIT    LIT  142   1.541   1.150   1.417 -0.2570  0.9159 -0.3267
   40LIT    LIT  143   2.105   6.646   1.225 -0.2743 -0.2453  0.0019
   41LIT    LIT  144   1.170   6.630   4.827 -0.8487  0.5578  0.0908
   42LIT    LIT  145   0.502   1.594   1.797 -0.4918 -0.4185  0.4004
   43CLA    CLA  146   7.030   3.764   0.514 -0.2435  0.0098 -0.2164
   44CLA    CLA  147   5.147   1.506   2.233 -0.0725  0.1124 -0.0709
   45CLA    CLA  148   2.259   4.803   1.582  0.4171 -0.2089  0.0227
   46CLA    CLA  149   4.737   6.590   2.949 -0.5679  0.0746  0.1401
   47CLA    CLA  150   4.440   0.370   5.659  0.1559 -0.0977  0.5494
   48CLA    CLA  151   4.335   3.926   5.294  0.0710  0.1901 -0.0498
   49CLA    CLA  152   3.925   0.156   0.533  0.1741 -0.0638  0.1277
   50CLA    CLA  153   4.635   5.543   0.002 -0.1013  0.0956  0.1891
   51CLA    CLA  154   6.152   1.262   3.183  0.0207  0.0029  0.0685
   52CLA    CLA  155   4.918   3.008   4.494 -0.2227  0.1240  0.0998
   53CLA    CLA  156   6.517   0.564   4.095 -0.0950 -0.3840  0.3639
   54CLA    CLA  157   1.424   6.313   5.632 -0.1997 -0.2623 -0.4595
   55CLA    CLA  158   1.389   6.164   1.742 -0.1209  0.0132  0.0444
   56CLA    CLA  159   2.481   3.106   0.955  0.1422 -0.0962 -0.2646
   57CLA    CLA  160   2.491   5.247   4.908  0.1101 -0.3444 -0.0079
   58CLA    CLA  161   4.425   0.240   4.716  0.0525  0.5281 -0.0874
   59CLA    CLA  162   4.650   1.198   4.043  0.1956  0.1549 -0.2428
   60CLA    CLA  163   6.980   3.059   5.874  0.2192  0.3499  0.0337
   61CLA    CLA  164   6.305   4.141   2.267 -0.3921  0.1091  0.0191
   62CLA    CLA  165   2.388   2.554   0.018 -0.3160  0.6781  0.2511
   63CLA    CLA  166   2.773   2.380   4.308 -0.1028 -0.2076 -0.2782
   64CLA    CLA  167   4.307   3.922   1.047 -0.4620 -0.0660  0.0450
   65CLA    CLA  168   3.644   6.221   1.133 -0.0795  0.2588 -0.0183
   66CLA    CLA  169   6.960   4.322   0.263 -0.4354  0.4750  0.0801
   67CLA    CLA  170   5.127   3.532   1.240 -0.0728  0.0064 -0.2959
   68CLA    CLA  171   5.976   4.904   1.690 -0.3390  0.0842 -0.0170
   69CLA    CLA  172   3.973   1.492   1.423  0.2607  0.5009 -0.3457
   70TIP3   OH2  173   1.178   5.970   0.719 -0.2350 -0.1463 -0.0163
   70TIP3    H1  174   1.115   5.912   0.678 -0.6375  1.0704 -1.2123
   70TIP3    H2  175   1.263   5.927   0.707 -0.4148 -0.0681 -1.6967
   71TIP3   OH2  176   1.744   2.278   2.533 -0.5342 -0.2974 -0.0111
   71TIP3    H1  177   1.758   2.200   2.478 -0.8265 -1.7969  1.9475
   71TIP3    H2  178   1.703   2.342   2.474  0.7412 -1.1894 -1.9708
   72TIP3   OH2  179   1.563   5.418   1.670 -0.3603 -0.1570 -0.4828
   72TIP3    H1  180   1.498   5.445   1.735 -0.0310 -0.7158  0.0944
   72TIP3    H2  181   1.618   5.495   1.657 -0.2609 -0.1244  0.1125
   73TIP3   OH2  182   5.242   2.073   3.984 -0.1959  0.0529  0.1227
   73TIP3    H1  183   5.310   2.129   3.945  1.7927 -2.5459 -0.4884
   73TIP3    H2  184   5.188   2.047   3.909  1.9866 -2.7487 -0.6863
   74TIP3   OH2  185   6.575   5.775   0.659  0.0634 -0.2389  0.0842
   74TIP3    H1  186   6.580   5.758   0.565  2.1866  0.5287  0.0071
   74TIP3    H2  187   6.503   5.836   0.669  0.3276  0.3037 -1.1710
   75TIP3   OH2  188   5.539   3.383   3.118  0.1322 -0.1384  0.3115
   75TIP3    H1  189   5.509   3.470   3.145 -0.5351  0.0163 -0.8690
   75TIP3    H2  190   5.607   3.361   3.181  0.2447  1.1929  0.6925
   76TIP3   OH2  191   2.384   5.922   2.604 -0.1655  0.6791  0.4651
   76TIP3    H1  192   2.412   5.831   2.614  0.3570  0.8049  0.1670
   76TIP3    H2  193   2.459   5.967   2.565 -1.2282  0.7431 -1.6740
   77TIP3   OH2  194   6.006   5.587   1.500  0.4456  0.2336  0.3486
   77TIP3    H1  195   6.025   5.585   1.406  1.4068  0.5479  0.5216
   77TIP3    H2  196   5.918   5.552   1.507  1.0145 -1.4981 -0.5141
   78TIP3   OH2  197   4.857   3.881   5.127 -0.0893  0.7151 -0.0224
   78TIP3    H1  198   4.944   3.881   5.087  0.6979  1.3618  1.5871
   78TIP3    H2  199   4.798   3.851   5.057  1.1748  1.8422 -1.6459
   79TIP3   OH2  200   3.038   0.030   2.921 -0.4743  0.2122  0.4917
   79TIP3    H1  201   3.128   0.050   2.895 -0.4241  0.2066  0.6634
   79TIP3    H2  202   3.043   0.012   3.015 -0.4227 -1.1460  0.2548
   80TIP3   OH2  203   3.019   6.795   2.192 -0.3217  0.3771  0.3455
   80TIP3    H1  204   2.974   6.796   2.277 -0.6594  1.3001  0.1597
   80TIP3    H2  205   3.099   6.745   2.208 -1.8270 -2.1481  0.4545
   81TIP3   OH2  206   1.792   3.300   0.830 -0.2309  0.1863 -0.8460
   81TIP3    H1  207   1.866   3.334   0.779 -0.7127  2.9510  0.1745
   81TIP3    H2  208   1.831   3.275   0.914 -0.5267  2.4952  0.0259
   82TIP3   OH2  209   0.162   1.165   3.967 -0.1393  0.2760 -0.1144
   82TIP3    H1  210   0.147   1.122   3.883  0.5051 -0.9605  0.3791
   82TIP3    H2  211   0.075   1.196   3.993 -0.8366 -1.5894 -0.0377
   83TIP3   OH2  212   6.206   2.844   3.501  0.0461 -0.1572  0.1084
   83TIP3    H1  213   6.171   2.779   3.440 -0.4312  0.1544  0.0400
   83TIP3    H2  214   6.278   2.800   3.545 -0.6120 -0.9103  0.4441
   84TIP3   OH2  215   1.877   0.591   2.380 -0.3631 -0.6397  0.5896
   84TIP3    H1  216   1.824   0.606   2.301 -1.6924 -1.0252  1.3771
   84TIP3    H2  217   1.950   0.538   2.349 -0.4893 -0.2063 -0.5133
   85TIP3   OH2  218   3.563   4.103   0.346 -0.3834  0.8372 -0.0623
   85TIP3    H1  219   3.651   4.116   0.310 -0.1481  0.7453  0.4727
   85TIP3    H2  220   3.574   4.109   0.441 -0.9386  0.7234  0.0158
   86TIP3   OH2  221   3.788   6.528   2.522  0.1676  0.2067 -0.2531
   86TIP3    H1  222   3.882   6.530   2.506  0.3831  0.3070  0.9664
   86TIP3    H2  223   3.776   6.459   2.588 -0.4872  0.8634  0.3279
   87TIP3   OH2  224   3.173   6.623   2.957  0.1101 -0.4714  0.2192
   87TIP3    H1  225   3.127   6.597   2.878 -0.7168 -3.0002  1.4266
   87TIP3    H2  226   3.108   6.618   3.026  0.4597  2.9730  1.0071
   88TIP3   OH2  227   0.566   1.470   3.871  0.0035  0.3304  0.0085
   88TIP3    H1  228   0.632   1.437   3.811  1.1363  2.0283  0.2455
   88TIP3    H2  229   0.559   1.403   3.939  0.8253 -0.2780 -0.4951
   89TIP3   OH2  230   2.603   4.344   4.295 -0.3340 -0.2356 -0.0817
   89TIP3    H1  231   2.624   4.434   4.270  0.1078 -0.1905  0.4234
   89TIP3    H2  232   2.677   4.316   4.349  0.4328 -1.5609 -1.7385
   90TIP3   OH2  233   4.380   2.575   5.575 -0.1761  0.3303  0.0253
   90TIP3    H1  234   4.365   2.630   5.652 -0.1627 -0.0641  0.3067
   90TIP3    H2  235   4.352   2.630   5.501 -0.2165  0.6961  0.3105
   91TIP3   OH2  236   3.319   3.764   4.973 -0.4609 -0.3755  0.3154
   91TIP3    H1  237   3.302   3.832   4.907 -0.8407 -0.1809  0.6101
   91TIP3    H2  238   3.272   3.688   4.939 -0.3681 -0.3767  0.1872
   92TIP3   OH2  239   2.540   4.860   0.425  0.6628  0.0520 -0.2947
   92TIP3    H1  240   2.585   4.777   0.408  1.6777  0.8687 -1.7834
   92TIP3    H2  241   2.583   4.923   0.368 -0.1892  1.5937  0.6990
   93TIP3   OH2  242   3.615   1.999   2.690 -0.0959  0.9272  0.2029
   93TIP3    H1  243   3.520   2.012   2.683 -0.0349  0.5962 -1.5167
   93TIP3    H2  244   3.625   1.906   2.707 -0.0482  0.8502 -0.2573
   94TIP3   OH2  245   4.674   2.872   2.460 -0.3581 -0.2347  0.1191
   94TIP3    H1  246   4.696   2.916   2.378  0.3184 -0.0040  0.4118
   94TIP3    H2  247   4.691   2.780   2.443 -1.1380 -0.3100 -0.2899
   95TIP3   OH2  248   1.190   0.476   3.804 -0.3899  0.4907  0.4664
   95TIP3    H1  249   1.167   0.515   3.889 -0.7894  0.7724  0.2316
   95TIP3    H2  250   1.127   0.513   3.743  1.3465  2.0997 -0.4095
   96TIP3   OH2  251   6.608   0.856   5.392  0.2995 -0.0846 -0.2024
   96TIP3    H1  252   6.660   0.797   5.338  0.5921 -0.2015  0.2052
   96TIP3    H2  253   6.624   0.943   5.355  0.3348 -0.1836 -0.4266
   97TIP3   OH2  254   5.953   3.016   4.247 -0.7013 -0.0661 -0.6945
   97TIP3    H1  255   5.913   2.969   4.320 -0.7849 -0.3688 -0.9311
   97TIP3    H2  256   5.879   3.063   4.206 -0.4261  1.2241  0.2437
   98TIP3   OH2  257   3.540   0.229   2.041 -0.3598 -0.8320  0.3389
   98TIP3    H1  258   3.603   0.219   1.970  0.9622  2.7096  0.8514
   98TIP3    H2  259   3.587   0.202   2.120  0.2498  0.8395  0.5830
   99TIP3   OH2  260   1.079   0.852   5.189  0.1245 -0.1505  0.5539
   99TIP3    H1  261   1.019   0.927   5.186 -0.5254 -0.6337  1.0737
   99TIP3    H2  262   1.161   0.885   5.152 -0.3970  0.5815  0.0247
  100TIP3   OH2  263   0.575   0.768   5.126  0.2236  0.6805 -0.0936
  100TIP3    H1  264   0.651   0.718   5.158 -0.5233  0.5306  1.5418
  100TIP3    H2  265   0.573   0.750   5.032  0.5863 -1.5483  0.2655
  101TIP3   OH2  266   1.305   6.427   4.502  0.1198 -0.6886  0.3171
  101TIP3    H1  267   1.326   6.466   4.417  2.8924 -0.1481  1.1432
  101TIP3    H2  268   1.210   6.433   4.508 -0.2150 -1.0612 -2.8695
  102TIP3   OH2  269   5.012   3.481   1.565 -0.0437 -0.0857 -0.0090
  102TIP3    H1  270   5.071   3.424   1.515 -0.5696 -1.5852  1.0127
  102TIP3    H2  271   5.070   3.540   1.612  0.5472 -0.2194 -0.5533
  103TIP3   OH2  272   2.297   1.525   4.422  0.4119 -0.1365  0.2065
  103TIP3    H1  273   2.310   1.578   4.343 -0.2446 -1.2082 -0.6292
  103TIP3    H2  274   2.385   1.518   4.460  0.7137  0.4882 -0.3514
  104TIP3   OH2  275   3.161   2.771   2.888 -0.2927 -0.2893  0.0980
  104TIP3    H1  276   3.220   2.713   2.936 -0.3339 -0.4337 -0.0264
  104TIP3    H2  277   3.085   2.782   2.945 -0.6786 -1.0665 -0.2584
  105TIP3   OH2  278   3.339   4.229   0.269  0.1108  0.1091 -0.6526
  105TIP3    H1  279   3.326   4.165   0.199 -0.6985 -1.1490  0.6016
  105TIP3    H2  280   3.411   4.194   0.321 -1.9308 -1.1899  1.4878
  106TIP3   OH2  281   5.428   3.540   1.324 -0.0547 -0.3217 -0.1651
  106TIP3    H1  282   5.483   3.498   1.258  1.7402 -1.2723  1.8531
  106TIP3    H2  283   5.340   3.541   1.284  0.6613 -2.1699 -1.9565
  107TIP3   OH2  284   0.570   6.734   1.620  0.0362 -0.2015  0.1677
  107TIP3    H1  285   0.578   6.704   1.529 -0.6262  0.4116 -0.1010
  107TIP3    H2  286   0.524   6.663   1.664 -1.2808  0.2636 -0.4044
  108TIP3   OH2  287   3.277   3.692   3.445  0.3805  0.3208  0.7983
  108TIP3    H1  288   3.342   3.744   3.397 -0.2895  0.7924  0.3915
  108TIP3    H2  289   3.197   3.743   3.440 -0.1004 -0.3949  1.0539
  109TIP3   OH2  290   5.487   4.039   4.023 -0.2147 -0.5802 -0.0742
  109TIP3    H1  291   5.524   4.019   4.110  0.4639 -2.3826 -0.7341
  109TIP3    H2  292   5.550   4.002   3.962 -1.1119 -0.0637 -1.3389
  110TIP3   OH2  293   2.825   5.627   2.317 -0.0288  0.0682  0.1525
  110TIP3    H1  294   2.795   5.578   2.241 -1.1295  1.4557 -0.3565
  110TIP3    H2  295   2.878   5.565   2.367 -3.8533 -2.7061  1.2295
  111TIP3   OH2  296   2.292   2.558   1.098 -0.1477 -0.6007  0.2775
  111TIP3    H1  297   2.268   2.648   1.119  2.5674  0.3426 -0.1731
  111TIP3    H2  298   2.241   2.536   1.020 -1.6497  0.1198  1.0366
  112TIP3   OH2  299   2.094   5.874   3.492  0.1478 -0.2693 -0.4510
  112TIP3    H1  300   2.094   5.839   3.581 -0.1229 -0.8823 -0.6891
  112TIP3    H2  301   2.170   5.933   3.490 -0.0457  0.0213  0.2838
  113TIP3   OH2  302   6.935   6.001   2.032  0.3556 -0.0879 -0.0982
  113TIP3    H1  303   6.854   5.953   2.013  0.2916 -0.5776  1.2558
  113TIP3    H2  304   6.979   6.009   1.948 -1.0253  0.0500 -0.8327
  114TIP3   OH2  305   3.281   3.219   3.455  0.0747  0.1023 -0.4169
  114TIP3    H1  306   3.231   3.213   3.373 -2.8335 -0.4316  1.2397
  114TIP3    H2  307   3.321   3.132   3.465  0.0671  0.0217 -1.0276
  115TIP3   OH2  308   7.011   2.033   0.225 -0.0683 -0.6063 -0.0687
  115TIP3    H1  309   7.063   2.005   0.150  0.4237  0.7790 -0.2809
  115TIP3    H2  310   7.066   2.011   0.301  1.5068  1.9584 -0.3331
  116TIP3   OH2  311   5.093   6.590   3.520  0.2023  0.3243  0.7329
  116TIP3    H1  312   5.133   6.677   3.521 -2.0027  1.3982  2.0437
  116TIP3    H2  313   5.107   6.559   3.430 -0.1824  2.6230 -0.2023
  117TIP3   OH2  314   4.386   3.384   2.917 -0.2890 -0.5080  0.3976
  117TIP3    H1  315   4.349   3.314   2.862  0.4074 -0.3655 -0.2789
  117TIP3    H2  316   4.420   3.339   2.994  1.8006 -1.2044 -0.8603
  118TIP3   OH2  317   5.274   1.863   1.902 -0.0619 -0.0665  0.3469
  118TIP3    H1  318   5.260   1.857   1.996  0.2824 -0.4571  0.3782
  118TIP3    H2  319   5.283   1.772   1.873 -0.3920  0.0384 -0.0986
  119TIP3   OH2  320   5.170   1.269   5.271 -0.4634 -0.0124 -0.0140
  119TIP3    H1  321   5.114   1.231   5.204 -1.2441  1.6511 -0.3539
  119TIP3    H2  322   5.235   1.320   5.223  1.0180 -1.4223  0.4028
  120TIP3   OH2  323   6.201   6.105   3.402 -0.5648  0.2572 -0.0569
  120TIP3    H1  324   6.207   6.179   3.462 -1.4568  0.3296 -0.0494
  120TIP3    H2  325   6.206   6.028   3.459  0.9341  0.2781 -0.1129
  121TIP3   OH2  326   5.784   1.765   1.008  0.4113 -0.0935 -0.4027
  121TIP3    H1  327   5.834   1.703   0.954  0.3840 -0.2182 -0.2870
  121TIP3    H2  328   5.784   1.846   0.958 -0.2095 -0.4008 -0.9278
  122TIP3   OH2  329   6.254   2.714   5.213 -0.2921 -0.1375 -0.2726
  122TIP3    H1  330   6.325   2.753   5.162  0.9470 -1.4685  0.3625
  122TIP3    H2  331   6.266   2.748   5.301 -1.1641  0.5142 -0.3868
  123TIP3   OH2  332   3.372   0.467   5.364 -0.7642 -0.1341  0.8570
  123TIP3    H1  333   3.369   0.519   5.444 -1.8652  1.4234 -0.1408
  123TIP3    H2  334   3.294   0.411   5.368  0.2826 -1.5952  1.8072
  124TIP3   OH2  335   7.027   4.598   2.498 -0.0619 -0.0908 -0.1002
  124TIP3    H1  336   7.050   4.659   2.568  0.5879 -0.2609 -0.1553
  124TIP3    H2  337   7.081   4.625   2.423 -0.3460 -0.2476 -0.3628
  125TIP3   OH2  338   5.945   1.370   4.674 -0.1151  0.1460 -0.6163
  125TIP3    H1  339   5.879   1.311   4.638  1.2725 -0.9992 -1.3813
  125TIP3    H2  340   5.896   1.447   4.702 -1.6140 -0.1541 -2.2953
  126TIP3   OH2  341   6.819   0.708   2.584  0.3627  0.5465  0.0446
  126TIP3    H1  342   6.753   0.746   2.642 -0.0972  0.3897 -0.3733
  126TIP3    H2  343   6.841   0.625   2.626 -1.1666 -0.3468 -0.8152
  127TIP3   OH2  344   4.613   6.035   5.424 -0.6488  0.5742  0.1562
  127TIP3    H1  345   4.599   6.034   5.329 -0.8450  0.5015  0.1866
  127TIP3    H2  346   4.526   6.046   5.461 -1.2179 -3.6073  0.4839
  128TIP3   OH2  347   5.575   2.262   1.152 -0.7353 -0.1679  0.5387
  128TIP3    H1  348   5.589   2.263   1.058 -1.3310 -0.9682  0.4242
  128TIP3    H2  349   5.480   2.268   1.163 -0.6581  0.1849  1.1007
  129TIP3   OH2  350   4.674   2.954   3.039 -0.1575  0.0086  0.0382
  129TIP3    H1  351   4.650   2.947   2.947  1.0819 -1.1177 -0.2214
  129TIP3    H2  352   4.768   2.968   3.039 -0.2125  0.4944  1.1321
  130TIP3   OH2  353   1.522   1.786   3.412  0.0042  0.3250 -0.4825
  130TIP3    H1  354   1.481   1.729   3.347 -0.4377  0.6105 -0.4609
  130TIP3    H2  355   1.451   1.810   3.471  0.0248  1.4707 -0.9045
  131TIP3   OH2  356   1.728   0.913   2.037  0.2091  0.1644  0.7083
  131TIP3    H1  357   1.796   0.966   2.077  1.5501 -0.8320 -0.1828
  131TIP3    H2  358   1.647   0.941   2.080  1.1296  1.5619  1.5880
  132TIP3   OH2  359   2.974   5.513   0.390 -0.2019 -0.0301 -0.1624
  132TIP3    H1  360   3.042   5.562   0.436  0.3203 -2.2223  1.5844
  132TIP3    H2  361   3.015   5.490   0.306  0.8250 -0.3964  0.4194
  133TIP3   OH2  362   1.723   4.031   1.522  0.0977 -0.7641 -0.1853
  133TIP3    H1  363   1.714   4.010   1.615  1.2911 -0.9709 -0.1056
  133TIP3    H2  364   1.817   4.021   1.504  0.2246  1.3046 -0.9095
  134TIP3   OH2  365   0.013   1.090   2.572  0.1239 -0.0167 -0.5472
  134TIP3    H1  366   0.035   1.056   2.659 -0.3982  1.4116  0.1674
  134TIP3    H2  367   0.044   1.022   2.512 -0.9552 -1.7879  0.7947
  135TIP3   OH2  368   1.587   5.293   1.953 -0.1901  0.6222  0.4200
  135TIP3    H1  369   1.494   5.315   1.945 -0.5388 -1.3961 -2.4857
  135TIP3    H2  370   1.629   5.339   1.879  0.7166 -0.2878  0.3488
  136TIP3   OH2  371   0.724   3.570   2.877 -0.4635 -0.3992  0.8042
  136TIP3    H1  372   0.778   3.649   2.884  0.4078 -1.0543  1.7397
  136TIP3    H2  373   0.635   3.603   2.866 -0.2313  0.7310  2.0310
  137TIP3   OH2  374   5.235   6.428   1.506  0.5511  0.6575  0.1690
  137TIP3    H1  375   5.169   6.496   1.512 -0.5325 -0.2814 -0.6271
  137TIP3    H2  376   5.286   6.450   1.428  0.6511  0.9230  0.3072
  138TIP3   OH2  377   3.846   0.407   0.932 -0.2256  0.5640  0.3013
  138TIP3    H1  378   3.809   0.419   0.844  0.9329 -0.3776 -0.3518
  138TIP3    H2  379   3.813   0.321   0.960  1.5772 -0.4027 -0.3954
  139TIP3   OH2  380   7.131   2.623   5.822  0.0152 -0.3084 -0.2692
  139TIP3    H1  381   7.104   2.606   5.912  2.3364 -0.1968  0.5157
  139TIP3    H2  382   7.203   2.561   5.807 -0.3172 -0.3106 -2.0533
  140TIP3   OH2  383   2.485   0.586   3.708 -0.3795  0.2992 -0.4135
  140TIP3    H1  384   2.405   0.638   3.706 -0.2904  0.4261 -2.5890
  140TIP3    H2  385   2.552   0.646   3.741 -0.7782  0.7887 -0.4953
  141TIP3   OH2  386   4.056   0.279   2.353  0.4576 -0.0077 -0.3813
  141TIP3    H1  387   4.038   0.185   2.344  1.2523 -0.3105  0.8932
  141TIP3    H2  388   4.115   0.299   2.280  0.7151 -0.6277 -0.3514
  142TIP3   OH2  389   2.600   5.412   5.168 -0.3666  0.2840  0.7823
  142TIP3    H1  390   2.541   5.380   5.100  0.4730  1.2965 -0.4919
  142TIP3    H2  391   2.549   5.411   5.248 -1.4501 -0.7896  0.0972
  143TIP3   OH2  392   3.128   2.273   1.480 -0.1522 -0.4821 -0.2794
  143TIP3    H1  393   3.151   2.193   1.529 -0.4188 -0.5648 -0.2889
  143TIP3    H2  394   3.204   2.330   1.491  0.6342 -1.2626 -1.4150
  144TIP3   OH2  395   6.838   1.328   4.037  0.1318  0.4714 -0.2806
  144TIP3    H1  396   6.838   1.353   4.130  1.5356 -2.0579  0.5017
  144TIP3    H2  397   6.773   1.258   4.032  0.1901  0.4822 -1.1860
  145TIP3   OH2  398   5.698   4.006   3.820  0.0272  0.3467  0.0980
  145TIP3    H1  399   5.676   4.081   3.766  0.3718  0.1528 -0.3279
  145TIP3    H2  400   5.648   3.933   3.782  3.1969 -0.7021 -2.5785
  146TIP3   OH2  401   1.021   6.258   3.092  0.1350 -0.1568  0.3825
  146TIP3    H1  402   1.075   6.326   3.131  0.7415 -0.4794  0.1230
  146TIP3    H2  403   0.932   6.277   3.123  0.4096  0.3193  0.8984
  147TIP3   OH2  404   3.943   6.463   0.990  0.1567 -0.4091  0.1811
  147TIP3    H1  405   3.886   6.421   0.927 -0.6937  0.0046  0.6564
  147TIP3    H2  406   3.913   6.431   1.075  0.9804 -0.5955  0.4156
  148TIP3   OH2  407   6.696   6.559   5.203 -0.5499  0.2626  0.6238
  148TIP3    H1  408   6.703   6.641   5.252 -1.6597  0.6691  0.1497
  148TIP3    H2  409   6.786   6.527   5.196  0.0892  2.1201 -0.3346
  149TIP3   OH2  410   6.810   1.764   0.241  0.2246  0.0457  1.0507
  149TIP3    H1  411   6.801   1.749   0.146 -0.9583 -2.7641  1.5025
  149TIP3    H2  412   6.750   1.836   0.259 -2.2704 -1.6333  0.0746
  150TIP3   OH2  413   2.938   2.374   0.800 -0.3568  0.0887  0.2557
  150TIP3    H1  414   2.861   2.319   0.784 -1.4779  1.3919  0.9787
  150TIP3    H2  415   2.989   2.324   0.863 -1.0395 -0.4101  0.4348
  151TIP3   OH2  416   2.501   0.707   2.558  0.3974 -0.0586  0.3642
  151TIP3    H1  417   2.552   0.684   2.480 -0.9430 -1.2314 -0.2073
  151TIP3    H2  418   2.460   0.791   2.536  0.1191 -0.3254 -0.1582
  152TIP3   OH2  419   6.246   5.653   0.643 -0.0433 -1.0832  0.1123
  152TIP3    H1  420   6.243   5.558   0.646 -0.0079 -1.0616  1.1930
  152TIP3    H2  421   6.317   5.677   0.703  0.9338 -0.4215 -1.2542
  153TIP3   OH2  422   3.274   1.412   0.655  0.0968 -0.9027  0.6448
  153TIP3    H1  423   3.267   1.505   0.680  1.4096 -0.6717  0.2047
  153TIP3    H2  424   3.367   1.393   0.658  0.0775 -1.6007 -1.4165
  154TIP3   OH2  425   3.755   6.449   4.762 -0.5810 -0.1982  0.0803
  154TIP3    H1  426   3.677   6.445   4.708  0.2906  0.3796 -1.2795
  154TIP3    H2  427   3.755   6.366   4.811 -1.0927 -1.0091 -1.2432
  155TIP3   OH2  428   1.084   5.526   1.842  0.3205 -1.0507 -0.5297
  155TIP3    H1  429   1.069   5.460   1.910 -1.6873 -0.0630  0.0460
  155TIP3    H2  430   1.014   5.512   1.779  0.9474 -0.6102 -1.3475
  156TIP3   OH2  431   4.359   4.709   2.152  0.0743 -0.5880 -0.0489
  156TIP3    H1  432   4.351   4.798   2.186 -2.7065 -0.2070 -1.4615
  156TIP3    H2  433   4.356   4.654   2.230  0.6446  0.4838  0.7640
  157TIP3   OH2  434   6.521   1.353   3.465  0.2651  0.0899 -0.3332
  157TIP3    H1  435   6.439   1.386   3.502  1.3389  1.7365  0.7029
  157TIP3    H2  436   6.524   1.261   3.491 -0.7431  0.2982  0.5875
  158TIP3   OH2  437   2.365   6.195   4.285  0.1587  0.5499  0.3884
  158TIP3    H1  438   2.453   6.221   4.257  0.6906 -0.0653  1.3992
  158TIP3    H2  439   2.336   6.266   4.342  1.2689 -0.5733  2.4753
  159TIP3   OH2  440   3.961   6.142   1.175  0.2659 -0.7105  0.2785
  159TIP3    H1  441   3.982   6.084   1.249 -0.4645 -0.9027  0.3517
  159TIP3    H2  442   3.866   6.152   1.180  0.2966 -0.1556 -0.2231
  160TIP3   OH2  443   5.568   0.569   4.382 -0.0386  0.0312 -0.8001
  160TIP3    H1  444   5.485   0.538   4.419 -0.7459  3.0984  0.5182
  160TIP3    H2  445   5.633   0.508   4.416 -1.2874 -0.0645  1.6622
  161TIP3   OH2  446   5.390   2.616   3.785  0.1594 -0.0130  0.0556
  161TIP3    H1  447   5.328   2.600   3.856  0.0919 -0.0545 -0.0129
  161TIP3    H2  448   5.468   2.567   3.810  0.4945  0.7715  0.5965
  162TIP3   OH2  449   5.454   1.297   3.535 -0.4142  0.2859  0.3687
  162TIP3    H1  450   5.535   1.319   3.489 -0.0905  1.6119  1.5208
  162TIP3    H2  451   5.483   1.258   3.617 -0.9865 -1.2007 -0.1032
  163TIP3   OH2  452   6.459   4.065   0.445 -0.5758  0.2002  0.4776
  163TIP3    H1  453   6.537   4.076   0.392 -0.2508 -0.1357  0.8749
  163TIP3    H2  454   6.444   4.151   0.484 -0.9189  0.4933 -0.2869
  164TIP3   OH2  455   0.111   2.288   3.181  0.1037 -0.0177  0.0560
  164TIP3    H1  456   0.166   2.210   3.177 -1.5042 -1.1448 -1.9368
  164TIP3    H2  457   0.098   2.314   3.090 -1.0467  1.3708  0.5773
  165TIP3   OH2  458   1.690   2.989   4.468 -0.1346  0.1262 -0.2571
  165TIP3    H1  459   1.641   2.907   4.460  0.4312 -0.1605 -0.8918
  165TIP3    H2  460   1.775   2.963   4.503 -0.2878  0.5739  0.4697
  166TIP3   OH2  461   3.004   3.821   2.577 -0.3685 -0.4982  0.3748
  166TIP3    H1  462   3.004   3.916   2.570 -1.5695 -0.5721 -2.0038
  166TIP3    H2  463   3.093   3.795   2.553 -0.4558 -0.0053 -0.5365
  167TIP3   OH2  464   4.974   1.253   4.495 -0.0168  0.7417 -0.0873
  167TIP3    H1  465   4.894   1.300   4.517  0.2808  1.6073 -0.8028
  167TIP3    H2  466   4.949   1.194   4.424 -0.2465  0.2679  0.3824
  168TIP3   OH2  467   5.642   2.895   4.984 -0.6733  0.0392  0.0045
  168TIP3    H1  468   5.676   2.826   4.926 -1.2456  1.0053 -1.5556
  168TIP3    H2  469   5.663   2.865   5.072  1.2335 -0.9743 -0.7404
  169TIP3   OH2  470   0.717   4.273   3.912  0.1226  0.0286 -0.1384
  169TIP3    H1  471   0.755   4.198   3.867 -0.3549 -0.3469  0.0717
  169TIP3    H2  472   0.722   4.250   4.005  0.6660  0.5911 -0.0261
  170TIP3   OH2  473   3.581   3.000   0.212 -0.6506  0.8252  0.4786
  170TIP3    H1  474   3.534   3.083   0.204 -0.9185  0.5636 -0.8415
  170TIP3    H2  475   3.603   2.976   0.122  1.2297  0.4854  0.9969
  171TIP3   OH2  476   0.013   3.371   2.842  0.4420 -0.0804 -0.1680
  171TIP3    H1  477   0.104   3.402   2.844  0.7727 -1.0202  1.6549
  171TIP3    H2  478   0.020   3.281   2.810 -0.1373  0.5545 -2.1980
  172TIP3   OH2  479   6.009   6.039   1.658  0.1099  0.4300  0.3753
  172TIP3    H1  480   6.072   6.110   1.665 -0.2809  0.6864  1.3999
  172TIP3    H2  481   6.059   5.960   1.675  0.5181  0.4568 -0.6335
  173TIP3   OH2  482   5.107   4.542   3.410  0.2724 -0.0793  0.8236
  173TIP3    H1  483   5.185   4.596   3.396 -0.0500 -0.1040 -1.3743
  173TIP3    H2  484   5.139   4.452   3.401 -0.0304 -0.0817 -0.3620
  174TIP3   OH2  485   1.482   1.009   0.261 -0.4545 -0.1520  0.0815
  174TIP3    H1  486   1.415   1.076   0.274  0.8612  1.6300 -1.7690
  174TIP3    H2  487   1.513   0.989   0.350 -1.4387  1.0988  0.7394
  175TIP3   OH2  488   0.282   5.620   5.673  0.1017  0.2341 -0.0782
  175TIP3    H1  489   0.202   5.569   5.664 -0.4628  0.9622  0.6736
  175TIP3    H2  490   0.271   5.694   5.614  0.4613  0.0621 -0.3687
  176TIP3   OH2  491   5.565   2.066   5.020  0.2324  0.3896 -0.7573
  176TIP3    H1  492   5.515   2.145   4.997  1.3379  1.5324  0.5820
  176TIP3    H2  493   5.641   2.067   4.962 -0.0740 -0.0552 -1.1743
  177TIP3   OH2  494   2.218   2.914   3.831 -0.2344 -0.1854  0.2754
  177TIP3    H1  495   2.297   2.882   3.787 -1.2326 -1.1263 -0.9183
  177TIP3    H2  496   2.148   2.904   3.765 -1.4608  0.0033  1.5007
  178TIP3   OH2  497   5.424   5.628   2.271 -0.3558 -0.3149  0.7490
  178TIP3    H1  498   5.461   5.643   2.358  0.1646  0.3356  0.4204
  178TIP3    H2  499   5.445   5.707   2.221  0.8415 -1.3494 -0.4741
  179TIP3   OH2  500   6.840   5.393   5.448  0.2128  0.2078  0.5044
  179TIP3    H1  501   6.869   5.467   5.501  0.0326  0.0059  0.8904
  179TIP3    H2  502   6.818   5.325   5.512  1.0432 -0.4312  0.1379
  180TIP3   OH2  503   6.341   4.696   3.416  0.0795 -0.0654  0.0612
  180TIP3    H1  504   6.379   4.617   3.377 -0.6606 -1.2194  1.5268
  180TIP3    H2  505   6.405   4.723   3.482  0.3186  0.5584 -0.4223
  181TIP3   OH2  506   6.193   5.244   4.874 -0.2641 -0.2213 -0.1803
  181TIP3    H1  507   6.161   5.328   4.840  1.1255  0.1206 -0.6946
  181TIP3    H2  508   6.237   5.203   4.800 -0.5820 -1.2386  0.1813
  182TIP3   OH2  509   3.131   2.969   3.471  0.1318 -0.3430 -0.1253
  182TIP3    H1  510   3.039   2.945   3.462  0.2276 -0.4975 -0.8186
  182TIP3    H2  511   3.161   2.982   3.380  0.2979  1.5904  0.1633
  183TIP3   OH2  512   7.113   5.264   1.385  0.6447 -0.2262  0.2124
  183TIP3    H1  513   7.064   5.292   1.307  1.1260  1.3580  0.4333
  183TIP3    H2  514   7.169   5.194   1.355  1.4333  0.9182 -1.0983
  184TIP3   OH2  515   3.861   2.459   0.336  0.2225  0.0762  0.0006
  184TIP3    H1  516   3.872   2.478   0.243  2.6059 -0.4592  0.0993
  184TIP3    H2  517   3.883   2.366   0.344 -1.2229 -0.2214  0.9521
  185TIP3   OH2  518   3.843   3.460   1.822 -0.1702  0.2212 -0.5844
  185TIP3    H1  519   3.764   3.482   1.871  1.2352  0.4838  1.6795
  185TIP3    H2  520   3.869   3.543   1.781 -1.1860  0.0642 -1.6140
  186TIP3   OH2  521   5.394   1.458   3.160 -0.3560  0.0912  0.3549
  186TIP3    H1  522   5.360   1.476   3.248 -0.5423 -0.7260  0.4512
  186TIP3    H2  523   5.429   1.369   3.165  3.7709  1.5224  0.8787
  187TIP3   OH2  524   1.100   1.877   5.575  0.7291 -0.6547  0.1041
  187TIP3    H1  525   1.077   1.853   5.486  2.3315  0.2324 -0.5792
  187TIP3    H2  526   1.192   1.904   5.570  0.6085  0.2078  1.8630
  188TIP3   OH2  527   6.726   4.967   1.584  0.4423  0.0048 -0.5412
  188TIP3    H1  528   6.683   4.884   1.606 -0.0196  0.0813 -1.1488
  188TIP3    H2  529   6.777   4.988   1.662  0.7163 -0.9475 -0.4423
  189TIP3   OH2  530   3.133   1.617   2.182  0.4147  0.1726 -0.1792
  189TIP3    H1  531   3.159   1.525   2.184  0.6366  0.2453  1.0965
  189TIP3    H2  532   3.213   1.665   2.205 -0.3725  0.5066  2.0160
  190TIP3   OH2  533   3.861   2.469   1.997 -0.1231 -0.5482 -0.2112
  190TIP3    H1  534   3.923   2.492   2.067  0.6754  1.2125 -1.4226
  190TIP3    H2  535   3.894   2.515   1.920 -4.4854  3.1907 -0.3057
  191TIP3   OH2  536   4.914   6.117   4.017 -0.6704  0.0015 -0.2834
  191TIP3    H1  537   4.872   6.126   3.931  0.6596 -0.0550 -0.9645
  191TIP3    H2  538   4.963   6.035   4.011 -0.8606 -0.1893  0.6739
  192TIP3   OH2  539   1.311   0.251   0.154 -0.3899  0.1862 -0.3311
  192TIP3    H1  540   1.323   0.221   0.064 -0.5602  1.0720 -0.6598
  192TIP3    H2  541   1.302   0.346   0.146 -0.4691  0.2618  0.6159
  193TIP3   OH2  542   6.433   2.844   4.725  0.3022 -0.4329  0.2800
  193TIP3    H1  543   6.524   2.849   4.695 -0.0435  1.0546 -0.5999
  193TIP3    H2  544   6.408   2.753   4.710  0.7556 -0.2008 -2.2752
  194TIP3   OH2  545   1.528   2.595   4.934 -0.1116  0.1245 -0.4257
  194TIP3    H1  546   1.547   2.567   5.024 -1.5557  0.7733  0.1201
  194TIP3    H2  547   1.579   2.675   4.922 -0.4106  0.3978  0.0698
  195TIP3   OH2  548   1.904   1.561   3.878 -0.3487 -0.5396  0.2041
  195TIP3    H1  549   1.941   1.526   3.797  1.1818 -2.0986  1.4879
  195TIP3    H2  550   1.837   1.497   3.903 -1.9824  0.7816 -0.6119
  196TIP3   OH2  551   1.314   6.393   2.124  0.3320  0.2141  0.1274
  196TIP3    H1  552   1.359   6.309   2.121 -0.3176 -0.1225 -0.4931
  196TIP3    H2  553   1.279   6.405   2.036 -0.2105  0.7898  0.4111
  197TIP3   OH2  554   4.859   2.591   2.607  0.6212  0.4789 -0.6149
  197TIP3    H1  555   4.891   2.681   2.596  0.8284  0.2726 -1.8084
  197TIP3    H2  556   4.785   2.585   2.546  0.4520 -0.0905 -0.3595
  198TIP3   OH2  557   1.855   3.878   0.434  0.3491 -0.0366  0.0511
  198TIP3    H1  558   1.905   3.829   0.369  1.4363  2.1147 -0.8355
  198TIP3    H2  559   1.900   3.963   0.440 -1.2046  0.7356  1.7858
  199TIP3   OH2  560   5.907   3.171   3.588  0.1994 -0.0203 -0.1917
  199TIP3    H1  561   5.957   3.205   3.662  0.1246  1.1081 -0.6437
  199TIP3    H2  562   5.941   3.083   3.574 -0.4260 -0.6050  1.7590
  200TIP3   OH2  563   5.264   1.380   1.080 -0.2418 -0.1854  0.2481
  200TIP3    H1  564   5.278   1.475   1.081  1.4866 -0.4152  1.6263
  200TIP3    H2  565   5.351   1.343   1.068 -0.5490 -1.6133  2.0332
  201TIP3   OH2  566   3.337   2.043   3.596  0.3234  0.1704 -0.4139
  201TIP3    H1  567   3.270   2.094   3.549  1.8173  1.9176 -0.7445
  201TIP3    H2  568   3.375   1.987   3.529 -1.3317 -1.4757 -0.0486
  202TIP3   OH2  569   4.037   0.826   2.014 -0.1905 -0.2872  0.1391
  202TIP3    H1  570   4.016   0.776   2.093 -0.8689  0.8504  0.7051
  202TIP3    H2  571   3.954   0.830   1.966 -0.0859  0.0937 -0.0132
  203TIP3   OH2  572   3.571   0.887   4.152  0.2917 -0.0374 -0.4508
  203TIP3    H1  573   3.510   0.917   4.219 -1.1080 -1.1443 -1.1682
  203TIP3    H2  574   3.618   0.814   4.192  1.4868  1.0945  0.2512
  204TIP3   OH2  575   0.095   2.069   1.437  0.4441  0.0088  0.0459
  204TIP3    H1  576   0.128   2.078   1.526  0.5216 -1.2474  0.1560
  204TIP3    H2  577   0.001   2.053   1.448  0.4141  0.0695 -0.1170
  205TIP3   OH2  578   4.879   4.095   2.164  0.3982 -0.4085  0.0901
  205TIP3    H1  579   4.942   4.133   2.227  0.4556  0.3118 -0.3919
  205TIP3    H2  580   4.856   4.168   2.107  0.0521 -0.9699 -0.4945
  206TIP3   OH2  581   1.529   1.071   5.140 -0.5543  0.0935 -0.6085
  206TIP3    H1  582   1.458   1.019   5.101 -0.6889  0.8999 -1.4787
  206TIP3    H2  583   1.609   1.024   5.115 -0.6834  0.1912 -1.2156
  207TIP3   OH2  584   3.056   1.913   1.003  0.1009  0.2446 -0.0521
  207TIP3    H1  585   3.027   2.001   0.979  0.0648 -0.0901 -1.2901
  207TIP3    H2  586   3.148   1.911   0.978 -0.3370 -0.6342 -1.7681
  208TIP3   OH2  587   5.559   6.581   0.832  0.0283 -0.4346 -0.0439
  208TIP3    H1  588   5.499   6.539   0.770  0.2066 -0.1332 -0.4231
  208TIP3    H2  589   5.517   6.664   0.853 -0.2081 -0.6896  0.5239
  209TIP3   OH2  590   3.665   6.603   1.106  0.0231  0.3312  0.3662
  209TIP3    H1  591   3.698   6.529   1.158  2.6556 -0.2032 -1.8487
  209TIP3    H2  592   3.724   6.676   1.128  0.1913  0.5191 -0.6671
  210TIP3   OH2  593   0.469   3.119   1.834 -0.5909  0.1213 -0.2029
  210TIP3    H1  594   0.517   3.075   1.764  0.0382  0.3777  0.0619
  210TIP3    H2  595   0.446   3.204   1.797 -0.6818  0.0677 -0.2690
  211TIP3   OH2  596   5.955   5.796   2.498 -0.1537 -0.0174 -0.8578
  211TIP3    H1  597   5.916   5.712   2.473 -2.5785  0.9921 -0.7338
  211TIP3    H2  598   5.961   5.793   2.594  0.6931 -0.4017 -0.9129
  212TIP3   OH2  599   1.101   0.877   1.128 -1.2036 -0.3540 -0.3737
  212TIP3    H1  600   1.129   0.819   1.199 -3.0718 -2.2704 -1.0932
  212TIP3    H2  601   1.158   0.855   1.055 -1.1672 -0.4636 -0.3122
  213TIP3   OH2  602   4.644   0.736   2.731  0.0815  0.2011 -0.0449
  213TIP3    H1  603   4.669   0.778   2.649  1.8040  0.5102  0.6022
  213TIP3    H2  604   4.603   0.806   2.783 -0.0279  0.2700 -0.2258
  214TIP3   OH2  605   6.311   5.510   1.519 -1.0410  0.5077  0.6922
  214TIP3    H1  606   6.327   5.432   1.572  0.4056  0.2249 -0.1166
  214TIP3    H2  607   6.215   5.518   1.518 -1.4144 -2.4922 -0.9049
  215TIP3   OH2  608   2.151   4.041   4.950  0.0234  0.0355  0.0808
  215TIP3    H1  609   2.118   4.128   4.927 -0.9735 -0.8120 -1.9649
  215TIP3    H2  610   2.126   3.985   4.876 -0.6586 -2.3195  1.9524
  216TIP3   OH2  611   4.269   2.065   2.329 -0.1925 -0.1803  0.5457
  216TIP3    H1  612   4.314   2.029   2.252 -0.8957 -1.0952  0.5492
  216TIP3    H2  613   4.210   1.995   2.357 -2.6407  1.4298 -0.2918
  217TIP3   OH2  614   6.016   6.696   4.647 -0.0872  0.0686 -0.5776
  217TIP3    H1  615   5.970   6.779   4.634  0.7788  0.3331 -2.1977
  217TIP3    H2  616   6.106   6.714   4.623  0.1321 -1.3338 -0.9118
  218TIP3   OH2  617   7.103   6.705   5.656  0.0164 -0.3329  0.6038
  218TIP3    H1  618   7.156   6.649   5.713  0.9978  0.8726  0.9305
  218TIP3    H2  619   7.079   6.779   5.711 -2.0369 -0.8279  0.4475
  219TIP3   OH2  620   5.900   3.000   0.546 -0.1091 -0.5043 -0.5835
  219TIP3    H1  621   5.953   3.005   0.466 -0.8692 -2.6941 -1.3175
  219TIP3    H2  622   5.815   2.966   0.516 -0.4858 -1.1659  1.1233
  220TIP3   OH2  623   2.145   5.265   4.781  0.5699 -0.1640 -0.2578
  220TIP3    H1  624   2.100   5.349   4.787  1.1732  0.2644 -1.3603
  220TIP3    H2  625   2.238   5.288   4.779  0.7079 -0.6374 -2.9010
  221TIP3   OH2  626   6.527   3.776   0.891  0.4000 -0.3036 -0.0071
  221TIP3    H1  627   6.534   3.779   0.796 -0.1741 -1.0117 -0.0863
  221TIP3    H2  628   6.483   3.858   0.914 -0.7920 -0.7673 -0.5108
  222TIP3   OH2  629   1.516   6.593   4.040  0.2550  0.3386  0.2168
  222TIP3    H1  630   1.523   6.645   3.961 -0.4198 -1.0101 -0.7705
  222TIP3    H2  631   1.581   6.524   4.030  0.0336  0.0416  0.7373
  223TIP3   OH2  632   4.394   6.017   0.695 -0.1763 -0.1335  0.1717
  223TIP3    H1  633   4.366   5.983   0.780 -0.0633  0.9267  0.6456
  223TIP3    H2  634   4.489   6.023   0.701 -0.3320  2.8847  1.1689
  224TIP3   OH2  635   1.204   6.539   2.584  0.1699  0.2441  0.1492
  224TIP3    H1  636   1.221   6.445   2.581  3.6531  0.7279  0.1193
  224TIP3    H2  637   1.219   6.564   2.675  2.2287  1.1302 -0.3814
  225TIP3   OH2  638   5.740   6.266   2.591  0.0139  0.2525  0.1131
  225TIP3    H1  639   5.729   6.222   2.507 -1.9588  0.5563  0.1714
  225TIP3    H2  640   5.834   6.261   2.608  0.5433  0.6009 -2.3131
  226TIP3   OH2  641   1.302   2.842   5.477 -0.2400 -0.6712  0.0198
  226TIP3    H1  642   1.378   2.783   5.480 -0.9091 -1.5244  1.1223
  226TIP3    H2  643   1.289   2.869   5.568 -1.1051 -0.3265 -0.1961
  227TIP3   OH2  644   0.534   6.125   5.804 -0.3868 -0.1690 -0.0286
  227TIP3    H1  645   0.469   6.136   5.735 -0.4480  1.3670  0.2330
  227TIP3    H2  646   0.548   6.031   5.809 -0.2320 -0.3164 -2.2527
  228TIP3   OH2  647   1.592   3.627   1.918 -0.5940  0.3713 -0.4735
  228TIP3    H1  648   1.602   3.544   1.872 -0.7461 -2.0285  3.4157
  228TIP3    H2  649   1.501   3.653   1.902 -0.6914 -0.4266 -1.3072
  229TIP3   OH2  650   1.889   2.683   2.082 -0.6907  0.1108 -0.6982
  229TIP3    H1  651   1.905   2.716   1.993  0.1845  2.2146  0.1600
  229TIP3    H2  652   1.804   2.639   2.077 -1.0744  0.9736 -2.3831
  230TIP3   OH2  653   1.747   6.459   4.555 -0.4458 -0.2436  0.2762
  230TIP3    H1  654   1.719   6.525   4.618 -0.4370  1.6228 -1.5283
  230TIP3    H2  655   1.727   6.498   4.470  1.8184 -1.5256 -0.9592
  231TIP3   OH2  656   2.787   0.743   2.749 -0.0881 -0.3318  0.0448
  231TIP3    H1  657   2.797   0.749   2.654  0.6573 -0.2908  0.1190
  231TIP3    H2  658   2.724   0.812   2.771  0.0798 -0.0397 -0.3704
  232TIP3   OH2  659   2.984   2.533   2.002 -0.1413  0.0998  0.1891
  232TIP3    H1  660   3.044   2.583   2.057 -0.1239 -0.1652  0.4164
  232TIP3    H2  661   3.037   2.459   1.971 -0.1137  0.3175 -0.2892
  233TIP3   OH2  662   5.780   2.057   5.224 -0.2161  0.4136  0.3820
  233TIP3    H1  663   5.721   2.048   5.148  0.6919  1.0905 -0.4169
  233TIP3    H2  664   5.849   1.993   5.208  1.1307  2.0304 -0.4680
  234TIP3   OH2  665   5.459   1.540   4.545 -0.1137  0.2909  0.6915
  234TIP3    H1  666   5.416   1.465   4.585 -0.2740 -0.1720 -0.3109
  234TIP3    H2  667   5.526   1.502   4.489 -0.1707  0.8875  0.2030
  235TIP3   OH2  668   2.102   2.154   1.643  0.5612 -0.1276  0.1564
  235TIP3    H1  669   2.176   2.209   1.617  0.3554 -0.2010 -0.6078
  235TIP3    H2  670   2.120   2.069   1.603 -0.6179  0.2385 -1.2347
  236TIP3   OH2  671   4.212   6.480   4.451 -0.1933 -0.0874  0.8531
  236TIP3    H1  672   4.269   6.408   4.425  0.6251  0.9478 -0.3003
  236TIP3    H2  673   4.200   6.531   4.372 -0.6344  1.1477  1.6866
  237TIP3   OH2  674   1.771   1.733   2.978 -0.1519 -0.8145 -0.1606
  237TIP3    H1  675   1.821   1.799   3.026 -0.3500 -1.8692  1.5792
  237TIP3    H2  676   1.787   1.652   3.025 -3.7531 -1.1798  0.7572
  238TIP3   OH2  677   1.302   0.390   4.532  0.3004  0.1762  0.2017
  238TIP3    H1  678   1.222   0.350   4.500  0.1047  0.6128  0.1371
  238TIP3    H2  679   1.371   0.327   4.512 -0.0017 -0.1114  0.0804
  239TIP3   OH2  680   4.853   4.779   0.017  0.2414  0.0831 -0.0987
  239TIP3    H1  681   4.864   4.873   0.029 -1.0514  0.2424  0.0504
  239TIP3    H2  682   4.758   4.766   0.019  0.4038 -1.2393  0.0076
  240TIP3   OH2  683   6.266   3.441   5.519  0.1764  0.9575 -0.4208
  240TIP3    H1  684   6.220   3.437   5.435  2.9919 -1.6609 -2.0500
  240TIP3    H2  685   6.268   3.535   5.541 -2.8399  1.4859 -1.8721
  241TIP3   OH2  686   1.223   1.546   3.653 -0.0878  0.0635  0.2145
  241TIP3    H1  687   1.261   1.631   3.628 -0.2469 -0.3481 -1.5551
  241TIP3    H2  688   1.295   1.500   3.696  0.2647  0.7380  0.3694
  242TIP3   OH2  689   4.059   2.907   1.737 -0.1068  0.1556  0.0315
  242TIP3    H1  690   4.113   2.935   1.663 -0.5968 -0.2109 -0.4740
  242TIP3    H2  691   4.013   2.829   1.705  0.1875 -0.4093  0.9504
  243TIP3   OH2  692   1.391   2.343   3.666  0.7541  0.2000 -0.3671
  243TIP3    H1  693   1.351   2.410   3.722 -0.7406  0.0335 -1.1712
  243TIP3    H2  694   1.380   2.261   3.714  3.9624  0.6007  1.3435
  244TIP3   OH2  695   4.786   2.707   0.583 -0.3049  0.2878  0.1895
  244TIP3    H1  696   4.758   2.714   0.674 -0.3283  0.0659  0.2009
  244TIP3    H2  697   4.840   2.628   0.581 -0.7428 -0.0087 -0.1006
  245TIP3   OH2  698   5.122   0.347   3.977  0.4506 -0.3322  0.0300
  245TIP3    H1  699   5.030   0.330   4.001  0.5599 -2.8869 -0.9729
  245TIP3    H2  700   5.156   0.402   4.047 -1.9015  0.9381  0.2828
  246TIP3   OH2  701   5.996   1.831   2.273 -0.6788  0.4476 -0.1478
  246TIP3    H1  702   5.972   1.750   2.319  0.4674 -0.1039 -0.5040
  246TIP3    H2  703   5.925   1.844   2.210 -1.6299  0.5402  0.9057
  247TIP3   OH2  704   0.616   6.663   0.269 -0.5420 -0.3548 -0.8266
  247TIP3    H1  705   0.544   6.629   0.216 -1.2201 -0.5338  0.1772
  247TIP3    H2  706   0.607   6.618   0.353 -1.0140  1.6719  0.3066
  248TIP3   OH2  707   2.534   2.485   4.507 -0.1532  0.0501  0.4564
  248TIP3    H1  708   2.603   2.439   4.458 -0.1171 -0.3587  0.8868
  248TIP3    H2  709   2.483   2.415   4.547  1.3147  0.3806  3.1219
  249TIP3   OH2  710   7.064   4.478   4.777  0.1223 -0.0542  0.0455
  249TIP3    H1  711   7.005   4.403   4.786 -0.2576  0.2828  0.3383
  249TIP3    H2  712   7.140   4.442   4.730  0.8414 -1.1191  1.9167
  250TIP3   OH2  713   3.383   2.336   1.828  0.4991 -0.4352 -0.0386
  250TIP3    H1  714   3.388   2.299   1.917  2.1287 -0.2490 -0.0267
  250TIP3    H2  715   3.462   2.305   1.785 -1.5950 -3.0065 -2.4757
  251TIP3   OH2  716   6.296   6.379   2.615 -0.1193  0.4875  0.4878
  251TIP3    H1  717   6.277   6.360   2.706  0.3992 -0.0144  0.4960
  251TIP3    H2  718   6.382   6.340   2.599  0.1188  1.1822 -0.0207
  252TIP3   OH2  719   3.425   4.668   1.022 -0.4381  0.0419  0.5486
  252TIP3    H1  720   3.449   4.732   1.089 -1.3323 -0.2985  1.2008
  252TIP3    H2  721   3.478   4.591   1.042 -1.3015 -0.3477  1.3673
  253TIP3   OH2  722   1.217   6.608   5.012  0.2338  0.4289 -0.1616
  253TIP3    H1  723   1.304   6.625   5.049  0.8305 -1.2947 -0.6458
  253TIP3    H2  724   1.171   6.560   5.080 -0.6909  2.0540  0.4199
  254TIP3   OH2  725   1.611   1.042   3.606  0.2254 -0.1970  0.1142
  254TIP3    H1  726   1.549   1.097   3.654  0.6872  0.3440  0.1076
  254TIP3    H2  727   1.602   0.955   3.645 -0.0220  0.0397  0.5922
  255TIP3   OH2  728   2.185   1.246   2.035 -0.0494 -0.1731  0.3564
  255TIP3    H1  729   2.242   1.314   2.072  0.8568 -0.4136 -0.5273
  255TIP3    H2  730   2.214   1.238   1.944 -2.0583  0.2697 -0.3801
  256TIP3   OH2  731   2.413   1.354   3.253 -0.0388  0.1512  0.1126
  256TIP3    H1  732   2.438   1.428   3.197 -0.6439 -1.4583 -2.4805
  256TIP3    H2  733   2.317   1.355   3.252 -0.0915  0.6748  2.0650
  257TIP3   OH2  734   6.708   0.859   3.817 -0.6831  0.3933 -0.2954
  257TIP3    H1  735   6.616   0.831   3.812 -0.6552  0.2375  0.0446
  257TIP3    H2  736   6.725   0.870   3.910  0.4660 -2.3990 -0.0457
  258TIP3   OH2  737   3.170   1.543   2.889  0.6686 -0.7707 -0.6210
  258TIP3    H1  738   3.194   1.547   2.797 -0.2668 -1.2671 -0.8959
  258TIP3    H2  739   3.121   1.461   2.898  0.2772 -0.4617  0.1993
  259TIP3   OH2  740   6.846   4.635   1.849 -0.2671 -0.0692 -0.1060
  259TIP3    H1  741   6.857   4.554   1.898 -2.0609 -1.0088 -1.1659
  259TIP3    H2  742   6.818   4.607   1.762  0.6921  1.6451 -1.0291
  260TIP3   OH2  743   2.632   6.219   1.681  0.3299 -0.1565  0.1101
  260TIP3    H1  744   2.640   6.123   1.676  0.2048 -0.2489  1.4757
  260TIP3    H2  745   2.564   6.240   1.616  1.5396 -0.7906 -1.4433
  261TIP3   OH2  746   4.111   1.455   5.343 -0.0130 -0.4895  0.3024
  261TIP3    H1  747   4.057   1.530   5.316 -1.1658 -1.4953 -0.2877
  261TIP3    H2  748   4.183   1.454   5.281  0.7781  0.9314  1.1535
  262TIP3   OH2  749   0.265   4.163   0.949 -0.5104  0.3765 -0.2317
  262TIP3    H1  750   0.253   4.157   1.044 -1.5050  0.0007 -0.3678
  262TIP3    H2  751   0.254   4.256   0.930 -0.8185  0.3870 -0.0304
  263TIP3   OH2  752   4.727   3.114   5.123  0.1739  0.0395  0.3845
  263TIP3    H1  753   4.748   3.090   5.033 -0.7303 -1.8616  0.6198
  263TIP3    H2  754   4.801   3.167   5.152  1.6866 -1.4040 -0.6952
  264TIP3   OH2  755   1.695   6.120   2.374  0.4075 -0.0150  0.2409
  264TIP3    H1  756   1.700   6.030   2.342 -0.6049  0.4829 -1.4529
  264TIP3    H2  757   1.757   6.168   2.318  0.5584  0.4313  0.7866
  265TIP3   OH2  758   1.435   0.564   5.350  0.7839 -0.0223  0.4305
  265TIP3    H1  759   1.528   0.565   5.374  0.8097 -1.8127  0.5330
  265TIP3    H2  760   1.396   0.498   5.407 -0.3625  0.0181 -0.2733
  266TIP3   OH2  761   1.696   3.076   3.204 -0.7076 -0.1232 -0.3094
  266TIP3    H1  762   1.649   3.031   3.274  0.1447  0.6337  0.7723
  266TIP3    H2  763   1.761   3.012   3.174 -0.3627 -0.0725  0.3238
  267TIP3   OH2  764   3.403   6.620   3.223 -0.1513 -0.3010  0.4367
  267TIP3    H1  765   3.313   6.617   3.255 -0.7404  2.3979 -0.6562
  267TIP3    H2  766   3.400   6.572   3.140 -1.2358  1.5927 -0.7219
  268TIP3   OH2  767   2.716   5.544   4.464  0.5677 -0.0825  0.3070
  268TIP3    H1  768   2.786   5.545   4.529  0.7635  1.4306  0.1087
  268TIP3    H2  769   2.663   5.622   4.486  0.4256  0.2341 -1.0998
  269TIP3   OH2  770   3.257   2.920   3.224  0.2208  0.2826 -0.0989
  269TIP3    H1  771   3.302   2.985   3.171 -1.1600  2.4808  1.2373
  269TIP3    H2  772   3.178   2.900   3.176 -0.0388  0.7111  0.1393
  270TIP3   OH2  773   1.091   5.119   5.671 -0.0205 -0.4618 -0.2615
  270TIP3    H1  774   1.161   5.151   5.615 -0.3509  1.1734  0.2042
  270TIP3    H2  775   1.134   5.058   5.730  1.2776  1.2552  0.6695
  271TIP3   OH2  776   2.414   2.925   2.968 -0.2293  0.4657  0.4317
  271TIP3    H1  777   2.430   2.910   3.061 -1.5031 -1.1981  0.4452
  271TIP3    H2  778   2.348   2.994   2.966 -1.4395 -0.6383  0.8758
  272TIP3   OH2  779   4.489   1.726   3.837 -0.1707 -0.3997 -0.3127
  272TIP3    H1  780   4.558   1.667   3.869 -0.0312  0.2131  0.5791
  272TIP3    H2  781   4.425   1.729   3.909 -0.0742  0.6659 -0.2507
  273TIP3   OH2  782   1.393   0.777   2.619 -0.2008  0.3222 -0.0502
  273TIP3    H1  783   1.351   0.783   2.534 -1.5761 -1.3009  0.4624
  273TIP3    H2  784   1.321   0.775   2.682  0.7303  0.1630  1.0546
  274TIP3   OH2  785   5.076   5.059   0.049 -0.3096 -0.1886 -0.5468
  274TIP3    H1  786   5.142   5.123   0.022 -0.9348  0.3240 -0.9004
  274TIP3    H2  787   5.006   5.069  -0.015 -1.8672  1.1123  1.2534
  275TIP3   OH2  788   6.252   5.614   1.823  0.0401 -0.4629  0.1674
  275TIP3    H1  789   6.319   5.546   1.825  0.5633 -0.0237 -1.0347
  275TIP3    H2  790   6.261   5.660   1.906  0.7580 -0.8478  0.3059
  276TIP3   OH2  791   6.873   6.644   4.785  0.1306  0.9234 -0.1759
  276TIP3    H1  792   6.789   6.640   4.739 -0.0917  1.3089  0.1902
  276TIP3    H2  793   6.893   6.737   4.792  1.8586  0.8067 -2.4901
  277TIP3   OH2  794   3.084   0.861   1.428 -0.7427 -0.7220  0.3066
  277TIP3    H1  795   3.170   0.854   1.388 -0.2769  0.2752  1.0824
  277TIP3    H2  796   3.031   0.795   1.384  0.7293 -2.1935  0.6582
  278TIP3   OH2  797   1.019   2.507   2.093 -0.0335  0.0786 -0.4683
  278TIP3    H1  798   1.081   2.521   2.164  0.1964  1.4669 -0.8989
  278TIP3    H2  799   0.933   2.514   2.134  0.0962  0.0510 -0.1924
  279TIP3   OH2  800   6.688   5.775   4.046  0.3329 -0.1897 -0.5415
  279TIP3    H1  801   6.670   5.750   3.955 -0.2912  0.9331 -0.7429
  279TIP3    H2  802   6.629   5.848   4.063 -0.3444 -1.0613  1.1315
  280TIP3   OH2  803   0.727   2.719   2.732  0.3739  0.3209  0.1979
  280TIP3    H1  804   0.654   2.755   2.782  0.9638  0.3039  1.0795
  280TIP3    H2  805   0.733   2.776   2.655  0.0342  0.9046  0.5940
  281TIP3   OH2  806   1.394   1.261   5.508 -0.3050  0.0314 -0.1619
  281TIP3    H1  807   1.305   1.232   5.487 -0.6096  1.9667 -1.8515
  281TIP3    H2  808   1.386   1.301   5.595 -1.0493  0.0119 -0.2146
  282TIP3   OH2  809   5.495   4.835   4.347 -0.0166  0.5297  0.1852
  282TIP3    H1  810   5.464   4.919   4.381  0.1364  0.1357  1.3660
  282TIP3    H2  811   5.416   4.782   4.339 -0.4048  1.3384 -2.4116
  283TIP3   OH2  812   1.442   2.077   0.569 -0.3044  0.6919  0.8074
  283TIP3    H1  813   1.451   2.100   0.661 -0.1562  0.3126  0.8906
  283TIP3    H2  814   1.532   2.063   0.540 -0.4136 -0.1902  0.8678
  284TIP3   OH2  815   4.335   3.964  -0.015 -0.1916  0.0597 -0.0778
  284TIP3    H1  816   4.414   3.956   0.038 -0.3274 -2.7077 -0.1368
  284TIP3    H2  817   4.263   3.947   0.047 -0.6734  1.2692 -0.2788
  285TIP3   OH2  818   6.429   1.785   2.596  0.4207 -0.1934  0.3192
  285TIP3    H1  819   6.367   1.846   2.635 -1.1583 -1.9284  0.6450
  285TIP3    H2  820   6.514   1.813   2.630 -0.5301  0.3633  2.4158
  286TIP3   OH2  821   5.355   1.809   4.520 -0.5048  0.0728 -0.0147
  286TIP3    H1  822   5.279   1.793   4.465 -0.1809 -0.6188 -0.2736
  286TIP3    H2  823   5.402   1.726   4.521  0.7149  0.7309 -0.5842
  287TIP3   OH2  824   5.802   0.207   1.316 -0.0887 -0.2744 -0.2801
  287TIP3    H1  825   5.840   0.161   1.391 -1.1313  0.4231  0.7211
  287TIP3    H2  826   5.747   0.275   1.356 -1.4622 -0.5275 -1.6809
  288TIP3   OH2  827   6.270   5.000   4.136  0.1212  0.5163 -0.5830
  288TIP3    H1  828   6.214   4.995   4.059 -0.5603 -2.6752 -0.0248
  288TIP3    H2  829   6.330   4.926   4.127  2.6302  2.3078  0.1274
  289TIP3   OH2  830   1.995   0.908   4.902  0.1211  0.0162 -0.2129
  289TIP3    H1  831   2.035   0.988   4.937  1.2760 -0.3270 -0.7096
  289TIP3    H2  832   1.958   0.935   4.818 -2.1145  0.6942  0.8975
  290TIP3   OH2  833   2.808   3.379   4.277 -0.2891 -0.3865  0.1538
  290TIP3    H1  834   2.861   3.338   4.208 -0.4091  0.9973 -0.8038
  290TIP3    H2  835   2.790   3.308   4.338  0.8584 -1.3855 -0.6055
  291TIP3   OH2  836   0.118   3.877   4.619 -0.1119 -0.3936 -1.0063
  291TIP3    H1  837   0.154   3.953   4.665  0.9004 -1.8190  0.6886
  291TIP3    H2  838   0.023   3.884   4.632  0.0809 -0.2312  0.5336
  292TIP3   OH2  839   2.614   4.002   5.880  0.4894 -0.4725  0.3392
  292TIP3    H1  840   2.705   4.013   5.850 -0.0007 -0.2857 -1.1533
  292TIP3    H2  841   2.576   3.941   5.818 -0.8151  0.5644  0.0910
  293TIP3   OH2  842   3.236   5.388   0.473 -0.0195  0.2579 -0.0217
  293TIP3    H1  843   3.223   5.466   0.527 -1.3165  1.0043 -1.3372
  293TIP3    H2  844   3.233   5.420   0.383  1.4008 -1.0443 -0.5784
  294TIP3   OH2  845   5.631  -0.014   2.675  0.2706 -0.1292  0.2323
  294TIP3    H1  846   5.632   0.015   2.584 -0.3072  0.8243  0.5126
  294TIP3    H2  847   5.659   0.064   2.725 -0.6900 -0.2365  0.9610
  295TIP3   OH2  848   4.235   4.470   2.709  0.2753  0.9207  0.6316
  295TIP3    H1  849   4.260   4.562   2.725  0.6906  1.1870 -1.2543
  295TIP3    H2  850   4.151   4.476   2.664 -0.0645  0.3377  1.1925
  296TIP3   OH2  851   4.942   6.449   3.132  0.0201  0.3994 -0.3068
  296TIP3    H1  852   4.886   6.500   3.073  1.4996  2.6978  0.1326
  296TIP3    H2  853   4.945   6.362   3.093 -3.1098  0.4089 -0.7905
  297TIP3   OH2  854   0.969   3.275   2.862 -0.4744 -0.6826 -0.3371
  297TIP3    H1  855   0.930   3.238   2.782  1.0034 -1.8387 -0.5882
  297TIP3    H2  856   0.911   3.247   2.932 -0.4817 -1.8078 -0.7634
  298TIP3   OH2  857   5.356   2.983   0.320  0.0445  0.0222  0.1479
  298TIP3    H1  858   5.275   2.982   0.371 -0.5270  2.7095 -0.5472
  298TIP3    H2  859   5.355   2.900   0.271 -1.1495 -0.9765  1.7706
  299TIP3   OH2  860   5.845   4.654   0.529  0.0088 -0.4712  0.0609
  299TIP3    H1  861   5.756   4.621   0.518 -0.8067  1.3574  0.7367
  299TIP3    H2  862   5.837   4.722   0.596  1.9062 -0.2063  0.0695
  300TIP3   OH2  863   7.007   6.561   4.504 -0.2456 -0.1170  0.0976
  300TIP3    H1  864   6.946   6.488   4.513 -0.6804  0.3349  0.9547
  300TIP3    H2  865   6.951   6.637   4.488  0.1592  0.1402 -0.1212
  301TIP3   OH2  866   2.684   6.057   5.062 -0.7296  0.1788 -0.1441
  301TIP3    H1  867   2.622   6.107   5.114  0.6167 -0.3100  2.0648
  301TIP3    H2  868   2.768   6.100   5.076  0.1524 -1.6171  0.4177
  302TIP3   OH2  869   3.780   2.978   1.538  0.2588 -0.4148 -0.4987
  302TIP3    H1  870   3.723   3.035   1.591  0.8846  0.2022 -0.4741
  302TIP3    H2  871   3.791   3.026   1.456  1.4364 -0.1175 -0.1780
  303TIP3   OH2  872   5.040   1.058   2.124  0.5087  0.2146 -0.3805
  303TIP3    H1  873   5.039   1.114   2.201  1.5014 -0.9361  0.5128
  303TIP3    H2  874   5.133   1.039   2.109  0.2105 -1.2451 -0.5820
  304TIP3   OH2  875   0.814   1.769   4.886  0.5897  0.3073  0.4004
  304TIP3    H1  876   0.900   1.732   4.908  1.1006  0.7199 -0.8611
  304TIP3    H2  877   0.754   1.724   4.946  1.4427 -1.2254  0.1659
  305TIP3   OH2  878   2.386   5.165   5.269  0.0380  0.2428 -0.3981
  305TIP3    H1  879   2.314   5.188   5.210 -0.9132 -2.7280 -0.5598
  305TIP3    H2  880   2.355   5.087   5.315  1.4791  1.3840  2.7727
  306TIP3   OH2  881   1.983   3.272   1.539  0.2188  0.4392 -0.3150
  306TIP3    H1  882   1.960   3.195   1.590 -0.2460  0.2764 -0.7614
  306TIP3    H2  883   1.942   3.345   1.586 -0.9244  0.1940 -0.8954
  307TIP3   OH2  884   0.993   4.753   3.234  0.1534  0.3846 -0.5437
  307TIP3    H1  885   0.953   4.754   3.321  1.7706 -0.3994  0.2637
  307TIP3    H2  886   0.931   4.703   3.180 -1.2721  1.5904 -0.0839
  308TIP3   OH2  887   0.405   3.636   4.988 -0.1584  0.4360 -0.4884
  308TIP3    H1  888   0.426   3.726   4.962  1.3954  0.2560  0.0414
  308TIP3    H2  889   0.473   3.583   4.948  0.2816 -0.2252  1.0687
  309TIP3   OH2  890   3.017   6.301   3.703  0.1195  0.4989 -0.0751
  309TIP3    H1  891   2.996   6.281   3.795 -0.1703 -0.5118 -0.3524
  309TIP3    H2  892   3.053   6.220   3.669 -0.1821  0.7388 -0.9818
  310TIP3   OH2  893   5.398   4.489   2.905  0.1651  0.1982  0.3827
  310TIP3    H1  894   5.387   4.443   2.989  2.4936 -0.3225  0.4615
  310TIP3    H2  895   5.465   4.554   2.922  0.4563  0.2850 -1.0030
  311TIP3   OH2  896   4.654   3.858   3.146  0.6944 -0.0070 -0.0843
  311TIP3    H1  897   4.692   3.789   3.200 -1.7369 -0.5914  1.0236
  311TIP3    H2  898   4.664   3.827   3.056  3.7397  0.4210  0.0145
  312TIP3   OH2  899   6.154   2.710   2.725  0.4777  0.7672  0.2086
  312TIP3    H1  900   6.125   2.796   2.694  0.6774  1.0748  0.8635
  312TIP3    H2  901   6.207   2.676   2.653 -0.2224  0.8574 -0.3699
  313TIP3   OH2  902   2.625   5.833   5.217 -0.2175  0.0444  0.2879
  313TIP3    H1  903   2.536   5.806   5.193 -0.0295 -0.6157  0.3031
  313TIP3    H2  904   2.639   5.914   5.169 -0.9617  0.3476  0.5742
  314TIP3   OH2  905   1.403   2.485   3.239  0.2973 -0.1501  0.2592
  314TIP3    H1  906   1.469   2.429   3.280  0.5222 -0.1098 -0.0371
  314TIP3    H2  907   1.347   2.514   3.311 -1.3238 -2.6993  0.1631
  315TIP3   OH2  908   0.131   2.340   2.897  0.0202 -0.2234 -0.3173
  315TIP3    H1  909   0.224   2.337   2.873  0.2279  0.6283  0.3263
  315TIP3    H2  910   0.097   2.255   2.870  1.2214 -0.9628  0.3971
  316TIP3   OH2  911   4.434   2.633   0.721 -0.2365 -0.7871 -0.3293
  316TIP3    H1  912   4.527   2.611   0.721 -0.4943 -1.9694  0.2036
  316TIP3    H2  913   4.431   2.727   0.702  1.0854 -0.6157  0.2207
  317TIP3   OH2  914   5.073   1.655   3.535 -0.2876 -0.2955  0.1749
  317TIP3    H1  915   5.123   1.620   3.609  1.4934  0.1553 -0.7547
  317TIP3    H2  916   5.037   1.577   3.492  0.8425 -0.7667  0.0431
  318TIP3   OH2  917   2.613   3.680   5.091  0.4479  0.0822  0.0696
  318TIP3    H1  918   2.665   3.703   5.014  0.0725  0.8457  0.0438
  318TIP3    H2  919   2.671   3.622   5.142  1.8166  1.8358  0.6287
  319TIP3   OH2  920   1.295   1.203   5.010 -0.3477 -0.2236  0.2553
  319TIP3    H1  921   1.290   1.111   5.037  1.1154 -0.9443 -1.6668
  319TIP3    H2  922   1.387   1.227   5.024 -0.3666  0.4465 -0.6849
  320TIP3   OH2  923   6.001   5.548   2.081  0.0564 -0.1366 -0.1210
  320TIP3    H1  924   6.060   5.623   2.079  0.4843 -0.3957  1.5277
  320TIP3    H2  925   5.940   5.564   2.009  2.0876  0.1445 -1.8831
  321TIP3   OH2  926   5.269   4.175   4.377  0.2976  0.3416 -0.3708
  321TIP3    H1  927   5.218   4.102   4.343  0.3041 -0.2259  0.7956
  321TIP3    H2  928   5.360   4.148   4.367  0.2898 -0.1639  0.7589
  322TIP3   OH2  929   4.578   6.427   2.442  1.0637 -0.4740 -0.3350
  322TIP3    H1  930   4.658   6.455   2.487  0.4419  1.3653 -0.2837
  322TIP3    H2  931   4.534   6.509   2.420  0.1939 -1.4040 -2.2065
  323TIP3   OH2  932   5.352   1.203   5.693  0.1698 -0.4197  0.0046
  323TIP3    H1  933   5.400   1.263   5.636 -0.9092 -0.1998 -0.7043
  323TIP3    H2  934   5.314   1.139   5.633 -0.3870 -0.6092  0.5538
  324TIP3   OH2  935   5.810   5.947   3.541 -0.2911 -0.3143  0.2624
  324TIP3    H1  936   5.758   5.871   3.515 -0.4531 -0.4210  0.8858
  324TIP3    H2  937   5.809   6.004   3.464  0.5629 -1.3298 -0.5310
  325TIP3   OH2  938   3.290   1.209   4.289 -0.1137 -0.0201 -0.0903
  325TIP3    H1  939   3.220   1.274   4.284  1.6379  1.9609 -0.2746
  325TIP3    H2  940   3.314   1.192   4.198 -0.4974 -0.8848 -0.0410
  326TIP3   OH2  941   5.092   3.597   0.091  0.1641  0.2235 -0.2021
  326TIP3    H1  942   5.178   3.608   0.132  0.0090  2.3973 -0.3492
  326TIP3    H2  943   5.034   3.651   0.144 -1.5033 -2.4296  0.8487
  327TIP3   OH2  944   0.978   0.887   5.790 -0.4948 -0.0601  0.1566
  327TIP3    H1  945   0.965   0.817   5.854 -1.3770  1.3482  1.5823
  327TIP3    H2  946   1.071   0.910   5.797 -0.2913 -0.8111 -0.0406
  328TIP3   OH2  947   3.506   5.313   0.799 -0.2074 -0.4730  0.6989
  328TIP3    H1  948   3.431   5.366   0.827  0.0311 -0.5785  1.5803
  328TIP3    H2  949   3.484   5.224   0.824 -0.0129 -0.5865  0.4733
  329TIP3   OH2  950   1.504   6.354   0.391  0.0171 -0.4221  0.1823
  329TIP3    H1  951   1.429   6.331   0.336 -0.2685 -0.7524  0.7054
  329TIP3    H2  952   1.480   6.438   0.430  0.5131  0.1512 -0.7260
  330TIP3   OH2  953   6.728   1.674   1.559 -0.1894 -0.8380 -0.4560
  330TIP3    H1  954   6.741   1.632   1.474  0.2853 -1.3272 -0.1551
  330TIP3    H2  955   6.722   1.601   1.621 -1.0914 -0.5042 -0.1348
  331TIP3   OH2  956   1.859   1.347   0.431  0.0473 -0.5665 -0.5766
  331TIP3    H1  957   1.833   1.294   0.506  0.3317 -0.0606 -0.1094
  331TIP3    H2  958   1.954   1.337   0.425 -0.0522 -1.2038 -1.3469
  332TIP3   OH2  959   2.822   4.761   5.009  0.4364  0.0794  0.5941
  332TIP3    H1  960   2.891   4.747   4.945 -2.4591 -0.0982 -2.8342
  332TIP3    H2  961   2.790   4.673   5.030  0.7571  0.1896  1.5633
  333TIP3   OH2  962   4.669   2.549   1.535 -0.1624  0.6625  0.0535
  333TIP3    H1  963   4.588   2.498   1.531  0.1009  0.2835 -0.5279
  333TIP3    H2  964   4.642   2.633   1.573 -0.5035 -0.0695  1.4807
  334TIP3   OH2  965  -0.015   6.300   1.597  0.0153  0.0743  0.0596
  334TIP3    H1  966   0.074   6.267   1.607  1.2267  1.9774 -3.0250
  334TIP3    H2  967  -0.049   6.255   1.520 -1.6895 -0.4889  1.0858
  335TIP3   OH2  968   0.440   3.277   3.465  0.0236  0.4084  0.1162
  335TIP3    H1  969   0.473   3.209   3.524 -1.6214 -0.0581  0.5532
  335TIP3    H2  970   0.494   3.354   3.485 -1.9355  1.0122  4.0178
  336TIP3   OH2  971   7.104   4.380   5.682  0.3438  0.1151 -0.4840
  336TIP3    H1  972   7.121   4.439   5.756  1.8658 -0.3156 -0.4629
  336TIP3    H2  973   7.183   4.327   5.675 -1.0576 -2.1164 -0.3376
  337TIP3   OH2  974   6.177   6.530   1.184 -0.8092  0.1300 -0.2052
  337TIP3    H1  975   6.188   6.437   1.165 -1.0594  0.1563 -0.4785
  337TIP3    H2  976   6.207   6.574   1.104  2.8978  0.4625  1.1476
  338TIP3   OH2  977   2.669   0.108   3.567  0.3849 -0.1174  0.4864
  338TIP3    H1  978   2.595   0.066   3.523 -0.3511  1.0642  0.5666
  338TIP3    H2  979   2.633   0.189   3.603  1.8436  0.7831  0.0257
  339TIP3   OH2  980   0.412   6.527   4.034  0.0963 -0.5100 -0.1077
  339TIP3    H1  981   0.432   6.566   4.119  0.0670 -2.8770  1.0799
  339TIP3    H2  982   0.413   6.432   4.051 -1.6341 -1.0086 -2.3463
  340TIP3   OH2  983   1.838   4.116   2.669 -0.6719 -0.4435  0.2409
  340TIP3    H1  984   1.895   4.071   2.607  0.1581  1.4436 -0.4493
  340TIP3    H2  985   1.883   4.107   2.754 -0.0454 -0.1529 -0.0528
  341TIP3   OH2  986   0.384   5.499   4.390  0.2634  0.0617  0.3017
  341TIP3    H1  987   0.364   5.447   4.313  0.1373  0.7605 -0.1441
  341TIP3    H2  988   0.475   5.476   4.412 -0.3052 -1.5846  1.1172
  342TIP3   OH2  989   5.141   6.751   5.238  0.2838 -0.3069  0.2902
  342TIP3    H1  990   5.219   6.697   5.228 -0.4518 -0.9123 -4.2394
  342TIP3    H2  991   5.175   6.839   5.257  2.2731 -0.3675 -2.4462
  343TIP3   OH2  992   2.282   4.016   1.409 -0.2113 -0.4197 -0.4153
  343TIP3    H1  993   2.359   3.962   1.391 -0.2369 -1.0446  1.2259
  343TIP3    H2  994   2.260   3.997   1.500 -0.2706  2.3038  0.2123
  344TIP3   OH2  995   1.644   4.827   4.217  0.0935  0.0532  0.1615
  344TIP3    H1  996   1.587   4.820   4.294  0.8865 -0.5766  0.7103
  344TIP3    H2  997   1.629   4.915   4.184 -0.2793  0.3298  1.0284
  345TIP3   OH2  998   4.516   2.947   0.356  0.2248 -0.0229 -0.1517
  345TIP3    H1  999   4.540   2.930   0.265 -0.5001 -1.2194 -0.1417
  345TIP3    H2 1000   4.583   2.903   0.408  1.2357  1.5332 -0.0644
  346TIP3   OH2 1001   4.842   5.457   1.282  0.5147 -0.0453  0.4231
  346TIP3    H1 1002   4.866   5.520   1.214 -0.0136  1.4899  1.6095
  346TIP3    H2 1003   4.848   5.506   1.364  0.8072 -1.7581  1.4756
  347TIP3   OH2 1004   5.955   6.418   3.515 -0.1250 -0.1612 -0.3786
  347TIP3    H1 1005   5.932   6.381   3.429 -0.7823 -1.3184  0.2678
  347TIP3    H2 1006   5.972   6.341   3.570 -0.8775  0.5276  0.8532
  348TIP3   OH2 1007   4.195   1.906   3.347 -0.0753 -0.1903  0.4322
  348TIP3    H1 1008   4.248   1.984   3.329  1.0845 -0.8080  1.0963
  348TIP3    H2 1009   4.247   1.854   3.408  0.5273 -2.8671 -2.1321
  349TIP3   OH2 1010   2.524   5.963   3.161 -0.3206  0.2507  0.0057
  349TIP3    H1 1011   2.495   5.881   3.202  1.7819 -0.2085  0.7054
  349TIP3    H2 1012   2.512   5.949   3.067  0.2061 -0.9796  0.1000
  350TIP3   OH2 1013   3.236   4.807   0.038 -0.1887 -0.0883 -0.0628
  350TIP3    H1 1014   3.257   4.811  -0.056 -0.6687 -0.7156 -0.1957
  350TIP3    H2 1015   3.207   4.896   0.059 -0.8110 -0.1363 -0.6806
  351TIP3   OH2 1016   2.658   1.868   1.640 -0.1294 -0.0607  0.5119
  351TIP3    H1 1017   2.595   1.825   1.582 -0.2430  0.6433  0.1030
  351TIP3    H2 1018   2.707   1.927   1.583 -0.0978  0.4816  1.0882
  352TIP3   OH2 1019   6.944   0.461   0.225  0.1272  0.1756 -0.6037
  352TIP3    H1 1020   7.011   0.528   0.209  0.8677 -0.3939  0.0141
  352TIP3    H2 1021   6.875   0.507   0.272 -0.2151  0.9162 -1.7860
  353TIP3   OH2 1022   2.276   5.323   4.400  0.0007  0.0154 -0.4296
  353TIP3    H1 1023   2.238   5.396   4.449  1.3880  1.3593 -1.2876
  353TIP3    H2 1024   2.314   5.267   4.468  0.2903  0.9022  0.1651
  354TIP3   OH2 1025   0.923   5.500   0.853 -0.6337  0.4897  0.3043
  354TIP3    H1 1026   0.995   5.465   0.906  0.1001  1.6513  0.1030
  354TIP3    H2 1027   0.902   5.429   0.792 -0.9672 -0.5759  1.5981
  355TIP3   OH2 1028   5.321   1.822   3.544  0.0060  0.1536 -0.2080
  355TIP3    H1 1029   5.340   1.906   3.586 -0.6632 -0.4573  1.3731
  355TIP3    H2 1030   5.227   1.810   3.554  0.3477 -1.6798  1.3955
  356TIP3   OH2 1031   1.763   5.437   1.227 -0.3012  0.3481  0.4937
  356TIP3    H1 1032   1.757   5.505   1.294  0.8784  0.3246  0.6373
  356TIP3    H2 1033   1.755   5.355   1.276 -0.1726  0.3454  0.5083
  357TIP3   OH2 1034   3.315   5.597   3.761  0.0665  0.1530 -0.1236
  357TIP3    H1 1035   3.403   5.597   3.723  0.1010 -0.3928 -0.0550
  357TIP3    H2 1036   3.299   5.688   3.784  1.5602 -0.0447  2.0270
  358TIP3   OH2 1037   2.672   1.208   1.225 -0.9062  0.4519  0.1895
  358TIP3    H1 1038   2.673   1.134   1.285 -0.1272  0.9209  0.7761
  358TIP3    H2 1039   2.580   1.217   1.200 -0.9024 -1.2061 -0.5518
  359TIP3   OH2 1040   1.380   3.648   4.106 -0.3081 -0.3970 -0.3703
  359TIP3    H1 1041   1.373   3.681   4.195 -0.0354 -1.7237  0.1597
  359TIP3    H2 1042   1.296   3.671   4.066 -0.0064  1.2088 -0.1495
  360TIP3   OH2 1043   6.808   5.220   5.040  0.2025  0.1000 -0.6234
  360TIP3    H1 1044   6.792   5.307   5.076  0.6290  0.5818 -1.5490
  360TIP3    H2 1045   6.832   5.236   4.948  0.9226 -0.9378 -0.6387
  361TIP3   OH2 1046   5.828   2.017   5.822 -0.4033 -0.0039  0.2075
  361TIP3    H1 1047   5.896   2.012   5.889 -0.1678  1.3415  0.0961
  361TIP3    H2 1048   5.856   2.089   5.766 -1.7805  0.3886  0.0017
  362TIP3   OH2 1049   4.062   4.923   3.148 -0.0264 -0.8166 -0.8999
  362TIP3    H1 1050   3.970   4.906   3.169  0.5506 -1.4533  1.4736
  362TIP3    H2 1051   4.074   4.886   3.060 -1.8285 -1.4991 -0.9006
  363TIP3   OH2 1052   2.748   4.581   1.540  0.1425 -0.3490 -0.3940
  363TIP3    H1 1053   2.749   4.629   1.458  1.2601  1.8356  0.8107
  363TIP3    H2 1054   2.838   4.551   1.552 -0.2189 -1.4648 -0.4065
  364TIP3   OH2 1055   0.277   5.036   4.909 -0.2608 -0.1604  0.6054
  364TIP3    H1 1056   0.366   5.054   4.939 -0.1123 -0.1150  0.1520
  364TIP3    H2 1057   0.274   4.941   4.900  0.0629 -0.0961 -0.3198
  365TIP3   OH2 1058   1.470   0.849   3.206 -0.0429  0.2943 -0.0574
  365TIP3    H1 1059   1.514   0.921   3.252  3.0644 -0.4979 -1.5223
  365TIP3    H2 1060   1.526   0.773   3.222 -2.0320 -1.3146 -0.4084
  366TIP3   OH2 1061   4.407   4.869   1.112 -0.5891  0.2465  0.7635
  366TIP3    H1 1062   4.465   4.945   1.104  1.7128 -1.5374 -1.2512
  366TIP3    H2 1063   4.438   4.824   1.191 -0.7503  0.4858  0.9623
  367TIP3   OH2 1064   0.368   1.490   0.730  0.7489  0.0385 -0.2294
  367TIP3    H1 1065   0.341   1.419   0.671 -0.8426 -0.3887  0.9497
  367TIP3    H2 1066   0.400   1.446   0.808  1.6229  0.6207 -0.2446
  368TIP3   OH2 1067   2.427   2.265   4.653  0.3064  0.2350  0.2192
  368TIP3    H1 1068   2.349   2.209   4.658  1.6321 -2.0585 -2.1200
  368TIP3    H2 1069   2.465   2.261   4.741 -1.1482 -0.1656  0.8681
  369TIP3   OH2 1070   1.027   4.996   2.848  0.7237  0.6673 -0.3990
  369TIP3    H1 1071   1.010   5.000   2.943  0.2668 -0.0336 -0.4442
  369TIP3    H2 1072   1.020   5.086   2.819  0.5410  0.8485  0.1873
  370TIP3   OH2 1073   3.863   3.285   0.842 -0.1571 -0.2128 -0.1183
  370TIP3    H1 1074   3.813   3.273   0.922  1.4886  0.2349  1.0372
  370TIP3    H2 1075   3.821   3.228   0.777 -2.1211  0.1808  0.7720
  371TIP3   OH2 1076   3.562   6.241   2.768 -0.4069 -0.1025  0.2125
  371TIP3    H1 1077   3.474   6.256   2.734 -0.9756 -3.1903  0.0443
  371TIP3    H2 1078   3.619   6.249   2.692 -0.8315 -0.3217 -0.1313
  372TIP3   OH2 1079   0.355   0.863   3.870 -0.3136  0.3753 -0.5500
  372TIP3    H1 1080   0.392   0.949   3.888  0.1681  0.3793 -1.4807
  372TIP3    H2 1081   0.271   0.881   3.826 -0.0958  0.3790 -0.9715
  373TIP3   OH2 1082  -0.024   6.226   3.002  0.1793 -0.2361  0.2238
  373TIP3    H1 1083   0.070   6.220   2.982 -0.0163  0.7320 -1.1525
  373TIP3    H2 1084  -0.027   6.271   3.087  0.9797 -1.6012  1.0048
  374TIP3   OH2 1085   0.047   2.240   1.890  0.2731 -0.0408  0.4656
  374TIP3    H1 1086  -0.045   2.257   1.910 -0.0159 -1.1967  0.2133
  374TIP3    H2 1087   0.084   2.212   1.973 -0.4514 -2.8986 -0.0771
  375TIP3   OH2 1088   7.065   2.638   5.363  0.2942 -0.0432 -0.1583
  375TIP3    H1 1089   6.990   2.599   5.319  0.3162  1.4596 -1.6567
  375TIP3    H2 1090   7.028   2.692   5.433 -0.1693  1.5966 -1.6028
  376TIP3   OH2 1091   2.304   0.152   2.731  0.4284  0.1829  0.1680
  376TIP3    H1 1092   2.331   0.241   2.752 -0.8182  0.8954 -1.0205
  376TIP3    H2 1093   2.375   0.118   2.677  0.7060  0.6374  0.2417
  377TIP3   OH2 1094   3.597   2.359   3.155 -0.3267 -0.2259  0.5119
  377TIP3    H1 1095   3.643   2.441   3.172 -0.1278 -0.5679  1.8086
  377TIP3    H2 1096   3.508   2.386   3.132 -0.3025  0.3666  1.0592
  378TIP3   OH2 1097   4.418   0.281   3.906  0.0831 -0.4597 -0.2712
  378TIP3    H1 1098   4.496   0.304   3.956  0.9481  0.6419 -1.9967
  378TIP3    H2 1099   4.363   0.233   3.967  0.8397  1.1978  1.8631
  379TIP3   OH2 1100   1.279   1.251   5.817  0.0814 -0.5248  0.5863
  379TIP3    H1 1101   1.227   1.282   5.891  0.9189  0.4168  0.7905
  379TIP3    H2 1102   1.341   1.321   5.799 -0.4704 -0.4892 -1.3860
  380TIP3   OH2 1103   0.360   2.793   0.406 -0.1595  0.4046  0.4407
  380TIP3    H1 1104   0.379   2.829   0.493  1.9320  0.4683  0.0190
  380TIP3    H2 1105   0.334   2.869   0.353 -0.9284  0.4449  0.8670
  381TIP3   OH2 1106   3.915   5.312   1.548  0.4566  0.1325 -0.3284
  381TIP3    H1 1107   3.957   5.385   1.593  0.1065  0.8350 -1.1048
  381TIP3    H2 1108   3.836   5.351   1.509  0.0427 -0.7554 -0.4018
  382TIP3   OH2 1109   3.918   0.212  -0.034  0.5889  0.0217 -0.9021
  382TIP3    H1 1110   3.983   0.229   0.034 -0.3943  0.8928 -0.1402
  382TIP3    H2 1111   3.834   0.232   0.008 -0.1199 -0.4357 -2.0597
  383TIP3   OH2 1112   3.710   1.938   1.539  0.3639 -0.1010 -0.0549
  383TIP3    H1 1113   3.746   1.867   1.485 -0.0454 -0.6705  0.3975
  383TIP3    H2 1114   3.683   2.005   1.477 -2.5996 -1.8519 -0.8846
  384TIP3   OH2 1115   6.545   2.386   3.711 -0.0069  0.7330  0.3780
  384TIP3    H1 1116   6.563   2.403   3.618  0.7524 -0.0200  0.3794
  384TIP3    H2 1117   6.625   2.346   3.744 -0.5431  0.3129  1.1941
  385TIP3   OH2 1118   2.190   2.452   4.072 -0.5255  0.4217  0.1431
  385TIP3    H1 1119   2.245   2.381   4.104 -0.2035  0.5236 -0.1809
  385TIP3    H2 1120   2.169   2.503   4.151 -0.6730  0.0329  0.3609
  386TIP3   OH2 1121   1.537   5.478   0.510 -0.0064 -0.0408  0.4628
  386TIP3    H1 1122   1.627   5.471   0.543 -1.0539 -0.7424  3.4798
  386TIP3    H2 1123   1.504   5.388   0.511 -0.7432  0.2010 -0.6973
  387TIP3   OH2 1124   3.481   1.775   2.436 -0.4049 -0.3177 -0.4637
  387TIP3    H1 1125   3.573   1.780   2.460 -1.1271 -0.8079  3.0351
  387TIP3    H2 1126   3.448   1.864   2.447 -0.5662 -0.3764 -0.4581
  388TIP3   OH2 1127   0.515   4.031   1.826  0.2968 -0.9190 -0.0384
  388TIP3    H1 1128   0.505   3.943   1.862  0.3169 -0.5292  0.9597
  388TIP3    H2 1129   0.437   4.045   1.773 -1.0983 -0.5304  2.0173
  389TIP3   OH2 1130   4.746   3.911   3.796 -0.5557  0.0735 -0.1731
  389TIP3    H1 1131   4.769   3.838   3.740 -1.3826  1.3569 -2.2911
  389TIP3    H2 1132   4.682   3.875   3.858 -1.7274 -0.7872 -1.8340
  390TIP3   OH2 1133   2.655   5.335   1.852 -0.3160  0.3205 -0.2067
  390TIP3    H1 1134   2.705   5.255   1.839  3.3024  2.4992 -1.3288
  390TIP3    H2 1135   2.587   5.333   1.785  0.0179 -1.5484 -0.5376
  391TIP3   OH2 1136   4.758   5.511   4.083 -0.0744 -0.1818 -0.0931
  391TIP3    H1 1137   4.716   5.597   4.084 -1.7877 -0.9761 -0.2344
  391TIP3    H2 1138   4.716   5.465   4.010 -0.3979 -1.7135  1.0208
  392TIP3   OH2 1139   6.027   2.861   1.015  0.1023 -0.1157 -0.0042
  392TIP3    H1 1140   6.118   2.892   1.013  0.5305 -1.1705  1.4687
  392TIP3    H2 1141   5.979   2.925   0.962  1.3012  1.7683  1.0680
  393TIP3   OH2 1142   1.620   3.886   5.370 -0.4993 -0.0687 -0.3669
  393TIP3    H1 1143   1.642   3.942   5.444  1.6321  0.0762 -1.0559
  393TIP3    H2 1144   1.695   3.892   5.311 -0.5508 -2.9375 -0.9009
  394TIP3   OH2 1145   6.898   1.372   5.003  0.1022 -0.0831 -0.2427
  394TIP3    H1 1146   6.884   1.281   4.979  1.3417 -0.6034  0.8782
  394TIP3    H2 1147   6.955   1.368   5.079  0.8926  1.6569 -0.6916
  395TIP3   OH2 1148   5.784   0.296   4.923 -0.9071 -0.5252 -0.3245
  395TIP3    H1 1149   5.760   0.205   4.909 -1.8499 -0.0443 -2.1638
  395TIP3    H2 1150   5.763   0.339   4.840  0.4774  1.1703  0.1482
  396TIP3   OH2 1151   3.938   2.783   0.805  0.3048  0.8397  0.0048
  396TIP3    H1 1152   3.973   2.713   0.861  0.4628  0.0253 -1.0694
  396TIP3    H2 1153   3.880   2.737   0.744  2.3988  1.2127 -2.4290
  397TIP3   OH2 1154   4.073   1.710   1.613 -0.3804  0.3316  0.2375
  397TIP3    H1 1155   4.121   1.742   1.537  1.5255 -1.1470  0.7500
  397TIP3    H2 1156   4.030   1.630   1.582 -1.7687  1.1068  0.0611
  398TIP3   OH2 1157   1.847   3.133   0.188  0.2331 -0.0935 -0.4923
  398TIP3    H1 1158   1.908   3.065   0.215 -0.0911  0.2483  1.2040
  398TIP3    H2 1159   1.760   3.093   0.196 -0.0804  0.8617  1.9494
  399TIP3   OH2 1160   5.234   4.637   2.252  0.2401  0.0804 -0.3317
  399TIP3    H1 1161   5.209   4.556   2.206 -0.5158  0.1735 -0.1014
  399TIP3    H2 1162   5.329   4.642   2.241  0.5076 -1.5691  0.8142
  400TIP3   OH2 1163   3.241   4.047   1.268 -0.2029  0.2116  0.0954
  400TIP3    H1 1164   3.239   4.076   1.176 -1.4649  0.1537  0.0882
  400TIP3    H2 1165   3.183   3.972   1.270  0.1775 -0.0653  0.8690
  401TIP3   OH2 1166   3.565   4.757   2.595 -0.4542 -0.7923 -0.3888
  401TIP3    H1 1167   3.573   4.799   2.509 -0.0080 -0.3620 -0.1378
  401TIP3    H2 1168   3.569   4.663   2.575 -2.2099 -0.7628 -1.0297
  402TIP3   OH2 1169   5.880   6.450   2.426 -0.0597  0.0043  0.3643
  402TIP3    H1 1170   5.831   6.531   2.440 -0.4455 -0.1462 -0.0832
  402TIP3    H2 1171   5.860   6.396   2.502  0.4978  0.4700  0.8515
  403TIP3   OH2 1172   5.188   0.864   1.161  0.1736  0.1002  0.6078
  403TIP3    H1 1173   5.241   0.937   1.194 -0.3545  0.9263 -0.3128
  403TIP3    H2 1174   5.123   0.906   1.104  0.2441 -1.1568 -0.4310
  404TIP3   OH2 1175   4.555   5.488   3.490  0.4218  0.4526 -0.2424
  404TIP3    H1 1176   4.605   5.522   3.564  0.1574  0.9658 -0.2912
  404TIP3    H2 1177   4.603   5.521   3.413  0.8808 -0.3493 -0.3078
  405TIP3   OH2 1178   3.843   3.961   2.257 -0.3969 -0.3085 -0.1588
  405TIP3    H1 1179   3.830   4.042   2.305 -0.5474 -0.6528  0.3876
  405TIP3    H2 1180   3.908   3.983   2.190  0.0581  0.0954  0.4090
  406TIP3   OH2 1181   3.145   4.354   3.414 -0.3151 -0.3416 -0.0026
  406TIP3    H1 1182   3.235   4.368   3.443 -0.7780  0.5063  1.0871
  406TIP3    H2 1183   3.151   4.355   3.318  0.9618 -1.2669  0.0500
  407TIP3   OH2 1184   4.178   3.851   2.605 -0.7309 -0.2829  0.0655
  407TIP3    H1 1185   4.254   3.802   2.572 -1.2615 -1.3071  0.3453
  407TIP3    H2 1186   4.102   3.802   2.574 -1.2516 -0.7438  1.9863
  408TIP3   OH2 1187   0.481   0.549   0.567  0.2459  0.5797  0.0248
  408TIP3    H1 1188   0.418   0.605   0.522  0.4369 -0.4815 -1.6842
  408TIP3    H2 1189   0.544   0.611   0.605 -1.2016  1.6048  0.8438
  409TIP3   OH2 1190   0.439   0.475   3.297 -0.6366  0.6002  0.0411
  409TIP3    H1 1191   0.369   0.409   3.305 -0.2747  0.3003  0.7813
  409TIP3    H2 1192   0.518   0.423   3.282  0.0966  0.6527  3.1358
  410TIP3   OH2 1193   5.922   6.014   4.264  0.1786 -0.6108  0.2519
  410TIP3    H1 1194   5.963   5.948   4.208 -0.2116 -1.5965  1.1000
  410TIP3    H2 1195   5.836   6.028   4.225  0.5388 -0.0180 -0.3665
  411TIP3   OH2 1196   6.587   4.947   3.375 -0.4618  0.0542 -0.2147
  411TIP3    H1 1197   6.497   4.954   3.344 -0.4929  1.1477  0.0533
  411TIP3    H2 1198   6.610   5.037   3.400  0.5425 -0.2934  0.1563
  412TIP3   OH2 1199   4.605   5.472   1.125  1.0432 -0.0476 -0.2551
  412TIP3    H1 1200   4.685   5.522   1.140  0.3480  1.5818 -1.6868
  412TIP3    H2 1201   4.540   5.511   1.182  1.2691 -1.5303  1.0903
  413TIP3   OH2 1202   2.878   5.883   3.565  0.3522  0.0100  0.1206
  413TIP3    H1 1203   2.921   5.803   3.535  0.2795  0.3682 -1.0041
  413TIP3    H2 1204   2.833   5.916   3.487 -1.8113 -0.2465  1.1880
  414TIP3   OH2 1205   5.041   4.702   4.512 -0.2266 -0.1086 -0.0810
  414TIP3    H1 1206   4.966   4.742   4.469  0.4542 -0.5859 -1.8303
  414TIP3    H2 1207   5.012   4.613   4.533 -0.5954  0.1571  0.5491
  415TIP3   OH2 1208   3.903   5.431   4.647  0.4118  0.2839  0.0346
  415TIP3    H1 1209   3.976   5.410   4.704  0.7849  0.4073 -0.3923
  415TIP3    H2 1210   3.903   5.526   4.641  0.3043  0.2778 -0.0781
  416TIP3   OH2 1211   0.858   3.584   2.296 -0.7959  0.0095  0.8894
  416TIP3    H1 1212   0.931   3.614   2.242 -0.3806 -1.2559  0.7250
  416TIP3    H2 1213   0.885   3.601   2.386  0.3905 -1.8353  0.9263
  417TIP3   OH2 1214   6.835   4.399   4.232  0.2673  0.1775  0.0674
  417TIP3    H1 1215   6.811   4.475   4.285 -1.9697 -0.8260  0.6269
  417TIP3    H2 1216   6.876   4.339   4.295 -1.3426 -0.5484  0.4534
  418TIP3   OH2 1217   0.849   4.294   4.453  0.2903 -0.0104  0.2005
  418TIP3    H1 1218   0.775   4.297   4.513 -0.0733 -1.8184 -0.1232
  418TIP3    H2 1219   0.877   4.386   4.445 -0.1283  0.3613  2.4951
  419TIP3   OH2 1220   1.985   4.040   1.970 -0.1340 -0.2258  0.0609
  419TIP3    H1 1221   2.037   4.116   1.998  1.3493 -0.5827 -1.5267
  419TIP3    H2 1222   1.964   4.058   1.878 -1.3710 -0.9099  0.1866
  420TIP3   OH2 1223   1.679   5.471   5.121  0.0830  0.0321 -0.1951
  420TIP3    H1 1224   1.698   5.562   5.101  2.3322  0.6267  3.5568
  420TIP3    H2 1225   1.720   5.422   5.050 -0.0886  1.8770 -1.6384
  421TIP3   OH2 1226   2.094   4.016   2.556  0.4198  0.1322 -0.2425
  421TIP3    H1 1227   2.094   3.921   2.561 -0.7529  0.1053 -0.3563
  421TIP3    H2 1228   2.131   4.036   2.470  1.8171 -0.1630  0.2744
  422TIP3   OH2 1229   3.037   3.413   4.638  0.2541 -0.2848  0.2395
  422TIP3    H1 1230   3.028   3.338   4.580 -0.9456 -0.4044  0.5558
  422TIP3    H2 1231   3.041   3.489   4.580 -4.3140 -0.0289 -0.1183
  423TIP3   OH2 1232   5.534   3.322   1.984  0.4176  0.2770 -0.4617
  423TIP3    H1 1233   5.565   3.285   1.902 -0.4092 -3.0314  0.5862
  423TIP3    H2 1234   5.446   3.354   1.965  0.2765 -0.3648 -0.8931
  424TIP3   OH2 1235   7.163   6.348   4.248 -0.5326 -0.0986 -0.1583
  424TIP3    H1 1236   7.198   6.274   4.197  2.0619  0.5785  0.4936
  424TIP3    H2 1237   7.076   6.319   4.276  0.7379 -3.3591  0.9059
  425TIP3   OH2 1238   5.327   5.116   4.224 -1.0523 -0.0829 -0.3112
  425TIP3    H1 1239   5.343   5.047   4.159  0.1801  0.3517 -0.4959
  425TIP3    H2 1240   5.339   5.073   4.308 -1.1355 -0.2940 -0.4073
  426TIP3   OH2 1241   4.493   0.965   3.427  0.1574 -0.2530  0.0940
  426TIP3    H1 1242   4.496   0.920   3.342  0.1026  0.6105 -0.3837
  426TIP3    H2 1243   4.428   1.035   3.414  0.9570  0.5842  0.4908
  427TIP3   OH2 1244   4.840   2.143   0.227 -0.0830  0.5592 -0.6522
  427TIP3    H1 1245   4.892   2.081   0.176 -0.2349 -0.9394  0.9273
  427TIP3    H2 1246   4.893   2.161   0.304 -1.1569  0.3424  0.1630
  428TIP3   OH2 1247   3.170   1.028   0.575 -0.4777 -0.0824 -0.7652
  428TIP3    H1 1248   3.141   0.993   0.491  0.5590 -1.0806 -0.7229
  428TIP3    H2 1249   3.141   0.963   0.639  1.8434 -1.1514 -0.7264
  429TIP3   OH2 1250   4.420   4.098   3.895  0.8136 -0.3922  0.0203
  429TIP3    H1 1251   4.359   4.118   3.967  0.8327 -1.4637  0.3594
  429TIP3    H2 1252   4.391   4.013   3.863 -0.4751  0.9416 -2.6292
  430TIP3   OH2 1253   5.562   4.475   1.875  0.1514  0.4869 -0.1425
  430TIP3    H1 1254   5.597   4.466   1.964 -0.2720  0.4584  0.0281
  430TIP3    H2 1255   5.555   4.385   1.843 -0.0152  0.4732 -0.0721
  431TIP3   OH2 1256   1.906   5.370   2.355  0.0835  0.0617  0.2890
  431TIP3    H1 1257   1.884   5.407   2.441 -1.5577 -0.0780 -0.0230
  431TIP3    H2 1258   1.902   5.445   2.295 -1.4250 -0.2479 -0.0506
  432TIP3   OH2 1259   3.420   4.426   3.473 -0.2428 -0.7275  0.1525
  432TIP3    H1 1260   3.467   4.488   3.529 -0.7685  0.1248 -0.3260
  432TIP3    H2 1261   3.458   4.439   3.386 -0.5073 -0.9110  0.0079
  433TIP3   OH2 1262   3.937   3.734   2.548  0.5457  0.1827  0.1024
  433TIP3    H1 1263   3.922   3.650   2.502  0.3729  0.3121 -0.0813
  433TIP3    H2 1264   3.857   3.784   2.532 -0.3559 -0.5077  2.1768
  434TIP3   OH2 1265   3.698   4.919   3.136 -0.1605 -0.2345  0.0890
  434TIP3    H1 1266   3.623   4.898   3.081 -0.5236 -0.9820  0.8411
  434TIP3    H2 1267   3.686   5.010   3.161 -1.3279 -0.5902  0.9330
  435TIP3   OH2 1268   1.494   3.226   3.756 -0.1492  0.5772 -0.2215
  435TIP3    H1 1269   1.467   3.263   3.672 -3.1377 -0.0455  0.3748
  435TIP3    H2 1270   1.470   3.292   3.820 -1.1261 -0.3571  0.4112
  436TIP3   OH2 1271   6.610   3.860   2.073 -0.8893 -0.5747  0.1187
  436TIP3    H1 1272   6.620   3.954   2.088  0.6975 -0.8696  1.1685
  436TIP3    H2 1273   6.591   3.852   1.979 -1.0381  0.7771  0.0162
  437TIP3   OH2 1274   2.614   1.138   4.084 -0.0951  0.5830  0.1390
  437TIP3    H1 1275   2.660   1.081   4.022 -1.9777 -1.3114  0.3535
  437TIP3    H2 1276   2.683   1.172   4.141  1.1375 -1.7243  0.1488
  438TIP3   OH2 1277   4.472   1.657   3.221 -0.0567  0.4046 -0.3449
  438TIP3    H1 1278   4.532   1.712   3.272 -2.0130  1.7088  0.6456
  438TIP3    H2 1279   4.432   1.718   3.158 -0.5654 -0.3736 -0.7892
  439TIP3   OH2 1280   2.242   3.837   3.339  0.4040 -0.6648 -0.6296
  439TIP3    H1 1281   2.300   3.804   3.270 -0.2895 -0.8953 -1.1133
  439TIP3    H2 1282   2.154   3.825   3.304  0.1088  1.4694 -0.7140
  440TIP3   OH2 1283   0.488   6.347   1.316  0.3319 -0.3049  0.1840
  440TIP3    H1 1284   0.415   6.395   1.355  0.1488  0.3099 -0.8700
  440TIP3    H2 1285   0.560   6.357   1.379  0.5226  1.9783 -0.2996
  441TIP3   OH2 1286   5.031   1.956   2.317 -0.4733  0.2531 -0.2193
  441TIP3    H1 1287   5.026   2.051   2.322 -1.7142  0.1759  0.4306
  441TIP3    H2 1288   5.010   1.936   2.225  1.1310  0.6412 -0.7067
  442TIP3   OH2 1289   6.963   0.399   4.281  0.2911 -0.0951 -0.1542
  442TIP3    H1 1290   6.929   0.474   4.329 -0.5867 -1.0279  0.7358
  442TIP3    H2 1291   7.045   0.430   4.242  0.6745  0.9089  1.3762
  443TIP3   OH2 1292   1.228   5.165   3.382  0.4894  0.2164 -0.8406
  443TIP3    H1 1293   1.268   5.169   3.468  1.0839  0.0697 -1.1047
  443TIP3    H2 1294   1.301   5.166   3.321  0.0643  0.6450 -1.3598
  444TIP3   OH2 1295   7.064   1.707   1.523 -0.8547  0.0561 -0.1602
  444TIP3    H1 1296   7.129   1.670   1.464 -0.9833 -0.1715 -0.1598
  444TIP3    H2 1297   6.988   1.725   1.467 -0.4240  1.3133 -0.3725
  445TIP3   OH2 1298   3.479   0.114   0.001 -0.4051  0.2132  0.4573
  445TIP3    H1 1299   3.498   0.029  -0.041 -1.7917  0.9637 -1.9050
  445TIP3    H2 1300   3.397   0.101   0.047 -1.3719  0.5855 -1.0971
  446TIP3   OH2 1301   3.320   1.188   2.732  0.3366  0.1952  0.1008
  446TIP3    H1 1302   3.310   1.098   2.701  2.1265  0.3058 -0.9233
  446TIP3    H2 1303   3.287   1.242   2.659  0.0917  0.3881  0.3529
  447TIP3   OH2 1304   6.363   1.096   4.255 -0.0066 -0.3481 -0.3302
  447TIP3    H1 1305   6.274   1.062   4.240  0.5259 -1.3448 -1.3993
  447TIP3    H2 1306   6.416   1.019   4.272  1.0051  0.0248 -1.5759
  448TIP3   OH2 1307   3.803   0.793   1.865 -0.0458 -0.3861 -0.4556
  448TIP3    H1 1308   3.822   0.785   1.772  1.0310 -0.0654 -0.2650
  448TIP3    H2 1309   3.716   0.753   1.874  0.7440 -2.4109 -1.2467
  449TIP3   OH2 1310   5.614   1.519   5.049 -0.0808  0.2405 -0.0978
  449TIP3    H1 1311   5.606   1.591   4.986 -0.3271 -0.1449 -0.5193
  449TIP3    H2 1312   5.698   1.534   5.093  0.4461  0.1245 -1.0362
  450TIP3   OH2 1313   1.097   2.921   0.124 -0.0630  0.0576 -0.3847
  450TIP3    H1 1314   1.049   2.840   0.140 -0.1086  0.1218 -0.1882
  450TIP3    H2 1315   1.074   2.977   0.199 -1.4721  0.9322 -1.4185
  451TIP3   OH2 1316   2.804   2.043   4.866  0.1168 -0.1501  0.9045
  451TIP3    H1 1317   2.851   2.108   4.919 -0.2816  0.8889  0.0172
  451TIP3    H2 1318   2.777   1.977   4.929 -1.4104  1.6526  2.2772
  452TIP3   OH2 1319   1.721   2.395   5.508 -0.0792 -0.0295 -0.0605
  452TIP3    H1 1320   1.634   2.401   5.546 -0.4983 -0.5401 -0.9146
  452TIP3    H2 1321   1.706   2.374   5.416  0.9543 -1.4944  0.0595
  453TIP3   OH2 1322   0.961   1.830   1.680 -0.2156  0.5416 -0.5795
  453TIP3    H1 1323   0.932   1.764   1.617  0.3099 -1.3767  1.0727
  453TIP3    H2 1324   0.880   1.861   1.721 -0.4159  0.3547 -0.8337
  454TIP3   OH2 1325   0.184   2.259   0.594 -0.4106 -0.0124 -0.1497
  454TIP3    H1 1326   0.091   2.284   0.594 -0.6329 -0.8152 -0.0909
  454TIP3    H2 1327   0.231   2.342   0.591 -1.1336  0.3779 -0.8723
  455TIP3   OH2 1328   1.909   5.036   1.143 -0.3759 -0.3101  0.6560
  455TIP3    H1 1329   1.981   5.005   1.198 -1.9115 -1.5153  2.0843
  455TIP3    H2 1330   1.927   5.129   1.130  0.6732 -0.2675  2.1820
  456TIP3   OH2 1331   3.930   2.428   5.866  0.6242 -0.0034  0.2804
  456TIP3    H1 1332   3.986   2.476   5.805  0.4713  1.0861  0.9638
  456TIP3    H2 1333   3.953   2.462   5.952  0.4111 -1.0835  0.7835
  457TIP3   OH2 1334   4.918   6.217   0.746 -0.1275  0.4103  0.3877
  457TIP3    H1 1335   4.973   6.295   0.753  0.2459  0.1402  0.5302
  457TIP3    H2 1336   4.838   6.247   0.703  0.3376  0.7122 -0.2818
  458TIP3   OH2 1337   1.105   2.987   3.222 -0.0832 -0.0814 -0.4251
  458TIP3    H1 1338   1.021   3.032   3.222  0.2205  0.4952 -0.8633
  458TIP3    H2 1339   1.083   2.894   3.219 -0.7349 -0.0011  0.9634
  459TIP3   OH2 1340   2.774   6.605   0.328  0.4686 -0.1078 -0.0759
  459TIP3    H1 1341   2.825   6.664   0.272 -1.1025 -0.4632 -2.0348
  459TIP3    H2 1342   2.775   6.646   0.414  2.8319  0.5984 -0.3786
  460TIP3   OH2 1343   1.303   1.699   1.041 -0.0889  0.1148  0.3592
  460TIP3    H1 1344   1.307   1.607   1.015  0.1741 -0.2603  1.6583
  460TIP3    H2 1345   1.352   1.745   0.973  0.1257 -0.7405 -0.0890
  461TIP3   OH2 1346   3.977   0.442   0.608  0.7144  0.0431 -0.2336
  461TIP3    H1 1347   3.941   0.358   0.579  0.2868  0.4206 -0.8297
  461TIP3    H2 1348   4.070   0.435   0.589  0.8422 -0.6265  0.5490
  462TIP3   OH2 1349   2.911   4.908   4.616 -0.2923 -0.1382  1.1130
  462TIP3    H1 1350   2.931   4.842   4.683  1.6765  0.8674  1.6067
  462TIP3    H2 1351   2.994   4.955   4.605 -1.5145  1.9493  0.4469
  463TIP3   OH2 1352   0.958   2.788   5.391  0.1760 -0.1518  0.5357
  463TIP3    H1 1353   0.915   2.841   5.458 -0.9030 -1.7394  1.1592
  463TIP3    H2 1354   1.022   2.735   5.439  1.4481  0.7666 -0.1150
  464TIP3   OH2 1355   3.337   1.387   3.471  0.1666  0.0560  0.3949
  464TIP3    H1 1356   3.405   1.375   3.538 -0.3656 -0.2395  0.8902
  464TIP3    H2 1357   3.334   1.303   3.425 -0.3330 -0.1680  0.8238
  465TIP3   OH2 1358   4.872   2.710   5.065  0.0521 -0.1791 -0.0174
  465TIP3    H1 1359   4.886   2.705   5.160  0.6585 -0.6094 -0.1241
  465TIP3    H2 1360   4.915   2.632   5.030  0.4982  0.3667 -0.7216
  466TIP3   OH2 1361   5.174   6.199   5.587 -0.0403  0.3947 -0.6994
  466TIP3    H1 1362   5.269   6.188   5.594 -0.0015  0.5425 -0.9512
  466TIP3    H2 1363   5.139   6.111   5.595  0.0764  0.4097  0.0030
  467TIP3   OH2 1364   3.446   1.960   1.991  0.0447  0.1120 -0.4466
  467TIP3    H1 1365   3.414   2.050   1.999 -1.6638 -0.4567 -0.3593
  467TIP3    H2 1366   3.539   1.965   2.014 -0.0857  1.7943 -0.1409
  468TIP3   OH2 1367   5.459   5.526   3.519  0.0513  0.1335 -0.1817
  468TIP3    H1 1368   5.423   5.452   3.470  0.4721 -0.2557  0.0896
  468TIP3    H2 1369   5.501   5.486   3.596 -0.8107  0.7475  0.6352
  469TIP3   OH2 1370   4.866   2.452   0.238 -0.5665  0.3398  0.3500
  469TIP3    H1 1371   4.847   2.359   0.243 -0.0157  0.2622  1.2829
  469TIP3    H2 1372   4.890   2.477   0.328 -0.9756  1.4343  0.1740
  470TIP3   OH2 1373   1.963   2.852   5.023 -0.1132  0.0448  0.5525
  470TIP3    H1 1374   1.868   2.846   5.013 -0.1799  2.1268 -0.4102
  470TIP3    H2 1375   1.998   2.821   4.939  0.0277  0.2942  0.5207
  471TIP3   OH2 1376   1.756   3.904   2.989 -0.2789 -0.4151  0.0852
  471TIP3    H1 1377   1.799   3.988   2.973 -1.5493 -0.0233 -1.6018
  471TIP3    H2 1378   1.714   3.882   2.905  0.8790 -3.2744  0.1601
  472TIP3   OH2 1379   4.791   4.008   3.396  0.0223 -0.3416 -0.1935
  472TIP3    H1 1380   4.783   3.963   3.313  1.0566 -0.3836 -0.2891
  472TIP3    H2 1381   4.846   3.951   3.449 -0.7285 -0.3748  0.5713
  473TIP3   OH2 1382   1.179   2.913   2.741  0.6872  0.6720  0.0043
  473TIP3    H1 1383   1.109   2.886   2.801 -0.9489  1.6878 -1.3448
  473TIP3    H2 1384   1.221   2.987   2.786  1.3743 -0.3569  1.1162
  474TIP3   OH2 1385   3.429   2.751   3.608  0.3052  0.2444  0.2959
  474TIP3    H1 1386   3.441   2.795   3.524  0.5128 -1.1201 -0.4006
  474TIP3    H2 1387   3.438   2.658   3.589 -0.6769 -0.1594  1.6505
  475TIP3   OH2 1388   0.634   2.961   5.404  0.4102  0.2053 -0.0417
  475TIP3    H1 1389   0.587   2.938   5.484  1.1242 -0.9472  0.0700
  475TIP3    H2 1390   0.724   2.976   5.433 -0.1024  4.2156  0.0636
  476TIP3   OH2 1391   6.445   6.632   3.471 -0.5656 -0.2016  0.1424
  476TIP3    H1 1392   6.502   6.626   3.394 -0.1323  0.9960  0.3460
  476TIP3    H2 1393   6.479   6.566   3.531 -0.0183 -0.1788 -0.1374
  477TIP3   OH2 1394   2.522   2.415   4.914 -0.2066 -0.1511 -0.2678
  477TIP3    H1 1395   2.520   2.387   5.005 -0.2043  0.6031 -0.0264
  477TIP3    H2 1396   2.615   2.433   4.896 -0.4193  1.5726  0.1902
  478TIP3   OH2 1397   3.308   0.919   3.551 -0.0845 -0.2467 -0.4831
  478TIP3    H1 1398   3.339   0.885   3.634  1.9143  0.8042 -0.7295
  478TIP3    H2 1399   3.260   0.999   3.574  1.8163  0.9293 -0.3652
  479TIP3   OH2 1400   2.613   5.201   1.421  0.1979 -0.5947  0.1971
  479TIP3    H1 1401   2.651   5.146   1.490 -0.9538  0.1822  1.5020
  479TIP3    H2 1402   2.687   5.248   1.384  0.6518  0.3966  2.2277
  480TIP3   OH2 1403   3.726   2.328   0.609  0.1256 -0.4814  0.4547
  480TIP3    H1 1404   3.756   2.412   0.643 -0.4993  0.5098 -1.2836
  480TIP3    H2 1405   3.804   2.273   0.607  0.4781 -0.0822  1.9232
  481TIP3   OH2 1406   2.753   4.549   4.588 -0.3896  0.5370  0.1903
  481TIP3    H1 1407   2.793   4.623   4.542  0.5695  0.2744  0.5780
  481TIP3    H2 1408   2.826   4.508   4.635 -1.5260  1.5630  3.0512
  482TIP3   OH2 1409   5.457   6.153   3.746 -0.2321  0.4781 -0.0371
  482TIP3    H1 1410   5.485   6.237   3.782  0.3867  0.7781 -1.1870
  482TIP3    H2 1411   5.525   6.091   3.773 -0.9393  0.2113  1.2377
  483TIP3   OH2 1412   4.553   4.072   0.888 -0.6748  0.4957  0.0260
  483TIP3    H1 1413   4.514   3.985   0.899  2.5940 -1.2167 -0.6969
  483TIP3    H2 1414   4.481   4.126   0.857 -3.1585 -1.5765  1.7531
  484TIP3   OH2 1415   6.362   0.238   2.583 -0.2637 -0.8550  0.5063
  484TIP3    H1 1416   6.323   0.151   2.575  0.6909 -1.1982 -0.8291
  484TIP3    H2 1417   6.353   0.276   2.495 -0.2854  0.2274  0.9642
  485TIP3   OH2 1418   1.265   6.530   5.812  0.7350 -0.2350 -0.0168
  485TIP3    H1 1419   1.331   6.481   5.763  0.9880  1.2423 -1.2258
  485TIP3    H2 1420   1.223   6.585   5.746 -0.2031  0.4616  1.1285
  486TIP3   OH2 1421   5.032   4.187   4.899  0.2081  0.3365 -0.2555
  486TIP3    H1 1422   4.957   4.149   4.946 -0.3268 -0.5170 -1.7389
  486TIP3    H2 1423   5.018   4.163   4.808  1.4812  1.5298 -0.8067
  487TIP3   OH2 1424   0.340   6.140   1.406 -0.4811 -0.0475 -0.2980
  487TIP3    H1 1425   0.321   6.202   1.336 -0.3525  0.5202  0.1606
  487TIP3    H2 1426   0.285   6.170   1.479  0.8291  0.5680  0.4835
  488TIP3   OH2 1427   1.691   3.077   1.536  0.0784 -0.0410 -0.4626
  488TIP3    H1 1428   1.763   3.097   1.596  0.6351 -1.2665 -0.6959
  488TIP3    H2 1429   1.618   3.052   1.593  0.9659 -2.3854 -0.2669
  489TIP3   OH2 1430   6.044   0.496   1.189 -0.2386  0.3358  0.3564
  489TIP3    H1 1431   6.038   0.401   1.199  0.3715  0.3574  1.0510
  489TIP3    H2 1432   6.110   0.522   1.254 -0.0213  1.1711 -0.1914
  490TIP3   OH2 1433   1.326   5.621   5.579 -0.0009 -0.3284  0.3521
  490TIP3    H1 1434   1.386   5.631   5.653 -0.0311  0.0140  0.3292
  490TIP3    H2 1435   1.313   5.526   5.573  0.3997 -0.3968  0.4676
  491TIP3   OH2 1436   1.536   3.327   1.371 -0.0667  0.7423  0.0667
  491TIP3    H1 1437   1.579   3.324   1.456 -0.6191  1.4697  0.3926
  491TIP3    H2 1438   1.442   3.334   1.392 -0.2319  0.6408 -0.6005
  492TIP3   OH2 1439   6.635   6.406   5.511 -0.1614  0.2026  0.2762
  492TIP3    H1 1440   6.689   6.482   5.493  0.5566 -0.6304 -1.2734
  492TIP3    H2 1441   6.670   6.369   5.592 -0.1483  1.1873  0.7211
  493TIP3   OH2 1442   3.913   5.229   4.995 -0.7354  0.2125 -0.3771
  493TIP3    H1 1443   3.864   5.175   4.934 -1.1990 -0.3703  0.4999
  493TIP3    H2 1444   3.942   5.169   5.063  0.6058  0.6727 -0.5057
  494TIP3   OH2 1445   6.602   4.136   2.127  0.2165 -0.3781  0.0578
  494TIP3    H1 1446   6.606   4.172   2.216 -1.9788 -1.7675  0.7790
  494TIP3    H2 1447   6.509   4.128   2.108  0.6436 -1.4938 -1.8292
  495TIP3   OH2 1448   1.704   0.634   5.172 -0.3113 -0.3804  0.4633
  495TIP3    H1 1449   1.733   0.725   5.182  1.1690 -0.7811 -0.0169
  495TIP3    H2 1450   1.690   0.603   5.261  3.4325 -0.9717  1.0135
  496TIP3   OH2 1451   2.007   3.602   1.155  0.3302  0.0634 -0.8318
  496TIP3    H1 1452   2.061   3.660   1.209  0.8393  0.4890 -1.7807
  496TIP3    H2 1453   2.061   3.524   1.141 -0.1192 -0.4074 -0.0694
  497TIP3   OH2 1454   5.036   0.259   1.689 -0.6182  0.2677 -0.2095
  497TIP3    H1 1455   5.007   0.194   1.754 -1.4828  0.2010 -0.6544
  497TIP3    H2 1456   5.116   0.295   1.727 -0.3177 -0.7926  0.2288
  498TIP3   OH2 1457   0.002   2.607   5.125  0.2340  0.0290  0.3582
  498TIP3    H1 1458  -0.049   2.612   5.206  1.8435  0.2067  1.3973
  498TIP3    H2 1459   0.085   2.649   5.146  0.2840  1.0880 -1.7396
  499TIP3   OH2 1460   3.568   4.124   5.586  0.0261  0.0869  0.4098
  499TIP3    H1 1461   3.486   4.165   5.558 -1.2268 -1.7127  1.2547
  499TIP3    H2 1462   3.618   4.114   5.506 -0.2096  1.9178 -0.0172
  500TIP3   OH2 1463   0.169   4.580   1.162  0.3216  0.0024  0.0115
  500TIP3    H1 1464   0.111   4.510   1.132 -0.3880  1.0576 -1.1908
  500TIP3    H2 1465   0.174   4.641   1.088  3.2030 -0.1460 -0.0262
  501TIP3   OH2 1466   5.163   0.591   5.582  0.1448 -0.0770  0.0725
  501TIP3    H1 1467   5.126   0.677   5.564  0.5136  0.4666  1.7232
  501TIP3    H2 1468   5.099   0.549   5.639  1.0171  0.0246  1.1608
  502TIP3   OH2 1469   6.533   4.436   1.932 -0.2439  0.3945  0.0573
  502TIP3    H1 1470   6.504   4.467   1.846  0.1473  0.5899 -0.0060
  502TIP3    H2 1471   6.600   4.370   1.912 -0.0871  0.5074  0.2149
  503TIP3   OH2 1472   4.538   6.753   3.103  0.4518  0.3757 -0.3347
  503TIP3    H1 1473   4.541   6.709   3.188 -0.2236 -0.8034 -0.9006
  503TIP3    H2 1474   4.593   6.700   3.046 -0.0153  0.5175 -0.9248
  504TIP3   OH2 1475   4.329   3.574   5.825  0.0347 -0.5898 -0.2866
  504TIP3    H1 1476   4.365   3.544   5.742  0.7116  0.3820 -0.3631
  504TIP3    H2 1477   4.362   3.664   5.835 -0.6222 -0.4332  0.6821
  505TIP3   OH2 1478   6.280   0.590   5.439  0.0892 -0.2476 -0.4853
  505TIP3    H1 1479   6.294   0.548   5.354  2.1098  0.2822 -0.4697
  505TIP3    H2 1480   6.302   0.682   5.425 -1.1394  0.1771  0.2457
  506TIP3   OH2 1481   4.849   4.992   0.506  0.3687  0.5808  0.2077
  506TIP3    H1 1482   4.801   5.044   0.569  0.2955  0.1709  0.4890
  506TIP3    H2 1483   4.893   5.057   0.450 -0.0232  0.9434  0.3207
  507TIP3   OH2 1484   2.642   3.086   0.654  0.1011 -0.0667  0.2073
  507TIP3    H1 1485   2.697   3.014   0.685 -0.4733 -0.5660  0.0947
  507TIP3    H2 1486   2.580   3.102   0.726  0.5338  0.6549  0.4332
  508TIP3   OH2 1487   6.621   0.287   2.137 -0.2893 -0.3002  0.2371
  508TIP3    H1 1488   6.590   0.367   2.181 -0.3609 -0.3436  0.2655
  508TIP3    H2 1489   6.640   0.315   2.047  0.6344 -0.0241  0.5041
  509TIP3   OH2 1490   2.220   4.269   3.881  0.3056 -0.2852 -0.1583
  509TIP3    H1 1491   2.181   4.280   3.968 -0.1247 -1.1061 -0.2387
  509TIP3    H2 1492   2.236   4.175   3.874 -1.0343 -0.4485 -1.5322
  510TIP3   OH2 1493   5.233   0.903   4.535  0.5258  0.1353 -0.3176
  510TIP3    H1 1494   5.270   0.851   4.607  1.1961 -0.0649 -0.7980
  510TIP3    H2 1495   5.307   0.952   4.500  0.2870 -0.0480 -1.1030
  511TIP3   OH2 1496   6.287   4.961   3.361 -0.1659  0.1873 -0.0985
  511TIP3    H1 1497   6.299   4.866   3.362  0.1729  0.2280 -0.0067
  511TIP3    H2 1498   6.210   4.977   3.414 -1.6292 -0.2207 -1.9829
  512TIP3   OH2 1499   2.134   4.423   3.651 -0.3013  0.0410 -0.6713
  512TIP3    H1 1500   2.067   4.369   3.608  0.0142 -1.4047  0.5624
  512TIP3    H2 1501   2.160   4.372   3.728 -0.9248  2.5336  1.3328
  513TIP3   OH2 1502   3.037   0.395   2.111  0.5885  0.1387 -0.6663
  513TIP3    H1 1503   3.015   0.317   2.060 -0.2147 -1.3267  1.7512
  513TIP3    H2 1504   3.129   0.381   2.136  0.5836  0.1935 -0.6199
  514TIP3   OH2 1505   1.380   4.186   5.497  0.9068  0.0141  0.0107
  514TIP3    H1 1506   1.425   4.143   5.571  3.5052  1.7717 -0.4000
  514TIP3    H2 1507   1.449   4.199   5.432 -0.3471  2.3295 -0.9769
  515TIP3   OH2 1508   4.079   5.542   1.659 -0.0365  0.1454  0.4467
  515TIP3    H1 1509   4.010   5.550   1.725 -0.3775 -2.6456  0.5424
  515TIP3    H2 1510   4.133   5.469   1.689 -0.4730 -1.5564 -2.5414
  516TIP3   OH2 1511   6.781   4.534   2.896  0.3741  0.2597  0.2848
  516TIP3    H1 1512   6.813   4.623   2.912  0.5115  0.1675  0.5187
  516TIP3    H2 1513   6.690   4.546   2.870  0.0492  0.3967  1.4209
  517TIP3   OH2 1514   1.620   4.101   4.602 -0.1068 -0.0372  0.1367
  517TIP3    H1 1515   1.619   4.087   4.697  0.8764 -0.5642  0.0799
  517TIP3    H2 1516   1.701   4.061   4.572  1.1841  2.8010 -0.5217
  518TIP3   OH2 1517   1.314   5.616   2.043  0.2398 -0.3116  0.6092
  518TIP3    H1 1518   1.228   5.638   2.077 -0.2758 -1.0444 -0.1724
  518TIP3    H2 1519   1.350   5.699   2.011 -1.4822 -0.4301 -1.9082
  519TIP3   OH2 1520   2.031   1.986   4.114  0.2801 -0.1552  0.0546
  519TIP3    H1 1521   2.079   1.998   4.196 -0.3339 -1.3460  0.5989
  519TIP3    H2 1522   2.079   1.919   4.067  0.6283  0.5205 -0.5849
  520TIP3   OH2 1523   4.482   4.082   3.243  0.0620  0.0012  0.4233
  520TIP3    H1 1524   4.527   4.008   3.201  0.1175  0.6765 -0.7565
  520TIP3    H2 1525   4.391   4.054   3.251 -0.0246 -0.0182 -0.4976
  521TIP3   OH2 1526   5.013   5.805   2.225 -0.5505  0.3191  0.8888
  521TIP3    H1 1527   5.099   5.767   2.210 -0.8400 -0.0962  0.2240
  521TIP3    H2 1528   5.027   5.900   2.220  0.1654  0.3361  2.5196
  522TIP3   OH2 1529   6.514   4.945   1.944  0.3787  0.2013 -0.2573
  522TIP3    H1 1530   6.454   5.014   1.971  0.1384 -0.4557  0.9562
  522TIP3    H2 1531   6.464   4.892   1.882 -0.1066  0.0050  0.2949
  523TIP3   OH2 1532   4.598   1.570   4.985  0.3397 -0.0051  0.1506
  523TIP3    H1 1533   4.598   1.498   5.047 -1.4599  0.2336  0.4742
  523TIP3    H2 1534   4.613   1.648   5.038 -1.4718  0.2292  0.3851
  524TIP3   OH2 1535   5.596   3.726   1.888 -0.0096  0.4989 -0.0958
  524TIP3    H1 1536   5.546   3.788   1.835 -0.5586  0.1125 -0.0404
  524TIP3    H2 1537   5.536   3.702   1.959  0.8048  1.2096  0.8547
  525TIP3   OH2 1538   4.124   0.300   2.022  0.1686 -0.4640  0.3779
  525TIP3    H1 1539   4.099   0.331   1.935 -0.5310  2.8612  1.6135
  525TIP3    H2 1540   4.043   0.268   2.060 -0.5576  2.1204  1.2320
  526TIP3   OH2 1541   4.531   5.050   2.513  0.4082  0.3416 -0.0116
  526TIP3    H1 1542   4.590   5.018   2.581  2.5749  1.2181 -1.3915
  526TIP3    H2 1543   4.492   5.129   2.549  0.0275 -0.2467  0.9091
  527TIP3   OH2 1544   1.369   2.961   2.201  0.1912  0.7810  0.5018
  527TIP3    H1 1545   1.274   2.964   2.188  0.1470  1.6372  0.9420
  527TIP3    H2 1546   1.385   3.026   2.269  0.6073 -2.1228  3.4020
  528TIP3   OH2 1547   0.519   1.663   3.686  0.0294 -0.5787 -1.3253
  528TIP3    H1 1548   0.520   1.581   3.737  2.0874  0.7267  0.9241
  528TIP3    H2 1549   0.607   1.669   3.648 -0.2790  0.3377 -1.9297
  529TIP3   OH2 1550   6.208   4.298   5.708  0.3029 -0.5139  0.1918
  529TIP3    H1 1551   6.130   4.346   5.679  0.2710 -1.1123 -0.7644
  529TIP3    H2 1552   6.257   4.361   5.760 -0.7256 -0.0687  0.6541
  530TIP3   OH2 1553   0.506   6.399   5.059  0.2760 -0.5648  0.1464
  530TIP3    H1 1554   0.477   6.352   5.137 -2.5881 -0.2307 -0.6192
  530TIP3    H2 1555   0.563   6.337   5.014  0.9885 -1.2168  1.8391
  531TIP3   OH2 1556   1.762   0.173   3.897 -0.1501 -0.7565  0.2235
  531TIP3    H1 1557   1.765   0.230   3.820  1.0278  0.0855  0.8602
  531TIP3    H2 1558   1.817   0.217   3.962 -2.4812 -0.5260  2.2024
  532TIP3   OH2 1559   4.388   2.308   4.754 -0.0355  0.2674 -0.5192
  532TIP3    H1 1560   4.355   2.221   4.730 -1.2439  0.6132 -0.1816
  532TIP3    H2 1561   4.448   2.331   4.683 -1.3398  0.0577 -1.7271
  533TIP3   OH2 1562   5.400   2.988   0.862 -0.1996  0.0448  0.4850
  533TIP3    H1 1563   5.427   2.931   0.790 -1.7870  0.3502 -0.3879
  533TIP3    H2 1564   5.467   2.975   0.929  1.4963 -0.0355 -1.1359
  534TIP3   OH2 1565   0.756   6.498   4.884  0.0279  0.3720  0.3672
  534TIP3    H1 1566   0.767   6.461   4.972  1.8070  0.3100  0.1470
  534TIP3    H2 1567   0.758   6.593   4.897 -0.8101  0.3863  0.4926
  535TIP3   OH2 1568   6.850   5.529   4.134 -0.1269 -0.2338 -0.3360
  535TIP3    H1 1569   6.763   5.512   4.099 -0.3672  2.5656 -1.2874
  535TIP3    H2 1570   6.910   5.501   4.065 -0.3101 -0.6081 -0.3487
  536TIP3   OH2 1571   3.600   2.216   0.923  0.3691  0.2830  0.6138
  536TIP3    H1 1572   3.561   2.148   0.869  1.4188 -0.2844  0.5412
  536TIP3    H2 1573   3.541   2.224   0.998  0.3731 -0.9048  0.7623
  537TIP3   OH2 1574   5.549   4.924   5.161 -0.4232 -0.0572  0.0324
  537TIP3    H1 1575   5.552   4.878   5.078  1.6332 -0.8795  0.4950
  537TIP3    H2 1576   5.545   4.855   5.227  0.6890  0.4668  0.6757
  538TIP3   OH2 1577   6.870   1.121   4.848  0.7247  0.0496  0.1204
  538TIP3    H1 1578   6.811   1.071   4.791 -0.1414  0.5154  0.5884
  538TIP3    H2 1579   6.901   1.193   4.792 -0.8672  1.0585  0.4722
  539TIP3   OH2 1580   5.058   5.502   5.099  0.2753  0.3187  0.5570
  539TIP3    H1 1581   4.973   5.545   5.090  0.5622  0.6750 -0.5584
  539TIP3    H2 1582   5.109   5.531   5.024  0.1993 -2.6086 -0.7795
  540TIP3   OH2 1583   1.693   1.918   1.136  0.6077  1.2614 -0.4344
  540TIP3    H1 1584   1.756   1.870   1.083 -0.7681  0.9109 -1.8235
  540TIP3    H2 1585   1.639   1.966   1.073 -1.0564  0.8659  0.6106
  541TIP3   OH2 1586   2.969   2.854   5.660 -0.0587 -0.6306  0.3120
  541TIP3    H1 1587   2.938   2.779   5.611 -0.2081 -0.5114  0.2216
  541TIP3    H2 1588   3.042   2.889   5.608  1.1268 -1.7014  1.1888
  542TIP3   OH2 1589   1.141   3.475   3.084 -0.1419  0.2753  0.2194
  542TIP3    H1 1590   1.150   3.385   3.115 -0.4709  0.6922  1.5791
  542TIP3    H2 1591   1.046   3.488   3.078 -0.1038 -0.0376 -1.7770
  543TIP3   OH2 1592   5.327   0.534   0.280 -0.5785 -0.0715 -0.1391
  543TIP3    H1 1593   5.311   0.487   0.362 -1.5130  2.6464  1.3911
  543TIP3    H2 1594   5.410   0.579   0.294 -1.2719  1.2870 -0.1702
  544TIP3   OH2 1595   4.486   2.129   5.827  0.3895  0.0505 -0.2630
  544TIP3    H1 1596   4.549   2.198   5.808 -0.1063  0.8522  0.8748
  544TIP3    H2 1597   4.531   2.048   5.805  1.7697  0.6088  0.4002
  545TIP3   OH2 1598   6.315   1.902   3.722  0.5003 -0.1204 -0.1726
  545TIP3    H1 1599   6.280   1.817   3.696  1.4146 -0.2337 -1.0775
  545TIP3    H2 1600   6.410   1.889   3.725  0.5433  0.3280  1.6773
  546TIP3   OH2 1601   2.856   1.931   3.589  0.6213 -0.4744 -0.4421
  546TIP3    H1 1602   2.785   1.912   3.650 -1.5187  1.2798 -2.2039
  546TIP3    H2 1603   2.884   1.846   3.556  0.2682 -1.2857  1.2433
  547TIP3   OH2 1604   3.567   4.347   1.834  0.3238 -0.2557 -0.5076
  547TIP3    H1 1605   3.575   4.428   1.884 -0.2028  1.2291 -2.6641
  547TIP3    H2 1606   3.484   4.356   1.787  0.9878 -1.3260 -1.9678
  548TIP3   OH2 1607   6.471   0.684   0.284 -0.2022  0.1939  0.7763
  548TIP3    H1 1608   6.395   0.665   0.230 -0.7776  2.5136  0.6887
  548TIP3    H2 1609   6.531   0.730   0.225  0.0280  0.9478  1.5902
  549TIP3   OH2 1610   5.040   4.233   1.930 -0.1315  0.3407  0.0063
  549TIP3    H1 1611   5.023   4.297   1.862 -1.3474  0.8165  0.7261
  549TIP3    H2 1612   5.045   4.149   1.884  0.5638  0.8238 -0.8301
  550TIP3   OH2 1613   1.168   5.677   5.907 -0.3053  0.3377 -0.0686
  550TIP3    H1 1614   1.174   5.598   5.853 -0.4474  0.6751 -0.5885
  550TIP3    H2 1615   1.169   5.749   5.844 -0.3215  0.7464  0.3920
  551TIP3   OH2 1616   6.816   5.147   1.208 -0.2943  0.0928 -0.0597
  551TIP3    H1 1617   6.757   5.223   1.210  0.5827  0.7889 -0.0311
  551TIP3    H2 1618   6.884   5.171   1.145  0.3081 -0.4227  0.3804
  552TIP3   OH2 1619   4.771   5.892   2.270  0.4215 -0.2409  0.5185
  552TIP3    H1 1620   4.858   5.860   2.247  0.1062 -0.8659  0.1915
  552TIP3    H2 1621   4.786   5.948   2.346  1.2167  0.2966 -0.0147
  553TIP3   OH2 1622   4.424   2.065   2.565  0.9879 -0.5213  0.0500
  553TIP3    H1 1623   4.496   2.002   2.573 -0.2153 -2.1103 -0.9983
  553TIP3    H2 1624   4.407   2.069   2.471  0.4239  0.6757  0.1939
  554TIP3   OH2 1625   2.249   3.365   0.029 -0.0343  0.1661 -0.9909
  554TIP3    H1 1626   2.343   3.376   0.038 -0.0373 -0.5640  0.0507
  554TIP3    H2 1627   2.225   3.422  -0.045  1.0203  1.3487 -0.4555
  555TIP3   OH2 1628   5.542   6.493   0.038  0.8571 -0.1279  1.1430
  555TIP3    H1 1629   5.544   6.568  -0.021 -2.7512 -0.2138  0.6528
  555TIP3    H2 1630   5.573   6.528   0.122  0.8958  1.4629  0.4979
  556TIP3   OH2 1631   4.104   2.076   1.495 -0.2133 -0.0265  0.1424
  556TIP3    H1 1632   4.113   2.070   1.590  2.1879 -1.3265 -0.1092
  556TIP3    H2 1633   4.141   1.995   1.461  0.9549  1.3010 -1.9946
  557TIP3   OH2 1634   7.010   4.626   5.182  0.5486 -0.1574 -0.1569
  557TIP3    H1 1635   7.095   4.624   5.137  0.6805 -1.4319  0.0974
  557TIP3    H2 1636   7.028   4.585   5.267  0.2713  2.0701  1.0356
  558TIP3   OH2 1637   0.153   3.067   2.992  0.3247 -0.5030 -0.1239
  558TIP3    H1 1638   0.166   3.133   3.060  1.5546 -0.8449 -0.0045
  558TIP3    H2 1639   0.241   3.047   2.961  0.2960 -3.9209  1.5922
  559TIP3   OH2 1640   6.808   6.247   1.901 -0.1315 -0.2257 -0.9426
  559TIP3    H1 1641   6.880   6.286   1.852  0.8729 -1.2477 -0.3407
  559TIP3    H2 1642   6.759   6.196   1.837  0.7541 -0.9789 -1.0309
  560TIP3   OH2 1643   6.289   2.121   5.133 -0.1911 -0.2080 -0.0500
  560TIP3    H1 1644   6.316   2.202   5.176  1.1536 -1.0512  0.7518
  560TIP3    H2 1645   6.247   2.070   5.202  1.3606 -1.2785  0.1396
  561TIP3   OH2 1646   4.237   4.702   3.879  0.1549 -0.3209 -0.1794
  561TIP3    H1 1647   4.222   4.790   3.845  3.6360 -0.0956 -1.5580
  561TIP3    H2 1648   4.283   4.716   3.962 -1.8399 -0.9318  1.1090
  562TIP3   OH2 1649   0.444   6.027   1.699 -0.0393  0.0722  0.2592
  562TIP3    H1 1650   0.461   5.981   1.617 -0.2855  1.2343 -0.4701
  562TIP3    H2 1651   0.430   5.958   1.764  1.7238 -0.8941 -0.3200
  563TIP3   OH2 1652   0.206   0.358   5.601  0.4658  0.2260 -0.0472
  563TIP3    H1 1653   0.134   0.352   5.538 -1.5687  4.2194  1.5252
  563TIP3    H2 1654   0.163   0.345   5.686  1.9932  0.6318  0.8113
  564TIP3   OH2 1655   0.332   0.160   3.218 -0.2324 -0.0051 -0.5981
  564TIP3    H1 1656   0.241   0.132   3.208 -0.4015  0.9368 -1.8734
  564TIP3    H2 1657   0.355   0.201   3.135  0.2584  2.8454  0.8167
  565TIP3   OH2 1658   5.627   3.154   4.888 -0.6352  0.1998  0.7782
  565TIP3    H1 1659   5.565   3.187   4.823 -1.4059  1.9570  2.3305
  565TIP3    H2 1660   5.599   3.063   4.903 -1.1488  0.1238 -0.4643
  566TIP3   OH2 1661   6.071   1.957   3.535  0.3189 -0.0670  0.0343
  566TIP3    H1 1662   6.024   2.018   3.592  0.6834  1.4679 -1.2665
  566TIP3    H2 1663   6.160   1.956   3.570  0.2383 -0.1268  0.2442
  567TIP3   OH2 1664   2.756   4.855   0.272  0.1774  0.5417  1.1585
  567TIP3    H1 1665   2.759   4.784   0.209  0.9668  1.2224  0.4036
  567TIP3    H2 1666   2.847   4.886   0.278 -0.5119  3.3202 -0.6928
  568TIP3   OH2 1667   4.373   1.837   3.021 -0.2645 -0.8524 -0.3990
  568TIP3    H1 1668   4.288   1.809   3.055 -0.8993  0.2969 -0.9570
  568TIP3    H2 1669   4.397   1.771   2.956 -0.4615 -1.4642  0.1386
  569TIP3   OH2 1670   2.086   3.722   2.662  0.5341  0.1454  0.4468
  569TIP3    H1 1671   2.089   3.628   2.679 -0.3224 -0.0810 -0.5341
  569TIP3    H2 1672   2.020   3.756   2.724  0.5530  0.0396  0.5243
  570TIP3   OH2 1673   6.678   4.821   2.126  0.7160 -0.2675 -0.3712
  570TIP3    H1 1674   6.615   4.856   2.063  1.9820  0.0683 -1.4906
  570TIP3    H2 1675   6.728   4.755   2.077  0.6503 -1.1868  0.7496
  571TIP3   OH2 1676   4.329   3.824   3.964  0.2084  0.1748  0.1949
  571TIP3    H1 1677   4.254   3.883   3.958 -1.0893 -1.3069  1.2228
  571TIP3    H2 1678   4.293   3.737   3.948  1.8445 -0.4999 -0.0023
  572TIP3   OH2 1679   4.256   4.851   5.051 -0.0556  0.2129  0.6770
  572TIP3    H1 1680   4.268   4.800   5.131 -0.1077  1.1005  1.2622
  572TIP3    H2 1681   4.182   4.908   5.069  0.4211  0.9780  0.2907
  573TIP3   OH2 1682   6.146   2.530   0.704  0.6028 -0.0839  0.3252
  573TIP3    H1 1683   6.065   2.479   0.695 -0.1124  0.8994  1.0277
  573TIP3    H2 1684   6.140   2.570   0.791  1.4421  0.6959  0.0432
  574TIP3   OH2 1685   5.474   4.197   5.660  0.5098  0.3163 -0.2583
  574TIP3    H1 1686   5.448   4.241   5.741  0.2068 -1.2141  0.5197
  574TIP3    H2 1687   5.513   4.266   5.607  1.0846  1.2988  1.3487
  575TIP3   OH2 1688   2.206   6.320   5.334 -0.5072  0.2198 -0.2024
  575TIP3    H1 1689   2.298   6.325   5.358  0.2895 -0.0111 -2.9177
  575TIP3    H2 1690   2.205   6.271   5.252 -2.6349  3.0585 -2.0923
  576TIP3   OH2 1691   6.875   3.149   0.810  0.4341 -0.0431  0.2407
  576TIP3    H1 1692   6.835   3.207   0.875  0.1644  0.7498 -0.6052
  576TIP3    H2 1693   6.954   3.194   0.782 -0.3370  0.4904 -1.2192
  577TIP3   OH2 1694   4.526   4.304   5.231  0.0502 -0.3368  0.6954
  577TIP3    H1 1695   4.477   4.348   5.160  0.9150 -0.3785  0.0648
  577TIP3    H2 1696   4.617   4.331   5.218  0.1447  0.2074  2.2093
  578TIP3   OH2 1697   6.508   5.317   5.558 -0.1551 -0.1568 -0.5235
  578TIP3    H1 1698   6.519   5.383   5.489 -1.5455  0.0645 -0.5650
  578TIP3    H2 1699   6.469   5.365   5.631  1.8773 -0.2508  0.7043
  579TIP3   OH2 1700   5.708   4.655   5.476 -0.0981 -0.3395  0.5177
  579TIP3    H1 1701   5.686   4.662   5.383 -0.7180 -0.1425  0.6756
  579TIP3    H2 1702   5.759   4.734   5.495  0.0327 -0.3827  0.3457
  580TIP3   OH2 1703   2.796   3.782   2.405  0.1932 -0.2504 -0.4331
  580TIP3    H1 1704   2.812   3.799   2.312  0.1370 -1.0163 -0.5904
  580TIP3    H2 1705   2.882   3.791   2.446 -0.0275  1.6826 -0.2732
  581TIP3   OH2 1706   0.864   5.231   4.395  0.3259 -0.3834  0.6036
  581TIP3    H1 1707   0.949   5.195   4.420  0.2496 -0.5812  0.5759
  581TIP3    H2 1708   0.876   5.259   4.304  0.4669 -0.0827  0.7124
  582TIP3   OH2 1709   1.155   4.536   0.992 -0.2971  0.2305  0.4106
  582TIP3    H1 1710   1.189   4.447   1.003 -0.2918  0.1658 -0.0973
  582TIP3    H2 1711   1.077   4.539   1.048  0.7743  0.5292  1.9456
  583TIP3   OH2 1712   5.823   3.254   2.141 -0.3766  1.0241  0.2139
  583TIP3    H1 1713   5.888   3.285   2.204  1.7018 -2.1839 -0.0908
  583TIP3    H2 1714   5.818   3.323   2.075  2.8919  1.4266  0.2197
  584TIP3   OH2 1715   1.604   6.567   2.557 -0.7520 -0.4215 -0.3123
  584TIP3    H1 1716   1.684   6.592   2.511  0.0422 -1.5433  0.4017
  584TIP3    H2 1717   1.542   6.547   2.488 -0.9500  1.9072 -0.9047
  585TIP3   OH2 1718   2.821   5.230   5.552 -0.2459  0.2125 -0.2446
  585TIP3    H1 1719   2.784   5.312   5.585  0.0392  0.7911 -1.3142
  585TIP3    H2 1720   2.748   5.185   5.511 -0.4367 -0.1552  0.4798
  586TIP3   OH2 1721   5.613   4.714   0.250  0.6141 -0.4344 -0.1755
  586TIP3    H1 1722   5.593   4.651   0.181  2.8527 -1.2022 -0.1806
  586TIP3    H2 1723   5.583   4.672   0.330  0.4548 -0.7090 -0.3777
  587TIP3   OH2 1724   2.681   1.895   5.044 -0.2817  0.0934 -0.7549
  587TIP3    H1 1725   2.600   1.936   5.073 -0.3452  1.0497 -2.1973
  587TIP3    H2 1726   2.695   1.823   5.106 -0.5992  1.7411  1.3642
  588TIP3   OH2 1727   5.842   6.447   1.103 -0.1436 -0.0970 -0.3559
  588TIP3    H1 1728   5.878   6.430   1.190 -0.2591 -0.0150 -0.2922
  588TIP3    H2 1729   5.773   6.381   1.092 -0.4681  0.2133 -0.1825
  589TIP3   OH2 1730   1.781   1.206   3.068  0.5683  0.3565 -0.0434
  589TIP3    H1 1731   1.708   1.176   3.014  0.8686  2.7917 -1.9975
  589TIP3    H2 1732   1.859   1.181   3.019  0.9913 -0.0716  0.8171
  590TIP3   OH2 1733   5.840   4.388   1.094  0.0660  0.1386 -0.1831
  590TIP3    H1 1734   5.759   4.420   1.056  0.6640  0.5388 -1.1614
  590TIP3    H2 1735   5.902   4.460   1.084  0.0601  0.5837  2.3156
  591TIP3   OH2 1736   7.057   2.453   0.503  0.2556  0.3156  0.7204
  591TIP3    H1 1737   6.981   2.494   0.462  0.0672  0.1524  0.9053
  591TIP3    H2 1738   7.059   2.365   0.467  0.2125  0.2399  0.8994
  592TIP3   OH2 1739   4.263   2.289   1.440 -0.1166 -0.2708 -0.5122
  592TIP3    H1 1740   4.202   2.216   1.434 -0.1939 -0.1747 -1.0272
  592TIP3    H2 1741   4.256   2.332   1.354  1.0368 -0.5523 -0.7688
  593TIP3   OH2 1742   6.671   1.603   5.866  0.1388  0.4068  0.4335
  593TIP3    H1 1743   6.740   1.563   5.919  0.0156 -0.7819 -0.2497
  593TIP3    H2 1744   6.690   1.696   5.867  2.3648  0.0394 -0.5392
  594TIP3   OH2 1745   4.704   0.944   3.657 -0.0726 -0.0477  0.0374
  594TIP3    H1 1746   4.777   1.004   3.647  0.0833 -0.1703  0.4502
  594TIP3    H2 1747   4.659   0.947   3.573  1.3410 -1.2136 -0.8097
  595TIP3   OH2 1748   1.705   2.250   4.151 -0.2827 -0.0876 -0.5853
  595TIP3    H1 1749   1.737   2.338   4.171  1.3044 -0.6594 -0.4637
  595TIP3    H2 1750   1.740   2.231   4.064  0.7865 -1.1967  0.0556
  596TIP3   OH2 1751   1.670   2.854   1.878 -0.4107 -0.0333 -0.7015
  596TIP3    H1 1752   1.744   2.911   1.900  0.4651 -0.9068 -1.3046
  596TIP3    H2 1753   1.711   2.774   1.845 -1.6224 -1.1564  0.4719
  597TIP3   OH2 1754   2.621   0.067   3.215  0.0587  0.0931  0.1108
  597TIP3    H1 1755   2.633   0.032   3.303 -0.7427 -0.7588 -0.1053
  597TIP3    H2 1756   2.528   0.055   3.197  0.3071 -0.2003 -1.0476
  598TIP3   OH2 1757   4.111   3.487   4.497  0.7690 -0.0182  0.2080
  598TIP3    H1 1758   4.187   3.429   4.492  0.0831 -1.1462  1.8087
  598TIP3    H2 1759   4.102   3.506   4.590 -1.5071 -0.7821  0.2145
  599TIP3   OH2 1760   1.356   2.049   5.765 -0.2671 -0.0574  0.2326
  599TIP3    H1 1761   1.358   1.971   5.710 -1.8283  1.0032 -1.4447
  599TIP3    H2 1762   1.424   2.106   5.728 -1.9944  1.0749 -1.3698
  600TIP3   OH2 1763   4.303   4.479   4.462 -0.3595 -0.2792  0.0320
  600TIP3    H1 1764   4.330   4.566   4.490  0.4985 -0.7557  0.7337
  600TIP3    H2 1765   4.313   4.480   4.367  0.0547  0.2603  0.0768
  601TIP3   OH2 1766   4.331   4.749   2.728 -0.1133 -0.6511 -0.0300
  601TIP3    H1 1767   4.317   4.828   2.780 -1.3384 -0.8879  0.0280
  601TIP3    H2 1768   4.421   4.757   2.696  0.1954  0.1637  0.9804
  602TIP3   OH2 1769   3.416   2.600   2.995  0.5948 -0.3555  0.2523
  602TIP3    H1 1770   3.469   2.657   3.051  1.7759 -1.2039  0.0311
  602TIP3    H2 1771   3.463   2.600   2.911  0.2714 -1.1747  0.0676
  603TIP3   OH2 1772   0.978   5.972   1.091 -0.0431  0.1501  0.1580
  603TIP3    H1 1773   1.059   5.975   1.143  0.6348 -1.1119 -0.7703
  603TIP3    H2 1774   0.919   5.917   1.142  0.4013 -0.5773 -0.1019
  604TIP3   OH2 1775   2.919   0.328   1.577 -0.3218 -0.8105  0.3332
  604TIP3    H1 1776   2.852   0.260   1.586 -0.3096 -0.7382  1.0054
  604TIP3    H2 1777   2.944   0.324   1.484 -0.6593 -1.3989  0.2589
  605TIP3   OH2 1778   3.581   1.836   5.011  0.8112  0.2122 -0.6785
  605TIP3    H1 1779   3.512   1.877   4.959  1.5861 -0.9210 -2.7378
  605TIP3    H2 1780   3.554   1.745   5.019 -0.0641  0.6476  2.3912
  606TIP3   OH2 1781   3.230   2.205   3.418 -0.1441  0.0821  0.5395
  606TIP3    H1 1782   3.199   2.295   3.430 -0.1586  0.2124 -0.3942
  606TIP3    H2 1783   3.161   2.164   3.366 -0.3364 -0.5986  1.3145
  607TIP3   OH2 1784   1.164   3.746   0.528  0.2891 -0.3009  0.1001
  607TIP3    H1 1785   1.213   3.708   0.601  0.1225 -0.2416  0.2420
  607TIP3    H2 1786   1.176   3.683   0.457  0.7993 -0.1532  0.0497
  608TIP3   OH2 1787   6.411   2.087   4.908 -0.1315  0.5573 -0.6205
  608TIP3    H1 1788   6.459   2.159   4.867  0.1422  1.0589  0.5230
  608TIP3    H2 1789   6.372   2.127   4.986 -0.6787 -0.3410 -0.4302
  609TIP3   OH2 1790   5.611   2.327   4.708 -0.2785 -0.2183  0.1971
  609TIP3    H1 1791   5.584   2.359   4.622  1.6446  1.9556  0.2990
  609TIP3    H2 1792   5.545   2.362   4.768  0.4175  1.5513 -0.0090
  610TIP3   OH2 1793   4.763   2.037   2.134 -0.4604  0.0752  0.5502
  610TIP3    H1 1794   4.832   1.990   2.087 -0.7609  0.4182 -0.2367
  610TIP3    H2 1795   4.805   2.116   2.166 -1.1171  1.7421 -2.3729
  611TIP3   OH2 1796   3.795   5.052   4.298 -0.4847  0.7979 -0.2950
  611TIP3    H1 1797   3.793   5.123   4.362 -0.1066 -0.6652  1.4319
  611TIP3    H2 1798   3.703   5.032   4.281 -0.6528 -0.5009  1.8521
  612TIP3   OH2 1799   3.284   2.834   4.204  0.2563  0.5334 -0.2508
  612TIP3    H1 1800   3.369   2.842   4.246 -0.7307  2.9445  1.5211
  612TIP3    H2 1801   3.301   2.784   4.124  2.4844 -2.9441  2.1795
  613TIP3   OH2 1802   1.250   0.952   5.832  0.3470 -0.5375  0.7110
  613TIP3    H1 1803   1.274   1.044   5.842  1.9302 -0.9542  1.0008
  613TIP3    H2 1804   1.207   0.929   5.915 -1.5635  0.3343  0.0183
  614TIP3   OH2 1805   3.945   2.380   1.215  0.4116  0.4778 -0.3488
  614TIP3    H1 1806   4.037   2.404   1.220  0.2003  1.0672  1.2786
  614TIP3    H2 1807   3.943   2.299   1.165  1.7537  0.7074 -0.8041
  615TIP3   OH2 1808   1.870   4.762   1.925 -0.6000  0.3184 -0.2435
  615TIP3    H1 1809   1.938   4.825   1.904 -0.2478  0.2629  0.6533
  615TIP3    H2 1810   1.809   4.766   1.852  0.8419 -0.2993 -1.5401
  616TIP3   OH2 1811   1.377   1.345   3.440  0.1999 -0.3959  0.2614
  616TIP3    H1 1812   1.336   1.393   3.368 -0.4426 -0.0597  0.8324
  616TIP3    H2 1813   1.305   1.296   3.480  0.5717 -0.6877  0.5856
  617TIP3   OH2 1814   3.816   0.071   4.592 -0.2131  0.1147  0.4823
  617TIP3    H1 1815   3.796   0.097   4.682  1.4867 -2.1036  1.5831
  617TIP3    H2 1816   3.894   0.122   4.570 -0.3700  0.3306  0.4238
  618TIP3   OH2 1817   2.578   4.355   3.467 -0.5954 -0.7298 -0.2878
  618TIP3    H1 1818   2.510   4.419   3.490 -0.9206 -0.8349 -0.9273
  618TIP3    H2 1819   2.624   4.395   3.393 -0.4606 -1.0047 -0.3523
  619TIP3   OH2 1820   4.322   1.336   5.591 -0.6077 -0.1162 -0.3514
  619TIP3    H1 1821   4.345   1.378   5.674  0.3290 -0.1447 -0.5792
  619TIP3    H2 1822   4.382   1.261   5.585 -1.3250 -0.6767 -0.5990
  620TIP3   OH2 1823   0.466   2.943   0.626 -0.5721  0.5052 -0.2954
  620TIP3    H1 1824   0.472   3.039   0.633 -1.5389  0.5043  0.6494
  620TIP3    H2 1825   0.556   2.913   0.641 -0.5253  1.1876  0.9115
  621TIP3   OH2 1826   3.981   0.625   5.126  0.2061  0.1166 -0.4139
  621TIP3    H1 1827   4.045   0.599   5.192 -0.8817 -0.1986  0.5502
  621TIP3    H2 1828   4.029   0.623   5.043  1.1695 -1.1447  0.1473
  622TIP3   OH2 1829   4.739   3.499   1.482 -0.1972  0.1692 -0.3731
  622TIP3    H1 1830   4.828   3.504   1.516 -0.6720 -0.8156  1.1301
  622TIP3    H2 1831   4.748   3.513   1.388  1.7306 -1.3952 -0.4908
  623TIP3   OH2 1832   0.250   4.589   0.127  0.1577 -0.2682 -0.7410
  623TIP3    H1 1833   0.228   4.534   0.051 -0.0003 -0.7498 -0.3521
  623TIP3    H2 1834   0.248   4.679   0.093 -0.5011 -0.4356 -1.1712
  624TIP3   OH2 1835   0.171   4.887   4.082  0.2836 -0.5279  0.0971
  624TIP3    H1 1836   0.133   4.805   4.050 -3.5309  0.3101  1.9103
  624TIP3    H2 1837   0.193   4.869   4.174 -1.1144  0.5260  0.6800
  625TIP3   OH2 1838   2.477   2.263   0.019 -0.2261  0.2162 -0.2390
  625TIP3    H1 1839   2.420   2.252   0.096  1.1107 -0.2021  0.7176
  625TIP3    H2 1840   2.473   2.357  -0.000 -0.1944  0.4052  0.6481
  626TIP3   OH2 1841   2.892   1.545   5.498  0.1926  0.7392  0.6783
  626TIP3    H1 1842   2.954   1.618   5.497  0.6055  0.4025 -0.3952
  626TIP3    H2 1843   2.893   1.513   5.588 -0.3529  2.3414  1.2833
  627TIP3   OH2 1844   6.063   2.509   0.172 -0.0487  0.0724 -0.0728
  627TIP3    H1 1845   6.067   2.585   0.230 -2.3279 -0.8416  1.4609
  627TIP3    H2 1846   5.980   2.466   0.195  0.3941 -2.0030 -1.9819
  628TIP3   OH2 1847   2.879   1.765   2.172  0.6008 -0.0085 -0.2942
  628TIP3    H1 1848   2.930   1.685   2.183 -1.0957 -1.2865 -1.3102
  628TIP3    H2 1849   2.897   1.793   2.082 -1.0992 -1.0012 -1.0027
  629TIP3   OH2 1850   4.067   3.010   5.408  0.3519 -0.6218 -0.0047
  629TIP3    H1 1851   4.082   2.936   5.349 -0.1694 -1.0753  0.4224
  629TIP3    H2 1852   4.143   3.009   5.466  0.6360 -0.4587 -0.3666
  630TIP3   OH2 1853   5.783   3.764   2.603  0.1450 -0.2581 -0.2746
  630TIP3    H1 1854   5.696   3.799   2.584  1.2685  2.8370 -0.3261
  630TIP3    H2 1855   5.793   3.690   2.544 -1.9696  0.1093 -1.1728
  631TIP3   OH2 1856   4.702   6.171   2.422  0.2560 -0.0959 -0.1298
  631TIP3    H1 1857   4.793   6.199   2.427  0.5415 -1.1068  0.6595
  631TIP3    H2 1858   4.652   6.252   2.433  1.0545  0.2250  1.4511
  632TIP3   OH2 1859   2.025   4.829   4.258  0.3346  0.4427  0.2029
  632TIP3    H1 1860   2.060   4.818   4.170 -1.5661  0.0934 -0.5608
  632TIP3    H2 1861   2.099   4.861   4.310  2.0666 -1.3221 -1.0125
  633TIP3   OH2 1862   3.266   3.664   2.867 -0.4113  0.3715 -0.1100
  633TIP3    H1 1863   3.193   3.622   2.912 -0.7130  0.1195 -0.8249
  633TIP3    H2 1864   3.273   3.750   2.907 -0.4797  0.0412  0.6234
  634TIP3   OH2 1865   2.952   1.474   5.018  0.0536  0.2012 -0.1595
  634TIP3    H1 1866   2.944   1.469   4.923  0.7310  0.1182 -0.2207
  634TIP3    H2 1867   2.976   1.566   5.035 -1.7059  0.6426  0.0759
  635TIP3   OH2 1868   5.951   6.292   5.403  0.2291 -0.2527  0.1920
  635TIP3    H1 1869   5.957   6.379   5.364  0.0861  0.0394  0.8189
  635TIP3    H2 1870   5.978   6.233   5.332 -0.6454  0.2173 -0.5564
  636TIP3   OH2 1871   4.803   3.742   4.512  0.0009  0.0288  0.8306
  636TIP3    H1 1872   4.857   3.816   4.485  0.6937  0.6910  3.6981
  636TIP3    H2 1873   4.794   3.688   4.433  1.2720  2.0635 -0.7799
  637TIP3   OH2 1874   0.435   2.671   2.351 -0.0342  0.1660  0.2582
  637TIP3    H1 1875   0.418   2.651   2.259  0.6077 -0.1303  0.1930
  637TIP3    H2 1876   0.455   2.765   2.352 -2.5021  0.7518  0.4799
  638TIP3   OH2 1877   6.489   1.168   1.172  0.2732 -0.6007 -0.5026
  638TIP3    H1 1878   6.405   1.126   1.154 -0.1891  0.1741 -0.2032
  638TIP3    H2 1879   6.542   1.151   1.094 -0.5359 -0.1671 -1.1603
  639TIP3   OH2 1880   7.050   2.168   1.498  0.1537  0.0640 -0.0600
  639TIP3    H1 1881   6.963   2.165   1.458 -0.0129  1.4914  0.1512
  639TIP3    H2 1882   7.034   2.149   1.590  0.2353 -0.9126 -0.2417
  640TIP3   OH2 1883   1.307   4.858   4.542 -0.5926 -0.5840  0.8054
  640TIP3    H1 1884   1.371   4.807   4.493 -0.2028  0.2462  0.4368
  640TIP3    H2 1885   1.224   4.842   4.496 -0.0966  0.8248 -0.6444
  641TIP3   OH2 1886   5.239   3.185   3.165 -0.2306  0.0108  0.3740
  641TIP3    H1 1887   5.252   3.094   3.135  1.3264 -0.2590  1.7085
  641TIP3    H2 1888   5.175   3.179   3.235 -1.2458  0.1715 -0.5151
  642TIP3   OH2 1889   3.174   5.063   5.451 -0.2102  0.3342  0.0458
  642TIP3    H1 1890   3.196   5.102   5.536 -0.5369  2.4947 -0.7846
  642TIP3    H2 1891   3.259   5.043   5.412  0.1284  2.1651 -0.2917
  643TIP3   OH2 1892   2.021   2.364   1.285 -0.2118 -0.3833 -0.1848
  643TIP3    H1 1893   2.023   2.449   1.329  0.5197 -1.9601  3.1440
  643TIP3    H2 1894   2.113   2.339   1.276 -0.4167 -1.5666  0.6278
  644TIP3   OH2 1895   6.410   6.329   5.776  0.4907  0.1551  0.5270
  644TIP3    H1 1896   6.502   6.342   5.801  1.0344  1.4109 -1.7735
  644TIP3    H2 1897   6.391   6.403   5.717 -2.0709  0.0203  1.0778
  645TIP3   OH2 1898   1.775   3.842   1.740 -0.2102 -0.0369  0.5504
  645TIP3    H1 1899   1.863   3.807   1.748 -0.4893 -1.3330 -1.2835
  645TIP3    H2 1900   1.738   3.835   1.828  1.0431 -0.7956  1.0432
  646TIP3   OH2 1901   0.047   2.256   5.255 -0.0626 -0.1272 -0.2617
  646TIP3    H1 1902  -0.042   2.258   5.219  0.3807  0.6811 -1.3545
  646TIP3    H2 1903   0.053   2.172   5.300 -0.6695 -1.1725 -2.0322
  647TIP3   OH2 1904   5.178   2.856   4.314  0.1434  0.3801 -0.0405
  647TIP3    H1 1905   5.098   2.908   4.314 -0.4188 -0.4570  0.2819
  647TIP3    H2 1906   5.161   2.786   4.377  0.8366 -0.2417 -0.5212
  648TIP3   OH2 1907   1.215   5.512   3.197  0.1442 -0.1898 -0.2320
  648TIP3    H1 1908   1.260   5.594   3.219 -0.2224  0.1395 -0.6897
  648TIP3    H2 1909   1.284   5.454   3.165  0.5959 -0.4663  1.1476
  649TIP3   OH2 1910   7.190   1.210   2.289 -0.7846  1.3739 -0.2318
  649TIP3    H1 1911   7.231   1.290   2.257  1.2102  0.9629  1.1297
  649TIP3    H2 1912   7.204   1.212   2.384  0.5857 -1.2121 -0.2919
  650TIP3   OH2 1913   5.199   2.117   2.569  0.1214 -0.5585 -0.8322
  650TIP3    H1 1914   5.262   2.111   2.641  0.6609 -1.0730 -1.3267
  650TIP3    H2 1915   5.237   2.062   2.500 -1.0844 -1.2234 -0.9928
  651TIP3   OH2 1916   7.064   6.219   2.374 -0.0775  0.2167 -0.1943
  651TIP3    H1 1917   7.153   6.193   2.348 -0.4624 -2.1280  0.6268
  651TIP3    H2 1918   7.009   6.193   2.300 -0.2499  0.4436 -0.1476
  652TIP3   OH2 1919   1.423   0.781   2.328  0.3086  0.4871 -0.0969
  652TIP3    H1 1920   1.338   0.825   2.318 -0.0538 -0.5532 -1.8786
  652TIP3    H2 1921   1.486   0.843   2.291 -0.1241 -0.1395 -1.9899
  653TIP3   OH2 1922   5.944   1.651   4.164  0.2882 -0.0069 -0.3605
  653TIP3    H1 1923   5.913   1.699   4.087  0.4591 -2.8370 -2.3258
  653TIP3    H2 1924   5.868   1.647   4.222 -0.4650  0.4289 -1.2864
  654TIP3   OH2 1925   3.889   3.833   5.720 -0.3910  0.1728  0.9147
  654TIP3    H1 1926   3.935   3.749   5.716 -1.3699 -0.3513  0.2902
  654TIP3    H2 1927   3.958   3.899   5.711  0.1250 -0.6051 -1.4865
  655TIP3   OH2 1928   0.123   5.178   5.091 -0.0614 -0.1003  0.0566
  655TIP3    H1 1929   0.187   5.139   5.033 -1.4907 -0.8387 -1.0886
  655TIP3    H2 1930   0.078   5.103   5.131 -0.9609  0.3852 -0.0233
  656TIP3   OH2 1931   4.161   1.519   4.556  0.2854 -0.1275 -0.4602
  656TIP3    H1 1932   4.100   1.592   4.553  0.3384  0.0481  1.3788
  656TIP3    H2 1933   4.140   1.474   4.638  1.0123 -1.4960 -0.9984
  657TIP3   OH2 1934   4.143   5.367   5.750  0.3536  0.1315  0.1482
  657TIP3    H1 1935   4.071   5.358   5.687  0.6995 -0.6628 -0.1381
  657TIP3    H2 1936   4.117   5.441   5.805  0.0574  0.8461 -0.9297
  658TIP3   OH2 1937   3.891   1.032   3.380 -0.3704  0.0428  0.0335
  658TIP3    H1 1938   3.859   1.101   3.322 -1.8288 -0.4945  0.1734
  658TIP3    H2 1939   3.979   1.013   3.348 -0.7615  0.4810 -1.3408
  659TIP3   OH2 1940   0.875   5.307   0.680  0.3143  0.8651  0.8108
  659TIP3    H1 1941   0.835   5.350   0.605  1.0761  2.0161  1.0452
  659TIP3    H2 1942   0.900   5.220   0.648 -1.5762  0.4003  0.4291
  660TIP3   OH2 1943   2.141   0.097   3.262  0.5434  0.7324 -0.0287
  660TIP3    H1 1944   2.206   0.080   3.195  2.1596 -0.1321  1.6681
  660TIP3    H2 1945   2.098   0.013   3.277  1.4287  0.4675  1.2058
  661TIP3   OH2 1946   4.256   6.196   4.721 -0.4843  0.3830 -0.0097
  661TIP3    H1 1947   4.194   6.263   4.695 -0.8434  0.3439  0.7260
  661TIP3    H2 1948   4.202   6.124   4.754 -0.0522  0.4317  0.8312
  662TIP3   OH2 1949   0.462   3.757   1.317  0.0401  0.3401 -0.6433
  662TIP3    H1 1950   0.534   3.727   1.262  2.0807  1.2046  1.3609
  662TIP3    H2 1951   0.457   3.851   1.300 -1.7821  0.0654 -1.9418
  663TIP3   OH2 1952   4.500   3.367   3.874 -0.0204  0.9182 -0.6820
  663TIP3    H1 1953   4.474   3.423   3.801  1.5124  0.5471 -1.5516
  663TIP3    H2 1954   4.417   3.335   3.910 -0.8297  1.5930 -1.8637
  664TIP3   OH2 1955   5.006   0.632   3.037 -0.3332  0.4475  0.1433
  664TIP3    H1 1956   4.963   0.567   3.093  0.5703  0.0563  0.3964
  664TIP3    H2 1957   5.044   0.582   2.966  0.1877  0.7182  0.2250
  665TIP3   OH2 1958   4.318   0.679   2.150 -0.2589  0.0975  0.2099
  665TIP3    H1 1959   4.309   0.589   2.179  1.2494 -0.2483 -0.3193
  665TIP3    H2 1960   4.228   0.710   2.141 -0.8908  0.0789  4.5133
  666TIP3   OH2 1961   6.455   6.756   0.692  0.0603 -0.1730  0.0966
  666TIP3    H1 1962   6.502   6.824   0.741 -0.3558  0.0033  0.2552
  666TIP3    H2 1963   6.491   6.674   0.725  1.3887 -0.0377 -0.8988
  667TIP3   OH2 1964   2.353   2.886   2.518 -0.1066 -0.0354 -0.5694
  667TIP3    H1 1965   2.302   2.808   2.498 -1.7496  1.0318 -0.6837
  667TIP3    H2 1966   2.369   2.927   2.433  0.6176 -0.1472 -0.4954
  668TIP3   OH2 1967   1.495   3.216   4.510 -0.1007 -0.5356 -0.7194
  668TIP3    H1 1968   1.462   3.210   4.600 -2.6642  2.2309 -1.3278
  668TIP3    H2 1969   1.574   3.162   4.511  0.0544 -0.5627  3.1959
  669TIP3   OH2 1970   0.227   5.929   4.961 -0.0318 -0.4990 -0.2990
  669TIP3    H1 1971   0.132   5.935   4.956 -0.1473 -0.4728  1.3412
  669TIP3    H2 1972   0.256   6.019   4.976  0.0049 -0.8010  1.8040
  670TIP3   OH2 1973   6.647   3.968   5.820 -0.4906 -0.4342 -0.1223
  670TIP3    H1 1974   6.567   3.985   5.769 -0.8925 -1.5619  0.1006
  670TIP3    H2 1975   6.662   3.874   5.810  0.8730 -0.2243 -0.2234
  671TIP3   OH2 1976   1.089   4.219   0.219  0.1989  0.3005 -0.4046
  671TIP3    H1 1977   1.081   4.315   0.225 -0.5413  0.1917  0.8590
  671TIP3    H2 1978   1.083   4.190   0.310 -1.0403 -1.0493 -0.8873
  672TIP3   OH2 1979   7.015   1.829   1.232  0.4150 -0.3000 -0.1506
  672TIP3    H1 1980   6.968   1.884   1.169 -1.3598 -0.7602  0.7046
  672TIP3    H2 1981   7.107   1.838   1.208 -0.0303  1.2300 -1.4492
  673TIP3   OH2 1982   5.250   2.405   2.350 -0.3874 -0.0075 -0.5039
  673TIP3    H1 1983   5.311   2.373   2.416 -2.2402 -3.0394 -0.0612
  673TIP3    H2 1984   5.244   2.499   2.367  2.1119 -0.0319  1.0875
  674TIP3   OH2 1985   0.389   0.097   0.355 -0.5661 -0.2550 -0.0159
  674TIP3    H1 1986   0.456   0.136   0.299  0.7476 -2.2393  0.1012
  674TIP3    H2 1987   0.330   0.170   0.376  0.7142  1.2185 -1.3222
  675TIP3   OH2 1988   0.435   5.420   1.029 -0.0154  0.1599 -0.1441
  675TIP3    H1 1989   0.355   5.454   0.988 -0.8339 -1.0721  0.3725
  675TIP3    H2 1990   0.481   5.376   0.958 -0.5357 -0.4070 -0.1360
  676TIP3   OH2 1991   5.177   2.462   4.238  0.8694 -0.7176 -0.0811
  676TIP3    H1 1992   5.178   2.538   4.297 -1.7938  0.1155 -1.0102
  676TIP3    H2 1993   5.137   2.393   4.290  0.5278 -0.6212 -0.2189
  677TIP3   OH2 1994   5.494   6.397   3.472  0.2327 -0.3632 -0.6012
  677TIP3    H1 1995   5.576   6.382   3.519  0.2143  0.0785 -0.4212
  677TIP3    H2 1996   5.429   6.410   3.541  0.4049  1.3654 -0.7274
  678TIP3   OH2 1997   2.227   6.235   0.475 -0.2745 -0.4682 -0.6488
  678TIP3    H1 1998   2.188   6.318   0.447  0.5646 -0.1349 -0.8690
  678TIP3    H2 1999   2.204   6.228   0.568 -0.0465  0.1979 -0.5323
  679TIP3   OH2 2000   1.161   5.094   2.381  0.1132 -0.1925  0.1317
  679TIP3    H1 2001   1.136   5.038   2.307 -0.7753  1.3807 -0.8244
  679TIP3    H2 2002   1.169   5.181   2.343 -0.7913  0.7423  1.9746
  680TIP3   OH2 2003   4.577   4.422   1.319  0.3843  0.6896  0.2496
  680TIP3    H1 2004   4.628   4.377   1.385 -0.0499  0.1399  0.2144
  680TIP3    H2 2005   4.562   4.357   1.251 -1.1552  0.5486  0.6841
  681TIP3   OH2 2006   1.946   2.503   2.324 -0.5818  0.0280 -1.1103
  681TIP3    H1 2007   1.879   2.533   2.262 -0.3914 -0.1388 -1.3977
  681TIP3    H2 2008   1.943   2.408   2.318 -0.7874 -0.0029 -0.6190
  682TIP3   OH2 2009   5.388   2.822   3.307 -0.7035 -0.2505  0.0022
  682TIP3    H1 2010   5.330   2.803   3.233 -1.0265 -2.5199  0.7581
  682TIP3    H2 2011   5.341   2.786   3.383  0.8861 -0.5201  0.8869
  683TIP3   OH2 2012   0.706   2.438   1.699 -0.2592  0.1985  0.0607
  683TIP3    H1 2013   0.800   2.439   1.720 -0.3683 -0.8618  0.6874
  683TIP3    H2 2014   0.693   2.517   1.647  0.7568  0.9799  0.9227
  684TIP3   OH2 2015   0.160   2.689   2.445  0.0139 -0.2493 -0.0754
  684TIP3    H1 2016   0.231   2.650   2.393  1.2992  0.0769  1.3556
  684TIP3    H2 2017   0.150   2.777   2.409 -0.3098 -0.6120 -0.8856
  685TIP3   OH2 2018   6.825   1.678   0.970  0.1943  0.1996  0.4357
  685TIP3    H1 2019   6.886   1.604   0.970  0.3937  0.3620  0.9478
  685TIP3    H2 2020   6.757   1.653   0.908 -0.5265 -1.0509  1.6700
  686TIP3   OH2 2021   0.452   0.013   2.051  0.4859 -0.3439  0.1849
  686TIP3    H1 2022   0.481  -0.076   2.067 -0.3090 -0.6341  0.0781
  686TIP3    H2 2023   0.531   0.066   2.056  1.3376 -1.3005 -1.8452
  687TIP3   OH2 2024   6.925   0.067   1.863  0.0622  0.2604  0.1199
  687TIP3    H1 2025   6.978   0.044   1.940  0.0646  0.4266  0.1698
  687TIP3    H2 2026   6.961   0.151   1.835  1.2437 -0.6241 -1.1343
  688TIP3   OH2 2027   5.425   1.628   2.181  0.0202 -0.0823 -0.4151
  688TIP3    H1 2028   5.386   1.711   2.154  1.1231  0.6349  0.0942
  688TIP3    H2 2029   5.354   1.580   2.223 -0.9571  0.0519 -1.8644
  689TIP3   OH2 2030   1.093   3.383   4.221 -0.0475  0.5470  0.2463
  689TIP3    H1 2031   1.121   3.386   4.313 -0.1233  1.5597  0.2533
  689TIP3    H2 2032   1.005   3.423   4.222 -0.7253 -0.8669 -0.0506
  690TIP3   OH2 2033   4.098   3.314   1.249 -0.1829 -0.4396  0.5255
  690TIP3    H1 2034   4.078   3.234   1.297  0.3006 -0.9756 -0.1481
  690TIP3    H2 2035   4.182   3.343   1.283  0.6550 -1.3814 -0.6847
  691TIP3   OH2 2036   1.660   3.096   4.922  0.3360  0.5661  0.0333
  691TIP3    H1 2037   1.591   3.117   4.985 -0.2345  0.8621 -0.6711
  691TIP3    H2 2038   1.640   3.151   4.845  1.1804  0.4328 -0.2970
  692TIP3   OH2 2039   0.613   5.711   2.873  0.3240 -0.2215  0.6998
  692TIP3    H1 2040   0.554   5.787   2.869  0.3457 -0.2675 -1.1229
  692TIP3    H2 2041   0.688   5.742   2.924  0.1183  0.8281  0.3873
  693TIP3   OH2 2042   5.383   2.546   2.753  0.5360  0.0709 -0.2882
  693TIP3    H1 2043   5.292   2.546   2.784  0.1903 -1.6303 -1.1863
  693TIP3    H2 2044   5.431   2.499   2.822  0.7512  0.9894  0.1970
  694TIP3   OH2 2045   2.456   5.403   5.392 -0.1418 -0.0882 -0.3966
  694TIP3    H1 2046   2.463   5.388   5.487 -0.4718  2.9869  0.2295
  694TIP3    H2 2047   2.408   5.328   5.360 -0.2154 -1.1304  1.9238
  695TIP3   OH2 2048   5.138   6.575   1.268 -0.3991  0.9342 -0.2557
  695TIP3    H1 2049   5.124   6.662   1.305  2.6226  1.3152  0.2674
  695TIP3    H2 2050   5.224   6.581   1.225  1.0445 -2.3086  1.7412
  696TIP3   OH2 2051   0.183   0.536   1.241 -0.0094 -0.1281 -0.0677
  696TIP3    H1 2052   0.141   0.540   1.155 -0.2989 -0.5436  0.0499
  696TIP3    H2 2053   0.205   0.627   1.262  0.9424 -0.1320 -1.0104
  697TIP3   OH2 2054   2.704   1.129   4.686  0.0005 -0.3857 -0.3904
  697TIP3    H1 2055   2.667   1.204   4.733 -0.8046 -0.1823 -1.3224
  697TIP3    H2 2056   2.699   1.154   4.594 -0.8904 -1.8445 -0.7655
  698TIP3   OH2 2057   2.810   2.352   0.384 -0.2174  0.1103  0.5626
  698TIP3    H1 2058   2.789   2.401   0.304 -1.4777 -2.5177 -0.8447
  698TIP3    H2 2059   2.904   2.365   0.396  0.3116 -0.5149 -2.2140
  699TIP3   OH2 2060   4.057   3.634   5.668 -0.1760  0.6760  0.3100
  699TIP3    H1 2061   4.056   3.541   5.643 -1.2580  0.7143  0.1448
  699TIP3    H2 2062   4.130   3.642   5.728 -0.1101 -0.3072  0.3757
  700TIP3   OH2 2063   2.695   4.550   2.109  0.5765  0.2181 -0.1825
  700TIP3    H1 2064   2.789   4.557   2.124  0.4225  1.9665  0.1077
  700TIP3    H2 2065   2.681   4.589   2.023  0.0789  0.2047 -0.1096
  701TIP3   OH2 2066   0.601   2.347   5.173  0.1781  0.0262  0.7788
  701TIP3    H1 2067   0.542   2.409   5.131 -0.8144  0.1910  2.3195
  701TIP3    H2 2068   0.580   2.354   5.266  1.4979 -1.1215  1.1932
  702TIP3   OH2 2069   5.119   1.439   4.028  0.1544 -0.3851 -0.6905
  702TIP3    H1 2070   5.183   1.457   4.097  0.1368 -2.0854 -0.1642
  702TIP3    H2 2071   5.035   1.432   4.074 -0.2978  1.0138 -1.2621
  703TIP3   OH2 2072   3.118   3.924   2.944 -0.0953  0.1612  0.9614
  703TIP3    H1 2073   3.111   3.970   2.861  1.4234 -1.4818 -0.1407
  703TIP3    H2 2074   3.034   3.879   2.954 -1.0179  1.8966  1.3175
  704TIP3   OH2 2075   1.775   2.653   0.999 -0.4779 -0.1605  0.5921
  704TIP3    H1 2076   1.776   2.649   1.094 -3.1966 -0.3031  0.6761
  704TIP3    H2 2077   1.859   2.693   0.976  1.0694 -1.7668  2.9032
  705TIP3   OH2 2078   3.405   1.151   3.290  0.2687 -0.5447 -0.0417
  705TIP3    H1 2079   3.314   1.158   3.263 -0.1174  1.1709  1.4710
  705TIP3    H2 2080   3.425   1.058   3.286 -1.5566 -0.9488 -0.3657
  706TIP3   OH2 2081   1.684   1.569   0.015 -0.0088  0.0672  0.2719
  706TIP3    H1 2082   1.734   1.494   0.048  1.1485  0.5272 -0.3707
  706TIP3    H2 2083   1.596   1.558   0.053  0.0931 -1.6719  0.0943
  707TIP3   OH2 2084   1.276   2.107   3.170  0.3869  0.1052 -0.3858
  707TIP3    H1 2085   1.284   2.014   3.192 -0.2282 -0.3039 -1.7977
  707TIP3    H2 2086   1.363   2.132   3.140  0.4501 -0.1223 -0.3942
  708TIP3   OH2 2087   6.545   0.505   0.649 -0.5114 -0.1229  0.4876
  708TIP3    H1 2088   6.465   0.478   0.696 -1.2372 -1.0201 -1.1817
  708TIP3    H2 2089   6.602   0.428   0.654 -1.3671 -0.9795 -1.6670
  709TIP3   OH2 2090   4.957   0.791   5.073 -0.3258  0.4255  0.1720
  709TIP3    H1 2091   4.879   0.824   5.117  0.5668  1.1123  1.3208
  709TIP3    H2 2092   4.925   0.753   4.991 -1.8944  0.3087  0.8103
  710TIP3   OH2 2093   2.752   3.217   1.227  0.2536 -0.0557 -0.0148
  710TIP3    H1 2094   2.714   3.130   1.221 -2.1021  0.9816 -3.1367
  710TIP3    H2 2095   2.816   3.220   1.156 -1.8046  1.5018 -1.9706
  711TIP3   OH2 2096   4.777   0.681   3.443  0.2210 -0.2452  0.4153
  711TIP3    H1 2097   4.843   0.669   3.510  0.6915 -2.7525 -0.4008
  711TIP3    H2 2098   4.798   0.766   3.404  1.7565 -0.1143  1.4471
  712TIP3   OH2 2099   0.697   5.628   3.912 -0.4441 -0.0183 -0.0400
  712TIP3    H1 2100   0.745   5.585   3.984  0.6807 -1.1330 -1.3849
  712TIP3    H2 2101   0.662   5.708   3.951  0.0304 -0.6384  1.7725
  713TIP3   OH2 2102   4.009   3.175   4.526  0.1982  0.1501  0.1499
  713TIP3    H1 2103   3.933   3.117   4.519 -0.3071  0.8443 -0.2707
  713TIP3    H2 2104   4.009   3.224   4.444  0.4405  0.9482  0.6141
  714TIP3   OH2 2105   3.698   2.474   0.958  0.0979  0.4314  0.5653
  714TIP3    H1 2106   3.793   2.480   0.964  0.3554 -0.7734 -1.4719
  714TIP3    H2 2107   3.682   2.389   0.917 -1.7604  1.3174 -0.6643
  715TIP3   OH2 2108   1.622   0.299   5.434  0.5381  0.0660  0.1693
  715TIP3    H1 2109   1.680   0.343   5.373  0.9594 -3.1680 -2.0297
  715TIP3    H2 2110   1.679   0.246   5.489  0.0905  2.2929  3.0375
  716TIP3   OH2 2111   0.100   3.865   3.513  0.4542 -0.3397  0.2908
  716TIP3    H1 2112   0.161   3.821   3.572 -0.1006 -2.8579 -0.8635
  716TIP3    H2 2113   0.133   3.845   3.425  0.5700  2.2639 -0.3313
  717TIP3   OH2 2114   3.274   6.574   0.866  0.6175  0.0052  0.3265
  717TIP3    H1 2115   3.327   6.520   0.926 -1.8364 -3.0875 -0.0249
  717TIP3    H2 2116   3.210   6.617   0.923  0.9690  0.5200  0.3382
  718TIP3   OH2 2117   1.657   5.851   3.303  0.0044  0.4438 -0.1481
  718TIP3    H1 2118   1.693   5.934   3.272  1.2070  0.1711  0.4661
  718TIP3    H2 2119   1.670   5.790   3.231  1.1307  0.2557  0.2070
  719TIP3   OH2 2120   5.120   3.395   5.541  0.4667  0.2113 -0.9129
  719TIP3    H1 2121   5.035   3.419   5.503  0.7103  0.6466 -1.1933
  719TIP3    H2 2122   5.184   3.422   5.476  0.9703  2.1037  0.2886
  720TIP3   OH2 2123   1.656   6.150   5.056 -0.2364  0.3831 -0.2825
  720TIP3    H1 2124   1.729   6.169   4.997  0.5690  1.2777  0.9673
  720TIP3    H2 2125   1.681   6.069   5.100  0.3587  1.0719  0.6713
  721TIP3   OH2 2126   3.688   3.891   2.651 -0.3073  0.1657 -0.4026
  721TIP3    H1 2127   3.641   3.833   2.710  0.6296 -0.5531 -0.3306
  721TIP3    H2 2128   3.750   3.938   2.707 -0.1674  0.2810 -0.6490
  722TIP3   OH2 2129   2.062   6.533   4.525  0.2196 -0.3145  0.1309
  722TIP3    H1 2130   2.032   6.566   4.440 -0.9041 -0.2887  0.5196
  722TIP3    H2 2131   2.025   6.595   4.589  1.0873 -0.3060  0.6478
  723TIP3   OH2 2132   1.741   0.139   0.866  0.2065  0.0204 -0.2244
  723TIP3    H1 2133   1.809   0.125   0.932 -0.1346 -0.7114 -0.0193
  723TIP3    H2 2134   1.659   0.128   0.913 -0.0402 -0.1056 -0.6819
  724TIP3   OH2 2135   5.904   4.418   5.240 -0.3069  0.0877 -0.6212
  724TIP3    H1 2136   5.967   4.346   5.239  0.1260  0.4730 -1.7354
  724TIP3    H2 2137   5.819   4.375   5.228 -0.1193 -0.2892 -0.6260
  725TIP3   OH2 2138   6.116   1.926   5.592 -0.0973  0.2911 -0.5887
  725TIP3    H1 2139   6.159   1.944   5.676 -0.4732  1.3291 -0.6072
  725TIP3    H2 2140   6.122   2.008   5.544 -2.3749  0.5875 -0.4631
  726TIP3   OH2 2141   5.212   2.648   4.468 -0.4932  0.0532  0.3140
  726TIP3    H1 2142   5.181   2.577   4.523  3.1012 -2.0969 -0.1263
  726TIP3    H2 2143   5.275   2.696   4.523  0.0418  0.4431 -0.6033
  727TIP3   OH2 2144   3.479   4.827   2.993  0.3797  0.3434 -0.8392
  727TIP3    H1 2145   3.398   4.866   2.959 -0.2979  2.9140  3.0679
  727TIP3    H2 2146   3.448   4.757   3.050  0.7796  1.5912  0.9796
  728TIP3   OH2 2147   3.143   3.661   5.800  0.2151  0.1914 -0.0828
  728TIP3    H1 2148   3.229   3.620   5.809 -0.5396 -1.3668  0.3328
  728TIP3    H2 2149   3.081   3.594   5.829 -1.3374  0.4099 -2.5944
  729TIP3   OH2 2150   4.986   5.410   2.931  0.0812 -0.4316  0.2647
  729TIP3    H1 2151   4.944   5.328   2.908 -0.8642  0.0197  0.3181
  729TIP3    H2 2152   5.056   5.420   2.868  0.4451 -1.4596  0.4908
  730TIP3   OH2 2153   6.952   4.439   2.037 -0.5600  0.1638  0.1240
  730TIP3    H1 2154   7.034   4.454   1.991 -0.7240 -0.0382 -0.2453
  730TIP3    H2 2155   6.977   4.396   2.119 -0.2911  0.2131  0.0672
  731TIP3   OH2 2156   0.714   6.466   0.463  0.4580 -0.4709 -0.1324
  731TIP3    H1 2157   0.777   6.534   0.484  0.1120 -0.5006  1.0515
  731TIP3    H2 2158   0.695   6.423   0.546 -0.1853 -1.2724 -0.6703
  732TIP3   OH2 2159   2.311   2.356   5.415  0.0797 -1.1073  0.0743
  732TIP3    H1 2160   2.341   2.411   5.488  0.1368  1.4216 -1.7205
  732TIP3    H2 2161   2.264   2.284   5.457  0.4561  0.0266  2.6160
  733TIP3   OH2 2162   0.656   0.309   4.451  0.1070  0.4762  0.3807
  733TIP3    H1 2163   0.664   0.240   4.385  4.4114  0.4503  0.6773
  733TIP3    H2 2164   0.636   0.262   4.532 -1.9977  0.2043 -0.2218
  734TIP3   OH2 2165   6.951   4.330   1.016 -0.6124 -0.2231  0.4014
  734TIP3    H1 2166   6.858   4.332   0.995 -0.2391  1.1138 -1.4198
  734TIP3    H2 2167   6.983   4.249   0.976 -0.7639  0.0154 -0.2206
  735TIP3   OH2 2168   2.227   6.711   1.082 -0.5570 -0.0658 -0.8910
  735TIP3    H1 2169   2.201   6.735   0.993 -0.3948 -1.0193 -1.2044
  735TIP3    H2 2170   2.317   6.743   1.090  0.3326 -2.1161 -1.9620
  736TIP3   OH2 2171   0.956   4.232   4.798 -0.3948 -0.2516 -0.2707
  736TIP3    H1 2172   1.044   4.268   4.792 -0.7801  0.7915  0.0673
  736TIP3    H2 2173   0.910   4.268   4.723 -1.4294  1.9317  1.2744
  737TIP3   OH2 2174   5.848   2.999   2.026 -0.2228 -0.2068 -0.4951
  737TIP3    H1 2175   5.896   2.936   2.080 -1.2175  0.5879  1.4293
  737TIP3    H2 2176   5.854   3.082   2.075  0.9066  1.2183 -2.8511
  738TIP3   OH2 2177   3.399   1.898   5.423 -0.0035 -0.1705 -0.1945
  738TIP3    H1 2178   3.445   1.980   5.404  1.1555 -1.0227 -1.2133
  738TIP3    H2 2179   3.459   1.849   5.479 -1.4598  0.3874  1.9682
  739TIP3   OH2 2180   0.599   0.053   4.878 -0.3689 -1.1315  0.3431
  739TIP3    H1 2181   0.683   0.007   4.882 -0.7463 -2.2059 -2.0715
  739TIP3    H2 2182   0.533  -0.016   4.888 -0.9980 -0.3783  1.6481
  740TIP3   OH2 2183   0.060   0.637   0.677 -0.9607 -0.5863 -0.2881
  740TIP3    H1 2184  -0.009   0.701   0.693  0.4891  0.3806  3.0443
  740TIP3    H2 2185   0.071   0.592   0.761  0.1679 -3.1127 -1.6711
  741TIP3   OH2 2186   6.484   6.184   0.403  0.2240  0.5777  0.4027
  741TIP3    H1 2187   6.545   6.228   0.344  1.2529  0.4527  1.3478
  741TIP3    H2 2188   6.537   6.156   0.477 -0.4824 -1.7717  0.1071
  742TIP3   OH2 2189   6.302   6.783   0.050 -0.0397  0.4598  0.0862
  742TIP3    H1 2190   6.397   6.790   0.055  0.0997 -1.1709  0.3398
  742TIP3    H2 2191   6.283   6.771  -0.043  0.1421 -0.6417  0.1821
  743TIP3   OH2 2192   6.444   1.723   1.666 -0.3745 -0.3935  0.2557
  743TIP3    H1 2193   6.503   1.687   1.600  0.2511 -0.5998  0.9111
  743TIP3    H2 2194   6.473   1.682   1.748 -2.4295 -1.7323  0.3797
  744TIP3   OH2 2195   4.602   1.517   4.001 -0.3601  0.0567  0.4200
  744TIP3    H1 2196   4.647   1.433   4.011 -2.2937 -1.0545  0.2345
  744TIP3    H2 2197   4.509   1.497   4.015 -1.5537  1.2110 -4.0399
  745TIP3   OH2 2198   3.879   4.104   5.536  0.5821 -0.7165 -0.1485
  745TIP3    H1 2199   3.964   4.066   5.559  1.3724 -0.6862 -2.7249
  745TIP3    H2 2200   3.832   4.033   5.492  0.1740 -0.0635 -0.7730
  746TIP3   OH2 2201   1.613   2.350   4.854 -0.5396 -0.1795  0.1703
  746TIP3    H1 2202   1.580   2.434   4.885  2.0570  0.3782  1.7268
  746TIP3    H2 2203   1.641   2.367   4.764  1.5909  1.2577  0.9958
  747TIP3   OH2 2204   5.309   6.381   2.791  0.1317  0.0434 -0.0142
  747TIP3    H1 2205   5.233   6.325   2.807 -0.2599  0.2240 -1.1388
  747TIP3    H2 2206   5.344   6.400   2.878 -1.5071  0.5031  0.5766
  748TIP3   OH2 2207   6.372   4.065   5.058  0.1266  0.0158 -0.1410
  748TIP3    H1 2208   6.436   4.105   5.116 -0.3727  2.9447 -1.4157
  748TIP3    H2 2209   6.299   4.042   5.115  0.1365  1.7171  0.6307
  749TIP3   OH2 2210   3.845   4.363   5.668  0.1141  0.2223  0.4124
  749TIP3    H1 2211   3.875   4.340   5.757  1.9381  2.3524  0.4512
  749TIP3    H2 2212   3.844   4.280   5.621  0.4275 -0.7746  2.0713
  750TIP3   OH2 2213   0.619   1.702   5.841 -0.1548 -0.6737 -0.3088
  750TIP3    H1 2214   0.595   1.773   5.780 -0.5636  0.3953  1.0531
  750TIP3    H2 2215   0.560   1.631   5.818 -0.4929 -0.1943 -0.9853
  751TIP3   OH2 2216   2.271   6.733   3.271 -0.2925  1.2050 -0.9982
  751TIP3    H1 2217   2.242   6.680   3.345 -0.4985  2.9590  0.2312
  751TIP3    H2 2218   2.264   6.675   3.196 -0.3148 -0.5594  0.3113
  752TIP3   OH2 2219   6.703   0.698   4.826 -0.0053  0.1791  0.4847
  752TIP3    H1 2220   6.797   0.717   4.824  0.0256  0.2044  1.6760
  752TIP3    H2 2221   6.663   0.781   4.854 -0.4165  0.2384 -0.2424
  753TIP3   OH2 2222   7.136   2.052   2.145  0.3359 -0.0073  0.2213
  753TIP3    H1 2223   7.051   2.071   2.105  0.8100  0.8353 -0.4168
  753TIP3    H2 2224   7.176   1.987   2.086  1.4539  1.9691 -1.3165
  754TIP3   OH2 2225   4.020   4.220   2.629  0.4958  0.1079 -0.4119
  754TIP3    H1 2226   4.059   4.266   2.555 -0.2508  0.4096 -0.6245
  754TIP3    H2 2227   4.088   4.222   2.697  0.9999  0.2557 -0.9166
  755TIP3   OH2 2228   5.296   6.571   2.423  0.6149 -0.1491  0.0223
  755TIP3    H1 2229   5.339   6.607   2.346  2.4953 -1.7937  0.2174
  755TIP3    H2 2230   5.341   6.612   2.497 -0.4453  0.6066  0.2676
  756TIP3   OH2 2231   2.246   0.815   1.056  0.6639  0.2830 -0.3371
  756TIP3    H1 2232   2.155   0.834   1.077  0.3351  0.3559 -1.7476
  756TIP3    H2 2233   2.280   0.773   1.135 -0.1381  1.6592  0.7803
  757TIP3   OH2 2234   7.002   1.032   0.182  0.0003  0.3893  0.3904
  757TIP3    H1 2235   6.950   0.954   0.200  1.2231 -0.7321 -0.6920
  757TIP3    H2 2236   6.961   1.101   0.234 -1.7471 -0.7238  0.5741
  758TIP3   OH2 2237   2.552   1.150   0.533  0.0270  0.4374 -0.4446
  758TIP3    H1 2238   2.641   1.186   0.536  0.7844 -1.3257 -0.3762
  758TIP3    H2 2239   2.513   1.188   0.454 -0.6605  4.3884  1.5243
  759TIP3   OH2 2240   2.887   6.262   5.038  0.1294 -0.6798 -0.0110
  759TIP3    H1 2241   2.871   6.330   5.103 -2.0984 -0.4070 -0.7571
  759TIP3    H2 2242   2.982   6.250   5.039  0.6195  2.3838  0.2098
  760TIP3   OH2 2243   1.652   3.339   3.090  0.4365 -0.0557  0.0645
  760TIP3    H1 2244   1.565   3.361   3.124  0.7199 -0.7574  1.2978
  760TIP3    H2 2245   1.667   3.249   3.118  2.5235  0.7937  1.9896
  761TIP3   OH2 2246   3.030   3.284   4.125 -0.5033 -0.6865 -0.5656
  761TIP3    H1 2247   3.083   3.271   4.046  2.3767 -1.0013  1.2788
  761TIP3    H2 2248   3.021   3.196   4.162 -0.5163 -0.3507  0.2325
  762TIP3   OH2 2249   0.219   5.581   5.078  0.3763  0.6262 -0.1803
  762TIP3    H1 2250   0.133   5.539   5.083  0.0007  1.2581 -1.1353
  762TIP3    H2 2251   0.281   5.509   5.087 -0.2516 -0.0699 -1.2454
  763TIP3   OH2 2252   5.889   5.008   2.749  0.2591 -0.1562  0.3798
  763TIP3    H1 2253   5.883   4.936   2.686 -0.5592 -0.2569  0.5549
  763TIP3    H2 2254   5.901   4.965   2.833 -3.6013 -0.3744  1.0075
  764TIP3   OH2 2255   0.926   4.905   4.229 -0.0439 -0.0772  0.2524
  764TIP3    H1 2256   0.935   4.992   4.190  1.6287 -0.2670  0.1543
  764TIP3    H2 2257   0.865   4.918   4.302  0.0151  1.1278  0.1079
  765TIP3   OH2 2258   2.108   4.442   2.893 -0.3690  0.2800 -0.6258
  765TIP3    H1 2259   2.037   4.482   2.843  0.4615  1.0404 -1.2502
  765TIP3    H2 2260   2.148   4.380   2.832  1.4218  2.0956 -1.4099
  766TIP3   OH2 2261   2.634   4.944   0.676  0.1585 -0.4287  0.0752
  766TIP3    H1 2262   2.709   4.885   0.684 -0.2200 -0.8889  0.2672
  766TIP3    H2 2263   2.583   4.908   0.603 -0.3257 -0.6284  0.5066
  767TIP3   OH2 2264   6.235   5.297   0.914  0.2966  0.2083 -0.5128
  767TIP3    H1 2265   6.190   5.368   0.960 -0.3070  0.2075 -1.0794
  767TIP3    H2 2266   6.222   5.220   0.970 -0.3551  0.2258 -0.6335
  768TIP3   OH2 2267   0.985   3.297   2.062  0.1221 -0.0170 -0.3469
  768TIP3    H1 2268   0.945   3.248   1.990  0.7331  0.0957 -0.7692
  768TIP3    H2 2269   0.979   3.389   2.036  0.1772  0.0389 -0.1682
  769TIP3   OH2 2270   5.016   3.908   3.976 -0.5601 -0.1680  0.3665
  769TIP3    H1 2271   5.075   3.901   3.901 -0.5610  0.9701  0.2406
  769TIP3    H2 2272   4.964   3.828   3.973  1.2193 -1.4073  0.7008
  770TIP3   OH2 2273   2.517   1.491   5.549 -0.3889 -0.1673  0.8661
  770TIP3    H1 2274   2.430   1.463   5.579 -0.2404 -0.0671  1.3933
  770TIP3    H2 2275   2.578   1.434   5.595 -0.1640 -0.0855  0.6700
  771TIP3   OH2 2276   5.184   4.454   4.909 -0.0782  0.0613 -0.0307
  771TIP3    H1 2277   5.148   4.366   4.919  1.0456 -0.4469 -0.3380
  771TIP3    H2 2278   5.174   4.494   4.996 -1.3159 -0.0767 -0.1002
  772TIP3   OH2 2279   2.256   0.646   1.732 -0.1460  0.0125 -0.0645
  772TIP3    H1 2280   2.190   0.680   1.671  0.2635 -1.2904 -1.2836
  772TIP3    H2 2281   2.262   0.713   1.801 -1.8132  0.7498 -0.5846
  773TIP3   OH2 2282   4.480   5.064   1.355 -0.1050 -0.2608  0.1944
  773TIP3    H1 2283   4.529   4.991   1.318 -0.2676 -0.7908  0.9835
  773TIP3    H2 2284   4.537   5.140   1.346  0.0613 -0.4844 -0.6480
  774TIP3   OH2 2285   0.647   0.741   1.321 -0.0256 -0.1322 -0.5049
  774TIP3    H1 2286   0.677   0.816   1.269  1.5625 -2.1809 -2.7894
  774TIP3    H2 2287   0.703   0.669   1.293 -2.1654 -2.4539  0.8019
  775TIP3   OH2 2288   4.497   3.109   0.098  0.8857  0.0074 -0.3867
  775TIP3    H1 2289   4.510   3.015   0.093  2.6475  0.0075  2.1106
  775TIP3    H2 2290   4.585   3.146   0.085  0.3096  1.2871 -0.8218
  776TIP3   OH2 2291   5.995   1.324   1.758 -0.3513  0.2703  0.1534
  776TIP3    H1 2292   5.966   1.281   1.838  0.2378 -0.8908 -0.2382
  776TIP3    H2 2293   6.091   1.324   1.764 -0.2923 -0.1448 -0.7110
  777TIP3   OH2 2294   2.609   6.249   4.879 -0.2534  0.8511 -0.2965
  777TIP3    H1 2295   2.661   6.197   4.940 -0.7938  0.0161 -0.5426
  777TIP3    H2 2296   2.572   6.186   4.818 -3.3570  1.0765  1.1238
  778TIP3   OH2 2297   0.011   4.009   5.782  0.6208 -0.0143  0.1991
  778TIP3    H1 2298  -0.055   4.024   5.850  0.5066 -2.8339  0.8553
  778TIP3    H2 2299   0.073   3.948   5.821  1.2512 -0.7623 -1.8036
  779TIP3   OH2 2300   7.096   0.046   4.486  0.1181  0.2599  0.1192
  779TIP3    H1 2301   7.167   0.014   4.430  1.0196 -0.0236  1.3951
  779TIP3    H2 2302   7.030   0.079   4.424  0.8872 -0.4437 -1.1164
  780TIP3   OH2 2303   4.021   5.487   1.107 -0.4664  0.0249  0.4444
  780TIP3    H1 2304   4.073   5.498   1.187 -1.4402  0.0377  1.0994
  780TIP3    H2 2305   3.975   5.571   1.097 -0.1801  0.0967 -0.2515
  781TIP3   OH2 2306   6.005   2.665   0.473  0.1782 -0.6602  0.5969
  781TIP3    H1 2307   6.031   2.624   0.556  1.6420 -2.7694 -0.7822
  781TIP3    H2 2308   6.082   2.715   0.446 -0.4976  0.4924  0.7536
  782TIP3   OH2 2309   5.991   2.722   5.131  0.8665  0.4688  0.2979
  782TIP3    H1 2310   5.997   2.794   5.068 -0.1301 -0.6301 -1.1137
  782TIP3    H2 2311   6.082   2.705   5.156  1.4302  0.2340 -1.7123
  783TIP3   OH2 2312   6.692   2.174   3.161 -0.3775  0.3575 -0.5250
  783TIP3    H1 2313   6.724   2.165   3.071 -1.0255  0.6806 -0.7898
  783TIP3    H2 2314   6.665   2.085   3.186 -1.0175  0.4242 -0.9642
  784TIP3   OH2 2315   6.740   0.318   0.599  0.0360  0.1497  0.0723
  784TIP3    H1 2316   6.750   0.253   0.529  1.5767  1.3069 -0.8522
  784TIP3    H2 2317   6.735   0.266   0.679 -0.4454 -1.1636 -0.7742
  785TIP3   OH2 2318   6.081   2.308   1.304  0.2995 -0.5947  0.2905
  785TIP3    H1 2319   6.149   2.246   1.330  0.5405 -0.5586 -0.2427
  785TIP3    H2 2320   6.000   2.269   1.335  0.4854 -1.0188  0.2536
  786TIP3   OH2 2321   0.366   2.059   5.788 -0.6690 -0.1040  0.0326
  786TIP3    H1 2322   0.445   2.112   5.774  0.0184 -0.2140  2.8839
  786TIP3    H2 2323   0.296   2.109   5.746  0.5808  1.0460 -0.7585
  787TIP3   OH2 2324   2.271   2.564   5.130 -0.1137 -0.2894 -0.2987
  787TIP3    H1 2325   2.266   2.639   5.190 -1.2713  0.3702 -1.1898
  787TIP3    H2 2326   2.335   2.591   5.064  0.4802 -0.6520  0.1137
  788TIP3   OH2 2327   0.301   5.371   3.227  0.2580 -0.1252  0.2419
  788TIP3    H1 2328   0.368   5.303   3.222  1.3693  0.9638 -0.3165
  788TIP3    H2 2329   0.296   5.405   3.137 -1.8731 -0.9177  0.0004
  789TIP3   OH2 2330   4.692   5.963   0.441 -0.2268 -0.1913 -0.4334
  789TIP3    H1 2331   4.679   6.039   0.497  0.3101 -0.8746  0.6577
  789TIP3    H2 2332   4.610   5.954   0.392  0.3146  2.1265 -1.9327
  790TIP3   OH2 2333   0.729   3.921   3.296 -0.5815 -0.0521  0.1686
  790TIP3    H1 2334   0.688   3.996   3.339 -0.4847  0.3450 -0.4227
  790TIP3    H2 2335   0.806   3.957   3.253 -1.4817 -0.1468 -1.5893
  791TIP3   OH2 2336   5.576   6.557   1.669 -0.0087  0.0329  0.3866
  791TIP3    H1 2337   5.533   6.616   1.606  1.1133 -0.4945 -0.9353
  791TIP3    H2 2338   5.641   6.510   1.617 -0.1488 -1.6308  1.6194
  792TIP3   OH2 2339   6.697   6.217   0.582 -0.0683 -0.0920  0.8322
  792TIP3    H1 2340   6.724   6.129   0.610  0.8335  0.1611  0.7849
  792TIP3    H2 2341   6.736   6.228   0.496 -1.5343 -0.2559  0.1202
  793TIP3   OH2 2342   5.430   6.301   2.070  0.3415 -1.0039 -0.4612
  793TIP3    H1 2343   5.495   6.273   2.005  1.4957 -0.0038  0.2184
  793TIP3    H2 2344   5.481   6.352   2.133 -1.2620  0.6103 -0.3991
  794TIP3   OH2 2345   5.817   1.065   2.673 -0.1188  0.2121  0.1985
  794TIP3    H1 2346   5.883   1.034   2.736 -0.8994 -0.9015  0.5053
  794TIP3    H2 2347   5.754   1.113   2.726 -0.3933 -0.1056  0.1664
  795TIP3   OH2 2348   7.208   0.578   4.914 -0.1542 -0.2079  0.0680
  795TIP3    H1 2349   7.268   0.561   4.841 -0.0875 -1.7407  0.4329
  795TIP3    H2 2350   7.139   0.512   4.904 -1.3952  1.0510  0.0854
  796TIP3   OH2 2351   1.408   0.257   2.884 -0.3521  0.0801  0.0286
  796TIP3    H1 2352   1.442   0.289   2.968 -0.1571 -2.1460  0.8470
  796TIP3    H2 2353   1.317   0.234   2.902  0.0101 -1.4930 -0.0250
  797TIP3   OH2 2354   3.943   0.364   2.964 -0.4249 -0.4329 -0.1186
  797TIP3    H1 2355   3.883   0.438   2.972 -0.4196 -0.4560  0.1317
  797TIP3    H2 2356   4.021   0.391   3.010 -0.9976 -1.1994  1.3476
  798TIP3   OH2 2357   0.979   5.923   4.479 -0.2096 -0.7022  0.4024
  798TIP3    H1 2358   0.951   6.014   4.469  0.3472 -0.6331 -0.7696
  798TIP3    H2 2359   1.071   5.923   4.452 -0.4982 -1.7862 -0.7319
  799TIP3   OH2 2360   0.089   6.754   2.347 -0.0480  0.0236  0.5767
  799TIP3    H1 2361   0.039   6.674   2.363  2.2075 -1.9505 -1.4237
  799TIP3    H2 2362   0.034   6.824   2.382 -2.6213 -2.2639  1.4791
  800TIP3   OH2 2363   3.634   3.563   5.770 -0.6538  0.8534  0.7642
  800TIP3    H1 2364   3.637   3.648   5.727  0.8817  1.2583  1.5599
  800TIP3    H2 2365   3.704   3.513   5.728 -1.4890  0.0057  0.3663
  801TIP3   OH2 2366   2.971   2.611   3.572  0.2254 -0.0683 -0.8625
  801TIP3    H1 2367   2.979   2.706   3.581 -1.8275 -0.0145  1.5699
  801TIP3    H2 2368   2.879   2.597   3.548  0.7727 -1.4320 -2.3412
  802TIP3   OH2 2369   6.078   5.843   5.400  0.0211 -0.5347 -0.2050
  802TIP3    H1 2370   6.027   5.839   5.481 -0.6983  1.8377 -0.4546
  802TIP3    H2 2371   6.044   5.771   5.347 -1.9654 -0.0385  0.2885
  803TIP3   OH2 2372   4.867   4.812   4.766 -0.1434  0.2705 -0.0628
  803TIP3    H1 2373   4.777   4.789   4.745 -0.7452  2.0882  0.3275
  803TIP3    H2 2374   4.881   4.775   4.854 -1.0151  1.1862  0.4826
  804TIP3   OH2 2375   6.683   5.391   0.816  0.1868 -0.7558 -0.0658
  804TIP3    H1 2376   6.642   5.438   0.888  1.0423 -1.5729  0.9738
  804TIP3    H2 2377   6.677   5.299   0.840  0.9744 -1.0107 -0.7798
  805TIP3   OH2 2378   4.848   4.973   3.921 -0.1212  0.7969  0.1062
  805TIP3    H1 2379   4.859   4.885   3.957  0.8543  0.1832 -1.5958
  805TIP3    H2 2380   4.754   4.980   3.902 -0.0299 -0.3706 -0.8803
  806TIP3   OH2 2381   6.276   0.145   0.906  0.6568  0.0085  0.4008
  806TIP3    H1 2382   6.271   0.096   0.824  0.5376  3.7155 -2.0522
  806TIP3    H2 2383   6.190   0.185   0.917  1.1594  0.8779  1.4541
  807TIP3   OH2 2384   4.031   4.898   3.447 -0.0181  0.3799 -0.3689
  807TIP3    H1 2385   4.100   4.962   3.428  1.3993 -0.5799  1.2749
  807TIP3    H2 2386   4.057   4.819   3.400  1.8671 -1.0182  2.6656
  808TIP3   OH2 2387   0.091   2.219   4.163  0.2841 -0.4317 -0.0308
  808TIP3    H1 2388  -0.001   2.221   4.189  0.3340 -0.0848  0.1321
  808TIP3    H2 2389   0.133   2.284   4.220  0.7021 -0.8725  0.1671
  809TIP3   OH2 2390   0.564   2.299   4.602  0.9077  0.2351 -0.6229
  809TIP3    H1 2391   0.529   2.309   4.691  2.2773 -2.0840  0.2721
  809TIP3    H2 2392   0.523   2.370   4.552 -2.6654 -0.4587  0.9909
  810TIP3   OH2 2393   4.563   2.507   1.826 -0.1388 -0.4444  0.0659
  810TIP3    H1 2394   4.501   2.484   1.757 -1.0035 -1.1023  1.0363
  810TIP3    H2 2395   4.532   2.460   1.903  0.4527  0.7376  1.0665
  811TIP3   OH2 2396   0.507   2.927   4.008 -0.0761  0.0319  0.3611
  811TIP3    H1 2397   0.447   2.951   3.938 -1.4055 -1.6818  0.8464
  811TIP3    H2 2398   0.516   2.831   4.001 -0.1921 -0.1861  2.4636
  812TIP3   OH2 2399   4.010   1.717   5.259  0.0147  0.0917  0.4475
  812TIP3    H1 2400   3.977   1.760   5.180 -0.2172  0.1746  0.5890
  812TIP3    H2 2401   4.088   1.767   5.284 -0.1633  0.3325  0.5212
  813TIP3   OH2 2402   5.142   4.079   5.257 -0.1421 -0.2921 -0.2051
  813TIP3    H1 2403   5.182   4.026   5.188 -0.1074  0.1536 -0.5326
  813TIP3    H2 2404   5.215   4.104   5.314 -0.0911 -0.2270 -0.2988
  814TIP3   OH2 2405   1.533   1.893   4.424  0.5062 -0.7329  0.3954
  814TIP3    H1 2406   1.626   1.872   4.425  0.9619  1.0974  0.5992
  814TIP3    H2 2407   1.511   1.906   4.516  0.4232  0.2559  0.2468
  815TIP3   OH2 2408   3.490   4.669   5.869 -0.0025  0.2158 -0.3404
  815TIP3    H1 2409   3.554   4.729   5.831 -0.5323 -0.4078 -2.3665
  815TIP3    H2 2410   3.536   4.585   5.873  0.6619  0.6145  2.2623
  816TIP3   OH2 2411   5.650   6.726   3.609 -0.0218  0.0442  0.6067
  816TIP3    H1 2412   5.657   6.637   3.643 -0.4145 -0.3526 -0.3120
  816TIP3    H2 2413   5.720   6.733   3.544 -1.0445 -0.1901 -0.5548
  817TIP3   OH2 2414   6.182   6.710   1.846  0.3425  0.6055  0.0099
  817TIP3    H1 2415   6.240   6.780   1.874 -0.7977  1.0838  1.2797
  817TIP3    H2 2416   6.231   6.630   1.862  0.6049  0.9957  1.2277
  818TIP3   OH2 2417   1.545   6.272   1.386  0.4784  0.5280 -0.0841
  818TIP3    H1 2418   1.505   6.295   1.303  0.2294  1.1134  0.1953
  818TIP3    H2 2419   1.527   6.178   1.396 -3.5152  1.2897  1.4392
  819TIP3   OH2 2420   3.410   2.982   2.478  0.8051 -0.1302 -0.6407
  819TIP3    H1 2421   3.394   3.077   2.486 -1.9712 -0.4859 -0.9054
  819TIP3    H2 2422   3.376   2.960   2.392 -1.5262 -1.8057  0.5975
  820TIP3   OH2 2423   0.213   6.488   5.490 -0.5282  0.0246 -0.1323
  820TIP3    H1 2424   0.242   6.571   5.452  0.4055 -0.4063 -0.3954
  820TIP3    H2 2425   0.195   6.509   5.582  2.4121  0.0026  0.5761
  821TIP3   OH2 2426   5.351   0.870   5.214 -0.1264 -0.1070 -0.2505
  821TIP3    H1 2427   5.370   0.858   5.121  0.9286  0.9105 -0.1871
  821TIP3    H2 2428   5.417   0.933   5.245  0.1151 -1.0845  1.3850
  822TIP3   OH2 2429   4.447   6.675   0.029  0.1656  0.4074  0.3077
  822TIP3    H1 2430   4.411   6.740  -0.030 -0.3310  0.0813  0.2461
  822TIP3    H2 2431   4.477   6.725   0.105  0.0772  0.7415  0.1215
  823TIP3   OH2 2432   4.517   5.277   0.459  0.0831 -0.0280  0.0168
  823TIP3    H1 2433   4.528   5.194   0.412 -1.4526 -0.6406  0.6798
  823TIP3    H2 2434   4.440   5.264   0.513 -0.4625  2.0117 -0.1832
  824TIP3   OH2 2435   6.405   5.223   1.210  0.3587 -0.1000 -0.5479
  824TIP3    H1 2436   6.475   5.284   1.236 -0.1500  0.5856 -0.7486
  824TIP3    H2 2437   6.446   5.137   1.215  0.9351  0.2012  0.3194
  825TIP3   OH2 2438   4.168   4.284   1.774  0.0204  0.1241  0.0135
  825TIP3    H1 2439   4.187   4.335   1.695  2.3267 -0.3016  0.2255
  825TIP3    H2 2440   4.079   4.251   1.760 -0.1215  1.1298 -1.8051
  826TIP3   OH2 2441   2.007   1.704   5.290  0.0103  0.1368  0.1450
  826TIP3    H1 2442   1.993   1.737   5.202 -1.7160  0.6676  0.5911
  826TIP3    H2 2443   2.055   1.622   5.277 -0.4229  0.0859 -1.2949
  827TIP3   OH2 2444   0.762   2.028   5.369  0.5105 -0.3219  0.4314
  827TIP3    H1 2445   0.854   2.036   5.393  0.4298 -0.7067  0.9070
  827TIP3    H2 2446   0.751   2.085   5.293  0.9788  0.2763  0.8064
  828TIP3   OH2 2447   1.734   2.141   0.559 -0.3297  0.3542  0.3723
  828TIP3    H1 2448   1.799   2.072   0.548 -0.6327  0.0236  0.6416
  828TIP3    H2 2449   1.759   2.207   0.495  0.3440  0.2896  0.5576
  829TIP3   OH2 2450   5.196   2.155   2.163 -0.4848  0.0171 -0.3522
  829TIP3    H1 2451   5.267   2.206   2.125 -0.9875  0.2137 -1.0390
  829TIP3    H2 2452   5.187   2.188   2.253  0.1678  0.1090 -0.3172
  830TIP3   OH2 2453   1.179   2.660   0.952 -0.6785 -0.8305  0.1068
  830TIP3    H1 2454   1.252   2.717   0.928  0.7362 -3.0624 -1.2599
  830TIP3    H2 2455   1.196   2.634   1.042  0.3518 -1.4370 -0.2454
  831TIP3   OH2 2456   0.233   6.167   3.880  0.1312 -0.7052 -0.6694
  831TIP3    H1 2457   0.186   6.175   3.797 -1.8501 -1.5710  0.2810
  831TIP3    H2 2458   0.258   6.075   3.884 -1.6749 -1.2085  0.5560
  832TIP3   OH2 2459   4.783   2.480   5.414  0.3830 -0.0079 -0.1283
  832TIP3    H1 2460   4.771   2.553   5.353 -0.5364  1.5175  1.7634
  832TIP3    H2 2461   4.694   2.445   5.425  0.7579 -1.1896 -0.6938
  833TIP3   OH2 2462   1.172   4.481   0.654 -0.2257 -0.6485 -0.0441
  833TIP3    H1 2463   1.151   4.420   0.725 -0.3185 -0.6644 -0.0850
  833TIP3    H2 2464   1.114   4.454   0.582 -2.2488  1.1900  0.7852
  834TIP3   OH2 2465   6.262   0.125   5.727  0.0738 -0.1867  0.7898
  834TIP3    H1 2466   6.247   0.155   5.817 -1.1888 -0.2982  0.6237
  834TIP3    H2 2467   6.229   0.196   5.672 -2.6278 -1.6336  0.3931
  835TIP3   OH2 2468   1.853   1.072   5.294  0.5018 -0.4487 -0.0520
  835TIP3    H1 2469   1.915   1.137   5.262 -0.3918 -0.2976 -1.5893
  835TIP3    H2 2470   1.836   1.097   5.385 -0.6053  2.1218 -0.8894
  836TIP3   OH2 2471   2.230   2.167   3.079 -0.1035  0.0094 -1.1613
  836TIP3    H1 2472   2.239   2.204   2.991  0.8497  2.0090 -0.2954
  836TIP3    H2 2473   2.198   2.240   3.132 -1.0341 -1.2702  0.0917
  837TIP3   OH2 2474   4.614   0.215   2.509  0.2707 -0.0199 -0.5565
  837TIP3    H1 2475   4.633   0.307   2.529 -0.7819 -0.4356  2.9480
  837TIP3    H2 2476   4.534   0.219   2.456 -0.6315  1.0756  0.8239
  838TIP3   OH2 2477   6.968   0.056   5.007 -0.6389 -0.4188  0.1441
  838TIP3    H1 2478   6.915   0.120   4.961  0.4398 -0.4516 -1.1919
  838TIP3    H2 2479   7.025   0.018   4.940 -0.4229 -1.9339  1.1186
  839TIP3   OH2 2480   2.080   0.828   0.584  0.2737  0.1271  0.1895
  839TIP3    H1 2481   2.062   0.748   0.535  0.4208  0.1773  0.0551
  839TIP3    H2 2482   2.058   0.899   0.523  1.4920  0.1976 -0.1935
  840TIP3   OH2 2483   3.359   0.312   5.112  0.5611 -0.1724 -0.2179
  840TIP3    H1 2484   3.387   0.388   5.162 -0.8954  0.8976 -0.9635
  840TIP3    H2 2485   3.279   0.340   5.068 -1.7703 -3.0298  1.8188
  841TIP3   OH2 2486   4.994   4.110   4.636 -0.4975  0.0208 -0.3132
  841TIP3    H1 2487   5.056   4.037   4.630  0.3330  0.6511  0.3898
  841TIP3    H2 2488   4.926   4.089   4.571 -1.7581 -2.7422  1.7133
  842TIP3   OH2 2489   1.683   5.434   0.774 -0.0152  0.3049 -0.0200
  842TIP3    H1 2490   1.616   5.483   0.822 -0.9096 -0.0999 -0.8307
  842TIP3    H2 2491   1.685   5.348   0.817  0.3122  0.4582  0.2825
  843TIP3   OH2 2492   2.230   5.236   3.967 -0.2015  0.1971 -0.2002
  843TIP3    H1 2493   2.206   5.262   3.878 -0.7443  0.9958  0.1713
  843TIP3    H2 2494   2.181   5.295   4.024  0.5418  0.0444  0.6267
  844TIP3   OH2 2495   5.073   3.303   0.400  0.3881 -0.0884 -0.2899
  844TIP3    H1 2496   5.001   3.331   0.456  0.7639 -2.0434  1.2951
  844TIP3    H2 2497   5.138   3.372   0.407 -0.4974  0.7448 -0.1302
  845TIP3   OH2 2498   2.835   6.672   3.379  0.2692  0.4235 -0.2826
  845TIP3    H1 2499   2.867   6.632   3.460 -1.7069 -0.0776  0.3105
  845TIP3    H2 2500   2.905   6.730   3.351  1.5912 -0.4905  0.9999
  846TIP3   OH2 2501   0.437   5.044   3.959  0.1612 -0.1464 -0.0737
  846TIP3    H1 2502   0.378   4.968   3.963  1.5277 -1.2384  0.2636
  846TIP3    H2 2503   0.457   5.053   3.866  0.3443 -0.4850 -0.0686
  847TIP3   OH2 2504   1.624   2.695   3.166  0.1562  0.3669  0.1476
  847TIP3    H1 2505   1.587   2.741   3.241  0.9537 -1.3648  1.6894
  847TIP3    H2 2506   1.712   2.732   3.157  0.3577  0.0196  0.6154
  848TIP3   OH2 2507   6.185   3.341   5.244  0.1633  0.4195 -0.1700
  848TIP3    H1 2508   6.255   3.283   5.212 -0.8007 -0.7739 -0.1877
  848TIP3    H2 2509   6.117   3.335   5.177 -1.1376 -0.7094  1.1771
  849TIP3   OH2 2510   1.582   0.786   3.684 -0.2828 -0.0825  0.0254
  849TIP3    H1 2511   1.650   0.722   3.662 -0.2710 -0.4764  1.1596
  849TIP3    H2 2512   1.518   0.736   3.735 -0.4755  0.7212  0.5837
  850TIP3   OH2 2513   6.947   6.017   3.899  0.7152  0.7113 -0.2483
  850TIP3    H1 2514   6.991   5.969   3.969 -0.2556  0.9856  0.5798
  850TIP3    H2 2515   6.964   5.967   3.820  1.2813  0.0336  0.2981
  851TIP3   OH2 2516   1.753   3.570   0.462  0.2280 -0.0516  0.4070
  851TIP3    H1 2517   1.696   3.599   0.533 -1.1308 -0.9524 -0.2511
  851TIP3    H2 2518   1.756   3.475   0.471  0.7279 -0.1028 -0.2277
  852TIP3   OH2 2519   4.976   1.766   3.845  0.1148  0.4637  0.3480
  852TIP3    H1 2520   4.954   1.826   3.774  0.5244 -0.6103 -0.7129
  852TIP3    H2 2521   5.033   1.701   3.805 -1.1640 -1.2613  1.1863
  853TIP3   OH2 2522   1.911   6.708   1.205 -0.1586 -0.7357  0.0430
  853TIP3    H1 2523   1.845   6.688   1.271  0.6317  0.3467  1.2143
  853TIP3    H2 2524   1.861   6.724   1.125 -1.4476  1.0421  1.1128
  854TIP3   OH2 2525   6.692   3.629   5.351 -0.1946 -0.2515  0.4815
  854TIP3    H1 2526   6.669   3.712   5.393  1.7163  0.5717  0.0194
  854TIP3    H2 2527   6.763   3.594   5.405  1.2879  0.0876 -1.1535
  855TIP3   OH2 2528   5.943   3.898   5.552 -0.1606  0.1577  0.0184
  855TIP3    H1 2529   5.920   3.821   5.603 -1.8251  1.3353  1.1777
  855TIP3    H2 2530   5.982   3.864   5.472  1.1043 -1.8035  1.3680
  856TIP3   OH2 2531   6.453   3.025   2.206  0.0048  0.1166  0.1948
  856TIP3    H1 2532   6.530   3.024   2.263 -0.4710  2.5941  0.9958
  856TIP3    H2 2533   6.475   3.089   2.138 -0.8728 -0.0729 -0.2818
  857TIP3   OH2 2534   5.646   0.083   2.412 -0.1817 -0.4564 -0.4717
  857TIP3    H1 2535   5.694   0.029   2.349 -0.6380  0.3413 -1.5447
  857TIP3    H2 2536   5.683   0.171   2.400  0.0959 -0.3863  0.7730
  858TIP3   OH2 2537   6.114   5.871   3.941  0.0471  0.0042 -0.5511
  858TIP3    H1 2538   6.085   5.784   3.912  0.3316 -0.1056 -0.5114
  858TIP3    H2 2539   6.035   5.925   3.936 -0.3041 -0.4293  0.1261
  859TIP3   OH2 2540   6.244   6.331   0.468 -0.3600 -0.0994  0.0107
  859TIP3    H1 2541   6.224   6.353   0.377  1.4296 -2.6967 -1.1509
  859TIP3    H2 2542   6.332   6.292   0.464 -0.2085 -0.2574  2.8705
  860TIP3   OH2 2543   2.069   2.724   4.288  0.1050  0.1634  0.4002
  860TIP3    H1 2544   2.128   2.663   4.333 -0.0252  0.3410  0.8249
  860TIP3    H2 2545   2.122   2.764   4.220  0.4955  0.3697  0.8245
  861TIP3   OH2 2546   4.339   6.140   1.427  0.0143 -0.5031  0.1231
  861TIP3    H1 2547   4.369   6.230   1.438  2.3393 -0.9117 -2.0214
  861TIP3    H2 2548   4.413   6.086   1.454  0.2918 -1.6463 -2.5869
  862TIP3   OH2 2549   4.806   1.006   1.114  0.0937  0.5275  0.2343
  862TIP3    H1 2550   4.731   1.008   1.055  0.0209  2.1564  0.3335
  862TIP3    H2 2551   4.882   1.000   1.056 -0.0551  0.3042  0.0628
  863TIP3   OH2 2552   5.752   1.604   2.640  0.0277  0.3130  0.6394
  863TIP3    H1 2553   5.721   1.661   2.569 -0.7129 -1.3179 -0.4098
  863TIP3    H2 2554   5.672   1.581   2.688  0.1406 -0.7968  0.3108
  864TIP3   OH2 2555   2.430   4.001   2.455  0.0989  0.3093 -0.0071
  864TIP3    H1 2556   2.400   4.071   2.512  1.3360  1.3163 -0.5528
  864TIP3    H2 2557   2.460   4.045   2.375 -1.4992 -1.0442 -1.4489
  865TIP3   OH2 2558   1.748   5.943   0.353 -0.1097 -0.8369  0.3523
  865TIP3    H1 2559   1.689   5.952   0.427  0.4836 -2.2828  1.0306
  865TIP3    H2 2560   1.832   5.974   0.385 -0.1167 -0.3670 -0.0815
  866TIP3   OH2 2561   6.266   4.395   4.930  0.3392 -0.1936 -0.7808
  866TIP3    H1 2562   6.303   4.366   4.847  0.6738 -1.5154 -0.1905
  866TIP3    H2 2563   6.295   4.486   4.938 -0.1072  0.1152 -2.3212
  867TIP3   OH2 2564   6.732   2.014   0.231  0.1060 -0.6218 -0.4658
  867TIP3    H1 2565   6.827   2.013   0.218  0.0311  0.9415 -1.3650
  867TIP3    H2 2566   6.718   2.073   0.305 -0.1762 -0.9332 -0.2639
  868TIP3   OH2 2567   2.815   5.011   5.248 -0.2292 -0.2526 -0.5519
  868TIP3    H1 2568   2.743   5.036   5.305 -1.1322 -2.0274 -0.8400
  868TIP3    H2 2569   2.891   5.056   5.284 -0.9323 -0.6101  1.5281
  869TIP3   OH2 2570   4.795   4.176   3.768  0.0413 -0.5526 -0.4141
  869TIP3    H1 2571   4.837   4.213   3.845 -0.1113  0.4306 -0.7870
  869TIP3    H2 2572   4.780   4.084   3.790  2.4839 -0.9853 -0.3334
  870TIP3   OH2 2573   0.323   2.789   3.121  0.4049 -0.0645 -1.3478
  870TIP3    H1 2574   0.318   2.858   3.187  0.1403  0.5789 -2.0197
  870TIP3    H2 2575   0.239   2.743   3.129  0.8795 -0.8036 -0.3956
  871TIP3   OH2 2576   0.430   4.853   1.514  0.0555 -0.5039  0.1911
  871TIP3    H1 2577   0.437   4.921   1.581 -1.0411  0.0684 -0.2449
  871TIP3    H2 2578   0.402   4.899   1.435  2.5107 -0.9854 -1.0458
  872TIP3   OH2 2579   6.444   5.178   3.233  0.1983 -0.6360  0.2108
  872TIP3    H1 2580   6.419   5.184   3.141  0.9365 -1.3294 -0.0405
  872TIP3    H2 2581   6.380   5.118   3.271  0.0003 -0.4865  0.1194
  873TIP3   OH2 2582   0.722   5.058   4.665 -0.6412  0.5464 -0.0782
  873TIP3    H1 2583   0.722   5.092   4.754  1.3262  0.7404 -0.1007
  873TIP3    H2 2584   0.812   5.028   4.651 -1.0909 -0.1512 -1.7555
  874TIP3   OH2 2585   2.046   2.490   2.949 -0.8337  0.3144 -0.4045
  874TIP3    H1 2586   2.009   2.408   2.917  0.5926 -1.0245  1.1955
  874TIP3    H2 2587   2.138   2.487   2.922 -0.3505  0.5599  1.1459
  875TIP3   OH2 2588   1.382   2.471   5.212  0.1893  0.6979 -0.2081
  875TIP3    H1 2589   1.454   2.526   5.242 -0.2169  0.8702  0.4814
  875TIP3    H2 2590   1.423   2.387   5.191  0.3648  0.1653  1.9987
  876TIP3   OH2 2591   0.411   2.324   2.839  0.1893  0.3322 -0.1324
  876TIP3    H1 2592   0.495   2.297   2.802 -0.5428 -0.8165 -1.0586
  876TIP3    H2 2593   0.386   2.402   2.790  1.0559  1.1410  0.6799
  877TIP3   OH2 2594   3.079   3.105   0.019 -0.2216 -0.2534 -0.2555
  877TIP3    H1 2595   3.015   3.139  -0.043 -0.4842  0.8197  0.5871
  877TIP3    H2 2596   3.030   3.043   0.073 -0.0928 -0.8659 -0.8364
  878TIP3   OH2 2597   4.132   5.810   1.487  0.1851  0.1103 -0.3924
  878TIP3    H1 2598   4.218   5.835   1.521  0.4351 -0.9469 -0.2151
  878TIP3    H2 2599   4.089   5.767   1.561 -0.4418  0.4925 -0.5272
  879TIP3   OH2 2600   2.761   2.930   2.924 -0.1314 -0.5148  0.1717
  879TIP3    H1 2601   2.747   2.952   2.832  2.7357 -0.4234 -0.3532
  879TIP3    H2 2602   2.719   2.845   2.935 -1.5059 -0.0010 -0.9005
  880TIP3   OH2 2603   0.720   2.369   0.569  0.3539  0.0664 -0.5854
  880TIP3    H1 2604   0.705   2.451   0.617  1.2539 -0.8881  1.4145
  880TIP3    H2 2605   0.678   2.302   0.622  0.8647 -0.9715 -1.4575
  881TIP3   OH2 2606   0.008   1.655   5.168 -1.0641 -0.4401  0.0051
  881TIP3    H1 2607   0.049   1.627   5.086  0.1967 -0.1257  0.5061
  881TIP3    H2 2608   0.000   1.750   5.160 -1.6308 -0.4846 -0.0410
  882TIP3   OH2 2609   3.333   4.559   0.802 -0.5921  0.8400 -0.0710
  882TIP3    H1 2610   3.410   4.536   0.750 -0.3191  1.3639  0.0931
  882TIP3    H2 2611   3.368   4.579   0.889 -0.8083  1.9253 -0.2217
  883TIP3   OH2 2612   4.718   3.813   0.853 -0.3510 -0.0467 -0.2653
  883TIP3    H1 2613   4.781   3.794   0.923  0.2748 -1.9634 -1.2789
  883TIP3    H2 2614   4.699   3.907   0.863  2.4017  0.5426  0.3249
  884TIP3   OH2 2615   3.880   5.486   4.948  0.0106 -0.1223 -0.2272
  884TIP3    H1 2616   3.888   5.392   4.957  0.8904 -0.0345 -0.0422
  884TIP3    H2 2617   3.921   5.506   4.864 -1.0091  0.0010 -0.7208
  885TIP3   OH2 2618   5.527   5.496   2.769  0.4887  0.1313  0.0721
  885TIP3    H1 2619   5.486   5.582   2.756 -0.2591 -0.3614 -1.0153
  885TIP3    H2 2620   5.485   5.462   2.848 -0.9605 -0.1965 -0.8029
  886TIP3   OH2 2621   5.845   6.003   5.524  0.4449 -0.4398 -0.5983
  886TIP3    H1 2622   5.874   6.082   5.478  1.4763 -0.7246 -0.4569
  886TIP3    H2 2623   5.788   6.036   5.593 -0.2167  0.0761 -1.3622
  887TIP3   OH2 2624   7.162   4.763   2.975 -0.4730  0.2525 -0.2644
  887TIP3    H1 2625   7.249   4.783   2.938  0.3317 -0.8829  0.9341
  887TIP3    H2 2626   7.105   4.758   2.899 -0.2124  4.0697 -0.9254
  888TIP3   OH2 2627   6.517   6.200   2.628  0.2858  0.2033  0.0565
  888TIP3    H1 2628   6.544   6.183   2.537 -1.2365 -1.2461 -0.1605
  888TIP3    H2 2629   6.587   6.256   2.663  3.1133 -2.5627 -0.7377
  889TIP3   OH2 2630   1.393   6.066   3.298 -0.2703 -0.2437  0.0063
  889TIP3    H1 2631   1.463   6.003   3.316  0.0614  0.2076  0.3211
  889TIP3    H2 2632   1.315   6.028   3.340  0.0355 -0.2146  0.6160
  890TIP3   OH2 2633   0.245   1.929   2.485 -0.7128 -0.5338 -0.3169
  890TIP3    H1 2634   0.330   1.971   2.493 -0.5147 -1.1125  0.8267
  890TIP3    H2 2635   0.264   1.836   2.475 -1.1922 -0.5807 -0.8527
  891TIP3   OH2 2636   2.480   6.373   0.401  0.0313 -0.5613  0.1845
  891TIP3    H1 2637   2.396   6.367   0.446  0.3515 -0.2540  0.8354
  891TIP3    H2 2638   2.543   6.390   0.471  0.4017  0.9407 -0.4859
  892TIP3   OH2 2639   4.050   4.574   4.151 -0.1180  0.3581 -0.0845
  892TIP3    H1 2640   3.991   4.555   4.078 -2.2918  0.9537  1.4187
  892TIP3    H2 2641   4.013   4.653   4.192  1.9690  0.9997  0.7201
  893TIP3   OH2 2642   0.831   1.984   1.050 -0.1551 -0.4040  0.0562
  893TIP3    H1 2643   0.924   2.007   1.046  0.0490 -1.2684 -0.4678
  893TIP3    H2 2644   0.811   1.983   1.144  0.8201 -1.8950  0.2820
  894TIP3   OH2 2645   1.786   4.583   2.479  0.0907  0.0316 -0.0077
  894TIP3    H1 2646   1.710   4.555   2.430  0.3094 -0.7761  0.1068
  894TIP3    H2 2647   1.755   4.656   2.533 -0.8815 -0.9860  0.8527
  895TIP3   OH2 2648   2.472   6.567   4.657  0.0445  0.1763 -0.0458
  895TIP3    H1 2649   2.537   6.576   4.726 -0.3460 -0.5194  0.4268
  895TIP3    H2 2650   2.388   6.558   4.703 -0.3192  0.4758 -0.6271
  896TIP3   OH2 2651   5.692   4.781   1.851  0.0391  0.1502 -0.3895
  896TIP3    H1 2652   5.655   4.840   1.917 -0.9039 -0.0029 -0.7618
  896TIP3    H2 2653   5.681   4.693   1.888  0.9266  0.1594 -0.0828
  897TIP3   OH2 2654   6.037   0.858   2.434 -0.6409 -0.1431 -0.2457
  897TIP3    H1 2655   5.974   0.811   2.378 -0.8109 -1.4944  1.0049
  897TIP3    H2 2656   6.013   0.831   2.523  0.9359  0.3022  0.3327
  898TIP3   OH2 2657   5.566   3.076   3.349  0.1074 -0.0172  0.0905
  898TIP3    H1 2658   5.556   3.099   3.441  1.8987  1.6749 -0.0806
  898TIP3    H2 2659   5.520   2.992   3.340  0.1207 -0.3520  2.5648
  899TIP3   OH2 2660   4.841   2.759   1.786 -0.5920 -0.3535 -0.0793
  899TIP3    H1 2661   4.829   2.852   1.766  2.4130 -0.0859 -1.0617
  899TIP3    H2 2662   4.788   2.745   1.865 -1.4555  2.0544 -0.1351
  900TIP3   OH2 2663   3.765   6.507   0.273 -0.0871  0.2119  0.4931
  900TIP3    H1 2664   3.768   6.426   0.325  1.4056  0.3368  0.6224
  900TIP3    H2 2665   3.828   6.565   0.314 -0.0520  0.9116 -0.5073
  901TIP3   OH2 2666   6.247   2.677   3.869  0.2657 -0.0457  0.1287
  901TIP3    H1 2667   6.303   2.708   3.799  0.4403 -0.0416  0.2699
  901TIP3    H2 2668   6.256   2.582   3.867  2.2120  0.0382  1.7232
  902TIP3   OH2 2669   4.472   6.468   4.975 -0.1240 -0.4943  0.2212
  902TIP3    H1 2670   4.414   6.501   5.043 -1.1906  0.2968 -1.0341
  902TIP3    H2 2671   4.558   6.503   4.997 -0.6733  0.6752  0.5441
  903TIP3   OH2 2672   1.868   2.643   3.977 -0.7643  0.2816  0.0064
  903TIP3    H1 2673   1.951   2.646   3.931 -1.0206 -0.7406 -0.5503
  903TIP3    H2 2674   1.828   2.728   3.960  0.6856  1.2752  1.3112
  904TIP3   OH2 2675   4.724   5.552   2.691  0.0087  0.4412  0.4529
  904TIP3    H1 2676   4.642   5.597   2.670  0.8007  1.8139  0.2047
  904TIP3    H2 2677   4.736   5.490   2.620 -0.3877  0.8167  0.0495
  905TIP3   OH2 2678   0.199   1.254   1.930  0.4708  0.5432 -0.0879
  905TIP3    H1 2679   0.164   1.307   1.859 -0.6677 -0.3474 -0.2284
  905TIP3    H2 2680   0.276   1.302   1.961  0.4467  1.4007 -1.3058
  906TIP3   OH2 2681   5.661   0.457   3.021  0.6746  0.3040  0.5134
  906TIP3    H1 2682   5.616   0.460   3.105  0.9982 -0.6772  0.7361
  906TIP3    H2 2683   5.696   0.368   3.016  2.2498  0.9169  0.1718
  907TIP3   OH2 2684   6.870   1.809   0.539  0.3511  0.4613  0.2226
  907TIP3    H1 2685   6.935   1.810   0.610  0.2116 -1.5397  0.4228
  907TIP3    H2 2686   6.917   1.771   0.465  0.2711  1.8350 -0.5552
  908TIP3   OH2 2687   3.930   3.705   4.046 -0.2155  0.7860  0.3515
  908TIP3    H1 2688   3.943   3.725   4.139  0.2343 -0.4502  0.5762
  908TIP3    H2 2689   3.840   3.675   4.040 -0.5780  1.8646  0.1879
  909TIP3   OH2 2690   2.737   3.351   0.916  0.7699  0.6244  0.0043
  909TIP3    H1 2691   2.680   3.275   0.912  0.1642  1.0919 -0.5934
  909TIP3    H2 2692   2.807   3.332   0.854  1.1558  0.1283  0.5963
  910TIP3   OH2 2693   1.630   3.295   1.123 -0.0870  0.4324  0.0122
  910TIP3    H1 2694   1.724   3.290   1.142 -0.0115  0.1445 -0.4169
  910TIP3    H2 2695   1.588   3.275   1.206  0.2347 -0.6971 -0.0744
  911TIP3   OH2 2696   5.940   4.480   2.972  0.1945  0.4406 -0.6097
  911TIP3    H1 2697   5.861   4.439   2.938 -0.3343 -0.3467  1.4434
  911TIP3    H2 2698   5.995   4.408   3.002  1.5195  1.0010 -1.5520
  912TIP3   OH2 2699   2.089   5.905   1.828  0.9802  0.2822 -0.0507
  912TIP3    H1 2700   2.023   5.896   1.759  1.9641 -0.1727 -0.9688
  912TIP3    H2 2701   2.077   5.994   1.861 -1.4066 -0.4366  1.2276
  913TIP3   OH2 2702   3.579   0.634   0.235 -0.2112 -0.0618 -0.2161
  913TIP3    H1 2703   3.667   0.618   0.200 -0.5490  0.4908 -1.3510
  913TIP3    H2 2704   3.522   0.579   0.182 -0.3927 -1.8815  1.7248
  914TIP3   OH2 2705   3.316   2.074   1.586 -0.1302 -0.3116  0.0401
  914TIP3    H1 2706   3.348   1.984   1.583 -0.4866 -0.4119 -2.7918
  914TIP3    H2 2707   3.389   2.127   1.554 -0.5470  0.2037 -0.0729
  915TIP3   OH2 2708   2.518   5.721   5.849 -0.2068  0.1729 -0.1923
  915TIP3    H1 2709   2.510   5.782   5.776  0.0892  2.0349  1.2424
  915TIP3    H2 2710   2.575   5.766   5.912  0.1560 -1.6730  0.8753
  916TIP3   OH2 2711   5.968   0.314   3.640  0.0986 -0.2438  0.4083
  916TIP3    H1 2712   5.886   0.361   3.626  0.3170  0.4177  1.2859
  916TIP3    H2 2713   5.963   0.285   3.732  0.6335 -0.6297  0.3196
  917TIP3   OH2 2714   3.507   3.055   1.619 -0.6545  0.2483 -0.0840
  917TIP3    H1 2715   3.544   3.039   1.706 -1.7976 -0.5690  0.2713
  917TIP3    H2 2716   3.475   3.145   1.622  2.0854  1.3405 -0.7154
  918TIP3   OH2 2717   6.356   1.675   4.953  0.1086 -0.2601  0.0697
  918TIP3    H1 2718   6.444   1.647   4.977 -0.7663 -2.8482  0.5722
  918TIP3    H2 2719   6.306   1.593   4.944 -2.1336  1.0932 -0.6654
  919TIP3   OH2 2720   0.204   2.138   2.105 -0.0664  0.1060 -0.1606
  919TIP3    H1 2721   0.282   2.142   2.160  0.6490  3.3810 -1.2030
  919TIP3    H2 2722   0.131   2.134   2.166  0.7942  1.3238  1.0111
  920TIP3   OH2 2723  -0.017   1.781   2.860 -0.3277 -0.1906 -0.6265
  920TIP3    H1 2724   0.012   1.701   2.815  1.8370  0.6032 -0.7346
  920TIP3    H2 2725   0.036   1.784   2.940 -0.0521  1.3492 -0.8376
  921TIP3   OH2 2726   0.920   3.614   3.123  0.0152  1.0370  0.0130
  921TIP3    H1 2727   0.926   3.621   3.218  0.5183  1.8652 -0.0694
  921TIP3    H2 2728   0.969   3.689   3.090  0.6511  0.2441 -0.9148
  922TIP3   OH2 2729   1.815   6.468   1.762  0.3505 -0.3323  0.2238
  922TIP3    H1 2730   1.749   6.416   1.717 -1.7704  0.7851  1.8330
  922TIP3    H2 2731   1.822   6.428   1.849 -1.4253  1.9448  1.5500
  923TIP3   OH2 2732   5.513   4.751   2.231  0.5788 -0.4099 -0.1779
  923TIP3    H1 2733   5.482   4.820   2.289 -0.1641 -1.8741  1.2453
  923TIP3    H2 2734   5.537   4.797   2.151  1.0874  1.6162  1.0574
  924TIP3   OH2 2735   1.812   5.440   4.876 -0.3033  0.1827 -0.9092
  924TIP3    H1 2736   1.784   5.348   4.879 -0.2890  0.1841 -0.6921
  924TIP3    H2 2737   1.766   5.477   4.801  0.8744 -0.3878 -1.9397
  925TIP3   OH2 2738   7.167   2.428   3.357  0.0128  0.2670 -0.2673
  925TIP3    H1 2739   7.208   2.378   3.286 -0.9277 -1.1237  0.1407
  925TIP3    H2 2740   7.073   2.421   3.342 -0.1747  1.0307  0.4146
  926TIP3   OH2 2741   3.845   6.572   1.838  0.6886  0.0898  0.4978
  926TIP3    H1 2742   3.765   6.589   1.788  1.5784 -0.7205 -1.3096
  926TIP3    H2 2743   3.831   6.486   1.877  1.1314 -0.6536 -0.8969
  927TIP3   OH2 2744   6.773   2.957   5.670  0.2256 -0.2508  0.0150
  927TIP3    H1 2745   6.700   3.014   5.694 -0.4505 -1.8421  2.0603
  927TIP3    H2 2746   6.844   2.984   5.729  1.0003  0.5955 -1.2557
  928TIP3   OH2 2747   2.665   5.682   4.215  0.1383 -0.4939  0.1489
  928TIP3    H1 2748   2.700   5.637   4.292 -0.8869 -1.4499  0.0819
  928TIP3    H2 2749   2.574   5.701   4.238  0.4968  1.4895  0.1261
  929TIP3   OH2 2750   4.606   3.779   0.394 -0.2540  0.2312 -0.0366
  929TIP3    H1 2751   4.520   3.738   0.387 -0.8229  1.1906  1.0975
  929TIP3    H2 2752   4.648   3.734   0.468  0.5537 -0.7625 -1.0545
  930TIP3   OH2 2753   3.149   0.606   5.674  0.2331  0.2777  0.1472
  930TIP3    H1 2754   3.169   0.691   5.711  1.0098 -0.2199  0.9040
  930TIP3    H2 2755   3.228   0.554   5.686 -0.0426 -0.4001 -0.7751
  931TIP3   OH2 2756   2.274   3.451   3.501 -0.2081 -0.0068  0.2531
  931TIP3    H1 2757   2.301   3.505   3.427 -2.3572  1.8119  0.6762
  931TIP3    H2 2758   2.221   3.381   3.462 -0.7092  0.5164 -0.0287
  932TIP3   OH2 2759   4.333   4.131   2.555 -0.1907 -0.3179 -0.4260
  932TIP3    H1 2760   4.394   4.057   2.560  0.1192 -0.0384  0.0046
  932TIP3    H2 2761   4.388   4.208   2.567 -0.6827 -0.0853  0.4110
  933TIP3   OH2 2762   3.952   2.678   5.182 -0.4119 -0.2611 -1.0504
  933TIP3    H1 2763   3.957   2.606   5.120  0.6959 -1.0286 -0.1068
  933TIP3    H2 2764   3.864   2.670   5.220 -0.6144 -0.5778 -1.5765
  934TIP3   OH2 2765   2.353   3.307   2.759 -0.2049  0.0251  0.2454
  934TIP3    H1 2766   2.323   3.243   2.694  0.5413 -1.0501  0.9344
  934TIP3    H2 2767   2.282   3.372   2.762 -0.7962 -0.5400 -0.7671
  935TIP3   OH2 2768   2.135   6.251   3.836  0.1754  0.2137  0.0925
  935TIP3    H1 2769   2.217   6.226   3.879  0.5955 -0.6397 -1.1243
  935TIP3    H2 2770   2.112   6.174   3.783 -0.5619  1.0382 -0.8172
  936TIP3   OH2 2771   3.714   2.992   5.255 -0.1159  0.2046  0.1340
  936TIP3    H1 2772   3.762   3.075   5.267  0.3873 -0.0249 -0.2346
  936TIP3    H2 2773   3.746   2.937   5.326  0.2886  0.0030 -0.1962
  937TIP3   OH2 2774   1.347   4.106   2.228 -0.0798 -0.2623  0.3766
  937TIP3    H1 2775   1.318   4.082   2.316  0.1978 -1.6345  0.1158
  937TIP3    H2 2776   1.442   4.108   2.235 -0.0843  0.6372  0.3366
  938TIP3   OH2 2777   5.980   4.613   1.039  0.0015 -0.5094  0.1194
  938TIP3    H1 2778   5.979   4.708   1.038  0.3849 -0.4719  1.3767
  938TIP3    H2 2779   6.061   4.590   0.992 -1.5807 -0.3532 -2.9001
  939TIP3   OH2 2780   3.351   1.123   1.217  0.4498  0.1471  0.5006
  939TIP3    H1 2781   3.264   1.116   1.178  0.6783 -0.8221  0.1567
  939TIP3    H2 2782   3.338   1.102   1.310 -0.0827  2.4018  1.0007
  940TIP3   OH2 2783   3.718   0.657   3.316  0.3084  0.3950 -0.2733
  940TIP3    H1 2784   3.793   0.690   3.366  1.6296 -1.9133 -0.5945
  940TIP3    H2 2785   3.734   0.687   3.226  0.2059  0.8660 -0.1417
  941TIP3   OH2 2786   6.969   3.950   2.011  0.0204  0.7406 -0.2420
  941TIP3    H1 2787   7.011   3.907   2.085  0.6274 -0.1485 -1.0687
  941TIP3    H2 2788   6.881   3.912   2.007 -0.5054  1.7964  0.8298
  942TIP3   OH2 2789   6.259   2.547   5.576  0.3946 -0.0063 -0.6107
  942TIP3    H1 2790   6.224   2.582   5.657  0.0032  0.1750 -0.8581
  942TIP3    H2 2791   6.326   2.484   5.604  1.3571  1.1664 -0.1681
  943TIP3   OH2 2792   1.729   5.092   0.636 -0.2310  0.0276 -0.4966
  943TIP3    H1 2793   1.684   5.164   0.591  1.3296  0.6678 -1.0822
  943TIP3    H2 2794   1.815   5.128   0.658 -0.6767 -0.4271  2.5104
  944TIP3   OH2 2795   4.148   6.757   4.621 -0.0999  0.1182  0.1152
  944TIP3    H1 2796   4.161   6.847   4.650  0.0402 -0.1115  0.7719
  944TIP3    H2 2797   4.057   6.736   4.644  0.5374 -0.6782  2.1337
  945TIP3   OH2 2798   0.654   2.342   0.309  0.0461  0.2167  0.1929
  945TIP3    H1 2799   0.659   2.343   0.405  1.3575  1.7087  0.1426
  945TIP3    H2 2800   0.632   2.432   0.286 -1.3369 -0.3633 -0.8921
  946TIP3   OH2 2801   1.765   0.277   2.032  0.3606  0.5463 -0.7683
  946TIP3    H1 2802   1.818   0.341   2.080  0.6809  0.6185 -1.2094
  946TIP3    H2 2803   1.684   0.270   2.082  1.3147 -0.5952  0.6747
  947TIP3   OH2 2804   2.375   5.846   0.242  0.3652 -0.0024  0.0918
  947TIP3    H1 2805   2.467   5.872   0.254  0.0796  0.8785  0.4445
  947TIP3    H2 2806   2.375   5.796   0.161  1.3965 -1.2066  0.7818
  948TIP3   OH2 2807   6.955   6.482   0.488 -0.1255  0.4576  0.0648
  948TIP3    H1 2808   6.923   6.393   0.504  2.1405 -0.2939  0.8232
  948TIP3    H2 2809   6.976   6.483   0.394 -0.3614  0.2538  0.0090
  949TIP3   OH2 2810   6.339   4.927   4.738  0.0282 -0.4861  0.5854
  949TIP3    H1 2811   6.412   4.927   4.676 -0.3197  0.8310  0.1495
  949TIP3    H2 2812   6.261   4.917   4.683 -0.2888  0.7924  0.7629
  950TIP3   OH2 2813   3.555   4.220   2.118 -0.5149  0.1609 -0.2773
  950TIP3    H1 2814   3.621   4.263   2.063  0.0326  0.0545  0.2890
  950TIP3    H2 2815   3.472   4.238   2.074 -0.2037  1.0769 -0.5091
  951TIP3   OH2 2816   4.798   0.184   2.263 -0.5921 -0.3582 -0.4726
  951TIP3    H1 2817   4.736   0.240   2.216 -1.1639 -1.6338 -1.2849
  951TIP3    H2 2818   4.742   0.124   2.313  0.0054  0.4237  1.2041
  952TIP3   OH2 2819   3.441   0.697   5.130 -0.2076  0.5584 -0.1017
  952TIP3    H1 2820   3.523   0.733   5.164  1.1407 -2.4415  0.1950
  952TIP3    H2 2821   3.382   0.695   5.205  0.3120  0.4681  0.3090
  953TIP3   OH2 2822   4.705   0.807   2.482 -0.0417 -0.2338 -0.4458
  953TIP3    H1 2823   4.622   0.821   2.436 -0.0799 -1.8446 -0.9492
  953TIP3    H2 2824   4.768   0.790   2.412  0.2408 -1.1472  0.0171
  954TIP3   OH2 2825   4.451   6.159   0.092 -0.5178  0.3969 -0.1880
  954TIP3    H1 2826   4.446   6.211   0.172  0.8343  0.9629 -0.4500
  954TIP3    H2 2827   4.504   6.082   0.116 -0.4113  0.3883 -0.4466
  955TIP3   OH2 2828   4.581   4.733   2.546  0.3947 -0.6311 -0.4447
  955TIP3    H1 2829   4.665   4.699   2.514  0.3830 -0.6954 -0.4076
  955TIP3    H2 2830   4.606   4.798   2.611  0.4518  0.5563 -1.6030
  956TIP3   OH2 2831   5.565   1.370   0.765  0.4894  0.3101  0.3570
  956TIP3    H1 2832   5.596   1.327   0.686  0.4219  0.5350  0.2055
  956TIP3    H2 2833   5.590   1.311   0.836  2.3757  1.0525  0.3708
  957TIP3   OH2 2834   6.832   1.631   1.292 -0.1328  0.3290  0.5904
  957TIP3    H1 2835   6.759   1.685   1.264  1.0842  2.0444  0.5940
  957TIP3    H2 2836   6.909   1.674   1.256  0.8613 -1.7743  0.0586
  958TIP3   OH2 2837   7.128   2.029   5.637 -0.0253 -0.7580 -0.2360
  958TIP3    H1 2838   7.129   2.043   5.732 -1.4551 -1.6319 -0.0442
  958TIP3    H2 2839   7.053   2.080   5.606 -0.2658 -1.3884 -0.7149
  959TIP3   OH2 2840   2.445   2.581   2.318 -0.6806 -0.0495 -0.7267
  959TIP3    H1 2841   2.450   2.607   2.410 -1.6175  0.3147 -0.7606
  959TIP3    H2 2842   2.379   2.512   2.317 -0.7541  0.0283 -1.1391
  960TIP3   OH2 2843   4.962   1.166   1.393  0.1685  0.0409 -0.2618
  960TIP3    H1 2844   4.986   1.236   1.332  1.7279 -1.1926 -1.1487
  960TIP3    H2 2845   4.927   1.097   1.336 -1.0142 -0.0593  0.5602
  961TIP3   OH2 2846   2.651   6.503   3.854 -0.8711 -0.4557 -0.3530
  961TIP3    H1 2847   2.565   6.545   3.854 -0.3293  0.7111 -1.6784
  961TIP3    H2 2848   2.648   6.445   3.930 -3.0892 -1.0146 -0.7861
  962TIP3   OH2 2849   4.816   4.242   1.361  0.5424  0.4055  0.0112
  962TIP3    H1 2850   4.784   4.257   1.272 -2.2682  0.7161  0.9763
  962TIP3    H2 2851   4.827   4.147   1.367 -1.4988  0.1113 -0.0645
  963TIP3   OH2 2852   0.484   3.672   2.902 -0.4199  0.0678 -0.5130
  963TIP3    H1 2853   0.501   3.718   2.983  0.0771  1.1425 -1.2087
  963TIP3    H2 2854   0.409   3.717   2.863 -1.1365 -0.9131 -0.3086
  964TIP3   OH2 2855   4.564   4.023   4.595  0.0739 -0.0935 -0.2815
  964TIP3    H1 2856   4.473   4.011   4.622 -0.9514  1.5757 -2.5994
  964TIP3    H2 2857   4.582   4.115   4.611  0.9739 -0.1534 -0.8459
  965TIP3   OH2 2858   6.069   4.190   5.282  0.1985 -0.3915  0.0436
  965TIP3    H1 2859   6.157   4.223   5.264  0.5531 -0.9853  0.6439
  965TIP3    H2 2860   6.067   4.103   5.241 -0.0162 -0.4907  0.2626
  966TIP3   OH2 2861   4.461   2.697   2.805  0.3681  0.4290 -0.3273
  966TIP3    H1 2862   4.393   2.649   2.852 -0.0373  0.9215 -0.4055
  966TIP3    H2 2863   4.413   2.758   2.749  0.8772  0.7925 -0.3736
  967TIP3   OH2 2864   6.659   1.884   2.725  0.2215  0.2088  0.0826
  967TIP3    H1 2865   6.661   1.956   2.662  1.3702  0.7836  0.7453
  967TIP3    H2 2866   6.747   1.845   2.721 -0.5564 -1.5595 -0.6965
  968TIP3   OH2 2867   3.297   4.289   2.692 -0.1986  0.8002 -0.2636
  968TIP3    H1 2868   3.240   4.311   2.765 -0.8430  0.9655 -0.7991
  968TIP3    H2 2869   3.351   4.217   2.724 -0.5959  0.7531  0.3100
  969TIP3   OH2 2870   1.896   6.483   0.179 -0.4607 -0.5330  0.4977
  969TIP3    H1 2871   1.973   6.476   0.122  0.2839  1.7241  1.1020
  969TIP3    H2 2872   1.827   6.439   0.131  0.3054  0.6612 -1.8778
  970TIP3   OH2 2873   5.024   2.179   1.929  0.0140 -0.0526  0.1773
  970TIP3    H1 2874   5.050   2.142   2.014 -0.6001 -0.7986  0.0573
  970TIP3    H2 2875   4.929   2.182   1.933 -0.0482 -0.5568 -0.6609
  971TIP3   OH2 2876   2.520   3.822   5.691  0.0045 -0.5590 -0.0476
  971TIP3    H1 2877   2.433   3.800   5.723  0.4685 -1.2262  0.7758
  971TIP3    H2 2878   2.556   3.740   5.659  0.2176 -0.2240 -0.6941
  972TIP3   OH2 2879   4.887   5.566   2.340 -0.3622  0.1872 -0.5865
  972TIP3    H1 2880   4.900   5.628   2.412  1.3166  2.3431 -2.6132
  972TIP3    H2 2881   4.880   5.620   2.262 -0.4456 -2.1283 -2.3006
  973TIP3   OH2 2882   0.961  -0.029   3.898 -0.4627  0.2046 -0.1046
  973TIP3    H1 2883   0.939   0.058   3.930  0.5562  0.7069 -0.7028
  973TIP3    H2 2884   0.940  -0.027   3.805  0.5228  0.1654 -0.3401
  974TIP3   OH2 2885   1.310   1.779   2.097 -0.2981 -0.2759 -0.3386
  974TIP3    H1 2886   1.234   1.742   2.053 -1.3603  0.9676  0.3842
  974TIP3    H2 2887   1.275   1.850   2.150  1.3903  0.4271 -0.0973
  975TIP3   OH2 2888   3.091   0.288   5.669  0.4839 -0.4596  0.2344
  975TIP3    H1 2889   3.095   0.360   5.732  2.8033 -0.5570  0.2817
  975TIP3    H2 2890   3.100   0.330   5.583 -0.3970 -0.5140  0.1131
  976TIP3   OH2 2891   6.225   0.216   1.634  0.2669 -0.4656 -0.5161
  976TIP3    H1 2892   6.171   0.155   1.585 -0.2015 -1.0671  0.7044
  976TIP3    H2 2893   6.167   0.252   1.701  1.0512 -0.1611  0.0156
  977TIP3   OH2 2894   2.908   0.873   4.614 -0.1958  0.0548  0.3287
  977TIP3    H1 2895   2.878   0.946   4.667 -0.3670  1.6037 -1.7620
  977TIP3    H2 2896   2.829   0.837   4.574  0.1832  1.0432 -1.4024
  978TIP3   OH2 2897   3.651   4.271   1.442 -0.1320 -0.5221  0.2020
  978TIP3    H1 2898   3.640   4.204   1.375  1.2199  0.1758 -0.7802
  978TIP3    H2 2899   3.618   4.231   1.522  0.5487 -2.3157 -0.3687
  979TIP3   OH2 2900   0.980   0.253   3.201  0.0004 -0.0420  0.1905
  979TIP3    H1 2901   0.977   0.158   3.194  0.2379  0.0179 -0.7835
  979TIP3    H2 2902   0.907   0.284   3.147 -1.0510  0.2946  1.7336
  980TIP3   OH2 2903   5.512   4.522   2.658  0.0540 -0.1043 -0.5206
  980TIP3    H1 2904   5.463   4.500   2.738  1.0973  1.6666  0.6772
  980TIP3    H2 2905   5.455   4.582   2.610 -1.0151 -1.9654 -1.6934
  981TIP3   OH2 2906   0.469   3.450   0.795 -0.6693 -0.2707 -0.3995
  981TIP3    H1 2907   0.460   3.401   0.876  0.3150  0.1437 -0.0285
  981TIP3    H2 2908   0.431   3.393   0.728 -1.0083 -0.8378  0.2640
  982TIP3   OH2 2909   1.497   4.274   4.287  0.1731  0.3887  0.5976
  982TIP3    H1 2910   1.435   4.336   4.251  0.7957  0.5336 -0.2368
  982TIP3    H2 2911   1.443   4.198   4.311 -0.3403  0.5524 -0.0111
  983TIP3   OH2 2912   5.147   0.616   0.598 -0.3466 -0.4461 -0.4022
  983TIP3    H1 2913   5.178   0.608   0.688  0.3483  1.0645 -0.4743
  983TIP3    H2 2914   5.176   0.535   0.556  1.7190 -0.0288  0.0750
  984TIP3   OH2 2915   4.763   6.197   1.735  0.3483  0.0858  0.1957
  984TIP3    H1 2916   4.829   6.128   1.723 -0.4216 -0.6268 -0.0552
  984TIP3    H2 2917   4.812   6.279   1.728  1.1550 -0.4275 -0.3205
  985TIP3   OH2 2918   0.258   1.417   5.291  0.2833  0.3175  0.4942
  985TIP3    H1 2919   0.200   1.372   5.230  1.0521 -0.7896  0.5579
  985TIP3    H2 2920   0.208   1.422   5.372 -0.6880  1.6669 -0.1328
  986TIP3   OH2 2921   4.786   0.863   0.221 -0.1141 -0.2572 -0.1651
  986TIP3    H1 2922   4.859   0.871   0.160  0.2685  0.1453  0.3284
  986TIP3    H2 2923   4.718   0.817   0.172 -0.5352  1.6843 -1.5523
  987TIP3   OH2 2924   5.557   4.929   3.613  0.0024 -0.0507  0.0382
  987TIP3    H1 2925   5.488   4.967   3.667 -0.6175  0.6955 -1.2276
  987TIP3    H2 2926   5.532   4.837   3.602 -0.2258 -0.0371  0.4577
  988TIP3   OH2 2927   6.780   1.390   3.720 -0.2313 -0.3563  0.7812
  988TIP3    H1 2928   6.712   1.326   3.740  0.5050 -0.5411  2.8397
  988TIP3    H2 2929   6.750   1.471   3.761  0.0227  0.0026  0.2743
  989TIP3   OH2 2930   6.960   6.003   3.366  1.0782  0.2742 -0.1589
  989TIP3    H1 2931   6.910   6.014   3.448 -0.1285 -2.6008 -0.3658
  989TIP3    H2 2932   6.906   6.045   3.299  0.3898 -0.2226  0.0699
  990TIP3   OH2 2933   0.723   6.564   4.212 -0.8957 -0.1516  0.5016
  990TIP3    H1 2934   0.715   6.614   4.130 -1.2112  0.0421  0.6497
  990TIP3    H2 2935   0.689   6.478   4.190 -0.1715 -0.3711  0.1920
  991TIP3   OH2 2936   2.385   4.693   5.728  0.0317 -0.4604 -0.2296
  991TIP3    H1 2937   2.448   4.633   5.769 -0.2817  0.0929  1.1167
  991TIP3    H2 2938   2.311   4.694   5.788  0.4476  2.0555  0.3606
  992TIP3   OH2 2939   5.891   1.174   1.949 -1.0192 -0.2830  0.2636
  992TIP3    H1 2940   5.829   1.159   2.021 -0.7211 -0.1374  0.5532
  992TIP3    H2 2941   5.896   1.089   1.905 -0.9808 -0.4542  0.5921
  993TIP3   OH2 2942   2.687   0.969   5.065 -0.0284  0.0083 -0.4956
  993TIP3    H1 2943   2.639   0.886   5.071 -0.1914  0.1113 -0.3805
  993TIP3    H2 2944   2.619   1.036   5.067  0.1203  0.1536 -0.3570
  994TIP3   OH2 2945   7.108   1.341   0.257 -0.4135 -0.0358  0.0552
  994TIP3    H1 2946   7.074   1.428   0.279 -0.2320 -0.4677  2.3259
  994TIP3    H2 2947   7.144   1.308   0.339  0.6348 -1.7788 -1.0340
  995TIP3   OH2 2948   1.082   3.750   4.326  0.3668  0.0716  0.1495
  995TIP3    H1 2949   1.173   3.740   4.350  0.2507  1.7650  1.5139
  995TIP3    H2 2950   1.035   3.753   4.409 -0.4902  2.5382 -0.3261
  996TIP3   OH2 2951   5.996   0.482   5.252  0.1041  0.0255 -1.0340
  996TIP3    H1 2952   6.018   0.512   5.340  0.4700 -0.3623 -0.9909
  996TIP3    H2 2953   5.920   0.425   5.264  0.2242 -0.1185 -0.9537
  997TIP3   OH2 2954   4.941   3.976   1.050  0.6037 -0.1378  0.3563
  997TIP3    H1 2955   4.944   4.060   1.003  2.3920 -0.7429 -0.6832
  997TIP3    H2 2956   5.026   3.970   1.094  1.3452 -2.2998 -1.2370
  998TIP3   OH2 2957   5.788   6.680   2.151 -0.3346 -0.2840  0.2730
  998TIP3    H1 2958   5.774   6.757   2.205 -0.6770 -0.4470  0.4136
  998TIP3    H2 2959   5.884   6.672   2.145 -0.1758  1.8897 -2.1952
  999TIP3   OH2 2960   7.175   1.309   5.421 -0.1432 -0.1191 -0.6007
  999TIP3    H1 2961   7.130   1.380   5.374 -1.0929 -0.2956  0.0167
  999TIP3    H2 2962   7.155   1.230   5.371 -0.5295 -0.1979 -0.3255
 1000TIP3   OH2 2963   0.498   4.200   4.111  0.4323 -0.0889  0.6874
 1000TIP3    H1 2964   0.537   4.143   4.044  1.6228  1.7414 -0.2540
 1000TIP3    H2 2965   0.568   4.211   4.176 -0.0186 -0.2214  1.2041
 1001TIP3   OH2 2966   5.497   1.021   0.632 -0.4652 -0.6773  0.3137
 1001TIP3    H1 2967   5.420   1.039   0.686  1.4374  0.5172  2.8882
 1001TIP3    H2 2968   5.551   0.964   0.687  1.9963  1.3492  0.1838
 1002TIP3   OH2 2969   4.055   0.278   3.339  0.3406  0.2962 -0.0829
 1002TIP3    H1 2970   4.143   0.263   3.306 -0.1728 -1.1458 -0.8908
 1002TIP3    H2 2971   3.999   0.270   3.262 -0.6637 -0.6985  0.7136
 1003TIP3   OH2 2972   4.215   1.520   2.061 -0.3108  0.5646  0.4240
 1003TIP3    H1 2973   4.163   1.443   2.040 -1.0001  1.2212 -0.3787
 1003TIP3    H2 2974   4.187   1.586   1.997 -0.2694  1.7088  1.5378
 1004TIP3   OH2 2975   2.934   1.497   2.485  0.6588 -0.2276  0.3563
 1004TIP3    H1 2976   2.903   1.438   2.416  1.5121 -1.1328  0.7205
 1004TIP3    H2 2977   2.870   1.568   2.486  0.1849 -0.6069 -0.8153
 1005TIP3   OH2 2978   4.741   1.940   0.625  0.7226 -0.0433  0.2020
 1005TIP3    H1 2979   4.734   1.848   0.652  0.2754 -0.3097 -0.7652
 1005TIP3    H2 2980   4.650   1.970   0.620  0.8173  0.1468 -0.4590
 1006TIP3   OH2 2981   0.410   4.820   5.817 -0.2806  0.8431 -0.1991
 1006TIP3    H1 2982   0.369   4.903   5.843 -0.0978  0.5650  0.9929
 1006TIP3    H2 2983   0.348   4.782   5.754 -1.3036  0.9809  0.6947
 1007TIP3   OH2 2984   4.167   3.094   4.748 -0.0501  0.0764  0.4202
 1007TIP3    H1 2985   4.098   3.107   4.683 -1.0993 -0.6027  1.3621
 1007TIP3    H2 2986   4.197   3.182   4.768 -1.1844  0.4525  0.5528
 1008TIP3   OH2 2987   3.160   2.430   3.705 -0.5264 -0.6001 -0.4327
 1008TIP3    H1 2988   3.068   2.404   3.700 -0.6341 -0.2947 -0.0874
 1008TIP3    H2 2989   3.159   2.525   3.699 -0.5422 -0.2679  2.9043
 1009TIP3   OH2 2990   5.678   6.651   2.481 -0.6025  0.7795  0.4217
 1009TIP3    H1 2991   5.619   6.708   2.432 -0.6000  1.4338  1.1534
 1009TIP3    H2 2992   5.628   6.627   2.559 -0.3591  0.3158  0.4378
 1010TIP3   OH2 2993   6.261   1.627   3.528  0.2651  0.0618 -0.2778
 1010TIP3    H1 2994   6.250   1.546   3.477 -0.2010 -0.2113  0.2425
 1010TIP3    H2 2995   6.257   1.598   3.619  0.3873  0.6411 -0.0861
 1011TIP3   OH2 2996   5.419   4.937   2.401 -0.0725 -0.0321 -0.3565
 1011TIP3    H1 2997   5.373   5.017   2.374  1.0311  1.1843  1.1447
 1011TIP3    H2 2998   5.372   4.907   2.478  0.6936  0.3303  0.2629
 1012TIP3   OH2 2999   0.127   5.843   4.623 -0.3916  0.7825 -0.1237
 1012TIP3    H1 3000   0.185   5.805   4.557 -0.8860  0.4099 -0.3518
 1012TIP3    H2 3001   0.169   5.925   4.648  1.1622 -0.3074  1.0299
 1013TIP3   OH2 3002   3.912   6.673   5.197 -0.2029 -0.6109 -0.3189
 1013TIP3    H1 3003   3.964   6.738   5.245  1.1978 -1.7549 -0.2093
 1013TIP3    H2 3004   3.892   6.606   5.262 -1.3606 -0.4738 -0.5069
 1014TIP3   OH2 3005   7.148   4.943   5.046 -0.3464  0.3887 -0.3429
 1014TIP3    H1 3006   7.184   4.882   4.981 -0.6564 -1.2703  0.9595
 1014TIP3    H2 3007   7.055   4.920   5.050 -0.2585  0.1992  0.9380
 1015TIP3   OH2 3008   1.204   3.484   0.970 -0.1861 -0.0606  0.0858
 1015TIP3    H1 3009   1.216   3.495   1.064 -1.9633  1.7101  0.1999
 1015TIP3    H2 3010   1.231   3.394   0.952  0.6549 -0.2872  2.1852
 1016TIP3   OH2 3011   0.825   0.090   5.160 -0.6438 -0.5034 -0.3449
 1016TIP3    H1 3012   0.819   0.043   5.077 -1.7314  0.7434 -1.0148
 1016TIP3    H2 3013   0.766   0.164   5.150  0.5207  0.6525  0.9148
 1017TIP3   OH2 3014   6.794   0.760   0.716 -0.4264  0.4330 -0.3611
 1017TIP3    H1 3015   6.821   0.797   0.801 -0.9409  0.9602 -0.4185
 1017TIP3    H2 3016   6.705   0.793   0.703 -1.5686 -2.1446  0.3301
 1018TIP3   OH2 3017   6.473   5.844   3.660 -0.1447  0.4603 -0.7904
 1018TIP3    H1 3018   6.555   5.849   3.710  0.8175 -1.4116 -2.0601
 1018TIP3    H2 3019   6.424   5.921   3.687  1.8703  1.4446  0.3035
 1019TIP3   OH2 3020   1.976   5.106   2.411 -0.4775  0.2383  0.4475
 1019TIP3    H1 3021   1.941   5.043   2.347  0.0964  0.5113 -0.1493
 1019TIP3    H2 3022   1.914   5.179   2.409 -1.3224 -0.4144  1.3740
 1020TIP3   OH2 3023   3.329   6.482   3.757 -0.6897 -0.0044  0.1121
 1020TIP3    H1 3024   3.380   6.513   3.682  0.3554  1.2971  1.3000
 1020TIP3    H2 3025   3.281   6.560   3.788 -0.1589 -0.1983  1.5064
 1021TIP3   OH2 3026   1.146   0.773   4.637  0.2020 -0.3210 -0.4066
 1021TIP3    H1 3027   1.238   0.747   4.629  0.3632  0.2839 -0.5347
 1021TIP3    H2 3028   1.107   0.749   4.553  0.0268 -1.3956 -0.0408
 1022TIP3   OH2 3029   2.500   4.278   3.872  0.5606  0.5097 -0.5564
 1022TIP3    H1 3030   2.517   4.232   3.954  1.2278  0.4373 -0.7314
 1022TIP3    H2 3031   2.406   4.294   3.872  0.4349 -0.2213 -0.1591
 1023TIP3   OH2 3032   4.762   3.490   4.344  0.1883  0.3836  0.2896
 1023TIP3    H1 3033   4.816   3.469   4.268  0.3415  0.6489  0.3241
 1023TIP3    H2 3034   4.787   3.426   4.410  1.6500  1.4892  0.8685
 1024TIP3   OH2 3035   0.680   5.067   2.059  0.1660  0.3710 -0.0212
 1024TIP3    H1 3036   0.668   5.153   2.098  3.6053  1.5866 -1.2847
 1024TIP3    H2 3037   0.747   5.026   2.113  0.6839 -0.3252 -1.1667
 1025TIP3   OH2 3038   0.269   0.698   3.570 -0.5497  0.4025 -0.2165
 1025TIP3    H1 3039   0.281   0.787   3.535  0.0664  0.4059 -0.0050
 1025TIP3    H2 3040   0.243   0.646   3.494  0.2355  0.5263 -0.5728
 1026TIP3   OH2 3041   0.473   2.918   2.199  0.1075  0.0342 -0.2651
 1026TIP3    H1 3042   0.431   2.889   2.117 -0.3332  0.6182 -0.2527
 1026TIP3    H2 3043   0.430   3.001   2.220  0.7480  0.2672  0.1594
 1027TIP3   OH2 3044   5.908   3.254   3.245  0.0591  0.1618 -0.0054
 1027TIP3    H1 3045   5.912   3.244   3.150  2.3702  0.2545  0.0301
 1027TIP3    H2 3046   5.988   3.213   3.277 -0.0208  1.2888  1.7938
 1028TIP3   OH2 3047   0.441   2.856   5.010  0.2886 -0.5817 -0.0014
 1028TIP3    H1 3048   0.475   2.929   5.062  0.0452  0.0524 -0.7274
 1028TIP3    H2 3049   0.517   2.798   4.997  0.1983 -1.1448  1.6847
 1029TIP3   OH2 3050   0.325   2.233   1.109  0.1899  0.8363  0.3142
 1029TIP3    H1 3051   0.388   2.162   1.121  0.0664  0.4276 -1.2045
 1029TIP3    H2 3052   0.303   2.230   1.015 -0.0308  2.7084  0.2658
 1030TIP3   OH2 3053   5.456   1.890   4.767  0.2289  0.3965 -0.2507
 1030TIP3    H1 3054   5.426   1.981   4.765 -0.4379  0.1945  0.4069
 1030TIP3    H2 3055   5.385   1.840   4.728  0.3592  0.0915 -0.1016
 1031TIP3   OH2 3056   0.166   5.080   2.645 -0.5701 -0.2520  0.5137
 1031TIP3    H1 3057   0.075   5.081   2.676 -0.8772 -2.9968 -0.0441
 1031TIP3    H2 3058   0.160   5.050   2.555  0.9196 -1.1602  0.6880
 1032TIP3   OH2 3059   3.071   2.478   4.209 -0.0024 -0.1022  0.7179
 1032TIP3    H1 3060   3.114   2.440   4.285 -0.1370 -1.0996  0.3203
 1032TIP3    H2 3061   2.978   2.477   4.231  0.0928  1.4727  1.3252
 1033TIP3   OH2 3062   0.027   1.552   4.640 -0.0780 -0.0822  0.4500
 1033TIP3    H1 3063   0.121   1.543   4.624 -0.3991  0.1542 -2.0640
 1033TIP3    H2 3064   0.021   1.612   4.714  1.7448 -0.7211  1.1707
 1034TIP3   OH2 3065   5.354   5.550   3.871  0.5545 -0.0397 -0.2703
 1034TIP3    H1 3066   5.338   5.456   3.870 -0.2456  0.0857 -0.4663
 1034TIP3    H2 3067   5.306   5.583   3.795  0.2212  0.6105  0.2116
 1035TIP3   OH2 3068   4.607   1.539   2.819  0.2739 -0.6203 -0.4435
 1035TIP3    H1 3069   4.647   1.489   2.891 -0.7862 -0.8218  0.0138
 1035TIP3    H2 3070   4.675   1.539   2.751  1.2189 -0.5995  0.4629
 1036TIP3   OH2 3071   4.150   1.181   5.128  1.2032  0.0789  0.1752
 1036TIP3    H1 3072   4.153   1.276   5.130  1.1187  0.0952 -0.2774
 1036TIP3    H2 3073   4.073   1.161   5.075  0.9790 -0.2441  0.6140
 1037TIP3   OH2 3074   4.361   5.676   1.833  0.1382  0.1136  0.2274
 1037TIP3    H1 3075   4.362   5.588   1.796 -0.8740 -0.5895  1.7544
 1037TIP3    H2 3076   4.277   5.683   1.878  0.7503  1.3709  1.2594
 1038TIP3   OH2 3077   7.174   4.126   4.118  0.4070 -0.1333  0.5688
 1038TIP3    H1 3078   7.093   4.082   4.091  0.3400  0.2544  0.1142
 1038TIP3    H2 3079   7.164   4.139   4.213 -0.2928  0.3566  0.4395
 1039TIP3   OH2 3080   5.531   3.717   0.778  0.5753  0.2425 -0.4152
 1039TIP3    H1 3081   5.572   3.746   0.860  0.5789 -0.4064 -0.1822
 1039TIP3    H2 3082   5.440   3.698   0.801 -0.1251  2.4770 -1.1099
 1040TIP3   OH2 3083   6.141   5.943   4.720 -0.1102 -0.0558 -0.2208
 1040TIP3    H1 3084   6.199   5.867   4.711  0.3476  0.0577  1.3580
 1040TIP3    H2 3085   6.193   6.006   4.771 -1.4707  0.2195  0.8726
 1041TIP3   OH2 3086   5.860   2.919   5.419 -0.3211  0.2388 -0.2539
 1041TIP3    H1 3087   5.943   2.968   5.423 -0.7349  1.0391 -1.2605
 1041TIP3    H2 3088   5.862   2.864   5.498  1.0971  0.3483 -0.1794
 1042TIP3   OH2 3089   2.120   3.314   2.066 -0.0792 -0.0574 -0.4308
 1042TIP3    H1 3090   2.134   3.409   2.061  0.0214 -0.1323 -2.0390
 1042TIP3    H2 3091   2.205   3.276   2.047 -0.0366 -0.4966  0.5525
 1043TIP3   OH2 3092   3.841   5.324   2.285  0.3982  0.2987 -0.8157
 1043TIP3    H1 3093   3.802   5.335   2.372 -0.9929 -0.0324 -1.3736
 1043TIP3    H2 3094   3.922   5.375   2.289  1.7051 -1.6997  1.5100
 1044TIP3   OH2 3095   2.045   3.702   3.550 -0.0990 -0.1067  0.1452
 1044TIP3    H1 3096   1.950   3.698   3.543 -0.0834  1.2070 -1.6696
 1044TIP3    H2 3097   2.077   3.654   3.474  0.5801  1.6590 -0.7541
 1045TIP3   OH2 3098   0.338   5.231   4.286 -0.3169 -0.0111 -0.0978
 1045TIP3    H1 3099   0.281   5.245   4.361  1.2293  0.4043  1.0465
 1045TIP3    H2 3100   0.302   5.153   4.243 -1.4573 -0.0299  0.8353
 1046TIP3   OH2 3101   4.382   1.117   1.557 -0.5310 -0.4976 -0.3927
 1046TIP3    H1 3102   4.293   1.112   1.592 -0.4414 -0.8807 -0.2099
 1046TIP3    H2 3103   4.436   1.140   1.633 -0.5386  0.3059 -0.6137
 1047TIP3   OH2 3104   4.633   1.468   1.685  0.5918  0.3057 -0.0010
 1047TIP3    H1 3105   4.726   1.465   1.664  0.5719 -1.4893  0.0688
 1047TIP3    H2 3106   4.615   1.561   1.698  1.8269  0.9508 -2.3476
 1048TIP3   OH2 3107   5.665   3.328   3.356  0.1892  0.0258 -0.3715
 1048TIP3    H1 3108   5.758   3.337   3.338  0.7600 -0.6693  1.8603
 1048TIP3    H2 3109   5.648   3.234   3.355 -0.4699  0.1379 -0.6514
 1049TIP3   OH2 3110   0.510   4.606   5.013 -0.1549  0.4875  0.7270
 1049TIP3    H1 3111   0.431   4.567   4.974  0.7254 -1.8281  1.0651
 1049TIP3    H2 3112   0.532   4.548   5.086  2.3418  0.5101  0.0997
 1050TIP3   OH2 3113   6.066   4.715   2.828 -0.4816  0.1663  0.0945
 1050TIP3    H1 3114   6.038   4.654   2.896 -0.7689 -1.5620 -1.4848
 1050TIP3    H2 3115   6.006   4.698   2.755  0.9748  0.5943 -1.2579
 1051TIP3   OH2 3116   3.929   4.014   1.982 -0.1065 -0.0239 -0.1016
 1051TIP3    H1 3117   3.888   4.098   1.958 -1.0610 -0.5753 -0.4583
 1051TIP3    H2 3118   3.897   3.953   1.916 -0.6761 -1.0103  1.0614
 1052TIP3   OH2 3119   5.347   4.891   4.068  0.1353  0.6202 -0.3664
 1052TIP3    H1 3120   5.286   4.819   4.088 -0.4343  0.6665 -1.8107
 1052TIP3    H2 3121   5.433   4.850   4.069  0.1045  0.4887  1.4128
 1053TIP3   OH2 3122   1.337   2.566   2.749 -0.3680 -0.3820  0.1706
 1053TIP3    H1 3123   1.287   2.632   2.702  3.1360  2.3999 -0.0166
 1053TIP3    H2 3124   1.338   2.597   2.840  0.3450 -0.8096  0.3155
 1054TIP3   OH2 3125   5.065   4.383   5.190 -0.3942 -0.7590  0.3788
 1054TIP3    H1 3126   5.019   4.300   5.201 -0.2317 -0.8426  0.4272
 1054TIP3    H2 3127   4.995   4.448   5.179 -0.5118 -0.9563 -0.0388
 1055TIP3   OH2 3128   6.356   2.885   5.411  0.0109  0.0838  0.3093
 1055TIP3    H1 3129   6.406   2.946   5.357 -0.5517  1.2422  1.0564
 1055TIP3    H2 3130   6.422   2.827   5.450  0.4125 -0.8690 -1.6946
 1056TIP3   OH2 3131   1.997   2.437   5.535  0.3420 -0.1635 -0.2075
 1056TIP3    H1 3132   2.010   2.371   5.466  0.1868  0.3609 -0.7468
 1056TIP3    H2 3133   1.906   2.425   5.562 -0.2318  0.9741 -1.5381
 1057TIP3   OH2 3134   0.933   3.533   4.704 -0.0975  0.1761 -0.8676
 1057TIP3    H1 3135   0.974   3.619   4.695  1.1335 -0.3903 -0.8747
 1057TIP3    H2 3136   0.888   3.519   4.620  0.2110  0.5514 -1.0987
 1058TIP3   OH2 3137   3.982   3.133   4.941  0.7977  0.4552  0.1634
 1058TIP3    H1 3138   4.056   3.118   4.882  1.4448  0.4355  0.9817
 1058TIP3    H2 3139   3.968   3.048   4.983 -0.1586  0.2588 -0.5019
 1059TIP3   OH2 3140   3.101   6.542   1.984  0.3268  0.1689 -0.2683
 1059TIP3    H1 3141   3.118   6.519   2.075  1.3358  1.2849 -0.1411
 1059TIP3    H2 3142   3.006   6.547   1.977  0.2522  1.3299  1.0749
 1060TIP3   OH2 3143   3.751   5.060   2.179  0.2748  0.0329  0.2332
 1060TIP3    H1 3144   3.787   5.132   2.231  0.9664 -0.4727  0.4660
 1060TIP3    H2 3145   3.807   4.985   2.200  0.1871 -0.3289 -0.7803
 1061TIP3   OH2 3146   5.737   2.352   3.606 -0.2048  0.3558  0.6039
 1061TIP3    H1 3147   5.764   2.260   3.602 -0.2925  0.3707 -1.2217
 1061TIP3    H2 3148   5.813   2.400   3.573  0.2520  1.0692  2.5655
 1062TIP3   OH2 3149   2.808   1.023   1.986  0.1707 -0.2577 -0.0469
 1062TIP3    H1 3150   2.784   1.044   2.077 -0.6879  0.1719 -0.3634
 1062TIP3    H2 3151   2.810   1.108   1.942 -0.3833 -0.5592 -0.6557
 1063TIP3   OH2 3152   0.895   6.303   4.651  0.1905 -0.2877  0.1285
 1063TIP3    H1 3153   0.916   6.223   4.699  1.3448  0.8443  1.6151
 1063TIP3    H2 3154   0.843   6.355   4.712  1.3331  1.0111  0.0443
 1064TIP3   OH2 3155   2.980   5.037   1.178 -0.0193 -0.3132 -0.5247
 1064TIP3    H1 3156   2.939   4.961   1.138  0.5408 -0.5050 -0.7423
 1064TIP3    H2 3157   3.074   5.018   1.176  0.0225 -0.4028  1.0181
 1065TIP3   OH2 3158   0.252   2.440   5.278 -0.1572 -0.6275  0.4137
 1065TIP3    H1 3159   0.274   2.370   5.339  0.9295 -0.4286  0.2692
 1065TIP3    H2 3160   0.166   2.415   5.244 -0.6708 -0.8708  1.8109
 1066TIP3   OH2 3161   1.252   2.072   1.423 -0.0909  0.8832 -0.3305
 1066TIP3    H1 3162   1.316   2.074   1.351  0.4592 -0.0012  0.1219
 1066TIP3    H2 3163   1.199   1.995   1.406  0.2949  0.4464  0.4195
 1067TIP3   OH2 3164   5.146   3.146   4.033 -0.1893 -0.4443 -0.3556
 1067TIP3    H1 3165   5.165   3.230   4.076 -1.4104 -0.9062  1.1813
 1067TIP3    H2 3166   5.223   3.092   4.051  0.5722  0.2958 -1.2915
 1068TIP3   OH2 3167   0.298   4.062   1.640  0.1148  0.0014 -0.0835
 1068TIP3    H1 3168   0.245   4.137   1.663  1.2073  1.5643 -2.2757
 1068TIP3    H2 3169   0.235   3.993   1.618 -0.9819  1.0858 -0.4589
 1069TIP3   OH2 3170   2.866   0.377   0.159  0.1117 -0.4673  0.8318
 1069TIP3    H1 3171   2.843   0.456   0.207  0.3062  0.0957  0.0115
 1069TIP3    H2 3172   2.787   0.353   0.111  0.3533 -0.1730  0.2725
 1070TIP3   OH2 3173   6.619   0.231   4.731 -0.1032  0.1521  0.7812
 1070TIP3    H1 3174   6.683   0.249   4.800  1.1186  0.9354 -0.5142
 1070TIP3    H2 3175   6.580   0.316   4.712 -0.7413 -0.1328  0.7910
 1071TIP3   OH2 3176   0.392   1.470   4.447  0.1602 -0.7672  0.5250
 1071TIP3    H1 3177   0.384   1.488   4.541  1.2242 -0.8627  0.6500
 1071TIP3    H2 3178   0.355   1.383   4.436  1.0340 -1.2255  1.0676
 1072TIP3   OH2 3179   2.962   2.122   2.729  0.3330 -0.0414  0.0412
 1072TIP3    H1 3180   3.003   2.202   2.760  0.6148  0.3042 -1.1939
 1072TIP3    H2 3181   3.012   2.098   2.651  1.2405 -2.2512  1.1995
 1073TIP3   OH2 3182   2.560   6.715   0.863  0.0252 -0.1631  0.1051
 1073TIP3    H1 3183   2.526   6.688   0.778  1.2072  0.7384 -0.6783
 1073TIP3    H2 3184   2.521   6.801   0.879  0.1886 -0.1138  0.2447
 1074TIP3   OH2 3185   5.250   5.641   4.171  0.1844  0.1234  0.2408
 1074TIP3    H1 3186   5.218   5.621   4.083 -0.7290  1.9223  0.1126
 1074TIP3    H2 3187   5.173   5.639   4.227  0.8220 -1.4477  1.1297
 1075TIP3   OH2 3188   5.517   6.295   4.181 -1.0974 -0.3214  0.0030
 1075TIP3    H1 3189   5.466   6.320   4.258 -1.1530  1.4714 -0.5597
 1075TIP3    H2 3190   5.555   6.377   4.150 -0.5834 -1.0961 -1.5379
 1076TIP3   OH2 3191   3.173   6.336   1.157 -0.1057 -0.5229  0.7060
 1076TIP3    H1 3192   3.204   6.291   1.236 -2.1500 -0.8776  1.3854
 1076TIP3    H2 3193   3.252   6.366   1.113  1.0926  0.1968  3.1845
 1077TIP3   OH2 3194   5.143   5.742   1.076  0.0951  0.0862  0.0985
 1077TIP3    H1 3195   5.115   5.833   1.076  0.3749  0.1803  1.1157
 1077TIP3    H2 3196   5.067   5.694   1.110 -0.3712 -0.1825 -1.2506
 1078TIP3   OH2 3197   1.128   2.801   0.423  0.4134  0.4332  0.3359
 1078TIP3    H1 3198   1.207   2.803   0.369 -0.1085  0.9916 -0.4220
 1078TIP3    H2 3199   1.146   2.733   0.489  1.8620  1.1307  0.7085
 1079TIP3   OH2 3200   5.869   6.732   1.156 -0.6514 -0.2763  0.1536
 1079TIP3    H1 3201   5.842   6.646   1.124 -0.3495 -0.5141  0.5305
 1079TIP3    H2 3202   5.952   6.749   1.112 -0.6070 -0.2728  0.2380
 1080TIP3   OH2 3203   2.223   3.276   1.751 -1.0860 -0.1145 -0.8435
 1080TIP3    H1 3204   2.130   3.286   1.729 -1.0466  1.7565 -0.2566
 1080TIP3    H2 3205   2.243   3.349   1.809  0.3324 -1.4999  0.5318
 1081TIP3   OH2 3206   6.812   0.358   1.451 -0.0264  0.4605  0.1334
 1081TIP3    H1 3207   6.805   0.374   1.357 -1.2241  0.4726  0.1986
 1081TIP3    H2 3208   6.799   0.263   1.460 -0.3145  0.5162  0.3141
 1082TIP3   OH2 3209   2.935   0.093   2.473 -0.1102 -0.4381 -0.3517
 1082TIP3    H1 3210   2.866   0.028   2.490 -0.1260 -0.2940  0.1688
 1082TIP3    H2 3211   2.903   0.144   2.399 -0.2497 -0.8060 -0.5503
 1083TIP3   OH2 3212   5.594   5.760   0.881  0.3304 -0.3205 -0.1392
 1083TIP3    H1 3213   5.631   5.847   0.866  0.7295 -0.4668 -0.0184
 1083TIP3    H2 3214   5.501   5.770   0.862  0.7356 -0.4271 -2.3881
 1084TIP3   OH2 3215   4.382   2.232   4.240 -0.7314 -0.1402 -0.1065
 1084TIP3    H1 3216   4.318   2.226   4.170  0.8853 -0.5567 -1.6210
 1084TIP3    H2 3217   4.458   2.183   4.208  0.8475  1.4294  1.0394
 1085TIP3   OH2 3218   2.900   4.065   3.974  0.2315  0.1870  0.7275
 1085TIP3    H1 3219   2.988   4.094   3.953  0.0604  0.5024  0.4402
 1085TIP3    H2 3220   2.857   4.143   4.010 -0.1909  0.2634  0.0667
 1086TIP3   OH2 3221   5.761   0.704   5.385 -0.4351 -0.0104 -0.5571
 1086TIP3    H1 3222   5.825   0.693   5.455 -1.6108 -1.1048  0.4011
 1086TIP3    H2 3223   5.733   0.795   5.392 -1.0374 -0.2804  0.8786
 1087TIP3   OH2 3224   4.620   0.754   1.172 -0.2243 -0.1896 -0.0773
 1087TIP3    H1 3225   4.551   0.728   1.111 -0.6043  1.4570 -0.3935
 1087TIP3    H2 3226   4.634   0.847   1.154  0.3192  0.1081  1.7153
 1088TIP3   OH2 3227   2.489   6.249   3.714  0.2249 -0.3834  0.6578
 1088TIP3    H1 3228   2.577   6.267   3.682  0.0104  1.7357  1.1282
 1088TIP3    H2 3229   2.442   6.332   3.706 -2.1455 -1.7119 -0.7486
 1089TIP3   OH2 3230   0.816   1.618   4.245 -0.1341  0.6530 -0.8324
 1089TIP3    H1 3231   0.880   1.582   4.307  0.8767 -0.2287 -2.3281
 1089TIP3    H2 3232   0.746   1.552   4.242 -0.0958  0.6093 -0.7621
 1090TIP3   OH2 3233   0.841   6.375   2.432  0.0051 -0.4562  0.1775
 1090TIP3    H1 3234   0.923   6.343   2.395 -1.1020 -0.8273 -2.2189
 1090TIP3    H2 3235   0.859   6.466   2.456  1.0424 -0.4467 -0.5717
 1091TIP3   OH2 3236   1.886   4.351   0.841  0.0376 -0.1132  0.1465
 1091TIP3    H1 3237   1.831   4.413   0.793  0.1000  0.1521  0.4120
 1091TIP3    H2 3238   1.824   4.295   0.888 -0.0098  0.2050  0.4694
 1092TIP3   OH2 3239   1.612   2.426   3.052 -0.2565 -0.3556  0.2808
 1092TIP3    H1 3240   1.655   2.465   2.976  1.0682 -1.7477  0.2738
 1092TIP3    H2 3241   1.570   2.499   3.096 -1.3699  0.4547 -1.9689
 1093TIP3   OH2 3242   5.856   0.472   0.856 -0.2206 -1.0017  0.1370
 1093TIP3    H1 3243   5.832   0.385   0.825  1.1258 -1.5582  0.6032
 1093TIP3    H2 3244   5.825   0.474   0.947  0.9335 -1.4958  0.5477
 1094TIP3   OH2 3245   6.066   0.805   3.143  0.4599  0.1656  0.1888
 1094TIP3    H1 3246   6.011   0.883   3.148 -0.1175 -0.1325 -1.0866
 1094TIP3    H2 3247   6.136   0.820   3.207 -1.3267  0.3464  2.2382
 1095TIP3   OH2 3248   0.916   4.940   2.533  0.2372 -0.0210 -0.5675
 1095TIP3    H1 3249   0.846   4.960   2.596  0.3264 -0.0700 -0.4513
 1095TIP3    H2 3250   0.995   4.979   2.572  0.1550  0.6093 -1.0226
 1096TIP3   OH2 3251   4.512   1.106   0.161  0.0426  0.7984 -0.0241
 1096TIP3    H1 3252   4.442   1.115   0.096 -0.5705  0.2483  0.5453
 1096TIP3    H2 3253   4.592   1.117   0.111 -0.4569  3.5860 -0.3513
 1097TIP3   OH2 3254   4.106   0.694   2.503  0.1058  0.1455 -0.3358
 1097TIP3    H1 3255   4.178   0.631   2.507 -0.6600 -0.9119 -2.0856
 1097TIP3    H2 3256   4.060   0.683   2.586  0.6795 -0.7698 -0.1221
 1098TIP3   OH2 3257   4.678   5.512   1.532 -0.6578 -0.3363 -0.6615
 1098TIP3    H1 3258   4.625   5.435   1.554 -0.7322  0.0773  0.7355
 1098TIP3    H2 3259   4.648   5.539   1.446 -1.4506 -1.1839 -0.6625
 1099TIP3   OH2 3260   2.603   5.278   0.330  0.6071 -0.3544 -0.1096
 1099TIP3    H1 3261   2.624   5.343   0.264 -3.3820 -0.7146 -2.0792
 1099TIP3    H2 3262   2.556   5.327   0.398 -0.2741 -0.7575 -0.4076
 1100TIP3   OH2 3263   6.488   1.742   0.145 -0.3903  0.5815 -0.0428
 1100TIP3    H1 3264   6.416   1.799   0.173 -0.2130  1.1161 -0.6491
 1100TIP3    H2 3265   6.461   1.654   0.172 -2.1249  0.4948 -1.8259
 1101TIP3   OH2 3266   6.967   1.313   2.087 -0.3156  0.0730  0.5819
 1101TIP3    H1 3267   7.030   1.276   2.148 -0.5981 -0.6242  0.4649
 1101TIP3    H2 3268   6.887   1.263   2.103 -0.2394 -0.4885 -0.7351
 1102TIP3   OH2 3269   4.046   6.373   4.706 -0.2585 -0.1879 -0.0902
 1102TIP3    H1 3270   4.043   6.424   4.786  0.7062 -0.2248 -0.0185
 1102TIP3    H2 3271   4.015   6.433   4.638 -2.6514 -0.6268  0.5009
 1103TIP3   OH2 3272   4.281   5.725   3.362  0.0455  0.6263 -0.1341
 1103TIP3    H1 3273   4.280   5.767   3.276  0.1596  1.5677  0.3109
 1103TIP3    H2 3274   4.293   5.632   3.343 -0.0603  0.8044 -1.1374
 1104TIP3   OH2 3275   1.738   6.625   1.422 -0.0728  0.0805  0.1891
 1104TIP3    H1 3276   1.661   6.601   1.474  0.2410 -0.9462  0.1881
 1104TIP3    H2 3277   1.805   6.645   1.487 -0.4820  1.5138  0.1990
 1105TIP3   OH2 3278   6.367   5.543   4.117 -0.5887 -0.1136 -0.4536
 1105TIP3    H1 3279   6.373   5.579   4.205  3.2418 -0.5393 -0.3778
 1105TIP3    H2 3280   6.352   5.450   4.130  0.7204 -0.3068 -0.1400
 1106TIP3   OH2 3281   6.072   3.607   4.444  0.1310 -0.4310 -0.3816
 1106TIP3    H1 3282   6.121   3.652   4.375  0.4681 -0.5620 -0.2298
 1106TIP3    H2 3283   6.073   3.515   4.418  1.1577 -0.6448  0.3135
 1107TIP3   OH2 3284   6.518   0.218   1.700 -0.6110  0.3412  0.1937
 1107TIP3    H1 3285   6.425   0.202   1.685 -0.1371 -1.5932 -1.0885
 1107TIP3    H2 3286   6.562   0.165   1.633  1.4264  0.8966  1.0252
 1108TIP3   OH2 3287   2.435   6.132   0.754 -0.4291 -0.0238 -0.5509
 1108TIP3    H1 3288   2.391   6.214   0.732 -1.1084 -0.2760 -0.1886
 1108TIP3    H2 3289   2.480   6.106   0.674 -0.1754  0.7210 -0.6558
 1109TIP3   OH2 3290   4.320   0.655   5.586 -0.0580  0.7705 -0.0725
 1109TIP3    H1 3291   4.264   0.637   5.662  1.0260  0.0876  0.5853
 1109TIP3    H2 3292   4.361   0.571   5.566  2.1258  1.6179  0.6143
 1110TIP3   OH2 3293   2.189   0.446   4.285 -0.1800 -0.2226 -0.0855
 1110TIP3    H1 3294   2.233   0.364   4.263  0.9310  0.2613  0.2663
 1110TIP3    H2 3295   2.205   0.458   4.379 -0.9473  0.0415  0.0240
 1111TIP3   OH2 3296   0.827   4.906   2.242 -0.2492 -0.0638 -0.2407
 1111TIP3    H1 3297   0.842   4.812   2.245  1.9032  0.2223  0.1021
 1111TIP3    H2 3298   0.826   4.933   2.334  1.1986  0.4625 -0.3435
 1112TIP3   OH2 3299   1.173   3.529   5.549  0.5164  0.4094 -0.4448
 1112TIP3    H1 3300   1.180   3.559   5.640  0.8405  1.0585 -0.6805
 1112TIP3    H2 3301   1.165   3.434   5.556  1.2744  0.3853  0.2380
 1113TIP3   OH2 3302   0.845   4.195   1.530  0.4172 -0.2913 -0.1782
 1113TIP3    H1 3303   0.887   4.203   1.616 -0.4755 -0.2223  0.2604
 1113TIP3    H2 3304   0.806   4.108   1.530 -0.2058 -0.0159 -0.2301
 1114TIP3   OH2 3305   7.123   4.825   3.846  0.0381 -0.0052 -0.1273
 1114TIP3    H1 3306   7.054   4.823   3.781  0.6364  1.4331 -0.8419
 1114TIP3    H2 3307   7.078   4.817   3.930 -1.0573  1.5374 -0.5419
 1115TIP3   OH2 3308   1.694   4.736   2.690 -0.3998  0.2280 -0.0580
 1115TIP3    H1 3309   1.712   4.830   2.692 -0.2501  0.2445 -1.4787
 1115TIP3    H2 3310   1.603   4.728   2.719 -0.3590  0.7822  0.2340
 1116TIP3   OH2 3311   4.805   4.780   4.321 -0.1348 -0.2518  0.4804
 1116TIP3    H1 3312   4.815   4.712   4.254 -0.6306 -0.3484  0.5048
 1116TIP3    H2 3313   4.882   4.837   4.308 -1.0317  0.6453 -1.2260
 1117TIP3   OH2 3314   2.825   2.160   0.607  0.6301  0.4124 -0.1247
 1117TIP3    H1 3315   2.896   2.107   0.570 -0.3405 -0.1540 -1.2551
 1117TIP3    H2 3316   2.798   2.217   0.535 -0.9093 -0.3009 -0.1572
 1118TIP3   OH2 3317   2.708   2.413   3.098 -0.2641  0.5576  0.1734
 1118TIP3    H1 3318   2.774   2.374   3.041 -0.2621 -1.9641  1.7221
 1118TIP3    H2 3319   2.624   2.384   3.061 -0.3885  1.3392 -0.1642
 1119TIP3   OH2 3320   6.329   4.520   2.565 -0.4274  0.2219 -0.4753
 1119TIP3    H1 3321   6.289   4.434   2.581 -0.7720  0.4999  0.1665
 1119TIP3    H2 3322   6.255   4.580   2.559 -0.1080  0.8917  1.6221
 1120TIP3   OH2 3323   5.712   2.181   3.043  0.5011  0.4601  0.4244
 1120TIP3    H1 3324   5.768   2.252   3.013 -0.4686  1.0901  0.0638
 1120TIP3    H2 3325   5.729   2.110   2.982  1.1402  0.5212  0.5156
 1121TIP3   OH2 3326   4.397   3.557   2.190  0.2514  0.6206  0.5676
 1121TIP3    H1 3327   4.479   3.533   2.234 -0.2772  0.6695  1.5997
 1121TIP3    H2 3328   4.421   3.633   2.136  0.8181  0.8516  1.1218
 1122TIP3   OH2 3329   3.174   0.348   1.754 -0.0115 -0.6152  0.4805
 1122TIP3    H1 3330   3.203   0.257   1.742 -0.4236 -0.9876  2.0427
 1122TIP3    H2 3331   3.088   0.351   1.712  0.4540 -0.6475 -0.4978
 1123TIP3   OH2 3332   5.001   6.478   5.195  0.3310  0.7071  0.2062
 1123TIP3    H1 3333   5.037   6.563   5.169 -0.2774  0.6727 -0.7794
 1123TIP3    H2 3334   5.077   6.430   5.229  0.7342  1.5404  0.5003
 1124TIP3   OH2 3335   3.041   5.213   2.352  0.2379  0.1026  0.2649
 1124TIP3    H1 3336   3.082   5.141   2.401 -0.7810 -0.7866 -0.1640
 1124TIP3    H2 3337   3.071   5.200   2.262 -0.9907 -0.5882 -0.0626
 1125TIP3   OH2 3338   3.606   2.600   0.331  0.1836 -0.1481 -0.1428
 1125TIP3    H1 3339   3.558   2.549   0.266  2.3211  0.4053 -2.3052
 1125TIP3    H2 3340   3.690   2.554   0.339  0.9782  1.3043  0.1635
 1126TIP3   OH2 3341   5.839   4.015   4.068  0.1846  0.6207 -0.4032
 1126TIP3    H1 3342   5.775   3.991   4.136  2.3640 -0.2632  1.4767
 1126TIP3    H2 3343   5.789   4.013   3.987 -1.8554 -1.5336  0.7720
 1127TIP3   OH2 3344   6.101   6.294   3.249  0.1732 -0.5301 -0.0454
 1127TIP3    H1 3345   6.131   6.226   3.309 -0.7768  0.6636  1.8416
 1127TIP3    H2 3346   6.095   6.250   3.164 -1.7382 -3.1851  1.3413
 1128TIP3   OH2 3347   1.800   2.365   5.051 -0.1037  0.5637  0.0370
 1128TIP3    H1 3348   1.728   2.364   4.988 -1.4705 -1.9185  1.4721
 1128TIP3    H2 3349   1.822   2.458   5.061 -3.1098  1.4389 -0.4760
 1129TIP3   OH2 3350   6.761   0.282   4.983 -0.1488 -0.0306 -0.8253
 1129TIP3    H1 3351   6.805   0.325   5.056 -0.2140  2.7658 -2.2976
 1129TIP3    H2 3352   6.672   0.317   4.984 -0.0979  0.2077 -2.3299
 1130TIP3   OH2 3353   4.160   1.332   1.004  0.0295  0.1736  0.1032
 1130TIP3    H1 3354   4.086   1.387   1.028  0.1746  0.9950 -1.2317
 1130TIP3    H2 3355   4.236   1.375   1.045  0.1146  0.8940 -0.7680
 1131TIP3   OH2 3356   3.514   3.751   2.801  0.0810  0.3986 -0.3894
 1131TIP3    H1 3357   3.446   3.684   2.801 -0.7978  1.2593  0.2111
 1131TIP3    H2 3358   3.526   3.774   2.893  0.1667  1.2507 -0.6003
 1132TIP3   OH2 3359   6.163   4.273   1.314  0.6085 -0.1409  0.0084
 1132TIP3    H1 3360   6.193   4.273   1.405 -0.6814  0.4795  0.4448
 1132TIP3    H2 3361   6.208   4.348   1.274 -0.6454  1.0546  0.7746
 1133TIP3   OH2 3362   3.495   3.178   4.514 -0.1483 -0.0160  0.0104
 1133TIP3    H1 3363   3.455   3.236   4.579  0.6577  1.0005 -0.3831
 1133TIP3    H2 3364   3.589   3.189   4.526  0.0280 -1.2443 -0.0913
 1134TIP3   OH2 3365   1.682   1.513   5.554  0.1156  0.9758 -0.3593
 1134TIP3    H1 3366   1.725   1.582   5.605 -0.3758 -0.0955  1.6041
 1134TIP3    H2 3367   1.738   1.502   5.477  1.4823  1.9457  0.4483
 1135TIP3   OH2 3368   0.764   4.079   2.981  0.5557 -0.3314 -0.3706
 1135TIP3    H1 3369   0.785   4.001   2.929  1.2597 -0.2546 -0.2067
 1135TIP3    H2 3370   0.820   4.072   3.058 -1.9544 -1.5445  1.4687
 1136TIP3   OH2 3371   2.356   3.435   4.277 -0.5809  0.4229  0.3865
 1136TIP3    H1 3372   2.347   3.394   4.363 -1.0228  1.2672  0.7600
 1136TIP3    H2 3373   2.266   3.445   4.246 -0.4439  0.4743 -0.0027
 1137TIP3   OH2 3374   1.389   1.786   1.322  0.1774 -0.4386 -0.7390
 1137TIP3    H1 3375   1.346   1.776   1.407  2.0853  1.8793  0.6338
 1137TIP3    H2 3376   1.355   1.714   1.269 -2.2563 -1.0654  1.4688
 1138TIP3   OH2 3377   5.072   2.555   5.602  0.3722 -0.1715  0.4331
 1138TIP3    H1 3378   5.060   2.598   5.518  3.2307  0.2681  0.1555
 1138TIP3    H2 3379   5.000   2.588   5.656 -1.2343 -0.0788 -1.6345
 1139TIP3   OH2 3380   3.419   3.350   0.747 -0.0153 -0.3467 -0.4358
 1139TIP3    H1 3381   3.453   3.280   0.802 -1.2927 -0.3159  0.4281
 1139TIP3    H2 3382   3.494   3.377   0.694  0.9849 -1.0670  0.5622
 1140TIP3   OH2 3383   0.157   0.808   4.090  0.5557 -0.8640 -0.5709
 1140TIP3    H1 3384   0.121   0.807   4.001  1.2603  0.7724 -0.9249
 1140TIP3    H2 3385   0.229   0.745   4.087 -0.6355 -2.2719 -0.5721
 1141TIP3   OH2 3386   0.918   3.111   4.155 -0.0040 -0.0234  0.6899
 1141TIP3    H1 3387   0.893   3.173   4.224 -0.8793 -0.7738  1.0692
 1141TIP3    H2 3388   0.960   3.039   4.201  2.1249  0.7904  0.1381
 1142TIP3   OH2 3389   0.499   3.942   0.103 -0.2628  0.7169  0.1146
 1142TIP3    H1 3390   0.559   3.879   0.063 -1.2904 -0.7460  0.7744
 1142TIP3    H2 3391   0.422   3.941   0.046 -0.0929  1.7652 -0.1400
 1143TIP3   OH2 3392   1.653   3.236   4.050 -0.1697 -0.0099 -0.1470
 1143TIP3    H1 3393   1.628   3.164   4.108 -1.3163 -0.2974 -0.9534
 1143TIP3    H2 3394   1.740   3.212   4.018  0.5576  0.2339  1.5436
 1144TIP3   OH2 3395   0.254   5.913   1.126  0.0347 -0.5203  0.0764
 1144TIP3    H1 3396   0.340   5.912   1.169  0.1974 -0.9082 -0.2460
 1144TIP3    H2 3397   0.229   5.821   1.120 -1.4102 -0.3174  2.1199
 1145TIP3   OH2 3398   4.589   4.304   3.657 -0.1556 -0.2527  0.6521
 1145TIP3    H1 3399   4.641   4.229   3.683 -1.6701 -1.1833  1.1379
 1145TIP3    H2 3400   4.648   4.379   3.665  2.1253 -1.5690 -2.0817
 1146TIP3   OH2 3401   0.991   4.364   5.809 -0.4303  0.0585  0.1536
 1146TIP3    H1 3402   1.056   4.420   5.851  2.5176 -2.3141 -0.9436
 1146TIP3    H2 3403   1.006   4.374   5.715 -1.0354 -1.2306 -0.1044
 1147TIP3   OH2 3404   0.687   0.128   2.055 -0.3418 -0.1956  0.5150
 1147TIP3    H1 3405   0.730   0.102   1.974  1.0154 -0.1155  1.1798
 1147TIP3    H2 3406   0.735   0.206   2.084  0.5974 -1.3960  2.4513
 1148TIP3   OH2 3407   2.162   4.712   2.803 -0.1718  0.0303 -0.5375
 1148TIP3    H1 3408   2.100   4.664   2.747 -1.4200  0.0462  0.7621
 1148TIP3    H2 3409   2.208   4.643   2.852 -2.8096 -0.0117  2.2232
 1149TIP3   OH2 3410   4.277   0.273   4.130  0.4757 -0.7389  0.0941
 1149TIP3    H1 3411   4.258   0.363   4.158  1.4193 -0.6225  0.4066
 1149TIP3    H2 3412   4.307   0.229   4.210 -0.0041 -1.3459 -0.0510
 1150TIP3   OH2 3413   3.914   0.588   1.298 -0.5465  0.2205 -0.3977
 1150TIP3    H1 3414   3.886   0.519   1.359  0.8558  1.7866  2.2344
 1150TIP3    H2 3415   3.844   0.653   1.303 -0.0401  0.7343  0.2831
 1151TIP3   OH2 3416   4.346   2.263   5.335 -0.1644  0.3912  0.3418
 1151TIP3    H1 3417   4.353   2.253   5.240  1.4209  1.0066  0.3719
 1151TIP3    H2 3418   4.252   2.261   5.353 -0.5230  1.1177 -1.3324
 1152TIP3   OH2 3419   3.285   4.900   2.816  0.0354 -0.1576 -0.3201
 1152TIP3    H1 3420   3.196   4.932   2.829  1.1254  2.7492  0.8419
 1152TIP3    H2 3421   3.306   4.921   2.725  0.1540  0.9707 -0.0451
 1153TIP3   OH2 3422   3.738   0.182   1.862 -0.0238  0.3912 -0.0804
 1153TIP3    H1 3423   3.811   0.197   1.923 -0.4290  2.0919  0.0450
 1153TIP3    H2 3424   3.781   0.165   1.778  0.5258  0.0381  0.2628
 1154TIP3   OH2 3425   5.188   4.481   3.936 -0.1813  0.3121  0.1409
 1154TIP3    H1 3426   5.222   4.392   3.948  1.1758  0.9597  1.4246
 1154TIP3    H2 3427   5.220   4.507   3.849  2.6947  0.8635  1.2676
 1155TIP3   OH2 3428   5.718   3.098   5.613 -0.3470 -0.0950 -0.3566
 1155TIP3    H1 3429   5.717   3.028   5.548 -1.2939 -0.2908 -0.1416
 1155TIP3    H2 3430   5.630   3.099   5.649 -0.3933  1.2785 -0.4361
 1156TIP3   OH2 3431   3.151   5.770   4.896  0.1257 -0.7673 -0.4036
 1156TIP3    H1 3432   3.109   5.841   4.848  0.9364 -0.0577 -0.1013
 1156TIP3    H2 3433   3.081   5.707   4.914 -0.3853 -0.5629 -1.6159
 1157TIP3   OH2 3434   5.844   5.072   4.772 -0.3162  0.2737 -0.5534
 1157TIP3    H1 3435   5.811   5.143   4.717  1.0902  1.5923  0.2237
 1157TIP3    H2 3436   5.928   5.049   4.733 -0.0618  0.0985  0.0859
 1158TIP3   OH2 3437   6.536   0.426   5.023 -0.6439  0.4252 -0.1036
 1158TIP3    H1 3438   6.459   0.483   5.025 -1.0009 -0.0389 -0.4137
 1158TIP3    H2 3439   6.534   0.380   5.107 -0.0366  1.2725  0.3911
 1159TIP3   OH2 3440   1.261   5.048   0.982  0.1324 -0.2846  0.5656
 1159TIP3    H1 3441   1.173   5.070   0.953  0.8434  0.0315 -1.5125
 1159TIP3    H2 3442   1.251   4.962   1.024 -1.4538  0.6567  2.2765
 1160TIP3   OH2 3443   0.831   1.227   5.532 -0.3891  0.0850  0.0098
 1160TIP3    H1 3444   0.825   1.249   5.439 -0.5173  0.1370  0.0293
 1160TIP3    H2 3445   0.837   1.312   5.576  0.9522  0.0298 -0.0310
 1161TIP3   OH2 3446   6.622   5.422   3.996 -0.1583  0.0663  0.3367
 1161TIP3    H1 3447   6.534   5.430   4.032 -1.1740 -1.4068 -1.6195
 1161TIP3    H2 3448   6.620   5.472   3.914  0.7949 -0.0617  0.2188
 1162TIP3   OH2 3449   3.312   1.758   5.198 -0.6927 -0.0989 -0.2039
 1162TIP3    H1 3450   3.338   1.776   5.289  2.0725 -0.7029 -0.7615
 1162TIP3    H2 3451   3.299   1.844   5.159 -0.5835  0.2178  0.4386
 1163TIP3   OH2 3452   2.612   4.023   1.740 -0.0222 -0.2215  0.5976
 1163TIP3    H1 3453   2.687   3.980   1.699  0.8211 -0.7011  2.5279
 1163TIP3    H2 3454   2.628   4.117   1.728 -0.1937 -0.3497 -0.7809
 1164TIP3   OH2 3455   5.533   1.359   2.467  0.1977  0.1342 -0.1791
 1164TIP3    H1 3456   5.499   1.447   2.485  0.0242  0.3856 -1.6410
 1164TIP3    H2 3457   5.624   1.361   2.498  0.7947  1.4502 -1.8675
 1165TIP3   OH2 3458   4.308   0.802   1.505 -0.2035  0.1869 -0.1564
 1165TIP3    H1 3459   4.340   0.749   1.432  1.1767  0.1689  0.4398
 1165TIP3    H2 3460   4.260   0.874   1.463 -0.3557 -0.4066 -1.0282
 1166TIP3   OH2 3461   4.763   4.078   4.426  0.7894 -0.0039 -0.2201
 1166TIP3    H1 3462   4.744   4.164   4.390  0.6267 -1.5319 -4.2421
 1166TIP3    H2 3463   4.681   4.050   4.467  1.0106  1.8335  1.6787
 1167TIP3   OH2 3464   2.166   1.200   3.875 -0.2047  0.8227  0.1710
 1167TIP3    H1 3465   2.114   1.221   3.953 -1.9086  1.0208 -0.9526
 1167TIP3    H2 3466   2.134   1.114   3.848  2.2161 -0.4498  1.1173
 1168TIP3   OH2 3467   2.088   2.712   2.497  0.6311  0.8789 -0.6908
 1168TIP3    H1 3468   2.096   2.623   2.462  0.9589  0.9741 -0.8534
 1168TIP3    H2 3469   2.014   2.750   2.450 -0.3647  0.2449  0.3110
 1169TIP3   OH2 3470   3.682   5.112   2.863  0.6301 -0.1462  0.1439
 1169TIP3    H1 3471   3.774   5.121   2.840  0.5550 -0.4036 -0.2809
 1169TIP3    H2 3472   3.666   5.017   2.862 -0.3323 -0.0491 -2.6857
 1170TIP3   OH2 3473   2.376   1.483   0.196  0.1432  0.2104 -0.2056
 1170TIP3    H1 3474   2.414   1.470   0.282 -0.2623 -0.8254 -0.1730
 1170TIP3    H2 3475   2.291   1.439   0.200 -0.4587  1.2788 -0.7191
 1171TIP3   OH2 3476   4.428   5.349   1.470 -0.3102 -0.7220 -0.1179
 1171TIP3    H1 3477   4.415   5.418   1.404 -1.4508  0.1357  0.9536
 1171TIP3    H2 3478   4.352   5.291   1.459  0.0451 -1.1688 -0.2444
 1172TIP3   OH2 3479   0.058   0.413   3.603  0.0303 -0.1974  0.8972
 1172TIP3    H1 3480   0.130   0.465   3.638 -0.1154 -0.0820  1.0263
 1172TIP3    H2 3481   0.064   0.330   3.651 -1.5680  0.7601  2.9285
 1173TIP3   OH2 3482   0.855   5.498   0.417  0.4741 -0.1474  0.3644
 1173TIP3    H1 3483   0.932   5.530   0.369 -0.2545 -1.2282 -1.6466
 1173TIP3    H2 3484   0.847   5.407   0.389 -0.7077 -0.4698  1.6809
 1174TIP3   OH2 3485   6.002   3.898   4.364  0.1433  0.2230  0.2853
 1174TIP3    H1 3486   5.947   3.843   4.308  2.7694 -1.9724 -0.4172
 1174TIP3    H2 3487   5.997   3.857   4.450 -0.8166  1.2186  0.7199
 1175TIP3   OH2 3488   6.271   1.237   0.790  0.2602  0.3414 -0.3176
 1175TIP3    H1 3489   6.244   1.164   0.734 -0.3981 -0.0764  0.5103
 1175TIP3    H2 3490   6.362   1.252   0.768  0.3184 -0.5331 -0.7293
 1176TIP3   OH2 3491   4.139   6.772   1.329  0.2215  0.5291 -0.4104
 1176TIP3    H1 3492   4.106   6.746   1.243  0.7064  0.7849 -0.6727
 1176TIP3    H2 3493   4.176   6.692   1.365 -0.8723  0.1757 -0.0143
 1177TIP3   OH2 3494   4.090   0.999   0.363  0.4833 -0.0420  0.2002
 1177TIP3    H1 3495   4.131   0.935   0.421 -0.0801 -0.8692 -0.2993
 1177TIP3    H2 3496   4.000   0.967   0.351 -0.1967  1.4793  0.8972
 1178TIP3   OH2 3497   1.528   5.949   3.519  0.1618  0.1027 -0.1932
 1178TIP3    H1 3498   1.574   5.887   3.462 -0.7552 -0.6338 -0.1584
 1178TIP3    H2 3499   1.458   5.898   3.558 -0.2091  1.0088  0.3618
 1179TIP3   OH2 3500   3.578   0.387   2.669 -0.5419  0.3232 -0.5774
 1179TIP3    H1 3501   3.578   0.311   2.727 -1.7925  0.4196 -0.4332
 1179TIP3    H2 3502   3.631   0.360   2.594  1.6179  0.3883  0.8241
 1180TIP3   OH2 3503   6.565   4.070   4.824  0.1672  0.3128  0.1928
 1180TIP3    H1 3504   6.492   4.023   4.863 -0.1009  0.7117  0.1736
 1180TIP3    H2 3505   6.568   4.039   4.733  1.2678 -1.1889  0.7068
 1181TIP3   OH2 3506   1.614   3.179   0.632 -0.3119  0.0776 -0.8951
 1181TIP3    H1 3507   1.654   3.186   0.719 -0.0300 -0.0092 -1.0175
 1181TIP3    H2 3508   1.677   3.219   0.573 -1.3581  1.9484 -0.8286
 1182TIP3   OH2 3509   1.224   6.407   1.864  0.1295  0.2181 -0.0316
 1182TIP3    H1 3510   1.133   6.424   1.838  0.1104  0.2299  0.0414
 1182TIP3    H2 3511   1.260   6.353   1.794 -0.4397 -1.2343  0.7471
 1183TIP3   OH2 3512   0.095   5.887   1.360  0.0680 -0.2605  0.0938
 1183TIP3    H1 3513   0.037   5.962   1.346 -0.8788 -0.9997 -0.0520
 1183TIP3    H2 3514   0.169   5.903   1.302 -0.3214  0.3629 -0.2443
 1184TIP3   OH2 3515   1.430   5.553   0.120 -0.3584 -0.0631  0.5434
 1184TIP3    H1 3516   1.432   5.596   0.206 -2.4382  0.5008  0.3696
 1184TIP3    H2 3517   1.341   5.519   0.113 -0.8450  1.4944 -2.1388
 1185TIP3   OH2 3518   5.322   4.168   4.884  0.3247  0.0081 -0.5217
 1185TIP3    H1 3519   5.229   4.180   4.902  0.8395  0.8767  1.9709
 1185TIP3    H2 3520   5.331   4.188   4.790 -1.7538  1.5327 -0.4759
 1186TIP3   OH2 3521   1.211   3.941   5.230  0.2057 -0.1136  0.1571
 1186TIP3    H1 3522   1.253   3.947   5.316 -0.0854 -0.2376  0.3105
 1186TIP3    H2 3523   1.246   4.015   5.180  0.2775  0.0329  0.4249
 1187TIP3   OH2 3524   0.663   0.044   2.478  0.1544  0.1932  0.1162
 1187TIP3    H1 3525   0.684   0.133   2.452  0.6593  0.3578  1.0258
 1187TIP3    H2 3526   0.666   0.046   2.574  0.9100 -0.9688  0.1436
 1188TIP3   OH2 3527   5.523   0.431   0.951  0.5281 -0.7508 -0.4754
 1188TIP3    H1 3528   5.543   0.520   0.980  1.1440 -1.1297  0.3249
 1188TIP3    H2 3529   5.600   0.405   0.900 -0.7261  0.0606 -2.8834
 1189TIP3   OH2 3530   3.995   4.135   3.281  0.1304 -0.1836 -0.3534
 1189TIP3    H1 3531   3.984   4.040   3.277 -1.1406 -0.0417 -0.5405
 1189TIP3    H2 3532   4.088   4.149   3.261  1.0220 -1.5510  2.3043
 1190TIP3   OH2 3533   5.208   0.473   4.183  0.1058 -0.0429  0.1575
 1190TIP3    H1 3534   5.141   0.520   4.232 -0.2027 -0.2693 -0.0438
 1190TIP3    H2 3535   5.289   0.486   4.234 -0.2218 -0.3265  0.7566
 1191TIP3   OH2 3536   5.404   6.627   3.802  0.0299  0.5149  0.4244
 1191TIP3    H1 3537   5.374   6.541   3.771 -0.6711  0.9743 -0.1979
 1191TIP3    H2 3538   5.422   6.676   3.722 -0.0484  1.1150  0.7711
 1192TIP3   OH2 3539   7.219   3.359   3.823  0.5239  0.1126  0.7200
 1192TIP3    H1 3540   7.228   3.337   3.731  0.8918 -0.8701  0.9844
 1192TIP3    H2 3541   7.171   3.442   3.823  1.2094  0.5283 -0.3801
 1193TIP3   OH2 3542   1.547   4.849   3.667  0.1264 -0.6447  0.6441
 1193TIP3    H1 3543   1.555   4.754   3.664 -0.7022 -0.7210  0.6040
 1193TIP3    H2 3544   1.498   4.867   3.747 -0.7863 -0.3457  0.0359
 1194TIP3   OH2 3545   4.797   5.350   3.105  0.1410 -0.6293  0.1840
 1194TIP3    H1 3546   4.838   5.418   3.051 -0.2830  0.5575  1.3211
 1194TIP3    H2 3547   4.813   5.269   3.057 -0.2524  0.3782 -1.7625
 1195TIP3   OH2 3548   4.875   5.598   1.918 -0.1870 -0.6972 -0.2675
 1195TIP3    H1 3549   4.950   5.545   1.946 -1.8985 -3.5063 -0.6043
 1195TIP3    H2 3550   4.858   5.570   1.828 -1.0175  0.6669 -0.5688
 1196TIP3   OH2 3551   5.360   3.727   2.849 -0.0795  0.2223 -0.2071
 1196TIP3    H1 3552   5.390   3.783   2.778  0.5352  0.4789  0.2454
 1196TIP3    H2 3553   5.265   3.732   2.846 -0.0478  0.4929 -0.7978
 1197TIP3   OH2 3554   1.270   4.499   4.265  0.3636 -0.4497 -0.3653
 1197TIP3    H1 3555   1.229   4.532   4.344  1.8385 -0.4509  0.4356
 1197TIP3    H2 3556   1.211   4.429   4.234 -0.6783  0.1581  0.2034
 1198TIP3   OH2 3557   0.891   5.456   1.660  0.3229 -0.4109 -0.2681
 1198TIP3    H1 3558   0.931   5.455   1.573 -0.3012  0.7297 -0.5864
 1198TIP3    H2 3559   0.797   5.457   1.642  0.1781  1.9943  0.3508
 1199TIP3   OH2 3560   4.364   3.603   0.093 -0.5473 -0.2178  0.3508
 1199TIP3    H1 3561   4.384   3.510   0.088 -1.9765 -0.5344 -3.7303
 1199TIP3    H2 3562   4.292   3.609   0.156 -0.9520 -1.9911  0.1061
 1200TIP3   OH2 3563   3.654   0.377   0.662 -0.3779 -0.6265  0.7796
 1200TIP3    H1 3564   3.700   0.424   0.592 -0.9607 -0.6533  0.3695
 1200TIP3    H2 3565   3.669   0.285   0.642 -1.2760 -0.6556  0.1705
 1201TIP3   OH2 3566   4.712   6.497   0.466 -0.0891 -0.1035  0.0112
 1201TIP3    H1 3567   4.696   6.549   0.387  3.7128  4.3891  1.7339
 1201TIP3    H2 3568   4.796   6.454   0.449 -0.4178 -1.1267  0.8263
 1202TIP3   OH2 3569   1.272   0.112   0.377  0.1591  0.0081  0.3116
 1202TIP3    H1 3570   1.281   0.161   0.295 -1.0180 -1.4978 -0.7476
 1202TIP3    H2 3571   1.332   0.038   0.368 -1.2385 -1.1107  0.0746
 1203TIP3   OH2 3572   1.270   1.302   2.514 -0.8179  0.0606 -0.4612
 1203TIP3    H1 3573   1.218   1.221   2.513 -0.4083 -0.2005 -0.8801
 1203TIP3    H2 3574   1.253   1.341   2.428  1.2406 -1.0429 -1.4514
 1204TIP3   OH2 3575   2.422   4.272   2.556 -0.1399  0.3190 -0.1560
 1204TIP3    H1 3576   2.495   4.288   2.496 -1.0321 -1.3798 -1.7696
 1204TIP3    H2 3577   2.380   4.357   2.566  0.8290  0.8968 -0.8333
 1205TIP3   OH2 3578   5.543   6.466   2.650 -0.2976  0.4315  0.6342
 1205TIP3    H1 3579   5.603   6.394   2.630  0.3357  1.0643  0.2131
 1205TIP3    H2 3580   5.460   6.423   2.673  0.3268 -0.4571  1.2884
 1206TIP3   OH2 3581   3.950   4.359   1.490 -0.1423  0.2662  0.2838
 1206TIP3    H1 3582   3.875   4.396   1.537  0.5231  0.5945  1.1189
 1206TIP3    H2 3583   3.915   4.282   1.446 -0.9821  0.4449  0.6208
 1207TIP3   OH2 3584   1.566   4.040   3.751 -0.0136 -0.2872  0.8989
 1207TIP3    H1 3585   1.557   4.037   3.655  0.4176  0.0760  0.8404
 1207TIP3    H2 3586   1.524   3.960   3.782  0.4945 -0.7727  0.3533
 1208TIP3   OH2 3587   0.970   0.601   4.043  0.0900 -0.8006  0.3746
 1208TIP3    H1 3588   0.949   0.690   4.072  1.0854 -0.3033 -0.3769
 1208TIP3    H2 3589   0.922   0.592   3.961  0.7820 -0.5716 -0.0665
 1209TIP3   OH2 3590   1.503   1.437   4.916  0.3374  0.4447 -0.6498
 1209TIP3    H1 3591   1.453   1.394   4.847  0.1066 -1.0467  0.3915
 1209TIP3    H2 3592   1.530   1.520   4.878 -1.8706  0.7577 -1.6615
 1210TIP3   OH2 3593   1.312   6.638   4.688  0.1273 -0.1398  0.0320
 1210TIP3    H1 3594   1.351   6.715   4.647 -2.5261  0.4001 -1.6946
 1210TIP3    H2 3595   1.323   6.569   4.623  2.4906 -1.3419  1.5670
 1211TIP3   OH2 3596   6.748   5.963   4.266  0.5951  0.0789 -0.4348
 1211TIP3    H1 3597   6.729   5.966   4.360 -0.3412 -0.4049 -0.5973
 1211TIP3    H2 3598   6.733   5.872   4.241  2.0912 -0.0938 -0.8195
 1212TIP3   OH2 3599   6.283   2.604   1.184  0.8038  0.3599  0.2498
 1212TIP3    H1 3600   6.373   2.630   1.163  0.2611  2.0410 -0.1499
 1212TIP3    H2 3601   6.281   2.598   1.279  1.0566  1.5604  0.3530
 1213TIP3   OH2 3602   6.171   2.168   0.198 -0.0835 -0.2986 -0.0171
 1213TIP3    H1 3603   6.196   2.215   0.277 -0.2063  1.1521 -0.8095
 1213TIP3    H2 3604   6.107   2.225   0.155  0.6739 -0.6021 -1.6341
 1214TIP3   OH2 3605   2.187   6.045   0.199  0.0734  0.4184  0.2774
 1214TIP3    H1 3606   2.135   6.049   0.279 -0.5347 -1.2976  0.0214
 1214TIP3    H2 3607   2.268   6.000   0.225 -0.4156 -0.7649 -0.1810
 1215TIP3   OH2 3608   6.126   3.395   2.761  0.1202  0.2195 -0.7591
 1215TIP3    H1 3609   6.132   3.334   2.687 -1.3029 -0.0457 -0.6842
 1215TIP3    H2 3610   6.210   3.441   2.761  1.2386 -1.7022 -0.8550
 1216TIP3   OH2 3611   5.105   2.956   3.846  0.1547  0.1200  0.7499
 1216TIP3    H1 3612   5.103   3.031   3.906 -2.2774  1.3475 -0.6890
 1216TIP3    H2 3613   5.184   2.968   3.794  0.4027  1.0468  1.3284
 1217TIP3   OH2 3614   2.623   2.110   3.201 -0.3144  0.5128 -0.4725
 1217TIP3    H1 3615   2.695   2.110   3.264 -1.3234  1.1627  0.7269
 1217TIP3    H2 3616   2.545   2.131   3.253 -1.1512  1.3113 -1.9758
 1218TIP3   OH2 3617   2.342   0.794   3.427  0.0756  0.1201  0.6169
 1218TIP3    H1 3618   2.388   0.714   3.402  0.7077  0.8350 -0.5764
 1218TIP3    H2 3619   2.372   0.860   3.365 -0.5130  1.2721  1.5099
 1219TIP3   OH2 3620   6.792   3.096   1.537  0.6659  0.2946  0.0940
 1219TIP3    H1 3621   6.725   3.158   1.566 -0.3029 -0.2503 -0.8981
 1219TIP3    H2 3622   6.750   3.047   1.466  2.1818  0.0690 -0.6973
 1220TIP3   OH2 3623   3.795   0.986   5.263  0.2844  0.0036  0.6472
 1220TIP3    H1 3624   3.856   0.968   5.191 -0.2402 -0.6882  0.3667
 1220TIP3    H2 3625   3.722   1.032   5.222 -0.2899 -0.9122  0.6196
 1221TIP3   OH2 3626   3.678   1.720   1.726 -0.2077 -0.1568 -0.0418
 1221TIP3    H1 3627   3.656   1.813   1.716  1.2249  0.2580  0.3597
 1221TIP3    H2 3628   3.678   1.705   1.820  1.2232 -0.0983 -0.0078
 1222TIP3   OH2 3629   1.352   6.658   0.166  0.0685  0.3151 -1.1334
 1222TIP3    H1 3630   1.327   6.602   0.093  0.8533  2.6369 -3.3639
 1222TIP3    H2 3631   1.435   6.698   0.139  2.1851 -1.1179  2.5184
 1223TIP3   OH2 3632   6.100   0.037   2.263 -0.7061  0.1922 -0.4033
 1223TIP3    H1 3633   6.084   0.120   2.218 -4.0921 -0.2092 -0.2383
 1223TIP3    H2 3634   6.105  -0.027   2.193 -0.9623  0.1923 -0.4228
 1224TIP3   OH2 3635   2.245   1.216   5.450 -0.3811 -0.3645 -0.5495
 1224TIP3    H1 3636   2.159   1.200   5.489 -0.6287  0.8080 -0.5585
 1224TIP3    H2 3637   2.275   1.131   5.419 -0.9303 -1.0191  0.6900
 1225TIP3   OH2 3638   5.956   1.053   3.213  0.8519  0.0858  0.4469
 1225TIP3    H1 3639   6.015   1.128   3.206  1.4698 -0.3487  0.8458
 1225TIP3    H2 3640   5.977   1.014   3.298  1.0186 -0.9265 -0.0372
 1226TIP3   OH2 3641   5.972   4.441   0.107  0.7516 -0.2254  0.2972
 1226TIP3    H1 3642   5.922   4.519   0.082  0.9680 -0.5294 -1.1821
 1226TIP3    H2 3643   6.064   4.470   0.101  0.8369 -0.6259 -0.4243
 1227TIP3   OH2 3644   2.642   0.599   2.327  0.6266 -0.0409  0.0630
 1227TIP3    H1 3645   2.720   0.552   2.356 -0.2907 -1.8678 -0.2738
 1227TIP3    H2 3646   2.645   0.594   2.231 -0.0563 -0.4238  0.0531
 1228TIP3   OH2 3647   0.893   4.478   4.011  0.6139  0.2958 -0.9069
 1228TIP3    H1 3648   0.833   4.543   3.975 -1.2218 -1.7554 -1.8105
 1228TIP3    H2 3649   0.848   4.394   3.997  2.0283 -1.0527  1.8107
 1229TIP3   OH2 3650   6.222   5.468   3.460 -0.6398  0.4413  0.1769
 1229TIP3    H1 3651   6.305   5.507   3.486 -0.3750 -0.8012  1.3124
 1229TIP3    H2 3652   6.214   5.389   3.514 -1.9312 -0.1777 -0.8374
 1230TIP3   OH2 3653   5.368   0.996   5.485  0.1450 -0.4481 -0.2518
 1230TIP3    H1 3654   5.340   0.908   5.461 -1.7650  0.4732 -1.7711
 1230TIP3    H2 3655   5.431   1.021   5.417 -0.4295 -0.1462 -0.6877
 1231TIP3   OH2 3656   0.059   6.580   2.775  0.1308 -0.3222 -0.6052
 1231TIP3    H1 3657   0.009   6.521   2.719  1.6099 -0.5528 -1.7618
 1231TIP3    H2 3658   0.064   6.662   2.725  0.2646 -0.0541 -0.1588
 1232TIP3   OH2 3659   3.889   0.209   2.092 -0.0123  0.5405 -0.0684
 1232TIP3    H1 3660   3.853   0.284   2.139 -2.3667 -0.0105 -0.8415
 1232TIP3    H2 3661   3.851   0.133   2.136  1.9858 -0.2282  0.4276
 1233TIP3   OH2 3662   7.190   1.658   0.699 -0.7415 -0.0951  0.2526
 1233TIP3    H1 3663   7.114   1.613   0.737 -1.4287 -0.1371 -1.0906
 1233TIP3    H2 3664   7.184   1.747   0.733 -2.6274  0.4894 -1.4027
 1234TIP3   OH2 3665   5.736   5.184   3.583  0.0049  0.2591  0.3100
 1234TIP3    H1 3666   5.692   5.098   3.581 -1.8533  1.0720  2.2264
 1234TIP3    H2 3667   5.745   5.208   3.491 -0.0370 -1.6907 -0.2557
 1235TIP3   OH2 3668   4.539   5.531   5.037 -0.1830  0.1791  0.6961
 1235TIP3    H1 3669   4.495   5.470   5.096  0.5280  1.1918  2.3374
 1235TIP3    H2 3670   4.585   5.591   5.095  1.0355  0.8671 -0.9243
 1236TIP3   OH2 3671   3.709   4.844   1.329 -0.0474 -0.3237 -0.2443
 1236TIP3    H1 3672   3.736   4.916   1.387  0.6394  0.6510 -1.7173
 1236TIP3    H2 3673   3.696   4.886   1.244 -1.5265 -1.6345 -0.7021
 1237TIP3   OH2 3674   5.839   2.841   1.330  0.1136 -0.0949  0.0450
 1237TIP3    H1 3675   5.842   2.760   1.278 -1.0223 -0.3379  0.3370
 1237TIP3    H2 3676   5.746   2.860   1.340  0.3571  0.9391  0.4785
 1238TIP3   OH2 3677   2.169   2.470   4.357 -0.5589 -0.1479 -0.0677
 1238TIP3    H1 3678   2.160   2.475   4.452 -1.9222  1.4131 -0.2330
 1238TIP3    H2 3679   2.179   2.377   4.338 -1.7226 -0.6193  1.4930
 1239TIP3   OH2 3680   1.109   6.726   4.180  0.0837  0.4522 -0.0611
 1239TIP3    H1 3681   1.075   6.809   4.212 -1.3116 -0.7459  1.7579
 1239TIP3    H2 3682   1.195   6.717   4.221  0.2142  0.9548 -0.2169
 1240TIP3   OH2 3683   6.893   4.025   3.317  0.2396 -0.2868  0.1096
 1240TIP3    H1 3684   6.949   3.998   3.390  0.0059 -3.3374 -0.6842
 1240TIP3    H2 3685   6.941   4.094   3.274  1.5766 -0.1861  1.6701
 1241TIP3   OH2 3686   5.598   1.334   5.254  0.5032  0.2915  0.0424
 1241TIP3    H1 3687   5.691   1.314   5.268  0.9609  1.6747 -0.7904
 1241TIP3    H2 3688   5.598   1.398   5.183 -1.1389 -0.0866 -0.3393
 1242TIP3   OH2 3689   7.222   2.699   2.055 -0.2672 -0.1403 -0.2082
 1242TIP3    H1 3690   7.133   2.731   2.064  0.1049  1.1416 -0.8055
 1242TIP3    H2 3691   7.223   2.652   1.972 -0.0180  1.2670 -1.0338
 1243TIP3   OH2 3692   4.360   5.433   1.730  0.1234 -0.2666  0.2418
 1243TIP3    H1 3693   4.399   5.424   1.642  1.9473 -0.7210  1.0413
 1243TIP3    H2 3694   4.359   5.344   1.764 -1.7187 -0.2717  0.2686
 1244TIP3   OH2 3695   4.363   3.153   3.310 -0.3704 -0.3716  0.3219
 1244TIP3    H1 3696   4.270   3.178   3.307 -0.3807  0.0304  2.4692
 1244TIP3    H2 3697   4.371   3.083   3.244 -1.8685  0.5073 -0.8642
 1245TIP3   OH2 3698   0.623   1.199   3.156  0.1059  0.3767 -0.2763
 1245TIP3    H1 3699   0.540   1.153   3.165 -0.2258  0.7201 -1.4880
 1245TIP3    H2 3700   0.600   1.286   3.123  0.9378  0.4775 -0.6363
 1246TIP3   OH2 3701   5.045   1.756   1.735 -0.2933  0.0326  0.3426
 1246TIP3    H1 3702   5.066   1.708   1.816  1.6313  1.2769  0.6453
 1246TIP3    H2 3703   5.074   1.697   1.665 -0.5949 -0.4307  0.5983
 1247TIP3   OH2 3704   3.681   5.862   0.642  0.6200  0.0747 -0.2273
 1247TIP3    H1 3705   3.765   5.854   0.686  0.8158 -2.6690 -0.9213
 1247TIP3    H2 3706   3.616   5.853   0.713  0.8297  2.0921  0.2922
 1248TIP3   OH2 3707   1.183   5.304   2.865  0.2863 -0.1929 -0.3740
 1248TIP3    H1 3708   1.197   5.337   2.776 -0.9160 -0.3358 -0.6415
 1248TIP3    H2 3709   1.271   5.287   2.899  0.8124  0.8078 -1.1694
 1249TIP3   OH2 3710   3.657   5.165   3.200  0.1691  0.1772 -0.4749
 1249TIP3    H1 3711   3.628   5.227   3.132 -0.5790  3.2141  2.3449
 1249TIP3    H2 3712   3.744   5.197   3.225 -0.0382 -0.1796  0.7250
 1250TIP3   OH2 3713   1.670   3.780   2.136  0.7124 -0.1774  0.5085
 1250TIP3    H1 3714   1.684   3.846   2.068  1.5142 -0.7548  0.0947
 1250TIP3    H2 3715   1.668   3.697   2.089  0.8307 -0.5464  1.1441
 1251TIP3   OH2 3716   4.585   6.324   4.663  0.3555  0.2351 -0.1847
 1251TIP3    H1 3717   4.581   6.229   4.657  0.5960  0.0831  1.5836
 1251TIP3    H2 3718   4.586   6.354   4.572 -2.3730 -1.3139 -0.8225
 1252TIP3   OH2 3719   1.078   2.608   3.644 -0.0182  0.4917  0.1949
 1252TIP3    H1 3720   0.988   2.611   3.677  0.2167  0.4602  0.8536
 1252TIP3    H2 3721   1.131   2.589   3.721  0.5805  0.7427 -0.1506
 1253TIP3   OH2 3722   1.693   2.555   0.173  0.2517 -0.4565  0.8586
 1253TIP3    H1 3723   1.636   2.540   0.249 -0.4148 -0.1870  0.4265
 1253TIP3    H2 3724   1.752   2.625   0.201  1.8135 -2.1547  2.0514
 1254TIP3   OH2 3725   1.958   1.777   3.204  0.2968 -0.3097  0.4128
 1254TIP3    H1 3726   1.950   1.682   3.204 -1.4019 -0.1897  0.1352
 1254TIP3    H2 3727   1.938   1.803   3.294  1.0550 -0.2153  0.5646
 1255TIP3   OH2 3728   4.597   4.355   4.286  0.2614 -0.3637  0.1454
 1255TIP3    H1 3729   4.671   4.356   4.225 -0.2850  0.4689 -0.5209
 1255TIP3    H2 3730   4.528   4.403   4.241 -0.2026  0.1459  1.3658
 1256TIP3   OH2 3731   6.641   4.076   0.230  0.5230 -0.6271 -0.0057
 1256TIP3    H1 3732   6.657   4.131   0.154 -0.5618  0.3697  0.4386
 1256TIP3    H2 3733   6.583   4.007   0.198 -0.1486 -0.0587 -0.0600
 1257TIP3   OH2 3734   4.551   0.478   0.583  0.7112 -0.0638  0.0811
 1257TIP3    H1 3735   4.542   0.389   0.617 -1.9523 -0.2052 -0.7846
 1257TIP3    H2 3736   4.622   0.472   0.519  0.8012 -1.4808  0.2779
 1258TIP3   OH2 3737   6.445   2.424   5.733  0.4805 -0.1937 -0.4516
 1258TIP3    H1 3738   6.477   2.357   5.794 -1.1610  0.7151  1.5510
 1258TIP3    H2 3739   6.515   2.488   5.728  0.9096 -0.6238 -0.0356
 1259TIP3   OH2 3740   6.131   0.028   5.068  0.2167  0.2676  0.7187
 1259TIP3    H1 3741   6.048   0.022   5.114 -0.6654  0.5747 -0.7511
 1259TIP3    H2 3742   6.189  -0.034   5.113 -0.5196  0.6918  2.3012
 1260TIP3   OH2 3743   5.350   5.335   3.337 -0.0536 -0.0919 -0.1157
 1260TIP3    H1 3744   5.257   5.349   3.355  0.1383  2.1696 -0.6846
 1260TIP3    H2 3745   5.351   5.268   3.268 -1.0799 -2.4166  1.9595
 1261TIP3   OH2 3746   7.145   3.867   1.790  0.7399  0.4822 -0.1462
 1261TIP3    H1 3747   7.058   3.906   1.791  0.3655 -0.3315 -0.2820
 1261TIP3    H2 3748   7.198   3.926   1.843  0.1106  0.9860 -0.0621
 1262TIP3   OH2 3749   4.333   1.509   1.168  0.0316  0.0121 -0.3486
 1262TIP3    H1 3750   4.338   1.437   1.231 -0.1847 -0.9630 -1.4099
 1262TIP3    H2 3751   4.350   1.587   1.220 -0.6627 -0.7067  1.0243
 1263TIP3   OH2 3752   6.155   2.830   1.970 -0.1307  0.0954 -0.4504
 1263TIP3    H1 3753   6.153   2.922   1.945 -2.3195 -0.1075 -1.2779
 1263TIP3    H2 3754   6.120   2.784   1.894  0.4850 -1.3927  0.1266
 1264TIP3   OH2 3755   2.372   1.796   0.424 -0.7045  0.0881 -0.2259
 1264TIP3    H1 3756   2.379   1.839   0.339 -0.5681 -0.0094 -0.2653
 1264TIP3    H2 3757   2.280   1.807   0.449 -0.4141  1.4628  0.3314
 1265TIP3   OH2 3758   3.909   5.842   0.782  0.2093 -0.6452  0.3102
 1265TIP3    H1 3759   3.886   5.890   0.862  0.0800  1.0933 -0.7125
 1265TIP3    H2 3760   3.985   5.890   0.747 -0.5505 -0.5298 -1.2903
 1266TIP3   OH2 3761   3.881   0.081   1.649  0.3436 -0.3336  0.2305
 1266TIP3    H1 3762   3.962   0.105   1.605 -0.8426  0.4518 -1.6090
 1266TIP3    H2 3763   3.883  -0.015   1.650  1.5736 -0.3341  0.8325
 1267TIP3   OH2 3764   6.675   6.635   4.598 -0.1049  0.3985 -0.2026
 1267TIP3    H1 3765   6.719   6.554   4.572 -2.8211 -1.2925  0.1392
 1267TIP3    H2 3766   6.609   6.649   4.530 -0.2736  1.8758  0.2306
 1268TIP3   OH2 3767   3.076   4.656   0.197 -0.3271  0.4223  0.2145
 1268TIP3    H1 3768   3.151   4.696   0.152  0.0474  0.2535  0.6806
 1268TIP3    H2 3769   3.100   4.563   0.204 -1.0042  0.1788 -0.4929
 1269TIP3   OH2 3770   0.882   4.676   0.545 -0.0157  0.5048  0.4806
 1269TIP3    H1 3771   0.908   4.692   0.636  1.7430 -1.2276  0.3555
 1269TIP3    H2 3772   0.931   4.597   0.519 -1.5448  0.1161 -1.5316
 1270TIP3   OH2 3773   1.509   2.092   4.899 -0.5080  0.3430  0.3773
 1270TIP3    H1 3774   1.414   2.101   4.898 -0.3931  2.3149  1.2975
 1270TIP3    H2 3775   1.541   2.162   4.842  0.4075 -0.9907 -0.8283
 1271TIP3   OH2 3776   6.859   2.150   4.895 -0.0193  0.5662  0.3220
 1271TIP3    H1 3777   6.835   2.073   4.945  0.7061  0.1743  0.0860
 1271TIP3    H2 3778   6.776   2.185   4.862 -0.2255 -1.3723 -1.4094
 1272TIP3   OH2 3779   5.504   5.837   2.129  0.0697  0.2970 -0.0228
 1272TIP3    H1 3780   5.441   5.849   2.059 -0.2971  0.1417  0.2755
 1272TIP3    H2 3781   5.489   5.911   2.188  1.9122  1.7178 -1.2267
 1273TIP3   OH2 3782   3.870   5.417   0.548  0.0742 -0.0556 -0.3882
 1273TIP3    H1 3783   3.874   5.469   0.629  0.8150 -0.8022  0.0731
 1273TIP3    H2 3784   3.835   5.477   0.483  1.2810  1.1655  0.0292
 1274TIP3   OH2 3785   1.564   3.593   1.247  0.1924  0.1937  0.0633
 1274TIP3    H1 3786   1.554   3.500   1.268 -1.1053 -0.0361 -1.4378
 1274TIP3    H2 3787   1.659   3.608   1.252  0.3247 -0.8920  1.5212
 1275TIP3   OH2 3788   0.347   5.813   3.643  0.2070  0.0760 -0.5332
 1275TIP3    H1 3789   0.287   5.846   3.576 -1.0112 -1.3195 -0.1784
 1275TIP3    H2 3790   0.333   5.719   3.644  0.6080 -0.0123  1.2770
 1276TIP3   OH2 3791   0.035   2.207   1.090  0.2412  0.3950  1.1391
 1276TIP3    H1 3792  -0.005   2.286   1.126  0.6667  0.6446  1.0760
 1276TIP3    H2 3793   0.129   2.221   1.102  0.3329  0.0261  0.8577
 1277TIP3   OH2 3794   5.318   0.856   0.071  0.1423 -0.6150 -0.3487
 1277TIP3    H1 3795   5.317   0.933   0.128 -0.7040  0.1547 -1.3502
 1277TIP3    H2 3796   5.410   0.844   0.048  0.3210 -0.0959  0.0847
 1278TIP3   OH2 3797   2.614   1.074   0.979  0.2253  0.2267 -0.0919
 1278TIP3    H1 3798   2.593   1.161   0.943 -1.4052  0.5184  1.4173
 1278TIP3    H2 3799   2.708   1.076   0.993  0.1771  1.9304  0.2559
 1279TIP3   OH2 3800   1.844   6.662   2.727  0.9651 -0.7980  0.2671
 1279TIP3    H1 3801   1.776   6.607   2.689  1.0365  0.1518 -1.2922
 1279TIP3    H2 3802   1.899   6.600   2.777 -1.2688 -1.5003  2.0088
 1280TIP3   OH2 3803   0.276   2.074   3.192 -0.0649  0.1109 -0.3266
 1280TIP3    H1 3804   0.288   2.032   3.277  0.7320  0.0678 -0.4517
 1280TIP3    H2 3805   0.354   2.049   3.141  0.4959  1.8115 -0.3600
 1281TIP3   OH2 3806   3.876   5.636   4.290  0.0332 -0.2420  0.3140
 1281TIP3    H1 3807   3.969   5.657   4.300  0.1049  0.5340 -1.5621
 1281TIP3    H2 3808   3.831   5.719   4.305 -0.1934 -0.2023 -0.5002
 1282TIP3   OH2 3809   5.597   5.385   3.695  0.2428 -0.2367  0.4236
 1282TIP3    H1 3810   5.633   5.308   3.652  0.8030  0.2851 -0.0617
 1282TIP3    H2 3811   5.650   5.397   3.774 -0.4023 -0.8467  0.9580
 1283TIP3   OH2 3812   2.601   4.194   5.055 -0.5271 -0.4485 -0.1741
 1283TIP3    H1 3813   2.542   4.133   5.099 -0.3973 -0.8988 -0.6144
 1283TIP3    H2 3814   2.678   4.199   5.112 -1.6985  1.5313  1.3262
 1284TIP3   OH2 3815   5.908   5.822   0.893 -0.3851 -0.0927  0.3551
 1284TIP3    H1 3816   5.996   5.790   0.909 -0.0556 -0.1077 -1.3738
 1284TIP3    H2 3817   5.896   5.893   0.956  2.2119  2.3329 -1.6664
 1285TIP3   OH2 3818   4.805   6.415   2.147 -0.4927  0.1283 -0.5774
 1285TIP3    H1 3819   4.749   6.354   2.098  1.0269 -1.6300 -0.2412
 1285TIP3    H2 3820   4.750   6.446   2.218 -1.9194  0.7017 -1.8613
 1286TIP3   OH2 3821   5.929   2.046   2.038 -0.2485  0.1156  0.1692
 1286TIP3    H1 3822   5.916   2.069   1.946 -0.6319  0.0459  0.2067
 1286TIP3    H2 3823   5.951   1.953   2.037  0.3053  0.2452  0.1022
 1287TIP3   OH2 3824   2.171   1.412   1.230  0.2173 -0.4641  0.0512
 1287TIP3    H1 3825   2.078   1.404   1.252 -0.4601  1.3879 -1.8376
 1287TIP3    H2 3826   2.175   1.396   1.136  1.9925 -1.4482  0.2504
 1288TIP3   OH2 3827   2.105   1.619   1.688  0.1082 -0.1950 -0.6896
 1288TIP3    H1 3828   2.060   1.539   1.716 -0.7760 -0.2865 -2.2547
 1288TIP3    H2 3829   2.073   1.635   1.599 -1.4959  3.1458  0.3274
 1289TIP3   OH2 3830   4.148   2.549   0.691 -0.0510  0.6248  0.1684
 1289TIP3    H1 3831   4.208   2.623   0.705 -1.2087  2.0906 -2.0121
 1289TIP3    H2 3832   4.205   2.477   0.663  0.8617  1.6124 -0.6150
 1290TIP3   OH2 3833   2.379   6.227   3.308 -0.0903 -0.4240 -0.0616
 1290TIP3    H1 3834   2.339   6.156   3.258 -1.9604  0.3125  0.3134
 1290TIP3    H2 3835   2.323   6.302   3.292  0.1920  0.2523  1.8365
 1291TIP3   OH2 3836   5.336   3.980   0.030 -0.2111 -0.0836  0.8743
 1291TIP3    H1 3837   5.424   3.944   0.042 -0.2255 -0.1477  0.7967
 1291TIP3    H2 3838   5.342   4.029  -0.052 -0.0700  0.4754  1.2118
 1292TIP3   OH2 3839   4.962   6.411   5.836  0.3229  0.0224 -0.4031
 1292TIP3    H1 3840   4.925   6.481   5.782 -0.9666 -0.7909 -0.6408
 1292TIP3    H2 3841   4.928   6.331   5.796  1.8368 -0.7436 -0.1870
 1293TIP3   OH2 3842   1.800   5.096   2.031  0.1990  0.4888  0.1536
 1293TIP3    H1 3843   1.857   5.094   1.954  0.5890 -2.2553  0.4470
 1293TIP3    H2 3844   1.725   5.149   2.003  0.7094  0.2337 -1.8278
 1294TIP3   OH2 3845   1.866   6.409   3.795  0.8179  0.2643 -0.3041
 1294TIP3    H1 3846   1.959   6.390   3.785  0.6587 -1.1156  0.6433
 1294TIP3    H2 3847   1.822   6.326   3.779 -0.3206  1.0319 -1.3485
 1295TIP3   OH2 3848   5.368   1.070   1.268  0.4091 -0.6987  0.3596
 1295TIP3    H1 3849   5.367   1.088   1.174 -0.2732 -0.8105  0.3388
 1295TIP3    H2 3850   5.432   0.999   1.278  0.5166 -0.6558 -0.0131
 1296TIP3   OH2 3851   0.686   6.620   4.516  0.3344  0.1911  0.4924
 1296TIP3    H1 3852   0.678   6.594   4.424 -0.3526  0.4641  0.4694
 1296TIP3    H2 3853   0.627   6.560   4.563  0.4535  0.2495  0.7156
 1297TIP3   OH2 3854   2.132   0.375   3.049 -0.3605 -0.1019  0.1580
 1297TIP3    H1 3855   2.058   0.385   3.109 -0.9378  1.9007 -0.8055
 1297TIP3    H2 3856   2.209   0.385   3.105 -0.8145 -1.2303  1.0148
 1298TIP3   OH2 3857   1.340   6.437   4.224  0.2311  1.0476  0.5819
 1298TIP3    H1 3858   1.266   6.419   4.166  1.1534 -1.4168  0.0627
 1298TIP3    H2 3859   1.397   6.495   4.173  0.2387  0.2567 -0.3363
 1299TIP3   OH2 3860   5.660   5.722   3.534 -0.0383 -0.7695  0.0658
 1299TIP3    H1 3861   5.596   5.665   3.492  0.1242 -0.0823 -1.1539
 1299TIP3    H2 3862   5.705   5.665   3.597 -2.0923 -1.1692  1.2623
 1300TIP3   OH2 3863   1.602   0.736   5.731  0.5842 -0.1718 -0.0183
 1300TIP3    H1 3864   1.531   0.794   5.703  0.2219 -0.5878  0.0299
 1300TIP3    H2 3865   1.652   0.788   5.794 -1.5509 -0.9055  2.4685
 1301TIP3   OH2 3866   2.936   0.670   5.469  0.7363  0.4228 -0.0830
 1301TIP3    H1 3867   2.958   0.644   5.558  0.4001 -1.6238 -0.5614
 1301TIP3    H2 3868   2.843   0.695   5.474 -0.1431 -2.4635 -0.3425
 1302TIP3   OH2 3869   2.279   3.205   4.762  0.3968 -0.1952  0.1929
 1302TIP3    H1 3870   2.183   3.195   4.758  0.5014 -0.9683 -0.8213
 1302TIP3    H2 3871   2.297   3.279   4.704  0.4808 -0.6339 -0.3503
 1303TIP3   OH2 3872   4.293   5.152   0.135  0.1485 -0.0323  0.6508
 1303TIP3    H1 3873   4.305   5.057   0.136  0.8392 -0.0309 -1.5074
 1303TIP3    H2 3874   4.382   5.187   0.134 -0.0754  0.5487 -0.3677
 1304TIP3   OH2 3875   0.517   2.732   5.252  0.1150  0.1054 -0.2683
 1304TIP3    H1 3876   0.585   2.667   5.273  1.1623  0.6843 -1.6617
 1304TIP3    H2 3877   0.549   2.814   5.289  0.4520  0.4800 -1.3268
 1305TIP3   OH2 3878  -0.027   2.056   2.795 -0.1171 -0.2383  1.2466
 1305TIP3    H1 3879  -0.029   1.967   2.830  0.6652  0.0546  2.0887
 1305TIP3    H2 3880   0.063   2.068   2.764 -0.9186 -0.6890 -1.5130
 1306TIP3   OH2 3881   1.135   5.454   3.710 -0.1434 -0.3207  0.0994
 1306TIP3    H1 3882   1.123   5.542   3.675  1.6879 -0.5935 -1.3561
 1306TIP3    H2 3883   1.159   5.400   3.635 -1.1206 -2.0796  0.9640
 1307TIP3   OH2 3884   0.788   3.095   1.093 -0.2163 -0.9340 -0.0664
 1307TIP3    H1 3885   0.868   3.055   1.061 -0.8473 -1.7429 -0.6813
 1307TIP3    H2 3886   0.817   3.169   1.147  0.9040 -0.4832 -1.2547
 1308TIP3   OH2 3887   5.684   1.746   1.826 -0.2979 -0.1753 -0.0683
 1308TIP3    H1 3888   5.721   1.769   1.741 -3.0722  1.0497 -1.0523
 1308TIP3    H2 3889   5.674   1.651   1.823  1.2790 -0.3511 -0.3573
 1309TIP3   OH2 3890   6.221   1.043   0.578 -0.0725 -0.3518  0.3207
 1309TIP3    H1 3891   6.227   0.988   0.501  0.7916 -0.6446  0.5934
 1309TIP3    H2 3892   6.160   0.997   0.636 -0.8287 -0.0653 -0.2234
 1310TIP3   OH2 3893   3.913   2.530   3.361  0.1059 -0.3878 -0.2111
 1310TIP3    H1 3894   3.973   2.463   3.327  1.4514  0.3218  0.6948
 1310TIP3    H2 3895   3.949   2.554   3.446  0.2531  2.2116 -0.9168
 1311TIP3   OH2 3896   1.201   5.737   0.543 -0.2315 -0.4555  0.2827
 1311TIP3    H1 3897   1.258   5.804   0.504  0.6138  0.2451  2.5303
 1311TIP3    H2 3898   1.113   5.759   0.512  0.0933  1.4227  0.5620
 1312TIP3   OH2 3899   4.255   2.761   1.849  0.4360  0.2657  0.1378
 1312TIP3    H1 3900   4.322   2.825   1.828  0.6103 -0.0880 -0.4105
 1312TIP3    H2 3901   4.172   2.803   1.824  0.4424  0.7252  0.8741
 1313TIP3   OH2 3902   3.217   5.493   4.665 -0.6529 -0.4363 -0.6427
 1313TIP3    H1 3903   3.210   5.476   4.758 -1.4724 -1.1731 -0.8292
 1313TIP3    H2 3904   3.306   5.468   4.642 -0.7712 -1.2259 -0.2492
 1314TIP3   OH2 3905   3.826   0.698   1.608  0.0772 -0.4589 -0.4291
 1314TIP3    H1 3906   3.778   0.617   1.586 -0.1902 -0.4580  0.1369
 1314TIP3    H2 3907   3.917   0.677   1.588  0.4801 -1.9478  2.4325
 1315TIP3   OH2 3908   7.163   3.714   1.404  0.0034 -0.2335 -0.5662
 1315TIP3    H1 3909   7.224   3.712   1.330  0.6040 -1.8114 -0.0685
 1315TIP3    H2 3910   7.123   3.627   1.405  1.1746 -0.8541  1.8746
 1316TIP3   OH2 3911   6.474   0.568   1.326 -0.0423  0.5083  0.0252
 1316TIP3    H1 3912   6.533   0.638   1.296 -0.2918  1.5342  1.8061
 1316TIP3    H2 3913   6.517   0.487   1.298  1.1418  1.3023 -0.5626
 1317TIP3   OH2 3914   1.290   6.659   3.174  0.0589  0.6446  0.6312
 1317TIP3    H1 3915   1.270   6.730   3.235 -2.9605 -0.3497  0.9529
 1317TIP3    H2 3916   1.268   6.579   3.223  1.3512 -0.4218 -0.4526
 1318TIP3   OH2 3917   3.082   3.989   1.624 -0.4764  0.2151  0.4129
 1318TIP3    H1 3918   3.134   3.918   1.586 -1.6882  0.3007 -1.5246
 1318TIP3    H2 3919   2.994   3.953   1.631 -0.7820  1.0296  0.9203
 1319TIP3   OH2 3920   0.480   3.703   2.299 -0.1182 -0.1323 -0.4135
 1319TIP3    H1 3921   0.434   3.765   2.242  0.4911  0.6500 -0.0816
 1319TIP3    H2 3922   0.525   3.644   2.238  1.3771  1.3293 -0.8117
 1320TIP3   OH2 3923   2.935   2.410   2.908  0.0607 -0.1697 -0.0882
 1320TIP3    H1 3924   2.947   2.471   2.835  0.7988 -1.1161 -0.7953
 1320TIP3    H2 3925   2.964   2.459   2.985  3.3298 -0.4300 -0.9660
 1321TIP3   OH2 3926   3.608   2.114   3.793  0.2460 -0.5583 -0.0833
 1321TIP3    H1 3927   3.613   2.202   3.756 -1.0421  0.0849  1.1730
 1321TIP3    H2 3928   3.659   2.119   3.874 -1.0971 -0.4991  0.7912
 1322TIP3   OH2 3929   1.196   1.866   4.597 -0.1220  1.0081 -0.1633
 1322TIP3    H1 3930   1.162   1.833   4.680  1.3911 -0.1854  0.0204
 1322TIP3    H2 3931   1.235   1.790   4.555  2.4899  2.2650 -0.2476
 1323TIP3   OH2 3932   3.328   5.032   3.525  0.6364  0.9675 -0.2881
 1323TIP3    H1 3933   3.328   5.034   3.430  3.1831 -1.2373 -0.4494
 1323TIP3    H2 3934   3.293   4.947   3.548 -3.1126  2.6527  1.0291
 1324TIP3   OH2 3935   6.381   3.752   5.368  0.0558 -0.1029  0.1097
 1324TIP3    H1 3936   6.396   3.742   5.462  2.8751  1.1559 -0.1001
 1324TIP3    H2 3937   6.462   3.791   5.335 -0.4557 -1.3742 -3.0148
 1325TIP3   OH2 3938   1.320   6.061   5.782  0.0146  0.4202 -0.6080
 1325TIP3    H1 3939   1.375   6.121   5.732  1.0841  0.5400  0.6597
 1325TIP3    H2 3940   1.262   6.118   5.833 -0.6474  0.3084 -1.2123
 1326TIP3   OH2 3941   1.518   5.681   2.394 -0.2235 -0.3722  0.1907
 1326TIP3    H1 3942   1.437   5.730   2.408 -0.1624 -0.1987 -0.0507
 1326TIP3    H2 3943   1.495   5.614   2.329 -0.2008 -0.3972  0.2079
 1327TIP3   OH2 3944   3.759   0.164   1.014 -0.2297  0.2334  0.3663
 1327TIP3    H1 3945   3.748   0.118   1.098  1.6068 -1.7386 -0.3728
 1327TIP3    H2 3946   3.782   0.094   0.952  1.1054  1.9936 -1.2048
 1328TIP3   OH2 3947   4.882   3.465   5.435  0.2718  0.7455  0.4012
 1328TIP3    H1 3948   4.871   3.558   5.418 -1.2671 -0.0387 -3.8783
 1328TIP3    H2 3949   4.795   3.434   5.460  0.6205  0.2589  1.0702
 1329TIP3   OH2 3950   4.268   0.591   0.388  0.4997  0.0784  0.0232
 1329TIP3    H1 3951   4.340   0.559   0.333 -0.6154 -0.8333 -0.9408
 1329TIP3    H2 3952   4.189   0.572   0.338 -0.4521  0.6864  1.2537
 1330TIP3   OH2 3953   5.914   1.620   5.713  0.0420 -0.6049 -0.2798
 1330TIP3    H1 3954   5.877   1.697   5.671 -0.0757 -0.3299  0.3100
 1330TIP3    H2 3955   6.008   1.625   5.694 -0.2811 -1.7118 -2.4193
 1331TIP3   OH2 3956   7.005   2.369   1.949  0.3906  0.1480  0.0943
 1331TIP3    H1 3957   7.014   2.383   2.043  3.9024 -0.4143 -0.0440
 1331TIP3    H2 3958   7.053   2.442   1.909  0.2684 -0.4713 -1.2461
 1332TIP3   OH2 3959   1.095   4.620   1.950 -0.1876  0.0334  0.1350
 1332TIP3    H1 3960   1.150   4.563   1.897  0.6671  0.4308  0.5725
 1332TIP3    H2 3961   1.035   4.660   1.888 -1.1007 -1.6450 -0.1295
 1333TIP3   OH2 3962   4.829   4.610   3.371  0.1300 -0.0499  0.3867
 1333TIP3    H1 3963   4.805   4.518   3.358  0.5194 -0.0011 -0.7765
 1333TIP3    H2 3964   4.924   4.611   3.361 -0.1290  0.9834 -3.1644
 1334TIP3   OH2 3965   6.054   5.340   1.808 -0.2330  0.2984 -0.3795
 1334TIP3    H1 3966   6.046   5.435   1.817  0.5155  0.1698  2.8062
 1334TIP3    H2 3967   6.101   5.312   1.887  2.3816 -2.4301 -2.6811
 1335TIP3   OH2 3968   2.981   2.267   1.069 -0.1921  0.1664 -0.2085
 1335TIP3    H1 3969   2.995   2.356   1.103 -2.8945  0.5255  0.2290
 1335TIP3    H2 3970   2.889   2.249   1.087  0.5269 -3.2285  0.7903
 1336TIP3   OH2 3971   0.727   5.959   1.918  0.1350 -0.2132  0.1248
 1336TIP3    H1 3972   0.787   6.032   1.903  0.7683 -0.2793  2.1084
 1336TIP3    H2 3973   0.753   5.893   1.854 -0.8602  1.4747 -2.1538
 1337TIP3   OH2 3974   0.689   4.148   2.206 -0.3120  0.3398 -0.4336
 1337TIP3    H1 3975   0.706   4.054   2.205 -0.6750  0.2650  0.2479
 1337TIP3    H2 3976   0.655   4.167   2.119 -0.2237 -0.1559 -0.5805
 1338TIP3   OH2 3977   3.228   5.372   2.634  0.2854  0.9883  0.4159
 1338TIP3    H1 3978   3.270   5.287   2.643 -0.7829  0.5187  1.1729
 1338TIP3    H2 3979   3.136   5.356   2.653 -0.0334  2.2147  0.0248
 1339TIP3   OH2 3980   1.134   5.725   1.310 -0.3788 -0.1131 -0.4168
 1339TIP3    H1 3981   1.136   5.700   1.217  2.8084  0.7276 -0.7075
 1339TIP3    H2 3982   1.152   5.819   1.309  1.3405 -0.3712  1.0562
 1340TIP3   OH2 3983   4.068   1.057   1.696 -0.1596  0.4934  0.3391
 1340TIP3    H1 3984   4.047   1.150   1.703  1.3365  0.9738 -0.9979
 1340TIP3    H2 3985   3.993   1.019   1.649 -1.5175  0.6675  2.2395
 1341TIP3   OH2 3986   2.372   3.012   4.939  0.0291 -0.3032  0.5551
 1341TIP3    H1 3987   2.337   3.072   4.873  1.5791 -0.1536 -0.1719
 1341TIP3    H2 3988   2.460   3.045   4.957 -0.4181 -0.2096  2.8848
 1342TIP3   OH2 3989   4.439   6.692   4.467  0.1765  0.2880  0.5083
 1342TIP3    H1 3990   4.423   6.762   4.404  0.9116 -1.0469 -1.2366
 1342TIP3    H2 3991   4.534   6.686   4.473  0.1154 -0.2294  1.0618
 1343TIP3   OH2 3992   6.889   4.334   4.544 -0.0496 -0.5272  0.5401
 1343TIP3    H1 3993   6.969   4.376   4.513 -0.1549 -0.6070  0.1490
 1343TIP3    H2 3994   6.831   4.406   4.567 -1.1558 -0.3154 -2.4324
 1344TIP3   OH2 3995   1.698   6.282   0.561  0.0903  0.3013 -0.2956
 1344TIP3    H1 3996   1.781   6.298   0.517  0.5661 -0.3832  0.3287
 1344TIP3    H2 3997   1.632   6.290   0.492  0.5468  1.9898 -0.5804
 1345TIP3   OH2 3998   5.287   3.566   0.934 -0.4030  0.0113  0.3995
 1345TIP3    H1 3999   5.256   3.542   1.021 -1.2980  0.7679  0.3161
 1345TIP3    H2 4000   5.210   3.604   0.892  0.7620  2.5957  0.4088
 1346TIP3   OH2 4001   1.296   2.920   5.199 -0.1881 -0.2041 -0.8297
 1346TIP3    H1 4002   1.301   2.895   5.292 -0.2995  0.4734 -0.6353
 1346TIP3    H2 4003   1.289   2.837   5.153 -0.6247 -0.5365 -0.1938
 1347TIP3   OH2 4004   6.988   3.381   2.455 -0.0523 -0.6030 -0.0294
 1347TIP3    H1 4005   6.952   3.293   2.445  0.1857 -0.5540 -1.5248
 1347TIP3    H2 4006   6.960   3.427   2.376  0.9056  0.2829  0.1335
 1348TIP3   OH2 4007   1.917   5.537   0.643  0.0209  0.6961 -0.1785
 1348TIP3    H1 4008   1.948   5.473   0.579 -2.2847  0.1608 -0.8521
 1348TIP3    H2 4009   1.842   5.495   0.685 -0.6559  2.3854  0.4174
 1349TIP3   OH2 4010   4.986   1.479   3.149  0.2283  0.1063  0.1513
 1349TIP3    H1 4011   4.901   1.520   3.131 -0.0094  0.2358  1.4551
 1349TIP3    H2 4012   4.973   1.433   3.232  0.5228 -2.5455 -1.1795
 1350TIP3   OH2 4013   4.618   5.082   4.754  0.3102  0.2351  0.7362
 1350TIP3    H1 4014   4.638   5.006   4.700 -1.0315 -0.1701  0.7686
 1350TIP3    H2 4015   4.686   5.082   4.822  0.3979 -0.8644  0.6604
 1351TIP3   OH2 4016   6.486   4.528   4.345  0.1137  0.4922 -0.4067
 1351TIP3    H1 4017   6.415   4.495   4.401 -0.2440 -1.4947 -1.9330
 1351TIP3    H2 4018   6.550   4.563   4.407 -1.8904  1.8379  1.0478
 1352TIP3   OH2 4019   6.641   4.814   4.312  0.7298  0.1740  0.1125
 1352TIP3    H1 4020   6.608   4.894   4.270  0.6892  0.4675  0.6953
 1352TIP3    H2 4021   6.603   4.743   4.261 -0.9013  0.4972  0.8092
 1353TIP3   OH2 4022   1.126   5.948   0.220  0.1189 -0.0932 -0.2632
 1353TIP3    H1 4023   1.074   5.990   0.151 -0.1656 -1.0875 -0.6693
 1353TIP3    H2 4024   1.063   5.928   0.289  0.0838 -0.6822 -0.4643
 1354TIP3   OH2 4025   2.815   2.151   1.627 -0.3881  0.3124  0.2681
 1354TIP3    H1 4026   2.898   2.134   1.673 -2.7389 -5.9741  3.3600
 1354TIP3    H2 4027   2.828   2.113   1.540  0.6887  2.0227 -0.3716
 1355TIP3   OH2 4028   3.945   5.996   3.243 -0.5902 -0.0856  0.1574
 1355TIP3    H1 4029   3.969   6.076   3.198 -0.5618 -0.1776  0.0088
 1355TIP3    H2 4030   3.871   6.021   3.299  0.0928  0.2932  0.9170
 1356TIP3   OH2 4031   1.929   3.234   1.055 -0.1766 -0.3224  0.3634
 1356TIP3    H1 4032   2.024   3.236   1.045 -0.0581 -0.9110  1.2829
 1356TIP3    H2 4033   1.914   3.256   1.147 -0.7922 -2.3404  0.7955
 1357TIP3   OH2 4034   1.987   0.331   5.057  0.4041 -0.1682 -0.3801
 1357TIP3    H1 4035   1.967   0.249   5.012  2.4326  0.0665 -1.8696
 1357TIP3    H2 4036   2.077   0.321   5.088  0.2329  1.0047  0.5882
 1358TIP3   OH2 4037   3.131   0.803   5.277  0.3153 -0.6239  0.4444
 1358TIP3    H1 4038   3.198   0.865   5.306  0.0427 -0.3768  0.5510
 1358TIP3    H2 4039   3.077   0.787   5.355  0.9402 -1.7285  0.6727
 1359TIP3   OH2 4040   5.566   2.266   2.265  0.3798  0.2260  0.4840
 1359TIP3    H1 4041   5.607   2.179   2.269  0.2073  0.1140 -0.1053
 1359TIP3    H2 4042   5.523   2.276   2.350  0.1954 -0.3695  0.4661
 1360TIP3   OH2 4043   4.196   3.369   1.530  0.4269 -0.8592 -0.4339
 1360TIP3    H1 4044   4.283   3.389   1.495  0.3659 -1.5427 -0.9878
 1360TIP3    H2 4045   4.200   3.401   1.621  0.9261 -0.0135 -0.7395
 1361TIP3   OH2 4046   1.934   4.044   1.202 -0.0761 -0.1845 -0.1283
 1361TIP3    H1 4047   1.970   4.108   1.141 -1.1228 -1.0676 -1.7558
 1361TIP3    H2 4048   1.988   3.966   1.190  1.5433  0.4408  2.2335
 1362TIP3   OH2 4049   6.209  -0.008   4.464 -0.3440  0.0990  0.2160
 1362TIP3    H1 4050   6.219  -0.040   4.554 -0.9376 -1.5307 -0.2447
 1362TIP3    H2 4051   6.221   0.086   4.470 -0.3133  0.0183  1.9989
 1363TIP3   OH2 4052   0.875   5.962   0.654 -0.0442  0.0380  0.0553
 1363TIP3    H1 4053   0.909   6.040   0.697 -2.0451  1.7097 -1.2689
 1363TIP3    H2 4054   0.839   5.909   0.726  0.8984  0.5173  0.9111
 1364TIP3   OH2 4055   3.591   4.960   0.133 -0.0367  0.9421 -0.2807
 1364TIP3    H1 4056   3.563   4.869   0.125 -0.4557  1.0801 -0.4339
 1364TIP3    H2 4057   3.629   4.967   0.220 -0.5822  0.7687 -0.0236
 1365TIP3   OH2 4058   6.279   0.569   2.119  0.6140  0.1179  0.1142
 1365TIP3    H1 4059   6.316   0.506   2.057 -0.0479  1.1838 -1.4107
 1365TIP3    H2 4060   6.241   0.638   2.065  0.1653  1.1982  1.7120
 1366TIP3   OH2 4061   0.994   5.157   1.598 -0.2293 -0.6757 -0.4705
 1366TIP3    H1 4062   0.958   5.243   1.576  1.4166  0.1324 -0.1732
 1366TIP3    H2 4063   0.949   5.133   1.679 -0.8634 -0.1943 -0.6723
 1367TIP3   OH2 4064   4.933   3.352   2.954 -0.5813 -0.7253  0.1244
 1367TIP3    H1 4065   4.893   3.423   2.904  0.7418 -0.2769 -0.3434
 1367TIP3    H2 4066   4.996   3.313   2.894  2.2314  0.8552  1.8195
 1368TIP3   OH2 4067   2.138   1.012   5.152 -0.0502 -0.2910  0.4260
 1368TIP3    H1 4068   2.188   1.002   5.232  0.5286 -0.7051  0.0223
 1368TIP3    H2 4069   2.165   0.938   5.097 -1.3354 -0.6936  0.3152
 1369TIP3   OH2 4070   1.853   2.881   3.025  0.0243 -0.0933 -0.0238
 1369TIP3    H1 4071   1.884   2.799   3.063  0.3633  0.8348  1.8476
 1369TIP3    H2 4072   1.780   2.855   2.969  0.0965 -1.6663  0.5486
 1370TIP3   OH2 4073   2.157   0.781   2.179 -0.4312  0.0923  0.0872
 1370TIP3    H1 4074   2.096   0.715   2.147 -0.2995  0.2706 -0.5416
 1370TIP3    H2 4075   2.239   0.733   2.191 -0.3122  0.1600 -0.4549
 1371TIP3   OH2 4076   7.103   4.654   0.634  0.0609 -0.3039  0.6198
 1371TIP3    H1 4077   7.081   4.636   0.543  0.2396 -0.7735  0.6660
 1371TIP3    H2 4078   7.020   4.642   0.681  0.4942 -2.7909  0.8955
 1372TIP3   OH2 4079   0.762   0.514   5.681  0.4244 -0.0817 -0.0769
 1372TIP3    H1 4080   0.694   0.557   5.629  0.1272  0.3881  0.6756
 1372TIP3    H2 4081   0.716   0.481   5.759  0.8163 -0.9765 -0.2144
 1373TIP3   OH2 4082   5.613   6.015   2.720  0.6582  0.4711 -0.0289
 1373TIP3    H1 4083   5.705   6.023   2.744  0.7797  2.4381 -0.9366
 1373TIP3    H2 4084   5.614   6.015   2.624 -0.2494 -0.0876 -0.0413
 1374TIP3   OH2 4085   5.977   5.441   0.972  0.1963 -0.1930  0.1823
 1374TIP3    H1 4086   5.997   5.469   0.882 -0.6689  0.1383  0.0887
 1374TIP3    H2 4087   5.982   5.521   1.024  0.2676 -0.3112  0.3584
 1375TIP3   OH2 4088   7.197   4.725   5.725  0.2238 -0.1929 -0.6133
 1375TIP3    H1 4089   7.286   4.710   5.694 -0.4736 -1.8726 -1.9528
 1375TIP3    H2 4090   7.146   4.743   5.646 -0.4086  2.1307  0.2596
 1376TIP3   OH2 4091   6.995   2.447   2.188 -0.9481 -0.1349 -0.0139
 1376TIP3    H1 4092   6.955   2.530   2.211 -1.5713 -0.2083 -0.7840
 1376TIP3    H2 4093   7.079   2.447   2.234 -0.7634  1.0848 -0.3131
 1377TIP3   OH2 4094   5.613   3.706   4.003  0.0765  0.1625 -0.2603
 1377TIP3    H1 4095   5.696   3.711   4.050 -0.6870 -1.5368  1.3999
 1377TIP3    H2 4096   5.550   3.748   4.061 -0.6392 -0.7386 -0.3640
 1378TIP3   OH2 4097   5.284   5.396   4.903  0.0189  0.0009 -0.3640
 1378TIP3    H1 4098   5.359   5.356   4.860  0.5206 -0.1796  0.6501
 1378TIP3    H2 4099   5.278   5.483   4.864  0.7473  0.0115 -0.4618
 1379TIP3   OH2 4100   6.241   4.809   4.417 -0.1518 -0.2310 -0.3643
 1379TIP3    H1 4101   6.175   4.877   4.400 -2.3660 -1.5918  2.0586
 1379TIP3    H2 4102   6.291   4.803   4.335 -2.2890  1.6597 -1.9446
 1380TIP3   OH2 4103   3.292   5.343   5.347 -0.8276  0.3867 -0.4348
 1380TIP3    H1 4104   3.270   5.309   5.260 -0.2239 -0.1418 -0.3927
 1380TIP3    H2 4105   3.385   5.365   5.341 -0.3378 -1.2447  0.5593
 1381TIP3   OH2 4106   0.653   5.570   0.126 -0.2570  0.1112  0.0947
 1381TIP3    H1 4107   0.635   5.570   0.032 -0.2169 -0.5031  0.0837
 1381TIP3    H2 4108   0.704   5.491   0.141  0.0375  0.3856  0.5796
 1382TIP3   OH2 4109   6.015   5.337   5.267 -0.2547  0.0758 -0.4375
 1382TIP3    H1 4110   5.945   5.316   5.205 -1.6628  0.8808  0.7944
 1382TIP3    H2 4111   6.036   5.254   5.309 -1.0907 -0.0288 -0.2155
 1383TIP3   OH2 4112   4.549   1.567   5.670 -0.1306 -0.7245 -0.3852
 1383TIP3    H1 4113   4.628   1.615   5.697  0.2519 -1.3420 -0.3886
 1383TIP3    H2 4114   4.569   1.475   5.689 -0.6463 -0.9421 -0.8687
 1384TIP3   OH2 4115   3.768   2.646   4.221  0.0512  0.3316  0.4267
 1384TIP3    H1 4116   3.857   2.682   4.229 -0.1355  0.5184  1.8172
 1384TIP3    H2 4117   3.764   2.576   4.286 -0.1229 -1.2037 -1.1388
 1385TIP3   OH2 4118   7.063   2.768   0.679  0.6975  0.3138  0.4791
 1385TIP3    H1 4119   6.982   2.724   0.655 -1.2081  3.3417  0.8984
 1385TIP3    H2 4120   7.129   2.698   0.677 -1.2088 -1.7189 -3.0514
 1386TIP3   OH2 4121   5.061   0.537   5.135  0.2363  0.3475  0.3738
 1386TIP3    H1 4122   5.017   0.620   5.117 -0.1233  0.0079 -0.3432
 1386TIP3    H2 4123   5.105   0.551   5.219  2.7944  2.3146 -1.1473
 1387TIP3   OH2 4124   2.373   3.851   3.586  0.0967  0.1566  0.1456
 1387TIP3    H1 4125   2.331   3.881   3.505  1.1800  1.0635 -0.1174
 1387TIP3    H2 4126   2.404   3.763   3.566 -1.7566 -0.5989  0.3967
 1388TIP3   OH2 4127   6.564   6.339   5.147  0.3022 -0.3363  0.2665
 1388TIP3    H1 4128   6.604   6.426   5.142  0.6791 -0.4996  0.3633
 1388TIP3    H2 4129   6.485   6.352   5.200 -0.0849  0.0986 -0.3965
 1389TIP3   OH2 4130   1.536   2.190   3.168 -0.3455 -0.9248 -0.1473
 1389TIP3    H1 4131   1.566   2.272   3.128 -1.7179 -0.9074 -1.2269
 1389TIP3    H2 4132   1.603   2.169   3.233  0.0084  1.0978  0.2232
 1390TIP3   OH2 4133   2.251   1.024   3.581  0.3431  0.1173  0.3959
 1390TIP3    H1 4134   2.289   0.936   3.576  0.5259  0.2164 -0.0180
 1390TIP3    H2 4135   2.175   1.014   3.638  1.8779  0.2164  2.5918
 1391TIP3   OH2 4136   7.087   4.962   2.096  0.0788 -0.1051 -0.2323
 1391TIP3    H1 4137   7.035   4.882   2.095 -0.9989  0.5876 -1.1626
 1391TIP3    H2 4138   7.130   4.963   2.010  1.5037 -0.5668  0.4443
 1392TIP3   OH2 4139   1.890   3.790   0.708 -0.0760 -0.1421  0.0929
 1392TIP3    H1 4140   1.854   3.721   0.764  1.7038 -1.8481 -0.7332
 1392TIP3    H2 4141   1.851   3.773   0.622 -0.6820  0.7590  0.1809
 1393TIP3   OH2 4142   3.706   2.063   4.714  0.4923 -0.4601 -0.0537
 1393TIP3    H1 4143   3.686   1.998   4.781  0.6395 -0.5131 -0.0599
 1393TIP3    H2 4144   3.741   2.013   4.640  1.8491 -0.2847  0.4257
 1394TIP3   OH2 4145   3.810   4.013   3.909 -0.4195  0.1282  0.3961
 1394TIP3    H1 4146   3.847   4.039   3.825  0.7939 -0.0264  0.8577
 1394TIP3    H2 4147   3.830   3.920   3.917 -1.5060 -0.1089  0.3693
 1395TIP3   OH2 4148   6.373   4.999   5.520  0.8151  0.0244 -0.1778
 1395TIP3    H1 4149   6.419   5.036   5.445 -0.0341  0.5243 -0.4698
 1395TIP3    H2 4150   6.281   4.998   5.493  0.7591 -1.9239 -0.0113
 1396TIP3   OH2 4151   1.118   5.655   1.049  0.1432  0.5178  0.4863
 1396TIP3    H1 4152   1.121   5.560   1.055  0.7574  0.4318 -0.7778
 1396TIP3    H2 4153   1.024   5.677   1.053 -0.3682 -0.4769 -2.7833
 1397TIP3   OH2 4154   1.334   1.709   5.827  0.2341  0.1683  0.5115
 1397TIP3    H1 4155   1.280   1.674   5.756 -0.6293  2.3301  0.0118
 1397TIP3    H2 4156   1.298   1.669   5.906 -1.4529  0.7398  0.0846
 1398TIP3   OH2 4157   6.610   1.529   2.715 -0.4941  0.0298  0.3736
 1398TIP3    H1 4158   6.650   1.601   2.762 -1.0790  1.4498 -1.2236
 1398TIP3    H2 4159   6.522   1.521   2.753 -0.7667  0.8017 -0.0824
 1399TIP3   OH2 4160   7.001   0.647   4.584 -0.3984  0.2181 -0.1387
 1399TIP3    H1 4161   6.957   0.715   4.533  0.6509  0.8853 -0.2069
 1399TIP3    H2 4162   7.082   0.630   4.535 -0.1159 -0.2493  0.4812
 1400TIP3   OH2 4163   3.600   4.418   5.784 -0.6215 -0.4383  0.2912
 1400TIP3    H1 4164   3.691   4.393   5.768 -0.3058  0.5199  0.5439
 1400TIP3    H2 4165   3.568   4.446   5.699  0.1857  1.8894  0.6857
 1401TIP3   OH2 4166   2.056   0.651   4.151  0.2450  0.1831 -0.1326
 1401TIP3    H1 4167   1.977   0.616   4.193  0.4079  1.5081  1.3558
 1401TIP3    H2 4168   2.127   0.600   4.189  0.2069 -0.3013 -0.6935
 1402TIP3   OH2 4169   0.043   1.268   1.099  0.4834 -0.8576 -0.2042
 1402TIP3    H1 4170   0.060   1.343   1.157 -2.1064 -1.0321  0.9245
 1402TIP3    H2 4171   0.075   1.296   1.013 -0.9170  1.8345  0.0485
 1403TIP3   OH2 4172   6.019   2.039   1.771  0.2888  0.5660 -0.0232
 1403TIP3    H1 4173   6.071   1.970   1.811 -1.3839 -0.9042 -0.2770
 1403TIP3    H2 4174   5.988   2.002   1.688 -1.4945  1.1942  0.3127
 1404TIP3   OH2 4175   4.243   5.774   2.483  0.0217  0.8988 -0.0768
 1404TIP3    H1 4176   4.289   5.852   2.513  1.0997  0.3696 -0.3275
 1404TIP3    H2 4177   4.237   5.718   2.560 -0.7234  1.2001  0.0952
 1405TIP3   OH2 4178   4.076   0.235   1.516 -0.1490 -0.6977  0.1786
 1405TIP3    H1 4179   4.167   0.216   1.539 -0.0660 -1.9403 -1.0701
 1405TIP3    H2 4180   4.069   0.213   1.424 -2.0087 -1.8061  0.5286
 1406TIP3   OH2 4181   6.837   2.246   5.369 -0.2727  0.2633  0.1142
 1406TIP3    H1 4182   6.870   2.262   5.458  1.1204  0.1892 -0.3590
 1406TIP3    H2 4183   6.774   2.316   5.354  0.1934  0.8602  0.8131
 1407TIP3   OH2 4184   5.857   6.787   0.366  0.1439 -0.4636  0.5185
 1407TIP3    H1 4185   5.847   6.752   0.454  1.6727 -3.9470 -0.5248
 1407TIP3    H2 4186   5.938   6.838   0.368  0.7416 -1.4153  0.9044
 1408TIP3   OH2 4187   1.848   4.109   4.208  0.7721  0.1624 -0.2707
 1408TIP3    H1 4188   1.930   4.074   4.176  0.8446  0.1824 -0.1070
 1408TIP3    H2 4189   1.826   4.055   4.284  1.3001  0.9777  0.4890
 1409TIP3   OH2 4190   1.340   5.073   4.338  0.1927 -0.4100 -0.5671
 1409TIP3    H1 4191   1.363   5.005   4.275 -2.7578 -1.2038 -0.9670
 1409TIP3    H2 4192   1.299   5.025   4.411  0.1538  0.7901  0.2270
 1410TIP3   OH2 4193   7.022   6.530   0.824 -0.2859  0.0622 -0.2321
 1410TIP3    H1 4194   6.937   6.496   0.795  0.3815 -0.8584 -1.1978
 1410TIP3    H2 4195   7.014   6.536   0.919 -1.5885  0.4552 -0.3506
 1411TIP3   OH2 4196   6.609   3.111   1.268  0.1130 -0.4401 -0.4602
 1411TIP3    H1 4197   6.583   3.202   1.256  0.1376 -0.1878  1.1292
 1411TIP3    H2 4198   6.537   3.060   1.229 -0.6605  0.2577  0.0149
 1412TIP3   OH2 4199   3.010   4.213   1.001 -0.1088  0.0815  0.4524
 1412TIP3    H1 4200   2.984   4.281   1.064 -0.9297  0.0640  0.1491
 1412TIP3    H2 4201   2.930   4.195   0.952  1.0195  1.7036 -2.1555
 1413TIP3   OH2 4202   3.051   4.300   4.666 -0.2170 -0.1899 -0.7418
 1413TIP3    H1 4203   2.992   4.225   4.678 -1.8156  0.9563 -1.0597
 1413TIP3    H2 4204   3.027   4.335   4.580  0.4656  0.7269 -0.5686
 1414TIP3   OH2 4205   6.482   4.562   5.247  0.5840  0.4513 -0.3422
 1414TIP3    H1 4206   6.563   4.514   5.262  1.0030  1.3163  0.2592
 1414TIP3    H2 4207   6.497   4.608   5.164  0.8471  0.8595 -0.0755
 1415TIP3   OH2 4208   5.329   3.945   1.927 -0.0520  0.8093  0.1240
 1415TIP3    H1 4209   5.401   3.941   1.990  0.2232  2.1539 -0.0830
 1415TIP3    H2 4210   5.260   3.891   1.966  1.2186 -0.8991  0.0863
 1416TIP3   OH2 4211   0.217   1.317   5.795  0.2140 -0.2917  0.4548
 1416TIP3    H1 4212   0.192   1.402   5.832 -0.9114 -0.6150  0.4817
 1416TIP3    H2 4213   0.261   1.272   5.867  0.7990  0.2615  0.4453
 1417TIP3   OH2 4214   5.681   0.032   0.540 -0.3813 -0.1744 -0.5392
 1417TIP3    H1 4215   5.771   0.008   0.517 -0.4655  1.6181 -3.3793
 1417TIP3    H2 4216   5.633   0.028   0.457 -2.8650 -0.6921  0.8117
 1418TIP3   OH2 4217   6.148   0.595   0.547  0.0360  0.1353  0.1934
 1418TIP3    H1 4218   6.228   0.633   0.583  1.0821 -0.0539 -1.7980
 1418TIP3    H2 4219   6.115   0.662   0.486 -0.7697 -0.2054  0.2378
 1419TIP3   OH2 4220   6.406   3.523   2.172  0.1259 -0.3755 -0.0189
 1419TIP3    H1 4221   6.398   3.617   2.187  0.6531 -0.3216 -0.0588
 1419TIP3    H2 4222   6.377   3.510   2.082 -1.2589 -0.4452  0.4206
 1420TIP3   OH2 4223   1.058   0.088   4.206 -0.6699 -0.7064 -0.1988
 1420TIP3    H1 4224   0.969   0.056   4.226 -1.2931  0.1705 -1.4494
 1420TIP3    H2 4225   1.053   0.117   4.115  0.9654 -0.7906 -0.3455
 1421TIP3   OH2 4226   3.317   5.144   4.558 -0.1135  0.1891 -0.3641
 1421TIP3    H1 4227   3.343   5.192   4.480  0.0242  0.4525 -0.1570
 1421TIP3    H2 4228   3.226   5.170   4.572 -0.3105 -0.2779 -0.7483
 1422TIP3   OH2 4229   2.375   4.758   2.258 -0.3221  0.1845 -0.4669
 1422TIP3    H1 4230   2.367   4.793   2.347  0.1287  0.9741 -0.7191
 1422TIP3    H2 4231   2.469   4.761   2.240 -0.0344 -2.8188  0.1171
 1423TIP3   OH2 4232   7.142   0.772   1.097  0.4423  0.2143 -0.1062
 1423TIP3    H1 4233   7.117   0.757   1.188  1.9876  0.0914  0.3175
 1423TIP3    H2 4234   7.148   0.685   1.058  2.8691  0.0200  0.5598
 1424TIP3   OH2 4235   0.412   2.140   3.597  0.0040  0.3555  0.3617
 1424TIP3    H1 4236   0.375   2.066   3.645 -1.0639  1.2000  0.8993
 1424TIP3    H2 4237   0.335   2.188   3.565  0.6683  1.3731  0.2596
 1425TIP3   OH2 4238   4.419   5.660   5.413  0.0154 -0.3332 -0.2346
 1425TIP3    H1 4239   4.400   5.629   5.501  0.5622 -1.7279 -0.5670
 1425TIP3    H2 4240   4.333   5.682   5.377 -0.0489  2.1473  1.2546
 1426TIP3   OH2 4241   4.279   6.582   2.968  0.0585 -0.6509 -0.3383
 1426TIP3    H1 4242   4.332   6.647   3.014 -0.1338  0.4500 -1.6018
 1426TIP3    H2 4243   4.194   6.584   3.012  0.3791 -0.8383  0.3017
 1427TIP3   OH2 4244   6.627   0.177   3.320 -0.1907 -0.7492  0.0657
 1427TIP3    H1 4245   6.697   0.155   3.381  0.2178 -1.4464 -0.6351
 1427TIP3    H2 4246   6.665   0.165   3.233 -0.7667  0.2009 -0.3419
 1428TIP3   OH2 4247   3.031   4.210   1.917 -0.3187 -0.8253  0.3626
 1428TIP3    H1 4248   2.945   4.235   1.950 -0.2500  1.2733 -0.8470
 1428TIP3    H2 4249   3.023   4.215   1.822  1.3935  0.5499  0.2302
 1429TIP3   OH2 4250   2.258   6.295   1.778  0.0948  0.1163 -0.3101
 1429TIP3    H1 4251   2.280   6.224   1.837  0.2759  0.0987 -0.3986
 1429TIP3    H2 4252   2.270   6.374   1.830  0.8856  0.1372 -0.5103
 1430TIP3   OH2 4253   3.136   5.953   1.619  0.3027 -0.1997  0.0076
 1430TIP3    H1 4254   3.056   5.970   1.670 -0.0794 -1.7806  0.0144
 1430TIP3    H2 4255   3.132   5.859   1.601  3.1734 -0.7497  1.7154
 1431TIP3   OH2 4256   2.084   1.323   2.501  0.4448 -0.2332  0.1088
 1431TIP3    H1 4257   1.996   1.308   2.534  0.4924  0.1866  0.4433
 1431TIP3    H2 4258   2.071   1.356   2.412  0.2954 -0.8477 -0.1019
 1432TIP3   OH2 4259   2.681   5.095   3.813 -0.1273 -0.7578  0.1093
 1432TIP3    H1 4260   2.607   5.076   3.872  1.6010  0.9407  3.0757
 1432TIP3    H2 4261   2.757   5.056   3.856  1.1368 -0.1246 -1.4399
 1433TIP3   OH2 4262   4.136   5.299   3.173 -0.6979  0.1514 -0.4116
 1433TIP3    H1 4263   4.164   5.244   3.247  1.5831 -0.5705 -1.7230
 1433TIP3    H2 4264   4.176   5.385   3.191 -1.9902  0.6504  0.2486
 1434TIP3   OH2 4265   1.656   5.786   1.300 -0.0531  0.6229  0.6199
 1434TIP3    H1 4266   1.680   5.764   1.210 -0.0288  0.2396  0.7172
 1434TIP3    H2 4267   1.577   5.839   1.292 -0.5243 -0.0939  0.4059
 1435TIP3   OH2 4268   6.629   2.202   4.710 -0.3981 -0.3218 -0.3460
 1435TIP3    H1 4269   6.671   2.248   4.637 -2.4603  0.2380 -1.2444
 1435TIP3    H2 4270   6.631   2.110   4.684 -0.0982 -0.2609 -0.5511
 1436TIP3   OH2 4271   4.850   3.079   4.194  0.2217 -0.3886 -0.1353
 1436TIP3    H1 4272   4.896   3.049   4.273  1.4029 -0.6897 -0.9209
 1436TIP3    H2 4273   4.833   2.999   4.144  0.5288 -0.0797 -0.7411
 1437TIP3   OH2 4274   5.853   3.759   0.325  0.4883 -0.2355 -0.0439
 1437TIP3    H1 4275   5.862   3.715   0.240 -0.9654 -0.9467  0.1269
 1437TIP3    H2 4276   5.879   3.849   0.309 -0.8122 -0.0794 -1.5449
 1438TIP3   OH2 4277   3.486   0.671   2.643  0.0806  0.7351 -0.1924
 1438TIP3    H1 4278   3.552   0.602   2.656  1.1143  1.2279 -2.4380
 1438TIP3    H2 4279   3.416   0.627   2.595  0.7092  1.1712 -1.5622
 1439TIP3   OH2 4280   2.218   0.302   0.138 -0.2308  0.1390  0.2245
 1439TIP3    H1 4281   2.192   0.341   0.055 -0.0312 -0.8345 -0.3135
 1439TIP3    H2 4282   2.193   0.210   0.131  1.5148 -0.3954  0.4615
 1440TIP3   OH2 4283   2.380   2.404   2.013  0.3780  0.5793 -0.4350
 1440TIP3    H1 4284   2.341   2.485   2.045 -0.3655  0.6648 -1.5198
 1440TIP3    H2 4285   2.318   2.336   2.037  0.7687  0.3947  0.0481
 1441TIP3   OH2 4286   0.573   6.033   2.757 -0.4372 -0.1361  0.4695
 1441TIP3    H1 4287   0.480   6.043   2.735 -0.4066  0.7709  0.6918
 1441TIP3    H2 4288   0.614   6.112   2.722  0.5034 -1.1778 -0.8721
 1442TIP3   OH2 4289   0.174   4.301   1.640 -0.4220 -0.4893 -0.1440
 1442TIP3    H1 4290   0.243   4.366   1.653 -0.7006  0.0034 -0.9910
 1442TIP3    H2 4291   0.092   4.352   1.642 -0.8531 -1.1962  1.7971
 1443TIP3   OH2 4292   0.856   3.405   3.352 -0.1030  0.1012  0.0399
 1443TIP3    H1 4293   0.870   3.441   3.264  1.8768 -0.4568  0.0832
 1443TIP3    H2 4294   0.763   3.420   3.369 -0.2319  1.4950 -1.5759
 1444TIP3   OH2 4295   6.363   2.778   2.869  0.4493  0.5477 -0.0183
 1444TIP3    H1 4296   6.313   2.820   2.938 -0.9443 -1.6917  0.4388
 1444TIP3    H2 4297   6.297   2.742   2.810  1.4787 -1.7976  0.1574
 1445TIP3   OH2 4298   3.836   2.375   2.523 -0.7136  0.0953  0.3683
 1445TIP3    H1 4299   3.842   2.313   2.595  2.5476  0.3258  0.4233
 1445TIP3    H2 4300   3.804   2.456   2.564 -1.6933 -0.5586  0.9366
 1446TIP3   OH2 4301   1.183   3.822   5.610 -0.4454 -0.3264  0.9456
 1446TIP3    H1 4302   1.157   3.899   5.559  2.2382  0.6187  0.8899
 1446TIP3    H2 4303   1.163   3.747   5.553 -0.7434  0.4892 -0.0473
 1447TIP3   OH2 4304   5.674   4.806   1.242 -0.0504  0.3786  0.5525
 1447TIP3    H1 4305   5.724   4.732   1.276  1.0983  1.5326  1.4930
 1447TIP3    H2 4306   5.732   4.881   1.254 -2.3413  1.9703  2.6240
 1448TIP3   OH2 4307   2.256   1.196   1.755  0.7409  0.4909 -0.2038
 1448TIP3    H1 4308   2.235   1.202   1.662 -0.5344 -0.9042 -0.0383
 1448TIP3    H2 4309   2.336   1.249   1.765 -1.2132  3.9904 -1.3611
 1449TIP3   OH2 4310   0.809   1.762   5.606  0.0155  0.2068  0.2672
 1449TIP3    H1 4311   0.740   1.825   5.625  0.4719  0.5445  0.8443
 1449TIP3    H2 4312   0.889   1.815   5.601  0.2117 -0.1487 -0.6092
 1450TIP3   OH2 4313   4.027   5.969   2.408 -0.0116 -0.0007 -0.0103
 1450TIP3    H1 4314   4.065   5.900   2.461  0.1053  0.5687  0.6643
 1450TIP3    H2 4315   3.988   6.029   2.472  0.5218  0.9239 -0.5332
 1451TIP3   OH2 4316   0.275   1.047   0.041  0.0147  0.5199  0.8537
 1451TIP3    H1 4317   0.277   1.089  -0.045  0.1435  0.1922  0.6954
 1451TIP3    H2 4318   0.182   1.034   0.058 -0.0413  1.0720  1.0082
 1452TIP3   OH2 4319   0.088   1.492   0.473  0.3654  0.1422 -0.1214
 1452TIP3    H1 4320   0.036   1.539   0.539  1.0274  2.0019 -0.8460
 1452TIP3    H2 4321   0.062   1.400   0.483 -0.0504  0.4368  2.2612
 1453TIP3   OH2 4322   6.945   6.420   1.389  0.0418  0.1047 -0.1858
 1453TIP3    H1 4323   6.999   6.392   1.462 -1.2443 -0.2063  0.6776
 1453TIP3    H2 4324   6.884   6.348   1.375  0.1624  0.2319 -1.4597
 1454TIP3   OH2 4325   3.862   3.288   2.508  0.3648 -0.4422  0.0173
 1454TIP3    H1 4326   3.948   3.249   2.528 -0.4567 -1.3250  2.1484
 1454TIP3    H2 4327   3.807   3.264   2.583 -2.2346 -1.3322 -2.0297
 1455TIP3   OH2 4328   1.496   2.449   0.655  0.1087 -0.4090 -0.0686
 1455TIP3    H1 4329   1.539   2.484   0.733 -0.1871 -0.0943 -0.0443
 1455TIP3    H2 4330   1.409   2.423   0.686  0.7786 -2.4267  0.2239
 1456TIP3   OH2 4331   0.670   1.174   4.720  0.3408 -0.6031  0.3766
 1456TIP3    H1 4332   0.680   1.131   4.804 -1.1963 -0.4096  0.6902
 1456TIP3    H2 4333   0.726   1.251   4.726  1.0976 -1.1645  0.7836
 1457TIP3   OH2 4334   0.602   4.146   5.710  0.5434  0.6454 -0.2947
 1457TIP3    H1 4335   0.555   4.067   5.736  1.2243  0.1710 -0.4853
 1457TIP3    H2 4336   0.535   4.214   5.708 -0.1469 -0.0322 -0.6148
 1458TIP3   OH2 4337   1.926   0.299   3.711 -0.1167  0.7962  0.0804
 1458TIP3    H1 4338   1.913   0.296   3.616  1.8183  1.5606 -0.2599
 1458TIP3    H2 4339   2.021   0.299   3.721 -0.2304 -1.9015  2.1394
 1459TIP3   OH2 4340   0.089   0.293   1.962  0.0028  0.2111  0.8030
 1459TIP3    H1 4341   0.074   0.300   1.868  1.8656  0.5867  0.5015
 1459TIP3    H2 4342   0.174   0.250   1.970  0.5927  1.5371  2.2592
 1460TIP3   OH2 4343   6.252   6.076   2.173 -0.2991  0.2290 -0.2912
 1460TIP3    H1 4344   6.310   6.098   2.246 -0.9308  1.3838 -0.1167
 1460TIP3    H2 4345   6.198   6.004   2.205  0.5511 -0.3868 -0.2105
 1461TIP3   OH2 4346   0.059   3.436   4.269  0.5936 -0.2240 -0.7973
 1461TIP3    H1 4347  -0.028   3.463   4.239  0.4859  0.5532  0.1676
 1461TIP3    H2 4348   0.047   3.410   4.360  1.4823  0.5059 -0.4550
 1462TIP3   OH2 4349   2.502   1.629   0.910 -0.6545 -0.5358 -0.0097
 1462TIP3    H1 4350   2.580   1.576   0.924 -1.6031 -1.5603  1.7304
 1462TIP3    H2 4351   2.525   1.688   0.838  1.7136 -0.7648  0.5114
 1463TIP3   OH2 4352   2.615   2.168   0.294  0.8420 -0.0332 -0.2199
 1463TIP3    H1 4353   2.660   2.086   0.273  1.1933  0.3367 -0.9389
 1463TIP3    H2 4354   2.680   2.220   0.340  0.6640 -0.1002  0.1090
 1464TIP3   OH2 4355   1.216   0.476   1.542 -0.3485  0.0038 -0.0949
 1464TIP3    H1 4356   1.289   0.416   1.555  0.4332  0.7695 -0.7892
 1464TIP3    H2 4357   1.138   0.426   1.566  0.2558 -1.3549 -0.9066
 1465TIP3   OH2 4358   0.676   2.689   1.535 -0.2623  0.0954  0.6793
 1465TIP3    H1 4359   0.584   2.675   1.516 -0.3663  0.9573  0.5204
 1465TIP3    H2 4360   0.721   2.673   1.452 -0.5060  1.8250  0.1752
 1466TIP3   OH2 4361   2.308   4.989   3.732  0.1017  0.3853 -0.0117
 1466TIP3    H1 4362   2.262   4.911   3.700  1.0869  0.2376 -1.1546
 1466TIP3    H2 4363   2.244   5.060   3.724 -0.8967 -0.3322  1.3033
 1467TIP3   OH2 4364   0.771   6.287   2.181  0.0843  0.4798 -0.1493
 1467TIP3    H1 4365   0.864   6.303   2.164  0.0114  1.1747  0.0852
 1467TIP3    H2 4366   0.756   6.323   2.268 -0.0180 -1.1994  0.5767
 1468TIP3   OH2 4367   3.848   1.785   4.769  0.7876  0.5582 -0.5845
 1468TIP3    H1 4368   3.863   1.858   4.829  0.8059 -0.3145  0.5228
 1468TIP3    H2 4369   3.835   1.709   4.827 -0.7922 -0.0298 -1.6429
 1469TIP3   OH2 4370   4.395   2.674   0.313 -0.1163 -0.0645 -0.6814
 1469TIP3    H1 4371   4.362   2.718   0.391 -1.3736  0.7864 -1.6493
 1469TIP3    H2 4372   4.489   2.688   0.314 -0.2499  0.7921  0.1559
 1470TIP3   OH2 4373   5.903   4.179   5.541  0.1672  0.1828  0.2259
 1470TIP3    H1 4374   5.892   4.086   5.561  0.5231  0.2371  0.6944
 1470TIP3    H2 4375   5.955   4.180   5.461 -1.5130 -0.0393 -0.9117
 1471TIP3   OH2 4376   1.073   6.094   4.062 -0.6279 -0.0131  0.3571
 1471TIP3    H1 4377   1.069   6.081   4.157 -0.6252 -3.0700  0.0464
 1471TIP3    H2 4378   0.986   6.070   4.031 -0.9227  1.8709 -0.3965
 1472TIP3   OH2 4379   3.395   4.439   2.504  0.0035  0.2643  0.5063
 1472TIP3    H1 4380   3.315   4.490   2.519 -0.3446 -0.0485 -0.2576
 1472TIP3    H2 4381   3.382   4.360   2.557 -0.3016  0.1085  0.2047
 1473TIP3   OH2 4382   5.348   5.109   0.297  0.4895 -0.3518  0.3988
 1473TIP3    H1 4383   5.404   5.169   0.346 -0.2864 -1.0165  2.1749
 1473TIP3    H2 4384   5.409   5.052   0.250  1.2358  0.9563 -0.2761
 1474TIP3   OH2 4385   3.184   0.238   3.830  0.0812 -0.0565  0.1582
 1474TIP3    H1 4386   3.097   0.215   3.862 -0.2671 -1.5461 -1.7194
 1474TIP3    H2 4387   3.183   0.333   3.824 -0.9285  0.0431  1.4222
 1475TIP3   OH2 4388   1.554   2.855   3.384 -0.1980 -0.2556  0.0210
 1475TIP3    H1 4389   1.576   2.795   3.456  0.1253 -0.0511  0.0922
 1475TIP3    H2 4390   1.462   2.876   3.399 -0.0411  0.0588  0.5761
 1476TIP3   OH2 4391   1.807   6.727   1.736 -0.0688 -0.2912 -0.2928
 1476TIP3    H1 4392   1.778   6.763   1.820 -1.2890  1.2441 -1.3341
 1476TIP3    H2 4393   1.798   6.632   1.746 -1.0404 -0.0866  1.0055
 1477TIP3   OH2 4394   0.126   0.179   5.001  0.4386 -0.6382 -0.1986
 1477TIP3    H1 4395   0.205   0.131   4.977  1.1954  0.0281  0.8762
 1477TIP3    H2 4396   0.081   0.194   4.918  0.9885 -1.7974 -0.7223
 1478TIP3   OH2 4397   3.409   2.645   5.673  0.1172  0.2934 -0.0901
 1478TIP3    H1 4398   3.455   2.671   5.593  0.4397 -0.7106 -0.2457
 1478TIP3    H2 4399   3.344   2.582   5.644  1.5167 -1.5824  0.6397
 1479TIP3   OH2 4400   1.598   6.414   4.931  0.6279  0.5809  0.5854
 1479TIP3    H1 4401   1.608   6.320   4.944 -0.3448  0.3061 -0.4639
 1479TIP3    H2 4402   1.670   6.453   4.980  3.0503 -0.8610 -1.5682
 1480TIP3   OH2 4403   7.081   4.009   3.536  0.5918  0.9347 -0.0862
 1480TIP3    H1 4404   7.149   3.941   3.539  0.4540  0.7646 -0.7957
 1480TIP3    H2 4405   7.034   3.999   3.619 -0.6030 -1.0469 -0.9469
 1481TIP3   OH2 4406   4.069   3.216   0.110 -0.1251  0.1523  0.1260
 1481TIP3    H1 4407   3.982   3.202   0.072  0.5205  0.5604 -1.6256
 1481TIP3    H2 4408   4.055   3.275   0.183 -1.3025  0.4129 -0.2977
 1482TIP3   OH2 4409   6.016   6.213   2.156  0.2632  0.0498  0.6132
 1482TIP3    H1 4410   6.038   6.289   2.211  2.9387 -0.2983  0.1271
 1482TIP3    H2 4411   6.100   6.174   2.134 -0.9633 -2.0624 -0.6164
 1483TIP3   OH2 4412   0.555   6.460   2.316 -0.0331 -0.3708 -0.5359
 1483TIP3    H1 4413   0.534   6.551   2.295  0.9855 -0.0935 -0.4198
 1483TIP3    H2 4414   0.611   6.466   2.394 -0.1017 -1.1027 -0.4246
 1484TIP3   OH2 4415   2.153   0.928   5.694 -0.5642 -0.3998 -0.0123
 1484TIP3    H1 4416   2.236   0.947   5.738 -0.8373  1.6774 -0.3018
 1484TIP3    H2 4417   2.144   0.832   5.700  1.1455 -0.5266  1.2510
 1485TIP3   OH2 4418   2.845   3.510   5.774  0.4416  0.2851 -0.0944
 1485TIP3    H1 4419   2.798   3.526   5.693  1.5461  0.0211 -0.8161
 1485TIP3    H2 4420   2.840   3.592   5.822 -0.2697  0.4237 -0.4043
 1486TIP3   OH2 4421   1.690   6.549   5.360  0.5675 -0.0216 -0.1966
 1486TIP3    H1 4422   1.769   6.570   5.310  1.6189  0.2528  1.4906
 1486TIP3    H2 4423   1.678   6.624   5.418 -0.1874 -0.6454  0.4697
 1487TIP3   OH2 4424   7.026   2.502   1.220  0.5901 -0.4505  0.0586
 1487TIP3    H1 4425   7.069   2.578   1.259  2.0109 -0.3133 -1.6490
 1487TIP3    H2 4426   7.059   2.499   1.130 -0.4752 -2.2991 -0.3266
 1488TIP3   OH2 4427   4.371   4.933   5.910  0.0558  0.2683 -0.1311
 1488TIP3    H1 4428   4.319   4.992   5.856 -0.2237  0.7614  0.6530
 1488TIP3    H2 4429   4.394   4.860   5.852 -3.1869 -1.0035 -0.0299
 1489TIP3   OH2 4430   0.715   5.286   2.226 -0.9508  0.4166 -0.0154
 1489TIP3    H1 4431   0.784   5.275   2.290 -2.4111 -1.9475  1.2923
 1489TIP3    H2 4432   0.703   5.381   2.220  0.4767  0.7626  1.8186
 1490TIP3   OH2 4433   3.099   4.371   2.851  0.3778  0.1357  0.2991
 1490TIP3    H1 4434   3.108   4.466   2.840 -0.4705  0.3187  1.0570
 1490TIP3    H2 4435   3.080   4.360   2.944  1.7909 -0.9003  0.5054
 1491TIP3   OH2 4436   0.795   3.145   1.551  0.2375  0.2972 -0.3535
 1491TIP3    H1 4437   0.720   3.124   1.495 -0.5104  1.0484  0.3383
 1491TIP3    H2 4438   0.830   3.060   1.576 -0.5303 -0.0689 -0.4939
 1492TIP3   OH2 4439   0.512   0.409   0.319 -0.4029 -0.0777 -0.4274
 1492TIP3    H1 4440   0.475   0.448   0.399 -0.7634  1.7702 -1.4408
 1492TIP3    H2 4441   0.605   0.427   0.324 -0.4665  0.3062 -0.5364
 1493TIP3   OH2 4442   1.121   4.691   4.920  0.8431 -0.2671 -0.0701
 1493TIP3    H1 4443   1.118   4.654   4.832 -1.1094 -0.3359 -0.0314
 1493TIP3    H2 4444   1.052   4.643   4.968  1.8743 -0.2401  1.4983
 1494TIP3   OH2 4445   2.371   2.681   4.896  0.0915 -0.1256  0.2709
 1494TIP3    H1 4446   2.404   2.596   4.870 -0.8697  0.5009 -3.6380
 1494TIP3    H2 4447   2.447   2.739   4.891  0.1631 -0.2379  0.0573
 1495TIP3   OH2 4448   1.014   1.967   2.769 -0.0387 -0.5331 -0.7918
 1495TIP3    H1 4449   1.054   1.986   2.854  0.5735  0.8923 -1.3782
 1495TIP3    H2 4450   0.962   1.888   2.785  0.7295 -0.7797  0.6965
 1496TIP3   OH2 4451   3.585   1.592   3.294 -0.1840  0.3452 -0.1797
 1496TIP3    H1 4452   3.588   1.519   3.357  0.4989 -0.4712 -1.1182
 1496TIP3    H2 4453   3.631   1.663   3.338  0.0618 -0.1328  0.3590
 1497TIP3   OH2 4454   1.065   3.055   3.878 -0.1347 -0.1970  0.3097
 1497TIP3    H1 4455   1.029   3.060   3.967  1.9732  1.4977  1.1491
 1497TIP3    H2 4456   1.156   3.080   3.888  0.8398 -2.4263 -2.0011
 1498TIP3   OH2 4457   7.148   4.535   1.016  0.2051  0.2279  0.5958
 1498TIP3    H1 4458   7.107   4.618   0.990  0.7255  0.7498  1.4022
 1498TIP3    H2 4459   7.076   4.472   1.016 -0.2201  0.7081  0.0896
 1499TIP3   OH2 4460   0.393   4.220   4.728  0.8507  0.7778 -0.5353
 1499TIP3    H1 4461   0.403   4.190   4.818  1.7580 -2.1103 -1.4764
 1499TIP3    H2 4462   0.301   4.205   4.707  0.7275  1.0937 -0.2356
 1500TIP3   OH2 4463   4.891   6.748   5.139 -0.1598 -0.4063 -0.1085
 1500TIP3    H1 4464   4.976   6.734   5.180  1.3846 -1.5429 -3.3667
 1500TIP3    H2 4465   4.885   6.843   5.126 -0.6552 -0.0201  2.3879
 1501TIP3   OH2 4466   2.930   5.908   1.284 -0.1372 -0.0671 -0.1138
 1501TIP3    H1 4467   2.889   5.876   1.364  0.4889  0.7268  0.5391
 1501TIP3    H2 4468   2.954   5.829   1.236 -1.7637 -0.5557 -0.1817
 1502TIP3   OH2 4469   3.686   2.686   3.089 -0.5226 -0.0812  0.5846
 1502TIP3    H1 4470   3.771   2.642   3.101 -1.0945 -1.9294 -1.4588
 1502TIP3    H2 4471   3.696   2.734   3.006 -1.5863 -0.6890  0.0866
 1503TIP3   OH2 4472   0.392   3.173   4.597 -0.8888 -0.0509 -0.4381
 1503TIP3    H1 4473   0.429   3.093   4.636 -2.0632 -0.8316 -0.8591
 1503TIP3    H2 4474   0.410   3.241   4.661  0.3580 -0.5938 -0.1760
 1504TIP3   OH2 4475   0.035   1.163   0.077  0.1136  0.6433  0.8437
 1504TIP3    H1 4476  -0.033   1.097   0.087  0.3202  0.3696  0.4676
 1504TIP3    H2 4477   0.001   1.240   0.122 -0.6601  0.6682  0.2168
 1505TIP3   OH2 4478   1.329   4.913   1.337  0.5885  0.7008  0.3339
 1505TIP3    H1 4479   1.237   4.885   1.331  0.3079  1.3818  1.1845
 1505TIP3    H2 4480   1.328   5.002   1.303  0.5597  1.4087  2.0857
 1506TIP3   OH2 4481   1.512   4.329   4.549  0.0285  0.4885  0.0442
 1506TIP3    H1 4482   1.521   4.335   4.454 -3.7466  0.1107 -0.5246
 1506TIP3    H2 4483   1.535   4.238   4.569  0.9205  0.5871 -0.4841
 1507TIP3   OH2 4484   1.170   2.340   1.919  0.4456  0.0183 -0.1041
 1507TIP3    H1 4485   1.257   2.378   1.932  0.6099 -0.3225 -0.2016
 1507TIP3    H2 4486   1.118   2.373   1.992  0.9967 -0.7969  0.6739
 1508TIP3   OH2 4487   1.237   0.619   4.057 -0.2275 -0.1971 -0.7259
 1508TIP3    H1 4488   1.145   0.612   4.082 -0.1747 -1.9069 -0.8388
 1508TIP3    H2 4489   1.280   0.658   4.133 -1.1581  1.4788 -1.0192
 1509TIP3   OH2 4490   1.292   1.683   4.413  0.2635 -0.0855 -0.3198
 1509TIP3    H1 4491   1.355   1.754   4.396  0.5017  0.1093  1.2126
 1509TIP3    H2 4492   1.343   1.603   4.404  0.5599  0.0442  0.1196
 1510TIP3   OH2 4493   1.531   4.546   1.384  0.5407  0.2432  0.1188
 1510TIP3    H1 4494   1.438   4.529   1.370  0.1635  1.3157  1.2168
 1510TIP3    H2 4495   1.535   4.636   1.415  2.0664  0.6152 -1.0503
 1511TIP3   OH2 4496   1.973   0.430   3.253 -0.0439 -0.3633  0.4009
 1511TIP3    H1 4497   1.920   0.382   3.316  0.2458 -0.1048  0.8536
 1511TIP3    H2 4498   1.989   0.515   3.296  0.7373 -0.4443  0.2819
 1512TIP3   OH2 4499   4.972   2.969   5.425  0.3644 -0.0495 -0.1181
 1512TIP3    H1 4500   5.019   2.982   5.507 -0.5291  1.0378  0.2421
 1512TIP3    H2 4501   5.038   2.986   5.357  1.0049 -0.5682  0.3575
 1513TIP3   OH2 4502   2.380   5.417   2.468  0.2534  1.1179 -0.7000
 1513TIP3    H1 4503   2.426   5.416   2.384  1.5954  1.8969 -0.0136
 1513TIP3    H2 4504   2.443   5.382   2.531 -0.6416  0.7707  0.0355
 1514TIP3   OH2 4505   2.978   6.361   1.775 -0.2637  0.1868 -0.2805
 1514TIP3    H1 4506   3.003   6.435   1.721 -1.2052  1.3181  0.7956
 1514TIP3    H2 4507   3.055   6.344   1.830 -0.3937  1.0151  0.1634
 1515TIP3   OH2 4508   2.676   4.047   2.157  0.1045 -0.1315 -0.2208
 1515TIP3    H1 4509   2.705   4.093   2.236  1.4240  1.5163 -1.5966
 1515TIP3    H2 4510   2.582   4.037   2.168  0.5019 -1.9542  2.5421
 1516TIP3   OH2 4511   6.952   5.548   5.670  0.0811 -0.1988 -0.0073
 1516TIP3    H1 4512   7.019   5.610   5.700 -0.2274 -0.1549  0.6004
 1516TIP3    H2 4513   6.930   5.497   5.748  0.9475 -1.6600 -0.6755
 1517TIP3   OH2 4514   1.793   4.090   3.898 -0.5154  0.6613 -0.1072
 1517TIP3    H1 4515   1.767   4.113   3.987 -0.8291 -1.2255  0.3418
 1517TIP3    H2 4516   1.710   4.073   3.853 -0.2943 -0.2992 -0.1747
 1518TIP3   OH2 4517   5.905   0.115   4.604 -0.1371 -0.0465 -0.1166
 1518TIP3    H1 4518   5.825   0.166   4.607 -0.5894 -0.7058 -0.9026
 1518TIP3    H2 4519   5.896   0.052   4.675  0.9002  1.5911  1.5963
 1519TIP3   OH2 4520   0.738   1.919   2.378 -0.0800  0.6706  0.0432
 1519TIP3    H1 4521   0.763   2.010   2.392 -1.6569  0.9658  1.1991
 1519TIP3    H2 4522   0.703   1.891   2.463  0.3057 -0.9956 -0.3201
 1520TIP3   OH2 4523   6.910   4.877   2.387  0.0823  0.1414 -0.0363
 1520TIP3    H1 4524   6.966   4.838   2.320  1.4701  1.1506  0.4843
 1520TIP3    H2 4525   6.880   4.802   2.439  0.1657 -0.5050 -0.8964
 1521TIP3   OH2 4526   0.347   0.310   0.901 -0.4571 -0.2198  0.6047
 1521TIP3    H1 4527   0.420   0.321   0.841 -1.0850  1.4164  0.0950
 1521TIP3    H2 4528   0.291   0.244   0.860 -1.0889  1.1621 -0.8801
 1522TIP3   OH2 4529   4.893   3.433   0.841  0.2636  0.0283  0.1666
 1522TIP3    H1 4530   4.885   3.373   0.915  0.7191  0.1193  0.2897
 1522TIP3    H2 4531   4.912   3.518   0.881 -3.3324  0.9738  0.2475
 1523TIP3   OH2 4532   4.878   6.394   3.669  0.1373  0.1772  0.0040
 1523TIP3    H1 4533   4.953   6.453   3.678  1.2624 -1.1501 -0.2137
 1523TIP3    H2 4534   4.864   6.388   3.574 -1.5028  1.8766  0.0870
 1524TIP3   OH2 4535   4.234   0.901   1.840 -0.0599  0.6722 -0.0146
 1524TIP3    H1 4536   4.172   0.871   1.906  0.7499 -0.7297  0.1642
 1524TIP3    H2 4537   4.181   0.948   1.775 -1.0731  0.7624  0.8584
 1525TIP3   OH2 4538   3.859   2.082   1.815  0.0933 -0.1584 -0.0102
 1525TIP3    H1 4539   3.944   2.121   1.794  0.5914 -0.2502  1.6315
 1525TIP3    H2 4540   3.831   2.039   1.734  2.9019 -2.4814  0.0701
 1526TIP3   OH2 4541   3.497   5.052   5.636  0.4896 -0.0488 -0.2935
 1526TIP3    H1 4542   3.559   5.124   5.627 -0.8681  1.2143  0.2515
 1526TIP3    H2 4543   3.448   5.071   5.716  0.1982 -1.6568 -0.0543
 1527TIP3   OH2 4544   6.626   5.130   0.881 -0.1892 -0.1718  0.0684
 1527TIP3    H1 4545   6.612   5.100   0.971 -0.6214 -0.2166 -0.0096
 1527TIP3    H2 4546   6.541   5.120   0.840 -0.3892  1.3170  0.0733
 1528TIP3   OH2 4547   0.305   6.646   1.487 -0.6731  0.1620  0.0143
 1528TIP3    H1 4548   0.279   6.617   1.400  2.1520 -0.4532 -0.7260
 1528TIP3    H2 4549   0.354   6.573   1.523 -1.4122  0.5734  2.0002
 1529TIP3   OH2 4550   0.644   2.940   0.027  0.6443 -0.1267 -0.1226
 1529TIP3    H1 4551   0.644   2.955   0.122 -1.3417 -0.1679 -0.0737
 1529TIP3    H2 4552   0.733   2.962  -0.001  0.1820  4.0412  1.0885
 1530TIP3   OH2 4553   5.153   5.496   3.556 -0.3100  0.1155  0.3187
 1530TIP3    H1 4554   5.103   5.472   3.634 -0.2868 -0.6948  0.0964
 1530TIP3    H2 4555   5.207   5.569   3.584 -1.4684  0.8826  0.6133
 1531TIP3   OH2 4556   3.431   1.545   2.595  0.1688 -0.7604 -0.0202
 1531TIP3    H1 4557   3.341   1.562   2.620  0.0389 -0.7668 -0.4839
 1531TIP3    H2 4558   3.463   1.628   2.560  1.1169 -0.0128  2.3491
 1532TIP3   OH2 4559   4.940   2.565   2.305 -0.4765 -0.0660 -0.8949
 1532TIP3    H1 4560   4.862   2.535   2.351  0.1599 -0.7591 -0.2211
 1532TIP3    H2 4561   5.001   2.491   2.312  0.8086  1.0273 -0.0293
 1533TIP3   OH2 4562   7.088   6.018   2.631  0.1513 -0.9472  0.7895
 1533TIP3    H1 4563   7.126   6.091   2.583 -0.2862 -0.4788  1.1490
 1533TIP3    H2 4564   7.098   5.943   2.572 -1.0623 -0.2391 -0.3654
 1534TIP3   OH2 4565   5.735   2.719   0.425  0.0655  0.0033  0.2025
 1534TIP3    H1 4566   5.725   2.697   0.332 -1.5211  0.7071  0.1710
 1534TIP3    H2 4567   5.824   2.692   0.446  0.1928 -0.9125 -1.3186
 1535TIP3   OH2 4568   6.715   4.583   4.037 -0.1045  0.1029 -0.7575
 1535TIP3    H1 4569   6.621   4.565   4.033 -0.4284  1.6926 -0.9691
 1535TIP3    H2 4570   6.752   4.509   4.085 -1.6999  0.2562  0.7786
 1536TIP3   OH2 4571   0.361   2.496   4.099  0.4344  0.2834 -0.2023
 1536TIP3    H1 4572   0.315   2.576   4.072  0.3273 -0.1752 -1.4513
 1536TIP3    H2 4573   0.308   2.460   4.170 -0.7167  0.1816 -1.0800
 1537TIP3   OH2 4574   3.912   0.246   4.875 -0.1480  0.3154 -0.0248
 1537TIP3    H1 4575   3.842   0.292   4.828  0.9989  1.8979 -0.2793
 1537TIP3    H2 4576   3.904   0.276   4.965  1.1960  1.8980 -0.3679
 1538TIP3   OH2 4577   0.435   0.200   5.260  0.4798  0.1466  0.1163
 1538TIP3    H1 4578   0.412   0.265   5.327 -0.3444  1.0331 -1.0034
 1538TIP3    H2 4579   0.515   0.234   5.221 -1.6055  2.3179 -2.6721
 1539TIP3   OH2 4580   4.135   0.408   3.891  0.1086 -0.5465 -0.7085
 1539TIP3    H1 4581   4.184   0.366   3.962  0.1464 -0.2090 -0.5335
 1539TIP3    H2 4582   4.045   0.412   3.923  0.2512  0.2270 -0.3936
 1540TIP3   OH2 4583   5.506   5.576   4.228 -0.2580  0.1904 -0.3225
 1540TIP3    H1 4584   5.412   5.594   4.229 -0.2537  0.2465  1.7838
 1540TIP3    H2 4585   5.513   5.488   4.191 -0.7491  1.6422 -4.4315
 1541TIP3   OH2 4586   0.757   1.678   3.904  0.0752 -0.3210 -0.2834
 1541TIP3    H1 4587   0.848   1.653   3.918 -0.0283 -0.9385 -0.6797
 1541TIP3    H2 4588   0.710   1.595   3.898 -0.5899 -0.0018  0.3875
 1542TIP3   OH2 4589   4.377   2.496   3.042 -0.4765  0.7660 -0.0300
 1542TIP3    H1 4590   4.309   2.433   3.020  0.5030 -1.5734  2.9795
 1542TIP3    H2 4591   4.457   2.444   3.051  1.4041  3.1506 -1.5871
 1543TIP3   OH2 4592   7.170   4.148   1.948  0.3529 -0.2302 -0.0169
 1543TIP3    H1 4593   7.109   4.149   1.874  0.0168  1.8847  0.2313
 1543TIP3    H2 4594   7.137   4.079   2.006 -0.5870 -0.5159 -0.8668
 1544TIP3   OH2 4595   5.038   2.074   3.801  0.1420 -0.7347  0.1372
 1544TIP3    H1 4596   5.054   2.162   3.766 -0.2016 -1.6085 -2.4488
 1544TIP3    H2 4597   4.956   2.082   3.850  1.2637  0.8234  1.8627
 1545TIP3   OH2 4598   1.155   0.227   2.952 -0.3301 -0.1036 -0.4007
 1545TIP3    H1 4599   1.121   0.244   3.040 -0.1434  1.7010 -0.6345
 1545TIP3    H2 4600   1.110   0.291   2.897  1.6865  0.7810 -1.1125
 1546TIP3   OH2 4601   2.770   1.199   3.108  0.6228 -0.1466 -0.5099
 1546TIP3    H1 4602   2.789   1.292   3.101  1.3723 -0.3110 -0.7288
 1546TIP3    H2 4603   2.792   1.162   3.022  1.5825 -0.7298 -0.0373
 1547TIP3   OH2 4604   0.881   2.074   5.061 -0.0561  0.3767  0.2457
 1547TIP3    H1 4605   0.970   2.041   5.049 -0.0577  0.9400 -1.6544
 1547TIP3    H2 4606   0.891   2.169   5.065 -0.5249  0.4134  0.6995
 1548TIP3   OH2 4607   7.247   1.299   2.941 -0.3320  0.1246 -0.7176
 1548TIP3    H1 4608   7.194   1.332   3.014 -1.5135 -0.6082 -1.2338
 1548TIP3    H2 4609   7.186   1.249   2.887  0.8246 -0.4834 -1.4925
 1549TIP3   OH2 4610   5.555   4.051   0.910  0.2847 -0.2514  0.2022
 1549TIP3    H1 4611   5.604   3.969   0.921  0.2318 -0.0388  2.4070
 1549TIP3    H2 4612   5.492   4.050   0.981 -2.0819  0.1260 -1.7653
 1550TIP3   OH2 4613   6.798   1.698   5.239 -0.1452 -0.0025  0.0925
 1550TIP3    H1 4614   6.821   1.790   5.248 -1.2151  0.1741  1.4306
 1550TIP3    H2 4615   6.732   1.683   5.307  0.1606 -1.8066  0.0533
 1551TIP3   OH2 4616   3.087   0.441   1.125 -0.6134  0.1502 -0.0968
 1551TIP3    H1 4617   3.137   0.392   1.059 -0.5529  0.8452 -0.5756
 1551TIP3    H2 4618   3.126   0.528   1.126  0.8469 -0.4320  2.4591
 1552TIP3   OH2 4619   2.564   0.248   5.052  0.3988 -0.1693  0.2734
 1552TIP3    H1 4620   2.634   0.252   4.988  1.1497  0.3387  1.1130
 1552TIP3    H2 4621   2.531   0.158   5.046  0.9543 -0.3416 -0.2823
 1553TIP3   OH2 4622   3.868   3.949   4.686  0.0589 -0.0749 -0.1991
 1553TIP3    H1 4623   3.928   4.001   4.632 -1.0546  3.5678  1.7306
 1553TIP3    H2 4624   3.904   3.956   4.774 -1.2685 -0.9202  0.4289
 1554TIP3   OH2 4625   4.407   3.525   1.791 -0.6245 -0.0432  0.1870
 1554TIP3    H1 4626   4.390   3.469   1.715  1.7215 -0.6030 -0.0168
 1554TIP3    H2 4627   4.390   3.614   1.760  1.0537 -0.1858 -1.2965
 1555TIP3   OH2 4628   5.608   2.651   2.603  0.8287 -0.5170  0.1630
 1555TIP3    H1 4629   5.514   2.640   2.617  0.7622 -1.9259 -1.1355
 1555TIP3    H2 4630   5.630   2.588   2.534  2.7562 -0.3217  0.5346
 1556TIP3   OH2 4631   3.540   5.527   3.653  0.8514 -0.0756  0.1833
 1556TIP3    H1 4632   3.553   5.495   3.564  3.5009  1.8877 -0.2542
 1556TIP3    H2 4633   3.628   5.534   3.689 -0.0679  0.5847  2.4467
 1557TIP3   OH2 4634   0.545   3.939   4.610 -0.5132  0.0694 -0.7606
 1557TIP3    H1 4635   0.533   3.897   4.695  2.3547 -0.9494 -0.7587
 1557TIP3    H2 4636   0.554   3.866   4.549  1.0517  0.6980 -1.3223
 1558TIP3   OH2 4637   2.531   3.475   3.614  0.2904 -0.1264 -0.7650
 1558TIP3    H1 4638   2.606   3.458   3.557 -0.4298 -1.1632 -1.4413
 1558TIP3    H2 4639   2.456   3.477   3.555 -0.2872  0.3130 -0.0328
 1559TIP3   OH2 4640   3.409   1.210   2.058 -0.9292  0.5350  0.5957
 1559TIP3    H1 4641   3.322   1.247   2.048 -1.3192 -0.1423  1.3265
 1559TIP3    H2 4642   3.403   1.156   2.137 -0.4872 -1.3644 -0.6045
 1560TIP3   OH2 4643   5.172   2.996   2.949  0.0914 -0.4205 -0.7170
 1560TIP3    H1 4644   5.213   2.919   2.911 -0.6071 -0.7009 -0.9093
 1560TIP3    H2 4645   5.158   3.055   2.875 -1.1350 -0.9064 -0.8880
 1561TIP3   OH2 4646   2.382   4.046   5.132  0.3895 -0.1555  0.5337
 1561TIP3    H1 4647   2.296   4.013   5.107 -0.1066  1.1824  0.3931
 1561TIP3    H2 4648   2.416   3.980   5.193 -0.2902 -1.1995 -0.1677
 1562TIP3   OH2 4649   2.613   6.072   2.448  0.1700 -0.0567  0.1852
 1562TIP3    H1 4650   2.611   5.982   2.414  1.6400  0.3301 -0.9918
 1562TIP3    H2 4651   2.570   6.124   2.380  0.8200  0.3644  0.0915
 1563TIP3   OH2 4652   5.069   4.143   2.773  0.1489  0.1193 -0.3564
 1563TIP3    H1 4653   5.132   4.179   2.836  0.7630 -0.7504 -0.4572
 1563TIP3    H2 4654   5.121   4.127   2.695  0.0551 -1.6304 -0.0859
 1564TIP3   OH2 4655   7.126   6.215   5.039 -0.3416  0.4340 -0.5231
 1564TIP3    H1 4656   7.086   6.278   4.979 -0.8507  1.4296  0.8110
 1564TIP3    H2 4657   7.151   6.142   4.983 -1.9669  0.7554 -1.7657
 1565TIP3   OH2 4658   5.624   1.220   0.988 -0.4875  0.1105  0.3723
 1565TIP3    H1 4659   5.601   1.231   1.080 -0.5791 -0.1683  0.3836
 1565TIP3    H2 4660   5.717   1.196   0.990 -0.1937  1.2027  0.3282
 1566TIP3   OH2 4661   0.281   6.426   0.412 -0.3018  0.2624  0.2672
 1566TIP3    H1 4662   0.189   6.437   0.434 -0.6291  0.3293 -1.0585
 1566TIP3    H2 4663   0.308   6.511   0.378 -0.1894 -0.1728 -0.7966
 1567TIP3   OH2 4664   3.088   0.118   1.030 -0.3215  0.1826 -0.1396
 1567TIP3    H1 4665   3.179   0.126   1.060  0.3247  2.0259 -2.2868
 1567TIP3    H2 4666   3.036   0.125   1.110  1.3925 -1.7331  1.2564
 1568TIP3   OH2 4667   6.329   1.491   2.529 -0.4680  0.0616 -0.4357
 1568TIP3    H1 4668   6.249   1.465   2.574 -1.3693 -0.7668 -2.4062
 1568TIP3    H2 4669   6.375   1.547   2.592 -1.5948 -1.0675  1.4997
 1569TIP3   OH2 4670   3.043   6.354   5.303 -0.0879 -0.8237 -0.4944
 1569TIP3    H1 4671   3.081   6.345   5.391  0.5774  0.7879 -0.5880
 1569TIP3    H2 4672   3.114   6.389   5.249 -0.9260 -0.3574 -1.3259
 1570TIP3   OH2 4673   7.168   3.455   0.909 -0.0279  0.3449  0.0767
 1570TIP3    H1 4674   7.099   3.517   0.933 -0.8053 -0.7362  0.7007
 1570TIP3    H2 4675   7.170   3.458   0.813 -1.3370 -0.0200  0.0217
 1571TIP3   OH2 4676   4.918   6.333   2.445 -0.1087 -0.4696 -0.2116
 1571TIP3    H1 4677   4.897   6.361   2.534 -0.7058 -1.8532  0.1056
 1571TIP3    H2 4678   5.013   6.326   2.444 -0.1074 -0.5863  0.3544
 1572TIP3   OH2 4679   5.906   3.176   2.507  0.0455 -0.3281  0.2948
 1572TIP3    H1 4680   5.828   3.228   2.526  0.7250  0.4173  1.1401
 1572TIP3    H2 4681   5.888   3.090   2.546  0.0758  0.1777  1.4694
 1573TIP3   OH2 4682   1.283   5.287   5.368 -0.0693 -0.2804 -0.1691
 1573TIP3    H1 4683   1.328   5.220   5.419 -2.0425 -2.2892 -0.9173
 1573TIP3    H2 4684   1.353   5.347   5.340  2.0931 -2.9121 -0.8455
 1574TIP3   OH2 4685   0.687   6.752   2.141 -0.0802  0.4144  0.3706
 1574TIP3    H1 4686   0.761   6.793   2.095  0.1521  0.0400  0.4032
 1574TIP3    H2 4687   0.700   6.774   2.233 -1.0089  1.8805  0.1773
 1575TIP3   OH2 4688   1.588   1.401   2.855 -0.6973 -0.0917 -0.4055
 1575TIP3    H1 4689   1.567   1.416   2.947  0.1685  1.7705 -0.4513
 1575TIP3    H2 4690   1.590   1.306   2.845  0.5987 -0.3620  1.8470
 1576TIP3   OH2 4691   5.011   1.772   5.885 -0.2116 -0.1036  0.0380
 1576TIP3    H1 4692   5.106   1.784   5.888 -0.2963  0.4360  0.7880
 1576TIP3    H2 4693   4.985   1.814   5.802  0.2934 -1.0286 -0.6030
 1577TIP3   OH2 4694   6.826   0.751   1.737 -0.3985 -0.2306  0.6053
 1577TIP3    H1 4695   6.793   0.679   1.683  0.3522 -0.9608  1.1156
 1577TIP3    H2 4696   6.747   0.793   1.771 -0.8422 -0.7475  0.2352
 1578TIP3   OH2 4697   4.394   2.430   2.478  0.7863  1.0264  0.3919
 1578TIP3    H1 4698   4.312   2.445   2.525  0.3739 -1.4422  0.5652
 1578TIP3    H2 4699   4.461   2.425   2.547  0.3518 -1.4217  0.7319
 1579TIP3   OH2 4700   0.958   4.162   2.230 -0.0764  0.1230 -0.1979
 1579TIP3    H1 4701   0.864   4.175   2.215 -0.1715 -1.5362 -1.2845
 1579TIP3    H2 4702   1.000   4.233   2.181 -0.7423  0.5840 -0.1065
 1580TIP3   OH2 4703   0.774   1.182   3.365  0.0496 -0.0492 -0.1718
 1580TIP3    H1 4704   0.800   1.274   3.360  1.1552 -0.1741  2.1460
 1580TIP3    H2 4705   0.713   1.170   3.292  0.0326  2.4575 -0.6358
 1581TIP3   OH2 4706   6.272   1.513   0.063  0.0699  0.5121  0.2023
 1581TIP3    H1 4707   6.243   1.492   0.152  1.3958 -0.1265  0.5010
 1581TIP3    H2 4708   6.356   1.468   0.053  0.5332  1.5651 -0.9463
 1582TIP3   OH2 4709   5.568   3.521   2.714  0.5623 -0.5950  0.2258
 1582TIP3    H1 4710   5.653   3.546   2.749  0.8146 -1.5446  0.3366
 1582TIP3    H2 4711   5.513   3.598   2.725  1.7763  0.5061 -1.1121
 1583TIP3   OH2 4712   5.128   2.718   0.942  0.3158  0.4552  0.7890
 1583TIP3    H1 4713   5.165   2.727   0.854  1.1173 -0.4312  1.0240
 1583TIP3    H2 4714   5.059   2.784   0.945  0.0591  0.2877 -0.6161
 1584TIP3   OH2 4715   0.433   4.196   0.183 -0.0380  0.5914 -0.7640
 1584TIP3    H1 4716   0.506   4.141   0.157 -1.0469 -1.6822  0.8661
 1584TIP3    H2 4717   0.357   4.160   0.137 -0.7168  0.6072  0.2920
 1585TIP3   OH2 4718   1.917   4.336   3.079 -0.6888  0.4513  0.1736
 1585TIP3    H1 4719   1.990   4.320   3.019 -0.4215 -1.8909  0.9868
 1585TIP3    H2 4720   1.845   4.363   3.023  0.1291  0.3928 -0.9376
 1586TIP3   OH2 4721   4.614   3.902   1.506 -0.2803 -0.1326 -0.2890
 1586TIP3    H1 4722   4.566   3.835   1.457 -1.8024  0.9006 -0.2746
 1586TIP3    H2 4723   4.675   3.939   1.443 -0.1425 -0.8424 -0.5753
 1587TIP3   OH2 4724   7.194   3.323   4.520  0.0563  0.3005 -0.2088
 1587TIP3    H1 4725   7.243   3.243   4.537 -0.9869  0.2868  3.7581
 1587TIP3    H2 4726   7.102   3.296   4.522 -0.2726  1.3307 -0.6014
 1588TIP3   OH2 4727   2.252   1.992   2.359  0.3268  1.0203 -0.1903
 1588TIP3    H1 4728   2.235   1.946   2.277 -1.9057 -0.3862  0.9673
 1588TIP3    H2 4729   2.344   1.973   2.379  0.6123  0.5566 -1.8236
 1589TIP3   OH2 4730   4.561   3.471   0.406  0.4887  0.1690 -0.1846
 1589TIP3    H1 4731   4.600   3.386   0.428 -0.9988 -0.3884  0.4353
 1589TIP3    H2 4732   4.491   3.450   0.344 -1.0750  0.6936  1.3385
 1590TIP3   OH2 4733   2.389   0.083   3.815  0.0249  0.1983 -0.6520
 1590TIP3    H1 4734   2.406   0.177   3.806 -0.2036  0.1658 -1.4531
 1590TIP3    H2 4735   2.322   0.064   3.750 -1.3716 -0.1551  0.8296
 1591TIP3   OH2 4736   5.019   0.127   2.688  0.0307 -0.5870 -0.1435
 1591TIP3    H1 4737   5.053   0.216   2.677  0.7820 -0.4540  2.4336
 1591TIP3    H2 4738   5.097   0.071   2.687  0.2925 -0.5540  3.3010
 1592TIP3   OH2 4739   0.801   3.472   4.485  0.0985  0.0297  0.0953
 1592TIP3    H1 4740   0.806   3.376   4.483  1.4227  0.0550  0.6896
 1592TIP3    H2 4741   0.832   3.500   4.399  0.4890 -0.0685  0.2010
 1593TIP3   OH2 4742   0.645   4.820   5.660  0.6142  0.0344 -0.4236
 1593TIP3    H1 4743   0.671   4.856   5.575 -0.0522 -0.6746 -0.9377
 1593TIP3    H2 4744   0.571   4.874   5.687 -1.0811 -1.5129 -1.6927
 1594TIP3   OH2 4745   3.437   1.748   2.169 -0.3425  0.5981 -0.0524
 1594TIP3    H1 4746   3.417   1.842   2.161  0.9564  1.1131  1.9273
 1594TIP3    H2 4747   3.442   1.732   2.263  2.9269 -0.6025 -0.2777
 1595TIP3   OH2 4748   0.882   3.573   4.244  0.1810 -0.6709 -0.0520
 1595TIP3    H1 4749   0.868   3.596   4.153 -0.3743 -0.5761  0.0549
 1595TIP3    H2 4750   0.955   3.628   4.272  0.2622 -0.6033 -0.3999
 1596TIP3   OH2 4751   7.033   5.974   1.781  0.1552  0.1324  0.2790
 1596TIP3    H1 4752   7.046   5.884   1.753 -0.9325 -0.2015  0.7826
 1596TIP3    H2 4753   7.080   6.026   1.717  1.8411 -0.8418  0.6753
 1597TIP3   OH2 4754   0.159   0.300   0.476  0.1953  0.3725  0.4230
 1597TIP3    H1 4755   0.156   0.395   0.467  0.7828  0.4759  1.2347
 1597TIP3    H2 4756   0.076   0.269   0.439 -0.1775  1.2278  0.5326
 1598TIP3   OH2 4757   3.904   1.342   3.696 -0.0346 -0.2408  0.3386
 1598TIP3    H1 4758   3.819   1.326   3.654 -0.1323  0.3503  0.2960
 1598TIP3    H2 4759   3.885   1.340   3.789 -0.0097 -0.5590  0.3366
 1599TIP3   OH2 4760   3.652   5.095   2.473 -0.1731 -0.0371 -0.1663
 1599TIP3    H1 4761   3.733   5.054   2.503  0.2515  0.1516 -1.0311
 1599TIP3    H2 4762   3.638   5.059   2.386 -0.9349  0.0595 -0.0867
 1600TIP3   OH2 4763   1.192   4.035   3.011  0.5701 -0.1998 -0.5077
 1600TIP3    H1 4764   1.251   4.096   2.968  0.9815 -1.0280 -1.1477
 1600TIP3    H2 4765   1.131   4.007   2.943 -0.3703  0.3962  0.0689
 1601TIP3   OH2 4766   7.232   2.816   1.467  0.0199  0.5913 -0.4221
 1601TIP3    H1 4767   7.156   2.828   1.523  0.4669  1.2045  0.0626
 1601TIP3    H2 4768   7.204   2.846   1.381 -0.5529 -0.0097 -0.4495
 1602TIP3   OH2 4769   2.506   3.437   5.415 -0.1924  0.1688 -0.0552
 1602TIP3    H1 4770   2.423   3.421   5.371 -0.4642  0.5168  0.3203
 1602TIP3    H2 4771   2.572   3.396   5.359 -0.7332 -1.2012  0.2600
 1603TIP3   OH2 4772   3.459   0.167   5.429  0.2037  0.2448 -0.0482
 1603TIP3    H1 4773   3.374   0.141   5.393  0.0025 -0.2155  0.7280
 1603TIP3    H2 4774   3.520   0.154   5.357 -0.4154  0.8292 -0.6999
 1604TIP3   OH2 4775   0.625   2.323   3.141  0.5280  0.4740  0.0949
 1604TIP3    H1 4776   0.669   2.355   3.220 -0.0518  0.0619  0.5952
 1604TIP3    H2 4777   0.537   2.301   3.170  0.8731 -1.5488 -0.2006
 1605TIP3   OH2 4778   0.405   6.651   3.400  0.1078  0.6975  0.4603
 1605TIP3    H1 4779   0.311   6.645   3.384  0.4193 -0.5886 -1.0849
 1605TIP3    H2 4780   0.415   6.729   3.455 -1.7715  1.2859  0.0341
 1606TIP3   OH2 4781   0.983   2.415   3.900 -0.0981  0.0856 -0.1040
 1606TIP3    H1 4782   0.988   2.367   3.983 -0.2005 -1.0418 -0.7293
 1606TIP3    H2 4783   1.074   2.438   3.880  0.0154 -0.3116 -0.0541
 1607TIP3   OH2 4784   5.647   0.443   1.359  0.0037  0.1998 -0.0883
 1607TIP3    H1 4785   5.602   0.359   1.368  0.2799  0.0193 -0.3666
 1607TIP3    H2 4786   5.588   0.506   1.400 -0.4785 -0.0420 -0.3957
 1608TIP3   OH2 4787   0.501   5.212   4.881 -0.0224  0.0621 -0.3056
 1608TIP3    H1 4788   0.486   5.229   4.788  1.2923 -3.2664 -1.2805
 1608TIP3    H2 4789   0.597   5.216   4.890 -0.0698 -0.7068  0.6304
 1609TIP3   OH2 4790   1.158   3.194   5.731  0.5527  0.0979 -0.1191
 1609TIP3    H1 4791   1.221   3.183   5.802  1.8587  0.0230 -1.2585
 1609TIP3    H2 4792   1.086   3.134   5.754 -0.6944  2.4762  2.8271
 1610TIP3   OH2 4793   6.638   2.642   2.192  0.6957 -0.2318  0.2042
 1610TIP3    H1 4794   6.608   2.552   2.181  0.0572 -0.2129  1.6058
 1610TIP3    H2 4795   6.561   2.696   2.173  0.6538 -0.0605  0.8174
 1611TIP3   OH2 4796   4.245   2.897   3.492 -0.0421  0.0369  0.1630
 1611TIP3    H1 4797   4.203   2.979   3.466  0.6630  0.0633 -0.9766
 1611TIP3    H2 4798   4.230   2.890   3.586 -2.3617  0.1735 -0.1420
 1612TIP3   OH2 4799   5.395   1.740   4.181 -0.2992  0.8970 -0.2958
 1612TIP3    H1 4800   5.313   1.784   4.160 -0.9124 -0.0571  0.0749
 1612TIP3    H2 4801   5.375   1.647   4.175  0.5051  0.6423  0.7064
 1613TIP3   OH2 4802   1.518   5.373   4.444  0.5110  0.1572 -0.1685
 1613TIP3    H1 4803   1.467   5.452   4.428 -0.1411 -0.2411 -0.0928
 1613TIP3    H2 4804   1.453   5.308   4.471  1.3070  0.2451  2.1331
 1614TIP3   OH2 4805   1.043   6.161   2.170 -0.0496 -0.2262  0.5544
 1614TIP3    H1 4806   1.022   6.254   2.165 -2.2773 -0.6782  0.4648
 1614TIP3    H2 4807   1.089   6.142   2.088 -0.5074  0.5865  0.1028
 1615TIP3   OH2 4808   1.822   3.309   1.334 -0.4125 -0.3054  0.0019
 1615TIP3    H1 4809   1.743   3.333   1.381 -1.2748 -2.0783 -0.4530
 1615TIP3    H2 4810   1.890   3.307   1.401 -0.9595  0.2438  0.5832
 1616TIP3   OH2 4811   1.906   0.773   5.311 -0.3053  0.1133  0.3357
 1616TIP3    H1 4812   1.840   0.758   5.379  0.8156  0.4735  1.5338
 1616TIP3    H2 4813   1.988   0.785   5.359  0.5660  0.1256 -1.0997
 1617TIP3   OH2 4814   1.397   0.458   3.096  0.7321  0.2051 -0.6709
 1617TIP3    H1 4815   1.407   0.502   3.011 -0.0412  0.1066 -0.8192
 1617TIP3    H2 4816   1.347   0.520   3.149  0.4562 -0.0997 -0.5736
 1618TIP3   OH2 4817   4.979   5.160   0.295 -0.7080  0.2191  0.3168
 1618TIP3    H1 4818   4.922   5.228   0.258 -0.7965 -0.3616 -0.6282
 1618TIP3    H2 4819   5.003   5.105   0.221  1.7147  0.8621  0.5405
 1619TIP3   OH2 4820   6.907   2.864   2.416 -0.2949 -0.1157  0.0165
 1619TIP3    H1 4821   6.923   2.802   2.488  0.8502  0.2294  0.0687
 1619TIP3    H2 4822   6.927   2.814   2.337  2.1464  0.6036  0.1219
 1620TIP3   OH2 4823   6.237   3.946   1.361  0.3080  0.0273 -0.5048
 1620TIP3    H1 4824   6.195   4.023   1.401 -0.0796 -0.2657 -0.3403
 1620TIP3    H2 4825   6.165   3.897   1.323  0.4860 -0.5467 -0.1095
 1621TIP3   OH2 4826   6.012   5.709   4.432 -0.2840  0.1408 -0.1460
 1621TIP3    H1 4827   6.064   5.646   4.484 -0.3722 -0.6446 -0.9836
 1621TIP3    H2 4828   6.076   5.750   4.374 -0.7139 -1.7094 -2.0490
 1622TIP3   OH2 4829   4.303   6.191   3.822 -0.2636 -0.4605  0.5037
 1622TIP3    H1 4830   4.295   6.097   3.836  1.6265 -0.6520  0.6200
 1622TIP3    H2 4831   4.382   6.200   3.768 -0.7163  1.0333  0.0397
 1623TIP3   OH2 4832   4.134   2.171   1.797  0.1030  0.3092  0.6199
 1623TIP3    H1 4833   4.135   2.207   1.886 -0.1414 -0.3841  0.9149
 1623TIP3    H2 4834   4.207   2.109   1.796  1.1638  1.5294 -0.2009
 1624TIP3   OH2 4835   3.741   6.327   1.887 -0.1502 -0.3042 -0.4346
 1624TIP3    H1 4836   3.796   6.250   1.904 -0.1622 -0.3731 -0.6973
 1624TIP3    H2 4837   3.695   6.306   1.806  1.0189  0.6140 -1.3800
 1625TIP3   OH2 4838   2.922   3.429   2.399  0.6009 -0.1357 -0.2176
 1625TIP3    H1 4839   2.970   3.510   2.416  1.8269 -0.8821  0.0038
 1625TIP3    H2 4840   2.935   3.377   2.479 -0.6860 -0.3213 -0.1057
 1626TIP3   OH2 4841   1.681   5.197   4.775 -0.1957  0.0324  0.2387
 1626TIP3    H1 4842   1.734   5.195   4.695 -0.2867  2.2451  0.0846
 1626TIP3    H2 4843   1.594   5.169   4.746 -0.6189  2.2616 -0.8081
 1627TIP3   OH2 4844   4.807   6.066   2.925 -0.1197  0.4223  0.0740
 1627TIP3    H1 4845   4.881   6.126   2.939  0.0692  0.4565 -0.9894
 1627TIP3    H2 4846   4.834   5.985   2.968 -1.0635  1.5260  3.0044
 1628TIP3   OH2 4847   5.773   1.577   4.669 -0.6188 -0.1838  0.3924
 1628TIP3    H1 4848   5.742   1.617   4.751 -0.5235  2.1338 -0.6078
 1628TIP3    H2 4849   5.739   1.634   4.600  3.9068  1.4019 -0.9014
 1629TIP3   OH2 4850   4.044   2.879   2.821 -0.2086  0.5552 -0.8558
 1629TIP3    H1 4851   4.102   2.840   2.886  1.1442  1.3924 -1.5104
 1629TIP3    H2 4852   3.980   2.811   2.802 -0.6100  0.2672  1.2740
 1630TIP3   OH2 4853   0.704   5.861   4.058  0.5836  0.0258 -0.3084
 1630TIP3    H1 4854   0.661   5.878   4.142  1.5424  0.7480  0.0547
 1630TIP3    H2 4855   0.797   5.861   4.078  0.7793 -1.4961 -1.0890
 1631TIP3   OH2 4856   3.917   1.861   0.561 -0.3516  0.7684 -0.1083
 1631TIP3    H1 4857   3.985   1.926   0.577  0.1758 -0.0283  0.9538
 1631TIP3    H2 4858   3.865   1.899   0.490  0.8765  1.6287 -0.5916
 1632TIP3   OH2 4859   2.342   1.757   2.648  0.3872 -0.9269  0.1304
 1632TIP3    H1 4860   2.321   1.827   2.710  1.5565 -1.3867  1.0724
 1632TIP3    H2 4861   2.396   1.800   2.581 -0.3691 -0.5659 -0.2687
 1633TIP3   OH2 4862   1.199   3.296   1.890 -0.6170 -0.3740 -0.2321
 1633TIP3    H1 4863   1.211   3.204   1.866 -1.3950 -0.1353 -1.6140
 1633TIP3    H2 4864   1.144   3.293   1.968 -1.9229 -1.0573 -1.1380
 1634TIP3   OH2 4865   0.604   1.594   1.609  0.6133 -0.2313  0.0481
 1634TIP3    H1 4866   0.665   1.657   1.571  0.6216  0.6210  1.3841
 1634TIP3    H2 4867   0.561   1.553   1.534  1.7087  0.2627 -0.8826
 1635TIP3   OH2 4868   5.797   6.334   1.663  0.0075  0.3330 -0.0084
 1635TIP3    H1 4869   5.849   6.406   1.699  1.0940  0.1722 -1.1909
 1635TIP3    H2 4870   5.860   6.280   1.615 -1.1704 -0.1084 -1.1258
 1636TIP3   OH2 4871   0.588   2.319   1.436 -0.0483  0.7356  0.2233
 1636TIP3    H1 4872   0.500   2.351   1.454 -1.1098 -2.2373  0.8245
 1636TIP3    H2 4873   0.622   2.292   1.522  0.8381  0.3772 -0.2205
 1637TIP3   OH2 4874   0.040   2.130   4.829  0.4494 -0.2584  0.2904
 1637TIP3    H1 4875   0.011   2.214   4.864  0.0533 -0.4013  0.3079
 1637TIP3    H2 4876   0.125   2.149   4.789  0.3899  0.1376  0.3469
 1638TIP3   OH2 4877   4.636   0.236   1.906  0.1398  0.4548 -0.5732
 1638TIP3    H1 4878   4.677   0.190   1.833  0.6143 -0.7261  0.4100
 1638TIP3    H2 4879   4.605   0.318   1.868  0.0979 -0.2674 -2.1617
 1639TIP3   OH2 4880   0.696   0.078   1.588 -0.5307 -0.4638  0.0099
 1639TIP3    H1 4881   0.723   0.067   1.497  1.0415 -1.7876  0.5768
 1639TIP3    H2 4882   0.617   0.025   1.597 -0.9461  0.0264 -0.6759
 1640TIP3   OH2 4883   6.602   3.409   0.121 -0.0681 -0.1421  0.0148
 1640TIP3    H1 4884   6.556   3.340   0.169 -1.4315  0.2524 -0.6701
 1640TIP3    H2 4885   6.633   3.469   0.189 -0.8677 -0.2518  0.4947
 1641TIP3   OH2 4886   2.230   0.315   5.177  0.5409  0.1320  0.1941
 1641TIP3    H1 4887   2.263   0.346   5.092  1.7687 -0.3081  0.4827
 1641TIP3    H2 4888   2.207   0.394   5.224  2.1491  0.5615  0.3312
 1642TIP3   OH2 4889   0.957   0.866   0.661  0.0426 -0.8280 -0.6198
 1642TIP3    H1 4890   0.909   0.806   0.603 -0.5312 -1.2091  0.2234
 1642TIP3    H2 4891   1.049   0.848   0.643 -0.1271 -0.8974 -1.4537
 1643TIP3   OH2 4892   5.702   6.477   4.451  0.1987  0.5037 -0.0176
 1643TIP3    H1 4893   5.701   6.382   4.444  0.1340  0.4544  0.6280
 1643TIP3    H2 4894   5.772   6.505   4.391 -0.5833  0.1408 -1.1313
 1644TIP3   OH2 4895   5.116   0.189   0.354  0.5931 -0.3376 -0.6671
 1644TIP3    H1 4896   5.180   0.196   0.284  1.0368  0.4080 -0.2056
 1644TIP3    H2 4897   5.139   0.260   0.415 -1.2521  0.5868 -0.9598
 1645TIP3   OH2 4898   2.267   5.934   2.053  0.1111  0.2347 -0.2713
 1645TIP3    H1 4899   2.184   5.911   2.012 -0.9419  0.9705  1.3363
 1645TIP3    H2 4900   2.254   5.915   2.146  2.0352 -0.3745 -0.0799
 1646TIP3   OH2 4901   1.207   0.736   1.709  0.2427 -0.2491 -0.1893
 1646TIP3    H1 4902   1.261   0.660   1.687  0.0077 -0.7726  1.0227
 1646TIP3    H2 4903   1.181   0.722   1.799  2.2115  2.4628  0.9322
 1647TIP3   OH2 4904   5.205   5.486   2.225 -0.4564 -0.1972  0.4736
 1647TIP3    H1 4905   5.290   5.528   2.235  0.4144 -2.0034  1.0217
 1647TIP3    H2 4906   5.153   5.520   2.298  0.4292 -0.5264  1.2787
 1648TIP3   OH2 4907   1.635   5.983   2.636  0.0711 -0.5263  0.3065
 1648TIP3    H1 4908   1.619   6.027   2.552  0.0696 -1.1921 -0.0462
 1648TIP3    H2 4909   1.588   5.900   2.629  0.8613 -1.0097  0.5807
 1649TIP3   OH2 4910   5.226   6.277   2.406  0.1048 -0.0539  0.0372
 1649TIP3    H1 4911   5.278   6.213   2.456  0.8753 -1.3298 -2.2560
 1649TIP3    H2 4912   5.260   6.362   2.433  1.2017 -0.7329  0.9064
 1650TIP3   OH2 4913   1.631   6.762   2.316 -0.2319 -0.6038 -0.3968
 1650TIP3    H1 4914   1.537   6.744   2.323 -0.3696 -0.1312 -0.8801
 1650TIP3    H2 4915   1.667   6.686   2.270 -0.4075 -0.7152 -0.3492
 1651TIP3   OH2 4916   0.802   6.132   3.959  0.3575  0.0752  0.1672
 1651TIP3    H1 4917   0.713   6.121   3.926  0.2554 -2.3080  1.0020
 1651TIP3    H2 4918   0.790   6.165   4.049  0.4079  1.0621 -0.1736
 1652TIP3   OH2 4919   2.931   0.666   1.335  0.4224 -0.3630  0.3241
 1652TIP3    H1 4920   2.879   0.586   1.327 -0.3764  0.0657  1.0387
 1652TIP3    H2 4921   2.877   0.734   1.293 -0.6779  0.5338  2.9863
 1653TIP3   OH2 4922   0.619   0.742   4.594  0.2518 -0.0404 -0.1700
 1653TIP3    H1 4923   0.641   0.833   4.574  0.4351  0.1518  0.8059
 1653TIP3    H2 4924   0.541   0.724   4.543  0.6699  0.4052 -0.9965
 1654TIP3   OH2 4925   3.883   0.031   0.831 -0.5941 -0.2576 -0.1793
 1654TIP3    H1 4926   3.840  -0.044   0.789  0.9173 -0.1987 -1.9463
 1654TIP3    H2 4927   3.911   0.086   0.758 -1.7073  2.1092  1.0602
 1655TIP3   OH2 4928   3.379   1.466   1.404  0.4376 -0.2144 -0.2523
 1655TIP3    H1 4929   3.455   1.485   1.458  0.1306  2.5278 -0.5988
 1655TIP3    H2 4930   3.414   1.432   1.322  1.3390  1.0790 -0.4296
 1656TIP3   OH2 4931   6.427   0.848   1.499  0.0203  0.4209 -0.2391
 1656TIP3    H1 4932   6.378   0.831   1.418 -1.0816 -0.8937  0.6359
 1656TIP3    H2 4933   6.453   0.761   1.529  0.5393  0.9020  0.7404
 1657TIP3   OH2 4934   1.471   5.461   2.240 -0.4883  0.1587  0.1351
 1657TIP3    H1 4935   1.526   5.382   2.238  1.0101  1.1557  0.6547
 1657TIP3    H2 4936   1.458   5.483   2.147  2.0156  1.2186 -0.0486
 1658TIP3   OH2 4937   3.955   6.401   0.592 -0.1130 -0.1109 -0.5692
 1658TIP3    H1 4938   3.906   6.325   0.622 -0.7519  0.2835 -0.5875
 1658TIP3    H2 4939   4.043   6.390   0.630  0.1109 -1.3445 -1.3669
 1659TIP3   OH2 4940   0.873   0.558   0.939  0.0772  0.3288  0.0082
 1659TIP3    H1 4941   0.794   0.610   0.951  0.3307  1.0364 -1.2131
 1659TIP3    H2 4942   0.842   0.472   0.912 -0.3223  0.0575  1.2948
 1660TIP3   OH2 4943   2.673   1.521   5.030  0.1398 -1.0277  1.0273
 1660TIP3    H1 4944   2.767   1.508   5.019  0.2079  0.2147 -0.0884
 1660TIP3    H2 4945   2.665   1.555   5.120  0.6885 -1.6451  1.3182
 1661TIP3   OH2 4946   1.708   6.122   3.856 -0.0506 -0.4699  0.6289
 1661TIP3    H1 4947   1.677   6.037   3.823 -2.2715  0.3698  0.4279
 1661TIP3    H2 4948   1.636   6.155   3.910  0.8588  1.2044  0.8787
 1662TIP3   OH2 4949   0.572   3.090   3.618 -0.5357  0.0234 -0.4230
 1662TIP3    H1 4950   0.647   3.097   3.676 -0.9110 -0.6172  0.1618
 1662TIP3    H2 4951   0.532   3.006   3.641 -0.3281 -0.5467 -2.0621
 1663TIP3   OH2 4952   3.374   4.027   2.780  0.0077 -0.2967  0.0361
 1663TIP3    H1 4953   3.297   3.972   2.766  0.3863 -0.6917 -0.5310
 1663TIP3    H2 4954   3.448   3.968   2.769  0.4129  0.2575 -0.2603
 1664TIP3   OH2 4955   2.242   2.814   4.128 -0.3204 -0.1467  0.5106
 1664TIP3    H1 4956   2.333   2.831   4.155  0.0106 -1.4136  0.2419
 1664TIP3    H2 4957   2.248   2.797   4.034 -1.0928  1.4439  0.1344
 1665TIP3   OH2 4958   2.777   4.573   5.380  0.0010 -0.1379 -0.5902
 1665TIP3    H1 4959   2.704   4.528   5.337 -0.0771 -1.7413  1.1006
 1665TIP3    H2 4960   2.736   4.642   5.432 -0.4749 -1.7032  1.1901
 1666TIP3   OH2 4961   6.621   3.145   2.558  0.1148 -0.2218  0.1060
 1666TIP3    H1 4962   6.642   3.054   2.537  0.6840  0.0968 -0.7480
 1666TIP3    H2 4963   6.655   3.196   2.484 -1.6258  0.5487 -0.2272
 1667TIP3   OH2 4964   3.883   6.702   4.025 -0.5350  0.1929  0.3770
 1667TIP3    H1 4965   3.899   6.790   4.057  2.0930 -0.6898  1.7799
 1667TIP3    H2 4966   3.877   6.711   3.930  1.9861  1.6642  0.2830
 1668TIP3   OH2 4967   6.647   6.586   0.241  0.4757 -0.1704 -0.0849
 1668TIP3    H1 4968   6.583   6.653   0.220  0.6451  0.0086 -0.0278
 1668TIP3    H2 4969   6.691   6.618   0.320  1.9737  0.6390 -1.1985
 1669TIP3   OH2 4970   1.751   0.027   5.293 -0.3259 -0.3462 -0.1831
 1669TIP3    H1 4971   1.789   0.051   5.377  2.1542 -0.7269 -1.1068
 1669TIP3    H2 4972   1.731   0.110   5.251  2.1141  0.0495 -0.7266
 1670TIP3   OH2 4973   2.385   0.641   4.072  0.3860 -0.3228  0.1491
 1670TIP3    H1 4974   2.315   0.686   4.120 -0.7869  0.1553 -1.8706
 1670TIP3    H2 4975   2.466   0.678   4.107 -0.2921 -1.0610  2.7334
 1671TIP3   OH2 4976   2.306   5.028   0.347  0.1798  0.1860 -0.6076
 1671TIP3    H1 4977   2.366   4.953   0.356 -0.3794 -0.1121  1.0609
 1671TIP3    H2 4978   2.234   4.995   0.294  0.1776 -0.3162 -0.3009
 1672TIP3   OH2 4979   4.459   0.089   3.306  0.1359  0.4871  0.0448
 1672TIP3    H1 4980   4.531   0.027   3.292  0.1944  0.7988 -1.1449
 1672TIP3    H2 4981   4.503   0.169   3.335  0.2149  0.4924 -0.0874
 1673TIP3   OH2 4982   4.905   5.201   0.953  0.1114 -0.0904 -0.1835
 1673TIP3    H1 4983   4.899   5.223   1.046  0.1867 -3.1341  0.6429
 1673TIP3    H2 4984   4.998   5.210   0.932  0.4046 -1.1536  0.5753
 1674TIP3   OH2 4985   5.631   1.458   4.073  0.0386  0.2926 -0.1900
 1674TIP3    H1 4986   5.637   1.545   4.035  0.0735  0.6883  0.6834
 1674TIP3    H2 4987   5.663   1.469   4.163  1.8709 -0.9971 -0.6238
 1675TIP3   OH2 4988   4.662   6.568   1.556 -0.3806 -0.3391  0.1526
 1675TIP3    H1 4989   4.718   6.565   1.634  0.0063  0.2066 -0.1007
 1675TIP3    H2 4990   4.669   6.658   1.524  1.5659 -1.1521 -2.0271
 1676TIP3   OH2 4991   3.589   5.791   4.559  0.3894  0.1571  0.1964
 1676TIP3    H1 4992   3.613   5.880   4.534  0.8462  0.1099  0.4706
 1676TIP3    H2 4993   3.519   5.802   4.623 -0.2786  0.2932 -0.5331
 1677TIP3   OH2 4994   5.939   4.852   5.726 -0.2322 -0.0447 -0.1433
 1677TIP3    H1 4995   5.881   4.920   5.693 -1.7018 -1.3856 -0.4220
 1677TIP3    H2 4996   5.887   4.772   5.724  0.7981 -0.8654  1.9637
 1678TIP3   OH2 4997   3.591   5.987   0.396 -0.0792  0.4823  0.0670
 1678TIP3    H1 4998   3.677   5.978   0.354  0.1075 -0.0546  0.5481
 1678TIP3    H2 4999   3.603   5.948   0.483 -1.2063 -1.0100 -0.4017
 1679TIP3   OH2 5000   1.012   1.505   0.195  0.2550 -0.5773  0.2753
 1679TIP3    H1 5001   0.926   1.482   0.160 -0.1107  1.5930 -0.3609
 1679TIP3    H2 5002   1.073   1.480   0.125 -0.3845  2.7349 -1.6899
 1680TIP3   OH2 5003   2.136   1.561   0.453 -0.0052 -0.1430  0.3725
 1680TIP3    H1 5004   2.199   1.490   0.444  1.5018  1.3012 -1.2107
 1680TIP3    H2 5005   2.160   1.603   0.536 -0.4049 -0.9684  0.9247
 1681TIP3   OH2 5006   4.143   1.161   2.604 -0.5022 -0.1985 -0.4114
 1681TIP3    H1 5007   4.081   1.214   2.653 -1.5269  0.4390 -2.3129
 1681TIP3    H2 5008   4.154   1.207   2.521  1.9092 -0.7241 -0.4620
 1682TIP3   OH2 5009   3.445   3.494   3.933  0.0287 -0.4084  0.0308
 1682TIP3    H1 5010   3.359   3.533   3.919 -0.9980 -2.2182  0.9326
 1682TIP3    H2 5011   3.444   3.414   3.880  0.7306 -0.9966  0.8744
 1683TIP3   OH2 5012   7.112   1.414   4.438  0.4389  0.3070 -0.2477
 1683TIP3    H1 5013   7.164   1.475   4.490 -0.2433  0.6858  0.0056
 1683TIP3    H2 5014   7.165   1.398   4.360  1.0721  0.4310  0.1515
 1684TIP3   OH2 5015   4.138   0.069   3.909 -0.6866 -0.1861 -0.2997
 1684TIP3    H1 5016   4.172   0.156   3.933  2.2837 -0.8774 -1.5739
 1684TIP3    H2 5017   4.071   0.088   3.842 -1.5674  1.1640  0.8923
 1685TIP3   OH2 5018   2.495   3.070   4.623  0.0872 -0.1681  0.1096
 1685TIP3    H1 5019   2.531   3.006   4.684  1.8653  0.4909 -0.1900
 1685TIP3    H2 5020   2.434   3.122   4.675 -0.5849 -1.4037  0.5994
 1686TIP3   OH2 5021   3.671   4.452   4.200  0.8749  0.0557 -0.9305
 1686TIP3    H1 5022   3.728   4.436   4.276 -0.4427 -0.5230 -0.0344
 1686TIP3    H2 5023   3.590   4.406   4.220  0.2634  0.4148 -2.4278
 1687TIP3   OH2 5024   5.279   0.531   0.830 -0.1241 -0.7301 -0.4432
 1687TIP3    H1 5025   5.271   0.590   0.905  0.2908 -0.4492 -0.6185
 1687TIP3    H2 5026   5.344   0.466   0.857 -1.3963 -1.8083  0.1927
 1688TIP3   OH2 5027   5.692   4.314   5.064  0.6098 -0.1834 -0.3167
 1688TIP3    H1 5028   5.625   4.252   5.094  0.0972  1.3330  1.9100
 1688TIP3    H2 5029   5.643   4.389   5.032  1.2499 -0.3094 -1.6758
 1689TIP3   OH2 5030   0.984   0.364   5.630  0.0406 -0.2581 -0.0836
 1689TIP3    H1 5031   0.901   0.402   5.657  0.8489  0.5666  1.3726
 1689TIP3    H2 5032   0.986   0.278   5.672 -0.5336 -0.7494 -1.0266
 1690TIP3   OH2 5033   5.581   5.192   5.082 -0.4191 -0.2223 -0.1118
 1690TIP3    H1 5034   5.496   5.185   5.038 -0.4115 -1.8951  0.1045
 1690TIP3    H2 5035   5.593   5.108   5.125  0.6628  0.5472  1.1521
 1691TIP3   OH2 5036   3.549   6.510   2.124 -0.3587 -0.2238 -0.0802
 1691TIP3    H1 5037   3.644   6.502   2.119 -0.4744 -1.4028 -0.9115
 1691TIP3    H2 5038   3.526   6.473   2.209 -0.1315 -0.8040 -0.2635
 1692TIP3   OH2 5039   6.822   4.011   5.520 -0.1955  0.0477  0.1783
 1692TIP3    H1 5040   6.742   4.026   5.570 -0.6680  2.1519 -1.0825
 1692TIP3    H2 5041   6.887   4.067   5.562  0.1598 -0.3236  0.1325
 1693TIP3   OH2 5042   6.476   5.282   2.160 -0.2126  0.4109 -0.0098
 1693TIP3    H1 5043   6.526   5.266   2.239 -0.9797  1.3937  0.6996
 1693TIP3    H2 5044   6.541   5.310   2.095  0.4771 -0.8170  0.1246
 1694TIP3   OH2 5045   1.371   3.330   0.720  0.2673  0.4409 -0.4266
 1694TIP3    H1 5046   1.461   3.311   0.694 -0.5346 -0.7251 -2.5965
 1694TIP3    H2 5047   1.369   3.314   0.814  2.1957  0.0117 -0.4190
 1695TIP3   OH2 5048   5.677   0.274   2.007 -0.2740 -0.1275 -0.3196
 1695TIP3    H1 5049   5.590   0.251   2.041 -1.0009  0.6179 -1.6028
 1695TIP3    H2 5050   5.710   0.193   1.968 -0.5922 -0.2996 -0.2324
 1696TIP3   OH2 5051   6.447   5.818   2.949  0.4899 -0.1996 -0.2039
 1696TIP3    H1 5052   6.499   5.844   3.025  0.4140 -2.1119  0.5717
 1696TIP3    H2 5053   6.447   5.895   2.892  0.6957  1.2390  1.6325
 1697TIP3   OH2 5054   1.962   4.535   2.688 -0.1083 -0.3044  0.5021
 1697TIP3    H1 5055   1.966   4.548   2.593 -1.4715  0.3920  0.5100
 1697TIP3    H2 5056   1.868   4.534   2.708  0.1308 -1.7191  1.6951
 1698TIP3   OH2 5057   3.030   4.125   4.403  0.0169  0.8267  0.0739
 1698TIP3    H1 5058   3.015   4.075   4.323 -1.9769  2.3881 -0.6100
 1698TIP3    H2 5059   2.981   4.079   4.471  0.6937  0.1950  0.1456
 1699TIP3   OH2 5060   2.596   6.194   2.698 -0.1973  0.2602 -0.0616
 1699TIP3    H1 5061   2.544   6.258   2.649 -0.7728 -0.4774 -0.4550
 1699TIP3    H2 5062   2.644   6.147   2.630 -1.6365 -1.3382 -0.0467
 1700TIP3   OH2 5063   0.254   3.017   3.880  0.2033 -0.3958 -0.4212
 1700TIP3    H1 5064   0.237   3.013   3.975  1.1309 -1.7240 -0.2893
 1700TIP3    H2 5065   0.229   3.106   3.856  1.2977  0.4500  1.3515
 1701TIP3   OH2 5066   5.979   6.782   2.457 -0.6971 -0.5839 -0.5805
 1701TIP3    H1 5067   5.976   6.870   2.420 -0.9303 -0.4024 -0.1319
 1701TIP3    H2 5068   6.006   6.726   2.383  1.7889  0.1550 -0.3118
 1702TIP3   OH2 5069   4.727   1.243   5.351  0.1550  0.4194 -0.7545
 1702TIP3    H1 5070   4.804   1.227   5.405 -0.8406  1.5860  1.1492
 1702TIP3    H2 5071   4.756   1.304   5.283  0.9887  0.5672 -0.2709
 1703TIP3   OH2 5072   3.073   2.090   1.706 -0.0005 -0.2221  0.0701
 1703TIP3    H1 5073   3.135   2.065   1.637  0.0908  0.3204 -0.0439
 1703TIP3    H2 5074   3.120   2.073   1.787 -0.4354 -1.7486  0.0350
 1704TIP3   OH2 5075   4.225   6.232   1.997  0.0284  0.0431 -0.4074
 1704TIP3    H1 5076   4.293   6.240   2.064 -1.0776 -0.7729  0.8368
 1704TIP3    H2 5077   4.170   6.160   2.026 -0.9338  0.1707 -1.8066
 1705TIP3   OH2 5078   5.132   6.448   4.772  0.2732  0.2461  0.3314
 1705TIP3    H1 5079   5.167   6.375   4.721 -0.4761 -0.2699  0.5362
 1705TIP3    H2 5080   5.040   6.424   4.787  0.3186  0.6941  1.3635
 1706TIP3   OH2 5081   5.129   6.093   2.148  0.3726  0.9906  0.1484
 1706TIP3    H1 5082   5.096   6.182   2.157  1.0895  1.4266 -1.2229
 1706TIP3    H2 5083   5.185   6.095   2.070  3.0949  0.1555  1.8929
 1707TIP3   OH2 5084   5.696   3.783   5.082  0.2347 -0.2478 -0.2489
 1707TIP3    H1 5085   5.601   3.794   5.075  0.0269  0.4000  2.5820
 1707TIP3    H2 5086   5.707   3.706   5.137  1.2778  1.0115  1.3603
 1708TIP3   OH2 5087   6.572   1.757   5.537 -0.2896  0.0761 -0.1097
 1708TIP3    H1 5088   6.499   1.750   5.599 -0.2565 -0.8278 -0.1672
 1708TIP3    H2 5089   6.532   1.748   5.451 -0.4454  2.1039 -0.3032
 1709TIP3   OH2 5090   4.710   3.660   0.631  0.6615 -0.6214 -0.0345
 1709TIP3    H1 5091   4.757   3.578   0.648  1.8141  0.2501  1.2299
 1709TIP3    H2 5092   4.724   3.712   0.710  0.2037  0.9123 -0.9262
 1710TIP3   OH2 5093   2.489   3.334   1.176 -0.7353  0.5369 -0.0233
 1710TIP3    H1 5094   2.579   3.305   1.195  0.0716  2.7102 -0.2059
 1710TIP3    H2 5095   2.468   3.294   1.092  0.8765  1.5208 -0.9620
 1711TIP3   OH2 5096   0.320   0.173   4.174  0.3006 -0.0901  0.5805
 1711TIP3    H1 5097   0.384   0.240   4.154  0.4293  0.3436  2.2708
 1711TIP3    H2 5098   0.369   0.090   4.167  0.7709  0.1656  0.7710
 1712TIP3   OH2 5099   3.070   1.594   3.759  0.0883  0.4419  0.5201
 1712TIP3    H1 5100   3.035   1.647   3.830  0.4867  1.2255  0.1416
 1712TIP3    H2 5101   3.029   1.629   3.680 -0.7672 -0.7722  0.3965
 1713TIP3   OH2 5102   4.348   5.567   0.818  0.2830  0.7098  0.0177
 1713TIP3    H1 5103   4.413   5.586   0.750 -0.0551  0.2324 -0.4493
 1713TIP3    H2 5104   4.308   5.651   0.837  0.8898  0.9728  0.1552
 1714TIP3   OH2 5105   4.024   1.752   0.946 -0.2629 -0.1041 -0.2335
 1714TIP3    H1 5106   3.997   1.833   0.990 -0.7953 -0.9246  1.0023
 1714TIP3    H2 5107   4.021   1.685   1.014  0.6698 -1.0807 -1.1124
 1715TIP3   OH2 5108   4.682   3.001   2.753 -0.5330 -0.0801  1.0454
 1715TIP3    H1 5109   4.750   3.064   2.730 -0.5185 -0.4456  0.0111
 1715TIP3    H2 5110   4.674   2.945   2.676 -1.6726 -0.3450  1.3302
 1716TIP3   OH2 5111   5.604   4.110   4.738  0.5202 -0.2662 -0.3584
 1716TIP3    H1 5112   5.573   4.094   4.649 -2.9885  1.8933  0.2594
 1716TIP3    H2 5113   5.641   4.199   4.735 -0.0042 -0.0081  0.3632
 1717TIP3   OH2 5114   5.038   6.201   3.070  0.4902  0.4047  0.5490
 1717TIP3    H1 5115   5.074   6.195   2.982  0.4436  0.9277  0.4921
 1717TIP3    H2 5116   5.097   6.148   3.124  1.0047  0.7715  0.3502
 1718TIP3   OH2 5117   3.982   4.854   1.789  0.4084  0.4814  0.3086
 1718TIP3    H1 5118   3.890   4.830   1.784  0.2822  1.1905 -1.8648
 1718TIP3    H2 5119   4.028   4.772   1.805 -0.5427  0.0234  0.7504
 1719TIP3   OH2 5120   2.219   2.054   0.352  0.0466 -0.0108  0.2521
 1719TIP3    H1 5121   2.251   2.102   0.276 -1.6724  0.5524 -0.1655
 1719TIP3    H2 5122   2.187   1.972   0.317  1.7388 -0.9501  0.7851
 1720TIP3   OH2 5123   2.537   2.933   3.695 -0.0898  0.4343  0.3443
 1720TIP3    H1 5124   2.526   3.025   3.720  1.3119  0.6855  0.1126
 1720TIP3    H2 5125   2.540   2.886   3.778 -2.0557  0.4095  0.4458
 1721TIP3   OH2 5126   6.504   4.147   5.316  0.4402  0.2126 -0.4123
 1721TIP3    H1 5127   6.575   4.186   5.366  0.3332  1.4070 -1.1449
 1721TIP3    H2 5128   6.438   4.216   5.309  0.5904  0.2207 -2.4418
 1722TIP3   OH2 5129   2.480   2.270   0.709  0.0908 -0.5688  0.1315
 1722TIP3    H1 5130   2.530   2.338   0.664  0.1704 -0.2072  0.7601
 1722TIP3    H2 5131   2.451   2.212   0.639 -0.6365  0.5273 -0.5048
 1723TIP3   OH2 5132   2.035   5.338   5.679  0.2419 -0.6170  0.4796
 1723TIP3    H1 5133   1.959   5.357   5.734 -0.3174 -0.5017 -0.3194
 1723TIP3    H2 5134   2.088   5.277   5.731 -0.2414 -0.4533  1.1673
 1724TIP3   OH2 5135   6.087   5.475   4.736 -0.3620  0.2788  0.0959
 1724TIP3    H1 5136   6.169   5.514   4.767  0.5539 -0.0190 -1.8350
 1724TIP3    H2 5137   6.029   5.550   4.724 -0.4649  0.4821  1.6006
 1725TIP3   OH2 5138   2.267   1.772   0.141 -0.8635 -0.1947 -0.1502
 1725TIP3    H1 5139   2.233   1.785   0.052  0.6209  0.3288 -0.6701
 1725TIP3    H2 5140   2.304   1.684   0.139  1.2664  0.6553 -0.8120
 1726TIP3   OH2 5141   1.622   5.683   1.666 -0.3531 -0.1971  0.2105
 1726TIP3    H1 5142   1.541   5.699   1.616 -0.7489 -1.5130  0.3905
 1726TIP3    H2 5143   1.619   5.748   1.736 -0.1197  1.2427 -1.0578
 1727TIP3   OH2 5144   0.983   2.644   4.537  0.2273  0.3957 -0.0181
 1727TIP3    H1 5145   0.925   2.653   4.462 -0.5463  1.8465  0.7135
 1727TIP3    H2 5146   1.071   2.657   4.500 -0.0818  0.4432 -0.7651
 1728TIP3   OH2 5147   4.372   4.384   3.920  0.4731 -0.1722 -0.5613
 1728TIP3    H1 5148   4.416   4.426   3.846  2.0682 -0.6532  0.0786
 1728TIP3    H2 5149   4.382   4.290   3.903  1.7144 -0.3057  0.7011
 1729TIP3   OH2 5150   5.707   2.048   2.214  0.1806 -0.3434  0.2240
 1729TIP3    H1 5151   5.667   1.993   2.147  1.4172 -1.1349  0.1151
 1729TIP3    H2 5152   5.798   2.058   2.187  0.0533  1.6216  0.3385
 1730TIP3   OH2 5153   4.026   0.623   0.240 -0.0326 -0.3405 -0.6883
 1730TIP3    H1 5154   4.002   0.688   0.306 -1.4274 -1.3720 -0.1288
 1730TIP3    H2 5155   3.980   0.652   0.161  1.0092  0.4596 -1.0278
 1731TIP3   OH2 5156   3.896   4.581   3.914 -0.0065  0.0480  0.2415
 1731TIP3    H1 5157   3.972   4.577   3.855  0.7051  0.0794  1.1293
 1731TIP3    H2 5158   3.829   4.530   3.869  0.9861 -1.1393  0.0413
 1732TIP3   OH2 5159   0.245   0.755   2.637 -0.5854  0.2822 -0.6000
 1732TIP3    H1 5160   0.297   0.694   2.689 -1.6787  0.0415  0.2371
 1732TIP3    H2 5161   0.310   0.813   2.597  0.4713 -1.3529 -1.3544
 1733TIP3   OH2 5162   0.587   3.556   1.503  0.5479 -0.4054 -0.5745
 1733TIP3    H1 5163   0.525   3.541   1.431 -0.1353 -1.2573  0.1658
 1733TIP3    H2 5164   0.571   3.646   1.530 -2.1750 -1.3193  1.2238
 1734TIP3   OH2 5165   6.611   5.336   4.291 -0.0742 -0.0514  0.3212
 1734TIP3    H1 5166   6.584   5.247   4.269  3.6444 -1.2254 -0.2525
 1734TIP3    H2 5167   6.645   5.372   4.210 -1.0766  1.7955  0.6636
 1735TIP3   OH2 5168   6.357   6.384   4.851  0.0707  0.3478 -0.2300
 1735TIP3    H1 5169   6.379   6.476   4.857 -0.8656  0.4955  1.3715
 1735TIP3    H2 5170   6.324   6.373   4.762 -0.7924  1.7930 -0.1163
 1736TIP3   OH2 5171   5.772   4.592   5.773  0.4013 -0.0820  0.7545
 1736TIP3    H1 5172   5.827   4.525   5.733 -0.3730  0.9045 -2.2583
 1736TIP3    H2 5173   5.694   4.545   5.801  0.6980 -0.7417  0.5007
 1737TIP3   OH2 5174   3.556   6.399   5.756 -0.2284  0.7813 -0.2975
 1737TIP3    H1 5175   3.618   6.343   5.709 -2.5456 -2.3338  0.0776
 1737TIP3    H2 5176   3.536   6.350   5.836 -1.3886  2.8307  0.7330
 1738TIP3   OH2 5177   5.727   3.517   0.257 -0.6971  0.1893 -0.2555
 1738TIP3    H1 5178   5.794   3.478   0.201 -0.4138  0.7872 -0.3439
 1738TIP3    H2 5179   5.775   3.577   0.314 -1.0937  0.2463  0.0227
 1739TIP3   OH2 5180   5.749   1.842   1.284 -0.2372  0.3166  0.5581
 1739TIP3    H1 5181   5.783   1.930   1.266  0.6625 -0.2083 -0.4577
 1739TIP3    H2 5182   5.771   1.792   1.205 -3.2275 -0.1473 -0.0804
 1740TIP3   OH2 5183   6.650   4.319   5.498  0.2671  0.0063 -0.2017
 1740TIP3    H1 5184   6.562   4.356   5.507  0.0980 -0.1487 -1.1032
 1740TIP3    H2 5185   6.693   4.339   5.581 -1.5683 -2.4795  1.5222
 1741TIP3   OH2 5186   7.091   4.797   2.670 -0.8899 -0.9542 -0.0011
 1741TIP3    H1 5187   7.105   4.891   2.658  1.2667 -1.3397 -0.9060
 1741TIP3    H2 5188   7.013   4.792   2.726 -0.5023  1.3867  0.8927
 1742TIP3   OH2 5189   0.199   0.838   1.822  0.4525 -0.2150  0.2410
 1742TIP3    H1 5190   0.130   0.899   1.847  1.3843  0.3819  1.4370
 1742TIP3    H2 5191   0.228   0.799   1.904  1.8312 -0.1321 -0.1781
 1743TIP3   OH2 5192   4.456   5.802   1.166  0.0418 -0.2853  0.0747
 1743TIP3    H1 5193   4.425   5.893   1.166  1.0445  0.0727  0.1003
 1743TIP3    H2 5194   4.547   5.808   1.195 -0.1872 -1.4203  1.1161
 1744TIP3   OH2 5195   4.881   1.457   2.813 -0.1160 -0.2832 -0.6484
 1744TIP3    H1 5196   4.866   1.551   2.820  1.1351 -0.0359 -1.1922
 1744TIP3    H2 5197   4.836   1.420   2.890  0.1814  0.8490  0.0907
 1745TIP3   OH2 5198   1.821   0.340   1.570  0.7996  0.3660 -0.2216
 1745TIP3    H1 5199   1.894   0.288   1.603  1.3029  1.3255  0.2265
 1745TIP3    H2 5200   1.822   0.326   1.475  0.2606 -1.2514 -0.0199
 1746TIP3   OH2 5201   4.460   1.578   2.532  0.0799 -0.2349  0.0652
 1746TIP3    H1 5202   4.447   1.561   2.439 -0.0079  1.7257 -0.3117
 1746TIP3    H2 5203   4.552   1.558   2.547 -0.0486 -1.1610 -0.2748
 1747TIP3   OH2 5204   4.447   1.368   3.096 -0.1424  0.6306  0.3587
 1747TIP3    H1 5205   4.408   1.334   3.177  1.1767  0.8997  1.1371
 1747TIP3    H2 5206   4.464   1.461   3.115  1.2348  0.4275  0.2180
 1748TIP3   OH2 5207   1.746   2.159   1.842 -0.1277 -0.0933  0.3708
 1748TIP3    H1 5208   1.758   2.083   1.785  0.2118  1.6464 -2.0463
 1748TIP3    H2 5209   1.655   2.185   1.829  0.2053  0.8681 -0.1371
 1749TIP3   OH2 5210   3.150   0.617   2.536  0.6417 -0.2054  0.1286
 1749TIP3    H1 5211   3.073   0.613   2.479  1.0629  1.8903 -0.6954
 1749TIP3    H2 5212   3.121   0.578   2.619 -0.6589 -1.3082 -0.8018
 1750TIP3   OH2 5213   2.553   2.758   3.479  0.5220 -0.1188  0.2294
 1750TIP3    H1 5214   2.525   2.823   3.543 -1.2445 -0.3622 -0.2588
 1750TIP3    H2 5215   2.606   2.696   3.529 -0.4655 -0.0692  1.3727
 1751TIP3   OH2 5216   1.470   6.576   2.793  0.3158 -0.1265 -0.2028
 1751TIP3    H1 5217   1.527   6.602   2.721 -0.5296  0.5241 -0.6671
 1751TIP3    H2 5218   1.424   6.498   2.762 -0.3270  0.3736 -0.5332
 1752TIP3   OH2 5219   2.334   3.497   3.229 -0.1722 -0.2101  0.0897
 1752TIP3    H1 5220   2.282   3.417   3.221 -1.5733  0.6513  0.2703
 1752TIP3    H2 5221   2.358   3.520   3.140 -1.4339  0.2216 -0.1492
 1753TIP3   OH2 5222   6.071   0.023   2.848  0.0007  0.0802 -0.3091
 1753TIP3    H1 5223   6.021  -0.020   2.779 -1.6037 -1.1312  1.5095
 1753TIP3    H2 5224   6.016   0.095   2.877  0.0147 -0.2497  0.5857
 1754TIP3   OH2 5225   6.003   2.173   0.490  0.2909 -0.2935  0.3796
 1754TIP3    H1 5226   5.932   2.232   0.514  1.2057  0.8733  0.3321
 1754TIP3    H2 5227   6.079   2.231   0.479  1.0849 -1.4172 -0.2372
 1755TIP3   OH2 5228   4.601   3.093   1.983  0.2268 -0.3942 -0.7401
 1755TIP3    H1 5229   4.692   3.070   2.001 -0.2023 -2.2990 -0.7688
 1755TIP3    H2 5230   4.594   3.185   2.009  1.9308 -0.4563  0.0924
 1756TIP3   OH2 5231   0.280   4.702   5.203  0.2226 -0.4806  0.3045
 1756TIP3    H1 5232   0.367   4.700   5.242  0.4476  1.1788 -0.0746
 1756TIP3    H2 5233   0.234   4.773   5.247  0.3517  1.2082 -2.0981
 1757TIP3   OH2 5234   2.193   2.375   4.946  0.0146  0.0376  0.7271
 1757TIP3    H1 5235   2.244   2.300   4.977  0.3042  0.2424  0.7561
 1757TIP3    H2 5236   2.211   2.444   5.009 -2.1926 -0.5631  2.1159
 1758TIP3   OH2 5237   5.500   1.334   3.849  0.3454  0.2244 -0.0381
 1758TIP3    H1 5238   5.558   1.349   3.923  0.7057  1.8658 -0.6124
 1758TIP3    H2 5239   5.422   1.294   3.888  1.3602 -0.9371  0.8945
 1759TIP3   OH2 5240   6.158   5.756   5.065 -0.0830 -0.6508  0.0296
 1759TIP3    H1 5241   6.207   5.712   4.994  1.2549 -1.6343  1.4929
 1759TIP3    H2 5242   6.220   5.818   5.102 -0.8126 -0.0520  0.2704
 1760TIP3   OH2 5243   3.313   2.701   2.541 -0.0775  0.3258  0.0173
 1760TIP3    H1 5244   3.391   2.690   2.595  0.0720  1.6333  0.1004
 1760TIP3    H2 5245   3.305   2.796   2.529 -0.5563  0.1164 -1.6006
 1761TIP3   OH2 5246   1.025   5.414   1.415  0.2639 -0.2677  0.3898
 1761TIP3    H1 5247   1.121   5.417   1.412  0.2860 -1.1657 -1.8322
 1761TIP3    H2 5248   1.001   5.354   1.345 -1.9493 -0.1329  0.9559
 1762TIP3   OH2 5249   6.777   1.071   2.108  0.7289  0.1367  0.1069
 1762TIP3    H1 5250   6.708   1.121   2.153  0.5245 -0.6166  0.6528
 1762TIP3    H2 5251   6.740   1.051   2.022 -0.3983 -1.5933  0.9379
 1763TIP3   OH2 5252   6.845   3.457   4.293  0.2134 -0.4483 -0.5982
 1763TIP3    H1 5253   6.755   3.437   4.266 -0.0190 -2.7266  1.4354
 1763TIP3    H2 5254   6.868   3.386   4.353  1.6679  2.4690  2.6674
 1764TIP3   OH2 5255   2.296   0.943   0.750 -0.1728  0.2676 -0.3208
 1764TIP3    H1 5256   2.295   0.930   0.845 -1.5246  0.6111 -0.2686
 1764TIP3    H2 5257   2.222   0.891   0.718  1.2679 -1.2323 -1.4145
 1765TIP3   OH2 5258   3.414   2.787   0.271  0.1801 -0.4866 -0.4514
 1765TIP3    H1 5259   3.480   2.719   0.282  0.3581 -0.1675  0.5135
 1765TIP3    H2 5260   3.457   2.855   0.219  0.7658 -0.0863  0.5359
 1766TIP3   OH2 5261   5.607   4.900   3.082  0.1844  0.2723 -0.3607
 1766TIP3    H1 5262   5.610   4.973   3.143  1.4934  2.0679 -2.4219
 1766TIP3    H2 5263   5.698   4.868   3.080 -0.4736 -1.9258  0.9748
 1767TIP3   OH2 5264   0.216   4.928   5.365 -0.2097  0.1195  0.0392
 1767TIP3    H1 5265   0.307   4.959   5.365 -0.0775 -0.2630 -0.8566
 1767TIP3    H2 5266   0.165   5.005   5.339 -0.0575  0.1034 -0.3134
 1768TIP3   OH2 5267   1.735   4.550   4.432  0.3251 -0.1811 -0.2837
 1768TIP3    H1 5268   1.729   4.600   4.514  2.4270 -0.8481  0.3364
 1768TIP3    H2 5269   1.756   4.461   4.460 -0.9712 -0.8928 -1.4874
 1769TIP3   OH2 5270   2.486   4.693   2.708 -0.6331  0.1658 -0.2313
 1769TIP3    H1 5271   2.451   4.768   2.756 -0.0018 -0.0015  0.5048
 1769TIP3    H2 5272   2.567   4.670   2.754  0.6953  0.8082 -2.1447
 1770TIP3   OH2 5273   3.426   4.165   3.700 -0.3566  0.2593  0.2481
 1770TIP3    H1 5274   3.474   4.241   3.668 -1.8008  0.7147 -0.9804
 1770TIP3    H2 5275   3.464   4.146   3.785  2.4210  0.1783 -0.9052
 1771TIP3   OH2 5276   3.736   1.553   5.823  0.1659  0.3258 -0.1762
 1771TIP3    H1 5277   3.791   1.532   5.748 -2.2731  0.0620 -2.0132
 1771TIP3    H2 5278   3.690   1.633   5.797 -0.9919  0.0236  0.8688
 1772TIP3   OH2 5279   0.158   6.381   4.440 -0.0251  0.1365  0.6458
 1772TIP3    H1 5280   0.148   6.476   4.431 -2.0330 -0.0466  0.4815
 1772TIP3    H2 5281   0.109   6.345   4.366 -0.8990 -1.0498  1.7593
 1773TIP3   OH2 5282   6.750   0.128   3.089 -0.3562  0.1361  0.0440
 1773TIP3    H1 5283   6.705   0.103   3.009 -0.2148 -1.3537  0.3973
 1773TIP3    H2 5284   6.827   0.071   3.093 -1.1888 -0.9962  1.9954
 1774TIP3   OH2 5285   6.078   0.817   3.763  0.9450 -0.2935 -0.0698
 1774TIP3    H1 5286   6.064   0.871   3.685  1.2450 -0.7066 -0.4115
 1774TIP3    H2 5287   6.168   0.836   3.790  1.2281 -0.9941 -0.4881
 1775TIP3   OH2 5288   6.076   1.987   2.629  0.0881 -0.3717  0.6056
 1775TIP3    H1 5289   6.166   2.012   2.606  0.2300 -0.0632  1.4536
 1775TIP3    H2 5290   6.021   2.047   2.580  0.3115 -0.9574 -0.4070
 1776TIP3   OH2 5291   5.859   1.366   4.220  0.1936  0.3153  0.1796
 1776TIP3    H1 5292   5.944   1.409   4.221  0.8628 -0.8586 -1.6115
 1776TIP3    H2 5293   5.878   1.272   4.223 -0.9707  0.0069 -0.9208
 1777TIP3   OH2 5294   6.409   1.591   1.917 -0.3328  0.6505 -0.2527
 1777TIP3    H1 5295   6.486   1.607   1.972 -1.6791 -3.7503  3.5603
 1777TIP3    H2 5296   6.343   1.650   1.952 -0.0606  0.8554 -0.0758
 1778TIP3   OH2 5297   3.861   2.529   0.058 -0.2049  0.2940 -0.6463
 1778TIP3    H1 5298   3.918   2.603   0.078  0.4387  0.1249 -1.7557
 1778TIP3    H2 5299   3.908   2.480  -0.009 -1.5767  0.0533 -1.4816
 1779TIP3   OH2 5300   2.642   4.582   4.191  0.2995 -0.4098  0.4807
 1779TIP3    H1 5301   2.594   4.640   4.250 -0.5351 -2.1153  1.5555
 1779TIP3    H2 5302   2.641   4.628   4.107 -1.8698  0.3334  0.8402
 1780TIP3   OH2 5303   0.532   3.827   3.116 -0.3774  0.3483  0.5915
 1780TIP3    H1 5304   0.613   3.838   3.166  0.3685 -0.3649 -0.4268
 1780TIP3    H2 5305   0.495   3.915   3.111  0.2081  0.6453  1.2697
 1781TIP3   OH2 5306   5.887   1.497   5.159 -0.1400 -0.3709  0.0022
 1781TIP3    H1 5307   5.865   1.554   5.232  1.7536 -1.2779  1.3495
 1781TIP3    H2 5308   5.879   1.409   5.194  2.9587 -0.8017 -0.1190
 1782TIP3   OH2 5309   6.398   4.864   1.445  0.2981  0.3641  0.2715
 1782TIP3    H1 5310   6.493   4.853   1.447  0.1479 -1.2016 -0.1419
 1782TIP3    H2 5311   6.380   4.928   1.514  2.0163  4.1336 -2.3817
 1783TIP3   OH2 5312   2.464   0.461   1.368 -0.4933  0.2536 -0.1553
 1783TIP3    H1 5313   2.502   0.423   1.447 -0.6864  2.1878  0.9286
 1783TIP3    H2 5314   2.371   0.471   1.388 -0.8739 -0.7541 -1.2848
 1784TIP3   OH2 5315   0.181   6.339   1.253 -0.2823  0.1277 -0.4821
 1784TIP3    H1 5316   0.116   6.395   1.295  0.1545  1.0664 -1.0427
 1784TIP3    H2 5317   0.239   6.399   1.206 -0.3514 -0.8515 -1.8728
 1785TIP3   OH2 5318   6.148   2.297   0.993 -0.1557 -0.0235  0.1643
 1785TIP3    H1 5319   6.144   2.391   0.974  1.9890  0.2028  0.6227
 1785TIP3    H2 5320   6.098   2.287   1.074 -1.3840  0.5034 -0.5006
 1786TIP3   OH2 5321   4.914   2.391   3.078 -0.1734  0.4101  0.2565
 1786TIP3    H1 5322   4.916   2.300   3.109 -0.3655  0.3238  0.0249
 1786TIP3    H2 5323   4.889   2.384   2.986  0.7229  0.6433 -0.0147
 1787TIP3   OH2 5324   1.575   4.514   1.721 -0.4602  0.2679 -0.3883
 1787TIP3    H1 5325   1.606   4.436   1.675  0.2898 -0.3908  1.1518
 1787TIP3    H2 5326   1.636   4.583   1.696 -1.4271  0.5273 -2.1622
 1788TIP3   OH2 5327   6.861   4.641   4.385 -0.4403  0.1879  0.0783
 1788TIP3    H1 5328   6.830   4.724   4.349 -1.3943  0.2600  1.0089
 1788TIP3    H2 5329   6.875   4.660   4.478 -1.2251 -0.8284  0.4232
 1789TIP3   OH2 5330   2.680   1.846   1.032  0.1729  0.2090 -0.3410
 1789TIP3    H1 5331   2.773   1.839   1.011 -0.2533  1.5813 -3.1557
 1789TIP3    H2 5332   2.636   1.847   0.947 -2.2281  1.9608  0.7924
 1790TIP3   OH2 5333   3.788   3.422   4.167 -0.2242  0.2776  0.7707
 1790TIP3    H1 5334   3.817   3.442   4.078 -2.4139 -0.0860 -0.1010
 1790TIP3    H2 5335   3.696   3.451   4.169 -0.0881  0.7787  3.1010
 1791TIP3   OH2 5336   5.583   5.389   4.528 -0.3710 -0.0221  0.1236
 1791TIP3    H1 5337   5.553   5.368   4.616  0.9027 -2.8870 -0.0075
 1791TIP3    H2 5338   5.523   5.458   4.498 -1.3743  0.4177  2.8609
 1792TIP3   OH2 5339   6.014   0.124   0.709  0.8643 -0.4621  0.1397
 1792TIP3    H1 5340   5.991   0.034   0.733  1.1389 -0.2482  1.2636
 1792TIP3    H2 5341   6.060   0.116   0.626 -1.5682 -1.0892 -1.2458
 1793TIP3   OH2 5342   5.591   5.585   1.741 -0.0636 -0.0146 -0.6613
 1793TIP3    H1 5343   5.551   5.552   1.821  1.7851  0.4978  0.5254
 1793TIP3    H2 5344   5.552   5.672   1.729  0.7150  0.5228  0.5343
 1794TIP3   OH2 5345   2.330   1.797   4.136  0.3079 -0.2562  0.6991
 1794TIP3    H1 5346   2.283   1.773   4.057  1.5458 -1.4732  0.2871
 1794TIP3    H2 5347   2.347   1.891   4.127 -2.3270  0.3130  1.0696
 1795TIP3   OH2 5348   6.122   3.298   0.810  0.5744 -1.3342  0.2784
 1795TIP3    H1 5349   6.212   3.296   0.776  0.8436 -0.0837  0.8447
 1795TIP3    H2 5350   6.100   3.391   0.813 -0.3186 -1.5546  1.2363
 1796TIP3   OH2 5351   0.246   2.019   2.767  0.2400  0.2753  0.2135
 1796TIP3    H1 5352   0.304   1.973   2.828 -0.7397 -0.4646  0.6198
 1796TIP3    H2 5353   0.247   1.964   2.689 -1.4605 -0.8838  0.9349
 1797TIP3   OH2 5354   4.528   4.954   4.996 -0.5149 -0.2626 -0.1745
 1797TIP3    H1 5355   4.554   4.969   4.905  0.0881 -2.5270 -0.4294
 1797TIP3    H2 5356   4.434   4.972   4.997 -0.3281  0.8493 -0.9641
 1798TIP3   OH2 5357   6.124   1.347   1.025 -0.1885 -0.1487  0.2291
 1798TIP3    H1 5358   6.068   1.285   1.071  0.5865 -1.1207 -0.0992
 1798TIP3    H2 5359   6.128   1.314   0.935  1.1193 -0.2679  0.3107
 1799TIP3   OH2 5360   0.937   5.051   0.942  0.1845 -0.4520 -0.1949
 1799TIP3    H1 5361   0.865   5.084   0.997  0.8087 -0.1189  0.4503
 1799TIP3    H2 5362   0.949   4.960   0.970  1.4391  0.1185  1.2908
 1800TIP3   OH2 5363   3.660   2.641   4.639  0.1555 -0.5010  0.2416
 1800TIP3    H1 5364   3.593   2.662   4.705 -0.7319 -2.1062 -0.1094
 1800TIP3    H2 5365   3.742   2.671   4.679 -0.4760 -0.5864  1.6844
 1801TIP3   OH2 5366   3.456   4.247   0.633 -0.0673  0.3958  0.4631
 1801TIP3    H1 5367   3.506   4.328   0.644  1.2232 -0.4485  1.0729
 1801TIP3    H2 5368   3.521   4.177   0.641 -0.9084 -0.6932 -1.4374
 1802TIP3   OH2 5369   6.752   6.604   0.669  0.0572  0.4583 -0.2502
 1802TIP3    H1 5370   6.765   6.698   0.669  0.2370  0.4469  0.8956
 1802TIP3    H2 5371   6.821   6.570   0.612  0.4476  0.9520 -0.0719
 1803TIP3   OH2 5372   6.496   4.407   4.099  0.1162  0.1800 -0.3249
 1803TIP3    H1 5373   6.482   4.439   4.188 -1.3409  0.8631 -0.7532
 1803TIP3    H2 5374   6.487   4.312   4.106 -1.6214  0.3249  0.0431
 1804TIP3   OH2 5375   5.635   6.262   0.433 -0.0033  0.8922  0.4099
 1804TIP3    H1 5376   5.557   6.315   0.418  0.4185  1.9694  1.8628
 1804TIP3    H2 5377   5.642   6.254   0.528  1.1232 -0.0164  0.2789
 1805TIP3   OH2 5378   5.945   0.754   2.652  0.0791 -0.3188 -0.5200
 1805TIP3    H1 5379   5.871   0.765   2.711 -0.0861 -0.4184 -0.7088
 1805TIP3    H2 5380   5.986   0.672   2.679 -1.0399 -1.3136 -1.6705
 1806TIP3   OH2 5381   1.002   6.141   3.705 -0.1347  0.7724 -0.1971
 1806TIP3    H1 5382   1.021   6.060   3.752  1.2643  1.8048  1.1325
 1806TIP3    H2 5383   0.919   6.171   3.742 -0.4367  0.1752 -0.3809
 1807TIP3   OH2 5384   0.290   5.323   2.470  0.1611  0.8859 -0.2903
 1807TIP3    H1 5385   0.331   5.237   2.466  1.8898  1.5478  1.5623
 1807TIP3    H2 5386   0.362   5.384   2.483 -0.8687  2.8252 -2.6948
 1808TIP3   OH2 5387   3.347   1.797   5.753 -0.2164 -0.0345  0.0646
 1808TIP3    H1 5388   3.331   1.739   5.828 -2.2540  2.0254  1.3458
 1808TIP3    H2 5389   3.442   1.806   5.750  0.1785 -3.0594  0.0213
 1809TIP3   OH2 5390   0.099   4.903   2.456 -0.5451 -0.4782 -0.7229
 1809TIP3    H1 5391   0.141   4.881   2.373 -0.2463 -1.1521 -0.4051
 1809TIP3    H2 5392   0.057   4.821   2.484  0.3111 -0.5921  0.3390
 1810TIP3   OH2 5393   0.537  -0.005   0.598  0.5389 -0.0685 -0.2108
 1810TIP3    H1 5394   0.626   0.004   0.563 -0.6794  0.6473 -3.5137
 1810TIP3    H2 5395   0.483   0.050   0.540 -2.0829 -0.5175  1.6322
 1811TIP3   OH2 5396   5.437   5.922   4.034  0.0385  0.5086  0.2941
 1811TIP3    H1 5397   5.478   5.846   3.995 -0.1998  0.7318 -0.4097
 1811TIP3    H2 5398   5.362   5.940   3.978 -1.0650  0.0760  1.5784
 1812TIP3   OH2 5399   2.261   5.352   5.070 -0.2786  0.3632  0.4920
 1812TIP3    H1 5400   2.225   5.426   5.021 -1.0934 -0.7001 -0.5875
 1812TIP3    H2 5401   2.333   5.320   5.015 -1.3708 -1.0071 -0.2158
 1813TIP3   OH2 5402   6.274   3.353   4.787  0.4207 -0.0475 -0.3562
 1813TIP3    H1 5403   6.264   3.410   4.710  0.0681  0.9505  0.4085
 1813TIP3    H2 5404   6.338   3.399   4.841 -0.1514 -0.1902  0.4484
 1814TIP3   OH2 5405   6.788   5.169   2.144 -0.0617 -0.1604 -0.0286
 1814TIP3    H1 5406   6.739   5.089   2.167 -2.4908  0.0756 -3.5068
 1814TIP3    H2 5407   6.861   5.138   2.090 -0.7616 -0.1464 -1.0237
 1815TIP3   OH2 5408   7.146   3.286   3.090 -0.7497 -0.6030  0.0356
 1815TIP3    H1 5409   7.174   3.313   3.002 -0.1767  0.2626  0.4594
 1815TIP3    H2 5410   7.146   3.191   3.087 -0.5423 -0.5880 -0.8449
 1816TIP3   OH2 5411   1.972   4.583   0.993 -0.0394 -0.0913 -0.1761
 1816TIP3    H1 5412   1.970   4.657   0.932 -1.6735 -0.0084 -0.0619
 1816TIP3    H2 5413   1.967   4.505   0.937  0.9034 -0.1037 -0.2554
 1817TIP3   OH2 5414   2.845   0.864   4.226 -0.0377  0.0859 -0.0858
 1817TIP3    H1 5415   2.837   0.959   4.227  2.5140  0.4203  2.1258
 1817TIP3    H2 5416   2.919   0.846   4.167 -1.3362 -0.6908 -1.5397
 1818TIP3   OH2 5417   2.435   5.767   0.664 -0.0596  0.0338  0.1095
 1818TIP3    H1 5418   2.470   5.802   0.582 -1.1181  2.3679  0.5565
 1818TIP3    H2 5419   2.494   5.695   0.687 -0.2570 -1.3318 -3.1174
 1819TIP3   OH2 5420   0.243   4.189   1.219 -0.2995  0.3429 -0.2501
 1819TIP3    H1 5421   0.195   4.209   1.299  0.5601 -3.3459  1.3786
 1819TIP3    H2 5422   0.314   4.254   1.216 -1.5229  1.8007  0.7768
 1820TIP3   OH2 5423   5.550   3.977   2.113  0.9379  0.0569  0.1597
 1820TIP3    H1 5424   5.515   4.064   2.130  2.0294  0.8551 -1.4809
 1820TIP3    H2 5425   5.643   3.984   2.134  0.9016 -0.9500  0.7489
 1821TIP3   OH2 5426   4.958   5.253   2.668  0.2760 -0.7036 -0.1030
 1821TIP3    H1 5427   4.883   5.272   2.611  0.4164  1.0652  0.2369
 1821TIP3    H2 5428   5.034   5.262   2.611  0.4626  1.7441  0.4309
 1822TIP3   OH2 5429   1.126   5.739   4.026  0.0106  0.1054 -0.1352
 1822TIP3    H1 5430   1.213   5.703   4.008 -0.1182  0.2682 -1.1867
 1822TIP3    H2 5431   1.070   5.663   4.035 -0.0156  0.0108 -1.0172
 1823TIP3   OH2 5432   1.017   2.095   1.609 -0.1892  0.0702 -0.2069
 1823TIP3    H1 5433   1.008   2.004   1.639 -2.1807 -0.0055 -0.8831
 1823TIP3    H2 5434   1.042   2.087   1.517 -0.0430  0.2112 -0.1787
 1824TIP3   OH2 5435   3.495   6.663   1.340  0.4675 -0.0156  0.2524
 1824TIP3    H1 5436   3.573   6.660   1.285  1.0674 -0.4062  1.1060
 1824TIP3    H2 5437   3.491   6.753   1.371 -0.9550  0.7531 -1.9045
 1825TIP3   OH2 5438   0.637   0.154   3.579 -0.3682  0.3784  0.0209
 1825TIP3    H1 5439   0.585   0.126   3.503 -0.7810  0.1569  0.3835
 1825TIP3    H2 5440   0.701   0.084   3.590 -0.5664  0.2135  0.1254
 1826TIP3   OH2 5441   1.356   5.743   1.547 -0.2230 -0.1841  0.0619
 1826TIP3    H1 5442   1.345   5.693   1.466 -1.0726 -0.6492  0.4577
 1826TIP3    H2 5443   1.267   5.764   1.575 -0.0152 -1.2656  1.6418
 1827TIP3   OH2 5444   6.535   6.525   2.115  0.2615  0.0932  0.2933
 1827TIP3    H1 5445   6.543   6.463   2.187 -0.9952 -2.3654 -1.5434
 1827TIP3    H2 5446   6.621   6.526   2.074  0.2359 -0.5804  0.2250
 1828TIP3   OH2 5447   2.534   6.653   0.105  0.5882 -0.3919  0.1604
 1828TIP3    H1 5448   2.558   6.629   0.195  0.9858  0.9024  0.4191
 1828TIP3    H2 5449   2.575   6.585   0.051  0.6573 -0.9789  0.9289
 1829TIP3   OH2 5450   5.301   1.832   5.867  0.0676  0.3602 -0.3684
 1829TIP3    H1 5451   5.347   1.853   5.786 -2.1306 -1.4400 -2.2255
 1829TIP3    H2 5452   5.364   1.783   5.919  1.3816  1.1291 -1.1899
 1830TIP3   OH2 5453   4.769   0.501   3.187  0.0009 -0.0342  0.3954
 1830TIP3    H1 5454   4.738   0.556   3.259  0.6597  1.3923 -0.3656
 1830TIP3    H2 5455   4.716   0.529   3.112  0.4856 -0.3029 -0.0477
 1831TIP3   OH2 5456   0.941   2.195   2.610  0.1121 -0.0143  0.5066
 1831TIP3    H1 5457   1.026   2.238   2.610  0.1058  0.0515 -1.4447
 1831TIP3    H2 5458   0.941   2.142   2.690  2.1986 -0.4915  0.2263
 1832TIP3   OH2 5459   4.474   2.097   0.042  0.4148 -0.3705  0.0729
 1832TIP3    H1 5460   4.507   2.096   0.132 -0.9530 -0.1803  0.5868
 1832TIP3    H2 5461   4.478   2.006   0.014 -1.8059 -0.9273  1.3409
 1833TIP3   OH2 5462   4.746   3.570   0.135 -0.2233 -0.1919  0.0753
 1833TIP3    H1 5463   4.677   3.575   0.200 -0.4971  1.4354 -0.2893
 1833TIP3    H2 5464   4.820   3.618   0.173 -0.4833  1.0260 -0.8855
 1834TIP3   OH2 5465   4.108   3.702   4.733  0.9680  0.1460  0.1526
 1834TIP3    H1 5466   4.081   3.694   4.824  1.0132 -1.4413  0.0545
 1834TIP3    H2 5467   4.106   3.796   4.715  0.1827  0.4137  1.5427
 1835TIP3   OH2 5468   3.779   2.480   1.421 -0.0924 -0.5173 -0.3277
 1835TIP3    H1 5469   3.841   2.441   1.359 -1.7251 -0.4322 -2.0984
 1835TIP3    H2 5470   3.725   2.538   1.367 -1.1760  0.0508  1.3135
 1836TIP3   OH2 5471   1.376   2.512   2.050  0.1078  0.1489 -0.1514
 1836TIP3    H1 5472   1.416   2.599   2.050 -1.1619  0.7741 -1.2547
 1836TIP3    H2 5473   1.373   2.487   2.143  0.7783  1.1309  0.1509
 1837TIP3   OH2 5474   4.627   2.349   5.760 -0.2325  0.3513  0.2540
 1837TIP3    H1 5475   4.634   2.390   5.674  1.0062  0.8612  0.5847
 1837TIP3    H2 5476   4.572   2.408   5.811  0.4690  0.9369  0.3350
 1838TIP3   OH2 5477   6.549   6.430   3.646 -0.1419 -0.1737  0.6218
 1838TIP3    H1 5478   6.486   6.441   3.717 -0.5368 -0.8346  0.3814
 1838TIP3    H2 5479   6.588   6.344   3.661 -0.6344 -0.5743 -0.2577
 1839TIP3   OH2 5480   0.745   3.948   1.423 -0.5677  0.0589  0.3527
 1839TIP3    H1 5481   0.763   3.898   1.343 -1.3047 -3.6095  2.2455
 1839TIP3    H2 5482   0.671   4.003   1.401 -0.2210 -0.2363 -1.7054
 1840TIP3   OH2 5483   6.250   6.631   2.959  0.1786 -0.2730  0.0845
 1840TIP3    H1 5484   6.217   6.541   2.963 -1.4745  0.3229  1.0753
 1840TIP3    H2 5485   6.204   6.671   2.885  0.3391 -0.0361  0.1096
 1841TIP3   OH2 5486   2.155   2.068   1.237 -0.3279  0.6803  0.0323
 1841TIP3    H1 5487   2.249   2.074   1.254 -0.1554 -0.8892 -0.2324
 1841TIP3    H2 5488   2.142   2.112   1.153  0.1347  1.0337  0.1419
 1842TIP3   OH2 5489   3.475   3.070   0.519 -0.4161 -0.0361 -0.1798
 1842TIP3    H1 5490   3.466   3.075   0.423  0.6175 -1.0012 -0.3408
 1842TIP3    H2 5491   3.386   3.082   0.552 -0.7570  0.5122 -1.2494
 1843TIP3   OH2 5492   5.947   5.190   0.255 -0.2775  0.1418  0.2003
 1843TIP3    H1 5493   5.929   5.271   0.207 -0.9665  0.1405  0.4493
 1843TIP3    H2 5494   6.039   5.198   0.282 -0.5777  1.2274  0.9743
 1844TIP3   OH2 5495   6.512   0.836   4.247  0.2901 -0.1261 -0.0197
 1844TIP3    H1 5496   6.545   0.816   4.335 -1.3708 -0.3440  0.5773
 1844TIP3    H2 5497   6.510   0.751   4.202  0.0582 -0.1893  0.1107
 1845TIP3   OH2 5498   4.944   4.974   2.741  0.1258 -0.1747  0.1639
 1845TIP3    H1 5499   4.982   5.036   2.679  0.6631  0.6963  1.3252
 1845TIP3    H2 5500   4.967   4.888   2.705 -1.3399  0.2275 -1.9006
 1846TIP3   OH2 5501   2.878   0.317   1.218  0.5342  0.0894 -0.3320
 1846TIP3    H1 5502   2.925   0.253   1.272 -0.0001 -0.3312 -0.3598
 1846TIP3    H2 5503   2.947   0.372   1.181  0.9394  0.0729  0.3848
 1847TIP3   OH2 5504   5.209   4.708   5.124  0.1895 -0.1512 -0.0807
 1847TIP3    H1 5505   5.268   4.777   5.095 -0.3383 -0.7901 -2.9960
 1847TIP3    H2 5506   5.153   4.690   5.048 -1.9495 -1.4629  1.6574
 1848TIP3   OH2 5507   3.269   1.577   5.017 -0.2833  0.1451  0.0829
 1848TIP3    H1 5508   3.301   1.612   5.100 -0.1749  0.4139 -0.0706
 1848TIP3    H2 5509   3.287   1.484   5.021 -1.7288 -0.1364  1.0482
 1849TIP3   OH2 5510   1.752   1.307   4.970  0.0685 -0.6915 -0.4574
 1849TIP3    H1 5511   1.686   1.373   4.946  0.2797 -0.6149 -0.8403
 1849TIP3    H2 5512   1.713   1.259   5.043  0.5372  0.8574  0.8714
 1850TIP3   OH2 5513   6.225   2.944   0.532  0.1982 -0.3213 -0.0172
 1850TIP3    H1 5514   6.192   3.034   0.532  0.8976 -0.0572 -0.3537
 1850TIP3    H2 5515   6.310   2.950   0.489  0.2187 -1.1595 -0.1078
 1851TIP3   OH2 5516   2.638   2.348   2.015 -0.6841 -0.0284  0.0095
 1851TIP3    H1 5517   2.550   2.385   2.011  0.1304  1.9326 -1.5807
 1851TIP3    H2 5518   2.638   2.280   1.947 -0.9971 -0.1195  0.0982
 1852TIP3   OH2 5519   4.367   6.298   1.062 -0.1887  0.2649 -0.1765
 1852TIP3    H1 5520   4.414   6.370   1.018  0.6601  0.7905  1.5046
 1852TIP3    H2 5521   4.309   6.342   1.123  1.1710 -0.4341  1.7176
 1853TIP3   OH2 5522   1.472   4.692   2.823  0.1206  0.0815 -0.3208
 1853TIP3    H1 5523   1.429   4.639   2.756  0.1185  0.1838 -0.4004
 1853TIP3    H2 5524   1.406   4.755   2.850 -0.2747 -0.7208  0.6371
 1854TIP3   OH2 5525   0.146   1.547   3.033 -0.6474  0.4295  0.1571
 1854TIP3    H1 5526   0.212   1.617   3.029 -0.5939  0.3732  0.0545
 1854TIP3    H2 5527   0.125   1.529   2.942  0.1339 -0.4456  0.1343
 1855TIP3   OH2 5528   2.829   3.916   3.117  0.9270 -0.4534 -0.3162
 1855TIP3    H1 5529   2.814   3.881   3.205 -0.0239  0.8261  0.0749
 1855TIP3    H2 5530   2.758   3.881   3.064  0.0800  0.6609  0.0329
 1856TIP3   OH2 5531   2.178   1.768   0.659 -0.2304  0.5741  0.0530
 1856TIP3    H1 5532   2.250   1.806   0.709 -0.4525  1.3620 -0.2080
 1856TIP3    H2 5533   2.119   1.842   0.642 -0.0209  0.4119 -1.6088
 1857TIP3   OH2 5534   0.161   5.735   4.177  0.3783 -0.3246 -0.1922
 1857TIP3    H1 5535   0.137   5.684   4.100  0.6267  0.0862 -0.5479
 1857TIP3    H2 5536   0.165   5.671   4.248  1.5360 -0.9604 -0.7947
 1858TIP3   OH2 5537   1.580   4.802   1.937  0.3638 -0.0969  0.5868
 1858TIP3    H1 5538   1.596   4.877   1.879 -0.7886  0.6571  1.2127
 1858TIP3    H2 5539   1.658   4.797   1.992  0.8287  0.0877 -0.0456
 1859TIP3   OH2 5540   2.151   0.476   2.774  0.0582 -0.1635 -0.3258
 1859TIP3    H1 5541   2.057   0.478   2.792 -0.0019  0.0948 -0.6694
 1859TIP3    H2 5542   2.190   0.440   2.854 -0.1773  1.1892  0.4108
 1860TIP3   OH2 5543   5.866   3.235   1.153 -0.7390 -0.3701  0.1958
 1860TIP3    H1 5544   5.816   3.175   1.097  1.7688 -2.4548  0.0300
 1860TIP3    H2 5545   5.849   3.205   1.242 -1.2507  0.1562  0.2855
 1861TIP3   OH2 5546   1.801   1.314   2.561  0.2504 -0.1590  0.0379
 1861TIP3    H1 5547   1.801   1.245   2.494  2.5152 -0.4014  0.1977
 1861TIP3    H2 5548   1.721   1.363   2.545  0.5246 -0.4397 -2.6419
 1862TIP3   OH2 5549   4.122   4.912   2.074  0.6954  0.4319 -0.1456
 1862TIP3    H1 5550   4.096   4.949   2.158  0.0591  0.8145 -0.5089
 1862TIP3    H2 5551   4.057   4.944   2.012  0.3500 -0.9653 -0.5430
 1863TIP3   OH2 5552   2.080   3.472   0.255  0.1877  0.2035 -0.0201
 1863TIP3    H1 5553   2.110   3.395   0.303 -2.0543 -1.6069 -1.2835
 1863TIP3    H2 5554   2.141   3.481   0.182  1.2897  0.5158  0.9271
 1864TIP3   OH2 5555   2.364   6.040   1.413  0.6690  0.0777 -0.0859
 1864TIP3    H1 5556   2.406   5.985   1.347 -1.2759  0.6904 -1.9671
 1864TIP3    H2 5557   2.337   5.979   1.481 -0.1307 -1.1302 -1.4136
 1865TIP3   OH2 5558   2.585   2.832   1.028  0.6862  0.0279  0.2650
 1865TIP3    H1 5559   2.600   2.880   1.109 -0.9848  0.3613  0.4017
 1865TIP3    H2 5560   2.530   2.889   0.975  1.6665 -0.2257 -1.0917
 1866TIP3   OH2 5561   7.005   1.765   4.468 -0.3441  0.2985  0.3390
 1866TIP3    H1 5562   7.087   1.794   4.508 -0.0650  0.5924 -0.4351
 1866TIP3    H2 5563   6.938   1.790   4.532  0.0859  0.8314  0.5962
 1867TIP3   OH2 5564   5.124   3.649   2.300 -0.4740  0.5689  0.1924
 1867TIP3    H1 5565   5.102   3.732   2.258 -0.1918  0.9027  0.6955
 1867TIP3    H2 5566   5.199   3.670   2.356  2.3109 -0.8068 -2.6568
 1868TIP3   OH2 5567   5.938   1.300   3.685  0.2169  0.4796  0.0297
 1868TIP3    H1 5568   5.907   1.321   3.773 -0.5805  0.4823 -0.2384
 1868TIP3    H2 5569   5.961   1.384   3.647  0.0396  0.5394  0.0512
 1869TIP3   OH2 5570   0.264   2.062   0.378  0.0119  0.1654 -0.8261
 1869TIP3    H1 5571   0.243   2.117   0.454 -1.3892  2.2325 -2.6079
 1869TIP3    H2 5572   0.334   2.109   0.333  2.0055 -1.8723 -0.0537
 1870TIP3   OH2 5573   2.811   3.497   5.140 -0.2735  0.4640 -0.0961
 1870TIP3    H1 5574   2.818   3.435   5.067 -1.3040  0.8363 -0.5313
 1870TIP3    H2 5575   2.883   3.559   5.125 -0.2382  0.3130 -0.5892
 1871TIP3   OH2 5576   2.608   0.929   5.460  0.2189  0.2007  0.3082
 1871TIP3    H1 5577   2.640   0.943   5.550  0.2751 -2.4050  0.7801
 1871TIP3    H2 5578   2.678   0.963   5.404  0.4232  1.3735  1.2306
 1872TIP3   OH2 5579   3.491   2.988   3.376  0.1675  0.3757  0.1881
 1872TIP3    H1 5580   3.507   3.079   3.350  0.2673  0.2182 -0.3042
 1872TIP3    H2 5581   3.424   2.957   3.315  1.2190 -0.3465 -0.6282
 1873TIP3   OH2 5582   3.984   5.144   2.728  0.2722  0.2087  0.2089
 1873TIP3    H1 5583   4.031   5.137   2.645 -1.2166  0.9005 -0.7259
 1873TIP3    H2 5584   4.046   5.187   2.787  1.2306  0.0217 -0.6278
 1874TIP3   OH2 5585   6.987   1.709   4.179 -0.3785  0.0143  0.1460
 1874TIP3    H1 5586   6.990   1.741   4.269  2.0909 -0.5890  0.3485
 1874TIP3    H2 5587   7.020   1.782   4.126  2.2631 -0.9627  0.2753
 1875TIP3   OH2 5588   6.946   1.975   3.623 -0.2627 -0.4786  0.2566
 1875TIP3    H1 5589   6.933   1.886   3.590 -0.7168 -0.2552 -0.1768
 1875TIP3    H2 5590   6.874   2.026   3.585 -0.3283 -0.0407  0.9344
 1876TIP3   OH2 5591   1.256   0.757   5.427  0.5851 -0.1020 -0.6995
 1876TIP3    H1 5592   1.314   0.807   5.484 -0.2630  1.3430 -1.0302
 1876TIP3    H2 5593   1.309   0.684   5.396  2.0832  0.9027 -0.6256
 1877TIP3   OH2 5594   1.068   2.880   4.163  0.2888 -0.4387  0.1442
 1877TIP3    H1 5595   1.151   2.896   4.118 -0.0740  0.7949 -0.1093
 1877TIP3    H2 5596   1.031   2.803   4.119 -0.5355  1.2996 -2.3828
 1878TIP3   OH2 5597   0.296   2.429   2.402  0.1988 -0.1843  0.5351
 1878TIP3    H1 5598   0.370   2.489   2.403 -0.7043  0.9496  1.5661
 1878TIP3    H2 5599   0.334   2.345   2.375  1.5777  0.6931 -0.3839
 1879TIP3   OH2 5600   0.542   5.505   0.371 -0.3256  0.7887 -0.3983
 1879TIP3    H1 5601   0.608   5.473   0.309 -0.4799  1.5938 -0.9885
 1879TIP3    H2 5602   0.538   5.599   0.355 -0.2241  1.0479  0.9833
 1880TIP3   OH2 5603   6.706   2.253   0.395 -0.4587 -0.2716  0.6075
 1880TIP3    H1 5604   6.662   2.299   0.467  1.7414  1.5573  0.8946
 1880TIP3    H2 5605   6.749   2.322   0.345  0.8202 -1.8160 -0.5272
 1881TIP3   OH2 5606   1.556   1.730   5.032  0.8780  0.6892 -0.4456
 1881TIP3    H1 5607   1.586   1.813   5.068  0.4777  0.4436  0.5081
 1881TIP3    H2 5608   1.465   1.746   5.006  0.2515  0.1548  1.2558
 1882TIP3   OH2 5609   1.684   4.142   1.280 -0.4835 -0.5147 -0.4530
 1882TIP3    H1 5610   1.770   4.132   1.239 -0.4092 -0.5850 -0.2802
 1882TIP3    H2 5611   1.689   4.087   1.358 -0.6129 -0.3510 -0.3311
 1883TIP3   OH2 5612   6.883   4.928   1.363 -0.5483  0.3105 -0.1007
 1883TIP3    H1 5613   6.870   5.003   1.304 -0.5812  0.3882  0.0057
 1883TIP3    H2 5614   6.817   4.939   1.431 -1.3367 -0.4380 -0.7095
 1884TIP3   OH2 5615   3.308   4.944   4.824  0.2494 -0.0008 -0.6373
 1884TIP3    H1 5616   3.328   4.994   4.745  0.0119  0.3741 -0.4662
 1884TIP3    H2 5617   3.351   4.992   4.895  1.5416 -1.0474 -0.6940
 1885TIP3   OH2 5618   2.546   3.997   0.472 -0.2208  0.1636  0.2827
 1885TIP3    H1 5619   2.527   4.062   0.539 -0.8090 -0.2822  0.5533
 1885TIP3    H2 5620   2.641   3.997   0.465 -0.2172  1.4234 -0.0954
 1886TIP3   OH2 5621   3.190   2.643   1.362 -0.2814  0.4119  0.2068
 1886TIP3    H1 5622   3.211   2.586   1.437  0.4385 -0.3346 -0.5272
 1886TIP3    H2 5623   3.273   2.651   1.315 -0.7393  0.7967 -0.5554
 1887TIP3   OH2 5624   4.965   0.394   5.605  0.2883  0.3187 -0.2114
 1887TIP3    H1 5625   4.880   0.424   5.572  0.9869 -0.1207 -2.6238
 1887TIP3    H2 5626   4.955   0.299   5.613  0.3261  0.3534  0.3262
 1888TIP3   OH2 5627   5.747   5.833   4.411 -0.3936 -0.1216  0.3272
 1888TIP3    H1 5628   5.837   5.801   4.415 -0.3278  0.0565  0.2648
 1888TIP3    H2 5629   5.745   5.909   4.469 -0.4874 -0.0839  0.2758
 1889TIP3   OH2 5630   1.576   6.183   0.910 -0.8436 -0.3089  0.0628
 1889TIP3    H1 5631   1.652   6.214   0.960 -1.4037 -0.3311  0.9513
 1889TIP3    H2 5632   1.611   6.113   0.855  0.2136  1.1271 -1.1662
 1890TIP3   OH2 5633   0.195   4.035   3.982 -0.1940 -0.1308  0.3468
 1890TIP3    H1 5634   0.142   4.083   4.046  2.5284  1.7259  1.4051
 1890TIP3    H2 5635   0.204   4.095   3.908  1.9968  0.5327  1.0508
 1891TIP3   OH2 5636   5.414   1.033   0.974 -0.1219  0.1206  0.4352
 1891TIP3    H1 5637   5.476   1.104   0.954  0.5985 -0.5448  0.2452
 1891TIP3    H2 5638   5.356   1.031   0.898  0.7250 -0.4017 -0.2206
 1892TIP3   OH2 5639   1.449   5.062   4.710 -0.7749 -0.4455 -0.0888
 1892TIP3    H1 5640   1.507   4.987   4.698 -0.4288 -0.5818  2.0747
 1892TIP3    H2 5641   1.366   5.035   4.669 -0.1873 -1.3653 -0.7100
 1893TIP3   OH2 5642   1.494   3.838   2.829 -0.1337  0.0760 -0.1536
 1893TIP3    H1 5643   1.483   3.789   2.910  0.8089  0.7085  0.3773
 1893TIP3    H2 5644   1.529   3.774   2.767  2.8915  0.3891  1.0485
 1894TIP3   OH2 5645   6.825   1.257   5.434  1.0232  0.0628 -0.4449
 1894TIP3    H1 5646   6.840   1.163   5.424 -1.5592 -0.5813  0.9501
 1894TIP3    H2 5647   6.894   1.286   5.493  2.3007 -0.7555 -1.4769
 1895TIP3   OH2 5648   1.397   2.321   1.467  0.1948 -0.2534 -0.4051
 1895TIP3    H1 5649   1.367   2.343   1.555  1.4088  1.7027 -0.4201
 1895TIP3    H2 5650   1.342   2.247   1.440 -1.1361  0.0102  1.4349
 1896TIP3   OH2 5651   3.245   5.455   1.210 -0.6566  0.1405  0.1775
 1896TIP3    H1 5652   3.298   5.499   1.275 -1.7472  1.2898  0.3128
 1896TIP3    H2 5653   3.238   5.365   1.241  1.1837 -0.0497  0.1482
 1897TIP3   OH2 5654   2.250   5.975   3.735  0.6814 -0.5376 -0.2590
 1897TIP3    H1 5655   2.155   5.963   3.741  0.4643  0.7566 -0.7924
 1897TIP3    H2 5656   2.287   5.891   3.763 -0.5998 -0.8123  0.6886
 1898TIP3   OH2 5657   1.495   0.299   3.961  0.1044  0.1999  0.0571
 1898TIP3    H1 5658   1.435   0.272   3.892  1.3100 -0.9642 -0.5917
 1898TIP3    H2 5659   1.576   0.251   3.942  1.1895  1.5848  0.9842
 1899TIP3   OH2 5660   1.038   4.393   5.544 -0.8161  0.1743  0.1401
 1899TIP3    H1 5661   1.124   4.424   5.516 -1.1136  1.0911  0.2172
 1899TIP3    H2 5662   0.976   4.443   5.491 -1.4035  1.9517  2.3432
 1900TIP3   OH2 5663   6.515   4.536   2.781 -0.6860  0.7781  0.2501
 1900TIP3    H1 5664   6.460   4.582   2.844 -2.3188  0.3271 -0.7774
 1900TIP3    H2 5665   6.471   4.550   2.697  1.4246  1.3769 -0.8076
 1901TIP3   OH2 5666   3.585   1.393   5.478  0.3091 -0.4163  0.3390
 1901TIP3    H1 5667   3.528   1.453   5.526  0.4736 -1.1273  1.4772
 1901TIP3    H2 5668   3.598   1.435   5.393  1.5211  1.8913  1.5229
 1902TIP3   OH2 5669   1.825   4.312   5.624 -0.3752  0.5171 -0.4383
 1902TIP3    H1 5670   1.770   4.381   5.588 -1.6620  0.1408  0.7163
 1902TIP3    H2 5671   1.907   4.356   5.646 -1.1700  1.7078  0.2754
 1903TIP3   OH2 5672   4.997   0.386   4.935  0.4179  0.0884  0.2826
 1903TIP3    H1 5673   4.913   0.410   4.896 -0.9607 -1.4244  2.1521
 1903TIP3    H2 5674   5.001   0.436   5.017  2.0779  1.2474 -0.4325
 1904TIP3   OH2 5675   0.191   1.142   1.292  0.3785 -0.3762 -0.0124
 1904TIP3    H1 5676   0.163   1.195   1.366  2.3052 -0.0903  0.5821
 1904TIP3    H2 5677   0.136   1.171   1.219 -0.3523  0.5913  0.8954
 1905TIP3   OH2 5678   5.158   0.353   1.130  0.3236 -0.2737  0.5070
 1905TIP3    H1 5679   5.145   0.269   1.086 -2.0672  0.5118 -0.4636
 1905TIP3    H2 5680   5.111   0.343   1.213 -0.8637  0.3964 -0.0599
 1906TIP3   OH2 5681   2.016   1.388   1.747  0.0289  0.2250  0.2011
 1906TIP3    H1 5682   1.976   1.379   1.661 -0.8386  0.7166  0.5409
 1906TIP3    H2 5683   2.083   1.319   1.750 -1.5099 -1.3475  0.0186
 1907TIP3   OH2 5684   6.383   0.078   4.239  0.0902  0.0227  0.5490
 1907TIP3    H1 5685   6.307   0.133   4.220 -0.0175 -0.5619 -0.8339
 1907TIP3    H2 5686   6.430   0.125   4.307 -1.2509  0.6372  1.0985
 1908TIP3   OH2 5687   0.668   1.745   1.226 -0.1559 -0.2843  0.0470
 1908TIP3    H1 5688   0.631   1.656   1.230  0.4852 -0.6063 -0.8521
 1908TIP3    H2 5689   0.646   1.776   1.138 -2.2145  1.3000  1.0470
 1909TIP3   OH2 5690   0.378   4.429   5.731 -0.0935  0.1952  0.0785
 1909TIP3    H1 5691   0.321   4.355   5.750 -0.2981  0.5588  0.9071
 1909TIP3    H2 5692   0.423   4.447   5.813  0.1250  0.8418 -0.1738
 1910TIP3   OH2 5693   1.030   4.811   1.032 -0.1555  0.5357  0.3036
 1910TIP3    H1 5694   1.040   4.789   1.125  1.0949  1.4780  0.4125
 1910TIP3    H2 5695   1.089   4.750   0.987  0.1179  0.8551  0.2310
 1911TIP3   OH2 5696   5.263   6.182   3.992 -0.2301 -0.4566  0.2037
 1911TIP3    H1 5697   5.247   6.096   4.032  1.8716 -1.3229 -0.6731
 1911TIP3    H2 5698   5.346   6.211   4.031 -1.3484  1.6512  1.1747
 1912TIP3   OH2 5699   0.313   1.042   5.435  0.1650  0.5541  0.2116
 1912TIP3    H1 5700   0.343   1.047   5.344 -0.3502 -0.3099 -0.0181
 1912TIP3    H2 5701   0.382   1.085   5.485  1.1216 -0.1686 -0.4403
 1913TIP3   OH2 5702   6.652   1.570   2.190 -0.0256 -0.1893 -0.0267
 1913TIP3    H1 5703   6.648   1.612   2.104 -1.4541  2.0914  1.0667
 1913TIP3    H2 5704   6.579   1.607   2.239  0.4938 -1.7283  2.0619
 1914TIP3   OH2 5705   6.002   4.483   5.505 -0.5624  0.5827  0.5069
 1914TIP3    H1 5706   6.093   4.491   5.477 -0.3235  0.4735  1.2253
 1914TIP3    H2 5707   5.951   4.479   5.424  0.1273  0.0066  0.0937
 1915TIP3   OH2 5708   2.535   3.136   2.523  0.0981 -0.0941  0.4158
 1915TIP3    H1 5709   2.532   3.114   2.616 -1.2529  0.7116  0.5849
 1915TIP3    H2 5710   2.449   3.171   2.504 -0.2833 -1.9173 -1.5778
 1916TIP3   OH2 5711   5.092   4.646   0.629 -0.4257 -0.6194 -0.4365
 1916TIP3    H1 5712   5.033   4.682   0.562  1.4219 -0.2956 -1.9882
 1916TIP3    H2 5713   5.130   4.569   0.588  1.9498  0.4745 -0.4405
 1917TIP3   OH2 5714   3.489   0.030   1.731  0.0868 -0.3461  0.2140
 1917TIP3    H1 5715   3.524  -0.000   1.647 -1.2216  0.0560 -0.5088
 1917TIP3    H2 5716   3.566   0.058   1.781  0.9070 -0.8302 -0.7528
 1918TIP3   OH2 5717   3.579   2.701   0.600 -0.0848 -0.1931  0.0535
 1918TIP3    H1 5718   3.601   2.623   0.551 -1.3376 -1.0222  0.7453
 1918TIP3    H2 5719   3.635   2.770   0.564  0.1392 -1.1242 -1.4218
 1919TIP3   OH2 5720   2.293   0.181   5.764 -0.5848  0.5793 -0.1881
 1919TIP3    H1 5721   2.348   0.253   5.734 -1.6131  1.3926 -0.1795
 1919TIP3    H2 5722   2.320   0.165   5.854  1.6674 -1.0418 -1.0438
 1920TIP3   OH2 5723   5.991   5.286   1.321 -0.1474  0.4071 -0.2185
 1920TIP3    H1 5724   6.010   5.362   1.266 -0.2353  0.9611  0.4946
 1920TIP3    H2 5725   6.058   5.288   1.389 -1.8938  1.6578  1.5990
 1921TIP3   OH2 5726   6.390   1.057   4.545 -0.1669 -0.2549 -0.2863
 1921TIP3    H1 5727   6.396   1.088   4.455 -0.8094 -0.5737 -0.4486
 1921TIP3    H2 5728   6.322   1.111   4.584  1.0760  0.8416  0.4320
 1922TIP3   OH2 5729   0.103   0.071   5.857  0.7830  0.5282  0.1303
 1922TIP3    H1 5730   0.122   0.151   5.908  0.1955 -0.1869  1.5309
 1922TIP3    H2 5731   0.186   0.024   5.855  0.7092  0.3468  0.8624
 1923TIP3   OH2 5732   4.201   0.471   5.217 -0.5219 -0.4228  0.1206
 1923TIP3    H1 5733   4.295   0.461   5.201 -0.3312  1.7745 -0.5640
 1923TIP3    H2 5734   4.190   0.450   5.309  0.8293  0.1816  0.4512
 1924TIP3   OH2 5735   4.348   1.790   2.304 -0.3500  0.4887 -0.2017
 1924TIP3    H1 5736   4.315   1.701   2.291 -1.0371  0.4075  1.7122
 1924TIP3    H2 5737   4.437   1.788   2.270 -0.1646 -1.0905  0.2879
 1925TIP3   OH2 5738   2.828   3.865   1.605 -0.2945  0.1839 -0.0524
 1925TIP3    H1 5739   2.762   3.796   1.617  3.0626 -3.0282  2.0296
 1925TIP3    H2 5740   2.872   3.842   1.523 -0.3453  0.9907 -0.3087
 1926TIP3   OH2 5741   5.144   1.729   2.890  0.3196 -0.1274  0.4017
 1926TIP3    H1 5742   5.210   1.770   2.834 -1.5512  1.3096 -0.8627
 1926TIP3    H2 5743   5.170   1.637   2.892  1.2332  0.0076 -1.7398
 1927TIP3   OH2 5744   0.769   5.253   4.883  0.3788  0.5492  0.1069
 1927TIP3    H1 5745   0.851   5.220   4.917  0.6210  2.0987  1.1496
 1927TIP3    H2 5746   0.785   5.346   4.868 -1.0042  0.7572 -0.2569
 1928TIP3   OH2 5747   2.894   0.542   5.223  0.3117  0.2435 -0.1854
 1928TIP3    H1 5748   2.823   0.580   5.172 -0.8741 -1.7292 -0.0973
 1928TIP3    H2 5749   2.906   0.603   5.296 -0.5314  1.1605 -0.7778
 1929TIP3   OH2 5750   1.938   2.281   0.074 -0.1279 -0.2750  0.1949
 1929TIP3    H1 5751   1.965   2.189   0.075  1.5943  0.1890 -0.0498
 1929TIP3    H2 5752   2.005   2.326   0.126 -1.9976  0.6045  1.9612
 1930TIP3   OH2 5753   1.073   3.622   0.226 -0.2957  0.3995 -0.0559
 1930TIP3    H1 5754   1.084   3.694   0.164  0.1104 -0.4496 -0.9986
 1930TIP3    H2 5755   1.097   3.544   0.176  0.4368 -0.2660  1.3002
 1931TIP3   OH2 5756   0.572   5.436   1.322 -0.3970 -0.5397  0.2620
 1931TIP3    H1 5757   0.521   5.494   1.265  1.2823  0.1621 -0.6234
 1931TIP3    H2 5758   0.653   5.420   1.273  0.6643 -0.7926  2.0104
 1932TIP3   OH2 5759   1.086   4.067   1.475 -0.0635  0.5355 -0.3104
 1932TIP3    H1 5760   1.170   4.111   1.461  0.9182 -1.2087 -0.1365
 1932TIP3    H2 5761   1.020   4.132   1.450  1.3579  1.5139 -1.6426
 1933TIP3   OH2 5762   4.687   6.179   4.172 -0.1845 -0.0015 -0.2129
 1933TIP3    H1 5763   4.779   6.172   4.148 -0.0568  0.8361  0.0241
 1933TIP3    H2 5764   4.658   6.262   4.135 -0.8025 -0.1755 -0.1360
 1934TIP3   OH2 5765   5.842   3.803   1.916 -0.1197 -0.0398 -0.2151
 1934TIP3    H1 5766   5.756   3.764   1.929 -0.0066 -0.3790 -0.4726
 1934TIP3    H2 5767   5.824   3.888   1.875 -0.3332 -0.0916 -0.2308
 1935TIP3   OH2 5768   4.064   6.691   3.097  0.0874 -0.0660  0.3983
 1935TIP3    H1 5769   3.982   6.654   3.063  0.9966 -1.3095 -0.5217
 1935TIP3    H2 5770   4.058   6.678   3.191  0.4262 -2.8746  0.1357
 1936TIP3   OH2 5771   6.241   4.900   2.669  0.2582  0.1532  0.0971
 1936TIP3    H1 5772   6.282   4.987   2.669  0.5884  0.0019 -0.3699
 1936TIP3    H2 5773   6.169   4.908   2.731  0.7461  0.5427  0.6270
 1937TIP3   OH2 5774   2.717   0.240   5.308 -0.4359  0.2484 -0.1828
 1937TIP3    H1 5775   2.806   0.264   5.281  0.0666 -1.1682  0.1574
 1937TIP3    H2 5776   2.664   0.257   5.230  0.5932 -1.4532 -1.3233
 1938TIP3   OH2 5777   5.444   0.659   5.728  0.5612  0.5649  0.1928
 1938TIP3    H1 5778   5.370   0.622   5.678 -2.0428 -0.1364  4.0711
 1938TIP3    H2 5779   5.425   0.752   5.733  0.1334  0.4440  0.8715
 1939TIP3   OH2 5780   6.110   4.016   3.788 -0.2531  0.7713 -0.0002
 1939TIP3    H1 5781   6.175   4.005   3.718 -0.6611 -0.5173 -0.1879
 1939TIP3    H2 5782   6.153   4.074   3.851  1.2697 -0.4090  0.0972
 1940TIP3   OH2 5783   6.123   1.332   0.281 -0.2843  0.3378  0.0149
 1940TIP3    H1 5784   6.044   1.277   0.277 -0.0749 -0.0937  1.2110
 1940TIP3    H2 5785   6.099   1.404   0.339  0.4348 -0.2387  1.0638
 1941TIP3   OH2 5786   5.616   0.933   4.073 -0.2848 -0.0144 -0.4245
 1941TIP3    H1 5787   5.699   0.929   4.027 -0.2423  0.8899 -0.4326
 1941TIP3    H2 5788   5.638   0.912   4.164 -0.1283 -0.2712 -0.5212
 1942TIP3   OH2 5789   1.661   5.634   5.486 -0.1637 -0.0868 -0.1505
 1942TIP3    H1 5790   1.726   5.595   5.545 -0.8949  0.0445  0.7480
 1942TIP3    H2 5791   1.668   5.728   5.502 -1.4506 -0.1518  0.8821
 1943TIP3   OH2 5792   5.943   3.960   2.537 -0.4201  0.3316 -0.0105
 1943TIP3    H1 5793   5.888   3.888   2.567 -0.9841  0.7954  0.0911
 1943TIP3    H2 5794   5.996   3.922   2.467 -1.6844  0.1522 -0.9173
 1944TIP3   OH2 5795   4.363   2.323   5.064  0.6562 -0.2890  0.8504
 1944TIP3    H1 5796   4.390   2.409   5.098  0.5236 -0.2434  0.8412
 1944TIP3    H2 5797   4.343   2.340   4.971 -0.6195 -0.0578  1.1499
 1945TIP3   OH2 5798   5.429   3.155   1.443  0.1145 -0.0666 -0.8092
 1945TIP3    H1 5799   5.431   3.083   1.506  1.9240  1.5331  1.0758
 1945TIP3    H2 5800   5.484   3.125   1.371  1.5272 -0.3127  0.3297
 1946TIP3   OH2 5801   0.695   5.126   1.378 -0.1352  0.5084 -0.0527
 1946TIP3    H1 5802   0.652   5.140   1.293  0.1634 -0.7548 -0.4330
 1946TIP3    H2 5803   0.630   5.155   1.442 -1.3402 -0.7767 -0.6436
 1947TIP3   OH2 5804   3.848   3.688   0.149  0.4005 -0.0012 -0.1166
 1947TIP3    H1 5805   3.788   3.645   0.088  0.1636  1.5652 -1.0497
 1947TIP3    H2 5806   3.848   3.780   0.121  3.0431  0.1046 -0.0146
 1948TIP3   OH2 5807   1.204   3.941   2.050 -0.3009  0.0429 -0.0730
 1948TIP3    H1 5808   1.264   3.966   1.980  0.6379 -0.3410  0.5874
 1948TIP3    H2 5809   1.216   4.007   2.118  0.4668 -0.8433  0.6788
 1949TIP3   OH2 5810   2.250   5.324   1.159 -0.0005  0.1004 -0.5643
 1949TIP3    H1 5811   2.251   5.347   1.065  1.5965 -1.0788 -0.8690
 1949TIP3    H2 5812   2.322   5.262   1.169 -1.2849 -1.1988  1.1202
 1950TIP3   OH2 5813   0.148   5.248   3.433 -0.1393  0.1189 -0.0428
 1950TIP3    H1 5814   0.194   5.301   3.367 -1.6483  0.6336 -0.7276
 1950TIP3    H2 5815   0.140   5.162   3.393 -0.1298  0.1398 -0.0905
 1951TIP3   OH2 5816   5.119   3.854   3.402  0.3232  0.7720 -0.3357
 1951TIP3    H1 5817   5.163   3.771   3.383 -1.3276 -0.0415 -0.8353
 1951TIP3    H2 5818   5.150   3.878   3.489  0.8319 -0.3809 -0.1700
 1952TIP3   OH2 5819   2.904   4.967   2.712 -0.0908  0.0036 -0.0501
 1952TIP3    H1 5820   2.828   4.961   2.654  0.0519  0.4896 -0.2954
 1952TIP3    H2 5821   2.907   4.883   2.757 -1.2295  0.2700  0.5301
 1953TIP3   OH2 5822   3.725   3.599   1.290 -0.1936  0.3763 -0.2599
 1953TIP3    H1 5823   3.661   3.624   1.223  1.0949  0.8904 -1.3285
 1953TIP3    H2 5824   3.737   3.505   1.278  0.4386  0.5596 -1.1276
 1954TIP3   OH2 5825   0.610   3.032   0.866 -0.4359  0.2749  0.2922
 1954TIP3    H1 5826   0.672   3.033   0.938  0.1847 -1.1131 -0.1984
 1954TIP3    H2 5827   0.537   3.086   0.897  0.0646  0.1709  1.7207
 1955TIP3   OH2 5828   6.008   1.591   2.451 -0.0565  0.3229 -0.1705
 1955TIP3    H1 5829   6.059   1.601   2.531 -0.9656  1.6229  0.2781
 1955TIP3    H2 5830   5.938   1.529   2.475 -0.4461  0.8657  0.1152
 1956TIP3   OH2 5831   6.299   6.472   1.929 -0.6199 -0.3074 -0.0026
 1956TIP3    H1 5832   6.285   6.388   1.887  1.5282 -0.4518 -0.5719
 1956TIP3    H2 5833   6.376   6.458   1.985  1.1644  1.7474 -1.7508
 1957TIP3   OH2 5834   1.834   0.859   2.995 -0.2112 -0.4562 -0.0333
 1957TIP3    H1 5835   1.766   0.801   3.029 -1.7229  1.0858 -0.3484
 1957TIP3    H2 5836   1.827   0.851   2.900  0.0403 -0.2706 -0.0703
 1958TIP3   OH2 5837   6.232   1.863   2.832  0.3727 -0.2573  0.1396
 1958TIP3    H1 5838   6.206   1.933   2.892 -0.3760 -0.0147 -0.4500
 1958TIP3    H2 5839   6.159   1.856   2.770  1.3562 -0.1208 -1.0698
 1959TIP3   OH2 5840   4.346   6.270   2.253  0.1419  0.0055 -0.1842
 1959TIP3    H1 5841   4.341   6.359   2.289  0.3934 -0.1376  0.2146
 1959TIP3    H2 5842   4.260   6.232   2.272  0.6746 -0.5017  1.4572
 1960TIP3   OH2 5843   6.248   3.966   1.978 -0.2188  0.4203 -0.3359
 1960TIP3    H1 5844   6.202   3.886   2.005 -0.6720  0.3361 -1.3260
 1960TIP3    H2 5845   6.256   4.017   2.059 -0.1597 -0.5025  0.2586
 1961TIP3   OH2 5846   7.032   0.236   0.396  0.0247  0.1717 -0.4597
 1961TIP3    H1 5847   6.943   0.201   0.391  0.1144  0.0086 -1.0740
 1961TIP3    H2 5848   7.024   0.326   0.363  0.4820 -0.6397 -3.0713
 1962TIP3   OH2 5849   0.272   2.061   0.059 -0.0887  0.0422  0.1184
 1962TIP3    H1 5850   0.226   2.142   0.035  0.4292  0.0974 -0.7061
 1962TIP3    H2 5851   0.320   2.084   0.139 -0.4903  0.3472  0.2764
 1963TIP3   OH2 5852   2.486   3.375   5.132  0.0217 -0.2483  0.0645
 1963TIP3    H1 5853   2.542   3.432   5.079  0.0891 -1.3760 -1.1315
 1963TIP3    H2 5854   2.405   3.368   5.083  0.4351 -2.0955 -0.4315
 1964TIP3   OH2 5855   5.002   0.296   1.357  0.8670 -0.6805 -0.1507
 1964TIP3    H1 5856   4.942   0.328   1.424  0.6145 -0.5472 -0.4354
 1964TIP3    H2 5857   5.019   0.205   1.380  1.0851 -0.5225  0.3096
 1965TIP3   OH2 5858   2.207   5.651   2.407  0.6363 -0.1780 -0.2808
 1965TIP3    H1 5859   2.172   5.592   2.474  2.9109 -0.7486  0.5089
 1965TIP3    H2 5860   2.287   5.609   2.377  0.8801  1.2006 -1.7331
 1966TIP3   OH2 5861   6.513   1.107   1.460  0.8111 -0.0336 -0.3335
 1966TIP3    H1 5862   6.511   1.118   1.365 -2.7204  0.5223 -0.3217
 1966TIP3    H2 5863   6.471   1.022   1.476 -2.2617  1.5604  0.7634
 1967TIP3   OH2 5864   2.143   3.273   5.173 -0.2581 -0.0681 -0.0341
 1967TIP3    H1 5865   2.172   3.358   5.206  0.4757  0.0961 -1.0486
 1967TIP3    H2 5866   2.212   3.212   5.202 -1.0677 -0.4501  1.1890
 1968TIP3   OH2 5867   2.372   2.109   3.320 -0.0112  0.8931  0.0568
 1968TIP3    H1 5868   2.353   2.019   3.348 -1.6115  1.1844 -0.0250
 1968TIP3    H2 5869   2.314   2.123   3.246  1.3572  1.4862 -0.9342
 1969TIP3   OH2 5870   5.076   4.835   2.132  0.0532  0.5327 -0.0543
 1969TIP3    H1 5871   5.104   4.811   2.044 -2.1086 -0.2674 -0.5756
 1969TIP3    H2 5872   5.116   4.770   2.190 -0.6599 -0.5429 -0.7556
 1970TIP3   OH2 5873   3.504   0.476   0.037  0.3145 -0.0778  0.3025
 1970TIP3    H1 5874   3.567   0.414   0.071  1.4414  1.1123  0.4690
 1970TIP3    H2 5875   3.469   0.435  -0.042  0.4051 -1.2633  0.8672
 1971TIP3   OH2 5876   0.902   0.592   3.766  0.3783  0.8353  0.1662
 1971TIP3    H1 5877   0.888   0.656   3.696  1.4720  0.7197 -0.1921
 1971TIP3    H2 5878   0.865   0.511   3.732 -0.9588  1.2412  0.5969
 1972TIP3   OH2 5879   3.747   1.609   4.971 -0.1767 -0.2798  0.0587
 1972TIP3    H1 5880   3.800   1.560   5.034 -0.4056 -0.9523 -0.2618
 1972TIP3    H2 5881   3.679   1.547   4.945  0.9238 -0.6243 -2.1975
 1973TIP3   OH2 5882   4.532   1.154   3.758  0.2662  0.0435 -0.2272
 1973TIP3    H1 5883   4.580   1.072   3.744 -0.7388 -0.6240  0.1313
 1973TIP3    H2 5884   4.550   1.177   3.849 -1.0203 -0.8599  0.2892
 1974TIP3   OH2 5885   3.655   0.101   2.761  0.2134 -0.2204 -0.1219
 1974TIP3    H1 5886   3.741   0.068   2.788  0.4179 -0.4648 -1.0574
 1974TIP3    H2 5887   3.598   0.078   2.835  0.6159 -1.5216 -0.1769
 1975TIP3   OH2 5888   1.168   2.145   4.544 -0.8609  0.0031 -0.1208
 1975TIP3    H1 5889   1.091   2.144   4.488  1.1372 -0.5478 -3.0984
 1975TIP3    H2 5890   1.203   2.056   4.539  1.2967  0.8103 -1.0004
 1976TIP3   OH2 5891   1.871   2.161   3.612 -0.2061  0.3282  0.1812
 1976TIP3    H1 5892   1.951   2.212   3.601  0.9356 -1.3717  0.2202
 1976TIP3    H2 5893   1.888   2.080   3.565 -1.8045 -0.1996  0.4515
 1977TIP3   OH2 5894   3.332   4.390   4.616  0.3798 -0.1539  0.2186
 1977TIP3    H1 5895   3.336   4.476   4.658  0.6419 -0.6559  1.2499
 1977TIP3    H2 5896   3.244   4.357   4.637  1.1812 -1.2320  2.0947
 1978TIP3   OH2 5897   6.484   0.223   0.435 -0.3617 -0.1587 -0.1250
 1978TIP3    H1 5898   6.484   0.261   0.523 -0.8599 -0.2336 -0.0917
 1978TIP3    H2 5899   6.537   0.284   0.384  0.7184 -0.6075  0.4292
 1979TIP3   OH2 5900   5.667   1.559   3.608  0.1405 -0.8593  0.3728
 1979TIP3    H1 5901   5.746   1.610   3.622 -1.3847  1.2730  1.9651
 1979TIP3    H2 5902   5.685   1.475   3.650  1.7844 -0.6984  0.0468
 1980TIP3   OH2 5903   6.381   6.336   3.208 -0.7976  0.0262 -0.1361
 1980TIP3    H1 5904   6.355   6.277   3.138 -0.4503 -1.1375  0.6927
 1980TIP3    H2 5905   6.309   6.330   3.272 -0.7488  0.4886 -0.0337
 1981TIP3   OH2 5906   1.373   0.627   4.630  0.3933 -0.1185  0.3318
 1981TIP3    H1 5907   1.350   0.542   4.593  1.1902 -0.1207 -0.1862
 1981TIP3    H2 5908   1.462   0.616   4.663  0.6713  0.6387 -0.1414
 1982TIP3   OH2 5909   1.755   0.770   0.232  0.0905 -0.5356 -0.6628
 1982TIP3    H1 5910   1.666   0.733   0.231 -0.3210  0.3958 -0.1967
 1982TIP3    H2 5911   1.764   0.810   0.145 -1.6557  3.1245  0.6230
 1983TIP3   OH2 5912   2.120   0.308   1.103 -0.0147  0.0861  0.3509
 1983TIP3    H1 5913   2.181   0.234   1.100  0.2710  0.3666 -1.3639
 1983TIP3    H2 5914   2.158   0.367   1.168  2.1167  0.7007 -1.3582
 1984TIP3   OH2 5915   5.247   6.717   4.196 -0.1297 -0.0703 -0.2048
 1984TIP3    H1 5916   5.198   6.673   4.127 -1.8551  1.8135 -0.2929
 1984TIP3    H2 5917   5.330   6.741   4.155 -0.6338 -0.0600 -1.2477
 1985TIP3   OH2 5918   1.995   5.180   0.691 -0.3421 -0.1018 -0.0392
 1985TIP3    H1 5919   2.047   5.108   0.727 -0.1472  0.5180  0.9481
 1985TIP3    H2 5920   2.057   5.232   0.640 -0.6096 -0.9552 -1.2882
 1986TIP3   OH2 5921   0.626   5.391   4.452  0.0772  0.6629 -0.6328
 1986TIP3    H1 5922   0.696   5.336   4.487 -2.2042 -0.7293  2.1519
 1986TIP3    H2 5923   0.671   5.455   4.397  3.3462 -0.9981 -0.1223
 1987TIP3   OH2 5924   3.185   5.635   1.681 -0.0070 -0.7964  0.5468
 1987TIP3    H1 5925   3.117   5.578   1.645 -2.2062  1.6868  0.4537
 1987TIP3    H2 5926   3.140   5.689   1.746  1.7435  1.2870  0.1583
 1988TIP3   OH2 5927   5.392   2.577   5.695  0.3637  0.1537  0.4209
 1988TIP3    H1 5928   5.462   2.565   5.631  0.5799  1.7102  0.3154
 1988TIP3    H2 5929   5.426   2.643   5.756 -0.2800 -0.4619  1.4792
 1989TIP3   OH2 5930   6.776   2.547   1.905 -0.0401 -0.4903 -0.8894
 1989TIP3    H1 5931   6.855   2.508   1.944 -0.1633 -1.4307 -1.5460
 1989TIP3    H2 5932   6.704   2.506   1.952 -0.1835 -1.4280 -1.8817
 1990TIP3   OH2 5933   2.996   4.170   5.418 -0.1062  0.1139  0.0672
 1990TIP3    H1 5934   2.963   4.089   5.378 -1.7157  1.4163 -1.4285
 1990TIP3    H2 5935   3.091   4.167   5.406 -0.2373 -1.1320 -0.7724
 1991TIP3   OH2 5936   1.327   0.498   0.061  0.1706  0.1013 -0.0570
 1991TIP3    H1 5937   1.279   0.571   0.022  0.4660  0.9074  1.0336
 1991TIP3    H2 5938   1.391   0.473  -0.006  1.0980  1.8631  0.0956
 1992TIP3   OH2 5939   1.682   5.911   4.602 -0.1424 -0.3116 -0.2658
 1992TIP3    H1 5940   1.591   5.906   4.630  0.4395  0.7881  2.0575
 1992TIP3    H2 5941   1.699   6.004   4.590  0.5079 -0.5537 -1.4154
 1993TIP3   OH2 5942   6.059   4.066   3.140  0.6237 -0.1853  0.0699
 1993TIP3    H1 5943   6.099   4.138   3.091  0.2106  0.4018  0.5648
 1993TIP3    H2 5944   6.029   4.107   3.222  0.2051 -0.8815  0.2781
 1994TIP3   OH2 5945   2.498   1.547   0.444 -0.5721 -0.1696  0.8085
 1994TIP3    H1 5946   2.449   1.628   0.433 -1.1490 -0.6552 -0.5072
 1994TIP3    H2 5947   2.589   1.570   0.426 -0.9635 -0.1198 -1.4338
 1995TIP3   OH2 5948   1.170   6.746   0.344 -0.0076  0.2194 -0.0249
 1995TIP3    H1 5949   1.093   6.690   0.333 -1.3181  1.5606  1.6756
 1995TIP3    H2 5950   1.233   6.713   0.280 -1.3264 -2.0614 -0.2728
 1996TIP3   OH2 5951   5.081   2.299   4.428  0.0926 -0.3159  0.6317
 1996TIP3    H1 5952   5.128   2.216   4.423 -0.0031 -0.4275  1.4753
 1996TIP3    H2 5953   4.988   2.274   4.426  0.0653 -0.2122  0.5925
 1997TIP3   OH2 5954   1.919   0.996   1.479  0.4595 -0.0136 -0.0674
 1997TIP3    H1 5955   1.905   0.997   1.574  3.5875  0.0010  0.5006
 1997TIP3    H2 5956   1.887   1.081   1.449 -0.1261  0.1825  1.0717
 1998TIP3   OH2 5957   1.772   6.028   0.798  0.3129  0.5562  0.0863
 1998TIP3    H1 5958   1.810   5.944   0.773  0.7931  0.6412  0.5046
 1998TIP3    H2 5959   1.844   6.074   0.842 -0.3157  0.6489  1.0496
 1999TIP3   OH2 5960   5.517   4.844   0.985  0.7114 -0.3003  0.3886
 1999TIP3    H1 5961   5.549   4.928   0.953  0.8189 -0.9416 -1.2790
 1999TIP3    H2 5962   5.545   4.841   1.077  1.5386  1.0637  0.2044
 2000TIP3   OH2 5963   3.808   1.164   2.910 -0.2718 -0.5243 -0.4838
 2000TIP3    H1 5964   3.788   1.107   2.985  0.0213 -0.8740 -0.6665
 2000TIP3    H2 5965   3.728   1.215   2.896  0.5860  1.6865  1.9275
 2001TIP3   OH2 5966   0.396   0.543   5.296  0.1853  0.3838  0.1432
 2001TIP3    H1 5967   0.330   0.533   5.228  0.0079  0.4670  0.3000
 2001TIP3    H2 5968   0.399   0.637   5.313 -0.0405  0.3308  0.5064
 2002TIP3   OH2 5969   4.158   3.028   4.115  0.0495 -0.6468  0.1719
 2002TIP3    H1 5970   4.207   2.953   4.149 -1.7852 -1.7726  0.5056
 2002TIP3    H2 5971   4.085   2.988   4.066 -1.4618  0.8823  1.0854
 2003TIP3   OH2 5972   4.005   3.486   0.698  0.2688  0.0979 -1.1626
 2003TIP3    H1 5973   4.080   3.444   0.657  0.1375  0.9678 -2.3302
 2003TIP3    H2 5974   3.955   3.413   0.736  0.3476 -0.7777 -2.6415
 2004TIP3   OH2 5975   4.878   5.750   2.558 -0.1890 -0.1987 -0.1458
 2004TIP3    H1 5976   4.799   5.804   2.566  0.9310  1.3401  1.1939
 2004TIP3    H2 5977   4.865   5.678   2.620 -1.2609 -0.9847 -1.2223
 2005TIP3   OH2 5978   4.867   0.095   0.467 -0.2755 -0.0277  0.2540
 2005TIP3    H1 5979   4.945   0.107   0.521 -0.7109 -0.6287  1.0461
 2005TIP3    H2 5980   4.893   0.122   0.379  1.6186 -2.6283 -0.0878
 2006TIP3   OH2 5981   5.603   5.986   0.623  0.3655  0.4045  0.1779
 2006TIP3    H1 5982   5.524   6.028   0.657  0.8870  0.3034  1.5873
 2006TIP3    H2 5983   5.576   5.949   0.539 -0.2959  2.9432 -0.8430
 2007TIP3   OH2 5984   5.154   2.056   5.836 -0.1822 -0.1646 -0.1132
 2007TIP3    H1 5985   5.139   2.077   5.744 -1.8113 -0.1475  0.1236
 2007TIP3    H2 5986   5.235   2.005   5.837 -0.5624 -0.8362 -1.6362
 2008TIP3   OH2 5987   3.649   4.761   4.870 -0.1153 -0.0968  0.5244
 2008TIP3    H1 5988   3.684   4.715   4.946 -1.6180 -0.4683  1.0186
 2008TIP3    H2 5989   3.707   4.837   4.860 -0.5064  0.5901  2.7360
 2009TIP3   OH2 5990   0.161   1.457   5.551  0.7250 -0.2303 -0.9671
 2009TIP3    H1 5991   0.188   1.400   5.623 -1.8465 -0.7483 -0.3274
 2009TIP3    H2 5992   0.071   1.431   5.532 -0.3808  3.2071 -1.0305
 2010TIP3   OH2 5993   3.752   6.522   0.003 -0.1778 -0.3453  0.6495
 2010TIP3    H1 5994   3.766   6.532   0.097  1.6011  0.3367  0.3587
 2010TIP3    H2 5995   3.838   6.539  -0.036 -1.2801  1.2697 -1.2370
 2011TIP3   OH2 5996   3.204   4.477   5.785  0.3355 -0.4258 -0.3695
 2011TIP3    H1 5997   3.198   4.568   5.815 -0.5829  0.6907 -3.5525
 2011TIP3    H2 5998   3.115   4.443   5.797  0.3781 -0.5230 -0.3291
 2012TIP3   OH2 5999   4.242   5.378   2.063  0.3649 -0.3481 -0.0503
 2012TIP3    H1 6000   4.328   5.336   2.072  0.5831  0.1444  0.1996
 2012TIP3    H2 6001   4.203   5.336   1.987  0.3728 -1.3567  0.4839
 2013TIP3   OH2 6002   3.110   5.960   3.254  0.0726 -0.0896  0.0322
 2013TIP3    H1 6003   3.182   5.922   3.203  0.5247 -2.2399  2.0737
 2013TIP3    H2 6004   3.153   6.020   3.316 -0.3009  1.2727 -0.9898
 2014TIP3   OH2 6005   0.964   2.203   5.628  0.0204  0.7875  0.1071
 2014TIP3    H1 6006   1.053   2.216   5.593  0.4228  0.6614  1.0471
 2014TIP3    H2 6007   0.969   2.120   5.675 -0.2534  1.3887  1.2233
 2015TIP3   OH2 6008   6.534   2.202   4.027 -0.4242  0.0186  0.0555
 2015TIP3    H1 6009   6.596   2.269   4.055 -0.2507 -0.1331  0.0304
 2015TIP3    H2 6010   6.574   2.163   3.949 -0.8847  0.4121 -0.3889
 2016TIP3   OH2 6011   0.599   3.305   2.817 -0.4716 -0.2889 -0.4162
 2016TIP3    H1 6012   0.653   3.265   2.748 -0.8465  0.4409 -1.1579
 2016TIP3    H2 6013   0.576   3.392   2.782 -2.5316 -0.7549 -0.3610
 2017TIP3   OH2 6014   4.831   1.693   0.976 -0.0520 -0.0730  0.1718
 2017TIP3    H1 6015   4.801   1.770   1.024 -0.1461 -0.4809  0.7784
 2017TIP3    H2 6016   4.863   1.633   1.044 -1.4705 -1.2337 -0.1477
 2018TIP3   OH2 6017   4.529   4.556   5.073  0.0438  0.2144 -0.5654
 2018TIP3    H1 6018   4.588   4.631   5.080 -0.9220  0.9102  0.7160
 2018TIP3    H2 6019   4.537   4.526   4.983  0.9593  1.4472 -0.9095
 2019TIP3   OH2 6020   1.848   3.631   2.466 -0.3978  0.4359  0.3847
 2019TIP3    H1 6021   1.889   3.678   2.393 -2.4120  1.4706 -0.1728
 2019TIP3    H2 6022   1.917   3.622   2.531  1.5262 -0.7249 -1.7096
 2020TIP3   OH2 6023   1.367   4.078   2.496  0.5926  0.1086 -0.8273
 2020TIP3    H1 6024   1.324   4.003   2.537 -0.7992  1.1371 -0.3539
 2020TIP3    H2 6025   1.447   4.091   2.548  0.8454 -1.0104 -0.9087
 2021TIP3   OH2 6026   2.157   2.168   5.579  0.1199  0.6883 -0.1658
 2021TIP3    H1 6027   2.181   2.151   5.671  0.2554 -1.9420 -0.6065
 2021TIP3    H2 6028   2.062   2.157   5.577  0.3095 -1.2438 -0.6356
 2022TIP3   OH2 6029   6.829   2.955   1.194  0.6162 -0.2704  0.1316
 2022TIP3    H1 6030   6.770   2.895   1.149 -0.0608  0.4975 -0.0385
 2022TIP3    H2 6031   6.777   3.035   1.207  1.3282  0.0988  0.8048
 2023TIP3   OH2 6032   1.632   5.248   2.274  0.3440  0.2136 -0.0159
 2023TIP3    H1 6033   1.625   5.164   2.319  0.2872 -0.2688 -0.9032
 2023TIP3    H2 6034   1.713   5.287   2.308  0.4937 -0.3065  0.2204
 2024TIP3   OH2 6035   1.444   2.128   3.482 -0.3360 -0.0806 -0.0607
 2024TIP3    H1 6036   1.454   2.223   3.477 -1.1046 -0.0647 -2.8472
 2024TIP3    H2 6037   1.525   2.093   3.443 -0.4011 -0.5659  0.2232
 2025TIP3   OH2 6038   2.988   3.758   4.667 -0.3285 -0.0700 -0.0471
 2025TIP3    H1 6039   3.077   3.793   4.665 -0.1091 -0.5527  0.8616
 2025TIP3    H2 6040   2.987   3.692   4.597 -0.1920  0.4166 -0.5200
 2026TIP3   OH2 6041   7.096   0.809   2.526 -0.1925 -0.2813 -0.4714
 2026TIP3    H1 6042   7.068   0.842   2.611  0.8761  0.9698 -0.5604
 2026TIP3    H2 6043   7.158   0.739   2.546  0.8957  0.7296 -0.1629
 2027TIP3   OH2 6044   3.859   1.538   3.205  0.4937  0.1029 -0.3289
 2027TIP3    H1 6045   3.771   1.551   3.239  0.4129 -0.2575 -0.3946
 2027TIP3    H2 6046   3.849   1.544   3.110  0.5298 -0.0080 -0.3395
 2028TIP3   OH2 6047   3.279   6.200   0.315  0.0448 -0.7462 -0.4165
 2028TIP3    H1 6048   3.214   6.259   0.354  0.2142 -0.2063 -0.9460
 2028TIP3    H2 6049   3.267   6.118   0.363 -0.3249 -0.3473  0.1995
 2029TIP3   OH2 6050   6.783   4.334   1.402 -0.1411 -0.0408  0.0500
 2029TIP3    H1 6051   6.714   4.292   1.349 -0.3689 -0.4427  0.6559
 2029TIP3    H2 6052   6.764   4.306   1.491  0.0361  0.9185  0.3917
 2030TIP3   OH2 6053   4.731   6.030   4.454 -0.4660 -0.0332 -0.3270
 2030TIP3    H1 6054   4.683   5.969   4.398  2.2119 -1.0493 -1.7250
 2030TIP3    H2 6055   4.772   6.092   4.393  0.7251  0.2020  0.6685
 2031TIP3   OH2 6056   2.028   2.356   0.552  0.1198  0.6871 -0.2021
 2031TIP3    H1 6057   1.937   2.380   0.564 -0.3925 -0.1835 -1.9323
 2031TIP3    H2 6058   2.034   2.266   0.586  0.1821  0.5353 -0.6076
 2032TIP3   OH2 6059   1.190   0.855   2.806 -0.0753 -0.4367  0.1357
 2032TIP3    H1 6060   1.160   0.840   2.896  0.2718  1.6996  0.6709
 2032TIP3    H2 6061   1.122   0.908   2.766  1.9382  2.9396  0.8060
 2033TIP3   OH2 6062   1.009   1.518   1.380 -0.0631  0.5899  0.0056
 2033TIP3    H1 6063   0.955   1.459   1.327  0.8102 -0.3969  0.1855
 2033TIP3    H2 6064   1.070   1.461   1.426  1.9458  1.7202 -1.0932
 2034TIP3   OH2 6065   2.939   4.799   3.661 -0.3450 -0.0950  0.0450
 2034TIP3    H1 6066   2.971   4.858   3.730  0.5072 -0.1652 -0.2791
 2034TIP3    H2 6067   2.912   4.857   3.590  0.6689 -0.0851 -0.3481
 2035TIP3   OH2 6068   5.847   0.306   5.496  0.1604  0.1161 -0.0786
 2035TIP3    H1 6069   5.823   0.290   5.405  1.7666 -1.4944 -0.2802
 2035TIP3    H2 6070   5.772   0.274   5.546 -1.0903  1.7577 -0.8029
 2036TIP3   OH2 6071   0.847   5.857   5.873 -0.2595  0.0647  0.6823
 2036TIP3    H1 6072   0.859   5.868   5.779  1.7617  0.2480  0.9119
 2036TIP3    H2 6073   0.753   5.865   5.887 -0.4192  1.9414 -1.0776
 2037TIP3   OH2 6074   1.435   2.895   3.058 -0.2812 -0.2226  0.1686
 2037TIP3    H1 6075   1.410   2.987   3.049 -0.7497  0.1929  4.0698
 2037TIP3    H2 6076   1.475   2.889   3.145 -0.5220 -3.7574  0.1992
 2038TIP3   OH2 6077   4.923   4.908   3.640  0.4839 -0.4518 -0.3914
 2038TIP3    H1 6078   4.927   4.983   3.580  1.9943 -0.5593 -0.4685
 2038TIP3    H2 6079   4.887   4.944   3.721 -3.8119 -0.7486 -1.9067
 2039TIP3   OH2 6080   0.722   6.174   4.444  0.2200 -0.1065  0.5887
 2039TIP3    H1 6081   0.812   6.204   4.436 -0.6010  2.6923  0.7691
 2039TIP3    H2 6082   0.694   6.204   4.530 -0.5858 -1.9984  1.0477
 2040TIP3   OH2 6083   2.806   3.564   3.140 -0.5560 -0.3811 -0.3839
 2040TIP3    H1 6084   2.769   3.624   3.204 -0.2045 -0.3139 -0.2386
 2040TIP3    H2 6085   2.742   3.494   3.132 -0.2147 -0.8440  0.7048
 2041TIP3   OH2 6086   5.813   3.299   5.414 -0.2428 -0.4541  0.5052
 2041TIP3    H1 6087   5.823   3.248   5.494  0.8719 -0.3862  0.4289
 2041TIP3    H2 6088   5.895   3.347   5.405  0.2949 -1.5956 -1.4407
 2042TIP3   OH2 6089   6.245   1.896   0.205 -0.0264  0.1552  0.2737
 2042TIP3    H1 6090   6.215   1.986   0.196 -1.1965 -0.3122 -0.8034
 2042TIP3    H2 6091   6.166   1.846   0.228  0.5403 -0.6414  0.5477
 2043TIP3   OH2 6092   4.737   2.017   1.628 -0.0037 -0.5883  0.1253
 2043TIP3    H1 6093   4.723   2.097   1.680  1.5732 -1.0898  1.3971
 2043TIP3    H2 6094   4.832   2.014   1.614 -0.2716 -1.1017 -1.8171
 2044TIP3   OH2 6095   2.923   5.217   4.164  0.0376  0.1569  0.1651
 2044TIP3    H1 6096   2.853   5.264   4.210  1.3612  2.5126 -0.0858
 2044TIP3    H2 6097   2.921   5.251   4.075  0.8812 -0.4927 -0.1192
 2045TIP3   OH2 6098   7.137   2.201   3.583  0.2798  0.2387  0.5676
 2045TIP3    H1 6099   7.103   2.120   3.544  1.9694 -0.1803 -0.1021
 2045TIP3    H2 6100   7.082   2.270   3.545  0.2820 -0.3932 -0.6308
 2046TIP3   OH2 6101   3.141   2.983   4.729 -0.1479  0.5908  0.7793
 2046TIP3    H1 6102   3.217   3.041   4.717  1.3688 -1.2168  1.1905
 2046TIP3    H2 6103   3.077   3.037   4.775  1.2910  1.8668  1.3804
 2047TIP3   OH2 6104   4.634   2.492   4.370 -0.1348  0.2490  0.2274
 2047TIP3    H1 6105   4.586   2.421   4.414 -0.5789 -2.0482 -3.4581
 2047TIP3    H2 6106   4.692   2.446   4.309  1.2039  3.0957 -0.7814
 2048TIP3   OH2 6107   4.557   3.965   2.277 -0.1625  0.3405  0.2638
 2048TIP3    H1 6108   4.472   3.979   2.317 -0.9815 -0.4568 -1.1067
 2048TIP3    H2 6109   4.591   3.885   2.318 -0.0670  0.6479  0.7937
 2049TIP3   OH2 6110   4.357   6.561   3.572  0.7531 -0.0294  0.1577
 2049TIP3    H1 6111   4.406   6.540   3.651 -0.3585 -2.5338  0.2757
 2049TIP3    H2 6112   4.272   6.518   3.583  0.6934 -0.8042 -2.5302
 2050TIP3   OH2 6113   6.483   3.499   4.932  0.1933 -0.8222 -0.2935
 2050TIP3    H1 6114   6.487   3.484   5.026 -0.9787  0.8310  0.0571
 2050TIP3    H2 6115   6.574   3.505   4.904  0.7598  3.7521  1.6783
 2051TIP3   OH2 6116   3.882   2.254   4.806  0.0370  0.2367  0.1545
 2051TIP3    H1 6117   3.956   2.237   4.747 -0.2000 -1.5905  0.3270
 2051TIP3    H2 6118   3.817   2.188   4.783 -0.3735 -0.0373  1.9295
 2052TIP3   OH2 6119   0.589   1.217   3.593  0.3683  0.0889  0.2142
 2052TIP3    H1 6120   0.602   1.157   3.519 -1.5073  0.1138 -0.1841
 2052TIP3    H2 6121   0.634   1.297   3.567 -2.0322  0.8743 -1.9673
 2053TIP3   OH2 6122   2.939   4.493   5.163 -0.4369  0.0763  0.3872
 2053TIP3    H1 6123   2.896   4.510   5.247 -1.6932  0.9836 -0.4025
 2053TIP3    H2 6124   3.007   4.560   5.157 -0.5407  0.1939  0.5333
 2054TIP3   OH2 6125   6.285   0.951   3.274 -0.7353 -0.1485 -0.4884
 2054TIP3    H1 6126   6.253   1.037   3.249  0.5642  0.4169 -0.2882
 2054TIP3    H2 6127   6.344   0.926   3.203  0.3194 -0.0386  0.3102
 2055TIP3   OH2 6128   4.032   5.944   2.001 -0.0160  0.2643  0.6037
 2055TIP3    H1 6129   4.070   5.955   2.088  0.7906  0.0644  0.2818
 2055TIP3    H2 6130   4.019   5.850   1.993  1.4088  0.1013 -0.0982
 2056TIP3   OH2 6131   0.432   3.134  -0.010  0.1253  0.2839 -0.3374
 2056TIP3    H1 6132   0.431   3.201   0.058  1.1835 -0.0797  0.0738
 2056TIP3    H2 6133   0.504   3.076   0.016  1.0710  0.5682 -2.1729
 2057TIP3   OH2 6134   5.891   4.009   3.598 -0.2243  0.0437  0.1235
 2057TIP3    H1 6135   5.949   3.994   3.672  1.0991 -0.9021 -1.0448
 2057TIP3    H2 6136   5.803   3.990   3.631  0.4510 -1.4781  1.1615
 2058TIP3   OH2 6137   4.000   4.863   5.551  0.6402  0.4655  0.3711
 2058TIP3    H1 6138   3.966   4.920   5.620 -1.2191  0.7399 -0.7080
 2058TIP3    H2 6139   3.976   4.775   5.580 -0.0668  0.5733  0.1266
 2059TIP3   OH2 6140   5.876   5.199   1.657  0.5451  0.4575 -0.1047
 2059TIP3    H1 6141   5.947   5.233   1.711  0.0298  1.7026 -0.1677
 2059TIP3    H2 6142   5.888   5.104   1.657  1.0521  0.4939  1.4937
 2060TIP3   OH2 6143   0.446   1.759   4.349  0.4022  1.1552 -0.3063
 2060TIP3    H1 6144   0.457   1.709   4.268 -0.7223  0.4551 -0.0431
 2060TIP3    H2 6145   0.357   1.794   4.344  0.4708  1.4489  0.4403
 2061TIP3   OH2 6146   2.676   2.949   1.284 -0.1545  0.4283 -0.1665
 2061TIP3    H1 6147   2.704   2.863   1.316 -1.2954 -0.8036 -2.2654
 2061TIP3    H2 6148   2.616   2.981   1.352  0.6740 -0.1778  0.8873
 2062TIP3   OH2 6149   3.248   0.073   5.177 -0.4661  0.2886  0.0131
 2062TIP3    H1 6150   3.319   0.132   5.151 -0.1083 -0.1557 -0.0395
 2062TIP3    H2 6151   3.170   0.111   5.138 -0.3300  1.0384  0.4592
 2063TIP3   OH2 6152   4.890   1.747   2.797  0.3101  0.1999  0.6537
 2063TIP3    H1 6153   4.974   1.774   2.835  0.8829  1.6091 -1.4558
 2063TIP3    H2 6154   4.881   1.799   2.717 -2.6843  0.2580  0.8812
 2064TIP3   OH2 6155   4.326   0.272   1.562 -0.3949  0.0583  0.7170
 2064TIP3    H1 6156   4.303   0.316   1.480 -1.3135 -0.8431  0.4771
 2064TIP3    H2 6157   4.403   0.320   1.594  0.7655 -0.3600 -1.3038
 2065TIP3   OH2 6158   6.247   3.463   0.587  0.5392  0.4827  0.3873
 2065TIP3    H1 6159   6.260   3.547   0.631  1.1599  1.5069 -1.6211
 2065TIP3    H2 6160   6.221   3.486   0.498  0.9552 -1.4617 -0.2945
 2066TIP3   OH2 6161   0.366   5.765   4.518 -0.4491  0.0307  0.1145
 2066TIP3    H1 6162   0.370   5.686   4.465  0.1745  0.4229 -0.4376
 2066TIP3    H2 6163   0.379   5.734   4.608  0.8486 -0.3941 -0.1974
 2067TIP3   OH2 6164   0.507   0.577   1.488  0.6594  0.0973  0.3720
 2067TIP3    H1 6165   0.421   0.615   1.508 -0.6688 -2.1441 -0.7530
 2067TIP3    H2 6166   0.553   0.648   1.443 -0.8629  1.1408  0.3452
 2068TIP3   OH2 6167   7.217   0.447   3.335  0.2740  0.7961  0.0929
 2068TIP3    H1 6168   7.230   0.404   3.419 -0.6401  2.4799  1.1272
 2068TIP3    H2 6169   7.128   0.423   3.309  0.0125  1.4663  0.3430
 2069TIP3   OH2 6170   3.203   3.577   0.772  0.5622  0.2497  0.1817
 2069TIP3    H1 6171   3.230   3.486   0.777 -0.6506 -0.1857 -0.6480
 2069TIP3    H2 6172   3.285   3.626   0.768  1.2428 -0.9087 -0.8953
 2070TIP3   OH2 6173   0.190   3.710   5.139  0.1851 -0.1988 -0.2837
 2070TIP3    H1 6174   0.216   3.654   5.213  0.0837 -0.3985 -0.3961
 2070TIP3    H2 6175   0.248   3.684   5.068 -0.6993 -1.0795 -0.7164
 2071TIP3   OH2 6176   4.137   6.411   1.200  0.8939  0.4762 -0.4449
 2071TIP3    H1 6177   4.066   6.422   1.263  0.7703  0.3529 -0.5606
 2071TIP3    H2 6178   4.093   6.383   1.119  1.0127  0.9614 -0.6860
 2072TIP3   OH2 6179   3.001   2.842   3.114 -0.3889 -0.0148 -0.5572
 2072TIP3    H1 6180   2.985   2.842   3.208  0.7641 -2.1317 -0.3189
 2072TIP3    H2 6181   2.924   2.887   3.077 -1.1771  0.2680  1.3149
 2073TIP3   OH2 6182   6.193   2.130   2.922  0.2201  0.3457  0.2697
 2073TIP3    H1 6183   6.172   2.183   2.999 -0.0924  0.1831  0.2990
 2073TIP3    H2 6184   6.141   2.167   2.851 -2.8704 -2.0764  1.0448
 2074TIP3   OH2 6185   5.444   6.366   5.078  0.2695 -0.2886 -0.5041
 2074TIP3    H1 6186   5.473   6.440   5.025  0.7292  0.4637  0.7510
 2074TIP3    H2 6187   5.471   6.289   5.028  0.8322  0.3936 -1.2831
 2075TIP3   OH2 6188   5.407   4.384   1.492  0.0773  0.0783 -0.4504
 2075TIP3    H1 6189   5.484   4.326   1.487 -1.0199 -1.4518 -0.3520
 2075TIP3    H2 6190   5.432   4.461   1.442  2.2074  0.2655  0.7650
 2076TIP3   OH2 6191   1.715   4.663   1.102 -0.0643  0.1453 -0.0985
 2076TIP3    H1 6192   1.683   4.576   1.127 -0.5566  0.6963  1.2973
 2076TIP3    H2 6193   1.800   4.646   1.061 -0.1992 -0.9962  0.0488
 2077TIP3   OH2 6194   2.904   4.530   4.190 -0.1683  0.4135  0.3417
 2077TIP3    H1 6195   2.939   4.540   4.279  0.2689 -0.1239  0.2306
 2077TIP3    H2 6196   2.814   4.564   4.196  0.4990  2.2442  0.5124
 2078TIP3   OH2 6197   6.302   4.672   5.004 -0.0984 -0.2022  0.6182
 2078TIP3    H1 6198   6.265   4.714   5.082 -0.9853 -1.4421  0.8820
 2078TIP3    H2 6199   6.388   4.713   4.994 -0.6048  1.1099  1.3145
 2079TIP3   OH2 6200   4.078   4.641   3.345 -0.1123  0.3364 -0.3039
 2079TIP3    H1 6201   4.046   4.648   3.255  0.8401 -2.4665 -0.9692
 2079TIP3    H2 6202   4.004   4.602   3.393 -0.6047  1.7910  0.1720
 2080TIP3   OH2 6203   2.075   3.270   2.487 -0.3183 -0.6116 -0.0144
 2080TIP3    H1 6204   2.084   3.181   2.520 -1.8810 -0.2092  1.6616
 2080TIP3    H2 6205   1.986   3.275   2.453  0.2597 -0.1042 -1.5575
 2081TIP3   OH2 6206   6.673   0.347   5.582 -0.1016 -0.5188 -0.2109
 2081TIP3    H1 6207   6.709   0.317   5.666  0.0244 -0.5459 -0.2739
 2081TIP3    H2 6208   6.586   0.380   5.603 -0.4674 -1.4404 -0.2262
 2082TIP3   OH2 6209   0.531   0.392   3.917  0.3961 -0.3483 -0.6276
 2082TIP3    H1 6210   0.497   0.470   3.873  1.0231 -1.7003 -3.8247
 2082TIP3    H2 6211   0.586   0.426   3.987 -1.6923  1.9674  0.0357
 2083TIP3   OH2 6212   4.683   3.163   3.655  0.1521 -0.7124  0.0839
 2083TIP3    H1 6213   4.620   3.138   3.587  0.0368 -0.9109  0.2638
 2083TIP3    H2 6214   4.758   3.106   3.639 -0.2302 -1.4145  0.6858
 2084TIP3   OH2 6215   6.988   3.090   1.745  0.6447 -0.6745 -0.0737
 2084TIP3    H1 6216   7.019   3.172   1.708 -0.3496 -0.1824  0.1396
 2084TIP3    H2 6217   6.917   3.063   1.687  2.4374 -2.6278 -1.5117
 2085TIP3   OH2 6218   1.434   4.086   0.831  0.5745 -0.2616  0.1061
 2085TIP3    H1 6219   1.344   4.077   0.798  0.6203 -2.0874  0.3706
 2085TIP3    H2 6220   1.449   4.007   0.882  1.9102  0.6273  1.1723
 2086TIP3   OH2 6221   3.140   1.550   0.216  0.3469 -0.0979  0.0465
 2086TIP3    H1 6222   3.204   1.499   0.167  0.0293 -0.9370  0.4938
 2086TIP3    H2 6223   3.059   1.542   0.167  0.4708  0.5885 -0.2754
 2087TIP3   OH2 6224   1.688   0.141   1.789  0.4946  0.3841 -0.7656
 2087TIP3    H1 6225   1.658   0.069   1.844  0.3942 -0.0893 -1.4343
 2087TIP3    H2 6226   1.704   0.213   1.851 -0.7768  0.2518 -0.2527
 2088TIP3   OH2 6227   2.251   1.781   3.347 -0.0520  0.1487  0.2998
 2088TIP3    H1 6228   2.185   1.790   3.278  0.5907 -1.8339 -0.6350
 2088TIP3    H2 6229   2.211   1.725   3.412  0.5181 -0.6950 -0.0574
 2089TIP3   OH2 6230   5.835   3.966   3.007  0.2454 -0.4123 -0.5973
 2089TIP3    H1 6231   5.872   4.026   2.943  0.1390  0.2886 -0.0095
 2089TIP3    H2 6232   5.889   3.977   3.085  0.6846 -1.6194 -0.6994
 2090TIP3   OH2 6233   5.159   6.594   3.959 -0.2473  0.3626  0.5836
 2090TIP3    H1 6234   5.214   6.599   3.881  1.3900 -0.7904  1.5950
 2090TIP3    H2 6235   5.075   6.631   3.932 -0.2613 -1.4390 -2.1638
 2091TIP3   OH2 6236   2.630   3.423   2.626 -0.9452 -0.5064  0.3678
 2091TIP3    H1 6237   2.608   3.506   2.584  0.9198 -0.9726 -1.7121
 2091TIP3    H2 6238   2.548   3.394   2.667 -1.9050  1.7776  0.1974
 2092TIP3   OH2 6239   3.265   2.227   2.767 -0.3042  0.4229 -0.1541
 2092TIP3    H1 6240   3.253   2.290   2.838 -0.1966  0.1513  0.1075
 2092TIP3    H2 6241   3.213   2.262   2.695 -2.3983 -0.5393  0.8203
 2093TIP3   OH2 6242   6.151   1.465   5.213 -0.0751 -0.2693 -0.5211
 2093TIP3    H1 6243   6.213   1.402   5.176 -0.8916 -1.1121 -0.4733
 2093TIP3    H2 6244   6.098   1.493   5.138  0.4383  0.5606 -0.5886
 2094TIP3   OH2 6245   2.700   0.348   2.890 -0.2700  0.3962 -0.3009
 2094TIP3    H1 6246   2.759   0.424   2.887  0.9898 -0.1367  4.1521
 2094TIP3    H2 6247   2.757   0.273   2.874 -0.5240  0.1175  0.0906
 2095TIP3   OH2 6248   0.409   4.865   0.367 -0.1468  0.2996  0.4351
 2095TIP3    H1 6249   0.342   4.870   0.299  0.5269  1.4743 -0.1685
 2095TIP3    H2 6250   0.442   4.775   0.362 -0.6757  0.1398 -0.2381
 2096TIP3   OH2 6251   4.823   0.188   3.795 -0.0838 -0.2076  0.2576
 2096TIP3    H1 6252   4.747   0.134   3.815  0.3909 -1.0993 -0.2627
 2096TIP3    H2 6253   4.798   0.276   3.821 -0.0093 -1.0039  3.5000
 2097TIP3   OH2 6254   3.546   1.349   0.781 -0.1661  0.1207  0.2570
 2097TIP3    H1 6255   3.599   1.405   0.724 -1.5174  0.3398 -0.8288
 2097TIP3    H2 6256   3.568   1.260   0.754 -0.6666  0.2202 -0.4941
 2098TIP3   OH2 6257   5.394   1.464   0.137  0.4458  0.4152 -0.0961
 2098TIP3    H1 6258   5.478   1.466   0.091  0.2847  1.0969 -0.3694
 2098TIP3    H2 6259   5.329   1.463   0.067  0.2226 -1.2103  0.0943
 2099TIP3   OH2 6260   3.704   4.485   2.583 -0.3784 -0.2936  0.0004
 2099TIP3    H1 6261   3.665   4.504   2.668 -1.8633 -0.7886 -0.5306
 2099TIP3    H2 6262   3.672   4.397   2.561  0.6147 -0.4961 -0.7231
 2100TIP3   OH2 6263   5.105   5.463   0.076 -0.1112  0.1706 -0.0260
 2100TIP3    H1 6264   5.199   5.461   0.094 -0.4247  0.4257  1.9312
 2100TIP3    H2 6265   5.098   5.445  -0.017  1.9331  1.2515 -0.4487
 2101TIP3   OH2 6266   0.137   2.643   3.941 -0.1604  0.0645  0.3184
 2101TIP3    H1 6267   0.115   2.719   3.888 -0.2195  0.0315  0.2965
 2101TIP3    H2 6268   0.144   2.678   4.030  0.5246  0.2301  0.2041
 2102TIP3   OH2 6269   1.833   0.414   0.099  0.0647  0.1226 -0.1559
 2102TIP3    H1 6270   1.859   0.393   0.188  0.2544  0.8531 -0.0404
 2102TIP3    H2 6271   1.742   0.383   0.092 -0.5447  1.6021  0.8276
 2103TIP3   OH2 6272   3.796   0.475   2.205  0.2147 -1.0214  0.0903
 2103TIP3    H1 6273   3.779   0.500   2.114 -0.2566 -1.0290  0.1756
 2103TIP3    H2 6274   3.718   0.503   2.253  0.6199 -0.6732  0.5596
 2104TIP3   OH2 6275   5.061   1.317   1.906 -0.0126 -0.2383 -0.7748
 2104TIP3    H1 6276   5.016   1.321   1.990  1.1547 -1.9962 -0.0021
 2104TIP3    H2 6277   4.993   1.293   1.843 -0.7830  0.4945 -0.2368
 2105TIP3   OH2 6278   3.352   0.890   3.959 -0.4195  0.2868 -0.2720
 2105TIP3    H1 6279   3.442   0.865   3.980 -0.3961 -0.6357 -1.3662
 2105TIP3    H2 6280   3.315   0.813   3.916 -1.6511  0.7495 -0.0733
 2106TIP3   OH2 6281   1.330   1.088   0.818  0.1512 -0.2224 -0.1416
 2106TIP3    H1 6282   1.368   1.050   0.739 -2.5738  0.1925 -1.7551
 2106TIP3    H2 6283   1.294   1.012   0.865  0.2643 -0.2849 -0.1544
 2107TIP3   OH2 6284   7.126   5.227   5.729  0.2499 -0.3220 -0.0146
 2107TIP3    H1 6285   7.127   5.161   5.660  0.8364 -1.8549  1.4049
 2107TIP3    H2 6286   7.040   5.217   5.771 -0.0664  0.5425 -0.4146
 2108TIP3   OH2 6287   2.047   4.524   2.046 -0.0319 -0.5359 -0.6172
 2108TIP3    H1 6288   2.038   4.613   2.082  2.1801 -0.3430 -0.4012
 2108TIP3    H2 6289   2.013   4.531   1.957  1.6348  0.9898 -1.1989
 2109TIP3   OH2 6290   3.838   5.191   0.804  0.3132 -0.4970 -0.0712
 2109TIP3    H1 6291   3.878   5.123   0.859  2.4119 -0.3852 -1.3699
 2109TIP3    H2 6292   3.893   5.268   0.817 -0.9701  0.4488 -0.0288
 2110TIP3   OH2 6293   6.619   0.236   2.638 -0.4132 -0.4789 -0.0356
 2110TIP3    H1 6294   6.533   0.252   2.601 -0.0001 -2.0649 -1.8667
 2110TIP3    H2 6295   6.602   0.185   2.718 -1.1859 -0.3531 -0.1151
 2111TIP3   OH2 6296   4.611   0.082   0.390  0.3227 -0.1659  0.8312
 2111TIP3    H1 6297   4.706   0.090   0.387  0.2761  0.2356  0.1380
 2111TIP3    H2 6298   4.592   0.008   0.332  0.1363  0.5648 -0.0642
 2112TIP3   OH2 6299   0.353   2.418   0.075  0.4567  0.5335 -0.2211
 2112TIP3    H1 6300   0.374   2.427  -0.018  0.7413 -0.9624 -0.3248
 2112TIP3    H2 6301   0.385   2.499   0.115  0.0741  1.3224 -1.4541
 2113TIP3   OH2 6302   1.745   5.014   5.778 -0.2502  0.0954 -0.2314
 2113TIP3    H1 6303   1.760   5.061   5.696 -0.6235  0.4580 -0.0938
 2113TIP3    H2 6304   1.669   5.057   5.817  0.8129  0.9101  1.0344
 2114TIP3   OH2 6305   0.765   3.314   1.296 -0.7288 -0.7776  0.6922
 2114TIP3    H1 6306   0.814   3.306   1.377 -0.9770  2.3138  1.2562
 2114TIP3    H2 6307   0.676   3.286   1.319 -0.0927 -3.1632  0.5223
 2115TIP3   OH2 6308   2.576   3.166   5.694  0.3218  1.0245 -0.2411
 2115TIP3    H1 6309   2.521   3.244   5.681  1.2769  1.5576 -1.2825
 2115TIP3    H2 6310   2.560   3.113   5.616 -0.6791 -0.0798  0.6827
 2116TIP3   OH2 6311   6.217   0.615   4.289 -0.3731  0.1347  0.4290
 2116TIP3    H1 6312   6.312   0.608   4.300 -0.5818 -1.6365  1.3509
 2116TIP3    H2 6313   6.202   0.587   4.199 -0.0751  0.0325  0.4083
 2117TIP3   OH2 6314   4.683   6.695   3.995 -0.1780  0.7112  0.1613
 2117TIP3    H1 6315   4.663   6.787   4.012  0.4164  0.5238  2.1639
 2117TIP3    H2 6316   4.679   6.654   4.081  0.1712 -1.0185 -0.6175
 2118TIP3   OH2 6317   5.085   3.071   1.496 -0.7155 -0.2977  0.6748
 2118TIP3    H1 6318   5.047   3.074   1.584  0.5626  0.6496  1.2291
 2118TIP3    H2 6319   5.129   3.155   1.486 -0.2944 -0.6468 -0.6365
 2119TIP3   OH2 6320   4.239   5.605   2.696 -0.8303 -0.3343 -0.0952
 2119TIP3    H1 6321   4.233   5.515   2.664 -0.0082 -0.3921 -0.1124
 2119TIP3    H2 6322   4.248   5.596   2.791  0.8843 -0.3705 -0.2240
 2120TIP3   OH2 6323   0.521   5.975   2.084  0.3319  0.3268  0.1420
 2120TIP3    H1 6324   0.507   6.068   2.101  1.4468  0.4084  0.7440
 2120TIP3    H2 6325   0.595   5.972   2.023 -0.2879 -0.1485 -0.6069
 2121TIP3   OH2 6326   0.192   3.524   5.843  0.8692 -0.4552  0.0948
 2121TIP3    H1 6327   0.170   3.434   5.869 -2.5229  0.5449  1.1739
 2121TIP3    H2 6328   0.182   3.524   5.748  1.9679 -1.4350 -0.0431
 2122TIP3   OH2 6329   5.478   0.467   3.223 -0.1243  0.2321 -0.6441
 2122TIP3    H1 6330   5.438   0.388   3.258  0.0175  0.0321 -0.9311
 2122TIP3    H2 6331   5.410   0.507   3.168  0.0219 -0.0413 -1.0302
 2123TIP3   OH2 6332   4.822   6.745   2.286 -0.3404  0.4444  0.2294
 2123TIP3    H1 6333   4.822   6.679   2.355  1.0857 -0.0704 -0.2246
 2123TIP3    H2 6334   4.914   6.754   2.262 -0.7537  0.9890 -1.2527
 2124TIP3   OH2 6335   3.135   3.209   1.340 -0.3580  0.1275 -0.5037
 2124TIP3    H1 6336   3.196   3.268   1.296 -0.1351  0.1553 -0.1626
 2124TIP3    H2 6337   3.165   3.121   1.318 -0.0135  0.1400 -0.0937
 2125TIP3   OH2 6338   0.471   4.134   4.419 -0.0275 -0.0842  0.1948
 2125TIP3    H1 6339   0.483   4.095   4.505  0.3482 -0.5564 -0.0668
 2125TIP3    H2 6340   0.476   4.061   4.357 -0.2939  0.2460 -0.2310
 2126TIP3   OH2 6341   2.969   6.553   3.581  0.8126  0.3541 -0.1384
 2126TIP3    H1 6342   2.985   6.471   3.628  1.3399 -0.0244 -0.9493
 2126TIP3    H2 6343   2.924   6.609   3.644 -2.2531 -1.5718 -0.3953
 2127TIP3   OH2 6344   1.996   1.900   3.776  0.1762 -0.3512 -0.6222
 2127TIP3    H1 6345   1.950   1.961   3.834  0.1213 -0.4001 -0.6140
 2127TIP3    H2 6346   1.931   1.833   3.756  0.7839 -1.4808  0.9486
 2128TIP3   OH2 6347   1.429   5.181   0.815 -0.1387 -0.0408 -0.2513
 2128TIP3    H1 6348   1.379   5.129   0.878 -0.5877  0.4481 -0.1996
 2128TIP3    H2 6349   1.520   5.175   0.846 -0.4216  0.6593  0.7938
 2129TIP3   OH2 6350   5.339   6.554   4.684 -0.4238  0.1207  0.1012
 2129TIP3    H1 6351   5.311   6.619   4.620 -0.5364 -0.7873 -0.7934
 2129TIP3    H2 6352   5.259   6.531   4.731 -0.5380  0.0300 -0.1367
 2130TIP3   OH2 6353   0.938   3.478   5.769  0.1707  0.2952 -0.0298
 2130TIP3    H1 6354   1.033   3.475   5.761  0.0953  0.7940 -1.3020
 2130TIP3    H2 6355   0.913   3.565   5.737 -0.7816 -0.2006 -0.7051
 2131TIP3   OH2 6356   2.346   4.723   5.458  0.0326 -0.3857 -0.0264
 2131TIP3    H1 6357   2.262   4.678   5.452  1.2448 -2.7357 -0.5510
 2131TIP3    H2 6358   2.373   4.711   5.549  0.4130 -0.8524 -0.1961
 2132TIP3   OH2 6359   4.877   6.183   5.684  0.3793 -0.0916  0.1881
 2132TIP3    H1 6360   4.962   6.154   5.650 -1.1853 -2.3162 -2.1159
 2132TIP3    H2 6361   4.844   6.108   5.733  0.2712  1.2781  2.4032
 2133TIP3   OH2 6362   1.436   1.644   4.735  0.0601 -0.4977  0.3051
 2133TIP3    H1 6363   1.360   1.602   4.694 -0.1788 -0.2899  0.5301
 2133TIP3    H2 6364   1.509   1.622   4.677 -0.5287  1.1309 -1.1291
 2134TIP3   OH2 6365   1.738   4.248   1.726 -0.3807 -0.1884  0.0390
 2134TIP3    H1 6366   1.694   4.248   1.641 -0.9425  0.9989  0.3117
 2134TIP3    H2 6367   1.794   4.170   1.724 -2.5066 -1.7949 -0.2974
 2135TIP3   OH2 6368   7.146   5.926   0.160 -0.2274  0.5211  0.0347
 2135TIP3    H1 6369   7.084   5.908   0.089  1.2682  0.3973 -1.3061
 2135TIP3    H2 6370   7.200   5.847   0.164  0.6154  1.1094  0.3521
 2136TIP3   OH2 6371   2.081   2.105   2.535  0.3766 -0.2551  0.2431
 2136TIP3    H1 6372   1.999   2.056   2.528  1.2824 -1.9006  0.6428
 2136TIP3    H2 6373   2.140   2.061   2.473  1.7668 -0.8928  1.9266
 2137TIP3   OH2 6374   1.739   6.518   0.399 -0.3644 -0.5001 -0.3855
 2137TIP3    H1 6375   1.658   6.520   0.349  0.8344  0.2082 -2.4110
 2137TIP3    H2 6376   1.808   6.510   0.333  1.1734 -2.8582  1.3484
 2138TIP3   OH2 6377   0.670   6.379   1.539 -0.1216 -0.3654 -0.1965
 2138TIP3    H1 6378   0.760   6.411   1.549  0.0104 -0.7591 -0.0837
 2138TIP3    H2 6379   0.679   6.283   1.544 -0.0730 -0.6686 -3.5715
 2139TIP3   OH2 6380   0.620   0.670   0.999 -0.3495  0.0989 -0.1759
 2139TIP3    H1 6381   0.624   0.661   1.094  0.7486 -1.1079 -0.3111
 2139TIP3    H2 6382   0.527   0.660   0.978 -0.4497 -0.9047  0.6660
 2140TIP3   OH2 6383   5.064   0.099   3.920 -0.1382 -0.5534 -0.3372
 2140TIP3    H1 6384   5.115   0.180   3.912  0.2433 -0.8381 -0.7711
 2140TIP3    H2 6385   4.976   0.124   3.890 -0.7544  0.3783  1.9630
 2141TIP3   OH2 6386   3.420   6.220   3.768 -0.3555 -0.0845  0.8248
 2141TIP3    H1 6387   3.455   6.231   3.857 -2.0198 -3.1262  1.9854
 2141TIP3    H2 6388   3.352   6.288   3.761 -0.3956  0.0216  1.9868
 2142TIP3   OH2 6389   6.829   5.943   1.245  1.2485  0.1656 -0.6900
 2142TIP3    H1 6390   6.905   5.886   1.249  1.1905  0.1262  1.4461
 2142TIP3    H2 6391   6.790   5.927   1.160  2.3109 -1.5528 -0.8848
 2143TIP3   OH2 6392   1.948   5.401   1.823  0.3888 -0.4864 -0.0571
 2143TIP3    H1 6393   1.925   5.308   1.835 -0.9593 -0.1450  0.1850
 2143TIP3    H2 6394   2.013   5.400   1.752 -1.3169 -1.4508 -1.7297
 2144TIP3   OH2 6395   5.648   2.155   1.872  0.4631 -0.1584 -0.2750
 2144TIP3    H1 6396   5.663   2.134   1.780  0.6468 -0.9303 -0.0739
 2144TIP3    H2 6397   5.642   2.251   1.874  0.9594 -0.1027 -1.0113
 2145TIP3   OH2 6398   3.260   4.154   5.398  0.0504 -0.0809  0.4112
 2145TIP3    H1 6399   3.278   4.063   5.373 -0.0864 -0.2777  0.9980
 2145TIP3    H2 6400   3.338   4.202   5.373 -0.0439 -0.2835 -0.2888
 2146TIP3   OH2 6401   0.595   4.491   1.001  0.0167 -0.2029 -0.0134
 2146TIP3    H1 6402   0.533   4.472   0.931  0.6045 -0.0584 -0.5841
 2146TIP3    H2 6403   0.669   4.432   0.984 -0.7383 -1.7479  1.7514
 2147TIP3   OH2 6404   0.775   2.555   3.421 -0.2704  0.0773  0.8129
 2147TIP3    H1 6405   0.812   2.553   3.509  1.1613 -1.0507  0.2276
 2147TIP3    H2 6406   0.834   2.500   3.369  0.1550  2.3713 -1.3262
 2148TIP3   OH2 6407   4.541   3.254   3.096 -0.1185  0.0639 -0.0296
 2148TIP3    H1 6408   4.493   3.228   3.174 -1.6916  1.4754 -0.4563
 2148TIP3    H2 6409   4.613   3.192   3.090  0.1988  0.0602  2.6594
 2149TIP3   OH2 6410   3.123   3.947   0.301  0.1257 -0.3574  0.4486
 2149TIP3    H1 6411   3.214   3.930   0.325 -0.0964 -1.9719  0.2744
 2149TIP3    H2 6412   3.107   3.889   0.226 -0.4824  1.3463 -0.8191
 2150TIP3   OH2 6413   3.461   1.077   2.445  0.2059 -0.2586 -0.0672
 2150TIP3    H1 6414   3.428   1.167   2.447  0.1319 -0.2940  0.5601
 2150TIP3    H2 6415   3.530   1.078   2.379 -0.1616  0.1312 -0.4497
 2151TIP3   OH2 6416   1.464   0.505   1.832 -0.4245 -0.0812  0.2069
 2151TIP3    H1 6417   1.529   0.558   1.785 -0.4244  0.7781  1.1301
 2151TIP3    H2 6418   1.415   0.460   1.764  0.1652  0.4326 -0.5704
 2152TIP3   OH2 6419   3.104   4.381   0.221 -0.0893 -0.0594 -0.3914
 2152TIP3    H1 6420   3.022   4.332   0.217 -0.2256  0.2038 -0.8700
 2152TIP3    H2 6421   3.165   4.322   0.265 -0.2536 -0.6650 -0.9511
 2153TIP3   OH2 6422   0.745   2.868   0.634  0.0389 -0.9522  0.2516
 2153TIP3    H1 6423   0.770   2.851   0.543 -1.8799  1.2658 -0.7741
 2153TIP3    H2 6424   0.816   2.921   0.669 -0.9767  1.5717 -1.2664
 2154TIP3   OH2 6425   2.641   1.354   3.851 -0.3899 -0.1081 -0.6240
 2154TIP3    H1 6426   2.654   1.305   3.932 -2.2551 -0.9795 -0.7925
 2154TIP3    H2 6427   2.582   1.300   3.799  0.1869  0.7672 -2.2850
 2155TIP3   OH2 6428   4.435   2.838   3.881 -0.2934  0.1279 -0.3065
 2155TIP3    H1 6429   4.449   2.769   3.816  0.2416 -1.0581  0.9887
 2155TIP3    H2 6430   4.511   2.895   3.874 -0.9378  0.8501 -1.6711
 2156TIP3   OH2 6431   5.900   1.139   0.929  0.2353 -0.5043  0.9509
 2156TIP3    H1 6432   5.887   1.113   1.020  4.0821 -0.4144  1.7153
 2156TIP3    H2 6433   5.945   1.064   0.889 -1.7297 -0.7000 -1.0663
 2157TIP3   OH2 6434   2.901   2.870   3.374 -0.0034 -0.3359  0.1822
 2157TIP3    H1 6435   2.872   2.876   3.465  2.0909 -1.1975  0.9577
 2157TIP3    H2 6436   2.858   2.792   3.340 -1.2781  0.3229  0.1977
 2158TIP3   OH2 6437   4.672   1.317   4.601 -0.1508 -0.0918  0.4248
 2158TIP3    H1 6438   4.630   1.237   4.632  0.2518  0.2053  1.7939
 2158TIP3    H2 6439   4.732   1.342   4.671 -0.1206  1.2973 -0.0573
 2159TIP3   OH2 6440   3.232   1.396   0.997  0.2527 -0.1936 -0.8478
 2159TIP3    H1 6441   3.241   1.477   0.947 -0.1465 -0.7547 -1.8463
 2159TIP3    H2 6442   3.199   1.332   0.934 -0.9826 -0.7329  0.3013
 2160TIP3   OH2 6443   7.094   5.373   0.531  0.9432  0.0299 -0.6299
 2160TIP3    H1 6444   7.114   5.465   0.542 -1.7080  0.8719 -2.0271
 2160TIP3    H2 6445   7.155   5.328   0.590  1.0246  2.7529  1.5642
 2161TIP3   OH2 6446   3.103   4.862   0.558 -1.1027 -0.0251 -0.4566
 2161TIP3    H1 6447   3.090   4.823   0.645 -2.3027 -1.8618 -1.3879
 2161TIP3    H2 6448   3.197   4.879   0.553 -0.3741 -3.2307 -0.0693
 2162TIP3   OH2 6449   1.524   2.544   4.187 -0.2382  0.4610 -0.0869
 2162TIP3    H1 6450   1.619   2.544   4.172 -0.0649 -1.1136  0.8024
 2162TIP3    H2 6451   1.491   2.612   4.128  1.1929 -0.4510 -2.0553
 2163TIP3   OH2 6452   1.365   1.089   1.362 -0.7039  0.2586 -0.0600
 2163TIP3    H1 6453   1.324   1.092   1.275  0.4773 -0.3874 -0.6635
 2163TIP3    H2 6454   1.304   1.038   1.415 -1.6915  1.0905 -0.3464
 2164TIP3   OH2 6455   5.714   2.912   2.536  0.3859  0.9568  0.0494
 2164TIP3    H1 6456   5.718   2.820   2.561  3.1085  0.6761 -1.0974
 2164TIP3    H2 6457   5.645   2.949   2.592  0.4008 -1.3864  1.7619
 2165TIP3   OH2 6458   5.123   1.862   1.174  0.1204 -0.1907 -0.1336
 2165TIP3    H1 6459   5.151   1.953   1.164 -0.1543  0.1956  2.1683
 2165TIP3    H2 6460   5.034   1.867   1.210 -0.4628 -1.4014 -1.2791
 2166TIP3   OH2 6461   4.256   0.127   0.948  0.4864  0.1392 -0.0398
 2166TIP3    H1 6462   4.190   0.195   0.934  1.2172  0.7538 -0.5396
 2166TIP3    H2 6463   4.261   0.080   0.864 -0.6323 -1.1126  0.5533
 2167TIP3   OH2 6464   2.923   4.503   3.197 -0.3935 -0.2679 -0.1382
 2167TIP3    H1 6465   2.898   4.585   3.240 -0.4201 -0.5634  0.4117
 2167TIP3    H2 6466   3.019   4.503   3.197 -0.3505 -1.3009  1.9467
 2168TIP3   OH2 6467   5.237   0.403   1.767 -0.5728 -0.4254  0.0377
 2168TIP3    H1 6468   5.274   0.417   1.680  0.2731  0.7390  0.5599
 2168TIP3    H2 6469   5.210   0.490   1.796 -0.4513 -0.7310  1.1068
 2169TIP3   OH2 6470   1.119   0.363   2.496 -0.4386  0.5676  0.2595
 2169TIP3    H1 6471   1.202   0.361   2.544 -0.0601 -3.0690 -0.2498
 2169TIP3    H2 6472   1.144   0.355   2.404 -1.2509 -1.9250  0.1698
 2170TIP3   OH2 6473   3.165   3.826   3.185  0.6283 -0.1161 -0.1696
 2170TIP3    H1 6474   3.153   3.878   3.106 -2.8854  0.2523  0.4577
 2170TIP3    H2 6475   3.167   3.735   3.154 -1.3730 -0.0184 -0.7162
 2171TIP3   OH2 6476   4.681   5.778   5.529 -0.4003  0.0476 -0.3940
 2171TIP3    H1 6477   4.641   5.864   5.545 -0.9623 -0.6769  2.9474
 2171TIP3    H2 6478   4.607   5.717   5.527  0.1459 -0.6518 -0.0078
 2172TIP3   OH2 6479   5.179   4.367   2.515  0.5412 -0.7640  0.0432
 2172TIP3    H1 6480   5.228   4.443   2.483  0.1543 -1.5846 -2.6684
 2172TIP3    H2 6481   5.245   4.313   2.558  0.6963  1.3660  2.8640
 2173TIP3   OH2 6482   5.601   1.596   1.147  0.3168  0.3348  0.1289
 2173TIP3    H1 6483   5.562   1.666   1.200 -0.9150 -0.4405  0.2861
 2173TIP3    H2 6484   5.677   1.637   1.105  0.7424  1.2357  1.7028
 2174TIP3   OH2 6485   1.219   3.885   2.620  0.5042 -0.2323 -0.3075
 2174TIP3    H1 6486   1.201   3.902   2.713 -0.5568  0.1163 -0.5607
 2174TIP3    H2 6487   1.133   3.887   2.579  1.1220  1.9619 -1.6903
 2175TIP3   OH2 6488   6.770   0.721   2.048  0.1735  0.6308 -0.2069
 2175TIP3    H1 6489   6.772   0.803   1.999  0.1960  1.0787  0.5331
 2175TIP3    H2 6490   6.691   0.677   2.017  1.5538 -0.3586 -2.6324
 2176TIP3   OH2 6491   1.087   5.362   1.021  0.2017 -0.1410  0.2032
 2176TIP3    H1 6492   1.176   5.340   1.049 -0.1990 -1.6564  0.3746
 2176TIP3    H2 6493   1.030   5.306   1.075 -0.9356  1.4486  0.7622
 2177TIP3   OH2 6494   4.158   1.266   3.208 -0.1367  0.1966  0.0293
 2177TIP3    H1 6495   4.193   1.317   3.281  1.1735  0.3371 -0.6696
 2177TIP3    H2 6496   4.206   1.183   3.212  2.4056  1.3969 -2.5695
 2178TIP3   OH2 6497   3.644   2.859   5.508  0.2802  0.4962 -0.0834
 2178TIP3    H1 6498   3.714   2.822   5.563 -0.0253  0.2899  0.1663
 2178TIP3    H2 6499   3.641   2.801   5.432  1.3878  1.3498 -0.8220
 2179TIP3   OH2 6500   2.483   4.240   5.878  0.1251  0.0536 -0.4609
 2179TIP3    H1 6501   2.535   4.262   5.801  0.7309  0.1694 -0.0290
 2179TIP3    H2 6502   2.522   4.159   5.910  2.0471  1.6389  1.5793
 2180TIP3   OH2 6503   6.812   1.215   0.372  0.3641 -0.4411 -0.3774
 2180TIP3    H1 6504   6.869   1.290   0.387  0.2991 -0.1848 -1.3866
 2180TIP3    H2 6505   6.784   1.188   0.460  0.4844  0.6236 -0.0073
 2181TIP3   OH2 6506   0.541   2.457   4.853 -0.2281  0.4611  0.1556
 2181TIP3    H1 6507   0.621   2.510   4.846  2.5371 -2.9424  2.6416
 2181TIP3    H2 6508   0.478   2.514   4.897  0.4673  3.4424 -2.3435
 2182TIP3   OH2 6509   5.824   4.402   3.405  0.2010  0.3617 -0.0107
 2182TIP3    H1 6510   5.852   4.415   3.495  0.6501 -1.2933  0.1069
 2182TIP3    H2 6511   5.886   4.455   3.353 -0.6205  2.0620  0.6635
 2183TIP3   OH2 6512   2.776   3.273   5.888 -0.2643  0.4825  0.3220
 2183TIP3    H1 6513   2.802   3.361   5.861 -0.1290  0.1092 -0.8593
 2183TIP3    H2 6514   2.805   3.217   5.816  2.4895 -0.9935  2.3914
 2184TIP3   OH2 6515   4.148   5.834   3.566  0.3469 -0.1324  0.3974
 2184TIP3    H1 6516   4.164   5.771   3.496 -1.2941 -1.1614  0.8941
 2184TIP3    H2 6517   4.137   5.917   3.521  1.7114 -0.3101 -0.3353
 2185TIP3   OH2 6518   1.751   3.363   1.878  0.0856  0.0144 -0.2475
 2185TIP3    H1 6519   1.765   3.269   1.887  0.3270  0.1427  0.9038
 2185TIP3    H2 6520   1.774   3.399   1.964  1.8580  1.3557 -1.2293
 2186TIP3   OH2 6521   3.843   2.193   2.740 -0.2894  0.1454  0.0308
 2186TIP3    H1 6522   3.927   2.148   2.727 -0.2251  0.4642 -0.7024
 2186TIP3    H2 6523   3.777   2.132   2.708 -0.2634  0.2424 -0.2137
 2187TIP3   OH2 6524   6.288   5.371   0.651 -0.3411 -0.1417 -0.0868
 2187TIP3    H1 6525   6.378   5.356   0.622 -1.0522 -4.1128 -0.7385
 2187TIP3    H2 6526   6.282   5.327   0.735 -1.5984  0.4157  0.1333
 2188TIP3   OH2 6527   1.767   0.802   2.542 -0.1910  0.6105 -0.3571
 2188TIP3    H1 6528   1.805   0.739   2.481 -2.2339 -0.5832 -0.4712
 2188TIP3    H2 6529   1.744   0.878   2.488  1.1539  1.0180 -0.4184
 2189TIP3   OH2 6530   6.795   3.884   2.703  0.0115  0.3512  0.0701
 2189TIP3    H1 6531   6.889   3.887   2.722 -0.2030 -0.3000  1.3769
 2189TIP3    H2 6532   6.782   3.947   2.632  1.5960 -0.3672 -0.9080
 2190TIP3   OH2 6533   5.784   6.053   3.276  0.2553  0.3415  0.1353
 2190TIP3    H1 6534   5.836   6.039   3.197 -1.4624  1.2685 -1.2425
 2190TIP3    H2 6535   5.706   5.999   3.263  0.3315 -0.1803  1.6371
 2191TIP3   OH2 6536   6.376   1.305   5.153 -0.0557  0.8101  0.3024
 2191TIP3    H1 6537   6.420   1.350   5.081  0.6170  2.1543  1.4944
 2191TIP3    H2 6538   6.441   1.305   5.224 -1.3026  1.1560  1.4857
 2192TIP3   OH2 6539   4.488   0.691   5.333  0.2215  0.1830 -0.1484
 2192TIP3    H1 6540   4.423   0.624   5.354 -0.6787  0.8958 -0.5796
 2192TIP3    H2 6541   4.551   0.688   5.405 -0.0221 -0.8419  0.0349
 2193TIP3   OH2 6542   1.955  -0.011   3.778 -0.1070  0.2726 -0.1030
 2193TIP3    H1 6543   2.000  -0.001   3.862 -0.1940 -3.2103  0.4943
 2193TIP3    H2 6544   1.910   0.072   3.765  1.4404  1.6187  2.3339
 2194TIP3   OH2 6545   3.170   6.280   5.541  0.4914 -0.4433 -0.1306
 2194TIP3    H1 6546   3.192   6.331   5.620 -0.5246  0.0911 -0.1801
 2194TIP3    H2 6547   3.182   6.189   5.568 -1.3155 -0.3629  1.1581
 2195TIP3   OH2 6548   1.969   3.064   5.730 -0.7918  0.1548  0.2334
 2195TIP3    H1 6549   2.017   3.086   5.650 -0.9129 -0.1471  0.0759
 2195TIP3    H2 6550   2.015   3.110   5.799 -0.7151  0.4628 -0.0189
 2196TIP3   OH2 6551   5.790   2.103   1.194 -0.7469  0.0714  0.0974
 2196TIP3    H1 6552   5.847   2.135   1.124 -0.9937  1.1645  0.3709
 2196TIP3    H2 6553   5.704   2.140   1.174 -0.6390  1.1234  1.4260
 2197TIP3   OH2 6554   0.421   3.355   0.190 -0.2425 -0.2473 -0.3714
 2197TIP3    H1 6555   0.499   3.409   0.202 -0.6051  0.1179  0.5153
 2197TIP3    H2 6556   0.353   3.401   0.241 -0.6558 -1.3250  0.0722
 2198TIP3   OH2 6557   1.586   3.388   5.294  0.7742 -0.0007 -0.6474
 2198TIP3    H1 6558   1.584   3.379   5.199  1.1031 -1.1130 -0.5633
 2198TIP3    H2 6559   1.674   3.360   5.320  1.1805  1.6284 -0.1182
 2199TIP3   OH2 6560   3.715   4.740   4.062  0.0761  0.6232  0.0967
 2199TIP3    H1 6561   3.641   4.690   4.029 -1.0811  0.6251  2.4544
 2199TIP3    H2 6562   3.792   4.697   4.025 -0.9650 -1.7633  0.5557
 2200TIP3   OH2 6563   1.940   4.697   0.231 -0.1022  0.0857 -0.5688
 2200TIP3    H1 6564   1.938   4.625   0.294  0.1199  0.0393 -0.6135
 2200TIP3    H2 6565   1.848   4.719   0.216 -0.1439  0.4225  0.1380
 2201TIP3   OH2 6566   5.005   0.572   5.865  0.0738  0.1608  0.3892
 2201TIP3    H1 6567   4.994   0.663   5.892  0.2054  0.3795 -0.2708
 2201TIP3    H2 6568   4.923   0.550   5.820  0.2526  0.1264  0.0763
 2202TIP3   OH2 6569   0.970   2.189   2.201 -0.2779 -0.2058 -0.6620
 2202TIP3    H1 6570   0.893   2.197   2.258 -0.3034  0.3607 -0.7664
 2202TIP3    H2 6571   0.937   2.213   2.114 -0.2360 -1.0467 -0.9199
 2203TIP3   OH2 6572   1.675   5.460   2.953  0.4966  0.6330  0.2101
 2203TIP3    H1 6573   1.592   5.421   2.979 -0.1774  1.8445 -0.0440
 2203TIP3    H2 6574   1.693   5.527   3.019  1.1566  0.5452  0.1330
 2204TIP3   OH2 6575   0.921   6.627   2.528 -0.6309  0.2273  0.0021
 2204TIP3    H1 6576   0.885   6.703   2.482 -0.4398  0.9298  0.9853
 2204TIP3    H2 6577   1.016   6.639   2.525 -0.5814 -0.1631 -0.1378
 2205TIP3   OH2 6578   0.914   3.165   3.423  0.2556  0.0969  0.1096
 2205TIP3    H1 6579   0.869   3.188   3.505  0.4038  1.2289 -0.1097
 2205TIP3    H2 6580   0.910   3.245   3.370  1.9682  0.0531 -0.1558
 2206TIP3   OH2 6581   0.514   0.695   1.903 -0.0431  0.3800 -0.0334
 2206TIP3    H1 6582   0.504   0.608   1.940 -1.7560  0.3277 -0.5366
 2206TIP3    H2 6583   0.446   0.748   1.945  1.3378  1.6455  0.6999
 2207TIP3   OH2 6584   5.570   3.829   0.078  0.9591  0.1877 -0.4267
 2207TIP3    H1 6585   5.609   3.893   0.137  0.0357  0.7586 -0.4163
 2207TIP3    H2 6586   5.640   3.808   0.016  1.1517  1.5597 -0.7101
 2208TIP3   OH2 6587   1.348   2.204   0.314  0.0938 -0.5844  0.1641
 2208TIP3    H1 6588   1.391   2.179   0.396  1.2406  1.1392  0.1509
 2208TIP3    H2 6589   1.370   2.134   0.253  0.2513 -1.2917  1.0129
 2209TIP3   OH2 6590   3.963   4.604   5.655  0.5481  0.0037 -0.1674
 2209TIP3    H1 6591   3.950   4.621   5.748  1.2082  0.1932 -0.1023
 2209TIP3    H2 6592   3.914   4.524   5.637  1.6134 -0.8784  0.6813
 2210TIP3   OH2 6593   4.019   4.678   4.554 -0.1456  0.1660 -0.4833
 2210TIP3    H1 6594   4.112   4.654   4.552  0.9261  3.6918  0.0246
 2210TIP3    H2 6595   4.007   4.721   4.638 -0.6347  4.7497 -2.5927
 2211TIP3   OH2 6596   2.173   3.693   1.413  0.3706  0.4013  0.0224
 2211TIP3    H1 6597   2.250   3.636   1.404  0.8399  0.5510  2.4762
 2211TIP3    H2 6598   2.204   3.780   1.388  0.7330  0.2914  0.0810
 2212TIP3   OH2 6599   0.354   0.604   4.077  0.1937  0.0852 -0.3514
 2212TIP3    H1 6600   0.354   0.568   3.988  0.3347  0.4383 -0.4953
 2212TIP3    H2 6601   0.332   0.529   4.133  1.4792 -0.4722 -0.5493
 2213TIP3   OH2 6602   4.368   6.255   2.547 -0.2703 -0.2240 -0.1323
 2213TIP3    H1 6603   4.422   6.327   2.514 -0.3602 -0.7777 -1.5739
 2213TIP3    H2 6604   4.290   6.256   2.491 -0.0833 -1.6887 -0.4668
 2214TIP3   OH2 6605   5.018   4.708   2.634  0.3271  0.0994 -0.1187
 2214TIP3    H1 6606   4.965   4.710   2.555  0.0578  0.9528  0.0696
 2214TIP3    H2 6607   4.982   4.636   2.686 -1.4102  1.3550  0.5078
 2215TIP3   OH2 6608   0.733   3.881   2.140 -0.3341  0.1730  0.0142
 2215TIP3    H1 6609   0.812   3.891   2.087 -0.4131  2.3901  0.2499
 2215TIP3    H2 6610   0.696   3.798   2.111  0.3495  0.6473 -2.4245
 2216TIP3   OH2 6611   1.380   3.194   4.776 -0.3492  0.3972 -0.6652
 2216TIP3    H1 6612   1.338   3.280   4.773 -1.0608  0.1078  0.3747
 2216TIP3    H2 6613   1.328   3.144   4.840  0.3089 -0.6634 -0.9318
 2217TIP3   OH2 6614   5.306   0.753   4.736 -0.8616  0.9374  0.0203
 2217TIP3    H1 6615   5.350   0.803   4.806  1.5325  0.4123 -1.0015
 2217TIP3    H2 6616   5.295   0.666   4.773  1.1741  0.4183 -0.4397
 2218TIP3   OH2 6617   3.322   1.188   1.659  0.4416 -0.3851  0.6507
 2218TIP3    H1 6618   3.261   1.178   1.586  2.6191 -1.1053 -1.1441
 2218TIP3    H2 6619   3.344   1.281   1.660  0.4381 -0.3811  0.3671
 2219TIP3   OH2 6620   0.841   4.605   3.091 -0.2026  0.2715 -0.2343
 2219TIP3    H1 6621   0.788   4.652   3.026 -2.6940 -0.1910  1.3082
 2219TIP3    H2 6622   0.845   4.516   3.057 -1.3488  0.0697  0.1033
 2220TIP3   OH2 6623   2.318   4.702   0.616  0.0315  0.0958 -0.1337
 2220TIP3    H1 6624   2.356   4.751   0.543  2.3005 -2.0579 -0.5740
 2220TIP3    H2 6625   2.377   4.720   0.690 -1.3423  1.0154  0.7830
 2221TIP3   OH2 6626   5.070   6.229   2.789 -0.0358  0.0216  0.4421
 2221TIP3    H1 6627   5.074   6.156   2.728 -0.2666  0.5067 -0.1563
 2221TIP3    H2 6628   4.983   6.266   2.778  0.5640  1.2778 -0.3035
 2222TIP3   OH2 6629   3.165   5.956   3.881 -0.1436 -0.1767 -0.5233
 2222TIP3    H1 6630   3.091   5.976   3.938 -2.4505 -1.6419 -2.8394
 2222TIP3    H2 6631   3.189   5.866   3.903  0.6013  0.0855 -0.2129
 2223TIP3   OH2 6632   0.706   5.674   0.555  0.1567 -0.5716  0.0510
 2223TIP3    H1 6633   0.769   5.625   0.502  1.6975 -0.6594  1.8655
 2223TIP3    H2 6634   0.649   5.607   0.594  0.2623 -0.6595  0.0525
 2224TIP3   OH2 6635   2.789   2.475   1.784  0.3010  0.4877  0.3577
 2224TIP3    H1 6636   2.878   2.457   1.814  0.8995 -0.3532 -1.7505
 2224TIP3    H2 6637   2.733   2.446   1.856  1.6569 -0.9706  0.8857
 2225TIP3   OH2 6638   2.813   2.737   1.977  0.0805 -0.6044 -0.6905
 2225TIP3    H1 6639   2.892   2.791   1.967  0.1099 -0.1754  1.3987
 2225TIP3    H2 6640   2.845   2.647   1.970  0.7753 -0.4335  0.0839
 2226TIP3   OH2 6641   2.851   6.520   5.187  0.3475  0.8295  0.1114
 2226TIP3    H1 6642   2.929   6.509   5.242  0.9581  0.0121 -0.8797
 2226TIP3    H2 6643   2.780   6.538   5.248  0.7769 -1.1511  1.2667
 2227TIP3   OH2 6644   5.965   0.567   5.528  0.1012  0.1839 -0.5165
 2227TIP3    H1 6645   5.962   0.604   5.616  0.2905  0.0711 -0.4606
 2227TIP3    H2 6646   5.885   0.515   5.520  0.0306  0.2841 -0.4497
 2228TIP3   OH2 6647   0.169   0.341   0.097  0.0992  0.0745  0.1888
 2228TIP3    H1 6648   0.175   0.429   0.060  1.4800 -1.1712 -2.9549
 2228TIP3    H2 6649   0.261   0.315   0.110 -0.3118 -0.4440  2.4400
 2229TIP3   OH2 6650   4.132   0.131   3.039 -0.2218 -0.1364  0.3331
 2229TIP3    H1 6651   4.075   0.207   3.025  1.3125  0.8849 -0.7067
 2229TIP3    H2 6652   4.086   0.058   2.997 -0.1277  0.9659 -1.8283
 2230TIP3   OH2 6653   3.320   4.900   0.795 -0.5592  0.6907  0.5559
 2230TIP3    H1 6654   3.323   4.995   0.799  0.7675  0.6723  0.5559
 2230TIP3    H2 6655   3.407   4.875   0.761 -0.4987 -0.5570  1.5705
 2231TIP3   OH2 6656   2.610   2.276   3.499  0.0861 -0.1939 -0.3218
 2231TIP3    H1 6657   2.552   2.219   3.449  0.6606 -0.6295 -0.5063
 2231TIP3    H2 6658   2.695   2.232   3.496  0.7673  1.1108 -1.2365
 2232TIP3   OH2 6659   4.446   3.723   3.475 -0.2587 -0.1845 -0.6630
 2232TIP3    H1 6660   4.407   3.807   3.500 -1.1570 -0.1728 -1.9919
 2232TIP3    H2 6661   4.536   3.745   3.452  0.2767 -0.0288  1.4144
 2233TIP3   OH2 6662   4.323   5.232   3.994  0.2604  0.3850  0.2156
 2233TIP3    H1 6663   4.315   5.231   4.089 -0.8035 -0.2724  0.1311
 2233TIP3    H2 6664   4.365   5.316   3.975  0.6734  0.4338  1.2715
 2234TIP3   OH2 6665   4.903   4.560   0.161  0.0881  0.2140  0.0856
 2234TIP3    H1 6666   4.914   4.652   0.140  1.2874 -0.0227 -0.3818
 2234TIP3    H2 6667   4.979   4.537   0.214 -1.0886 -0.0915  1.7156
 2235TIP3   OH2 6668   5.750   6.597   4.694  0.1143 -0.4850  0.2198
 2235TIP3    H1 6669   5.846   6.600   4.698  0.1614 -1.2160 -0.1693
 2235TIP3    H2 6670   5.731   6.560   4.608 -0.4761 -1.7118  0.8560
 2236TIP3   OH2 6671   6.441   0.819   3.810 -0.1105 -0.6769 -0.2241
 2236TIP3    H1 6672   6.419   0.884   3.743 -1.3092  0.7347  1.4414
 2236TIP3    H2 6673   6.431   0.735   3.766 -0.8405  0.2013 -1.8246
 2237TIP3   OH2 6674   5.555   5.734   5.684 -0.0611  0.0685  0.1592
 2237TIP3    H1 6675   5.614   5.697   5.750 -0.2615  1.6402  1.2731
 2237TIP3    H2 6676   5.517   5.658   5.641 -0.9476 -1.0866  2.7674
 2238TIP3   OH2 6677   3.159   1.574   3.442  0.1858  0.8465  0.1591
 2238TIP3    H1 6678   3.184   1.602   3.354 -0.9109 -0.8553 -0.7574
 2238TIP3    H2 6679   3.222   1.505   3.464 -0.9828 -0.4312 -0.3537
 2239TIP3   OH2 6680   6.549   0.644   1.896 -0.3485 -0.2533  0.2536
 2239TIP3    H1 6681   6.563   0.561   1.852 -0.9951 -0.7612  0.9792
 2239TIP3    H2 6682   6.478   0.686   1.848 -1.5818 -1.1499  1.2429
 2240TIP3   OH2 6683   4.798   2.350   2.431 -0.4479 -0.0130 -0.0673
 2240TIP3    H1 6684   4.732   2.361   2.499  0.0787  0.0116  0.4499
 2240TIP3    H2 6685   4.873   2.312   2.477 -0.0220  0.1744 -0.6016
 2241TIP3   OH2 6686   5.735   2.497   2.388 -0.8204 -0.6748 -0.3988
 2241TIP3    H1 6687   5.678   2.456   2.324 -0.6765  2.0177 -2.4200
 2241TIP3    H2 6688   5.824   2.473   2.361 -0.8227 -1.5298  0.3059
 2242TIP3   OH2 6689   2.291   5.539   1.386  0.1172 -0.3955 -0.6378
 2242TIP3    H1 6690   2.258   5.625   1.362  1.5341  0.1623 -0.6633
 2242TIP3    H2 6691   2.259   5.481   1.318 -2.0940 -0.1903  0.1601
 2243TIP3   OH2 6692   3.018   1.255   4.016  0.4974 -0.4939 -0.1571
 2243TIP3    H1 6693   3.059   1.254   3.929 -0.6012 -0.2541 -0.6927
 2243TIP3    H2 6694   3.036   1.343   4.050 -3.0381  1.2031 -2.1457
 2244TIP3   OH2 6695   1.854   1.787   5.675 -0.1324 -0.7313 -0.1581
 2244TIP3    H1 6696   1.864   1.856   5.611 -2.2935 -0.5741 -0.4008
 2244TIP3    H2 6697   1.771   1.807   5.720  0.1624 -2.0868  1.0881
 2245TIP3   OH2 6698   4.637   5.742   4.133 -0.1126 -0.5363 -0.5928
 2245TIP3    H1 6699   4.607   5.803   4.066 -0.9715 -1.2976 -0.9230
 2245TIP3    H2 6700   4.604   5.780   4.215  1.2629  0.5913 -0.5369
 2246TIP3   OH2 6701   2.446   0.966   2.516 -0.4394 -0.4920  0.4262
 2246TIP3    H1 6702   2.434   1.058   2.538  0.7608 -0.3110  0.3785
 2246TIP3    H2 6703   2.411   0.958   2.427  1.3624  0.4155 -0.4148
 2247TIP3   OH2 6704   4.599   2.872   0.082  0.0387 -0.3394  0.2326
 2247TIP3    H1 6705   4.648   2.805   0.128 -0.3387 -1.2117 -0.6050
 2247TIP3    H2 6706   4.626   2.863  -0.010 -0.1110  0.5675  0.0888
 2248TIP3   OH2 6707   2.330   0.229   2.125 -0.2014  0.0903  0.0898
 2248TIP3    H1 6708   2.330   0.311   2.075  2.0145 -0.0924 -0.2853
 2248TIP3    H2 6709   2.317   0.161   2.060  0.3111  0.0061  0.0712
 2249TIP3   OH2 6710   6.492   3.097   1.859  0.5850 -0.8191 -1.3169
 2249TIP3    H1 6711   6.542   3.025   1.896 -0.2949 -0.6214  0.3631
 2249TIP3    H2 6712   6.526   3.175   1.904 -0.3747 -0.5444 -1.0464
 2250TIP3   OH2 6713   2.669   0.678   5.044 -0.3917  0.4294 -0.3547
 2250TIP3    H1 6714   2.619   0.633   5.112 -2.1510  3.2793  0.3934
 2250TIP3    H2 6715   2.621   0.660   4.963 -0.6658  0.4153 -0.1879
 2251TIP3   OH2 6716   6.936   3.715   3.708 -0.2606 -0.1697  1.0679
 2251TIP3    H1 6717   6.937   3.672   3.623  0.8654 -0.6291  1.2949
 2251TIP3    H2 6718   6.934   3.643   3.771 -0.6153  0.1596  1.4405
 2252TIP3   OH2 6719   0.996   2.930   4.677 -0.2912  0.4575 -0.2001
 2252TIP3    H1 6720   0.940   2.929   4.754 -0.7911  0.9392 -0.5517
 2252TIP3    H2 6721   1.078   2.890   4.706 -0.4981  0.5766  0.5577
 2253TIP3   OH2 6722   5.773   5.550   2.666  0.0764  0.0325  0.1787
 2253TIP3    H1 6723   5.825   5.471   2.680  0.5538  0.2866 -0.1469
 2253TIP3    H2 6724   5.683   5.523   2.687  0.0070 -0.9813 -1.2686
 2254TIP3   OH2 6725   3.455   1.972   4.412 -0.4242 -0.0636  0.0291
 2254TIP3    H1 6726   3.468   2.058   4.451 -0.1380 -0.2852  0.4357
 2254TIP3    H2 6727   3.399   1.926   4.475 -0.1471 -0.3482  0.0699
 2255TIP3   OH2 6728   1.959   5.669   2.305 -0.3117 -0.0140 -0.1938
 2255TIP3    H1 6729   2.044   5.669   2.348 -0.7421 -1.1185  0.6925
 2255TIP3    H2 6730   1.979   5.653   2.213  0.4840  0.4455 -0.1099
 2256TIP3   OH2 6731   5.749   5.442   1.547  0.0542  0.3224 -0.0320
 2256TIP3    H1 6732   5.694   5.484   1.612  0.5706  1.0497 -0.0485
 2256TIP3    H2 6733   5.766   5.355   1.582  1.0408  0.9996  1.2383
 2257TIP3   OH2 6734   6.041   0.233   1.167 -0.3266  0.2428 -0.7856
 2257TIP3    H1 6735   5.954   0.216   1.203 -0.1381 -0.0450 -0.4523
 2257TIP3    H2 6736   6.096   0.164   1.205  0.1289  0.6671 -0.6705
 2258TIP3   OH2 6737   1.462   3.948   4.908 -0.2756  0.3137  0.0230
 2258TIP3    H1 6738   1.476   3.874   4.967 -2.3061  0.0995  0.2907
 2258TIP3    H2 6739   1.449   3.909   4.822 -2.5438  0.1861  0.3547
 2259TIP3   OH2 6740   1.648   6.778   1.073  0.4259 -0.4348  0.3880
 2259TIP3    H1 6741   1.581   6.793   1.007  1.1108 -1.6626 -0.6440
 2259TIP3    H2 6742   1.728   6.815   1.036  0.3273  1.1291  1.6620
 2260TIP3   OH2 6743   0.708   2.854   2.499  0.2768 -0.0778  0.6847
 2260TIP3    H1 6744   0.703   2.812   2.414 -1.9961 -1.8127  1.5743
 2260TIP3    H2 6745   0.797   2.891   2.502  1.1512 -1.7516 -1.5803
 2261TIP3   OH2 6746   5.736   0.218   0.807 -0.8661 -0.0596 -0.3764
 2261TIP3    H1 6747   5.796   0.153   0.769 -1.0389 -0.1891 -0.4314
 2261TIP3    H2 6748   5.705   0.177   0.888  0.2469  0.6225  0.4035
 2262TIP3   OH2 6749   2.081   3.512   4.183  0.0655  0.2306 -0.2609
 2262TIP3    H1 6750   2.077   3.553   4.096  1.7001 -1.6010 -1.2936
 2262TIP3    H2 6751   2.023   3.436   4.176  1.3185 -0.7561 -0.2893
 2263TIP3   OH2 6752   7.229   5.665   3.002 -0.5157  0.5426 -0.0525
 2263TIP3    H1 6753   7.133   5.667   3.008 -0.5041 -1.1184  1.3979
 2263TIP3    H2 6754   7.249   5.718   2.925 -2.4667  2.6472  0.7671
 2264TIP3   OH2 6755   1.798   5.197   5.575 -0.4662 -0.0497  0.2744
 2264TIP3    H1 6756   1.868   5.237   5.524 -0.8173 -0.1902 -0.3240
 2264TIP3    H2 6757   1.754   5.271   5.617 -1.3556  0.2599 -1.1308
 2265TIP3   OH2 6758   0.809   5.918   2.600  0.1502  0.4041 -0.0389
 2265TIP3    H1 6759   0.748   5.957   2.662 -0.4717  0.5560 -0.7192
 2265TIP3    H2 6760   0.879   5.982   2.592  0.9404 -0.2232  1.5184
 2266TIP3   OH2 6761   2.902   3.365   0.265 -0.1347  0.0911 -0.2974
 2266TIP3    H1 6762   2.899   3.352   0.360 -1.6044  1.5229 -0.0949
 2266TIP3    H2 6763   2.813   3.343   0.236  0.0103  0.6467 -1.1794
 2267TIP3   OH2 6764   4.457   5.199   2.034  0.2438  0.0317 -0.0152
 2267TIP3    H1 6765   4.435   5.171   1.945 -1.7321  0.2790  0.3374
 2267TIP3    H2 6766   4.468   5.118   2.083 -0.3554 -0.1241 -0.1295
 2268TIP3   OH2 6767   6.845   1.242   2.465  0.0799 -0.2018  0.9484
 2268TIP3    H1 6768   6.772   1.304   2.456 -0.0071 -0.3469  0.6435
 2268TIP3    H2 6769   6.921   1.289   2.431 -0.0592 -0.3971  0.3641
 2269TIP3   OH2 6770   6.650   5.964   3.828 -0.2204 -0.6629 -0.2383
 2269TIP3    H1 6771   6.608   6.029   3.885  0.2595 -0.4684 -0.1029
 2269TIP3    H2 6772   6.744   5.975   3.844 -0.0809 -0.6309 -1.0412
 2270TIP3   OH2 6773   1.246   1.500   3.237  0.2704 -0.1660  0.4973
 2270TIP3    H1 6774   1.161   1.464   3.211  0.6010  0.0594 -0.9780
 2270TIP3    H2 6775   1.229   1.593   3.254  0.2615 -0.0646 -0.0475
 2271TIP3   OH2 6776   0.098   6.482   5.124 -0.5119  0.1032  0.0241
 2271TIP3    H1 6777   0.078   6.428   5.200  0.5213 -0.7802 -0.3224
 2271TIP3    H2 6778   0.096   6.422   5.050 -0.7947  0.8249 -0.5716
 2272TIP3   OH2 6779   4.702   2.296   3.937 -0.3114  0.0373 -0.0379
 2272TIP3    H1 6780   4.750   2.317   3.857 -0.2050  0.8481  0.2332
 2272TIP3    H2 6781   4.736   2.357   4.002 -1.0242 -0.0325  0.4045
 2273TIP3   OH2 6782   1.677   6.566   4.300  0.4262 -0.0477  0.2645
 2273TIP3    H1 6783   1.585   6.581   4.280  0.4870 -0.5547 -0.4480
 2273TIP3    H2 6784   1.706   6.503   4.234  0.9897 -0.7957  1.1955
 2274TIP3   OH2 6785   0.247   5.010   0.532  0.4099  0.1710  0.4312
 2274TIP3    H1 6786   0.155   4.988   0.521  0.7149 -0.3545 -1.2547
 2274TIP3    H2 6787   0.293   4.927   0.524  1.0039  0.3152  1.9979
 2275TIP3   OH2 6788   4.593   1.028   0.714  0.2080 -0.4440 -0.2418
 2275TIP3    H1 6789   4.671   0.972   0.723 -0.4863 -1.3759  0.2112
 2275TIP3    H2 6790   4.556   1.004   0.629 -0.2517 -0.8985  0.0803
 2276TIP3   OH2 6791   4.716   4.232   0.415 -0.3370  0.4224  0.7148
 2276TIP3    H1 6792   4.701   4.295   0.345  0.0096  1.3427  1.4502
 2276TIP3    H2 6793   4.670   4.268   0.491  0.4600  0.1696  1.3422
 2277TIP3   OH2 6794   3.500   3.826   2.437  0.1648  0.0665  0.4607
 2277TIP3    H1 6795   3.499   3.890   2.365 -2.2343  0.8871  1.1192
 2277TIP3    H2 6796   3.565   3.860   2.498  0.5069  0.6843 -0.2212
 2278TIP3   OH2 6797   5.275   3.421   3.006 -0.4382  0.2632 -0.6821
 2278TIP3    H1 6798   5.258   3.341   3.057 -0.5968  0.5754 -0.2432
 2278TIP3    H2 6799   5.370   3.431   3.009 -0.4587  0.3591 -0.3285
 2279TIP3   OH2 6800   2.717   5.979   4.110 -0.2063 -0.2748  0.6306
 2279TIP3    H1 6801   2.652   6.047   4.129  0.8542  1.1716 -0.6987
 2279TIP3    H2 6802   2.696   5.948   4.022 -0.8044 -1.8700  1.2953
 2280TIP3   OH2 6803   3.789   0.339   2.492  0.5684  0.0281  0.0867
 2280TIP3    H1 6804   3.864   0.350   2.434 -0.2956  2.4423 -0.6906
 2280TIP3    H2 6805   3.818   0.373   2.576  0.3690  0.9491 -0.2103
 2281TIP3   OH2 6806   2.878   0.784   2.470 -0.1154 -0.1250 -0.2222
 2281TIP3    H1 6807   2.945   0.848   2.494 -1.7232  1.6797 -0.2683
 2281TIP3    H2 6808   2.900   0.758   2.380  0.8951 -0.1053  0.0094
 2282TIP3   OH2 6809   5.220   4.887   0.442  0.0782 -0.0325 -0.4202
 2282TIP3    H1 6810   5.206   4.928   0.357  1.5333  1.4471 -0.0025
 2282TIP3    H2 6811   5.246   4.959   0.500  0.6701 -1.2294  0.8800
 2283TIP3   OH2 6812   6.352   2.459   5.071 -0.4073  0.1742 -0.2278
 2283TIP3    H1 6813   6.291   2.488   5.139 -0.6953 -2.4030  0.7233
 2283TIP3    H2 6814   6.299   2.449   4.993 -1.3649 -2.1606  0.6208
 2284TIP3   OH2 6815   3.779   1.100   2.059  0.6471 -0.6995 -0.0573
 2284TIP3    H1 6816   3.714   1.031   2.071 -0.6873  0.5857  0.4675
 2284TIP3    H2 6817   3.731   1.170   2.014  0.1162  2.2294  4.3643
 2285TIP3   OH2 6818   5.299   0.479   5.390 -0.3410 -0.0690 -0.5015
 2285TIP3    H1 6819   5.289   0.386   5.411  1.0670  0.1192  1.2202
 2285TIP3    H2 6820   5.233   0.523   5.443 -1.3601 -0.0770 -1.7049
 2286TIP3   OH2 6821   0.496   2.590   0.228  0.2981 -0.1147  0.0096
 2286TIP3    H1 6822   0.588   2.617   0.229  0.2669 -0.0156  0.5035
 2286TIP3    H2 6823   0.451   2.656   0.281 -0.0678 -0.1364 -0.2682
 2287TIP3   OH2 6824   1.882   0.239   3.444  0.4835  0.4498  0.4156
 2287TIP3    H1 6825   1.791   0.220   3.467  0.5516  0.0507  0.3584
 2287TIP3    H2 6826   1.904   0.176   3.376  0.6754  0.8179  0.1269
 2288TIP3   OH2 6827   6.574   4.621   3.608 -0.2481 -0.2904  0.2889
 2288TIP3    H1 6828   6.525   4.618   3.690 -1.1566 -1.3970 -0.2722
 2288TIP3    H2 6829   6.666   4.623   3.636 -0.5401 -0.5369  1.3284
 2289TIP3   OH2 6830   1.827   4.569   3.532  0.1281  0.4403 -0.2923
 2289TIP3    H1 6831   1.872   4.514   3.468  0.7258  1.1849 -0.5239
 2289TIP3    H2 6832   1.739   4.581   3.495  0.7425  1.6337 -1.4857
 2290TIP3   OH2 6833   6.193   6.332   0.196 -0.7498 -0.1536  0.0674
 2290TIP3    H1 6834   6.109   6.367   0.165 -0.2795 -0.0897 -1.2307
 2290TIP3    H2 6835   6.254   6.353   0.125  0.7034  1.1239  1.6162
 2291TIP3   OH2 6836   0.848   1.496   4.650  0.5889  0.2340  0.7843
 2291TIP3    H1 6837   0.903   1.457   4.718  0.0223  0.9406  1.6606
 2291TIP3    H2 6838   0.900   1.487   4.570  0.6204 -2.0243  0.9880
 2292TIP3   OH2 6839   4.596   3.553   5.179  0.1082 -0.1591 -1.0375
 2292TIP3    H1 6840   4.681   3.536   5.138 -0.1664 -0.0875 -1.6482
 2292TIP3    H2 6841   4.533   3.535   5.110 -0.2267  3.8779 -2.0257
 2293TIP3   OH2 6842   0.280   5.604   1.182 -0.8555  0.4497  0.3157
 2293TIP3    H1 6843   0.211   5.571   1.240  0.2672 -1.1626  0.8114
 2293TIP3    H2 6844   0.261   5.562   1.097 -1.4740  1.4054 -0.0341
 2294TIP3   OH2 6845   1.758   1.841   5.392 -0.0084 -0.3941 -0.8992
 2294TIP3    H1 6846   1.721   1.846   5.303 -1.0677 -3.1570 -0.7093
 2294TIP3    H2 6847   1.853   1.843   5.378 -0.1627 -0.0209 -2.0260
 2295TIP3   OH2 6848   0.561   0.061   3.337 -0.0344  0.8025 -0.4917
 2295TIP3    H1 6849   0.576  -0.030   3.311 -0.9477 -0.0181  1.6023
 2295TIP3    H2 6850   0.484   0.088   3.288 -1.4973 -0.5752  0.8984
 2296TIP3   OH2 6851   7.075   3.335   1.586 -0.1557 -0.2189  0.3974
 2296TIP3    H1 6852   7.149   3.386   1.617 -0.6363  0.4491  0.4605
 2296TIP3    H2 6853   7.056   3.370   1.499 -0.6192 -0.1455  0.5248
 2297TIP3   OH2 6854   1.187   4.895   0.656  0.3908 -0.0370 -0.4214
 2297TIP3    H1 6855   1.195   4.847   0.739  0.6872 -3.3367 -2.1957
 2297TIP3    H2 6856   1.272   4.885   0.614  0.2589  1.6140 -1.1494
 2298TIP3   OH2 6857   4.603   3.143   1.051 -0.2639  0.0267 -0.1107
 2298TIP3    H1 6858   4.522   3.149   1.102 -0.5510 -1.1407 -0.3921
 2298TIP3    H2 6859   4.673   3.137   1.116 -0.5337 -0.3922  0.1384
 2299TIP3   OH2 6860   0.529   1.916   0.136  0.1108  0.6609  1.1975
 2299TIP3    H1 6861   0.545   1.960   0.052 -0.4057 -1.4655 -0.1060
 2299TIP3    H2 6862   0.615   1.909   0.177  0.3003  2.1608  1.0954
 2300TIP3   OH2 6863   4.572   3.008   3.456 -0.5635  0.0527  0.4220
 2300TIP3    H1 6864   4.517   3.051   3.390 -0.4939 -1.1936 -0.4687
 2300TIP3    H2 6865   4.637   2.960   3.406  1.4115  1.5065  1.4469
 2301TIP3   OH2 6866   2.265   1.822   4.709  0.6983 -0.2582  0.1063
 2301TIP3    H1 6867   2.330   1.772   4.660 -0.6460 -0.4766 -1.5625
 2301TIP3    H2 6868   2.222   1.758   4.766  0.0783 -0.7096 -0.8410
 2302TIP3   OH2 6869   0.789   5.377   3.297 -0.4440 -0.1675  0.4377
 2302TIP3    H1 6870   0.744   5.294   3.310  0.8234 -1.1914 -1.2076
 2302TIP3    H2 6871   0.872   5.367   3.342 -0.2179  0.1285  0.0958
 2303TIP3   OH2 6872   2.705   1.055   1.447  0.4045  0.1641  0.1553
 2303TIP3    H1 6873   2.761   1.057   1.525  1.2980  0.7016 -0.4708
 2303TIP3    H2 6874   2.616   1.045   1.481  0.9378 -1.6847  1.1493
 2304TIP3   OH2 6875   0.962   2.686   4.999  0.2278 -0.4392 -0.0194
 2304TIP3    H1 6876   1.021   2.623   5.040  1.7909 -0.0635 -1.5937
 2304TIP3    H2 6877   0.983   2.770   5.041  2.6711  0.1812 -2.2157
 2305TIP3   OH2 6878   5.903   1.253   4.953  0.0432  0.2023  0.5125
 2305TIP3    H1 6879   5.926   1.317   4.886 -0.5518 -0.1145 -0.0010
 2305TIP3    H2 6880   5.987   1.219   4.983  0.3638  1.1909  0.7679
 2306TIP3   OH2 6881   3.949   2.884   5.851 -0.2391 -0.1192  0.0102
 2306TIP3    H1 6882   3.871   2.838   5.822 -1.5222  0.1292  2.7349
 2306TIP3    H2 6883   3.949   2.966   5.801 -0.4365 -1.0652 -1.6048
 2307TIP3   OH2 6884   3.756   1.357   2.391 -0.4024  0.0951  0.5315
 2307TIP3    H1 6885   3.849   1.379   2.392 -0.1693 -0.7350  2.1731
 2307TIP3    H2 6886   3.751   1.272   2.435 -1.8505 -0.3241 -0.3466
 2308TIP3   OH2 6887   3.673   6.447   3.145 -0.1066 -0.2326 -0.4180
 2308TIP3    H1 6888   3.708   6.534   3.129  0.1520 -0.5666 -1.8154
 2308TIP3    H2 6889   3.581   6.453   3.119 -0.2888 -0.1991  0.2013
 2309TIP3   OH2 6890   5.196   3.685   1.666 -0.4633  0.5625  0.6035
 2309TIP3    H1 6891   5.272   3.728   1.627 -0.2524  0.3812  0.8073
 2309TIP3    H2 6892   5.201   3.709   1.759 -0.1406 -0.1965  0.7827
 2310TIP3   OH2 6893   5.230   4.016   3.166 -0.2701  0.1466 -0.5494
 2310TIP3    H1 6894   5.200   3.968   3.243  0.3333  1.0709  0.2846
 2310TIP3    H2 6895   5.169   3.990   3.096 -2.5441  1.3648  0.8733
 2311TIP3   OH2 6896   1.583   1.310   5.241  0.2506  0.5427 -0.1544
 2311TIP3    H1 6897   1.532   1.309   5.322  2.0109  0.1420  1.0204
 2311TIP3    H2 6898   1.562   1.226   5.199  0.6757 -0.0656  0.8100
 2312TIP3   OH2 6899   3.395   4.159   3.394  0.6986 -0.6168 -0.1234
 2312TIP3    H1 6900   3.422   4.224   3.328 -0.8683 -0.0615 -0.2512
 2312TIP3    H2 6901   3.402   4.206   3.478  2.2590 -1.1842  0.0952
 2313TIP3   OH2 6902   5.676   2.548   1.582 -0.4867  0.5771  0.3305
 2313TIP3    H1 6903   5.668   2.643   1.590  1.0779  0.8538 -0.9032
 2313TIP3    H2 6904   5.666   2.516   1.672 -0.6585  1.9463  0.8242
 2314TIP3   OH2 6905   5.041   0.842   5.561 -0.2398  0.0517 -0.1840
 2314TIP3    H1 6906   5.058   0.853   5.467 -0.8601  2.5272 -0.0791
 2314TIP3    H2 6907   4.964   0.896   5.578  0.1502  0.0492  1.8466
 2315TIP3   OH2 6908   4.384   3.808   5.011 -0.5372 -0.2781 -0.5231
 2315TIP3    H1 6909   4.441   3.817   5.087 -0.5863 -0.4729 -0.4624
 2315TIP3    H2 6910   4.296   3.800   5.047 -0.9136  2.2859 -0.6742
 2316TIP3   OH2 6911   6.785   6.816   2.244 -0.0037  0.0171  0.2422
 2316TIP3    H1 6912   6.698   6.833   2.280 -0.0809 -0.1475  0.1360
 2316TIP3    H2 6913   6.801   6.723   2.263  0.8676  0.4519  1.7987
 2317TIP3   OH2 6914   5.143   2.401   0.595  0.0620 -0.1404  0.3284
 2317TIP3    H1 6915   5.210   2.334   0.584  0.8600  0.7631 -0.4905
 2317TIP3    H2 6916   5.187   2.472   0.641 -1.0203 -0.5072  2.0005
 2318TIP3   OH2 6917   6.632   5.191   2.647 -0.0479 -0.6497  0.0577
 2318TIP3    H1 6918   6.669   5.255   2.707  1.6472 -1.0504 -0.5028
 2318TIP3    H2 6919   6.707   5.143   2.613 -1.1256 -1.7802 -0.8596
 2319TIP3   OH2 6920   5.427   6.431   0.363  0.0777  0.4398  0.2699
 2319TIP3    H1 6921   5.361   6.377   0.407  0.4580  0.0954  0.4234
 2319TIP3    H2 6922   5.377   6.501   0.322 -0.3578  0.3425  0.6251
 2320TIP3   OH2 6923   6.108   3.417   0.044  0.3077 -0.2006 -0.0475
 2320TIP3    H1 6924   6.112   3.325   0.016  1.2297  0.7231 -3.2840
 2320TIP3    H2 6925   6.180   3.425   0.107  0.0467 -1.7225  0.4973
 2321TIP3   OH2 6926   6.706   3.234   2.832  0.3702  0.6193 -0.7545
 2321TIP3    H1 6927   6.783   3.256   2.780  1.8032 -0.7449  0.6552
 2321TIP3    H2 6928   6.724   3.272   2.918 -0.5761  0.3340 -0.4196
 2322TIP3   OH2 6929   1.430   2.736   4.012  0.7396  0.0491  0.1679
 2322TIP3    H1 6930   1.480   2.683   3.950  2.4132  1.3515  0.3379
 2322TIP3    H2 6931   1.405   2.815   3.963 -0.5812 -0.2579  0.2997
 2323TIP3   OH2 6932   2.625   2.521   3.800 -0.0645  0.4456  0.2915
 2323TIP3    H1 6933   2.676   2.525   3.881  2.5000  1.4204 -1.2307
 2323TIP3    H2 6934   2.553   2.582   3.813  0.4538  0.7833  1.7223
 2324TIP3   OH2 6935   2.630   3.591   5.583  0.5211  0.2240 -0.0711
 2324TIP3    H1 6936   2.587   3.516   5.542  0.5822  1.0712 -1.7937
 2324TIP3    H2 6937   2.675   3.635   5.511  0.4060  1.9688  0.8642
 2325TIP3   OH2 6938   3.060   0.769   3.466  0.0894  0.1338  0.4278
 2325TIP3    H1 6939   3.021   0.842   3.419  1.4890  0.1679 -0.7514
 2325TIP3    H2 6940   3.147   0.800   3.492  0.6047 -0.9936  0.1420
 2326TIP3   OH2 6941   5.991   1.092   0.083  0.1157 -0.1662  0.2296
 2326TIP3    H1 6942   6.079   1.124   0.102  0.1948 -0.7988  0.9980
 2326TIP3    H2 6943   5.940   1.112   0.162 -0.4629  0.3016 -0.2558
 2327TIP3   OH2 6944   6.405   3.488   3.169  0.3963 -0.5034 -0.2493
 2327TIP3    H1 6945   6.498   3.490   3.189  0.1505 -1.5655  1.1901
 2327TIP3    H2 6946   6.368   3.424   3.231 -1.0738 -1.1411 -1.7025
 2328TIP3   OH2 6947   6.809   5.880   2.872 -0.6905 -0.4033 -0.4571
 2328TIP3    H1 6948   6.815   5.975   2.881 -1.1002 -0.4002 -0.1717
 2328TIP3    H2 6949   6.746   5.867   2.801 -1.2623 -0.4646  0.0548
 2329TIP3   OH2 6950   0.749   2.204   2.409  0.2355 -0.3182 -0.0323
 2329TIP3    H1 6951   0.802   2.184   2.486  2.0839  0.9315 -0.9168
 2329TIP3    H2 6952   0.692   2.275   2.437  1.8924  1.1239 -0.1457
 2330TIP3   OH2 6953   3.966   5.995   5.339  0.1153  0.0458 -0.4995
 2330TIP3    H1 6954   4.021   6.070   5.359  0.2675  0.0871 -1.0466
 2330TIP3    H2 6955   3.881   6.015   5.379 -0.2080  1.0590 -1.6442
 2331TIP3   OH2 6956   6.619   3.588   0.333 -0.3272  0.3532 -0.0034
 2331TIP3    H1 6957   6.697   3.643   0.322 -0.0482  0.0522  0.4710
 2331TIP3    H2 6958   6.640   3.531   0.407 -0.5882 -0.4419 -0.5265
 2332TIP3   OH2 6959   1.887   5.451   5.370 -0.3252 -0.3585 -1.0394
 2332TIP3    H1 6960   1.813   5.409   5.327 -1.1663  1.0031 -0.9815
 2332TIP3    H2 6961   1.957   5.385   5.367 -1.5692 -1.7391 -0.9327
 2333TIP3   OH2 6962   3.412   4.719   5.104  0.1168 -0.4372  0.3230
 2333TIP3    H1 6963   3.419   4.749   5.013 -0.5565  0.5993  0.5991
 2333TIP3    H2 6964   3.503   4.713   5.134  0.3042  0.5888  0.0034
 2334TIP3   OH2 6965   2.124   4.153   3.390 -0.6738 -0.3565 -0.0571
 2334TIP3    H1 6966   2.169   4.147   3.306  1.7603  1.5671  0.9577
 2334TIP3    H2 6967   2.169   4.089   3.446  2.0130  2.4149  1.3183
 2335TIP3   OH2 6968   1.243   2.241   1.683 -0.0183  0.4626 -0.0045
 2335TIP3    H1 6969   1.189   2.168   1.652  0.6548  0.5008 -1.3606
 2335TIP3    H2 6970   1.200   2.270   1.763 -1.9951  0.4310 -0.9696
 2336TIP3   OH2 6971   2.999   1.452   1.181 -0.4381 -0.7239  0.2265
 2336TIP3    H1 6972   2.959   1.427   1.098 -0.2159 -2.6686  0.6596
 2336TIP3    H2 6973   3.093   1.461   1.162 -0.5528  0.1369  0.0128
 2337TIP3   OH2 6974   5.896   3.049   5.158 -0.4890  0.1440  0.0999
 2337TIP3    H1 6975   5.934   2.982   5.101 -1.7561  0.4120 -1.1315
 2337TIP3    H2 6976   5.861   3.001   5.232 -0.0096 -0.3690 -0.0011
 2338TIP3   OH2 6977   1.152   4.254   0.844 -0.0185  0.0574  0.1560
 2338TIP3    H1 6978   1.131   4.167   0.811  1.1674 -0.0741 -0.3052
 2338TIP3    H2 6979   1.136   4.249   0.938  2.0781 -1.3617  0.5107
 2339TIP3   OH2 6980   3.429   4.069   1.468  0.4635  0.0881  0.0901
 2339TIP3    H1 6981   3.499   4.006   1.450  0.9320  0.5489  0.2665
 2339TIP3    H2 6982   3.363   4.050   1.402 -0.6668 -2.3932  1.7788
 2340TIP3   OH2 6983   6.119   1.404   5.491 -0.1387 -0.1142 -0.5110
 2340TIP3    H1 6984   6.156   1.404   5.403  0.5137  0.2480 -0.2474
 2340TIP3    H2 6985   6.139   1.491   5.525  1.7113 -0.9919  0.8473
 2341TIP3   OH2 6986   7.005   4.717   2.171  0.0418 -0.6063 -0.0557
 2341TIP3    H1 6987   6.946   4.645   2.147  0.4272 -0.6197 -0.9689
 2341TIP3    H2 6988   7.077   4.711   2.109  0.2855  0.3146  0.1299
 2342TIP3   OH2 6989   7.119   0.279   5.486  0.5852  0.3933 -0.1519
 2342TIP3    H1 6990   7.123   0.240   5.399 -1.7677 -0.8362  0.1973
 2342TIP3    H2 6991   7.135   0.206   5.546  0.4841  0.8721  0.4678
 2343TIP3   OH2 6992   0.143   6.617   4.070 -0.4451  0.2035  0.1973
 2343TIP3    H1 6993   0.075   6.573   4.019  0.1238  0.5667 -0.9179
 2343TIP3    H2 6994   0.223   6.567   4.052 -0.2110  0.4080  0.6524
 2344TIP3   OH2 6995   6.027   1.048   5.669 -0.9931  0.5617  0.4589
 2344TIP3    H1 6996   6.016   0.957   5.642  0.7964  0.4986 -0.1976
 2344TIP3    H2 6997   6.093   1.045   5.738  0.8826  1.5386 -1.2094
 2345TIP3   OH2 6998   4.955   3.162   0.194 -0.2917  0.3865 -0.0502
 2345TIP3    H1 6999   4.954   3.067   0.208  1.4076  0.5274  1.4253
 2345TIP3    H2 7000   5.023   3.194   0.253 -0.5847  2.5026 -0.7740
 2346TIP3   OH2 7001   3.198   0.046   0.408  0.1367 -0.1914  0.3113
 2346TIP3    H1 7002   3.156  -0.004   0.338 -1.9013  0.7549  0.7858
 2346TIP3    H2 7003   3.264   0.099   0.364  0.4352 -1.2410 -0.5625
 2347TIP3   OH2 7004   6.020   4.756   4.931  0.0453 -0.1905 -0.3201
 2347TIP3    H1 7005   5.984   4.715   5.009  2.6478 -0.5393  0.7874
 2347TIP3    H2 7006   6.114   4.737   4.934  0.7560  2.5064 -1.8395
 2348TIP3   OH2 7007   5.467   1.593   5.686 -0.0081 -0.2499  0.0588
 2348TIP3    H1 7008   5.515   1.524   5.640  2.5637  0.9927  0.6952
 2348TIP3    H2 7009   5.451   1.659   5.620 -0.1533 -0.3316  0.0123
 2349TIP3   OH2 7010   6.941   0.374   4.657  0.1563  0.2260  0.2580
 2349TIP3    H1 7011   6.848   0.397   4.650 -0.2291 -1.2134  0.2048
 2349TIP3    H2 7012   6.988   0.454   4.634 -1.0690  1.2009  1.0584
 2350TIP3   OH2 7013   0.503   1.987   1.203  0.4324 -0.2578  0.0605
 2350TIP3    H1 7014   0.460   2.005   1.287 -1.8926 -1.6414 -0.7267
 2350TIP3    H2 7015   0.596   2.003   1.219  0.0520 -0.3378  2.8381
 2351TIP3   OH2 7016   4.096   6.231   5.605  0.0917 -0.2198 -0.4281
 2351TIP3    H1 7017   4.042   6.255   5.681  0.2919  1.1747 -0.7100
 2351TIP3    H2 7018   4.085   6.304   5.544  0.7680 -0.8395 -1.3027
 2352TIP3   OH2 7019   6.885   3.249   4.018 -0.3013 -0.3849  0.3527
 2352TIP3    H1 7020   6.842   3.168   4.047  0.8646 -0.7334  1.1820
 2352TIP3    H2 7021   6.903   3.297   4.099 -2.3491  1.4763 -0.1903
 2353TIP3   OH2 7022   4.863   1.930   2.585 -0.0697 -0.0313 -0.3401
 2353TIP3    H1 7023   4.774   1.901   2.561 -0.3786  0.2649  0.4170
 2353TIP3    H2 7024   4.905   1.950   2.501 -0.3972 -1.0711 -0.7793
 2354TIP3   OH2 7025   4.943   4.543   4.172 -0.0843 -0.2785 -0.0478
 2354TIP3    H1 7026   4.894   4.524   4.092 -1.1214 -0.4360  0.6047
 2354TIP3    H2 7027   4.966   4.456   4.207 -0.3530 -0.2323  0.2483
 2355TIP3   OH2 7028   4.401   1.273   4.219 -0.0298  0.5105  0.4876
 2355TIP3    H1 7029   4.461   1.272   4.145 -0.5935 -0.9174  0.0194
 2355TIP3    H2 7030   4.414   1.359   4.259  0.2561  1.3313 -1.2735
 2356TIP3   OH2 7031   0.885   5.615   5.099  0.0608 -0.2217  0.1382
 2356TIP3    H1 7032   0.867   5.535   5.149 -0.2667 -0.0767  0.2610
 2356TIP3    H2 7033   0.817   5.676   5.127  0.1597  0.0194 -0.1375
 2357TIP3   OH2 7034   2.314   1.769   3.034  0.2377 -0.1034 -0.1744
 2357TIP3    H1 7035   2.326   1.808   2.947  1.0921 -1.7381 -0.8488
 2357TIP3    H2 7036   2.286   1.841   3.090 -0.0515  1.0497 -1.7470
 2358TIP3   OH2 7037   0.619   5.523   5.166  0.4942  0.2961 -0.6335
 2358TIP3    H1 7038   0.552   5.456   5.182  1.5677 -0.4836  0.8200
 2358TIP3    H2 7039   0.611   5.543   5.072 -0.9558 -0.6424 -0.7434
 2359TIP3   OH2 7040   2.089   5.177   1.345  0.5882 -0.4630  0.3633
 2359TIP3    H1 7041   2.137   5.219   1.274  1.5783  0.6124  1.6335
 2359TIP3    H2 7042   2.032   5.245   1.379  1.3985 -0.4347  1.7287
 2360TIP3   OH2 7043   0.294   5.278   0.473  0.2003 -0.0848  0.6565
 2360TIP3    H1 7044   0.297   5.184   0.457  0.4378  0.2389 -1.4950
 2360TIP3    H2 7045   0.294   5.317   0.385  0.8540  1.9406  1.5089
 2361TIP3   OH2 7046   6.531   1.864   3.076 -0.2854 -0.7512 -0.1186
 2361TIP3    H1 7047   6.516   1.933   3.012 -0.3907  2.1481  2.7636
 2361TIP3    H2 7048   6.446   1.824   3.089 -0.7846  0.2771 -0.0989
 2362TIP3   OH2 7049   6.226   3.666   2.403  0.1894  0.3724  0.3982
 2362TIP3    H1 7050   6.287   3.731   2.369 -1.8395  1.2347 -1.9647
 2362TIP3    H2 7051   6.140   3.709   2.397 -1.1485 -2.2069 -0.5568
 2363TIP3   OH2 7052   6.165   3.772   0.189 -0.4208 -0.4580  0.4320
 2363TIP3    H1 7053   6.150   3.802   0.279  1.4503  1.6506  0.1240
 2363TIP3    H2 7054   6.257   3.745   0.188 -0.4301 -0.4859 -0.8586
 2364TIP3   OH2 7055   3.787   3.197   1.696 -0.3159  0.1301 -0.1330
 2364TIP3    H1 7056   3.851   3.132   1.727 -0.8852 -0.2087  0.3696
 2364TIP3    H2 7057   3.805   3.275   1.748  1.1949  0.8257 -1.6085
 2365TIP3   OH2 7058   1.071   3.786   2.996 -0.2459  0.0693  0.6693
 2365TIP3    H1 7059   1.121   3.846   3.051  1.2022 -1.0456  0.6225
 2365TIP3    H2 7060   1.136   3.726   2.960 -1.6200 -1.4405  0.5854
 2366TIP3   OH2 7061   5.797   4.319   0.319  0.6276 -0.1119  0.1502
 2366TIP3    H1 7062   5.722   4.366   0.283 -0.6518 -3.2544 -1.6821
 2366TIP3    H2 7063   5.871   4.348   0.267  0.5837  2.1798  1.2292
 2367TIP3   OH2 7064   5.596   6.005   2.450  0.4483 -0.1621  0.3089
 2367TIP3    H1 7065   5.676   6.010   2.397  0.8506 -2.0158  0.6575
 2367TIP3    H2 7066   5.528   6.044   2.395  0.4619 -3.5428 -2.4874
 2368TIP3   OH2 7067   1.639   0.631   1.165 -0.4269 -0.2195  0.4097
 2368TIP3    H1 7068   1.564   0.685   1.188  0.6124  0.6904  1.8904
 2368TIP3    H2 7069   1.615   0.542   1.192 -0.2604  0.3906  2.8204
 2369TIP3   OH2 7070   6.648   1.196   4.239 -0.2653  0.1982 -0.4616
 2369TIP3    H1 7071   6.685   1.121   4.286 -1.7106 -0.8138 -0.8679
 2369TIP3    H2 7072   6.618   1.255   4.308  1.0196  0.4877 -0.1363
 2370TIP3   OH2 7073   3.723   6.209   2.541  0.4099  0.3214 -0.0373
 2370TIP3    H1 7074   3.715   6.136   2.479  2.2247  0.7072 -0.8011
 2370TIP3    H2 7075   3.814   6.237   2.533 -0.0684  2.2428  0.7452
 2371TIP3   OH2 7076   6.782   5.088   4.529  0.3607  0.3021 -0.0976
 2371TIP3    H1 7077   6.812   5.077   4.439 -0.7616 -1.4632 -0.3059
 2371TIP3    H2 7078   6.843   5.037   4.582 -0.6759 -1.1406 -0.2331
 2372TIP3   OH2 7079   4.158   2.964   4.443 -0.3894  0.1510 -0.2648
 2372TIP3    H1 7080   4.247   2.983   4.411  0.3199 -0.8944  0.9895
 2372TIP3    H2 7081   4.120   3.051   4.460  0.3188  0.6164 -0.9801
 2373TIP3   OH2 7082   4.752   0.880   4.633 -0.8977 -0.2039 -0.1091
 2373TIP3    H1 7083   4.725   0.967   4.663  0.8221 -0.4701  2.5021
 2373TIP3    H2 7084   4.826   0.898   4.574 -0.9275  0.1297 -0.0492
 2374TIP3   OH2 7085   5.045   0.699   1.401  0.4616 -0.2408  0.0534
 2374TIP3    H1 7086   5.045   0.760   1.327 -0.3334 -1.5366 -1.0611
 2374TIP3    H2 7087   4.955   0.667   1.405  1.0258 -1.8917  0.1258
 2375TIP3   OH2 7088   4.398   5.984   2.607  0.0312  0.4253 -0.1130
 2375TIP3    H1 7089   4.411   6.059   2.550 -0.8908  0.2906 -0.5139
 2375TIP3    H2 7090   4.380   6.022   2.693  1.2199  0.6301  0.0532
 2376TIP3   OH2 7091   1.908   6.593   5.811  0.4372 -0.1414  0.4015
 2376TIP3    H1 7092   1.915   6.670   5.868  1.9165  0.4822 -0.5716
 2376TIP3    H2 7093   1.815   6.571   5.813 -0.1819  2.1781  0.0790
 2377TIP3   OH2 7094   6.298   4.429   1.135 -0.2314  0.3996  0.3060
 2377TIP3    H1 7095   6.386   4.392   1.140  0.0111  0.8497 -0.4487
 2377TIP3    H2 7096   6.272   4.418   1.043 -0.1542  2.0541  0.0549
 2378TIP3   OH2 7097   1.526   1.340   1.103 -0.1999 -0.1726  0.6224
 2378TIP3    H1 7098   1.498   1.254   1.135 -1.0999 -0.5872 -1.1154
 2378TIP3    H2 7099   1.486   1.403   1.163 -1.0012 -0.9200  0.8857
 2379TIP3   OH2 7100   2.841   4.590   3.791  1.0095  0.5240  0.2086
 2379TIP3    H1 7101   2.749   4.593   3.766  0.3765 -0.3442  2.2438
 2379TIP3    H2 7102   2.884   4.652   3.732 -1.0040  1.6130 -0.1990
 2380TIP3   OH2 7103   2.570   1.324   2.634  0.3747 -0.0746  0.6656
 2380TIP3    H1 7104   2.566   1.283   2.547  0.5806 -2.5545  1.7607
 2380TIP3    H2 7105   2.660   1.356   2.641 -0.0391  1.4997 -0.5569
 2381TIP3   OH2 7106   6.423   4.951  -0.018  0.1424 -0.4515 -0.2822
 2381TIP3    H1 7107   6.336   4.966   0.019  0.0621 -1.4191 -0.0684
 2381TIP3    H2 7108   6.455   4.872   0.025  0.9041 -0.4168 -0.7627
 2382TIP3   OH2 7109   5.908   2.408   0.670 -0.5122  0.0226 -0.3350
 2382TIP3    H1 7110   5.902   2.367   0.757  1.2471 -0.4624 -0.4077
 2382TIP3    H2 7111   5.824   2.389   0.629 -1.3233  0.1180  1.1890
 2383TIP3   OH2 7112   3.263   5.342   4.894 -0.6627 -0.0046  0.1291
 2383TIP3    H1 7113   3.209   5.266   4.913  1.7016 -1.8493 -0.1141
 2383TIP3    H2 7114   3.322   5.350   4.970 -0.1590  0.9070 -0.3329
 2384TIP3   OH2 7115   6.962   4.115   2.860  0.0622  0.2209  0.2001
 2384TIP3    H1 7116   7.033   4.080   2.806 -0.4035  0.9053 -0.9142
 2384TIP3    H2 7117   6.943   4.200   2.821 -0.2305  0.7939  1.5441
 2385TIP3   OH2 7118   0.144   5.303   5.321 -0.4986 -0.2099  0.2580
 2385TIP3    H1 7119   0.067   5.361   5.328 -1.3013 -1.1805 -0.2834
 2385TIP3    H2 7120   0.124   5.246   5.247  1.9870  1.3383 -1.7713
 2386TIP3   OH2 7121   0.886   0.428   4.326  0.3729 -0.0335  0.0120
 2386TIP3    H1 7122   0.867   0.431   4.232  2.5343  0.3902 -0.4626
 2386TIP3    H2 7123   0.803   0.401   4.366 -0.2124 -1.6819 -2.1289
 2387TIP3   OH2 7124   3.885   4.187   0.644  0.2330 -0.3421  0.3379
 2387TIP3    H1 7125   3.837   4.206   0.563  0.3807 -0.0528  0.3170
 2387TIP3    H2 7126   3.825   4.210   0.714  0.0268 -0.7881  0.3150
 2388TIP3   OH2 7127   4.903   2.427   1.964 -0.0674 -0.2266 -0.1324
 2388TIP3    H1 7128   4.972   2.363   1.949 -2.5664 -2.7368 -2.0759
 2388TIP3    H2 7129   4.883   2.463   1.878 -0.7498  0.9493  0.4826
 2389TIP3   OH2 7130   0.128   0.701   5.677 -0.1413 -0.0789  0.1237
 2389TIP3    H1 7131   0.068   0.666   5.743  0.4206 -0.8190  0.2614
 2389TIP3    H2 7132   0.133   0.631   5.611 -0.0007  0.2820 -0.2518
 2390TIP3   OH2 7133   3.102   2.337   0.331  0.5438 -0.6501 -0.1300
 2390TIP3    H1 7134   3.132   2.359   0.419 -1.2352 -1.6763  0.7943
 2390TIP3    H2 7135   3.154   2.393   0.273  0.2804  1.5962  1.6734
 2391TIP3   OH2 7136   2.979   5.229   2.645 -0.2987 -0.1392  0.2667
 2391TIP3    H1 7137   2.965   5.137   2.666  0.2176 -0.0712  0.9152
 2391TIP3    H2 7138   2.908   5.275   2.689 -0.2085 -0.1635  0.4350
 2392TIP3   OH2 7139   2.059   0.769   1.548 -0.3632  0.5452  0.1450
 2392TIP3    H1 7140   1.995   0.698   1.551  0.9265 -0.9675 -3.3098
 2392TIP3    H2 7141   2.008   0.846   1.521 -1.0118 -0.2164 -0.8321
 2393TIP3   OH2 7142   3.061   4.814   4.851 -0.6813 -0.3311 -0.5625
 2393TIP3    H1 7143   3.103   4.898   4.871  1.2110 -1.1497 -0.8386
 2393TIP3    H2 7144   3.134   4.752   4.844 -2.1146 -2.2753  0.8477
 2394TIP3   OH2 7145   6.062   0.496   3.953 -0.2911 -0.1465  0.3003
 2394TIP3    H1 7146   5.982   0.542   3.928 -0.7472 -1.5771 -0.9971
 2394TIP3    H2 7147   6.130   0.564   3.949 -0.6636  0.2212 -3.0997
 2395TIP3   OH2 7148   6.107   6.209   3.952 -0.2821 -0.1523 -0.2977
 2395TIP3    H1 7149   6.142   6.138   3.898 -0.6373 -0.8396  0.3500
 2395TIP3    H2 7150   6.181   6.236   4.006  0.3720  1.2632 -1.8262
 2396TIP3   OH2 7151   5.005   3.648   0.446  0.2287  0.1650  0.1373
 2396TIP3    H1 7152   4.934   3.596   0.484  0.0514 -0.5440 -1.1017
 2396TIP3    H2 7153   5.083   3.593   0.456  0.0243 -0.4404 -1.2634
 2397TIP3   OH2 7154   3.256   1.829   0.490  0.3242 -0.1795  0.1435
 2397TIP3    H1 7155   3.218   1.848   0.405 -0.3169 -2.7946 -0.2249
 2397TIP3    H2 7156   3.351   1.836   0.476  0.2461 -1.1211 -0.9400
 2398TIP3   OH2 7157   5.721   2.319   0.493 -0.0714  1.0153  0.0612
 2398TIP3    H1 7158   5.692   2.233   0.463 -0.7196  0.8422  1.1473
 2398TIP3    H2 7159   5.751   2.363   0.413  0.0210 -0.1131 -0.5457
 2399TIP3   OH2 7160   1.819   5.872   3.025  1.0046  0.6623 -0.0761
 2399TIP3    H1 7161   1.780   5.785   3.014  2.5803 -0.0601 -0.1243
 2399TIP3    H2 7162   1.840   5.899   2.936  2.8837 -0.0509  0.1179
 2400TIP3   OH2 7163   4.496   3.670   5.390  0.2627 -0.2024  0.0464
 2400TIP3    H1 7164   4.444   3.743   5.356 -1.4689 -1.2022  0.4225
 2400TIP3    H2 7165   4.542   3.636   5.314  0.2308  0.5875 -0.3394
 2401TIP3   OH2 7166   0.093   4.737   1.445  0.2282  0.1769 -0.1153
 2401TIP3    H1 7167   0.134   4.702   1.524 -1.3867 -0.5114  0.4573
 2401TIP3    H2 7168   0.140   4.696   1.373  1.2966  0.3175  0.4759
 2402TIP3   OH2 7169   4.928   6.614   4.408  0.3529 -0.4056 -0.6133
 2402TIP3    H1 7170   5.021   6.599   4.428  0.2856 -0.9330 -0.6901
 2402TIP3    H2 7171   4.929   6.686   4.345  0.6385  0.4461  0.3376
 2403TIP3   OH2 7172   1.206   0.202   4.000  0.2321  0.3744  0.4279
 2403TIP3    H1 7173   1.217   0.297   3.994  1.0725  0.2398 -0.4259
 2403TIP3    H2 7174   1.145   0.181   3.929  0.5608  0.2123  0.1873
 2404TIP3   OH2 7175   3.260   4.571   4.393  0.0664  0.3124 -0.1450
 2404TIP3    H1 7176   3.349   4.581   4.360  0.2401  2.4334  0.7448
 2404TIP3    H2 7177   3.245   4.651   4.444 -2.4255  0.1089 -0.4344
 2405TIP3   OH2 7178   2.484   2.938   2.021  0.0693  0.8292 -0.3880
 2405TIP3    H1 7179   2.560   2.934   2.080  0.5391  0.1942 -1.0159
 2405TIP3    H2 7180   2.447   2.850   2.024 -0.7405  1.1721  0.0220
 2406TIP3   OH2 7181   1.111   1.155   2.831  0.0893 -0.3153 -0.8200
 2406TIP3    H1 7182   1.111   1.166   2.736 -1.3755  0.9309 -0.7015
 2406TIP3    H2 7183   1.192   1.107   2.849  0.6694 -0.0903 -2.6321
 2407TIP3   OH2 7184   3.548   0.559   4.918 -0.0501 -0.3289  0.4398
 2407TIP3    H1 7185   3.466   0.522   4.885 -0.3959  1.4159 -0.8196
 2407TIP3    H2 7186   3.523   0.605   4.999  0.2422 -2.0754  1.5779
 2408TIP3   OH2 7187   2.521   0.841   2.238  0.3341 -0.3275  0.3205
 2408TIP3    H1 7188   2.448   0.787   2.208  0.2048 -0.3719  0.7175
 2408TIP3    H2 7189   2.587   0.778   2.267 -0.5332 -0.2933  2.5443
 2409TIP3   OH2 7190   7.108   5.894   5.124 -0.3125 -0.2622  0.2293
 2409TIP3    H1 7191   7.012   5.893   5.125 -0.3128 -0.5765  0.8902
 2409TIP3    H2 7192   7.131   5.874   5.033 -0.8729 -0.5633  0.1456
 2410TIP3   OH2 7193   2.895   0.408   0.631  0.1203  0.6350 -0.0436
 2410TIP3    H1 7194   2.950   0.369   0.700 -0.0176  0.9613  0.2570
 2410TIP3    H2 7195   2.900   0.346   0.558 -1.6200 -0.9272  1.0815
 2411TIP3   OH2 7196   6.931   3.068   4.886 -0.2148 -0.2025  0.2719
 2411TIP3    H1 7197   6.857   3.122   4.859  0.3850  0.7724  0.5440
 2411TIP3    H2 7198   6.994   3.130   4.924  0.9281 -0.9546 -0.3454
 2412TIP3   OH2 7199   1.530   5.415   5.343 -0.2173 -0.4664  0.2755
 2412TIP3    H1 7200   1.565   5.482   5.401  1.9846 -1.5258  0.2694
 2412TIP3    H2 7201   1.573   5.431   5.259  2.1883 -3.1450  0.8459
 2413TIP3   OH2 7202   3.122   4.756   3.192  0.4316 -0.2667 -0.0386
 2413TIP3    H1 7203   3.138   4.758   3.286  0.8945  1.1130 -0.1202
 2413TIP3    H2 7204   3.056   4.824   3.177 -0.0883 -0.8846 -0.6500
 2414TIP3   OH2 7205   5.626   3.609   5.282  0.4780 -0.0926  0.4366
 2414TIP3    H1 7206   5.649   3.561   5.362  1.4533  0.8486  0.7370
 2414TIP3    H2 7207   5.635   3.701   5.305  1.1830  0.1897 -0.8693
 2415TIP3   OH2 7208   1.602   0.897   2.769  0.8019 -0.1204  0.3272
 2415TIP3    H1 7209   1.523   0.860   2.728  0.3983 -3.0193  3.3236
 2415TIP3    H2 7210   1.670   0.888   2.702 -1.0629  1.4311 -1.9342
 2416TIP3   OH2 7211   4.620   1.649   1.354  0.2394  0.4768 -0.7417
 2416TIP3    H1 7212   4.702   1.616   1.315  1.1247 -0.0220  1.4320
 2416TIP3    H2 7213   4.582   1.572   1.397  0.4883  1.4505  1.3173
 2417TIP3   OH2 7214   2.026   2.595   1.418  0.3974  0.2748  0.0060
 2417TIP3    H1 7215   2.068   2.668   1.372 -0.8909  0.3145 -1.1836
 2417TIP3    H2 7216   2.047   2.609   1.510  2.1127  0.8437 -0.4405
 2418TIP3   OH2 7217   1.184   0.573   5.005 -0.0493  0.1945 -0.0343
 2418TIP3    H1 7218   1.091   0.597   5.009 -0.4551 -1.1535 -0.6475
 2418TIP3    H2 7219   1.184   0.478   5.022  1.1858  0.1181 -0.4064
 2419TIP3   OH2 7220   6.524   4.628   2.396  0.3176  0.7404 -0.1752
 2419TIP3    H1 7221   6.448   4.590   2.441  1.5545 -2.0876 -0.2631
 2419TIP3    H2 7222   6.539   4.570   2.322  2.3919  1.3737 -0.3098
 2420TIP3   OH2 7223   3.747   1.138   2.553 -0.4042  0.6957  0.5006
 2420TIP3    H1 7224   3.669   1.082   2.552 -0.3279  0.5877 -0.1416
 2420TIP3    H2 7225   3.821   1.076   2.552 -0.3039  0.7942  1.3151
 2421TIP3   OH2 7226   3.902   4.691   3.155 -0.4891  0.1332  0.4199
 2421TIP3    H1 7227   3.820   4.708   3.201 -1.4119 -1.2388 -0.6453
 2421TIP3    H2 7228   3.882   4.708   3.063  0.3220 -0.5921  0.0964
 2422TIP3   OH2 7229   5.269   0.631   1.069  0.0930 -0.0808  0.3970
 2422TIP3    H1 7230   5.237   0.714   1.104 -3.9354 -1.2655  0.0027
 2422TIP3    H2 7231   5.224   0.564   1.120  0.9340 -1.9821 -1.2233
 2423TIP3   OH2 7232   1.374   2.821   0.335  0.0319 -0.2648 -0.4236
 2423TIP3    H1 7233   1.396   2.783   0.249 -0.1376  1.3027 -1.1937
 2423TIP3    H2 7234   1.449   2.877   0.356 -1.3672  2.0258 -1.2050
 2424TIP3   OH2 7235   3.045   3.905   5.873 -0.3727 -0.2467  0.0462
 2424TIP3    H1 7236   3.068   3.814   5.851 -0.7960 -0.7700  1.6663
 2424TIP3    H2 7237   3.084   3.957   5.802  1.7656 -1.4889  0.2332
 2425TIP3   OH2 7238   4.120   3.693   5.374 -0.0370  0.2648  0.4069
 2425TIP3    H1 7239   4.133   3.721   5.465 -1.5204 -1.0163  1.0595
 2425TIP3    H2 7240   4.169   3.756   5.322 -0.1867  1.7730  2.0143
 2426TIP3   OH2 7241   0.548   5.031   0.560  0.6366  0.1254 -0.6253
 2426TIP3    H1 7242   0.630   4.983   0.549 -0.4746 -1.5650 -1.9490
 2426TIP3    H2 7243   0.488   4.993   0.495 -0.9488  1.8987 -0.2966
 2427TIP3   OH2 7244   4.961   4.164   2.435 -0.6011  0.3636  0.8657
 2427TIP3    H1 7245   5.046   4.190   2.470 -0.6165  2.0974 -0.2649
 2427TIP3    H2 7246   4.914   4.246   2.422 -2.7147 -0.5912  2.0476
 2428TIP3   OH2 7247   2.626   0.755   1.476  0.0410  0.0029  0.7150
 2428TIP3    H1 7248   2.615   0.714   1.390  0.3108  0.2375  0.5646
 2428TIP3    H2 7249   2.663   0.687   1.531 -0.6256 -0.3072  0.7908
 2429TIP3   OH2 7250   1.150   6.055   5.070  0.1471  0.6917  0.5288
 2429TIP3    H1 7251   1.162   5.962   5.088  0.5590  1.0183  2.1210
 2429TIP3    H2 7252   1.077   6.082   5.126  0.8242  1.5648  1.0313
 2430TIP3   OH2 7253   0.638   0.764   0.665 -0.4466  0.4325 -0.6458
 2430TIP3    H1 7254   0.596   0.782   0.749  1.5459  1.2674  0.2368
 2430TIP3    H2 7255   0.689   0.842   0.646  1.1909 -0.7425 -1.3279
 2431TIP3   OH2 7256   2.712   0.152   1.568  0.1074  0.0022  0.1147
 2431TIP3    H1 7257   2.789   0.098   1.587 -0.4307 -0.5951  0.6296
 2431TIP3    H2 7258   2.656   0.096   1.514 -0.3288  0.1445  0.4149
 2432TIP3   OH2 7259   1.150   2.349   2.684 -0.2130  0.2232  0.1298
 2432TIP3    H1 7260   1.233   2.396   2.696 -0.3972  0.4378  0.5823
 2432TIP3    H2 7261   1.099   2.370   2.762 -1.4112  1.5866 -0.9540
 2433TIP3   OH2 7262   0.051   0.985   0.942  0.1101 -0.1528  0.1459
 2433TIP3    H1 7263   0.082   1.031   1.020 -0.6066 -0.5567  0.6832
 2433TIP3    H2 7264   0.020   0.900   0.975 -0.1256 -0.3594 -0.5854
 2434TIP3   OH2 7265   0.801   4.423   0.252 -0.2699  0.0506 -0.4171
 2434TIP3    H1 7266   0.796   4.489   0.182 -0.6572  1.3163  0.7685
 2434TIP3    H2 7267   0.714   4.424   0.292 -0.2650 -1.1620 -0.3382
 2435TIP3   OH2 7268   3.173   1.840   0.223 -0.1580 -0.0394  0.4583
 2435TIP3    H1 7269   3.152   1.747   0.223  1.3714 -0.4009  0.0036
 2435TIP3    H2 7270   3.170   1.866   0.131  1.6639 -0.2021  0.3176
 2436TIP3   OH2 7271   0.895   2.351   3.263  0.5609  0.1507  0.3185
 2436TIP3    H1 7272   0.944   2.305   3.331  1.1607  0.9853  0.4783
 2436TIP3    H2 7273   0.957   2.360   3.191  0.1579 -0.0915 -0.0658
 2437TIP3   OH2 7274   4.779   3.378   3.882  0.5745 -0.5322 -0.1773
 2437TIP3    H1 7275   4.685   3.397   3.885  0.5100 -0.9269  1.8095
 2437TIP3    H2 7276   4.784   3.289   3.847  0.1238 -0.8489  0.5250
 2438TIP3   OH2 7277   5.192   2.428   2.921 -0.3190  0.0130  0.3085
 2438TIP3    H1 7278   5.184   2.415   3.016 -2.1772 -0.6881  0.1039
 2438TIP3    H2 7279   5.102   2.419   2.889  0.6020 -2.5614 -1.8683
 2439TIP3   OH2 7280   6.782   5.896   5.452  0.5587  0.2472  0.1063
 2439TIP3    H1 7281   6.690   5.894   5.476  0.5222 -0.0578 -0.0565
 2439TIP3    H2 7282   6.785   5.861   5.363  0.5580  2.3728 -0.7962
 2440TIP3   OH2 7283   1.151   6.633   2.827  0.1755  0.6400 -0.4339
 2440TIP3    H1 7284   1.238   6.657   2.858  0.4452 -0.0562 -0.6261
 2440TIP3    H2 7285   1.104   6.606   2.906 -0.4014  2.5358 -0.0947
 2441TIP3   OH2 7286   1.857   5.693   4.955 -0.1677 -0.2647 -0.0598
 2441TIP3    H1 7287   1.870   5.695   5.050  2.1718 -1.1704 -0.2957
 2441TIP3    H2 7288   1.831   5.602   4.937 -2.4009  0.3360 -0.1556
 2442TIP3   OH2 7289   4.124   0.844   4.595 -0.0900 -0.5486 -0.4399
 2442TIP3    H1 7290   4.125   0.749   4.585  1.5482 -0.6463  0.2541
 2442TIP3    H2 7291   4.212   0.865   4.626 -0.7216  1.1064  0.3237
 2443TIP3   OH2 7292   6.129   4.914   3.923 -0.9303 -0.1087  0.4227
 2443TIP3    H1 7293   6.055   4.927   3.864  0.6613  0.9690 -1.5008
 2443TIP3    H2 7294   6.126   4.821   3.946 -1.3713 -0.7092 -1.8130
 2444TIP3   OH2 7295   3.326   1.892   0.967 -0.6060 -0.0587  0.1193
 2444TIP3    H1 7296   3.328   1.919   1.059 -0.1531  0.5023 -0.0448
 2444TIP3    H2 7297   3.368   1.964   0.920 -2.9226  0.7722 -0.8192
 2445TIP3   OH2 7298   3.506   2.346   5.033  0.3852 -0.4366  0.4430
 2445TIP3    H1 7299   3.560   2.424   5.020 -0.6094  0.0541 -1.0898
 2445TIP3    H2 7300   3.493   2.311   4.944 -1.5523 -0.6847  0.7838
 2446TIP3   OH2 7301   4.320   5.520  -0.016 -0.0761 -0.1099 -0.0062
 2446TIP3    H1 7302   4.410   5.487  -0.021 -0.0184  0.1293 -0.6747
 2446TIP3    H2 7303   4.288   5.491   0.069  0.6207 -0.2368  0.2176
 2447TIP3   OH2 7304   6.773   2.089   2.914 -0.1565  0.1516 -0.6077
 2447TIP3    H1 7305   6.798   2.097   2.822  0.0769  1.2040 -0.4696
 2447TIP3    H2 7306   6.706   2.020   2.915  0.2652 -0.2869 -1.4718
 2448TIP3   OH2 7307   1.033   1.805   4.368  0.0423 -0.2792  0.4965
 2448TIP3    H1 7308   1.018   1.880   4.311  0.2057 -0.6906 -0.0979
 2448TIP3    H2 7309   1.087   1.840   4.439  1.5787 -0.1757 -0.6440
 2449TIP3   OH2 7310   5.003   6.467   0.424 -0.5526  0.1317 -0.0731
 2449TIP3    H1 7311   5.072   6.531   0.446 -0.9651  1.0002 -1.2319
 2449TIP3    H2 7312   5.051   6.388   0.401  0.1042  0.8076 -1.1469
 2450TIP3   OH2 7313   3.473   0.619   0.971 -0.1505 -0.3282  0.1867
 2450TIP3    H1 7314   3.422   0.663   1.039  1.9692  1.5942  0.6502
 2450TIP3    H2 7315   3.554   0.594   1.015  0.7692 -0.1568 -1.3392
 2451TIP3   OH2 7316   1.592   1.981   1.381 -0.2911  0.3223 -0.1888
 2451TIP3    H1 7317   1.512   1.935   1.356  1.1663 -1.9903 -0.8394
 2451TIP3    H2 7318   1.638   1.995   1.298  1.9080 -2.2418  0.4918
 2452TIP3   OH2 7319   7.143   6.755   0.741 -0.8036 -0.0817  0.1985
 2452TIP3    H1 7320   7.133   6.660   0.739  0.2513 -0.2048  0.4747
 2452TIP3    H2 7321   7.079   6.784   0.806  0.4013 -0.8350  1.7875
 2453TIP3   OH2 7322   3.301   2.749   5.332  0.5384 -0.6887  0.2511
 2453TIP3    H1 7323   3.235   2.708   5.275  0.0589 -0.0474  0.3280
 2453TIP3    H2 7324   3.385   2.724   5.293  0.2141  0.1079 -1.0227
 2454TIP3   OH2 7325   1.934   0.683   3.374  0.1768  0.0539  0.0461
 2454TIP3    H1 7326   1.896   0.771   3.378 -1.9091 -0.7448 -0.8857
 2454TIP3    H2 7327   2.005   0.685   3.438 -1.3042  1.7132  1.7592
 2455TIP3   OH2 7328   2.859   2.828   4.067 -0.3477  0.2571 -0.0502
 2455TIP3    H1 7329   2.922   2.826   3.995 -0.4263 -2.2328 -0.1358
 2455TIP3    H2 7330   2.777   2.855   4.026  0.2622  1.9612 -0.2375
 2456TIP3   OH2 7331   4.407   3.301   0.680 -0.0898  0.3494 -0.3063
 2456TIP3    H1 7332   4.420   3.395   0.669  2.0060  0.0775 -0.6190
 2456TIP3    H2 7333   4.350   3.275   0.608 -0.2902  1.3043 -0.4998
 2457TIP3   OH2 7334   5.720   2.619   4.900 -0.3022  0.2895 -0.3096
 2457TIP3    H1 7335   5.774   2.541   4.913  0.0074  0.4175 -0.7892
 2457TIP3    H2 7336   5.741   2.648   4.811  1.2882  2.2282  0.6347
 2458TIP3   OH2 7337   6.451   3.821   1.504  0.9300 -0.9613 -0.1077
 2458TIP3    H1 7338   6.412   3.740   1.536 -0.4429  0.4911  2.2053
 2458TIP3    H2 7339   6.376   3.873   1.472  1.0303  1.1741  2.7795
 2459TIP3   OH2 7340   6.430   4.500   0.298  0.4897 -0.2004  0.3270
 2459TIP3    H1 7341   6.498   4.475   0.359  0.5453 -0.7048  0.0665
 2459TIP3    H2 7342   6.422   4.425   0.239  0.1829  0.1269 -0.0559
 2460TIP3   OH2 7343   4.463   4.083   1.632  0.1817 -0.1604 -0.0632
 2460TIP3    H1 7344   4.414   4.038   1.701 -1.3503  0.8326 -0.4632
 2460TIP3    H2 7345   4.503   4.012   1.582 -2.7962 -1.2572 -1.1438
 2461TIP3   OH2 7346   3.622   5.152   3.871  0.3494 -0.1282 -0.0017
 2461TIP3    H1 7347   3.690   5.098   3.911 -0.2829  0.2932  1.7390
 2461TIP3    H2 7348   3.607   5.113   3.785 -1.2838 -3.8304  1.7804
 2462TIP3   OH2 7349   5.720   2.966   2.965  0.3883  0.0822  0.2330
 2462TIP3    H1 7350   5.690   2.882   3.000 -0.4964  0.7022  1.0194
 2462TIP3    H2 7351   5.653   3.029   2.994  2.4659  1.5669  2.1579
 2463TIP3   OH2 7352   2.554   0.265   2.558 -0.1842  0.0816  0.2888
 2463TIP3    H1 7353   2.540   0.295   2.468  0.2943  0.4256  0.3273
 2463TIP3    H2 7354   2.531   0.341   2.612  0.4795  0.1987  0.4126
 2464TIP3   OH2 7355   4.588   2.851   4.641 -1.0774  0.4753  0.1141
 2464TIP3    H1 7356   4.500   2.818   4.626 -1.2329  0.3389  1.2232
 2464TIP3    H2 7357   4.588   2.938   4.601 -1.6859  0.4373  0.0216
 2465TIP3   OH2 7358   2.239   0.323   5.504 -0.1346  0.3087  0.8206
 2465TIP3    H1 7359   2.285   0.251   5.460 -1.0874  0.7118 -0.9606
 2465TIP3    H2 7360   2.157   0.283   5.535  0.0811  0.2618  1.3410
 2466TIP3   OH2 7361   2.838   4.767   0.833 -0.1638 -0.2830 -0.6086
 2466TIP3    H1 7362   2.926   4.749   0.797 -0.2401 -1.9078 -0.0715
 2466TIP3    H2 7363   2.809   4.683   0.868 -1.0697  0.7150  1.1643
 2467TIP3   OH2 7364   3.709   1.326   1.671 -0.0418  0.4489  0.8808
 2467TIP3    H1 7365   3.803   1.311   1.661 -0.3831 -0.3841 -2.8976
 2467TIP3    H2 7366   3.689   1.396   1.608 -2.3252 -1.7384 -1.0474
 2468TIP3   OH2 7367   1.476   1.707   3.755  0.1084  0.2362  0.4488
 2468TIP3    H1 7368   1.407   1.769   3.777 -0.2616 -0.4485  1.2991
 2468TIP3    H2 7369   1.557   1.755   3.773 -0.1309  1.0209 -0.4983
 2469TIP3   OH2 7370   7.087   2.779   1.737 -0.1616 -0.1720 -0.1930
 2469TIP3    H1 7371   7.088   2.685   1.756 -0.0574  0.2207  2.0854
 2469TIP3    H2 7372   7.007   2.792   1.686  1.1076 -1.8059 -2.8054
 2470TIP3   OH2 7373   3.637   3.128   3.919  0.0168 -0.0569  0.2341
 2470TIP3    H1 7374   3.669   3.125   4.009  0.0347 -0.7732  0.2089
 2470TIP3    H2 7375   3.587   3.046   3.908 -0.8481  0.4967 -0.0860
 2471TIP3   OH2 7376   4.878   1.993   4.945  0.5361  0.5564 -0.3343
 2471TIP3    H1 7377   4.957   1.946   4.920 -0.2506 -0.9301 -0.1772
 2471TIP3    H2 7378   4.888   2.079   4.905  1.4244 -0.1883 -1.8496
 2472TIP3   OH2 7379   5.525   1.254   0.506  0.2645  0.4557 -0.1801
 2472TIP3    H1 7380   5.526   1.166   0.542  0.7108 -0.2315 -1.7954
 2472TIP3    H2 7381   5.435   1.266   0.475  0.2238  0.5458 -0.0285
 2473TIP3   OH2 7382   2.267   5.898   2.320  0.2492 -0.9218 -0.6331
 2473TIP3    H1 7383   2.227   5.829   2.373 -1.5762  0.9162  0.5430
 2473TIP3    H2 7384   2.298   5.962   2.383  1.4421 -0.3959 -1.7140
 2474TIP3   OH2 7385   1.913   0.707   2.772  0.0486  0.0557  0.4310
 2474TIP3    H1 7386   1.845   0.656   2.816 -0.3215 -0.7051 -0.9462
 2474TIP3    H2 7387   1.871   0.739   2.692  0.5013  1.9434  0.8988
 2475TIP3   OH2 7388   1.912   2.101   4.386  0.1079 -0.0883 -0.1483
 2475TIP3    H1 7389   1.925   2.138   4.473  0.1314 -0.0190 -0.1809
 2475TIP3    H2 7390   1.927   2.174   4.326  0.5410 -0.2421 -0.2310
 2476TIP3   OH2 7391   3.006   4.504   5.534  0.1879  0.6964 -0.2596
 2476TIP3    H1 7392   2.940   4.553   5.485  0.1973  0.2668 -0.7096
 2476TIP3    H2 7393   3.012   4.420   5.488  1.7160  1.0682 -0.8025
 2477TIP3   OH2 7394   0.054   6.130   1.166  0.9332 -0.7450 -0.2425
 2477TIP3    H1 7395   0.104   6.083   1.099  0.2753  0.4549 -1.6470
 2477TIP3    H2 7396   0.116   6.192   1.203  0.6955  0.3526 -1.5882
 2478TIP3   OH2 7397   4.473   5.621   4.784  0.2004 -0.6327  0.6461
 2478TIP3    H1 7398   4.471   5.716   4.777  0.5574 -0.6479  0.3400
 2478TIP3    H2 7399   4.480   5.604   4.878 -1.6471 -0.3894  0.8810
 2479TIP3   OH2 7400   4.465   1.998   1.483 -0.2901  0.4066  0.9625
 2479TIP3    H1 7401   4.522   2.015   1.559 -1.3438  3.8669  1.1347
 2479TIP3    H2 7402   4.406   2.074   1.480 -2.8587 -1.5025 -1.0665
 2480TIP3   OH2 7403   1.454   4.692   4.378 -0.4644 -0.0025  0.6760
 2480TIP3    H1 7404   1.388   4.647   4.325 -0.0855  1.7263 -1.3811
 2480TIP3    H2 7405   1.524   4.627   4.390  0.5183  0.1528 -3.0385
 2481TIP3   OH2 7406   2.093   3.930   0.821 -0.3838  0.4482  0.0849
 2481TIP3    H1 7407   2.013   3.884   0.795 -1.2244  2.2516 -0.6915
 2481TIP3    H2 7408   2.139   3.948   0.739  1.6928 -1.9202  0.5958
 2482TIP3   OH2 7409   0.475   3.271   1.308 -0.4515  0.2681  0.2302
 2482TIP3    H1 7410   0.419   3.195   1.317 -0.4943  0.0290 -1.6995
 2482TIP3    H2 7411   0.461   3.302   1.219  3.0182 -0.2857 -0.6852
 2483TIP3   OH2 7412   6.538   2.654   0.689  0.2659  0.5060  0.9837
 2483TIP3    H1 7413   6.547   2.593   0.762  0.1431  0.5928  1.0716
 2483TIP3    H2 7414   6.452   2.693   0.701 -1.1541 -1.7834 -0.9555
 2484TIP3   OH2 7415   4.927   0.092   4.306 -0.1846  0.0629 -0.1950
 2484TIP3    H1 7416   4.953   0.029   4.238 -0.0531 -0.6238  0.4782
 2484TIP3    H2 7417   4.924   0.176   4.261  0.5453 -0.2812 -0.9089
 2485TIP3   OH2 7418   6.819   2.235   3.808 -0.5213 -0.1982 -0.4195
 2485TIP3    H1 7419   6.830   2.188   3.725  0.0457  0.7556 -0.8916
 2485TIP3    H2 7420   6.903   2.224   3.853 -0.7516 -0.5241 -0.0627
 2486TIP3   OH2 7421   6.545   0.532   2.250  0.1664 -0.1249 -0.2405
 2486TIP3    H1 7422   6.490   0.565   2.178  0.7245  0.3301 -0.4602
 2486TIP3    H2 7423   6.538   0.598   2.318 -0.9552 -0.9094  0.4345
 2487TIP3   OH2 7424   4.748   5.805   1.312 -0.2084  0.3326 -0.3806
 2487TIP3    H1 7425   4.814   5.744   1.345 -1.4912 -1.6946 -1.4123
 2487TIP3    H2 7426   4.799   5.877   1.275  1.3601 -0.1880  0.6721
 2488TIP3   OH2 7427   7.147   0.716   2.791 -0.1137  0.0414 -0.4083
 2488TIP3    H1 7428   7.068   0.665   2.813 -0.5603  0.5048 -0.9183
 2488TIP3    H2 7429   7.214   0.683   2.851 -1.0951  0.7368  1.1306
 2489TIP3   OH2 7430   3.602   0.895   0.131  0.3305  0.1740  0.4454
 2489TIP3    H1 7431   3.565   0.878   0.044 -0.0260  0.4876  0.5310
 2489TIP3    H2 7432   3.568   0.824   0.186  0.5119  0.0066  0.3416
 2490TIP3   OH2 7433   1.468   5.192   0.444 -0.5168 -0.0250 -0.1794
 2490TIP3    H1 7434   1.412   5.192   0.366  0.2161  5.5244 -1.1182
 2490TIP3    H2 7435   1.407   5.179   0.517 -1.7245 -1.9022 -1.4304
 2491TIP3   OH2 7436   7.001   2.732   3.047  0.1818 -0.7503 -0.0759
 2491TIP3    H1 7437   7.037   2.643   3.046  2.2193  0.0230 -0.2395
 2491TIP3    H2 7438   6.975   2.749   2.956  0.0909 -1.0595 -0.1077
 2492TIP3   OH2 7439   4.561   5.770   3.781 -0.0657  0.4501 -0.0345
 2492TIP3    H1 7440   4.569   5.838   3.848  0.3712  0.5669 -0.1977
 2492TIP3    H2 7441   4.546   5.818   3.700 -0.2857  0.3247 -0.0672
 2493TIP3   OH2 7442   0.190   5.066   3.021 -0.6690  0.8817  0.1187
 2493TIP3    H1 7443   0.181   4.985   2.972 -1.4093  1.6313 -1.0247
 2493TIP3    H2 7444   0.256   5.116   2.973  1.6914  0.0053  2.2009
 2494TIP3   OH2 7445   4.364   4.431   3.201 -0.0148 -0.5014 -0.0023
 2494TIP3    H1 7446   4.397   4.394   3.120 -0.4372 -0.4854 -0.1849
 2494TIP3    H2 7447   4.270   4.409   3.201 -0.2989  0.6407 -0.1622
 2495TIP3   OH2 7448   4.415   2.667   2.051 -0.3036 -0.0508  0.1149
 2495TIP3    H1 7449   4.351   2.688   1.982 -0.5158 -1.8018 -0.2640
 2495TIP3    H2 7450   4.369   2.606   2.108  0.7415 -0.6368  0.3500
 2496TIP3   OH2 7451   5.259   3.479   0.446 -0.4519  0.1745  0.2220
 2496TIP3    H1 7452   5.330   3.529   0.406 -1.3484  2.9079  1.7211
 2496TIP3    H2 7453   5.297   3.446   0.528  0.5171 -2.8997 -1.3339
 2497TIP3   OH2 7454   4.604   4.863   5.504 -1.4642  0.2820 -0.3580
 2497TIP3    H1 7455   4.681   4.806   5.499 -1.3420  0.5062 -1.2497
 2497TIP3    H2 7456   4.545   4.819   5.565 -0.4044  0.3745  0.7759
 2498TIP3   OH2 7457   3.453   5.896   5.558  0.0269  0.6519  0.4624
 2498TIP3    H1 7458   3.477   5.927   5.471  0.5733  0.3045  0.4830
 2498TIP3    H2 7459   3.520   5.831   5.580 -0.7012 -0.0375  0.7070
 2499TIP3   OH2 7460   0.836   2.537   3.719  0.0510 -0.6664 -0.0993
 2499TIP3    H1 7461   0.745   2.509   3.707 -0.4581  0.0298  1.7339
 2499TIP3    H2 7462   0.867   2.483   3.792  0.9136 -0.4544 -0.3082
 2500TIP3   OH2 7463   2.622   6.296   4.300  0.2041 -0.5020  0.5321
 2500TIP3    H1 7464   2.687   6.231   4.325  2.5770  1.4870 -0.0704
 2500TIP3    H2 7465   2.666   6.350   4.235 -1.5636  1.8312  1.1399
 2501TIP3   OH2 7466   2.475   3.976   0.082  0.0287  0.0553 -0.1208
 2501TIP3    H1 7467   2.414   3.950   0.013 -0.2940  1.2763 -0.3259
 2501TIP3    H2 7468   2.449   4.065   0.105  0.4373 -0.1493  1.2502
 2502TIP3   OH2 7469   0.126   4.149   4.710 -0.5401  0.6106  0.1362
 2502TIP3    H1 7470   0.104   4.233   4.669 -0.9044  1.1220  1.3146
 2502TIP3    H2 7471   0.099   4.160   4.801 -1.4602 -1.1334  0.1062
 2503TIP3   OH2 7472   0.749   6.121   0.453 -0.0586 -0.0282  0.2449
 2503TIP3    H1 7473   0.801   6.078   0.521  0.4750  0.2617  0.0226
 2503TIP3    H2 7474   0.669   6.149   0.498  0.0381 -0.3526  0.6193
 2504TIP3   OH2 7475   6.563   5.958   3.146  0.1460  0.1755 -0.1890
 2504TIP3    H1 7476   6.624   6.031   3.161 -1.9658  2.1671 -0.6962
 2504TIP3    H2 7477   6.538   5.929   3.233  2.6796 -1.5689  0.0734
 2505TIP3   OH2 7478   6.654   6.027   4.517 -0.2886  0.0410 -0.3574
 2505TIP3    H1 7479   6.653   6.110   4.564  0.2566  0.4919 -1.1253
 2505TIP3    H2 7480   6.562   6.000   4.515 -0.4008  0.3244  0.3997
 2506TIP3   OH2 7481   2.147   2.837   4.777 -0.1866 -0.3636 -0.1317
 2506TIP3    H1 7482   2.217   2.828   4.841 -0.3855 -2.1731 -0.1169
 2506TIP3    H2 7483   2.164   2.769   4.712 -1.7779 -0.6815 -0.2660
 2507TIP3   OH2 7484   5.502   0.296   3.813 -0.0003 -0.1684 -0.2428
 2507TIP3    H1 7485   5.489   0.390   3.801  0.9656  0.1183  0.8128
 2507TIP3    H2 7486   5.460   0.276   3.897  0.2010 -0.5880 -0.2382
 2508TIP3   OH2 7487   3.847   0.104   4.099  0.0512  1.0646 -0.2387
 2508TIP3    H1 7488   3.931   0.129   4.137  0.0289  1.1229 -0.2277
 2508TIP3    H2 7489   3.866   0.085   4.007  0.2026  0.4180 -0.0807
 2509TIP3   OH2 7490   2.591   2.808   2.706  1.1640 -0.2467 -0.2028
 2509TIP3    H1 7491   2.523   2.806   2.639  2.2347 -0.3855 -1.3058
 2509TIP3    H2 7492   2.550   2.854   2.780 -0.3501 -0.9319 -0.5725
 2510TIP3   OH2 7493   3.341   1.452   1.697 -0.1018  0.5971  0.1568
 2510TIP3    H1 7494   3.369   1.528   1.748  1.9047  0.5423 -0.7585
 2510TIP3    H2 7495   3.346   1.481   1.606  0.2707 -0.4928 -0.1864
 2511TIP3   OH2 7496   1.488   6.615   1.579  0.0154 -0.6139 -0.3112
 2511TIP3    H1 7497   1.521   6.526   1.589 -0.4165 -0.8014 -0.5522
 2511TIP3    H2 7498   1.436   6.613   1.499  2.8526  0.6941 -2.3370
 2512TIP3   OH2 7499   6.082   3.772   2.087  0.6705 -0.6577  0.0817
 2512TIP3    H1 7500   6.109   3.681   2.081  0.8088 -0.5718 -0.7880
 2512TIP3    H2 7501   6.001   3.776   2.036  2.0868  0.2255 -2.2343
 2513TIP3   OH2 7502   1.785   3.746   2.739 -0.0697  0.0214 -0.1206
 2513TIP3    H1 7503   1.809   3.685   2.809 -1.2944  0.3127  0.5714
 2513TIP3    H2 7504   1.759   3.689   2.666  1.5859 -0.2883 -0.5280
 2514TIP3   OH2 7505   4.347   6.392   1.824 -0.1148  0.2417  0.6005
 2514TIP3    H1 7506   4.308   6.338   1.892 -1.5027 -0.5974 -0.8040
 2514TIP3    H2 7507   4.395   6.331   1.768 -1.8766  0.3231 -1.1293
 2515TIP3   OH2 7508   1.193   3.786   0.965  0.4761  0.0479 -0.2719
 2515TIP3    H1 7509   1.167   3.698   0.938 -2.1053  0.1889  1.3844
 2515TIP3    H2 7510   1.271   3.773   1.018 -0.6103 -1.4867  1.0630
 2516TIP3   OH2 7511   4.743   1.199   2.741 -0.1616  1.0137  0.2125
 2516TIP3    H1 7512   4.698   1.264   2.795 -0.6815  0.2997  0.6519
 2516TIP3    H2 7513   4.796   1.251   2.680 -0.5744  1.8439  0.5485
 2517TIP3   OH2 7514   0.479   1.605   4.838  0.2739  0.1391  0.3433
 2517TIP3    H1 7515   0.560   1.593   4.888  1.0430  0.7145 -0.7141
 2517TIP3    H2 7516   0.508   1.639   4.753 -1.0209 -0.4299 -0.3584
 2518TIP3   OH2 7517   6.300   2.138   3.869  0.0824 -0.2977 -0.1627
 2518TIP3    H1 7518   6.389   2.120   3.899 -0.3731 -0.7496  0.9798
 2518TIP3    H2 7519   6.282   2.071   3.803  0.8993  0.3568 -1.0723
 2519TIP3   OH2 7520   2.316   6.277   4.821  0.1951  0.3080  0.3241
 2519TIP3    H1 7521   2.391   6.319   4.862 -0.5020  0.7082  1.2108
 2519TIP3    H2 7522   2.320   6.186   4.851 -1.7818  1.1422  3.5510
 2520TIP3   OH2 7523   1.037   5.279   5.259  0.1236 -0.1943  0.4772
 2520TIP3    H1 7524   1.129   5.274   5.285  0.9538  1.9115 -1.5785
 2520TIP3    H2 7525   0.995   5.332   5.327  0.3837 -1.2554  1.4817
 2521TIP3   OH2 7526   2.213   3.802   5.786 -0.2047  0.2074 -0.0959
 2521TIP3    H1 7527   2.234   3.879   5.838  0.7380  0.2719 -0.5540
 2521TIP3    H2 7528   2.126   3.776   5.815  0.2718  0.2809  1.4814
 2522TIP3   OH2 7529   5.139   0.372   2.595 -0.3358  0.0445 -0.2104
 2522TIP3    H1 7530   5.070   0.409   2.540 -0.7209 -0.0641  0.1926
 2522TIP3    H2 7531   5.217   0.375   2.541 -0.2701  1.7594 -0.0636
 2523TIP3   OH2 7532   4.501   6.049   2.232  0.1249 -0.0212  0.4302
 2523TIP3    H1 7533   4.457   6.134   2.236 -0.4810 -0.3713  1.4578
 2523TIP3    H2 7534   4.586   6.064   2.273  0.1996  0.1957  0.1968
 2524TIP3   OH2 7535   6.906   5.273   4.777 -0.5523 -0.1957  0.2684
 2524TIP3    H1 7536   6.963   5.343   4.745 -0.7326  0.2643  0.9360
 2524TIP3    H2 7537   6.920   5.201   4.715  0.0189  0.2474 -0.1324
 2525TIP3   OH2 7538   2.676   3.450   3.381 -0.2529 -0.1466  0.2003
 2525TIP3    H1 7539   2.633   3.506   3.317 -1.1621  1.0501  1.7783
 2525TIP3    H2 7540   2.633   3.365   3.373 -1.4909  0.4557  0.3380
 2526TIP3   OH2 7541   3.302   6.766   1.694 -0.7954 -0.2462 -0.1826
 2526TIP3    H1 7542   3.249   6.798   1.767 -0.6799 -0.1597 -0.1360
 2526TIP3    H2 7543   3.345   6.687   1.728 -0.9702 -0.3695 -0.2516
 2527TIP3   OH2 7544   7.125   1.914   4.064 -0.5081  0.1384  0.1348
 2527TIP3    H1 7545   7.072   1.990   4.090  0.6158  0.8098  0.5396
 2527TIP3    H2 7546   7.174   1.944   3.988 -0.1385 -0.2314  0.2251
 2528TIP3   OH2 7547   1.577   4.303   1.952  0.2046  0.0302  0.2221
 2528TIP3    H1 7548   1.653   4.301   2.010  1.4201  0.1490 -1.3079
 2528TIP3    H2 7549   1.613   4.288   1.865 -1.7199 -1.5015 -0.3854
 2529TIP3   OH2 7550   6.484   2.103   2.902 -0.0518 -0.0262 -0.0951
 2529TIP3    H1 7551   6.497   2.191   2.867  0.5342 -0.2749 -0.5063
 2529TIP3    H2 7552   6.389   2.091   2.901 -0.2194  1.0293  1.0445
 2530TIP3   OH2 7553   6.272   5.196   2.976 -0.6000 -0.1989 -0.2774
 2530TIP3    H1 7554   6.325   5.196   2.896  0.9254  0.5556  0.6894
 2530TIP3    H2 7555   6.218   5.275   2.969  0.2986  0.4476 -0.0982
 2531TIP3   OH2 7556   3.847   2.252   3.620 -0.3471 -0.0201 -0.1295
 2531TIP3    H1 7557   3.773   2.208   3.579 -1.5411 -0.9805  2.7333
 2531TIP3    H2 7558   3.914   2.184   3.629  0.5531  0.5901 -1.7951
 2532TIP3   OH2 7559   1.579   3.572   5.491  0.0370 -0.7081  0.1195
 2532TIP3    H1 7560   1.534   3.498   5.531 -0.0075 -0.6794  0.1239
 2532TIP3    H2 7561   1.563   3.561   5.397 -1.9118  0.5233  0.2539
 2533TIP3   OH2 7562   5.767   0.849   5.813 -0.2832 -0.2519 -0.1393
 2533TIP3    H1 7563   5.745   0.771   5.865  1.2504  0.5150  1.7836
 2533TIP3    H2 7564   5.716   0.919   5.853  0.0249  0.1379 -0.4259
 2534TIP3   OH2 7565   5.642   3.896   4.249 -0.2096 -0.2107  0.2549
 2534TIP3    H1 7566   5.694   3.828   4.292 -0.3404 -0.2354  0.3733
 2534TIP3    H2 7567   5.554   3.859   4.243  0.2897 -1.1919 -2.1704
 2535TIP3   OH2 7568   5.238   0.163   0.078 -0.2246 -0.1425  0.2533
 2535TIP3    H1 7569   5.292   0.112   0.018  0.6574 -0.1631  1.0381
 2535TIP3    H2 7570   5.150   0.157   0.042 -0.1455 -2.1661  0.2587
 2536TIP3   OH2 7571   1.064   0.016   1.507  0.2712 -0.2959 -0.1172
 2536TIP3    H1 7572   0.973  -0.006   1.487  0.2404  1.2718 -1.9265
 2536TIP3    H2 7573   1.058   0.097   1.558  0.6056 -1.5385  2.0342
 2537TIP3   OH2 7574   4.827   2.339   1.403 -1.2125 -0.2005 -0.2576
 2537TIP3    H1 7575   4.852   2.284   1.477 -2.5454  0.5167  0.7782
 2537TIP3    H2 7576   4.784   2.415   1.444 -1.8983  0.2554 -1.7677
 2538TIP3   OH2 7577   0.432   4.656   3.651 -0.0622 -0.1082  0.2287
 2538TIP3    H1 7578   0.447   4.586   3.587 -0.8035 -1.4473  1.4834
 2538TIP3    H2 7579   0.345   4.689   3.631 -0.6555 -1.1207  1.0612
 2539TIP3   OH2 7580   5.133   4.844   5.494 -0.3985  0.9681 -0.0157
 2539TIP3    H1 7581   5.141   4.926   5.542  0.3717  0.5185  0.6503
 2539TIP3    H2 7582   5.158   4.866   5.404 -0.3041  1.4828  0.1364
 2540TIP3   OH2 7583   3.975   3.258   4.263 -0.1131  0.7159 -0.1865
 2540TIP3    H1 7584   3.937   3.321   4.201  1.7316  2.3659  0.2678
 2540TIP3    H2 7585   4.005   3.186   4.208 -1.5570  0.5581 -0.8086
 2541TIP3   OH2 7586   4.048   2.377   1.603 -0.0200  0.2833 -0.1950
 2541TIP3    H1 7587   4.048   2.317   1.678 -0.2873  2.6226  1.8030
 2541TIP3    H2 7588   4.139   2.379   1.574  0.0001 -1.0210 -0.2847
 2542TIP3   OH2 7589   5.558   3.167   2.216  0.0407  0.0852 -0.9181
 2542TIP3    H1 7590   5.539   3.214   2.134  0.9307 -0.2311 -1.3124
 2542TIP3    H2 7591   5.651   3.180   2.230  0.2571 -1.3484 -0.8929
 2543TIP3   OH2 7592   2.694   5.688   3.064 -0.1524 -0.8602  0.2489
 2543TIP3    H1 7593   2.618   5.697   3.120 -0.1922  0.0819  0.0598
 2543TIP3    H2 7594   2.768   5.715   3.118 -0.0895 -0.7153  0.0907
 2544TIP3   OH2 7595   5.697   1.670   3.334 -0.2798  0.5399  0.3001
 2544TIP3    H1 7596   5.779   1.717   3.353  0.0371  0.2695 -0.3695
 2544TIP3    H2 7597   5.696   1.597   3.395 -0.0662  0.5954  0.3704
 2545TIP3   OH2 7598   0.218   6.714   2.095  0.0237  0.2729 -0.0225
 2545TIP3    H1 7599   0.170   6.770   2.034  0.9755  0.6642 -0.4208
 2545TIP3    H2 7600   0.190   6.743   2.182  0.1663  1.0624 -0.2357
 2546TIP3   OH2 7601   0.306   6.247   2.742  0.4319 -0.2838  0.0145
 2546TIP3    H1 7602   0.319   6.342   2.736  0.1898 -0.3128 -1.4993
 2546TIP3    H2 7603   0.344   6.213   2.660 -1.9896 -1.1849 -0.8397
 2547TIP3   OH2 7604   6.631   3.323   1.606  0.2498  0.0938  0.5394
 2547TIP3    H1 7605   6.620   3.396   1.545 -2.0171  0.8378  1.7237
 2547TIP3    H2 7606   6.641   3.365   1.692  2.5169 -0.9486  0.8483
 2548TIP3   OH2 7607   5.331   5.707   0.386 -0.5444  0.2316  0.0845
 2548TIP3    H1 7608   5.278   5.702   0.307 -1.7543  1.3668  0.7948
 2548TIP3    H2 7609   5.285   5.768   0.443  0.2763 -0.5812  1.6975
 2549TIP3   OH2 7610   4.037   6.519   2.459  0.1568 -0.1115 -0.1733
 2549TIP3    H1 7611   4.069   6.576   2.389 -0.0775  0.7717  0.4226
 2549TIP3    H2 7612   4.105   6.524   2.526  0.0524 -0.4019 -0.0443
 2550TIP3   OH2 7613   7.127   5.392   0.855 -0.0522  0.2264  0.3950
 2550TIP3    H1 7614   7.126   5.467   0.796 -0.1149 -0.5849 -0.6731
 2550TIP3    H2 7615   7.203   5.341   0.827  0.1497  0.0220  1.2845
 2551TIP3   OH2 7616   2.545   2.064   2.948  0.3131 -0.0285 -0.4978
 2551TIP3    H1 7617   2.573   2.137   2.893 -0.1668  0.5639  0.0312
 2551TIP3    H2 7618   2.557   2.094   3.037 -0.9539 -0.1534 -0.2570
 2552TIP3   OH2 7619   2.483   4.737   3.944 -0.3453  0.0043  0.0915
 2552TIP3    H1 7620   2.401   4.691   3.933 -0.7748  0.5992  0.7043
 2552TIP3    H2 7621   2.547   4.685   3.896 -1.3825  0.4547 -1.8759
 2553TIP3   OH2 7622   5.201   0.364   2.323  0.1174 -0.7845  0.0757
 2553TIP3    H1 7623   5.125   0.412   2.353 -1.0589 -0.1882 -3.4036
 2553TIP3    H2 7624   5.167   0.278   2.299  0.9254 -1.1427  0.1711
 2554TIP3   OH2 7625   0.080   6.478   0.119 -0.6741  0.1399 -0.1059
 2554TIP3    H1 7626   0.118   6.393   0.140 -0.9439  0.0197 -0.0992
 2554TIP3    H2 7627   0.095   6.531   0.198 -3.0123 -0.7589  1.0252
 2555TIP3   OH2 7628   3.520   2.916   1.341  0.5113 -0.6838 -0.5012
 2555TIP3    H1 7629   3.485   2.997   1.304 -0.0108 -1.0404 -0.7978
 2555TIP3    H2 7630   3.525   2.932   1.435 -2.9058 -1.4685 -0.0365
 2556TIP3   OH2 7631   2.898   2.311   4.582 -0.5860 -0.3791 -0.5267
 2556TIP3    H1 7632   2.885   2.217   4.589 -3.2980 -0.0020  0.5876
 2556TIP3    H2 7633   2.853   2.335   4.501  0.4078 -0.0301 -1.0051
 2557TIP3   OH2 7634   2.198   2.211   0.953  0.2244 -0.3494 -0.0673
 2557TIP3    H1 7635   2.286   2.229   0.986 -0.7326  0.1109  2.3989
 2557TIP3    H2 7636   2.160   2.298   0.940 -0.4555 -0.5447  0.5879
 2558TIP3   OH2 7637   4.420   2.975   1.828 -0.3427  0.1020  0.4907
 2558TIP3    H1 7638   4.379   3.051   1.786 -0.3154 -0.5103 -0.7000
 2558TIP3    H2 7639   4.477   3.012   1.895 -2.7772  0.9877  2.2307
 2559TIP3   OH2 7640   5.388   1.360   5.445  0.1878 -0.7024  0.2455
 2559TIP3    H1 7641   5.323   1.310   5.395  0.1921  0.9954 -1.5804
 2559TIP3    H2 7642   5.470   1.346   5.398  0.5540 -0.4672  0.8081
 2560TIP3   OH2 7643   5.932   5.151   0.648  0.0026  0.4254  0.3577
 2560TIP3    H1 7644   6.011   5.185   0.605 -0.3953  0.3676 -0.4301
 2560TIP3    H2 7645   5.877   5.228   0.662 -0.7439  0.1877 -1.1024
 2561TIP3   OH2 7646   5.350   3.165   4.904  0.3584 -0.6434 -0.7910
 2561TIP3    H1 7647   5.256   3.184   4.901  0.0224 -1.4303  2.2214
 2561TIP3    H2 7648   5.356   3.082   4.952  2.6994  0.5391  1.1298
 2562TIP3   OH2 7649   3.129   5.917   2.651 -0.0852 -0.0049  0.5902
 2562TIP3    H1 7650   3.165   5.984   2.593  1.5300  0.9677  2.5871
 2562TIP3    H2 7651   3.123   5.959   2.736 -1.5436 -1.6388  1.3566
 2563TIP3   OH2 7652   6.043   2.373   4.086 -0.0361  0.2220 -0.0061
 2563TIP3    H1 7653   5.961   2.366   4.038 -0.9393 -0.2257  1.5328
 2563TIP3    H2 7654   6.077   2.283   4.089  0.2068  0.3089 -0.1337
 2564TIP3   OH2 7655   4.008   0.083   5.243 -0.3791 -0.6168  0.0538
 2564TIP3    H1 7656   3.992   0.175   5.225  1.3046 -0.3906 -0.4335
 2564TIP3    H2 7657   3.971   0.069   5.330  0.5330  0.8793  0.7317
 2565TIP3   OH2 7658   1.857   1.443   2.014 -0.1354 -0.4272 -0.1133
 2565TIP3    H1 7659   1.849   1.533   1.982 -0.6235 -0.5686 -0.4080
 2565TIP3    H2 7660   1.879   1.392   1.936  0.9114 -0.4647  0.1888
 2566TIP3   OH2 7661   6.670   2.585   4.931  0.6643  0.2249  0.3245
 2566TIP3    H1 7662   6.639   2.569   4.842  1.4467 -0.6831  0.2024
 2566TIP3    H2 7663   6.590   2.606   4.980  0.1600  0.2432 -0.4809
 2567TIP3   OH2 7664   4.781   4.903   1.069  0.3746  0.1160  0.0230
 2567TIP3    H1 7665   4.742   4.990   1.075  0.2664 -0.0285  1.9447
 2567TIP3    H2 7666   4.728   4.857   1.004 -1.1791  0.6705  0.8586
 2568TIP3   OH2 7667   6.788   5.450   4.473 -0.6585 -0.6679 -0.1387
 2568TIP3    H1 7668   6.744   5.392   4.411  0.5540  0.6792 -2.3708
 2568TIP3    H2 7669   6.872   5.408   4.490 -0.8866 -0.9083  0.4160
 2569TIP3   OH2 7670   6.160   1.661   5.605  0.2777 -0.0251  0.1667
 2569TIP3    H1 7671   6.238   1.641   5.657  0.3280  1.0524  0.5429
 2569TIP3    H2 7672   6.168   1.755   5.586  0.3302 -0.4267 -1.9432
 2570TIP3   OH2 7673   5.198   5.600   1.607 -0.2310  0.2283  0.2039
 2570TIP3    H1 7674   5.278   5.644   1.577 -1.0876  1.3658 -0.4928
 2570TIP3    H2 7675   5.229   5.518   1.645  1.1356 -0.1449 -1.5721
 2571TIP3   OH2 7676   6.435   3.667   4.369 -0.5572  0.3290 -0.1568
 2571TIP3    H1 7677   6.485   3.735   4.414 -1.0891 -0.2259  1.3498
 2571TIP3    H2 7678   6.366   3.714   4.323 -1.8955  0.7951  2.1279
 2572TIP3   OH2 7679   5.917   6.314   0.337 -0.0285  0.0401 -0.1778
 2572TIP3    H1 7680   5.823   6.309   0.353 -0.2369  2.1310 -0.5251
 2572TIP3    H2 7681   5.932   6.255   0.262 -0.7337 -1.6430  0.9454
 2573TIP3   OH2 7682   1.872   6.298   2.212  0.4368 -0.5802 -0.2164
 2573TIP3    H1 7683   1.820   6.368   2.174  1.7541 -0.2722 -1.5706
 2573TIP3    H2 7684   1.957   6.305   2.169  1.3437 -1.5759  1.3042
 2574TIP3   OH2 7685   0.927   0.245   4.016 -0.4933  0.6987  0.1230
 2574TIP3    H1 7686   0.925   0.265   3.922 -0.0389  1.4500  0.2652
 2574TIP3    H2 7687   0.857   0.298   4.052 -1.4989 -0.5268  0.0554
 2575TIP3   OH2 7688   3.000   6.739   4.702  0.1251 -0.9422 -0.6903
 2575TIP3    H1 7689   2.954   6.705   4.779  0.2857  1.0535  0.3654
 2575TIP3    H2 7690   2.974   6.681   4.631 -0.8588 -2.2321  0.6590
 2576TIP3   OH2 7691   3.002   3.210   1.654 -0.2827 -0.1439  0.0145
 2576TIP3    H1 7692   3.044   3.286   1.613 -1.7487  0.9029  0.3639
 2576TIP3    H2 7693   2.920   3.199   1.605 -0.3777 -1.1170  0.3802
 2577TIP3   OH2 7694   5.391   3.710   2.425 -0.3303  0.1219  0.1065
 2577TIP3    H1 7695   5.346   3.753   2.498  1.1823  0.1499  1.0659
 2577TIP3    H2 7696   5.405   3.620   2.454  0.8930  0.3152  0.1548
 2578TIP3   OH2 7697   3.842   6.090   1.629  0.0694 -0.0187  0.0646
 2578TIP3    H1 7698   3.914   6.109   1.568 -0.1741 -2.3321 -1.0857
 2578TIP3    H2 7699   3.764   6.119   1.583  0.0304 -0.2106  0.0081
 2579TIP3   OH2 7700   1.963   2.363   1.987  0.4183 -0.0503 -0.2331
 2579TIP3    H1 7701   1.983   2.456   1.980 -1.0678  0.3594  0.4697
 2579TIP3    H2 7702   1.904   2.346   1.913 -0.4381 -0.0712  0.4306
 2580TIP3   OH2 7703   2.620   0.734   0.159 -0.3433  0.1625  0.6009
 2580TIP3    H1 7704   2.610   0.769   0.247 -0.2169  0.5050  0.4809
 2580TIP3    H2 7705   2.713   0.741   0.140 -0.0421 -1.7641  1.1901
 2581TIP3   OH2 7706   7.173   1.557  -0.005  0.2198  0.4380  0.0066
 2581TIP3    H1 7707   7.227   1.564   0.074  1.1048 -0.4600 -0.5041
 2581TIP3    H2 7708   7.209   1.482  -0.052 -1.2119  0.0738 -0.5598
 2582TIP3   OH2 7709   4.103   3.841   5.106  0.5142  0.0717 -0.0116
 2582TIP3    H1 7710   4.061   3.909   5.053  1.9713  0.5066 -0.6574
 2582TIP3    H2 7711   4.164   3.889   5.162  1.7543 -0.6851 -0.6646
 2583TIP3   OH2 7712   2.018   4.038   1.457 -0.0490  0.0252  0.2088
 2583TIP3    H1 7713   2.109   4.020   1.435 -0.4091 -0.8416 -0.6021
 2583TIP3    H2 7714   1.973   4.043   1.372 -0.6801  0.8875  0.5785
 2584TIP3   OH2 7715   5.380   6.143   2.592 -0.7497 -0.3286  0.0984
 2584TIP3    H1 7716   5.419   6.061   2.622  0.3784  0.2238  0.1735
 2584TIP3    H2 7717   5.366   6.195   2.671 -0.9285 -0.2154 -0.0044
 2585TIP3   OH2 7718   4.281   1.095   0.013 -0.2338  0.4007 -0.7507
 2585TIP3    H1 7719   4.246   1.009   0.036 -0.5652  0.8414  0.4545
 2585TIP3    H2 7720   4.207   1.155   0.023  0.4980  1.1362  0.4918
 2586TIP3   OH2 7721   3.351   1.434   4.087  0.0660 -0.5175 -0.2097
 2586TIP3    H1 7722   3.364   1.507   4.027 -2.1036  1.3868  1.4611
 2586TIP3    H2 7723   3.373   1.357   4.036  2.2050  1.2359 -2.1538
 2587TIP3   OH2 7724   6.337   5.243   4.623  0.6789  0.2534  1.2718
 2587TIP3    H1 7725   6.382   5.162   4.600 -0.9104 -0.3474  0.1186
 2587TIP3    H2 7726   6.385   5.311   4.577 -1.1896 -0.6853 -2.4670
 2588TIP3   OH2 7727   1.093   3.228   2.477 -0.0917 -0.5123 -0.5662
 2588TIP3    H1 7728   1.100   3.319   2.447  1.6983 -0.9316 -1.5626
 2588TIP3    H2 7729   1.129   3.230   2.566 -0.3003 -0.2022 -0.4872
 2589TIP3   OH2 7730   1.200   2.446   0.427  0.6253 -0.2935 -0.0553
 2589TIP3    H1 7731   1.229   2.368   0.381  0.2100  0.0214 -0.8698
 2589TIP3    H2 7732   1.105   2.445   0.418  0.5987  0.1701  0.1453
 2590TIP3   OH2 7733   1.271   4.786   3.170  0.2888  0.2503 -0.3095
 2590TIP3    H1 7734   1.180   4.757   3.180  0.0184  1.5183  1.3696
 2590TIP3    H2 7735   1.272   4.833   3.086 -0.3513 -0.6195 -0.8164
 2591TIP3   OH2 7736   6.704   2.184   0.899  0.2804 -0.2819 -0.0447
 2591TIP3    H1 7737   6.678   2.150   0.814 -0.3548 -0.4007  0.1929
 2591TIP3    H2 7738   6.736   2.273   0.881  3.0214 -1.3166 -0.8386
 2592TIP3   OH2 7739   6.395   3.644   1.256  0.0789 -0.5625 -0.0154
 2592TIP3    H1 7740   6.364   3.721   1.302 -1.6056 -0.5580 -1.0643
 2592TIP3    H2 7741   6.316   3.606   1.216  1.2257 -1.3835 -1.6428
 2593TIP3   OH2 7742   5.925   3.549   4.771  0.2311 -0.4667  0.1001
 2593TIP3    H1 7743   5.913   3.626   4.827  0.2718 -0.4118  0.0336
 2593TIP3    H2 7744   6.014   3.519   4.791 -0.7748 -2.2638  2.3287
 2594TIP3   OH2 7745   1.747   0.891   1.092  0.0889 -0.3335  0.5800
 2594TIP3    H1 7746   1.690   0.940   1.033  2.2557 -0.1835 -1.4935
 2594TIP3    H2 7747   1.705   0.805   1.098 -1.0366  0.1659  0.1704
 2595TIP3   OH2 7748   6.121   4.142   0.320 -0.2246 -0.4481 -0.3912
 2595TIP3    H1 7749   6.119   4.109   0.410  0.9124 -0.6686 -0.4281
 2595TIP3    H2 7750   6.141   4.235   0.330  0.4806 -0.5909 -0.4297
 2596TIP3   OH2 7751   1.995   5.371   2.911  0.7445 -0.5383 -0.1573
 2596TIP3    H1 7752   1.958   5.457   2.887 -3.1252 -1.3262  2.0701
 2596TIP3    H2 7753   1.977   5.316   2.834 -0.6410 -0.2895 -0.0396
 2597TIP3   OH2 7754   0.827   0.627   0.525  0.1360  0.6977 -0.0774
 2597TIP3    H1 7755   0.751   0.664   0.571  0.4993  1.0930  0.2076
 2597TIP3    H2 7756   0.791   0.596   0.441 -0.7282 -0.9345  0.8411
 2598TIP3   OH2 7757   5.539   5.316   4.814  0.0559 -0.0494 -0.3843
 2598TIP3    H1 7758   5.631   5.305   4.790  0.5066  0.1189  1.1506
 2598TIP3    H2 7759   5.541   5.350   4.904 -1.4805  1.6531 -0.9310
 2599TIP3   OH2 7760   6.265   6.468   4.574  0.0767  0.0183  0.5172
 2599TIP3    H1 7761   6.291   6.425   4.493  1.4365  1.5557  0.0869
 2599TIP3    H2 7762   6.169   6.463   4.574  0.1352 -1.8741 -0.0872
 2600TIP3   OH2 7763   6.421   2.302   1.859  0.2423  0.1572 -0.5495
 2600TIP3    H1 7764   6.417   2.237   1.930 -0.2522 -0.5636 -1.2151
 2600TIP3    H2 7765   6.341   2.286   1.808  0.1919  1.2009 -0.8086
 2601TIP3   OH2 7766   1.259   5.125   1.655 -0.0737 -0.1124  0.1421
 2601TIP3    H1 7767   1.165   5.139   1.642  0.2660  2.8898  0.1147
 2601TIP3    H2 7768   1.268   5.113   1.750 -0.5530 -1.3759  0.0417
 2602TIP3   OH2 7769   5.127   6.754   4.815  0.5006  0.3253 -0.0847
 2602TIP3    H1 7770   5.157   6.674   4.858  0.2353  0.3761  0.1987
 2602TIP3    H2 7771   5.048   6.729   4.768  1.4653 -0.0331 -1.6122
 2603TIP3   OH2 7772   4.571   0.939   1.414  0.1044 -0.4149 -0.2281
 2603TIP3    H1 7773   4.516   0.999   1.464  1.0883  0.4663 -0.1706
 2603TIP3    H2 7774   4.515   0.909   1.342  0.0684  1.9588 -1.2972
 2604TIP3   OH2 7775   0.178   6.168   4.655  0.1035  0.0020  0.2308
 2604TIP3    H1 7776   0.186   6.262   4.640 -0.4662 -0.1572 -1.1680
 2604TIP3    H2 7777   0.202   6.128   4.572 -1.2758 -1.0027  0.2825
 2605TIP3   OH2 7778   4.653   1.764   5.328  0.4798 -0.3894 -0.6186
 2605TIP3    H1 7779   4.668   1.807   5.244 -0.8605  1.8993  0.2160
 2605TIP3    H2 7780   4.619   1.677   5.305 -1.2961  0.7087 -2.4928
 2606TIP3   OH2 7781   0.328   6.617   1.171  0.6339 -0.6300 -0.3572
 2606TIP3    H1 7782   0.387   6.598   1.098  0.7434 -0.7927 -0.2261
 2606TIP3    H2 7783   0.252   6.657   1.130  1.1920  0.3717 -0.4463
 2607TIP3   OH2 7784   3.291   0.268   4.810  0.4289 -0.5341 -0.1784
 2607TIP3    H1 7785   3.374   0.221   4.809  1.4513  1.1534  1.0399
 2607TIP3    H2 7786   3.315   0.360   4.816 -1.5386  0.0394 -0.2765
 2608TIP3   OH2 7787   6.861   3.049   0.094 -0.0626  0.1404  0.2384
 2608TIP3    H1 7788   6.825   3.105   0.025  1.0786  0.3557 -0.1938
 2608TIP3    H2 7789   6.921   2.989   0.049  1.8434  1.2404  1.1827
 2609TIP3   OH2 7790   2.540   2.049   4.459  0.0589 -0.1915  0.4692
 2609TIP3    H1 7791   2.501   2.103   4.528  1.4963 -0.3534  1.4452
 2609TIP3    H2 7792   2.511   1.960   4.479 -0.9072 -0.0366 -0.1507
 2610TIP3   OH2 7793   2.728   1.464   3.020  0.3035 -0.3911 -0.9982
 2610TIP3    H1 7794   2.713   1.486   2.928 -0.6515  1.6096 -0.4137
 2610TIP3    H2 7795   2.654   1.503   3.067 -0.0673 -2.6711  0.4981
 2611TIP3   OH2 7796   1.933   6.396   4.736  0.2562 -0.1663  0.1837
 2611TIP3    H1 7797   2.008   6.430   4.688  0.2906  0.4498  0.6548
 2611TIP3    H2 7798   1.857   6.433   4.691  0.2991  0.7456  0.8247
 2612TIP3   OH2 7799   0.866   0.260   2.500  0.2535 -0.3239 -0.0257
 2612TIP3    H1 7800   0.794   0.321   2.481  0.9923 -0.1534 -2.5843
 2612TIP3    H2 7801   0.942   0.317   2.513  0.5093 -0.6094 -0.2580
 2613TIP3   OH2 7802   3.703   4.731   1.763 -0.0499  0.1952 -0.0132
 2613TIP3    H1 7803   3.728   4.666   1.829 -3.0516 -2.3189 -1.0762
 2613TIP3    H2 7804   3.700   4.681   1.681 -2.0239  1.7946 -0.9902
 2614TIP3   OH2 7805   3.627   5.193   5.237  0.3494  0.1345 -0.4218
 2614TIP3    H1 7806   3.662   5.110   5.205  0.4683  0.6902 -1.8207
 2614TIP3    H2 7807   3.607   5.243   5.158  0.4814  1.5313  0.3794
 2615TIP3   OH2 7808   5.634   2.976   0.381  0.1293  0.2601  0.3277
 2615TIP3    H1 7809   5.551   3.000   0.339 -0.7708 -0.9672  1.3324
 2615TIP3    H2 7810   5.637   2.881   0.374  1.1090  0.2425  0.9404
 2616TIP3   OH2 7811   1.144   0.686   1.345  0.1145 -0.0703  0.0110
 2616TIP3    H1 7812   1.104   0.686   1.432 -0.2856 -0.8769 -0.1569
 2616TIP3    H2 7813   1.192   0.603   1.340  0.7967  0.3308 -0.2477
 2617TIP3   OH2 7814   0.968   3.388   1.657  0.2756  0.5771 -0.0278
 2617TIP3    H1 7815   0.903   3.329   1.620 -0.0399  0.8736  0.0477
 2617TIP3    H2 7816   0.986   3.353   1.744 -0.5588  1.0788  0.3597
 2618TIP3   OH2 7817   1.911   2.860   2.343 -0.1640  0.1283 -0.0999
 2618TIP3    H1 7818   1.844   2.856   2.275 -2.2078  2.2059  1.6494
 2618TIP3    H2 7819   1.973   2.926   2.312 -0.9361  0.8634 -0.1132
 2619TIP3   OH2 7820   4.773   3.714   3.495 -0.2743  0.0465  0.2679
 2619TIP3    H1 7821   4.817   3.655   3.557 -2.3504 -2.4237 -0.4407
 2619TIP3    H2 7822   4.814   3.694   3.410 -0.2813  0.4006  0.1811
 2620TIP3   OH2 7823   4.192   6.030   2.187  0.5889 -0.4652 -0.1914
 2620TIP3    H1 7824   4.146   6.046   2.269 -0.9719  1.1530 -1.3273
 2620TIP3    H2 7825   4.272   5.983   2.213 -0.2402 -0.6835  2.1383
 2621TIP3   OH2 7826   0.796   5.761   0.867 -0.0628 -0.1672 -0.3903
 2621TIP3    H1 7827   0.704   5.738   0.879  0.2745 -0.5918  1.8525
 2621TIP3    H2 7828   0.840   5.679   0.846  0.0929 -0.3376  0.5744
 2622TIP3   OH2 7829   4.288   0.785   3.563  0.4111  0.4176  0.4937
 2622TIP3    H1 7830   4.201   0.797   3.525  0.3875  0.7568  0.6521
 2622TIP3    H2 7831   4.341   0.752   3.491 -0.2473 -1.4372  0.8036
 2623TIP3   OH2 7832   3.679   4.842   0.529  0.1565 -0.1868 -0.1415
 2623TIP3    H1 7833   3.660   4.891   0.609  1.4086 -1.1368  0.7627
 2623TIP3    H2 7834   3.711   4.908   0.467  1.7682  0.1898  1.0346
 2624TIP3   OH2 7835   6.560   0.845   4.526  0.3419 -0.3674 -0.1771
 2624TIP3    H1 7836   6.494   0.914   4.524  0.9210  0.2010 -1.7774
 2624TIP3    H2 7837   6.529   0.784   4.592 -1.5494  0.1165 -0.5488
 2625TIP3   OH2 7838   1.946   0.326   0.337 -0.0055 -0.2569  0.1502
 2625TIP3    H1 7839   1.955   0.235   0.310  0.1407  0.0254 -0.7775
 2625TIP3    H2 7840   2.036   0.360   0.337 -0.0063 -0.2337  0.9524
 2626TIP3   OH2 7841   4.768   1.763   5.584  0.1490 -0.1812 -0.1475
 2626TIP3    H1 7842   4.725   1.752   5.499 -1.0910  1.7688  0.1474
 2626TIP3    H2 7843   4.859   1.785   5.562 -0.4060  1.4231 -1.0909
 2627TIP3   OH2 7844   6.828   3.254   3.669  0.0278 -0.0829 -0.1696
 2627TIP3    H1 7845   6.754   3.264   3.609  0.8242 -0.6752 -1.2709
 2627TIP3    H2 7846   6.841   3.159   3.676  1.4237  0.0344 -0.9250
 2628TIP3   OH2 7847   3.724   1.631   3.559  0.0272 -0.1155  0.3209
 2628TIP3    H1 7848   3.685   1.635   3.646 -0.2209  1.2440  0.1734
 2628TIP3    H2 7849   3.763   1.718   3.547  0.8092 -0.5735 -0.5825
 2629TIP3   OH2 7850   4.370   2.670   0.994  1.1653  0.7223  0.0230
 2629TIP3    H1 7851   4.444   2.629   1.038  1.5962  0.0310 -1.2868
 2629TIP3    H2 7852   4.404   2.694   0.908  0.2544  1.6977 -0.0804
 2630TIP3   OH2 7853   2.761   5.536   2.653 -0.4150 -0.3926  0.0462
 2630TIP3    H1 7854   2.840   5.572   2.611 -0.2535  0.6574  1.1982
 2630TIP3    H2 7855   2.746   5.592   2.728 -1.4952 -1.4102  0.6253
 2631TIP3   OH2 7856   5.600   6.809   1.812 -0.0494  0.0059  0.6161
 2631TIP3    H1 7857   5.570   6.718   1.808 -4.0375  0.9749  2.7512
 2631TIP3    H2 7858   5.573   6.846   1.728  0.1866 -0.4018  0.3547
 2632TIP3   OH2 7859   6.766   6.051   3.563 -0.2701  0.5229 -0.6098
 2632TIP3    H1 7860   6.678   6.087   3.550 -0.3305  2.1322  2.9961
 2632TIP3    H2 7861   6.750   5.964   3.599 -0.4600  1.0020  0.5120
 2633TIP3   OH2 7862   5.024   1.058   0.950 -0.0182  0.0816  0.7576
 2633TIP3    H1 7863   4.958   1.110   0.904  0.3457 -0.0908  0.0290
 2633TIP3    H2 7864   5.090   1.038   0.883  1.2453  1.0328  1.6810
 2634TIP3   OH2 7865   2.638   0.416   0.779 -0.4796 -0.5533 -0.1095
 2634TIP3    H1 7866   2.684   0.388   0.858  0.2568  0.9048  0.0101
 2634TIP3    H2 7867   2.703   0.408   0.709 -0.3863  0.3996 -0.1435
 2635TIP3   OH2 7868   4.861   5.617   1.062 -0.3330  0.8574  0.5431
 2635TIP3    H1 7869   4.880   5.570   0.981 -3.0081  0.7873 -0.1224
 2635TIP3    H2 7870   4.798   5.684   1.037  0.1021  2.0014  2.2871
 2636TIP3   OH2 7871   5.196   0.819   4.240 -0.1927 -0.0627  0.0496
 2636TIP3    H1 7872   5.266   0.840   4.302 -0.3451  0.4191  0.0591
 2636TIP3    H2 7873   5.242   0.802   4.158 -0.1689  2.0283 -0.4119
 2637TIP3   OH2 7874   4.164   6.016   0.300  0.2166  0.0080 -0.5247
 2637TIP3    H1 7875   4.259   6.017   0.288  0.4634  2.1740  1.0091
 2637TIP3    H2 7876   4.150   5.981   0.388 -0.5820 -2.1380 -1.4474
 2638TIP3   OH2 7877   3.503   4.305   2.886 -0.4394  0.6253 -0.3758
 2638TIP3    H1 7878   3.561   4.263   2.823 -1.2595  0.0250 -0.7520
 2638TIP3    H2 7879   3.538   4.394   2.896  1.6154 -0.2651  0.8223
 2639TIP3   OH2 7880   3.671   4.054   1.273 -0.3732  0.1201 -0.0038
 2639TIP3    H1 7881   3.648   4.027   1.184 -1.0045 -0.9411  0.4614
 2639TIP3    H2 7882   3.756   4.013   1.290 -1.3019 -1.6076  0.6788
 2640TIP3   OH2 7883   1.941   0.892   4.161  0.6027  0.0193 -0.2985
 2640TIP3    H1 7884   1.882   0.897   4.237  0.8237 -0.2103 -0.1082
 2640TIP3    H2 7885   1.978   0.803   4.166 -0.9258 -0.7683 -1.8227
 2641TIP3   OH2 7886   1.636   6.123   5.446  0.1774 -0.1505  0.0694
 2641TIP3    H1 7887   1.564   6.175   5.482 -0.4084 -0.0677 -1.1621
 2641TIP3    H2 7888   1.605   6.033   5.450  0.5589 -0.2569  0.7634
 2642TIP3   OH2 7889   6.929   3.464   3.817 -0.1239 -0.4287  0.2185
 2642TIP3    H1 7890   6.928   3.408   3.894  2.4431  0.1605  0.7850
 2642TIP3    H2 7891   6.889   3.411   3.748  0.3145 -2.1333  1.2213
 2643TIP3   OH2 7892   5.892   4.219   1.300 -0.0044 -0.2814  0.1360
 2643TIP3    H1 7893   5.983   4.234   1.324 -0.1514  1.3759 -0.2178
 2643TIP3    H2 7894   5.871   4.291   1.240 -0.9131 -1.8237 -1.5165
 2644TIP3   OH2 7895   5.888   2.250   5.632  0.6967  0.0721 -0.1875
 2644TIP3    H1 7896   5.972   2.249   5.679 -0.1291  0.9471  1.3754
 2644TIP3    H2 7897   5.890   2.331   5.582  0.6148  0.2900  0.1629
 2645TIP3   OH2 7898   4.132   5.690   4.345  0.0982 -0.1285  0.1983
 2645TIP3    H1 7899   4.190   5.616   4.363 -0.2939 -0.3184  0.7083
 2645TIP3    H2 7900   4.187   5.753   4.299  1.0734  0.2163  1.7395
 2646TIP3   OH2 7901   3.398   3.115   3.077  0.3269 -0.6343 -0.3841
 2646TIP3    H1 7902   3.462   3.178   3.110 -1.6685  0.8186  0.9328
 2646TIP3    H2 7903   3.436   3.083   2.995  3.3955 -1.0033  1.0297
 2647TIP3   OH2 7904   6.168   5.221   3.583  0.5961  0.3309 -0.8408
 2647TIP3    H1 7905   6.084   5.237   3.626  1.0617  1.8189 -0.4360
 2647TIP3    H2 7906   6.182   5.126   3.591 -0.2886  0.2917  0.4586
 2648TIP3   OH2 7907   2.152   2.523   5.781  0.0709  0.1844  0.5359
 2648TIP3    H1 7908   2.231   2.473   5.764 -0.9986 -1.2013 -0.6453
 2648TIP3    H2 7909   2.095   2.504   5.706 -1.1954  1.5197  1.1054
 2649TIP3   OH2 7910   6.116   4.711   2.530 -0.0925 -0.0106  0.0667
 2649TIP3    H1 7911   6.082   4.778   2.470  0.7026  0.0793 -0.2921
 2649TIP3    H2 7912   6.166   4.760   2.595  2.0061 -0.3548 -1.2083
 2650TIP3   OH2 7913   4.196   5.484   5.098  0.4449 -0.6339 -0.8865
 2650TIP3    H1 7914   4.228   5.532   5.175 -1.2180  0.9867 -1.1576
 2650TIP3    H2 7915   4.101   5.483   5.108  0.2426 -0.9150 -2.6344
 2651TIP3   OH2 7916   4.628   3.291   1.633 -0.0756  0.2218 -0.1033
 2651TIP3    H1 7917   4.669   3.347   1.700 -0.1302  0.2782 -0.1164
 2651TIP3    H2 7918   4.650   3.333   1.550 -1.7820  1.3613 -0.0255
 2652TIP3   OH2 7919   3.817   6.471   2.150 -0.1316 -0.0342  0.0393
 2652TIP3    H1 7920   3.856   6.385   2.144  0.9773  0.4925 -0.5671
 2652TIP3    H2 7921   3.890   6.532   2.136 -1.3291  0.9787 -2.5433
 2653TIP3   OH2 7922   6.371   1.436   0.531  0.5426 -0.0744 -0.0749
 2653TIP3    H1 7923   6.434   1.484   0.478  0.1332  1.4901  0.8019
 2653TIP3    H2 7924   6.350   1.359   0.479  2.3318 -0.0750 -0.8798
 2654TIP3   OH2 7925   7.093   1.117   5.268 -0.5086 -0.1279  0.3298
 2654TIP3    H1 7926   7.013   1.078   5.303  0.2360 -1.5257  0.5882
 2654TIP3    H2 7927   7.097   1.086   5.177 -0.6356  0.5545  0.0879
 2655TIP3   OH2 7928   4.940   6.269   4.335  0.3380  0.7114  0.0934
 2655TIP3    H1 7929   5.024   6.252   4.379 -0.2342  0.3077  1.0697
 2655TIP3    H2 7930   4.965   6.308   4.251  1.5033  0.5931  0.3559
 2656TIP3   OH2 7931   3.735   6.096   3.372  0.7183 -0.2677  0.3107
 2656TIP3    H1 7932   3.675   6.124   3.303 -0.8387 -2.6376  0.5583
 2656TIP3    H2 7933   3.698   6.131   3.453 -1.1778 -2.6924  0.6128
 2657TIP3   OH2 7934   4.692   1.059   2.199  0.4708 -0.5255  0.5328
 2657TIP3    H1 7935   4.641   0.981   2.225 -1.4314  0.4660 -0.0257
 2657TIP3    H2 7936   4.676   1.067   2.105  1.0414  0.2636  0.5012
 2658TIP3   OH2 7937   5.435   2.780   4.575  0.6425 -0.3939 -0.3556
 2658TIP3    H1 7938   5.415   2.738   4.659  1.8665  0.2649  0.2798
 2658TIP3    H2 7939   5.416   2.872   4.589 -0.2927 -0.4428 -1.1929
 2659TIP3   OH2 7940   3.568   3.993   3.024  0.2070 -0.0109  0.2777
 2659TIP3    H1 7941   3.493   4.050   3.041 -0.3631 -1.0800  1.5144
 2659TIP3    H2 7942   3.644   4.044   3.051 -0.3517 -0.0588  2.0628
 2660TIP3   OH2 7943   6.679   2.377   0.103 -0.0199 -0.1249 -0.5071
 2660TIP3    H1 7944   6.689   2.450   0.041  0.1094  1.9025  1.7556
 2660TIP3    H2 7945   6.768   2.356   0.131 -0.0059 -1.5925 -1.5473
 2661TIP3   OH2 7946   4.632   5.911   1.559  0.1298  0.2289  0.3818
 2661TIP3    H1 7947   4.653   5.844   1.494  0.2723 -0.4107  1.0624
 2661TIP3    H2 7948   4.702   5.903   1.624  0.7251  1.7409 -0.0298
 2662TIP3   OH2 7949   0.382   1.974   1.880  0.4847  0.0673  0.3065
 2662TIP3    H1 7950   0.328   1.985   1.958 -0.9271  1.2954 -0.7932
 2662TIP3    H2 7951   0.432   2.055   1.873 -1.1400  0.9998 -1.3077
 2663TIP3   OH2 7952   2.695   5.366   4.249 -0.6362  0.1016 -0.4690
 2663TIP3    H1 7953   2.611   5.380   4.204 -0.7834  1.2347  0.1472
 2663TIP3    H2 7954   2.679   5.390   4.340  0.9397  2.6353 -0.7753
 2664TIP3   OH2 7955   7.049   1.698   3.771 -0.0240  0.0948  0.3613
 2664TIP3    H1 7956   6.972   1.657   3.810  0.6689 -3.1705 -1.3489
 2664TIP3    H2 7957   7.022   1.720   3.682  1.0907 -1.6096 -0.4414
 2665TIP3   OH2 7958   1.815   4.174   0.285  0.3077  0.5014  0.0598
 2665TIP3    H1 7959   1.823   4.169   0.189  0.2159  0.7807  0.0355
 2665TIP3    H2 7960   1.741   4.233   0.299  0.3870  0.5416  0.3031
 2666TIP3   OH2 7961   4.177   1.303   3.842 -0.9168  0.0272  0.1156
 2666TIP3    H1 7962   4.161   1.217   3.880 -0.9988  0.0794  0.2018
 2666TIP3    H2 7963   4.257   1.293   3.790 -0.6557  0.0205  0.5160
 2667TIP3   OH2 7964   6.985   0.356   2.512  0.9039  0.1342  0.2804
 2667TIP3    H1 7965   7.026   0.270   2.508  0.3247 -0.1046 -2.8048
 2667TIP3    H2 7966   7.046   0.414   2.466 -0.3694  0.5775 -0.9145
 2668TIP3   OH2 7967   6.163   4.723   1.503 -0.9326  0.1450  0.3006
 2668TIP3    H1 7968   6.247   4.768   1.492  0.5001 -1.9098  1.9976
 2668TIP3    H2 7969   6.116   4.774   1.568 -0.5404  0.7070  0.1499
 2669TIP3   OH2 7970   5.804   5.848   2.143  0.4392  0.7578 -0.1837
 2669TIP3    H1 7971   5.710   5.831   2.138  0.7050 -0.5103 -2.9623
 2669TIP3    H2 7972   5.841   5.767   2.178  0.5512  1.1891  0.7326
 2670TIP3   OH2 7973   1.729   6.250   1.926  0.0038 -0.0489  0.7937
 2670TIP3    H1 7974   1.694   6.219   1.842  1.9850  1.3637 -0.6376
 2670TIP3    H2 7975   1.655   6.242   1.987 -1.9859  0.3593 -1.4280
 2671TIP3   OH2 7976   5.661   0.039   0.268 -0.2592 -0.5134 -0.0412
 2671TIP3    H1 7977   5.734   0.100   0.256 -0.1268 -0.5363  0.6424
 2671TIP3    H2 7978   5.676  -0.029   0.202  1.1170 -1.2549  0.9814
 2672TIP3   OH2 7979   4.370   2.084   3.668  0.4453 -0.4573 -0.4181
 2672TIP3    H1 7980   4.374   2.177   3.646  0.4804 -0.4116 -0.2216
 2672TIP3    H2 7981   4.406   2.040   3.591  0.0735 -0.3313 -0.6672
 2673TIP3   OH2 7982   4.731   0.348   1.463 -0.5595 -1.1133  0.1999
 2673TIP3    H1 7983   4.713   0.441   1.479  3.8236 -0.0443  0.3479
 2673TIP3    H2 7984   4.678   0.325   1.388 -3.0460  0.9686  1.1758
 2674TIP3   OH2 7985   1.613   2.618   5.237 -0.7740 -0.1136 -0.1836
 2674TIP3    H1 7986   1.613   2.712   5.258 -0.3256 -0.2331  0.3455
 2674TIP3    H2 7987   1.695   2.604   5.191 -1.6358  0.1008 -1.8702
 2675TIP3   OH2 7988   5.121   5.246   5.193 -0.1002 -0.0631  0.1519
 2675TIP3    H1 7989   5.211   5.234   5.161  0.0457  1.1792  0.0242
 2675TIP3    H2 7990   5.089   5.322   5.144 -1.3733 -0.7480 -0.0968
 2676TIP3   OH2 7991   2.273   3.147   3.022 -0.0156  0.5830 -0.2713
 2676TIP3    H1 7992   2.236   3.205   2.955 -0.2628  0.5954 -0.1274
 2676TIP3    H2 7993   2.196   3.113   3.068 -0.0024 -1.2933 -1.5170
 2677TIP3   OH2 7994   5.422   0.695   3.058  0.3122  0.2423 -0.0776
 2677TIP3    H1 7995   5.401   0.787   3.042 -1.1522 -0.0499  0.0238
 2677TIP3    H2 7996   5.447   0.661   2.972  1.3475  0.8278 -0.0314
 2678TIP3   OH2 7997   6.183   0.853   1.329 -0.3482  0.1292 -0.0690
 2678TIP3    H1 7998   6.093   0.863   1.360 -0.3567 -0.9393  0.3070
 2678TIP3    H2 7999   6.200   0.759   1.337  0.5160  0.2010 -0.9374
 2679TIP3   OH2 8000   0.751   5.879   3.010 -0.7619 -0.2051 -0.0636
 2679TIP3    H1 8001   0.844   5.876   2.987 -0.4150 -0.6484  1.2963
 2679TIP3    H2 8002   0.719   5.959   2.968  0.3822  0.2768 -0.0646
 2680TIP3   OH2 8003   6.957   0.639   3.845  0.3179 -0.2201  0.0910
 2680TIP3    H1 8004   6.896   0.655   3.918 -1.4962  1.6773 -1.6759
 2680TIP3    H2 8005   6.991   0.726   3.824  0.6735 -0.6997 -1.4177
 2681TIP3   OH2 8006   1.147   5.088   0.450 -0.0238 -0.0826  0.2753
 2681TIP3    H1 8007   1.164   5.018   0.513  2.6388 -0.0979 -0.3553
 2681TIP3    H2 8008   1.199   5.065   0.373 -0.3658  1.7613 -0.5684
 2682TIP3   OH2 8009   2.584   4.820   1.623 -0.5383 -0.1994 -0.3264
 2682TIP3    H1 8010   2.601   4.776   1.540 -2.3920 -2.2356  0.2682
 2682TIP3    H2 8011   2.489   4.819   1.632 -0.3887 -0.3027  1.9255
 2683TIP3   OH2 8012   3.805   3.097   1.298  0.1217  0.2937 -0.0153
 2683TIP3    H1 8013   3.895   3.069   1.281 -0.2264 -0.7232 -0.2566
 2683TIP3    H2 8014   3.763   3.095   1.212 -0.8011 -1.7646  0.4108
 2684TIP3   OH2 8015   4.437   1.213   0.873 -0.0132 -0.2134  0.3505
 2684TIP3    H1 8016   4.342   1.213   0.877 -0.2011  2.6212 -0.9597
 2684TIP3    H2 8017   4.458   1.167   0.792 -0.5928  1.9180 -1.1251
 2685TIP3   OH2 8018   1.096   3.269   5.460 -0.0556  0.5933  0.2303
 2685TIP3    H1 8019   1.122   3.238   5.547 -1.1299  1.7277  0.9862
 2685TIP3    H2 8020   1.001   3.259   5.458  0.1600 -2.1761 -1.9597
 2686TIP3   OH2 8021   3.005   3.253   3.508  0.6187  0.1106 -0.0045
 2686TIP3    H1 8022   2.984   3.240   3.601 -0.9777 -0.2779 -0.3899
 2686TIP3    H2 8023   3.079   3.194   3.492  1.7943  1.1556  1.3070
 2687TIP3   OH2 8024   2.317   1.628   1.294  0.1111  0.0282  0.3671
 2687TIP3    H1 8025   2.263   1.550   1.287 -1.0783  0.8950 -0.3791
 2687TIP3    H2 8026   2.318   1.666   1.206  1.0871  0.6004  0.5959
 2688TIP3   OH2 8027   3.568   0.365   0.365 -0.3525 -0.1186 -0.1326
 2688TIP3    H1 8028   3.590   0.297   0.428 -1.9656 -0.5531  0.0064
 2688TIP3    H2 8029   3.642   0.426   0.369  0.6925 -1.3630  0.4118
 2689TIP3   OH2 8030   0.782   0.954   3.806  0.4298  0.7920  0.7315
 2689TIP3    H1 8031   0.795   0.963   3.711  1.2735  0.7515  0.8353
 2689TIP3    H2 8032   0.729   0.875   3.815  1.7873 -0.1982  0.3609
 2690TIP3   OH2 8033   5.596   3.449   4.105  0.2708 -0.0253  0.0039
 2690TIP3    H1 8034   5.605   3.541   4.078 -1.0742  0.3364  0.6533
 2690TIP3    H2 8035   5.580   3.402   4.024  0.7151  0.3519 -0.3098
 2691TIP3   OH2 8036   2.110   0.996   3.012  0.0208 -0.6607  0.0301
 2691TIP3    H1 8037   2.079   1.085   2.999 -0.2348 -0.0932  3.6142
 2691TIP3    H2 8038   2.030   0.942   3.009 -0.0081 -0.5929 -0.5991
 2692TIP3   OH2 8039   1.727   3.891   0.097 -0.1852  0.3139 -0.1928
 2692TIP3    H1 8040   1.753   3.969   0.048  0.6618 -0.3300 -0.7899
 2692TIP3    H2 8041   1.806   3.839   0.104 -0.5446 -0.1028  0.9635
 2693TIP3   OH2 8042   0.918   1.253   4.797  0.1206 -0.0862  0.1870
 2693TIP3    H1 8043   0.943   1.271   4.887  1.0878 -0.4107 -0.0044
 2693TIP3    H2 8044   1.002   1.247   4.750 -0.3137 -1.2609 -0.4686
 2694TIP3   OH2 8045   1.406   0.947   5.600 -0.2322  0.0763 -0.1818
 2694TIP3    H1 8046   1.352   0.976   5.673  1.0744  0.0975  0.8179
 2694TIP3    H2 8047   1.429   1.027   5.554  0.7318  0.3291  0.6938
 2695TIP3   OH2 8048   3.837   1.488   1.977  0.1035 -0.7724  0.0184
 2695TIP3    H1 8049   3.763   1.434   1.949 -0.0388 -0.5530 -0.0289
 2695TIP3    H2 8050   3.800   1.576   1.987  0.0706 -0.8930  1.1896
 2696TIP3   OH2 8051   2.160   3.104   4.048 -0.1005  0.1109  0.6357
 2696TIP3    H1 8052   2.104   3.141   3.980  1.3539  0.8354 -0.2201
 2696TIP3    H2 8053   2.178   3.015   4.019  0.0101  0.2129  0.3917
 2697TIP3   OH2 8054   6.898   3.883   3.065 -0.3232 -0.3267  0.3399
 2697TIP3    H1 8055   6.905   3.953   3.000 -0.0973  3.0098  3.6809
 2697TIP3    H2 8056   6.810   3.893   3.102  0.3758 -0.5421  2.1466
 2698TIP3   OH2 8057   5.215   5.063   1.775 -0.1506 -0.0130  0.2867
 2698TIP3    H1 8058   5.132   5.096   1.738 -0.5337 -1.4580 -0.2302
 2698TIP3    H2 8059   5.244   5.132   1.835 -1.1550  1.0121 -0.3567
 2699TIP3   OH2 8060   6.118   0.348   0.923  0.3663 -0.3319 -0.1062
 2699TIP3    H1 8061   6.029   0.361   0.891  1.0014  3.7672 -0.8226
 2699TIP3    H2 8062   6.108   0.315   1.013 -1.6932 -2.3810 -1.0019
 2700TIP3   OH2 8063   5.696   1.689   3.020  0.0022 -0.9623  0.3656
 2700TIP3    H1 8064   5.616   1.739   3.002 -0.0687 -1.2576 -0.1534
 2700TIP3    H2 8065   5.710   1.700   3.114  0.1197  0.2322  0.2235
 2701TIP3   OH2 8066   1.088   1.117   3.187  0.3818 -0.4963  0.3206
 2701TIP3    H1 8067   1.002   1.073   3.182  0.1791 -0.2708  1.5561
 2701TIP3    H2 8068   1.067   1.210   3.194  0.7648 -0.3556 -0.3103
 2702TIP3   OH2 8069   3.675   3.626   3.997  0.2603 -0.0182 -0.2414
 2702TIP3    H1 8070   3.679   3.694   3.930  0.3160 -0.2113 -0.4354
 2702TIP3    H2 8071   3.590   3.584   3.983  0.5510 -0.4982 -0.6282
 2703TIP3   OH2 8072   2.667   0.670   5.431  0.1952 -0.0785 -0.1543
 2703TIP3    H1 8073   2.627   0.621   5.359 -0.2425 -0.5387  0.3907
 2703TIP3    H2 8074   2.610   0.746   5.443  1.2382  0.9704 -1.4407
 2704TIP3   OH2 8075   2.981   0.168   1.958  0.0339  0.4808  0.1655
 2704TIP3    H1 8076   3.039   0.154   1.883 -1.5632  0.2555 -1.0722
 2704TIP3    H2 8077   3.002   0.097   2.018  0.5156 -0.0343 -0.5934
 2705TIP3   OH2 8078   3.087   6.717   5.419 -0.5721 -0.4365  0.0922
 2705TIP3    H1 8079   3.017   6.667   5.463 -0.8831 -1.3755 -1.4252
 2705TIP3    H2 8080   3.058   6.724   5.328 -0.0043  1.5942  0.0214
 2706TIP3   OH2 8081   3.320   0.156   3.589 -0.3376 -0.0189  0.3894
 2706TIP3    H1 8082   3.408   0.163   3.628 -0.2924 -2.3638  0.8613
 2706TIP3    H2 8083   3.262   0.191   3.657 -0.1415 -2.8988  2.2131
 2707TIP3   OH2 8084   0.800   5.510   4.137  0.2193 -0.1448 -0.5105
 2707TIP3    H1 8085   0.787   5.568   4.212 -0.1794 -2.1797  1.0638
 2707TIP3    H2 8086   0.885   5.469   4.152 -0.1298 -1.0202 -0.8703
 2708TIP3   OH2 8087   6.565   3.021   3.190  0.2566  0.2376  0.7735
 2708TIP3    H1 8088   6.630   3.078   3.148  0.0615 -0.7620 -0.9769
 2708TIP3    H2 8089   6.587   3.025   3.283  0.7724  2.4746  0.6225
 2709TIP3   OH2 8090   5.636   3.800   4.622  0.3277 -0.4464  0.2708
 2709TIP3    H1 8091   5.699   3.863   4.656  0.3009  0.2661 -0.9648
 2709TIP3    H2 8092   5.689   3.728   4.587  0.4411 -0.0525 -0.3703
 2710TIP3   OH2 8093   7.022   6.072   4.518  0.2982  0.3512 -0.3421
 2710TIP3    H1 8094   7.081   6.001   4.496  0.5506  0.9012 -1.4937
 2710TIP3    H2 8095   6.972   6.088   4.438 -0.4464  0.8204  0.1963
 2711TIP3   OH2 8096   4.635   4.339   3.298 -0.4085 -0.3217  0.2244
 2711TIP3    H1 8097   4.613   4.393   3.223 -0.3872  1.4806  1.4575
 2711TIP3    H2 8098   4.585   4.258   3.285 -0.7910  0.1510 -1.4532
 2712TIP3   OH2 8099   6.926   2.306   2.941  0.0133  0.3396 -0.3401
 2712TIP3    H1 8100   6.878   2.354   2.874 -1.5263 -1.5686 -0.6887
 2712TIP3    H2 8101   6.890   2.217   2.938  4.0392 -1.4989 -1.0954
 2713TIP3   OH2 8102   4.877   2.280   5.226 -0.0161 -0.3202  0.4690
 2713TIP3    H1 8103   4.821   2.305   5.152  1.5943 -0.1450 -0.7636
 2713TIP3    H2 8104   4.883   2.358   5.280 -1.4198 -0.5248  0.9560
 2714TIP3   OH2 8105   1.793   4.039   0.710  0.4038 -0.4979  0.2907
 2714TIP3    H1 8106   1.821   3.953   0.680 -1.6258 -1.5118  1.0859
 2714TIP3    H2 8107   1.775   4.027   0.804  2.2037  1.4034  0.9522
 2715TIP3   OH2 8108   4.202   3.910   0.222  0.1012  0.4335  0.1414
 2715TIP3    H1 8109   4.110   3.905   0.248 -0.1400 -0.3210 -0.8114
 2715TIP3    H2 8110   4.230   3.819   0.214  0.4166  0.6396 -1.3167
 2716TIP3   OH2 8111   5.225   3.212   5.172  0.0259  0.2258 -0.4987
 2716TIP3    H1 8112   5.249   3.291   5.123  0.1184  0.3543 -0.2471
 2716TIP3    H2 8113   5.134   3.228   5.199 -0.8334 -0.8039 -2.5469
 2717TIP3   OH2 8114   3.156   1.589   2.617 -0.2131  0.1855  0.4112
 2717TIP3    H1 8115   3.092   1.561   2.552  0.5035  0.9057 -0.6369
 2717TIP3    H2 8116   3.129   1.678   2.641  0.4283  0.5414 -0.1284
 2718TIP3   OH2 8117   4.619   3.088   4.497 -0.1967  0.3480 -0.3258
 2718TIP3    H1 8118   4.714   3.098   4.495  0.1394 -2.0642 -0.2788
 2718TIP3    H2 8119   4.589   3.110   4.409  0.5228  0.3366 -0.5747
 2719TIP3   OH2 8120   1.455   0.135   2.450  0.0004  0.1766  0.2706
 2719TIP3    H1 8121   1.456   0.041   2.433 -0.1596 -0.1296  1.8609
 2719TIP3    H2 8122   1.473   0.144   2.543 -0.9501  1.6764  0.3539
 2720TIP3   OH2 8123   1.338   6.556   1.369  0.4652 -0.0146 -0.5272
 2720TIP3    H1 8124   1.350   6.480   1.312  0.8390 -1.0513  0.8776
 2720TIP3    H2 8125   1.252   6.590   1.346  0.5496 -0.4816 -1.6031
 2721TIP3   OH2 8126   1.390   0.660   4.285  0.0822 -0.4569 -0.8214
 2721TIP3    H1 8127   1.315   0.640   4.343 -0.6763  1.2017 -1.1574
 2721TIP3    H2 8128   1.427   0.740   4.323  0.3902 -0.1015 -1.8610
 2722TIP3   OH2 8129   5.944   1.999   1.500 -0.5569 -0.2202 -0.1563
 2722TIP3    H1 8130   6.019   2.025   1.446 -0.1927  1.7158  1.1852
 2722TIP3    H2 8131   5.871   2.052   1.467 -0.7407 -0.2889  0.1384
 2723TIP3   OH2 8132   2.935   0.228   2.747 -0.6816  0.3794 -0.7333
 2723TIP3    H1 8133   2.951   0.171   2.822  0.8180  2.2219  0.4544
 2723TIP3    H2 8134   2.931   0.170   2.672 -1.5376 -1.4725  0.6735
 2724TIP3   OH2 8135   3.557   6.327   2.328  0.3018 -0.2749  0.3230
 2724TIP3    H1 8136   3.651   6.307   2.329 -0.0265 -2.3555 -1.5361
 2724TIP3    H2 8137   3.521   6.273   2.399  0.3605 -0.4276  0.2378
 2725TIP3   OH2 8138   4.791   1.458   4.812 -0.0921  0.1210  0.2398
 2725TIP3    H1 8139   4.863   1.455   4.874  1.9531 -0.5224 -2.0028
 2725TIP3    H2 8140   4.722   1.506   4.857  1.4706  0.1699  2.7446
 2726TIP3   OH2 8141   3.146   0.324   5.373 -0.8805 -0.3250  0.1058
 2726TIP3    H1 8142   3.082   0.344   5.305  0.1809  0.3385 -0.7296
 2726TIP3    H2 8143   3.126   0.234   5.399 -1.5496 -0.4497 -0.8038
 2727TIP3   OH2 8144   0.708   1.949   2.998 -0.0166 -0.3527  0.4797
 2727TIP3    H1 8145   0.744   1.988   3.077  2.1391  0.1649 -0.6576
 2727TIP3    H2 8146   0.758   1.868   2.987  0.2837 -0.0230 -0.7416
 2728TIP3   OH2 8147   5.246   2.770   0.677  0.0364 -0.1202  1.1083
 2728TIP3    H1 8148   5.340   2.751   0.673 -0.1032 -0.6970  0.5178
 2728TIP3    H2 8149   5.237   2.855   0.633  0.1611 -0.5137  0.3153
 2729TIP3   OH2 8150   2.414   2.111   1.287  0.5502 -0.5853  0.1257
 2729TIP3    H1 8151   2.436   2.203   1.276 -1.0860 -0.1924 -0.1455
 2729TIP3    H2 8152   2.498   2.065   1.280  1.3820  0.8661  0.2150
 2730TIP3   OH2 8153   2.470   5.155   1.189  0.4105 -1.1967 -0.0996
 2730TIP3    H1 8154   2.469   5.060   1.181 -0.7560 -1.5237  2.7822
 2730TIP3    H2 8155   2.514   5.171   1.273 -1.4055  0.6436  0.5751
 2731TIP3   OH2 8156   5.937   3.073   0.824  0.4000 -0.0747  0.4389
 2731TIP3    H1 8157   5.980   3.158   0.811  1.5647 -0.9337 -2.0184
 2731TIP3    H2 8158   5.932   3.036   0.736 -0.0111 -2.6064  1.4610
 2732TIP3   OH2 8159   1.579   1.516   3.556 -0.3170 -0.2925  0.1203
 2732TIP3    H1 8160   1.525   1.438   3.568 -0.5734  0.1705  2.3401
 2732TIP3    H2 8161   1.537   1.583   3.610  1.7049  0.4643  0.8236
 2733TIP3   OH2 8162   6.923   4.656   1.458 -0.1098 -0.8614 -0.0122
 2733TIP3    H1 8163   6.913   4.716   1.384  0.2134 -0.1722  0.4929
 2733TIP3    H2 8164   6.959   4.576   1.419 -2.6897 -1.6388 -1.0827
 2734TIP3   OH2 8165   2.088   5.036   5.601  0.1699 -0.1362 -0.5822
 2734TIP3    H1 8166   2.174   5.059   5.567 -0.2787 -0.1298 -1.7414
 2734TIP3    H2 8167   2.031   5.031   5.524 -1.3047  1.7206  0.2903
 2735TIP3   OH2 8168   3.345   6.416   0.650  0.1685  0.0605  0.0122
 2735TIP3    H1 8169   3.307   6.473   0.583  0.4541  1.3870  0.9174
 2735TIP3    H2 8170   3.328   6.462   0.733 -0.0230 -1.4387  0.8498
 2736TIP3   OH2 8171   4.851   3.647   3.223 -0.0660  0.7539 -0.8026
 2736TIP3    H1 8172   4.940   3.632   3.192 -0.5330  0.3208 -2.0452
 2736TIP3    H2 8173   4.799   3.579   3.178 -1.3367  2.3036 -1.8064
 2737TIP3   OH2 8174   2.932   0.724   2.200 -0.0906 -0.3084  0.4014
 2737TIP3    H1 8175   2.923   0.753   2.109 -0.6659 -0.6735  0.3418
 2737TIP3    H2 8176   2.978   0.641   2.194  1.7470  0.6418  0.5852
 2738TIP3   OH2 8177   2.969   4.144   0.155  0.3066  0.4653 -0.5352
 2738TIP3    H1 8178   2.923   4.085   0.095  0.8966  0.4970 -1.0275
 2738TIP3    H2 8179   3.043   4.093   0.188  0.7627  0.8880 -0.8830
 2739TIP3   OH2 8180   2.388   3.528   2.967  0.3951  0.1501 -0.1907
 2739TIP3    H1 8181   2.464   3.470   2.974 -0.5968 -1.5105 -2.1811
 2739TIP3    H2 8182   2.414   3.594   2.903 -0.5048 -1.7815 -2.7304
 2740TIP3   OH2 8183   5.377   4.520   0.894 -0.0028 -0.3027  0.3559
 2740TIP3    H1 8184   5.384   4.535   0.800  0.0543  3.1938  0.7931
 2740TIP3    H2 8185   5.295   4.472   0.904 -0.0767 -0.6393 -1.4283
 2741TIP3   OH2 8186   3.340   5.449   3.118  0.1681  0.2018 -0.0709
 2741TIP3    H1 8187   3.353   5.381   3.183  0.6789  0.2227 -0.1530
 2741TIP3    H2 8188   3.408   5.435   3.053 -0.3068  0.2142 -0.5788
 2742TIP3   OH2 8189   0.183   5.327   3.977 -0.0189 -0.1905  0.5391
 2742TIP3    H1 8190   0.140   5.244   3.959  1.2510 -1.4672  2.9369
 2742TIP3    H2 8191   0.273   5.315   3.948 -0.5050  1.5831 -2.1021
 2743TIP3   OH2 8192   4.960   0.590   3.867  0.4505  0.1871 -0.1044
 2743TIP3    H1 8193   4.891   0.650   3.838 -0.8028 -2.1883 -2.4120
 2743TIP3    H2 8194   4.915   0.506   3.877  2.1564 -0.5306  2.8886
 2744TIP3   OH2 8195   2.567   6.269   2.247  0.2318 -0.0662 -0.2726
 2744TIP3    H1 8196   2.517   6.321   2.309  1.6597 -0.5659  1.3724
 2744TIP3    H2 8197   2.654   6.309   2.246 -0.2086  1.1807 -3.5451
 2745TIP3   OH2 8198   7.026   2.199   5.146  0.1602 -0.1091  0.2123
 2745TIP3    H1 8199   6.950   2.183   5.203  0.3206 -0.6278  0.2800
 2745TIP3    H2 8200   6.987   2.214   5.060 -0.0624  0.3230  0.3848
 2746TIP3   OH2 8201   3.825   0.365   3.584  0.0314 -0.2507  0.4804
 2746TIP3    H1 8202   3.909   0.328   3.555 -0.4925 -0.4659 -0.8451
 2746TIP3    H2 8203   3.762   0.336   3.518 -0.9255  0.6574  0.9627
 2747TIP3   OH2 8204   6.400   2.884   4.995  0.1806 -0.1907 -0.3520
 2747TIP3    H1 8205   6.383   2.858   4.905 -1.2318 -2.7226  0.5433
 2747TIP3    H2 8206   6.494   2.873   5.006  0.3502  0.0436 -1.4846
 2748TIP3   OH2 8207   5.813   5.743   2.933 -0.1194  0.0739 -0.7052
 2748TIP3    H1 8208   5.833   5.663   2.981  0.8103  0.0761 -1.0777
 2748TIP3    H2 8209   5.877   5.745   2.862 -0.3205  1.0005 -0.8701
 2749TIP3   OH2 8210   6.952   3.576   1.831  0.3375 -0.1614 -0.5449
 2749TIP3    H1 8211   6.990   3.526   1.758 -0.5055 -0.0367 -1.0975
 2749TIP3    H2 8212   7.021   3.580   1.897  0.4446 -2.0661 -0.4760
 2750TIP3   OH2 8213   5.517   5.037   4.768  0.9626  0.0038 -0.0405
 2750TIP3    H1 8214   5.583   4.995   4.823  0.8334 -0.1534 -0.0048
 2750TIP3    H2 8215   5.512   5.126   4.800  0.0497 -0.3894  0.9737
 2751TIP3   OH2 8216   1.463   3.816   3.900  0.9049 -0.0741 -0.1298
 2751TIP3    H1 8217   1.462   3.730   3.942  1.0180 -0.3353 -0.6485
 2751TIP3    H2 8218   1.436   3.876   3.968 -3.2918 -0.9591 -0.7357
 2752TIP3   OH2 8219   4.433   6.542   5.406 -0.4153  0.1004  0.6480
 2752TIP3    H1 8220   4.498   6.566   5.339  0.3849 -0.6020  1.1597
 2752TIP3    H2 8221   4.405   6.626   5.443 -0.1230  0.4361  0.1310
 2753TIP3   OH2 8222   0.887   3.161   1.863  0.2900 -0.4555  0.0370
 2753TIP3    H1 8223   0.876   3.124   1.775 -0.3016  1.0172 -0.5346
 2753TIP3    H2 8224   0.803   3.145   1.907  0.6800 -1.4436  0.4615
 2754TIP3   OH2 8225   6.512   3.364   1.183 -0.0088  0.0696  0.2935
 2754TIP3    H1 8226   6.445   3.377   1.250  0.6764 -0.2975  1.0780
 2754TIP3    H2 8227   6.527   3.452   1.148 -2.3489 -0.1211 -1.3886
 2755TIP3   OH2 8228   0.490   5.523   2.417  0.0023  0.6225 -0.2862
 2755TIP3    H1 8229   0.528   5.602   2.457  0.5307  0.7961 -1.0943
 2755TIP3    H2 8230   0.529   5.520   2.330 -2.3379  1.1499 -1.4219
 2756TIP3   OH2 8231   4.880   6.675   2.541 -0.0456 -0.3815  0.8744
 2756TIP3    H1 8232   4.940   6.648   2.610 -1.6103 -1.2799  1.9426
 2756TIP3    H2 8233   4.801   6.702   2.587 -1.5271 -2.0233 -0.5840
 2757TIP3   OH2 8234   4.797   2.483   4.712 -0.1201 -0.4375  0.0624
 2757TIP3    H1 8235   4.822   2.538   4.638  1.2203  0.6148  1.2300
 2757TIP3    H2 8236   4.703   2.498   4.722 -0.4326 -0.9817 -1.6877
 2758TIP3   OH2 8237   0.393   2.179   2.314 -0.0291 -0.1052  0.0430
 2758TIP3    H1 8238   0.457   2.127   2.265 -1.8054 -0.8502 -1.5930
 2758TIP3    H2 8239   0.404   2.151   2.405 -0.5169 -2.9706 -0.6982
 2759TIP3   OH2 8240   6.433   0.379   3.500 -0.2513  0.2418  0.2642
 2759TIP3    H1 8241   6.442   0.334   3.416 -1.0039  1.5479 -0.5464
 2759TIP3    H2 8242   6.472   0.465   3.486  0.7707  0.0519  1.6643
 2760TIP3   OH2 8243   4.647   6.362   0.677 -0.3357  0.1281 -0.6145
 2760TIP3    H1 8244   4.661   6.430   0.612 -1.6689  0.3636 -0.6700
 2760TIP3    H2 8245   4.552   6.350   0.681 -0.1307 -1.9860 -0.8678
 2761TIP3   OH2 8246   3.443   1.508   5.685 -0.1286  0.5845  0.1904
 2761TIP3    H1 8247   3.364   1.516   5.632 -1.0426 -0.8946  1.2167
 2761TIP3    H2 8248   3.443   1.586   5.741 -0.6990  0.7573 -0.0451
 2762TIP3   OH2 8249   6.618   2.921   2.413 -0.2586 -0.1546 -0.3781
 2762TIP3    H1 8250   6.598   2.879   2.496  0.8125 -0.7538 -0.3980
 2762TIP3    H2 8251   6.714   2.920   2.408 -0.2001  1.9869 -0.5513
 2763TIP3   OH2 8252   4.439   6.374   4.343  0.3062 -0.5766  0.0129
 2763TIP3    H1 8253   4.438   6.311   4.271  1.0117 -0.9133  0.2914
 2763TIP3    H2 8254   4.530   6.400   4.352  0.5689 -2.0135  2.0428
 2764TIP3   OH2 8255   1.013   3.552   1.910 -0.2259 -0.0449 -0.3785
 2764TIP3    H1 8256   1.068   3.544   1.832  0.5431  1.0265  0.0444
 2764TIP3    H2 8257   1.063   3.607   1.970 -0.9748 -0.5349  0.7321
 2765TIP3   OH2 8258   5.220   0.112   0.741 -0.1710 -0.3371 -0.3995
 2765TIP3    H1 8259   5.213   0.028   0.696  0.7876 -1.1693  0.9213
 2765TIP3    H2 8260   5.313   0.135   0.735 -0.4389  0.7305 -0.8660
 2766TIP3   OH2 8261   5.831   5.564   2.302 -0.2310 -0.6194  1.0084
 2766TIP3    H1 8262   5.896   5.538   2.236  0.2778 -1.9823  1.9865
 2766TIP3    H2 8263   5.766   5.494   2.299 -1.6959  0.7218  0.0649
 2767TIP3   OH2 8264   3.857   0.364   4.411 -0.2049  0.1379  0.3759
 2767TIP3    H1 8265   3.886   0.430   4.347 -0.7115 -0.7483 -0.8084
 2767TIP3    H2 8266   3.934   0.308   4.423  0.2511  0.9521  1.4421
 2768TIP3   OH2 8267   4.754   1.132   0.013 -0.2379 -0.3267 -0.3445
 2768TIP3    H1 8268   4.781   1.215  -0.027 -1.9279 -0.1653 -1.2449
 2768TIP3    H2 8269   4.820   1.116   0.081 -0.0986  1.9531  0.1453
 2769TIP3   OH2 8270   6.098   2.097   4.071 -0.4522  0.7020  0.5726
 2769TIP3    H1 8271   6.124   2.018   4.119  1.2429  2.4498  2.7075
 2769TIP3    H2 8272   6.168   2.111   4.008 -0.1787  1.1019  0.9616
 2770TIP3   OH2 8273   2.018   2.316   4.563 -0.3672 -0.4183  0.3007
 2770TIP3    H1 8274   1.979   2.403   4.572 -1.0098 -0.7530  0.8389
 2770TIP3    H2 8275   2.023   2.282   4.652  2.7189  0.2370  0.4569
 2771TIP3   OH2 8276   1.251   5.230   4.130 -0.1919  0.5393 -0.2048
 2771TIP3    H1 8277   1.264   5.162   4.197 -0.8185  0.6760  0.0616
 2771TIP3    H2 8278   1.306   5.202   4.057  1.1627  0.8110  0.6563
 2772TIP3   OH2 8279   2.315   0.838   4.279 -0.1163  0.0492  0.3902
 2772TIP3    H1 8280   2.336   0.926   4.250 -0.0748 -0.3109 -0.6980
 2772TIP3    H2 8281   2.221   0.841   4.298 -0.2373  0.1806 -0.2055
 2773TIP3   OH2 8282   2.206   3.901   0.574 -0.0718  0.3229  0.2077
 2773TIP3    H1 8283   2.256   3.835   0.526 -2.7002 -1.3203 -0.4529
 2773TIP3    H2 8284   2.167   3.955   0.506 -1.6341 -0.3433  0.5256
 2774TIP3   OH2 8285   4.156   5.279   2.882  0.5864 -0.5276 -0.4070
 2774TIP3    H1 8286   4.156   5.374   2.889 -0.9327 -0.5804  0.9490
 2774TIP3    H2 8287   4.179   5.248   2.970 -0.2316 -1.3935 -0.4785
 2775TIP3   OH2 8288   0.589   0.146   1.268  0.3040 -0.1801 -0.1118
 2775TIP3    H1 8289   0.659   0.208   1.248  0.3199 -0.5222 -1.1792
 2775TIP3    H2 8290   0.510   0.200   1.272  0.2393 -0.1213 -1.5153
 2776TIP3   OH2 8291   1.563   4.063   2.678  0.1614 -0.3022 -0.2497
 2776TIP3    H1 8292   1.659   4.072   2.678  0.2868 -1.4168  0.8760
 2776TIP3    H2 8293   1.547   3.977   2.718 -1.3535  0.4352  0.8034
 2777TIP3   OH2 8294   6.531   2.839   2.660  0.0732  0.8138  0.1881
 2777TIP3    H1 8295   6.467   2.788   2.611  0.7264 -0.7449  0.8763
 2777TIP3    H2 8296   6.512   2.818   2.752  1.6367  0.2106  0.3943
 2778TIP3   OH2 8297   3.103   1.357   1.871 -0.5247  0.1314 -0.3320
 2778TIP3    H1 8298   3.182   1.370   1.819 -0.7746  0.2170 -0.6999
 2778TIP3    H2 8299   3.032   1.389   1.814 -0.6528  1.7379  0.6618
 2779TIP3   OH2 8300   4.260   5.210   0.690  0.1170 -0.3299 -0.9546
 2779TIP3    H1 8301   4.347   5.216   0.730  0.3258 -0.5412 -1.3733
 2779TIP3    H2 8302   4.200   5.231   0.761  0.5324  0.3325 -0.7862
 2780TIP3   OH2 8303   3.958   4.806   0.743 -0.1734  0.3460 -0.1480
 2780TIP3    H1 8304   4.025   4.847   0.798 -1.1954  1.9481 -0.0613
 2780TIP3    H2 8305   3.963   4.853   0.660 -1.1819  0.4585 -0.1488
 2781TIP3   OH2 8306   5.958   0.522   4.914  0.1592  0.6813  0.1566
 2781TIP3    H1 8307   5.908   0.442   4.932  0.7640  0.3340  0.3105
 2781TIP3    H2 8308   5.896   0.593   4.931 -0.6976  0.2308 -0.9324
 2782TIP3   OH2 8309   3.402   0.274   1.618 -0.0962 -0.3780  0.1159
 2782TIP3    H1 8310   3.444   0.330   1.683  1.7183 -1.1029 -0.3799
 2782TIP3    H2 8311   3.432   0.186   1.639  0.0698 -0.6984 -1.3393
 2783TIP3   OH2 8312   4.920   0.857   2.321  0.5211  0.2089  0.5052
 2783TIP3    H1 8313   5.010   0.857   2.352  0.5175  0.8335  0.5324
 2783TIP3    H2 8314   4.927   0.846   2.226  0.5780 -0.6678  0.6026
 2784TIP3   OH2 8315   0.974   3.910   1.679 -0.5650 -0.7184  0.0834
 2784TIP3    H1 8316   0.997   3.825   1.641  1.5609 -0.7769  1.2997
 2784TIP3    H2 8317   1.011   3.974   1.618 -0.3955 -0.7310  0.1708
 2785TIP3   OH2 8318   6.947   5.849   2.263  0.3850  0.7691  0.4873
 2785TIP3    H1 8319   6.995   5.769   2.240 -0.6452 -0.3071  1.9002
 2785TIP3    H2 8320   6.945   5.900   2.182 -0.4972 -1.4563 -0.9744
 2786TIP3   OH2 8321   6.607   0.965   4.932  0.6111 -0.1882  0.1243
 2786TIP3    H1 8322   6.652   1.002   5.009 -0.6968  1.8888 -0.0300
 2786TIP3    H2 8323   6.598   1.039   4.872 -2.9956 -0.4162  0.1710
 2787TIP3   OH2 8324   4.488   3.422   2.583  0.3665 -0.0253  0.2283
 2787TIP3    H1 8325   4.463   3.374   2.504 -2.1013  1.1091  0.2359
 2787TIP3    H2 8326   4.406   3.457   2.617  1.3145 -0.5604  3.4035
 2788TIP3   OH2 8327   1.734   1.778   0.193  0.3126  0.0379 -0.7876
 2788TIP3    H1 8328   1.760   1.731   0.272  0.3512  0.0473 -0.7949
 2788TIP3    H2 8329   1.720   1.709   0.128 -0.6043 -0.0466 -0.5219
 2789TIP3   OH2 8330   3.058   6.728   0.965 -0.9532  0.1651 -0.2460
 2789TIP3    H1 8331   3.087   6.806   1.012 -1.0771  1.3377 -1.9845
 2789TIP3    H2 8332   3.066   6.752   0.873  1.2393 -2.7133 -0.9585
 2790TIP3   OH2 8333   0.182   5.481   4.787  0.1280 -0.0634  0.4002
 2790TIP3    H1 8334   0.230   5.409   4.746  1.2698 -0.2057  1.9029
 2790TIP3    H2 8335   0.221   5.560   4.750 -1.1053 -0.1626 -1.2297
 2791TIP3   OH2 8336   5.004   3.931   4.402 -0.4392 -0.2553  0.5054
 2791TIP3    H1 8337   5.058   3.941   4.324 -2.3442 -0.4961 -0.9177
 2791TIP3    H2 8338   4.935   3.997   4.392 -0.6241 -0.1746  2.0835
 2792TIP3   OH2 8339   0.062   4.177   1.402  0.2913 -0.1245  0.0970
 2792TIP3    H1 8340   0.116   4.136   1.470 -0.6513 -3.9986 -1.2613
 2792TIP3    H2 8341  -0.012   4.214   1.450  0.7042 -0.8978  1.3876
 2793TIP3   OH2 8342   3.888   2.177   3.062  0.5402  0.3212 -0.5285
 2793TIP3    H1 8343   3.864   2.158   3.153  1.1294  0.0741 -0.4252
 2793TIP3    H2 8344   3.831   2.250   3.038 -0.8799 -0.7354 -0.5341
 2794TIP3   OH2 8345   0.245   0.694   1.594 -0.1495  0.0673 -0.5291
 2794TIP3    H1 8346   0.179   0.625   1.595 -0.4828  0.3771 -0.9747
 2794TIP3    H2 8347   0.229   0.743   1.675 -0.8788  0.5216 -0.9374
 2795TIP3   OH2 8348   5.001   4.928   4.216  0.3010 -0.1744  0.3722
 2795TIP3    H1 8349   5.003   5.023   4.211 -3.2286 -0.0557 -3.4327
 2795TIP3    H2 8350   5.067   4.899   4.153  1.9800 -0.4023  2.1385
 2796TIP3   OH2 8351   0.279   4.988   3.510  0.0105 -0.1575 -0.0817
 2796TIP3    H1 8352   0.218   4.929   3.554 -1.1326  0.3295 -0.9382
 2796TIP3    H2 8353   0.254   4.983   3.418  0.8391  0.5668 -0.3593
 2797TIP3   OH2 8354   4.445   4.368   2.872 -0.0933  0.1534  0.4363
 2797TIP3    H1 8355   4.512   4.370   2.803  0.3385  0.7887  0.8526
 2797TIP3    H2 8356   4.369   4.410   2.832  0.8706  2.6390  1.0120
 2798TIP3   OH2 8357   0.048   4.384   4.615 -0.0634 -0.3205 -0.2599
 2798TIP3    H1 8358   0.123   4.435   4.586 -1.3816  2.8664  1.4178
 2798TIP3    H2 8359  -0.018   4.399   4.547 -1.1284  2.0899  1.1924
 2799TIP3   OH2 8360   5.449   0.494   3.565 -0.2024  0.1135  0.3881
 2799TIP3    H1 8361   5.378   0.530   3.512 -0.0509  1.0984  0.8431
 2799TIP3    H2 8362   5.435   0.399   3.562 -0.6885  0.1995 -0.7108
 2800TIP3   OH2 8363   5.985   3.942   0.688 -0.2479 -0.3068  0.0454
 2800TIP3    H1 8364   5.918   3.879   0.663 -1.1663 -0.2587  2.1518
 2800TIP3    H2 8365   5.936   4.019   0.718  0.7269 -0.1519  1.3472
 2801TIP3   OH2 8366   6.136   0.682   4.534 -0.0330  0.1030  0.2926
 2801TIP3    H1 8367   6.213   0.695   4.590  0.7612 -1.0867 -0.4963
 2801TIP3    H2 8368   6.172   0.652   4.450 -1.2982  0.5040 -0.4130
 2802TIP3   OH2 8369   3.091   4.263   4.928 -0.6674 -0.7463  0.0267
 2802TIP3    H1 8370   3.012   4.276   4.980 -0.9506 -0.3078 -0.5034
 2802TIP3    H2 8371   3.067   4.293   4.840 -0.6411 -2.7161 -0.7041
 2803TIP3   OH2 8372   1.075   3.103   2.235 -0.6250  0.5322 -0.4670
 2803TIP3    H1 8373   1.083   3.146   2.320 -0.0178 -1.1577  0.3769
 2803TIP3    H2 8374   1.065   3.175   2.173 -2.8726  1.7749  1.1705
 2804TIP3   OH2 8375   5.704   0.955   5.542  0.2374 -0.0195  0.1177
 2804TIP3    H1 8376   5.708   0.891   5.613 -1.2163  1.4333  1.5894
 2804TIP3    H2 8377   5.772   1.019   5.564  0.1630  0.1388 -0.1149
 2805TIP3   OH2 8378   4.965   1.041   3.542  0.1583  0.4179 -0.1669
 2805TIP3    H1 8379   4.947   1.005   3.455 -1.7373  1.2044 -0.1506
 2805TIP3    H2 8380   5.043   1.094   3.530  0.5431 -0.3375 -1.1405
 2806TIP3   OH2 8381   0.617   0.702   5.529  0.1354 -0.0515 -0.8517
 2806TIP3    H1 8382   0.656   0.790   5.537 -0.7501  0.4083 -1.4268
 2806TIP3    H2 8383   0.533   0.709   5.574  1.3597 -1.5240  1.8850
 2807TIP3   OH2 8384   4.338   4.735   4.556 -1.0471 -0.8342  0.7784
 2807TIP3    H1 8385   4.330   4.729   4.652  1.7011  0.7998  1.2200
 2807TIP3    H2 8386   4.338   4.828   4.538 -1.2775 -1.1250 -0.8206
 2808TIP3   OH2 8387   2.677   2.245   2.784 -0.6012 -0.3090 -0.3607
 2808TIP3    H1 8388   2.656   2.259   2.691  0.9737 -0.6691 -0.8007
 2808TIP3    H2 8389   2.772   2.239   2.786 -0.5035  0.9746  1.4758
 2809TIP3   OH2 8390   6.662   2.355   3.419  0.2648 -0.1081 -0.2855
 2809TIP3    H1 8391   6.590   2.291   3.423 -0.8276  1.1186  0.5833
 2809TIP3    H2 8392   6.644   2.405   3.339 -1.0856  1.5177  0.9540
 2810TIP3   OH2 8393   6.439   4.613   4.731  0.9368 -0.1626  0.1301
 2810TIP3    H1 8394   6.387   4.542   4.694  0.3932 -0.1000  0.7531
 2810TIP3    H2 8395   6.375   4.670   4.773  1.2775  1.1079 -0.9960
 2811TIP3   OH2 8396   2.248   2.056   5.326 -0.2313  0.0940 -0.4684
 2811TIP3    H1 8397   2.258   1.970   5.365 -0.8629  0.4849  0.6079
 2811TIP3    H2 8398   2.219   2.112   5.399  0.6491  1.3180 -1.0298
 2812TIP3   OH2 8399   1.032   0.368   0.119  0.0120  0.3249 -0.1018
 2812TIP3    H1 8400   1.082   0.350   0.040 -0.0625 -0.2567 -0.0199
 2812TIP3    H2 8401   0.987   0.285   0.139  0.5218  0.2667  0.9055
 2813TIP3   OH2 8402   6.968   0.789   4.869 -0.1616 -0.3159 -0.0090
 2813TIP3    H1 8403   7.021   0.850   4.817 -0.4165 -2.5454 -3.1731
 2813TIP3    H2 8404   7.027   0.716   4.888 -0.9976 -1.0136 -0.0321
 2814TIP3   OH2 8405   4.893   2.668   4.528  0.0973 -0.2577  0.3440
 2814TIP3    H1 8406   4.887   2.764   4.524 -3.5154 -0.2739  1.4712
 2814TIP3    H2 8407   4.881   2.640   4.437  0.5678  0.3383  0.0900
 2815TIP3   OH2 8408   5.654   0.163   1.060 -0.1604 -0.1838  0.2325
 2815TIP3    H1 8409   5.597   0.240   1.064  1.2813  0.9806 -0.4876
 2815TIP3    H2 8410   5.713   0.172   1.135  3.1148  2.1192 -2.2721
 2816TIP3   OH2 8411   1.233   0.943   2.172 -0.2721  0.3128 -1.0180
 2816TIP3    H1 8412   1.173   0.950   2.247  0.8340  1.5457 -0.2088
 2816TIP3    H2 8413   1.175   0.937   2.096 -1.4438 -2.2100 -0.0306
 2817TIP3   OH2 8414   0.727   3.964   4.381  0.5618  0.0163  0.2556
 2817TIP3    H1 8415   0.748   3.959   4.288  2.8848  1.9806  0.5586
 2817TIP3    H2 8416   0.668   4.039   4.388  0.5153 -0.0327  0.3828
 2818TIP3   OH2 8417   2.165   1.922   1.498 -0.1468 -0.4569  0.5382
 2818TIP3    H1 8418   2.192   1.960   1.414 -0.7343  1.3132  1.0997
 2818TIP3    H2 8419   2.166   1.828   1.484  1.7548 -0.2846 -0.8462
 2819TIP3   OH2 8420   5.857   3.267   3.950 -0.0214 -0.0513 -0.1454
 2819TIP3    H1 8421   5.928   3.294   3.892  0.1514 -1.6727 -0.7379
 2819TIP3    H2 8422   5.827   3.184   3.914 -1.1055 -0.2149  1.0734
 2820TIP3   OH2 8423   4.434   2.951   4.879 -0.3542 -0.3763 -0.0447
 2820TIP3    H1 8424   4.519   2.935   4.838  0.4899  1.6907  0.7656
 2820TIP3    H2 8425   4.388   3.007   4.816 -0.0443  0.7030  0.6648
 2821TIP3   OH2 8426   3.109   1.478   4.593  0.2890  0.5573  0.2428
 2821TIP3    H1 8427   3.016   1.478   4.617  0.6314 -0.1959  1.7193
 2821TIP3    H2 8428   3.109   1.491   4.499 -1.4369 -1.4214 -0.1176
 2822TIP3   OH2 8429   6.277   6.732   0.312  0.2380  0.5272  0.0987
 2822TIP3    H1 8430   6.231   6.649   0.307 -0.1049  0.6625  0.9356
 2822TIP3    H2 8431   6.283   6.761   0.221  1.7028 -1.1232 -0.3720
 2823TIP3   OH2 8432   6.535   6.275   1.592 -0.0505 -0.2271 -0.1267
 2823TIP3    H1 8433   6.543   6.283   1.497 -0.2311  0.2246 -0.1025
 2823TIP3    H2 8434   6.593   6.343   1.627  0.2607 -0.5989  0.0928
 2824TIP3   OH2 8435   6.740   0.933   2.368 -0.0258 -0.0027  0.3295
 2824TIP3    H1 8436   6.707   0.999   2.308  0.0948  0.7123  1.0249
 2824TIP3    H2 8437   6.662   0.883   2.395  0.1655 -1.6876 -1.9502
 2825TIP3   OH2 8438   3.521   4.058   3.929 -0.2077 -0.4895  0.0937
 2825TIP3    H1 8439   3.511   4.026   4.019 -1.3696  0.3695  0.2838
 2825TIP3    H2 8440   3.615   4.054   3.913 -0.0645 -1.4484  1.0478
 2826TIP3   OH2 8441   3.050   1.750   5.035 -0.3680  0.2058 -0.2263
 2826TIP3    H1 8442   3.056   1.767   4.941  0.1118 -0.4479 -0.3193
 2826TIP3    H2 8443   3.138   1.724   5.061 -0.7341 -0.6760  0.1891
 2827TIP3   OH2 8444   0.467   5.188   2.244  0.1346 -0.4399  0.0648
 2827TIP3    H1 8445   0.546   5.242   2.252  0.1381 -0.4441  0.0592
 2827TIP3    H2 8446   0.478   5.119   2.309  0.4574 -0.8442 -0.4087
 2828TIP3   OH2 8447   1.943   6.096   3.468  0.0234  0.3601 -0.2880
 2828TIP3    H1 8448   1.998   6.161   3.511 -0.1069  0.3676 -0.1308
 2828TIP3    H2 8449   1.988   6.013   3.482 -1.3371 -0.0620  2.2246
 2829TIP3   OH2 8450   0.048   0.534   5.401 -0.1097  0.5423  0.1177
 2829TIP3    H1 8451   0.030   0.485   5.321 -0.4573 -0.5905  0.8548
 2829TIP3    H2 8452   0.115   0.598   5.376  1.3888 -1.2173 -0.5887
 2830TIP3   OH2 8453   2.559   3.439   4.103 -0.2963 -0.4068  1.0352
 2830TIP3    H1 8454   2.633   3.424   4.162  0.4312 -1.4546 -0.1095
 2830TIP3    H2 8455   2.485   3.454   4.162  0.2470 -2.2038  2.2676
 2831TIP3   OH2 8456   5.283   5.187   2.780 -0.2291 -0.2689 -0.8209
 2831TIP3    H1 8457   5.252   5.214   2.694 -0.2137 -0.1411 -0.7878
 2831TIP3    H2 8458   5.298   5.270   2.826 -2.0873 -0.3277 -0.0199
 2832TIP3   OH2 8459   5.484   0.737   4.979 -0.1555  0.6776  0.2428
 2832TIP3    H1 8460   5.424   0.665   4.998 -0.9223  0.8711 -1.2635
 2832TIP3    H2 8461   5.569   0.706   5.010 -0.7254 -0.2880  0.9020
 2833TIP3   OH2 8462   4.172   6.141   3.484  0.1999  0.3910  0.0223
 2833TIP3    H1 8463   4.255   6.183   3.460 -0.4287  2.3256  0.9823
 2833TIP3    H2 8464   4.105   6.198   3.447 -0.7165 -0.2704  0.6218
 2834TIP3   OH2 8465   2.209   6.665   2.335 -0.6159  0.1009  0.5589
 2834TIP3    H1 8466   2.238   6.637   2.422 -1.5368  0.1604  0.8880
 2834TIP3    H2 8467   2.116   6.643   2.332 -0.4484 -0.5001 -0.6616
 2835TIP3   OH2 8468   1.309   3.051   4.394 -0.7138  0.5776 -0.8223
 2835TIP3    H1 8469   1.384   3.096   4.433 -0.6761  0.9009 -1.2538
 2835TIP3    H2 8470   1.326   2.958   4.409 -0.6238  0.6893 -0.2167
 2836TIP3   OH2 8471   0.740   4.696   1.378  0.7011  0.4956  0.0738
 2836TIP3    H1 8472   0.745   4.624   1.441  2.9692 -1.1016 -1.7444
 2836TIP3    H2 8473   0.746   4.775   1.431 -1.0952 -0.6232  2.0828
 2837TIP3   OH2 8474   3.650   2.610   3.353 -0.3368  0.2283 -0.7895
 2837TIP3    H1 8475   3.639   2.644   3.264 -0.9131  3.5337  0.4197
 2837TIP3    H2 8476   3.745   2.600   3.363 -0.2256  0.3769 -1.5883
 2838TIP3   OH2 8477   2.015   3.497   5.763 -0.3777  0.6849  0.3450
 2838TIP3    H1 8478   2.024   3.591   5.771 -0.7562  0.8618 -1.0277
 2838TIP3    H2 8479   1.950   3.485   5.693  1.4373 -0.5682 -1.2344
 2839TIP3   OH2 8480   0.282   3.627   4.664 -0.9183 -0.0423 -0.4595
 2839TIP3    H1 8481   0.250   3.717   4.664 -1.3660 -0.1452  1.3770
 2839TIP3    H2 8482   0.202   3.574   4.672 -0.5534 -0.4837  0.3962
 2840TIP3   OH2 8483   3.733   5.040   0.359  0.3088 -0.6299  0.4962
 2840TIP3    H1 8484   3.705   5.105   0.424 -1.5621  0.9526 -1.7416
 2840TIP3    H2 8485   3.802   5.084   0.310 -1.5529  0.1394 -1.5867
 2841TIP3   OH2 8486   1.150   6.094   1.927  0.4380 -0.6427 -0.1162
 2841TIP3    H1 8487   1.147   6.000   1.911 -0.5999 -0.7240  0.4386
 2841TIP3    H2 8488   1.224   6.125   1.875  1.3214 -1.8767  0.3502
 2842TIP3   OH2 8489   3.177   3.501   4.209 -0.1707  0.1188 -0.6373
 2842TIP3    H1 8490   3.204   3.529   4.122  3.3900 -1.4368 -0.1996
 2842TIP3    H2 8491   3.126   3.421   4.194 -1.7165  1.1692 -1.3102
 2843TIP3   OH2 8492   2.059   0.186   2.860  0.4399 -0.3524  0.0750
 2843TIP3    H1 8493   2.137   0.168   2.808  0.0985  1.4613 -1.1788
 2843TIP3    H2 8494   2.086   0.258   2.918 -0.4744  0.8769 -0.9608
 2844TIP3   OH2 8495   6.288   5.917   5.679  0.7149  0.0235  0.1391
 2844TIP3    H1 8496   6.248   6.004   5.677  2.7576  1.0040 -0.2729
 2844TIP3    H2 8497   6.216   5.858   5.701 -1.5145  1.3443 -2.9702
 2845TIP3   OH2 8498   1.629   4.325   1.493 -0.0757 -0.0777  0.6648
 2845TIP3    H1 8499   1.690   4.292   1.427 -1.3156 -1.7370  0.2786
 2845TIP3    H2 8500   1.605   4.412   1.462 -0.5814 -0.7997 -1.0985
 2846TIP3   OH2 8501   2.345   3.024   1.788 -0.2504  0.1142 -0.3663
 2846TIP3    H1 8502   2.364   2.985   1.873  1.5844 -0.3809 -0.9520
 2846TIP3    H2 8503   2.295   3.104   1.808  0.3871  0.1477  1.1785
 2847TIP3   OH2 8504   0.609   4.311   4.593  0.1823 -0.2027  0.1374
 2847TIP3    H1 8505   0.550   4.270   4.531  0.6339 -4.2140  2.0220
 2847TIP3    H2 8506   0.563   4.305   4.677  2.6262 -2.5010  1.4790
 2848TIP3   OH2 8507   3.526   2.648   2.717  0.2393 -0.3409  0.4767
 2848TIP3    H1 8508   3.553   2.580   2.654 -2.1135 -0.0536 -0.9688
 2848TIP3    H2 8509   3.578   2.725   2.693 -1.6697  0.2428 -2.2931
 2849TIP3   OH2 8510   6.047   2.017   3.169 -0.9083 -0.2195  0.1313
 2849TIP3    H1 8511   6.070   2.109   3.156 -1.3741 -0.1855 -0.5407
 2849TIP3    H2 8512   6.021   1.987   3.082 -0.6887 -1.0069  0.3367
 2850TIP3   OH2 8513   0.226   4.140   1.982 -0.3119 -0.3021 -0.5192
 2850TIP3    H1 8514   0.137   4.165   1.956 -0.4394 -0.4691 -0.2486
 2850TIP3    H2 8515   0.275   4.222   1.980 -0.9458  0.1766  1.2986
 2851TIP3   OH2 8516   1.568   4.825   4.727 -0.4420 -0.0205 -0.0079
 2851TIP3    H1 8517   1.525   4.742   4.707  0.2505 -0.1919 -0.8896
 2851TIP3    H2 8518   1.600   4.815   4.816 -0.9335 -0.4467  0.1252
 2852TIP3   OH2 8519   3.577   4.124   5.885 -0.1389  0.7305  0.4479
 2852TIP3    H1 8520   3.620   4.130   5.800  1.8982 -0.6625  1.2791
 2852TIP3    H2 8521   3.483   4.127   5.866  0.2380 -0.5250 -1.9345
 2853TIP3   OH2 8522   2.004   6.596   3.623  0.3627  0.1103 -0.3260
 2853TIP3    H1 8523   1.935   6.658   3.599  0.4929  0.3201 -0.1696
 2853TIP3    H2 8524   1.960   6.529   3.675  0.1096 -0.2548 -0.9960
 2854TIP3   OH2 8525   3.629   5.280   0.513  0.1483  0.5829 -0.0888
 2854TIP3    H1 8526   3.585   5.329   0.582  2.0576  1.5828  0.4773
 2854TIP3    H2 8527   3.716   5.319   0.507  0.5961 -0.5631 -1.9475
 2855TIP3   OH2 8528   4.543   3.209   4.722  0.6486 -0.5519 -0.3216
 2855TIP3    H1 8529   4.601   3.283   4.707  0.1428 -0.3334 -1.2748
 2855TIP3    H2 8530   4.575   3.142   4.661 -0.8629  0.0153 -1.7993
 2856TIP3   OH2 8531   6.187   1.459   4.813 -0.0750 -0.7291  0.0875
 2856TIP3    H1 8532   6.126   1.389   4.792  0.0550 -1.3274  1.5657
 2856TIP3    H2 8533   6.138   1.540   4.797 -0.4823 -1.1475 -0.8772
 2857TIP3   OH2 8534   4.437   0.646   3.827 -0.1871  0.2465 -0.1897
 2857TIP3    H1 8535   4.531   0.650   3.810  0.0599  0.9725  1.1719
 2857TIP3    H2 8536   4.397   0.682   3.749  0.7662  1.6471 -0.0801
 2858TIP3   OH2 8537   3.325   5.949   0.411  0.2183 -0.4619 -0.5104
 2858TIP3    H1 8538   3.368   5.991   0.486  0.3782 -0.0751 -0.8189
 2858TIP3    H2 8539   3.395   5.905   0.364  0.3949  0.6739 -1.3526
 2859TIP3   OH2 8540   3.124   2.384   1.800  0.8322 -0.3497 -0.1025
 2859TIP3    H1 8541   3.213   2.356   1.819  1.9720  1.4521 -2.3619
 2859TIP3    H2 8542   3.092   2.320   1.736  0.7349 -0.6149  0.2080
 2860TIP3   OH2 8543   6.189   5.771   0.973 -0.3207 -0.0904  0.3833
 2860TIP3    H1 8544   6.232   5.741   0.893 -0.5880 -0.8146  0.4943
 2860TIP3    H2 8545   6.258   5.771   1.039 -0.8040 -3.3662  1.1039
 2861TIP3   OH2 8546   5.877   0.351   0.561 -0.4027 -0.2716  0.3712
 2861TIP3    H1 8547   5.955   0.403   0.581 -0.7760  0.7455 -0.6605
 2861TIP3    H2 8548   5.865   0.295   0.637 -0.1869  1.4134  1.7108
 2862TIP3   OH2 8549   5.867   5.883   1.433 -0.4943 -0.8124 -0.6146
 2862TIP3    H1 8550   5.933   5.849   1.493 -0.0856 -0.3073 -0.7677
 2862TIP3    H2 8551   5.912   5.893   1.350 -0.3784  0.7843 -0.3938
 2863TIP3   OH2 8552   2.556   5.698   1.318 -0.3838 -0.3249  0.6059
 2863TIP3    H1 8553   2.619   5.655   1.376  0.3619  0.2419  0.2371
 2863TIP3    H2 8554   2.545   5.637   1.245 -1.8016 -1.3273  1.5964
 2864TIP3   OH2 8555   4.355   6.153   5.480 -0.0530 -0.0656 -0.1925
 2864TIP3    H1 8556   4.290   6.129   5.546  0.1760  0.9944  0.4375
 2864TIP3    H2 8557   4.396   6.232   5.514  1.1559 -0.3707 -0.8735
 2865TIP3   OH2 8558   0.555   6.669   1.315  0.0525 -0.2316  0.3756
 2865TIP3    H1 8559   0.463   6.688   1.298  0.2808  0.1234 -0.5502
 2865TIP3    H2 8560   0.580   6.608   1.245  0.0590 -1.8264  1.6981
 2866TIP3   OH2 8561   1.000   4.827   5.532 -0.3122 -0.3249  0.1711
 2866TIP3    H1 8562   1.080   4.800   5.486 -0.4829  1.3224 -1.2018
 2866TIP3    H2 8563   1.006   4.785   5.617  2.1825 -0.0441  0.2170
 2867TIP3   OH2 8564   4.223   2.570   3.753 -0.6208 -0.4369  0.1073
 2867TIP3    H1 8565   4.318   2.562   3.746 -0.5340 -0.8148  1.4581
 2867TIP3    H2 8566   4.192   2.479   3.761 -1.0266 -0.2741  0.3880
 2868TIP3   OH2 8567   0.678   2.876   3.326  0.0619 -0.5477 -0.0959
 2868TIP3    H1 8568   0.682   2.942   3.395 -1.8341 -0.7702  0.2829
 2868TIP3    H2 8569   0.640   2.922   3.251  2.3317 -0.2374 -1.1585
 2869TIP3   OH2 8570   6.635   1.615   0.771 -0.1987  0.0055 -0.3450
 2869TIP3    H1 8571   6.644   1.622   0.676  1.5087  0.3544 -0.2017
 2869TIP3    H2 8572   6.569   1.681   0.794  1.6756  2.2496 -1.0066
 2870TIP3   OH2 8573   4.923   6.687   3.855 -0.1900  0.4286 -0.1050
 2870TIP3    H1 8574   4.849   6.663   3.911  0.5239  0.7750  1.0188
 2870TIP3    H2 8575   4.883   6.705   3.770 -1.6851  2.3225  0.8956
 2871TIP3   OH2 8576   0.671   0.419   3.063  0.1737  0.0571 -0.6102
 2871TIP3    H1 8577   0.689   0.356   2.993 -2.1918 -1.6518  0.1648
 2871TIP3    H2 8578   0.688   0.371   3.144 -1.1587  0.5383  0.0008
 2872TIP3   OH2 8579   2.691   2.076   4.204  0.4752 -0.1089 -0.1069
 2872TIP3    H1 8580   2.719   2.167   4.212  0.4403 -0.2126  1.3394
 2872TIP3    H2 8581   2.627   2.064   4.273 -0.6591 -0.8347 -1.2401
 2873TIP3   OH2 8582   7.124   3.158   3.622  0.2258  0.3272  0.2779
 2873TIP3    H1 8583   7.185   3.131   3.553 -1.0059  0.2676 -0.8049
 2873TIP3    H2 8584   7.045   3.107   3.607 -0.3131  0.8022  1.3417
 2874TIP3   OH2 8585   0.927   1.219   1.990  0.1045  0.3262  0.2868
 2874TIP3    H1 8586   1.007   1.255   2.028  0.7164  1.5979 -2.0659
 2874TIP3    H2 8587   0.939   1.226   1.896 -1.6947 -1.9496 -0.2021
 2875TIP3   OH2 8588   7.072   5.633   0.240 -0.1380 -0.1108  0.0023
 2875TIP3    H1 8589   7.081   5.551   0.192  0.0751  0.0491 -0.2376
 2875TIP3    H2 8590   7.158   5.648   0.279 -0.1895 -0.0259  0.0835
 2876TIP3   OH2 8591   5.775   1.719   1.550  0.9774 -0.1420 -0.7640
 2876TIP3    H1 8592   5.788   1.787   1.485  2.3386 -1.4855 -1.9680
 2876TIP3    H2 8593   5.704   1.665   1.515 -1.3918  1.5490  1.0462
 2877TIP3   OH2 8594   1.497   4.559   3.703  0.1710 -0.1059 -0.1509
 2877TIP3    H1 8595   1.506   4.465   3.718 -0.3205  0.1845  2.4795
 2877TIP3    H2 8596   1.510   4.598   3.790 -0.4899  2.1956 -1.0232
 2878TIP3   OH2 8597   5.102   1.658  -0.026 -0.0842  0.1659  0.7133
 2878TIP3    H1 8598   5.161   1.724   0.010 -0.1981  1.1081 -0.7785
 2878TIP3    H2 8599   5.020   1.670   0.021 -0.3119  1.5565 -0.0031
 2879TIP3   OH2 8600   2.262   5.714   0.464 -0.3437  0.2522 -0.4258
 2879TIP3    H1 8601   2.299   5.717   0.552 -2.5041  1.4892  0.5252
 2879TIP3    H2 8602   2.325   5.761   0.409  1.0882 -0.6378  0.3940
 2880TIP3   OH2 8603   2.154   5.818   2.997 -0.0853  0.2187 -0.1120
 2880TIP3    H1 8604   2.064   5.810   2.966  0.3126 -0.8941 -1.0707
 2880TIP3    H2 8605   2.180   5.728   3.017  0.5918  0.6091  0.8114
 2881TIP3   OH2 8606   0.662   0.318   2.302 -0.0007 -0.4243  0.3757
 2881TIP3    H1 8607   0.706   0.380   2.244 -0.5234  0.7730  1.2116
 2881TIP3    H2 8608   0.592   0.280   2.248 -0.2223  0.3674  0.0939
 2882TIP3   OH2 8609   3.076   5.380   5.142  0.2512 -0.5442 -0.4036
 2882TIP3    H1 8610   3.007   5.437   5.109  0.1357 -1.0231 -0.9864
 2882TIP3    H2 8611   3.137   5.440   5.185 -0.2117 -0.0530 -0.4197
 2883TIP3   OH2 8612   5.198   0.824   3.727 -0.2161  0.3939 -0.1821
 2883TIP3    H1 8613   5.196   0.893   3.661 -0.5869  0.2963 -0.2770
 2883TIP3    H2 8614   5.116   0.834   3.776  0.1028  0.5259  0.3303
 2884TIP3   OH2 8615   4.903   0.823   1.694 -0.0046 -0.2782  0.2595
 2884TIP3    H1 8616   4.832   0.856   1.638  0.0184 -0.3949  0.1601
 2884TIP3    H2 8617   4.907   0.729   1.674  1.7960  0.1131 -1.5685
 2885TIP3   OH2 8618   4.328   2.615   1.571 -0.3700 -0.4179 -0.1212
 2885TIP3    H1 8619   4.284   2.561   1.636  1.5407 -1.6822  0.2033
 2885TIP3    H2 8620   4.405   2.649   1.616  0.6700 -0.8220 -1.5129
 2886TIP3   OH2 8621   4.141   6.207   5.309 -0.3806 -0.0522 -0.0796
 2886TIP3    H1 8622   4.173   6.196   5.220  0.3968 -0.6027  0.2523
 2886TIP3    H2 8623   4.220   6.200   5.363 -0.9928 -0.9085  0.7329
 2887TIP3   OH2 8624   3.951   0.676   2.777 -0.2850  0.4301 -0.1874
 2887TIP3    H1 8625   4.044   0.677   2.800 -0.1715 -0.1433 -0.6194
 2887TIP3    H2 8626   3.922   0.767   2.790  0.2283  0.5154  0.3672
 2888TIP3   OH2 8627   3.437   3.520   3.291  0.2854 -0.0080 -0.4481
 2888TIP3    H1 8628   3.380   3.522   3.214 -1.6841  1.1098  0.9384
 2888TIP3    H2 8629   3.389   3.569   3.357  3.4800  2.2936  0.4369
 2889TIP3   OH2 8630   4.710   0.422   5.491 -0.2887 -0.4655 -0.4542
 2889TIP3    H1 8631   4.694   0.516   5.500 -0.6256 -0.4677 -0.9993
 2889TIP3    H2 8632   4.628   0.382   5.521 -0.1234 -0.5925 -0.1638
 2890TIP3   OH2 8633   4.287   4.941   5.585  0.6514 -0.1977 -0.4162
 2890TIP3    H1 8634   4.325   4.878   5.646  1.0260  1.7677  1.4976
 2890TIP3    H2 8635   4.194   4.918   5.581  0.4312  0.1716  1.6750
 2891TIP3   OH2 8636   0.538   4.935   0.861 -0.5383  0.8484 -0.5520
 2891TIP3    H1 8637   0.459   4.886   0.886 -0.3883  0.6134 -0.5391
 2891TIP3    H2 8638   0.571   4.889   0.784  0.0680  0.4287 -0.0495
 2892TIP3   OH2 8639   6.590   5.817   4.746  0.4547  0.1407  0.3392
 2892TIP3    H1 8640   6.663   5.824   4.685  2.1370 -0.6590  2.1521
 2892TIP3    H2 8641   6.631   5.810   4.832 -1.6251 -2.9456  1.2544
 2893TIP3   OH2 8642   2.423   6.381   5.697 -0.0836 -0.5311 -0.1754
 2893TIP3    H1 8643   2.491   6.318   5.722  1.3735  1.5386  1.4478
 2893TIP3    H2 8644   2.345   6.351   5.742  0.4372 -1.4952  0.1090
 2894TIP3   OH2 8645   1.394   0.164   1.948  0.3462  0.3091  0.7093
 2894TIP3    H1 8646   1.435   0.230   2.004  0.6880 -0.0930  0.9413
 2894TIP3    H2 8647   1.300   0.178   1.960  0.4149  0.7076  0.8094
 2895TIP3   OH2 8648   5.897   5.590   0.705  0.0688 -0.6857 -0.1483
 2895TIP3    H1 8649   5.822   5.533   0.724 -0.3631 -0.0712  0.0162
 2895TIP3    H2 8650   5.889   5.662   0.767 -0.0414  0.1435 -1.0851
 2896TIP3   OH2 8651   1.916   3.705   0.235  0.1848 -0.2366  0.1251
 2896TIP3    H1 8652   1.972   3.629   0.250  0.4551  0.2344  1.6233
 2896TIP3    H2 8653   1.834   3.684   0.279  0.3464  0.4271  0.7548
 2897TIP3   OH2 8654   4.504   0.652   1.941  0.2384  0.0802  0.2744
 2897TIP3    H1 8655   4.452   0.648   2.021  0.4672 -0.3165  0.4098
 2897TIP3    H2 8656   4.439   0.658   1.871  0.0589  1.7370  0.5395
 2898TIP3   OH2 8657   6.956   2.222   0.721 -0.5896  0.1794  0.2679
 2898TIP3    H1 8658   6.900   2.292   0.754 -0.4258 -0.3084  1.6406
 2898TIP3    H2 8659   6.897   2.165   0.672 -1.0865  0.2704  0.7535
 2899TIP3   OH2 8660   0.017   0.365   5.196 -0.1101  0.5337 -0.1562
 2899TIP3    H1 8661   0.066   0.287   5.173 -0.1616  0.7820 -1.1283
 2899TIP3    H2 8662  -0.070   0.353   5.157  0.2334  1.5625 -1.2826
 2900TIP3   OH2 8663   6.627   6.081   1.765  0.1867  0.4481 -0.2478
 2900TIP3    H1 8664   6.591   6.143   1.701 -0.6424  0.0934 -0.1449
 2900TIP3    H2 8665   6.550   6.047   1.811  0.6725 -0.2681  0.0577
 2901TIP3   OH2 8666   0.433   2.605   5.571 -0.5939  0.4887 -0.6738
 2901TIP3    H1 8667   0.485   2.639   5.643 -1.2826  1.0012 -0.4054
 2901TIP3    H2 8668   0.372   2.676   5.550 -1.5721 -0.2965 -0.5810
 2902TIP3   OH2 8669   1.271   1.639   5.413 -0.1633  0.3635  0.5231
 2902TIP3    H1 8670   1.326   1.598   5.347 -1.4732 -2.2937  0.9359
 2902TIP3    H2 8671   1.332   1.671   5.479  0.9996  0.0488 -0.3701
 2903TIP3   OH2 8672   6.835   0.606   4.071  0.0794 -0.2494 -0.5820
 2903TIP3    H1 8673   6.742   0.613   4.091 -0.1162 -1.5697 -0.9862
 2903TIP3    H2 8674   6.865   0.531   4.123  0.5484 -0.8618 -1.7112
 2904TIP3   OH2 8675   2.272   1.493   0.812 -0.0541 -0.0601  0.2160
 2904TIP3    H1 8676   2.342   1.549   0.844 -1.5121  2.4732 -0.7944
 2904TIP3    H2 8677   2.192   1.542   0.829 -1.1539  0.1349 -4.4275
 2905TIP3   OH2 8678   5.396   0.997   2.963 -0.0296  0.1290  0.2499
 2905TIP3    H1 8679   5.462   1.007   3.031  1.3041 -1.3915 -0.7389
 2905TIP3    H2 8680   5.320   1.044   2.996  1.6639  2.3322  1.2449
 2906TIP3   OH2 8681   0.325   4.753   4.542  0.2898  0.2201 -0.5645
 2906TIP3    H1 8682   0.412   4.769   4.503  0.0583  1.5939 -0.5770
 2906TIP3    H2 8683   0.338   4.770   4.635  0.4162 -1.2633 -0.2972
 2907TIP3   OH2 8684   4.980   0.531   2.430 -0.4004  0.5386 -0.0949
 2907TIP3    H1 8685   4.910   0.563   2.373 -1.6206 -0.0237  1.0320
 2907TIP3    H2 8686   4.956   0.561   2.518 -1.1861 -2.6235  0.9145
 2908TIP3   OH2 8687   0.628   5.612   1.892  1.1533  0.5762  0.2885
 2908TIP3    H1 8688   0.544   5.633   1.852  0.6675 -1.6968 -0.0086
 2908TIP3    H2 8689   0.693   5.653   1.835  0.4104 -1.4136 -2.1475
 2909TIP3   OH2 8690   1.731   2.130   0.848 -0.1990  0.1327  0.4846
 2909TIP3    H1 8691   1.756   2.141   0.756  0.3526 -0.8922  0.5011
 2909TIP3    H2 8692   1.635   2.140   0.848 -0.1383  0.7663 -0.0993
 2910TIP3   OH2 8693   2.512   2.500   2.886 -0.1166 -0.0704 -0.4129
 2910TIP3    H1 8694   2.571   2.560   2.932  2.5242 -2.2956 -0.6170
 2910TIP3    H2 8695   2.569   2.454   2.823 -1.6610 -3.4764  0.4297
 2911TIP3   OH2 8696   5.682   2.691   0.151 -0.4388  0.3365 -0.1127
 2911TIP3    H1 8697   5.709   2.624   0.088  0.4185  0.1405  0.4532
 2911TIP3    H2 8698   5.590   2.707   0.131 -0.4481 -0.4633 -0.7454
 2912TIP3   OH2 8699   1.720   2.531   2.801  0.0270 -0.8355 -0.3860
 2912TIP3    H1 8700   1.709   2.622   2.828  2.8450 -0.5233  0.0153
 2912TIP3    H2 8701   1.763   2.536   2.716  0.7651 -1.7613 -0.0861
 2913TIP3   OH2 8702   3.942   6.281   3.511 -0.1292  0.5113  0.2583
 2913TIP3    H1 8703   3.853   6.314   3.507 -0.7368 -1.0803 -0.1635
 2913TIP3    H2 8704   3.936   6.203   3.566  1.1261  0.7190  0.7293
 2914TIP3   OH2 8705   5.871   3.240   5.789  0.6853 -0.5180  0.4351
 2914TIP3    H1 8706   5.809   3.193   5.733 -1.3226  0.7728  1.4806
 2914TIP3    H2 8707   5.955   3.232   5.744 -0.3160 -1.8838 -1.2982
 2915TIP3   OH2 8708   4.868   2.181   5.549  0.8786 -0.6876 -0.6987
 2915TIP3    H1 8709   4.831   2.203   5.463  1.6320 -0.7722 -1.0559
 2915TIP3    H2 8710   4.870   2.264   5.596 -2.8828 -1.1623  0.6237
 2916TIP3   OH2 8711   0.484   4.935   2.766 -0.4719 -0.0294  0.0421
 2916TIP3    H1 8712   0.573   4.952   2.735 -0.5871 -0.3224 -0.4673
 2916TIP3    H2 8713   0.430   4.939   2.687 -1.0081  0.7719  0.4418
 2917TIP3   OH2 8714   3.715   4.367   0.491  0.1231  0.0660  0.7063
 2917TIP3    H1 8715   3.791   4.424   0.505 -0.9499  1.8010 -0.1778
 2917TIP3    H2 8716   3.641   4.427   0.488 -0.9277 -1.2096 -1.6950
 2918TIP3   OH2 8717   0.676   4.766   3.625  0.0277  0.1540 -0.1496
 2918TIP3    H1 8718   0.605   4.710   3.654 -0.1940  0.3802 -0.2551
 2918TIP3    H2 8719   0.653   4.790   3.535 -0.8413  1.9305  0.5082
 2919TIP3   OH2 8720   2.442   3.699   4.291 -0.2524  0.4799  0.0758
 2919TIP3    H1 8721   2.449   3.604   4.299 -0.9879  0.3747 -0.4820
 2919TIP3    H2 8722   2.426   3.714   4.198  1.0353  1.2323 -0.0502
 2920TIP3   OH2 8723   0.435   4.125   3.667  0.0106  0.0212 -0.5904
 2920TIP3    H1 8724   0.350   4.168   3.654  1.2639  2.5032 -1.1979
 2920TIP3    H2 8725   0.482   4.184   3.725  2.1138 -0.1502 -2.0316
 2921TIP3   OH2 8726   0.131   0.455   2.774 -0.3113  0.1011 -0.5304
 2921TIP3    H1 8727   0.107   0.363   2.767 -0.2911  0.1786 -1.8284
 2921TIP3    H2 8728   0.100   0.482   2.860  1.1805 -1.5463  0.5711
 2922TIP3   OH2 8729   5.253   4.267   3.692  0.3000  0.2924  0.0991
 2922TIP3    H1 8730   5.186   4.201   3.674 -1.5989  1.8629  1.0369
 2922TIP3    H2 8731   5.288   4.244   3.778 -0.7193  0.7415  0.6550
 2923TIP3   OH2 8732   4.872   3.771   1.701 -0.1043 -0.3937 -0.5199
 2923TIP3    H1 8733   4.860   3.684   1.664 -0.7009 -0.1191 -0.9903
 2923TIP3    H2 8734   4.784   3.805   1.713  0.0898 -0.3512  0.8864
 2924TIP3   OH2 8735   7.002   4.109   5.298  0.5325  0.4864  0.5592
 2924TIP3    H1 8736   6.936   4.049   5.334  1.3356 -0.5392  0.3416
 2924TIP3    H2 8737   7.060   4.127   5.372  2.1969 -1.6367 -0.1508
 2925TIP3   OH2 8738   6.093   5.921   3.563 -0.1886 -0.5602 -0.1002
 2925TIP3    H1 8739   5.999   5.921   3.541  0.0157 -0.2262 -1.0181
 2925TIP3    H2 8740   6.105   5.840   3.612 -1.1233 -0.1853  0.8047
 2926TIP3   OH2 8741   6.878   0.678   2.298  0.3027 -0.0754 -0.8059
 2926TIP3    H1 8742   6.876   0.583   2.309 -1.2230 -0.0052 -0.0888
 2926TIP3    H2 8743   6.840   0.693   2.212 -0.5578 -0.0871 -0.4396
 2927TIP3   OH2 8744   1.830   1.177   1.061  0.1342  0.8294 -0.3347
 2927TIP3    H1 8745   1.805   1.109   0.998 -0.6093  0.7969 -0.0129
 2927TIP3    H2 8746   1.799   1.258   1.022  0.7463  0.9596 -0.5703
 2928TIP3   OH2 8747   0.401   5.307   1.490  0.2890  0.1938 -0.1944
 2928TIP3    H1 8748   0.465   5.354   1.438  3.2953 -4.0597 -0.8565
 2928TIP3    H2 8749   0.328   5.292   1.430 -0.3253  2.8594 -0.2439
 2929TIP3   OH2 8750   3.656   0.584   5.807  0.0879  0.4528  0.0911
 2929TIP3    H1 8751   3.640   0.503   5.759  1.2708 -1.6109  2.9249
 2929TIP3    H2 8752   3.732   0.623   5.764  1.4451 -1.5949  0.4708
 2930TIP3   OH2 8753   0.186   0.741   4.647  0.1210  0.1042  0.0743
 2930TIP3    H1 8754   0.186   0.650   4.676 -1.4302  0.0043 -0.1902
 2930TIP3    H2 8755   0.137   0.741   4.565 -0.7492  1.3046  0.5574
 2931TIP3   OH2 8756   1.649   3.782   5.663  0.2454 -0.1212 -0.0615
 2931TIP3    H1 8757   1.737   3.797   5.628  0.3659  1.4281  0.7901
 2931TIP3    H2 8758   1.612   3.714   5.608  2.0364 -0.9214 -0.3356
 2932TIP3   OH2 8759   0.238   2.536   0.519 -0.2987  0.9664 -0.4783
 2932TIP3    H1 8760   0.266   2.612   0.468  2.0386  0.1328 -0.5538
 2932TIP3    H2 8761   0.314   2.514   0.573 -0.9415 -1.2510 -0.3724
 2933TIP3   OH2 8762   0.557   6.696   5.149 -0.1180 -0.0423 -0.0503
 2933TIP3    H1 8763   0.470   6.670   5.179  0.8843 -1.5107  1.7970
 2933TIP3    H2 8764   0.599   6.614   5.123  0.6846  0.6660 -1.0850
 2934TIP3   OH2 8765   4.125   2.517   2.555 -0.2958 -0.2806  0.2091
 2934TIP3    H1 8766   4.056   2.579   2.578 -0.6120  0.2189 -1.9010
 2934TIP3    H2 8767   4.092   2.432   2.585 -0.0615  0.4198  2.7076
 2935TIP3   OH2 8768   2.355   1.188   4.420  0.5135  0.0469 -0.2952
 2935TIP3    H1 8769   2.445   1.208   4.446  0.2747 -0.4945  1.0939
 2935TIP3    H2 8770   2.301   1.239   4.481 -0.1097 -0.0737 -0.7397
 2936TIP3   OH2 8771   5.169   4.046   0.891  0.0292 -0.1014  0.1375
 2936TIP3    H1 8772   5.105   3.989   0.849  1.0577 -2.6505  1.7545
 2936TIP3    H2 8773   5.236   4.062   0.824  0.4848 -2.1469  0.0430
 2937TIP3   OH2 8774   5.749   0.805   4.283  0.0034 -0.1470  0.4401
 2937TIP3    H1 8775   5.789   0.718   4.287  1.0686  0.2539 -0.9299
 2937TIP3    H2 8776   5.801   0.858   4.343 -0.7344 -0.4682  1.3845
 2938TIP3   OH2 8777   6.198   2.813   1.538 -0.0009 -0.1164 -0.5431
 2938TIP3    H1 8778   6.206   2.817   1.443  0.7816 -0.2899 -0.4897
 2938TIP3    H2 8779   6.206   2.720   1.558 -1.8276 -0.2922 -0.4328
 2939TIP3   OH2 8780   1.040   5.583   2.914  0.0818  0.4186  0.4599
 2939TIP3    H1 8781   1.060   5.490   2.923 -2.2257 -0.5488 -2.6604
 2939TIP3    H2 8782   0.973   5.601   2.981  0.3928 -0.2015  0.9388
 2940TIP3   OH2 8783   5.996   1.680   1.712 -0.4524  0.2138 -0.0411
 2940TIP3    H1 8784   5.916   1.703   1.664 -0.4832 -0.3100 -0.2518
 2940TIP3    H2 8785   6.056   1.648   1.645 -0.3068 -0.0263  0.2001
 2941TIP3   OH2 8786   5.412   4.991   0.625 -0.4669  0.0725 -0.2397
 2941TIP3    H1 8787   5.434   5.078   0.656 -0.8887  0.7528 -1.7787
 2941TIP3    H2 8788   5.483   4.967   0.566 -0.3547 -0.6293  0.1679
 2942TIP3   OH2 8789   6.928   2.993   3.655  0.9449  0.2918 -0.4853
 2942TIP3    H1 8790   6.966   2.924   3.601  3.1091  2.0859 -1.4264
 2942TIP3    H2 8791   6.948   2.967   3.745  0.1641 -1.1238 -0.6949
 2943TIP3   OH2 8792   5.232   0.032   4.372  0.1192  0.1276 -0.2277
 2943TIP3    H1 8793   5.184  -0.018   4.438  0.5180  0.4864  0.3400
 2943TIP3    H2 8794   5.203  -0.005   4.288 -0.6774 -0.0710  0.1282
 2944TIP3   OH2 8795   4.569   3.987   0.122 -0.0701  0.5750 -0.1667
 2944TIP3    H1 8796   4.611   3.910   0.159  1.0553  0.4743 -1.5587
 2944TIP3    H2 8797   4.641   4.048   0.105 -0.5676  0.7608 -1.7957
 2945TIP3   OH2 8798   3.473   4.441   5.534  0.0029  0.4553 -0.3787
 2945TIP3    H1 8799   3.492   4.374   5.469 -1.9991  0.9242 -1.5329
 2945TIP3    H2 8800   3.458   4.521   5.484 -2.3804  0.6583  0.5242
 2946TIP3   OH2 8801   3.081   2.879   1.993  0.0550  0.6529 -0.0087
 2946TIP3    H1 8802   3.137   2.812   1.954 -0.9886  0.2981 -0.9392
 2946TIP3    H2 8803   3.115   2.962   1.958  1.5158  0.6698  1.3560
 2947TIP3   OH2 8804   0.088   2.665   3.122 -0.0855 -0.3765 -0.3100
 2947TIP3    H1 8805   0.067   2.576   3.093 -2.1468  0.2380 -0.8013
 2947TIP3    H2 8806   0.061   2.722   3.050 -0.6322  0.7949  0.7740
 2948TIP3   OH2 8807   5.276   6.720   5.810 -0.4685 -0.1576 -0.0820
 2948TIP3    H1 8808   5.233   6.653   5.756  0.7137 -0.7084 -0.3626
 2948TIP3    H2 8809   5.302   6.788   5.749  2.5915 -1.6494 -0.6095
 2949TIP3   OH2 8810   1.624   4.091   2.212 -0.8107  0.5757 -0.1846
 2949TIP3    H1 8811   1.604   4.051   2.128  1.9291  1.4260 -1.3596
 2949TIP3    H2 8812   1.702   4.144   2.196  0.1463  0.3932  2.9914
 2950TIP3   OH2 8813   2.107   4.289   4.837 -0.4894 -0.4163  0.5949
 2950TIP3    H1 8814   2.167   4.356   4.804  1.2164 -1.1792  1.9963
 2950TIP3    H2 8815   2.104   4.224   4.768 -0.6563  0.1896  0.0167
 2951TIP3   OH2 8816   7.131   1.765   4.824 -0.5305  0.2097 -0.2851
 2951TIP3    H1 8817   7.159   1.821   4.896 -0.0233  0.8570 -0.9695
 2951TIP3    H2 8818   7.051   1.722   4.856 -2.0522  2.7644 -0.4198
 2952TIP3   OH2 8819   6.220   0.215   3.562  0.1415  0.9869 -0.1467
 2952TIP3    H1 8820   6.138   0.259   3.582  0.3494  2.1921 -1.6946
 2952TIP3    H2 8821   6.287   0.283   3.570  0.9387  0.1482  0.5954
 2953TIP3   OH2 8822   6.549   5.060   4.197 -0.0502 -0.6475 -0.2431
 2953TIP3    H1 8823   6.461   5.094   4.180  0.3381  0.2085 -0.6165
 2953TIP3    H2 8824   6.583   5.035   4.111  0.4089 -0.1204 -0.2207
 2954TIP3   OH2 8825   2.395   5.660   4.308  0.5501  0.2232 -0.2496
 2954TIP3    H1 8826   2.384   5.581   4.360  0.2492  0.2877 -0.2133
 2954TIP3    H2 8827   2.335   5.724   4.348 -0.3469  0.0142 -1.2096
 2955TIP3   OH2 8828   6.661   3.957   1.351  0.2394  0.5277  0.3939
 2955TIP3    H1 8829   6.597   3.891   1.378 -0.0721  1.6608  2.7201
 2955TIP3    H2 8830   6.722   3.962   1.425  2.0697  0.6499 -1.0697
 2956TIP3   OH2 8831   4.255   5.913   3.808  0.2769 -0.1156 -0.5082
 2956TIP3    H1 8832   4.219   5.850   3.871  1.2271  0.1141  0.2856
 2956TIP3    H2 8833   4.223   5.883   3.723 -0.9985 -0.4529  0.0707
 2957TIP3   OH2 8834   4.894   0.194   5.131 -0.4244 -0.0390  0.1846
 2957TIP3    H1 8835   4.804   0.221   5.119 -0.2609  0.9150  1.0227
 2957TIP3    H2 8836   4.944   0.245   5.067 -0.3841 -0.0289  0.2242
 2958TIP3   OH2 8837   1.822   5.422   4.206  0.1175  0.3006  0.4228
 2958TIP3    H1 8838   1.797   5.424   4.299  1.9298 -0.6156  0.9734
 2958TIP3    H2 8839   1.909   5.383   4.206  0.1833  0.3714 -1.6800
 2959TIP3   OH2 8840   0.798   5.040   1.796 -0.4292 -0.6344 -0.3571
 2959TIP3    H1 8841   0.785   5.044   1.890  0.7215 -0.2274 -0.2124
 2959TIP3    H2 8842   0.744   4.966   1.768 -0.0373 -1.3535  0.7436
 2960TIP3   OH2 8843   5.259   5.967   2.920 -0.1824 -0.3963  0.1181
 2960TIP3    H1 8844   5.215   5.938   3.000 -1.2269  0.8517  0.0316
 2960TIP3    H2 8845   5.196   5.949   2.850  0.1467 -0.1772 -0.2371
 2961TIP3   OH2 8846   3.723   2.243   4.271  0.5473 -0.1461 -0.5684
 2961TIP3    H1 8847   3.736   2.332   4.304 -1.0601  0.1506 -0.6386
 2961TIP3    H2 8848   3.766   2.243   4.186 -0.2316  0.8695 -0.9897
 2962TIP3   OH2 8849   6.185   6.415   1.567  0.1867  0.5611 -0.3798
 2962TIP3    H1 8850   6.148   6.502   1.579  2.6429  2.0416 -2.4593
 2962TIP3    H2 8851   6.156   6.388   1.480  0.7854  0.0299 -0.4227
 2963TIP3   OH2 8852   5.298   3.384   0.694  0.0981  0.0496 -0.6320
 2963TIP3    H1 8853   5.306   3.470   0.736 -1.1699  0.6062 -1.4481
 2963TIP3    H2 8854   5.256   3.329   0.761  0.0318  0.3411 -0.4314
 2964TIP3   OH2 8855   2.659   4.803   2.264 -0.4856 -0.2998  0.3181
 2964TIP3    H1 8856   2.728   4.821   2.200 -0.4317  0.4212  0.5789
 2964TIP3    H2 8857   2.691   4.728   2.313 -0.2268 -0.4341 -0.0498
 2965TIP3   OH2 8858   3.943   2.938   3.342  0.3058 -0.3638 -0.5624
 2965TIP3    H1 8859   3.855   2.938   3.379 -0.0510 -0.9492 -1.3783
 2965TIP3    H2 8860   3.967   2.846   3.336  1.3376 -0.1814  0.4557
 2966TIP3   OH2 8861   1.465   5.587   5.825  0.2518 -0.7277 -0.1809
 2966TIP3    H1 8862   1.426   5.576   5.912 -0.8782  1.2317 -0.3826
 2966TIP3    H2 8863   1.526   5.660   5.835  0.5153 -0.8404 -0.9113
 2967TIP3   OH2 8864   5.689   6.160   0.170  0.6576  0.3226 -1.1802
 2967TIP3    H1 8865   5.685   6.188   0.261  1.5591 -0.2575 -0.9488
 2967TIP3    H2 8866   5.605   6.187   0.133 -0.0624 -0.1777  0.0373
 2968TIP3   OH2 8867   3.220   6.716   3.861 -0.5001 -0.1218 -0.2076
 2968TIP3    H1 8868   3.258   6.777   3.924  0.9655  0.2625 -1.3961
 2968TIP3    H2 8869   3.155   6.667   3.911  0.5396  0.2183  1.5656
 2969TIP3   OH2 8870   4.589   3.131   4.181  0.4297  0.1399  0.0034
 2969TIP3    H1 8871   4.587   3.105   4.088  1.2485  2.1178 -0.6275
 2969TIP3    H2 8872   4.681   3.118   4.206  0.3474  0.2388  0.3482
 2970TIP3   OH2 8873   2.971   2.318   3.894 -0.2362  0.1972 -0.3231
 2970TIP3    H1 8874   2.943   2.266   3.818 -1.0919  0.0146  0.1067
 2970TIP3    H2 8875   3.033   2.261   3.939 -2.0912 -1.0207  0.8291
 2971TIP3   OH2 8876   5.041   4.852   1.181  0.1791 -0.4487 -0.0209
 2971TIP3    H1 8877   5.054   4.757   1.190  2.8394 -0.2101 -0.6054
 2971TIP3    H2 8878   4.957   4.860   1.136  0.3633 -2.5770 -0.8698
 2972TIP3   OH2 8879   3.299   6.530   2.446 -0.0090  0.1001  0.2671
 2972TIP3    H1 8880   3.381   6.575   2.423  0.5532 -0.7367  0.5961
 2972TIP3    H2 8881   3.233   6.600   2.446  0.9923  1.1040  1.6106
 2973TIP3   OH2 8882   5.426   3.966   0.407  0.0666  0.0947 -0.2283
 2973TIP3    H1 8883   5.459   4.023   0.338 -0.8160  0.8625 -0.0341
 2973TIP3    H2 8884   5.335   3.992   0.418  0.1513 -0.1196  1.1153
 2974TIP3   OH2 8885   6.535   5.619   0.426 -0.2893  0.0405 -0.1074
 2974TIP3    H1 8886   6.456   5.579   0.389  0.6750  1.2870 -3.9638
 2974TIP3    H2 8887   6.580   5.547   0.471 -1.2270 -1.9174 -2.1196
 2975TIP3   OH2 8888   2.743   2.569   5.886 -0.2946 -0.3241  0.0306
 2975TIP3    H1 8889   2.802   2.495   5.874 -0.9158 -1.1007  1.5303
 2975TIP3    H2 8890   2.673   2.555   5.823 -0.2271 -0.8309  0.0643
 2976TIP3   OH2 8891   0.027   1.945   5.084  0.1395 -0.0445  0.5053
 2976TIP3    H1 8892   0.057   2.003   5.014  1.7706 -1.3095  0.0887
 2976TIP3    H2 8893  -0.004   2.003   5.152  2.3082  1.3712  0.3690
 2977TIP3   OH2 8894   3.926   3.181   5.244 -0.4252 -0.7230  0.6237
 2977TIP3    H1 8895   3.949   3.184   5.151 -0.8144 -0.5083  0.5346
 2977TIP3    H2 8896   3.989   3.119   5.282  0.4770  0.0486  0.4393
 2978TIP3   OH2 8897   3.124   2.416   5.247  0.0723  0.3826  0.2486
 2978TIP3    H1 8898   3.214   2.383   5.255  0.3248  0.6316 -1.2210
 2978TIP3    H2 8899   3.131   2.489   5.185 -1.4894 -1.2103 -1.9415
 2979TIP3   OH2 8900   1.201   1.263   4.743  0.4061 -0.0280 -0.5802
 2979TIP3    H1 8901   1.216   1.171   4.723  1.0292  0.4033 -2.2361
 2979TIP3    H2 8902   1.222   1.271   4.836  1.1361 -1.3915 -0.5997
 2980TIP3   OH2 8903   3.106   1.838   3.007 -0.2659  0.5408 -0.4261
 2980TIP3    H1 8904   3.153   1.921   3.014 -1.5519  1.1653  1.4863
 2980TIP3    H2 8905   3.173   1.776   2.978  0.7485  2.1869 -1.8332
 2981TIP3   OH2 8906   0.274   0.740   2.046  0.3165  0.5335  0.0044
 2981TIP3    H1 8907   0.326   0.686   2.105  0.0709 -1.4210 -1.4747
 2981TIP3    H2 8908   0.190   0.752   2.091  0.1888 -0.8043  0.1603
 2982TIP3   OH2 8909   4.154   6.553   0.489 -0.6654 -0.2397 -0.2970
 2982TIP3    H1 8910   4.069   6.513   0.508  0.6448 -2.7973  0.6683
 2982TIP3    H2 8911   4.170   6.533   0.396  0.0647 -2.3226  0.2234
 2983TIP3   OH2 8912   5.538   4.104   4.395  0.0501  0.7684  0.0042
 2983TIP3    H1 8913   5.605   4.039   4.376  0.9500  1.6091  0.1824
 2983TIP3    H2 8914   5.587   4.187   4.402 -1.3219  1.9082 -2.6492
 2984TIP3   OH2 8915   4.099   3.159   3.392  0.4406 -0.1214  0.1102
 2984TIP3    H1 8916   4.031   3.219   3.425  0.7503  1.0233 -1.2487
 2984TIP3    H2 8917   4.050   3.083   3.361 -0.1448  0.2852  0.0198
 2985TIP3   OH2 8918   6.196   1.906   4.883  0.5319 -0.3790 -0.1078
 2985TIP3    H1 8919   6.259   1.834   4.890  0.4584 -0.4766 -0.4113
 2985TIP3    H2 8920   6.243   1.982   4.917  0.4143 -0.6821  0.7485
 2986TIP3   OH2 8921   4.495   0.284   0.971 -0.2388 -0.1419 -0.1053
 2986TIP3    H1 8922   4.408   0.249   0.952 -0.1470 -0.6377  0.3541
 2986TIP3    H2 8923   4.538   0.215   1.022  1.2262 -0.8599 -2.2034
 2987TIP3   OH2 8924   1.484   2.143   2.615  0.0650  0.1061 -0.1291
 2987TIP3    H1 8925   1.530   2.227   2.620 -1.0279  0.6785  1.8187
 2987TIP3    H2 8926   1.453   2.129   2.705 -2.4214 -0.8508 -1.0640
 2988TIP3   OH2 8927   5.049   1.171   5.035  0.0938  0.2714 -0.0323
 2988TIP3    H1 8928   5.004   1.095   5.071  0.2923  0.3149  0.3066
 2988TIP3    H2 8929   5.029   1.168   4.941  0.8073 -0.6765 -0.1693
 2989TIP3   OH2 8930   5.433   3.870   4.970  0.5359  0.4123 -0.0955
 2989TIP3    H1 8931   5.427   3.964   4.953 -1.0000  0.1703 -1.0881
 2989TIP3    H2 8932   5.409   3.861   5.062  1.6969  1.0584  0.2988
 2990TIP3   OH2 8933   4.409   2.119   0.807  0.4784  0.0179  0.1428
 2990TIP3    H1 8934   4.417   2.045   0.746 -2.3473 -0.4500  0.1725
 2990TIP3    H2 8935   4.414   2.078   0.894  3.7717  0.5892  0.3217
 2991TIP3   OH2 8936   1.474   5.121   3.230  0.9418 -0.0558 -0.8850
 2991TIP3    H1 8937   1.565   5.131   3.259 -0.1525  0.7007  2.6743
 2991TIP3    H2 8938   1.439   5.050   3.283 -0.8349  0.2910 -1.5329
 2992TIP3   OH2 8939   0.565   4.579   4.227  0.1046  0.9038  0.0218
 2992TIP3    H1 8940   0.616   4.590   4.147  0.3068 -0.6401 -0.0947
 2992TIP3    H2 8941   0.491   4.524   4.200 -0.0912  0.7792  0.7933
 2993TIP3   OH2 8942   4.853   2.687   5.727 -0.2816 -0.5110 -0.3475
 2993TIP3    H1 8943   4.863   2.743   5.804 -0.9806  0.0210 -0.6331
 2993TIP3    H2 8944   4.840   2.599   5.764  0.3472 -0.4162  0.1157
 2994TIP3   OH2 8945   1.550   4.187   3.296 -0.0590  0.1981 -0.4020
 2994TIP3    H1 8946   1.616   4.232   3.349  0.2374  0.0780 -0.6668
 2994TIP3    H2 8947   1.495   4.258   3.261 -0.7161  0.2343  0.6657
 2995TIP3   OH2 8948   7.099   6.611   3.298 -0.2380 -0.2278 -0.7313
 2995TIP3    H1 8949   7.004   6.600   3.303 -0.0186 -1.6211  0.8786
 2995TIP3    H2 8950   7.121   6.579   3.211 -1.1429 -0.6077 -0.8346
 2996TIP3   OH2 8951   1.917   6.372   0.744 -0.0347 -0.3697  0.1409
 2996TIP3    H1 8952   1.832   6.330   0.755  0.7150 -1.4314  2.7884
 2996TIP3    H2 8953   1.910   6.454   0.793 -0.1828  0.6179 -1.4855
 2997TIP3   OH2 8954   5.950   2.473   1.632  0.6364 -0.4537 -0.1498
 2997TIP3    H1 8955   5.863   2.478   1.592  0.3888  0.8079  0.4799
 2997TIP3    H2 8956   6.010   2.467   1.558  0.0446 -0.9676 -0.6039
 2998TIP3   OH2 8957   0.671   0.123   4.234 -0.3256  0.0723  0.4885
 2998TIP3    H1 8958   0.726   0.063   4.284 -1.0965 -0.6499  0.4898
 2998TIP3    H2 8959   0.663   0.082   4.147  0.7889  1.1839 -0.1739
 2999TIP3   OH2 8960   2.061   1.688   2.220 -0.4010 -0.6107 -0.3896
 2999TIP3    H1 8961   2.105   1.643   2.293  0.7890 -0.6631 -1.1054
 2999TIP3    H2 8962   1.999   1.623   2.186  1.3842 -1.8483 -1.4948
 3000TIP3   OH2 8963   7.149   0.091   0.622  0.0617 -0.1114 -0.2137
 3000TIP3    H1 8964   7.102   0.117   0.543 -0.1006 -0.5306 -0.2573
 3000TIP3    H2 8965   7.231   0.053   0.591 -1.6665 -4.0871 -0.4886
 3001TIP3   OH2 8966   5.177   6.316   0.204 -0.0805  0.2571 -0.3433
 3001TIP3    H1 8967   5.149   6.284   0.118  0.9056 -0.8434 -0.2766
 3001TIP3    H2 8968   5.260   6.362   0.187  0.4728 -0.5534  0.0982
 3002TIP3   OH2 8969   6.695   3.406   1.847  0.3076 -0.3033 -0.3789
 3002TIP3    H1 8970   6.783   3.441   1.835  0.3439 -0.2478  0.0379
 3002TIP3    H2 8971   6.707   3.330   1.905 -0.0150  0.1909  0.3490
 3003TIP3   OH2 8972   2.049   0.977   3.764  0.6382 -0.2874  0.7997
 3003TIP3    H1 8973   2.002   0.904   3.804  0.2846  0.0957  1.0796
 3003TIP3    H2 8974   1.993   1.004   3.691  0.2412  0.4107  1.3595
 3004TIP3   OH2 8975   6.148   0.298   5.551  0.5658  0.1355 -0.0290
 3004TIP3    H1 8976   6.053   0.307   5.547  0.4152 -1.2849 -0.3503
 3004TIP3    H2 8977   6.182   0.376   5.507 -0.4731  0.2006 -0.7535
 3005TIP3   OH2 8978   2.908   3.776   3.617 -0.0646  0.0401 -0.2136
 3005TIP3    H1 8979   2.847   3.787   3.690  0.3964  1.7285 -0.0409
 3005TIP3    H2 8980   2.903   3.683   3.596 -2.1976  0.0017  0.2219
 3006TIP3   OH2 8981   2.889   4.194   3.358  0.0551 -0.7059  0.2406
 3006TIP3    H1 8982   2.915   4.201   3.266  1.2914 -1.2978  0.5179
 3006TIP3    H2 8983   2.839   4.112   3.363  0.2097 -0.8078  0.1344
 3007TIP3   OH2 8984   1.356   2.181   5.188 -0.4338 -0.3416  0.1485
 3007TIP3    H1 8985   1.436   2.153   5.231 -0.5829  0.8480  1.2694
 3007TIP3    H2 8986   1.307   2.227   5.256 -2.5057 -1.8226 -0.2443
 3008TIP3   OH2 8987   5.464   0.048   5.166 -0.2729 -0.4602  0.4428
 3008TIP3    H1 8988   5.509   0.085   5.090 -0.9743 -0.0897  0.2049
 3008TIP3    H2 8989   5.371   0.054   5.145 -0.4211 -2.4626  0.3439
 3009TIP3   OH2 8990   5.428   6.219   0.029  0.2916  0.0085 -0.5666
 3009TIP3    H1 8991   5.464   6.307   0.038  0.1215  0.1580 -1.2430
 3009TIP3    H2 8992   5.401   6.214  -0.063  1.3436 -1.1353 -0.8519
 3010TIP3   OH2 8993   1.845   0.391   2.671  0.4088  0.0237 -0.1136
 3010TIP3    H1 8994   1.813   0.435   2.750  2.5977 -0.0115  0.8668
 3010TIP3    H2 8995   1.811   0.443   2.599 -0.0859  1.1801  0.9082
 3011TIP3   OH2 8996   1.290   6.208   0.957 -0.2622 -0.5662  0.0818
 3011TIP3    H1 8997   1.246   6.143   0.902  1.2111 -2.1079  0.6268
 3011TIP3    H2 8998   1.381   6.207   0.927 -0.4935  2.6169 -1.0944
 3012TIP3   OH2 8999   5.027   0.036   5.330  0.7590  0.7386  0.2669
 3012TIP3    H1 9000   5.006   0.064   5.419  0.3816  0.4607  0.2669
 3012TIP3    H2 9001   4.987   0.103   5.274  1.4413  1.1936  0.3200
 3013TIP3   OH2 9002   5.394   2.260   0.509  0.3522 -0.1659 -0.2385
 3013TIP3    H1 9003   5.349   2.209   0.442 -1.6075 -0.5069  1.2652
 3013TIP3    H2 9004   5.468   2.205   0.535 -0.4312 -1.2308 -0.2182
 3014TIP3   OH2 9005   0.415   6.440   1.594 -0.7102  0.2539  0.0338
 3014TIP3    H1 9006   0.399   6.405   1.682  1.3781  1.8108  1.1319
 3014TIP3    H2 9007   0.506   6.416   1.575 -1.1444 -0.1168 -1.7895
 3015TIP3   OH2 9008   3.864   3.794   5.233 -0.7925  0.5075 -0.6866
 3015TIP3    H1 9009   3.819   3.743   5.166 -1.4232  0.0703  0.0534
 3015TIP3    H2 9010   3.957   3.790   5.209 -1.0908  1.1229 -2.0313
 3016TIP3   OH2 9011   4.433   4.163   5.463  0.0978 -0.3534  0.0391
 3016TIP3    H1 9012   4.410   4.080   5.420 -1.1080 -0.4287  0.7524
 3016TIP3    H2 9013   4.468   4.218   5.393  1.0222 -1.4890 -0.4312
 3017TIP3   OH2 9014   7.091   6.467   2.210 -0.2448 -0.5494 -0.0908
 3017TIP3    H1 9015   7.081   6.376   2.182  2.0523 -0.6087 -0.9099
 3017TIP3    H2 9016   7.185   6.478   2.224 -0.5626  1.4854  0.7659
 3018TIP3   OH2 9017   2.282   5.870   1.644 -0.2739 -0.3069 -0.6029
 3018TIP3    H1 9018   2.250   5.897   1.730  0.1373 -0.8491 -0.2785
 3018TIP3    H2 9019   2.288   5.775   1.649  0.0557 -0.3184 -1.1278
 3019TIP3   OH2 9020   1.506   3.816   2.389 -0.3996 -0.3957  0.2248
 3019TIP3    H1 9021   1.517   3.911   2.385 -1.1722 -0.3061 -0.0219
 3019TIP3    H2 9022   1.564   3.781   2.322  0.0809 -0.1122  0.4961
 3020TIP3   OH2 9023   6.863   3.079   3.171  0.2770  0.0444  0.1663
 3020TIP3    H1 9024   6.888   3.060   3.262  1.8996 -2.4922 -0.7022
 3020TIP3    H2 9025   6.930   3.037   3.118 -0.3093  1.9283 -2.2582
 3021TIP3   OH2 9026   6.458   5.488   4.574 -0.0721  0.0804  0.2871
 3021TIP3    H1 9027   6.525   5.547   4.540 -0.5906  1.2042  1.1303
 3021TIP3    H2 9028   6.505   5.428   4.631  0.2519  0.8146  0.8171
 3022TIP3   OH2 9029   3.904   4.240   2.282 -0.0567  0.4266 -0.2411
 3022TIP3    H1 9030   3.914   4.271   2.192  0.7427  2.6781  0.5446
 3022TIP3    H2 9031   3.993   4.220   2.311 -0.0430  1.6508  0.6424
 3023TIP3   OH2 9032   2.138   5.532   4.535  0.1804  0.4351  0.5488
 3023TIP3    H1 9033   2.153   5.600   4.601 -1.0983 -0.4054  1.7777
 3023TIP3    H2 9034   2.043   5.530   4.524  0.2142 -0.9406  0.3174
 3024TIP3   OH2 9035   1.030   0.829   3.051 -0.0121  0.5035 -0.7790
 3024TIP3    H1 9036   1.092   0.818   3.122  0.6315 -1.9306 -1.6188
 3024TIP3    H2 9037   0.976   0.904   3.077  1.3824  0.8452  1.3369
 3025TIP3   OH2 9038   3.679   3.470   0.579 -0.1964 -0.1343  0.0718
 3025TIP3    H1 9039   3.736   3.506   0.648 -1.5128  0.4182  0.8952
 3025TIP3    H2 9040   3.655   3.546   0.526  0.8791 -0.5700 -1.0838
 3026TIP3   OH2 9041   4.558   2.091   5.184  0.2776 -0.3450 -0.1185
 3026TIP3    H1 9042   4.462   2.083   5.188  0.4640 -3.1355  1.5232
 3026TIP3    H2 9043   4.574   2.148   5.110 -2.6965  1.9746  0.8324
 3027TIP3   OH2 9044   0.807   2.387   1.293  0.8632 -0.0752  0.6628
 3027TIP3    H1 9045   0.841   2.470   1.327 -0.4261  0.2830  1.1350
 3027TIP3    H2 9046   0.724   2.375   1.338  0.5531 -1.1225 -0.1549
 3028TIP3   OH2 9047   2.511   4.998   3.325 -0.0761  0.0978 -0.6366
 3028TIP3    H1 9048   2.544   5.083   3.295 -0.5059  0.6128  0.3100
 3028TIP3    H2 9049   2.531   4.995   3.418  0.7527 -1.2498 -0.8300
 3029TIP3   OH2 9050   1.806   4.621   2.957 -0.2386 -0.1691 -0.5816
 3029TIP3    H1 9051   1.767   4.676   2.889 -0.0620 -1.0882 -1.4469
 3029TIP3    H2 9052   1.760   4.538   2.951  1.3574 -1.0650 -1.2037
 3030TIP3   OH2 9053   2.433   0.322   2.936 -0.3939 -0.7441  0.3243
 3030TIP3    H1 9054   2.527   0.327   2.918 -0.2495 -1.4411  0.8563
 3030TIP3    H2 9055   2.420   0.234   2.971 -1.3318 -0.8373 -0.2291
 3031TIP3   OH2 9056   5.464   5.870   4.338 -0.0237  0.4426 -0.0189
 3031TIP3    H1 9057   5.559   5.862   4.337 -0.1290 -0.9354 -0.6357
 3031TIP3    H2 9058   5.439   5.879   4.246 -0.5613 -0.3561  0.0375
 3032TIP3   OH2 9059   1.945   4.881   0.919 -0.4024  0.2782  0.3527
 3032TIP3    H1 9060   1.925   4.921   1.004 -1.3016  0.2063  0.1908
 3032TIP3    H2 9061   2.028   4.920   0.893 -1.0970  1.8475  0.3486
 3033TIP3   OH2 9062   4.483   1.291   2.066  0.0280  0.1805 -0.0337
 3033TIP3    H1 9063   4.436   1.356   2.015 -0.0149 -0.0153 -0.2412
 3033TIP3    H2 9064   4.457   1.207   2.029  0.8856  0.0881 -0.4561
 3034TIP3   OH2 9065   0.726   5.090   0.044  0.0017  0.6083 -0.5195
 3034TIP3    H1 9066   0.716   5.012   0.099  0.6996  0.6774 -0.2809
 3034TIP3    H2 9067   0.714   5.058  -0.045 -4.2094  0.9921 -0.2735
 3035TIP3   OH2 9068   5.643   1.390   4.401  0.0130 -0.6051 -0.0496
 3035TIP3    H1 9069   5.711   1.384   4.334 -1.3302 -2.0824 -1.3733
 3035TIP3    H2 9070   5.658   1.314   4.458 -1.3019 -1.8237 -1.2153
 3036TIP3   OH2 9071   4.068   0.569   1.554  0.4279 -0.5126 -0.2545
 3036TIP3    H1 9072   4.124   0.644   1.538  0.0406 -0.5073 -1.7765
 3036TIP3    H2 9073   4.088   0.509   1.482 -0.1345 -1.3412  0.2626
 3037TIP3   OH2 9074   6.302   6.126   3.047  0.6063  0.8589 -0.4178
 3037TIP3    H1 9075   6.259   6.062   2.990 -0.7259  0.1537  1.2841
 3037TIP3    H2 9076   6.373   6.077   3.089  1.2624  1.2374 -1.0691
 3038TIP3   OH2 9077   1.384   3.785   4.353  0.0794 -0.5008 -0.3925
 3038TIP3    H1 9078   1.453   3.724   4.375  2.0543  2.1257  1.2369
 3038TIP3    H2 9079   1.427   3.870   4.345 -2.8938  1.2649  0.4767
 3039TIP3   OH2 9080   3.317   1.907   2.705 -0.3855  0.0791 -0.3176
 3039TIP3    H1 9081   3.226   1.881   2.691  0.5419 -3.0633 -1.2215
 3039TIP3    H2 9082   3.340   1.869   2.790  0.5292 -0.6147 -0.8624
 3040TIP3   OH2 9083   1.872   6.095   1.526  1.0735 -0.0736 -0.6608
 3040TIP3    H1 9084   1.926   6.017   1.543  0.9095 -0.0739 -0.1036
 3040TIP3    H2 9085   1.913   6.164   1.578 -1.0328 -0.7167  2.1220
 3041TIP3   OH2 9086   6.649   5.651   1.229  0.2029  0.2302 -0.0824
 3041TIP3    H1 9087   6.681   5.576   1.278  2.2789  2.0081  1.4561
 3041TIP3    H2 9088   6.629   5.717   1.295 -0.6411  1.4053 -1.4390
 3042TIP3   OH2 9089   4.760   4.465   4.696  0.5832  0.6877 -0.1641
 3042TIP3    H1 9090   4.833   4.506   4.741 -0.6755  1.4643  1.2502
 3042TIP3    H2 9091   4.700   4.537   4.676 -0.2760 -0.0542 -0.3655
 3043TIP3   OH2 9092   1.916   2.640   3.122  0.8342  0.1171  0.1397
 3043TIP3    H1 9093   1.905   2.588   3.201 -0.9204  0.4716  0.1871
 3043TIP3    H2 9094   1.967   2.584   3.063  2.5288  0.0153  1.6256
 3044TIP3   OH2 9095   0.867   3.716   5.663  0.1205  0.0287 -0.4569
 3044TIP3    H1 9096   0.818   3.740   5.584 -0.6405  1.5217  0.4200
 3044TIP3    H2 9097   0.927   3.790   5.677  0.5750 -0.4399  0.1083
 3045TIP3   OH2 9098   3.677   0.124   5.265  0.0943  0.4859 -0.2620
 3045TIP3    H1 9099   3.702   0.033   5.249 -0.5968  0.3183 -0.4242
 3045TIP3    H2 9100   3.731   0.175   5.204 -0.8284  0.0331 -1.5217
 3046TIP3   OH2 9101   5.348   1.425   5.108 -0.1833 -0.2101  0.3192
 3046TIP3    H1 9102   5.442   1.412   5.096 -0.1072  1.5546 -1.6694
 3046TIP3    H2 9103   5.339   1.518   5.130 -1.5309  0.2084 -1.6812
 3047TIP3   OH2 9104   6.180   4.009   5.664 -0.4336  0.1972  0.0194
 3047TIP3    H1 9105   6.180   4.105   5.667 -2.0734  0.2308  0.2133
 3047TIP3    H2 9106   6.090   3.986   5.639 -0.4993 -1.3052  1.4667
 3048TIP3   OH2 9107   1.934   2.848   0.470 -0.6528 -0.0741  0.2698
 3048TIP3    H1 9108   1.857   2.820   0.520 -0.9109  1.0368  0.5236
 3048TIP3    H2 9109   2.002   2.784   0.493 -0.8145  0.3114  1.9159
 3049TIP3   OH2 9110   1.040   0.112   0.838 -0.0818 -0.7900  0.0596
 3049TIP3    H1 9111   1.037   0.018   0.819  0.9044 -1.7981  3.9105
 3049TIP3    H2 9112   1.129   0.139   0.818  0.0775 -1.0720  0.3834
 3050TIP3   OH2 9113   4.521   3.735   1.322 -0.4083 -0.8037  0.1511
 3050TIP3    H1 9114   4.566   3.659   1.286  0.4430 -0.1733 -0.1185
 3050TIP3    H2 9115   4.437   3.737   1.276  0.6729  0.0314 -1.8817
 3051TIP3   OH2 9116   4.374   6.053   1.179  0.7421  0.1403  0.4555
 3051TIP3    H1 9117   4.369   6.134   1.128 -0.0115  0.0599  0.3959
 3051TIP3    H2 9118   4.337   6.076   1.264  1.3134  0.0791  0.7226
 3052TIP3   OH2 9119   3.416   5.236   3.280 -0.3653 -0.0716 -0.4999
 3052TIP3    H1 9120   3.497   5.189   3.260 -0.4724 -0.0653 -0.9645
 3052TIP3    H2 9121   3.346   5.172   3.264 -0.5029  0.1985 -0.9802
 3053TIP3   OH2 9122   0.876   2.335   5.142 -0.5774  0.0640  0.2464
 3053TIP3    H1 9123   0.897   2.368   5.229  0.3058  3.2178 -1.0417
 3053TIP3    H2 9124   0.782   2.350   5.132 -0.6476 -0.1475  0.5956
 3054TIP3   OH2 9125   4.772   1.558   3.684  0.9419 -0.3041  0.4435
 3054TIP3    H1 9126   4.796   1.465   3.690  2.0389 -0.1172 -0.6320
 3054TIP3    H2 9127   4.855   1.604   3.678  0.3930  0.5755 -1.0421
 3055TIP3   OH2 9128   2.769   6.657   2.865  0.4694 -0.2731 -0.2203
 3055TIP3    H1 9129   2.748   6.565   2.853 -1.2452  0.0794 -0.0629
 3055TIP3    H2 9130   2.778   6.668   2.959 -0.7214 -0.0119 -0.1227
 3056TIP3   OH2 9131   0.836   1.563   1.013 -0.2116 -0.1087 -0.3273
 3056TIP3    H1 9132   0.858   1.563   0.920 -1.8143 -0.5479 -0.7525
 3056TIP3    H2 9133   0.894   1.627   1.052  0.6808 -0.1141 -1.5863
 3057TIP3   OH2 9134   4.720   5.969   2.626 -0.0292  0.1677  0.0626
 3057TIP3    H1 9135   4.703   6.012   2.542  1.4999  0.1681 -0.2783
 3057TIP3    H2 9136   4.686   6.030   2.692 -1.7517 -0.0869 -0.5529
 3058TIP3   OH2 9137   4.814   4.813   1.503  0.2954  0.5473  0.5659
 3058TIP3    H1 9138   4.854   4.742   1.453 -0.8706  0.4686 -0.2871
 3058TIP3    H2 9139   4.864   4.815   1.585 -0.7875 -2.5164  1.4534
 3059TIP3   OH2 9140   2.176   6.753   2.914  0.2565 -0.7249 -0.3917
 3059TIP3    H1 9141   2.224   6.798   2.845  0.2394 -0.8690 -0.4994
 3059TIP3    H2 9142   2.231   6.677   2.935 -0.2389 -1.2650 -0.9862
 3060TIP3   OH2 9143   0.686   3.106   4.649  0.3579 -0.0789 -0.6283
 3060TIP3    H1 9144   0.664   3.015   4.666  1.0298 -0.0785  0.3729
 3060TIP3    H2 9145   0.704   3.143   4.735  2.1369  0.4395 -1.1727
 3061TIP3   OH2 9146   3.089   5.113   5.205  0.4388  0.4844  0.0995
 3061TIP3    H1 9147   3.138   5.100   5.286 -1.0532  0.0795  0.9782
 3061TIP3    H2 9148   3.073   5.207   5.201  1.8523  0.7254 -0.5710
 3062TIP3   OH2 9149   5.592   6.019   0.947 -0.4241 -0.6695 -0.1097
 3062TIP3    H1 9150   5.552   5.975   1.022  0.2039  0.6112  1.0295
 3062TIP3    H2 9151   5.681   6.039   0.976 -0.1357 -0.2346 -1.2447
 3063TIP3   OH2 9152   6.681   3.623   2.213 -0.2267  0.5145  0.1363
 3063TIP3    H1 9153   6.697   3.696   2.153  0.4783  0.0360 -0.2775
 3063TIP3    H2 9154   6.588   3.605   2.205 -0.5887  1.9108  0.8847
 3064TIP3   OH2 9155   1.388   3.507   3.190  0.3526 -0.3613  0.0256
 3064TIP3    H1 9156   1.295   3.505   3.169  0.5377  0.7183 -0.9944
 3064TIP3    H2 9157   1.420   3.588   3.151  1.9982 -1.3817 -0.8886
 3065TIP3   OH2 9158   3.868   0.832   0.342 -0.0788  0.9910  0.2962
 3065TIP3    H1 9159   3.786   0.829   0.292 -0.6193 -1.8991  1.1306
 3065TIP3    H2 9160   3.841   0.820   0.433  1.2164  0.7423  0.6646
 3066TIP3   OH2 9161   6.237   1.774   3.176 -0.8891  0.5118  0.0352
 3066TIP3    H1 9162   6.155   1.822   3.184 -2.1948 -1.6947  0.6664
 3066TIP3    H2 9163   6.212   1.688   3.144  1.1071 -0.4316  0.8156
 3067TIP3   OH2 9164   0.111   0.037   3.342 -0.4263 -0.1965 -0.2639
 3067TIP3    H1 9165   0.169   0.052   3.416 -1.0252 -3.0670  0.9520
 3067TIP3    H2 9166   0.085  -0.055   3.351 -2.4346  0.0268 -2.6988
 3068TIP3   OH2 9167   6.098   1.429   4.364 -0.0939 -0.1372 -1.0175
 3068TIP3    H1 9168   6.071   1.417   4.456  0.3343 -0.1808 -0.8970
 3068TIP3    H2 9169   6.097   1.523   4.351 -0.0521 -0.1255 -0.9365
 3069TIP3   OH2 9170   1.872   6.540   0.967 -0.4859 -0.2274  0.5842
 3069TIP3    H1 9171   1.812   6.469   0.990 -0.9021 -0.6754 -1.6617
 3069TIP3    H2 9172   1.950   6.525   1.021 -0.8906 -1.9201  0.7390
 3070TIP3   OH2 9173   3.519   3.220   1.207  0.2854  0.1428 -0.0026
 3070TIP3    H1 9174   3.563   3.231   1.292 -0.5479 -0.3133  0.5049
 3070TIP3    H2 9175   3.447   3.282   1.210 -1.2198 -1.5398  0.6605
 3071TIP3   OH2 9176   2.912   5.665   3.272 -0.1403  0.0158 -0.3218
 3071TIP3    H1 9177   3.005   5.646   3.264 -0.2968 -0.0677 -2.7220
 3071TIP3    H2 9178   2.907   5.761   3.271 -0.0736  0.0204 -0.1676
 3072TIP3   OH2 9179   0.147   5.824   2.175  0.4810 -0.4702 -0.2603
 3072TIP3    H1 9180   0.239   5.844   2.192 -0.2597  2.0780  1.2682
 3072TIP3    H2 9181   0.133   5.740   2.219  1.4968  0.3690  1.8188
 3073TIP3   OH2 9182   4.128   6.670   2.225 -0.0595  0.1168 -0.1444
 3073TIP3    H1 9183   4.078   6.617   2.163  1.7548 -1.8829 -0.0265
 3073TIP3    H2 9184   4.198   6.708   2.173  0.2885  0.0877  0.3011
 3074TIP3   OH2 9185   0.371   2.872   2.715  0.0190 -0.1540  0.2483
 3074TIP3    H1 9186   0.398   2.912   2.632 -0.5707  1.6954  0.8935
 3074TIP3    H2 9187   0.276   2.861   2.705 -0.4938  2.3434  1.4878
 3075TIP3   OH2 9188   4.575   0.992   1.003 -0.0736  0.2067  0.4815
 3075TIP3    H1 9189   4.545   1.072   0.960  0.2022  0.4829  0.7920
 3075TIP3    H2 9190   4.543   0.921   0.948  0.3232  0.5501 -0.2141
 3076TIP3   OH2 9191   4.316   1.485   1.638  0.0993 -0.3813 -0.4231
 3076TIP3    H1 9192   4.315   1.435   1.556  1.6335 -0.1296 -0.6121
 3076TIP3    H2 9193   4.289   1.422   1.705  0.4256 -1.0231 -0.8867
 3077TIP3   OH2 9194   0.407   5.613   1.678 -0.2195  0.3828  0.2043
 3077TIP3    H1 9195   0.343   5.649   1.616  0.3224 -1.4827 -1.5244
 3077TIP3    H2 9196   0.354   5.565   1.742 -0.6347 -0.5707 -0.8161
 3078TIP3   OH2 9197   3.593   2.189   3.499  0.3544 -0.5971 -0.0292
 3078TIP3    H1 9198   3.538   2.138   3.557 -0.4156 -3.3857 -2.9201
 3078TIP3    H2 9199   3.534   2.215   3.427  1.8953  0.0013 -1.1323
 3079TIP3   OH2 9200   6.189   5.346   0.380  0.4253 -1.0250 -0.6742
 3079TIP3    H1 9201   6.176   5.352   0.474  1.9604  1.1017 -0.5122
 3079TIP3    H2 9202   6.277   5.308   0.370  1.0962  0.5657 -1.1389
 3080TIP3   OH2 9203   1.075   3.556   5.109 -0.2392  0.2631  0.0622
 3080TIP3    H1 9204   1.153   3.552   5.165  0.7781 -0.5851 -1.3557
 3080TIP3    H2 9205   1.082   3.641   5.066  0.6931 -0.3770 -1.1076
 3081TIP3   OH2 9206   5.794   6.670   5.798 -0.0093  0.1058 -0.3110
 3081TIP3    H1 9207   5.741   6.741   5.761 -1.3343  0.2338  1.6912
 3081TIP3    H2 9208   5.883   6.703   5.794 -0.3875  1.1171 -1.0837
 3082TIP3   OH2 9209   0.762   3.638   1.826  0.3753 -0.1960  0.0127
 3082TIP3    H1 9210   0.850   3.609   1.852  0.3095 -0.4068  0.0035
 3082TIP3    H2 9211   0.776   3.694   1.750  0.8428  2.5555  1.9401
 3083TIP3   OH2 9212   3.587   3.175   0.868  0.4363  0.2970 -0.6217
 3083TIP3    H1 9213   3.620   3.132   0.789 -1.8733 -3.8306  0.3658
 3083TIP3    H2 9214   3.625   3.125   0.940 -3.0657 -0.8891  0.6162
 3084TIP3   OH2 9215   4.956   5.674   1.434  0.3254  0.1512 -0.6042
 3084TIP3    H1 9216   4.972   5.759   1.474  2.3095 -1.0637  1.4385
 3084TIP3    H2 9217   5.043   5.635   1.423 -0.5423 -1.8635 -0.8427
 3085TIP3   OH2 9218   4.302   3.528   0.961  0.0077  0.2638  0.1411
 3085TIP3    H1 9219   4.233   3.462   0.970 -0.8472  1.3098  2.1908
 3085TIP3    H2 9220   4.384   3.479   0.963 -0.5755 -1.0715 -2.8785
 3086TIP3   OH2 9221   4.562   5.227   0.066 -0.2426  0.0121  0.3629
 3086TIP3    H1 9222   4.604   5.175   0.135  1.2427 -0.2381 -0.6825
 3086TIP3    H2 9223   4.611   5.309   0.065 -1.5480  0.8253  0.9193
 3087TIP3   OH2 9224   4.093   1.727   4.932  0.8304  0.1802 -0.4594
 3087TIP3    H1 9225   4.019   1.786   4.944 -0.4352 -1.0144 -1.9853
 3087TIP3    H2 9226   4.165   1.785   4.904 -0.1767  1.0946 -1.2330
 3088TIP3   OH2 9227   6.303   1.362   4.177  0.4334  0.6702  0.0531
 3088TIP3    H1 9228   6.357   1.284   4.188  0.0026  0.0808 -1.7404
 3088TIP3    H2 9229   6.249   1.365   4.256  1.8794  0.3376  1.1011
 3089TIP3   OH2 9230   2.853   4.908   3.422 -0.1626 -0.3288 -0.3736
 3089TIP3    H1 9231   2.872   4.906   3.328  1.0021  0.2142 -0.1782
 3089TIP3    H2 9232   2.852   5.002   3.444 -3.3912 -0.2512 -0.3546
 3090TIP3   OH2 9233   0.226   2.721   5.241  0.0645 -0.1232 -0.5695
 3090TIP3    H1 9234   0.312   2.760   5.231 -0.5591  0.8626 -2.7013
 3090TIP3    H2 9235   0.240   2.647   5.300  2.3858 -0.0944 -0.9884
 3091TIP3   OH2 9236   4.373   4.529   0.910  0.9750 -0.2892 -0.0261
 3091TIP3    H1 9237   4.354   4.507   1.001  1.4441  2.3557  0.8069
 3091TIP3    H2 9238   4.435   4.463   0.881 -2.1926 -3.6641  0.1514
 3092TIP3   OH2 9239   3.157   4.791   3.466  0.4019  0.3161  0.0699
 3092TIP3    H1 9240   3.205   4.762   3.543  0.9770 -0.6390 -0.6136
 3092TIP3    H2 9241   3.065   4.785   3.491  0.4514 -2.2996 -0.0263
 3093TIP3   OH2 9242   3.395   1.342   2.411 -0.4098  0.4667 -0.1141
 3093TIP3    H1 9243   3.449   1.371   2.338  0.2934 -1.5573 -0.4786
 3093TIP3    H2 9244   3.402   1.411   2.476  1.3467  0.9755 -0.8025
 3094TIP3   OH2 9245   1.901   0.415   4.679 -0.0772  0.0794 -0.0230
 3094TIP3    H1 9246   1.987   0.376   4.694  0.9157  1.9024 -0.6824
 3094TIP3    H2 9247   1.863   0.424   4.767  0.8626  0.2071  0.3864
 3095TIP3   OH2 9248   7.118   3.695   5.139  0.0487  0.1012  0.7036
 3095TIP3    H1 9249   7.212   3.680   5.132 -0.0595 -0.2986  0.0417
 3095TIP3    H2 9250   7.091   3.641   5.213 -0.6181 -4.6841 -2.5634
 3096TIP3   OH2 9251   5.071   3.822   1.965 -0.0922 -0.1054 -0.0898
 3096TIP3    H1 9252   4.996   3.862   1.921 -0.7477 -0.3407  0.7705
 3096TIP3    H2 9253   5.048   3.827   2.058  1.8935  1.7519  0.3827
 3097TIP3   OH2 9254   1.239   2.545   4.782  0.4996  0.0105 -0.3749
 3097TIP3    H1 9255   1.331   2.538   4.805  0.4674 -0.2674 -0.3326
 3097TIP3    H2 9256   1.194   2.490   4.845  0.1635  1.2162  0.4818
 3098TIP3   OH2 9257   2.450   0.729   4.518 -0.1608 -0.3236 -0.6526
 3098TIP3    H1 9258   2.534   0.771   4.538 -1.4244  1.0965  2.2319
 3098TIP3    H2 9259   2.419   0.774   4.439  0.2104  1.6287  0.2533
 3099TIP3   OH2 9260   5.828   6.342   3.280  0.1016  0.0598  0.8854
 3099TIP3    H1 9261   5.804   6.250   3.282  0.1079  0.0681  1.3714
 3099TIP3    H2 9262   5.766   6.382   3.218 -1.0745  0.0572  2.0273
 3100TIP3   OH2 9263   6.323   6.028   3.862 -0.4597 -0.1188 -1.0455
 3100TIP3    H1 9264   6.387   6.023   3.933 -0.8065  3.8302 -0.2146
 3100TIP3    H2 9265   6.249   5.976   3.892  0.4879 -0.8145  0.1616
 3101TIP3   OH2 9266   2.006   0.639   0.039  0.8982 -0.6418  0.1093
 3101TIP3    H1 9267   2.051   0.682   0.112 -0.6209  0.5340  0.4072
 3101TIP3    H2 9268   1.942   0.582   0.081 -1.6365  1.7925 -0.1642
 3102TIP3   OH2 9269   0.662   0.049   2.764 -0.2407  0.1105 -0.5456
 3102TIP3    H1 9270   0.740  -0.001   2.789 -1.5406 -2.0666 -0.5973
 3102TIP3    H2 9271   0.605   0.043   2.840  0.2279  3.1488  0.1621
 3103TIP3   OH2 9272   5.568   5.608   4.739 -0.3293 -0.0612  0.3011
 3103TIP3    H1 9273   5.533   5.614   4.650 -1.0102 -0.1392  0.5613
 3103TIP3    H2 9274   5.660   5.634   4.730 -0.5413  0.5060 -0.3294
 3104TIP3   OH2 9275   2.418   0.803   0.000  0.0747 -1.2091  0.1619
 3104TIP3    H1 9276   2.468   0.874  -0.040 -0.4949 -1.5898 -1.3015
 3104TIP3    H2 9277   2.480   0.758   0.057  1.2753 -1.3652 -1.2233
 3105TIP3   OH2 9278   2.405   5.328   3.715 -0.1833  0.1784  0.1209
 3105TIP3    H1 9279   2.495   5.311   3.685 -0.4289 -2.2006  0.5084
 3105TIP3    H2 9280   2.416   5.384   3.792  0.9366  0.4543 -0.2228
 3106TIP3   OH2 9281   4.674   5.809   0.991 -0.1713 -0.2677  0.6180
 3106TIP3    H1 9282   4.580   5.808   0.975 -0.0846  0.0821  0.0372
 3106TIP3    H2 9283   4.690   5.894   1.033  0.2446  0.9301 -1.7904
 3107TIP3   OH2 9284   2.798   1.951   0.260  0.3574 -0.5691 -0.2183
 3107TIP3    H1 9285   2.859   2.004   0.208 -0.9770  0.5814 -0.6869
 3107TIP3    H2 9286   2.793   1.868   0.214  1.0783 -0.4462 -0.5352
 3108TIP3   OH2 9287   2.738   3.765   4.413  0.2666  0.4535  0.1335
 3108TIP3    H1 9288   2.648   3.777   4.383  1.2004  1.0194 -2.7502
 3108TIP3    H2 9289   2.757   3.845   4.463 -1.2550 -0.3726  2.1535
 3109TIP3   OH2 9290   4.692   3.545   2.020 -0.0017 -0.2104  0.5980
 3109TIP3    H1 9291   4.681   3.626   1.970  1.4217  0.0628  0.6780
 3109TIP3    H2 9292   4.739   3.572   2.099 -1.3491 -0.7991  1.6533
 3110TIP3   OH2 9293   3.577   5.459   3.369  0.4603  0.3254  0.0199
 3110TIP3    H1 9294   3.579   5.507   3.286 -2.0353  0.2448 -0.1373
 3110TIP3    H2 9295   3.516   5.387   3.355 -0.6038  0.7191  2.1043
 3111TIP3   OH2 9296   7.095   4.841   3.502 -0.0053  0.1998  0.9133
 3111TIP3    H1 9297   7.000   4.852   3.498 -0.0053  0.3118  1.2394
 3111TIP3    H2 9298   7.120   4.818   3.412 -0.0651  2.3049  0.3014
 3112TIP3   OH2 9299   4.007   3.597   4.993  0.1108  0.4946 -0.2000
 3112TIP3    H1 9300   4.052   3.657   5.052  0.0587 -0.3942  0.7777
 3112TIP3    H2 9301   3.972   3.529   5.051  1.3445 -1.2204 -1.3754
 3113TIP3   OH2 9302   7.094   0.584   5.765 -0.2730 -0.0996  0.1685
 3113TIP3    H1 9303   7.048   0.619   5.689 -0.0285  1.6361  0.7807
 3113TIP3    H2 9304   7.025   0.555   5.825 -0.4658 -1.8414 -0.8223
 3114TIP3   OH2 9305   1.758   0.582   3.637 -0.1953 -0.4357  0.1329
 3114TIP3    H1 9306   1.844   0.580   3.594 -0.2567 -0.5575  0.0179
 3114TIP3    H2 9307   1.778   0.585   3.730 -0.0178  1.3580  0.0882
 3115TIP3   OH2 9308   3.078   0.501   3.456  0.0193 -0.0570 -0.6914
 3115TIP3    H1 9309   3.063   0.594   3.442 -1.1084 -0.2617 -0.9179
 3115TIP3    H2 9310   3.073   0.489   3.551  1.3709  0.2948 -0.5567
 3116TIP3   OH2 9311   1.458   4.759   2.213 -0.1041 -0.2410  0.5756
 3116TIP3    H1 9312   1.473   4.679   2.264  1.1928  0.2102  0.9557
 3116TIP3    H2 9313   1.520   4.752   2.140  1.6590  1.4062  1.8195
 3117TIP3   OH2 9314   7.074   1.820   2.592  0.5440  0.3096 -0.2636
 3117TIP3    H1 9315   7.008   1.853   2.654 -0.3608  0.2476 -1.1707
 3117TIP3    H2 9316   7.114   1.899   2.556 -0.8767  0.4613 -1.6372
 3118TIP3   OH2 9317   6.455   5.087   5.267 -0.2293 -0.0917 -0.2168
 3118TIP3    H1 9318   6.542   5.049   5.257 -0.3505 -0.6819  0.7974
 3118TIP3    H2 9319   6.400   5.036   5.208 -0.1238 -0.5899  0.1062
 3119TIP3   OH2 9320   4.302   5.909   5.200 -0.2407  0.1705  0.0575
 3119TIP3    H1 9321   4.315   5.855   5.122  0.7473 -1.8071  1.5052
 3119TIP3    H2 9322   4.228   5.869   5.246 -0.9879  1.4748  0.0387
 3120TIP3   OH2 9323   3.156   2.420   4.471  0.3488  0.2293  0.2011
 3120TIP3    H1 9324   3.067   2.404   4.501  0.8619 -0.1465  1.6177
 3120TIP3    H2 9325   3.177   2.508   4.503  0.2347  0.6225 -0.7815
 3121TIP3   OH2 9326   5.774   3.572   4.503 -0.9736  0.2261 -0.2731
 3121TIP3    H1 9327   5.734   3.493   4.467 -0.8967  0.4250 -0.8044
 3121TIP3    H2 9328   5.833   3.540   4.571 -0.9602 -0.1744 -0.4706
 3122TIP3   OH2 9329   1.929   1.235   3.290 -0.5384 -0.6076  0.1251
 3122TIP3    H1 9330   1.878   1.286   3.353 -1.5976 -0.9494 -0.4246
 3122TIP3    H2 9331   1.868   1.220   3.217  0.4573 -0.7673 -0.6910
 3123TIP3   OH2 9332   2.146   6.365   3.249  0.1958 -0.3168 -0.2896
 3123TIP3    H1 9333   2.155   6.279   3.207 -0.7171  0.1178 -1.4330
 3123TIP3    H2 9334   2.097   6.418   3.185 -1.2879  0.3679  1.3317
 3124TIP3   OH2 9335   2.199   6.789   3.818  0.1992  0.2842 -0.2113
 3124TIP3    H1 9336   2.150   6.709   3.800 -0.9549  1.0203 -0.4593
 3124TIP3    H2 9337   2.162   6.854   3.758 -1.1724  1.8454  2.1397
 3125TIP3   OH2 9338   2.318   0.159   4.258  0.1025  0.1827  0.3531
 3125TIP3    H1 9339   2.329   0.064   4.258 -1.2948 -0.0056  1.0233
 3125TIP3    H2 9340   2.380   0.190   4.192  0.1869 -1.2488 -0.2809
 3126TIP3   OH2 9341   3.405   2.306   0.225 -0.1139 -0.2381  0.1317
 3126TIP3    H1 9342   3.366   2.392   0.213  0.7066 -0.1224 -2.2974
 3126TIP3    H2 9343   3.406   2.293   0.319 -1.5313  1.7976  0.4970
 3127TIP3   OH2 9344   3.107   1.278   2.529  0.2036 -0.0412 -0.4407
 3127TIP3    H1 9345   3.038   1.339   2.504 -0.1010 -0.0804  0.2921
 3127TIP3    H2 9346   3.179   1.298   2.470  0.1933  1.1948 -0.0563
 3128TIP3   OH2 9347   0.216   0.960   4.462  0.0382 -0.0302 -0.4359
 3128TIP3    H1 9348   0.298   0.912   4.452 -0.4262 -0.7613 -0.8549
 3128TIP3    H2 9349   0.189   0.982   4.372  0.7201  1.8766 -0.2160
 3129TIP3   OH2 9350   3.708   6.442   3.501 -0.1912  0.1815  0.7187
 3129TIP3    H1 9351   3.666   6.436   3.415  0.0440 -1.2595  0.6802
 3129TIP3    H2 9352   3.639   6.471   3.560 -0.5352  0.4758  0.1812
 3130TIP3   OH2 9353   4.551   6.484   3.350  0.0594  0.2871  0.4762
 3130TIP3    H1 9354   4.523   6.396   3.323 -2.2923  0.8149  0.9825
 3130TIP3    H2 9355   4.472   6.524   3.386  0.6182  3.2091 -1.2282
 3131TIP3   OH2 9356   2.652   5.787   4.603  0.4177  0.5710  0.1465
 3131TIP3    H1 9357   2.635   5.810   4.694  0.2728  1.9973 -0.2173
 3131TIP3    H2 9358   2.716   5.852   4.573  0.3724  0.2028 -0.8019
 3132TIP3   OH2 9359   0.913   3.904   5.255  0.1592  0.1388  0.2822
 3132TIP3    H1 9360   1.007   3.887   5.247  0.5117  0.8591  2.2841
 3132TIP3    H2 9361   0.908   3.995   5.285 -1.2411  0.4981 -0.9821
 3133TIP3   OH2 9362   5.639   0.479   4.695 -0.0459 -0.0990 -0.3320
 3133TIP3    H1 9363   5.606   0.554   4.743  1.4207  0.9664 -0.8807
 3133TIP3    H2 9364   5.734   0.495   4.688  0.4017 -2.2586 -0.0366
 3134TIP3   OH2 9365   1.210   5.315   0.679 -0.0879 -0.2122 -0.1145
 3134TIP3    H1 9366   1.131   5.279   0.719 -0.2500 -0.3309 -0.5300
 3134TIP3    H2 9367   1.282   5.261   0.712 -0.1054  0.2586  0.7219
 3135TIP3   OH2 9368   0.589   1.506   1.086 -0.0063  0.1669 -0.3912
 3135TIP3    H1 9369   0.563   1.471   1.001 -2.0343  4.0824 -1.5711
 3135TIP3    H2 9370   0.680   1.535   1.073  1.1001 -2.6948  0.1141
 3136TIP3   OH2 9371   3.675   4.556   3.363 -0.0035 -0.0383  0.1191
 3136TIP3    H1 9372   3.726   4.513   3.295 -1.0034  0.2254 -0.8236
 3136TIP3    H2 9373   3.724   4.539   3.444 -0.7747 -3.8082  0.0198
 3137TIP3   OH2 9374   4.976   4.327   0.582  0.2806 -0.2069  0.1685
 3137TIP3    H1 9375   4.921   4.265   0.630 -0.1471  0.3505  0.4029
 3137TIP3    H2 9376   4.922   4.355   0.508 -0.4537  1.6605  1.3378
 3138TIP3   OH2 9377   1.654   4.648   3.913  0.2892 -0.2065  0.1598
 3138TIP3    H1 9378   1.705   4.671   3.991 -0.4267 -0.5814  0.7547
 3138TIP3    H2 9379   1.714   4.597   3.859  0.6507 -0.3519  0.6921
 3139TIP3   OH2 9380   0.300   3.640   2.498 -0.4689 -0.1143  0.4312
 3139TIP3    H1 9381   0.234   3.597   2.444 -0.3863  0.9342 -0.5521
 3139TIP3    H2 9382   0.369   3.664   2.436  0.4389 -0.4364  1.3041
 3140TIP3   OH2 9383   2.820   2.307   2.404  0.1147  0.6124 -0.7254
 3140TIP3    H1 9384   2.874   2.231   2.381  0.1555  0.5005 -0.2712
 3140TIP3    H2 9385   2.807   2.353   2.321  1.9620  1.3252 -0.6789
 3141TIP3   OH2 9386   0.154   4.340   2.197  0.0153 -0.0441  0.4407
 3141TIP3    H1 9387   0.238   4.356   2.153  0.4013  4.5715  2.2333
 3141TIP3    H2 9388   0.178   4.293   2.277  0.7834  0.3531  0.4547
 3142TIP3   OH2 9389   6.005   5.637   5.249 -0.0779  0.0596  0.6428
 3142TIP3    H1 9390   5.926   5.590   5.224 -0.3540  0.2506  1.1572
 3142TIP3    H2 9391   6.049   5.656   5.166  0.1539 -1.2979  0.4234
 3143TIP3   OH2 9392   6.315   2.078   2.530  0.3622 -0.0406 -0.0224
 3143TIP3    H1 9393   6.407   2.098   2.546  0.8579  0.1904 -2.6819
 3143TIP3    H2 9394   6.303   2.092   2.436 -2.2397 -0.7095  0.1192
 3144TIP3   OH2 9395   3.879   1.908   5.047 -0.3410 -0.1445  0.5686
 3144TIP3    H1 9396   3.843   1.995   5.033 -1.3673 -0.3337  1.8575
 3144TIP3    H2 9397   3.803   1.850   5.053  0.2806 -0.9810  0.6769
 3145TIP3   OH2 9398   5.896   4.077   1.023 -0.1742 -0.1799 -0.2735
 3145TIP3    H1 9399   5.879   4.130   0.944 -0.4097 -0.8283 -0.6625
 3145TIP3    H2 9400   5.850   4.124   1.092 -1.6312 -0.6420 -0.8863
 3146TIP3   OH2 9401   0.121   6.679   0.989 -0.3831 -0.3814  0.3442
 3146TIP3    H1 9402   0.140   6.772   0.986  0.6053 -0.5626  0.5478
 3146TIP3    H2 9403   0.164   6.643   0.911  2.0995 -1.1189  1.9342
 3147TIP3   OH2 9404   4.892   5.240   2.224 -1.3520  0.3646 -0.4870
 3147TIP3    H1 9405   4.901   5.333   2.205  3.6748  0.0143 -1.2585
 3147TIP3    H2 9406   4.929   5.196   2.147  2.0193 -1.8826  2.0985
 3148TIP3   OH2 9407   2.761   2.309   5.372  0.2900  0.0504  0.3046
 3148TIP3    H1 9408   2.691   2.346   5.318  2.0820  0.6197 -1.8085
 3148TIP3    H2 9409   2.734   2.219   5.389 -0.9964  0.2911 -0.3370
 3149TIP3   OH2 9410   2.549   0.667   1.192  0.2778 -0.3553 -0.0296
 3149TIP3    H1 9411   2.503   0.584   1.207  0.6397 -0.8110 -1.3492
 3149TIP3    H2 9412   2.479   0.732   1.185 -0.0881 -0.7940 -0.4756
 3150TIP3   OH2 9413   3.626   0.687   3.772  0.4415  0.0300 -0.0827
 3150TIP3    H1 9414   3.682   0.765   3.768 -1.7756  1.7565  0.4935
 3150TIP3    H2 9415   3.587   0.682   3.684 -0.9113  0.7972  0.4446
 3151TIP3   OH2 9416   5.304   1.306   1.369 -0.0027  0.1448  0.6076
 3151TIP3    H1 9417   5.351   1.225   1.351  0.4636  0.0314  2.1396
 3151TIP3    H2 9418   5.312   1.357   1.289  0.8011 -0.7999  0.0608
 3152TIP3   OH2 9419   6.175   3.132   1.067  0.0153 -0.1879 -0.5256
 3152TIP3    H1 9420   6.228   3.102   0.992 -1.7121 -0.5895 -1.6410
 3152TIP3    H2 9421   6.119   3.200   1.030 -0.2672  0.2081  0.6204
 3153TIP3   OH2 9422   5.215   3.513   4.492 -0.6130  0.7780 -0.3927
 3153TIP3    H1 9423   5.278   3.449   4.459 -1.4328 -0.8177  0.9708
 3153TIP3    H2 9424   5.201   3.488   4.583 -4.2386  0.1457 -0.9592
 3154TIP3   OH2 9425   4.663   1.541   4.430 -0.2844  0.1600  0.5353
 3154TIP3    H1 9426   4.643   1.463   4.482  0.3052 -0.2205  0.2124
 3154TIP3    H2 9427   4.586   1.597   4.438 -0.2453  0.0702  1.7431
 3155TIP3   OH2 9428   0.601   2.492   2.481 -0.2877  0.1138  0.5751
 3155TIP3    H1 9429   0.685   2.509   2.524  0.4704  1.2459 -1.2233
 3155TIP3    H2 9430   0.565   2.579   2.463 -0.9737 -0.3266 -0.2766
 3156TIP3   OH2 9431   1.311   0.367   5.587 -0.4390  0.5374  0.2372
 3156TIP3    H1 9432   1.380   0.301   5.582 -1.1799 -0.1905 -0.8516
 3156TIP3    H2 9433   1.288   0.371   5.680  0.6320  0.3490  0.5271
 3157TIP3   OH2 9434   1.919   5.291   1.051  0.2848 -0.5007  0.2196
 3157TIP3    H1 9435   1.978   5.344   0.998  2.0638  0.0785  2.6355
 3157TIP3    H2 9436   1.870   5.354   1.104  0.1610 -1.1253  0.8707
 3158TIP3   OH2 9437   3.771   5.267   4.458 -0.3834  1.0288  0.2087
 3158TIP3    H1 9438   3.819   5.299   4.534 -1.3876  0.6234  1.0468
 3158TIP3    H2 9439   3.720   5.343   4.429 -1.8109  0.6017  1.4323
 3159TIP3   OH2 9440   0.874   1.037   1.464  1.1238  0.5890 -0.4601
 3159TIP3    H1 9441   0.850   1.010   1.553  2.7818  1.4907  0.3087
 3159TIP3    H2 9442   0.808   1.101   1.439 -0.8599 -1.5394 -0.9468
 3160TIP3   OH2 9443   3.394   4.669   4.756  0.5811  0.7063  0.2298
 3160TIP3    H1 9444   3.485   4.667   4.786  0.8368  1.5513 -0.4199
 3160TIP3    H2 9445   3.371   4.762   4.757 -0.5062  0.4395  1.0348
 3161TIP3   OH2 9446   4.987   4.073   5.466 -0.0381  0.3286 -0.3378
 3161TIP3    H1 9447   5.040   4.079   5.387 -0.7587 -0.7270 -0.9226
 3161TIP3    H2 9448   4.896   4.078   5.434 -0.3577  2.7947  0.6801
 3162TIP3   OH2 9449   7.109   0.792   1.385 -0.3155  0.4685  0.0540
 3162TIP3    H1 9450   7.048   0.858   1.416 -1.6801  0.1331 -1.7572
 3162TIP3    H2 9451   7.080   0.710   1.427 -1.1597  0.3071 -0.8133
 3163TIP3   OH2 9452   1.529   0.483   3.516  0.0713 -0.7047 -0.2125
 3163TIP3    H1 9453   1.621   0.503   3.536 -0.0383 -0.8284  0.4444
 3163TIP3    H2 9454   1.533   0.418   3.446  0.4542  0.8136 -1.6720
 3164TIP3   OH2 9455   6.126   3.050   5.409  0.1252  0.5754  0.0225
 3164TIP3    H1 9456   6.189   2.979   5.426 -1.4644 -0.6409  1.1495
 3164TIP3    H2 9457   6.147   3.080   5.321  0.5404 -1.6633 -0.7000
 3165TIP3   OH2 9458   1.856   3.365   0.001 -0.5129 -0.1461  0.3380
 3165TIP3    H1 9459   1.943   3.366  -0.039 -0.8090  2.9524 -0.4869
 3165TIP3    H2 9460   1.866   3.309   0.078  1.5601 -1.7216 -0.9520
 3166TIP3   OH2 9461   1.133   0.279   0.557 -0.3995 -0.0787 -0.8867
 3166TIP3    H1 9462   1.163   0.207   0.503  1.9642  0.1362  0.0483
 3166TIP3    H2 9463   1.148   0.357   0.503 -0.6969 -0.0888 -0.9851
 3167TIP3   OH2 9464   1.002   2.823   2.261 -0.2770 -0.0950 -0.5983
 3167TIP3    H1 9465   0.907   2.810   2.266 -0.2018 -0.7083 -0.6141
 3167TIP3    H2 9466   1.013   2.915   2.240 -0.8293  0.3814  1.0582
 3168TIP3   OH2 9467   2.976   6.787   4.034 -0.5629 -0.0238  0.1135
 3168TIP3    H1 9468   2.976   6.734   4.113 -0.3253 -1.0526 -0.5556
 3168TIP3    H2 9469   2.925   6.736   3.971  1.0291 -0.2282 -1.0500
 3169TIP3   OH2 9470   5.611   2.056   0.519 -0.2855 -0.3501  0.0522
 3169TIP3    H1 9471   5.547   2.008   0.572  1.3722 -0.1672  2.3616
 3169TIP3    H2 9472   5.675   1.989   0.494 -0.1091 -0.0883 -0.1923
 3170TIP3   OH2 9473   0.245   5.888   3.891  0.1257 -0.0314 -0.5427
 3170TIP3    H1 9474   0.262   5.863   3.800  0.7099 -1.9227  0.0442
 3170TIP3    H2 9475   0.237   5.805   3.938  0.1145  0.9065  1.1962
 3171TIP3   OH2 9476   2.279   3.373   3.855 -0.5034  0.0569 -0.1980
 3171TIP3    H1 9477   2.188   3.401   3.858 -0.9432 -1.2215 -1.0073
 3171TIP3    H2 9478   2.324   3.445   3.810 -1.1931  0.4704 -0.2406
 3172TIP3   OH2 9479   0.369   0.583   3.805 -0.5603 -0.6447  0.0863
 3172TIP3    H1 9480   0.349   0.595   3.713 -0.3425  1.6823  0.3038
 3172TIP3    H2 9481   0.352   0.668   3.846  0.2441 -1.3457  2.0247
 3173TIP3   OH2 9482   6.946   2.296   0.181 -0.1587  0.0832  0.3947
 3173TIP3    H1 9483   6.985   2.301   0.094  1.0913 -0.8946  0.8682
 3173TIP3    H2 9484   6.959   2.205   0.207 -0.1673  0.4579  1.7597
 3174TIP3   OH2 9485   0.715   2.240   1.056  0.1516 -0.3754 -0.0047
 3174TIP3    H1 9486   0.777   2.168   1.058  1.0789  0.3613 -0.9350
 3174TIP3    H2 9487   0.736   2.292   1.133 -1.2260 -1.6229  1.2728
 3175TIP3   OH2 9488   5.108   5.881   4.013  0.3531 -0.1314 -0.1698
 3175TIP3    H1 9489   5.151   5.906   4.095  0.0340 -0.0282 -0.0339
 3175TIP3    H2 9490   5.070   5.795   4.031 -0.5276  0.3020  0.0942
 3176TIP3   OH2 9491   2.994   3.633   4.435  0.0783  0.5767 -0.9239
 3176TIP3    H1 9492   3.029   3.626   4.346 -0.0569  0.9274 -1.0059
 3176TIP3    H2 9493   2.918   3.690   4.427 -0.0503  0.4550 -0.6132
 3177TIP3   OH2 9494   1.156   3.393   0.108 -0.1396  0.0101 -0.4187
 3177TIP3    H1 9495   1.167   3.435   0.023  0.5481 -0.9422 -0.8104
 3177TIP3    H2 9496   1.219   3.321   0.108 -0.9037 -0.6853  0.4503
 3178TIP3   OH2 9497   3.087   1.313   0.489  0.3697  0.0838 -0.4086
 3178TIP3    H1 9498   3.086   1.220   0.512  1.5308 -0.0328 -0.7914
 3178TIP3    H2 9499   3.159   1.350   0.539  0.0351  0.7447 -0.4080
 3179TIP3   OH2 9500   3.631   1.784   2.986 -0.2574 -0.0370  0.0228
 3179TIP3    H1 9501   3.657   1.787   2.894 -0.0151 -0.8855  0.0491
 3179TIP3    H2 9502   3.710   1.804   3.035 -0.6476  1.5631  0.0422
 3180TIP3   OH2 9503   0.212   3.418   3.560  0.4198  0.5018  0.5432
 3180TIP3    H1 9504   0.218   3.474   3.482  1.5696  2.0010  1.6389
 3180TIP3    H2 9505   0.268   3.343   3.540  1.0805  1.0973  0.0749
 3181TIP3   OH2 9506   5.238   1.591   5.469 -0.4706  0.1246 -0.0444
 3181TIP3    H1 9507   5.293   1.512   5.462 -0.8098 -0.2917  1.5483
 3181TIP3    H2 9508   5.214   1.612   5.379 -0.6550 -1.8080 -0.4870
 3182TIP3   OH2 9509   5.582   3.501   2.245 -0.4844 -0.1891  0.3065
 3182TIP3    H1 9510   5.583   3.439   2.171  0.4960  0.1121  0.0565
 3182TIP3    H2 9511   5.516   3.566   2.220 -0.4271 -0.2935 -0.1344
 3183TIP3   OH2 9512   4.649   5.030   4.220  0.0990 -0.4917 -0.5441
 3183TIP3    H1 9513   4.671   5.103   4.278  1.9372 -1.1867 -0.3003
 3183TIP3    H2 9514   4.725   4.972   4.225 -0.2829 -1.2426 -2.5869
 3184TIP3   OH2 9515   3.201   5.243   1.413 -0.2288  0.2375 -0.6454
 3184TIP3    H1 9516   3.214   5.154   1.381 -0.5280 -0.2051  0.4026
 3184TIP3    H2 9517   3.106   5.250   1.426 -0.1604  0.5474 -0.2848
 3185TIP3   OH2 9518   4.587   1.856   2.509  0.3502  0.9697  0.1999
 3185TIP3    H1 9519   4.568   1.834   2.418  2.5815 -0.9389  0.1163
 3185TIP3    H2 9520   4.572   1.775   2.557 -1.7490  2.1716  1.8061
 3186TIP3   OH2 9521   1.301   1.894   3.810  0.7469 -0.6512  0.0814
 3186TIP3    H1 9522   1.224   1.879   3.865  0.0964 -2.5484 -1.2516
 3186TIP3    H2 9523   1.318   1.988   3.818 -0.7717 -0.4515  1.5837
 3187TIP3   OH2 9524   1.185   3.107   1.458 -0.0655 -0.4192  0.2879
 3187TIP3    H1 9525   1.187   3.011   1.450  0.8252 -0.4387  0.6719
 3187TIP3    H2 9526   1.134   3.123   1.537 -1.0900 -0.5328 -0.3337
 3188TIP3   OH2 9527   5.085   1.123   4.696  0.3085 -0.1682  0.4005
 3188TIP3    H1 9528   5.117   1.050   4.644 -0.8579 -1.0038  0.8229
 3188TIP3    H2 9529   5.036   1.177   4.634  1.8244  0.7024 -0.0808
 3189TIP3   OH2 9530   2.154   6.653   5.110  0.2839  0.1283 -0.4021
 3189TIP3    H1 9531   2.138   6.743   5.082 -1.9031 -0.1078 -0.1265
 3189TIP3    H2 9532   2.219   6.660   5.179  0.1063  1.5121 -0.3544
 3190TIP3   OH2 9533   4.072   3.160   2.825 -0.3384 -0.1988  0.8562
 3190TIP3    H1 9534   4.152   3.164   2.878  0.7333 -2.1575 -0.4917
 3190TIP3    H2 9535   4.021   3.088   2.863 -0.6788 -0.0503  0.6887
 3191TIP3   OH2 9536   5.440   4.075   3.417 -0.6353 -0.5344 -0.2598
 3191TIP3    H1 9537   5.385   4.011   3.463 -0.9811  1.3817  2.2260
 3191TIP3    H2 9538   5.520   4.027   3.397 -1.3113 -2.0591  0.4526
 3192TIP3   OH2 9539   5.672   0.513   5.752  0.3023 -0.0270 -0.1542
 3192TIP3    H1 9540   5.638   0.455   5.683 -0.3778 -1.2679  1.1860
 3192TIP3    H2 9541   5.612   0.587   5.752 -0.2997 -0.5102 -0.2015
 3193TIP3   OH2 9542   4.077   2.732   4.599  0.2997 -0.3713  0.6769
 3193TIP3    H1 9543   4.076   2.807   4.539 -3.5391 -0.8394 -0.0940
 3193TIP3    H2 9544   3.996   2.741   4.649 -1.3504 -4.8687 -0.7104
 3194TIP3   OH2 9545   4.108   1.834   5.614 -0.4199  0.1062 -0.1779
 3194TIP3    H1 9546   4.101   1.880   5.698  3.0020  1.0904 -0.2508
 3194TIP3    H2 9547   4.192   1.863   5.578 -1.1625 -1.2433 -3.3959
 3195TIP3   OH2 9548   6.443   0.017   1.077  0.5176  0.0402  0.4485
 3195TIP3    H1 9549   6.528   0.061   1.073  1.0034 -0.9564 -0.8489
 3195TIP3    H2 9550   6.383   0.077   1.033  0.9933 -0.1905 -0.5288
 3196TIP3   OH2 9551   5.025   0.858   1.932 -0.1904  0.4637 -0.2759
 3196TIP3    H1 9552   4.964   0.854   1.858  0.0586  2.0861 -0.6028
 3196TIP3    H2 9553   4.998   0.936   1.980  1.5218  1.1396 -0.3513
 3197TIP3   OH2 9554   0.987   6.482   4.235 -0.3465  0.6121 -0.3745
 3197TIP3    H1 9555   0.895   6.503   4.214 -0.3767 -0.2241 -1.1446
 3197TIP3    H2 9556   1.033   6.565   4.224 -1.1437  1.2577  0.9298
 3198TIP3   OH2 9557   1.831   1.408   5.338 -0.3373 -0.0106  0.2183
 3198TIP3    H1 9558   1.896   1.363   5.284  0.2732  1.4086 -0.2775
 3198TIP3    H2 9559   1.747   1.384   5.300  0.0422  0.2464 -0.8039
 3199TIP3   OH2 9560   6.134   3.608   3.234 -0.4534 -0.6963  0.0460
 3199TIP3    H1 9561   6.203   3.555   3.195  0.9295  1.7562 -1.0845
 3199TIP3    H2 9562   6.135   3.689   3.183 -1.4523  1.0006  2.5445
 3200TIP3   OH2 9563   6.247   2.858   2.378 -0.5400  0.1866 -0.3450
 3200TIP3    H1 9564   6.167   2.905   2.358 -0.9506 -0.0842  0.6040
 3200TIP3    H2 9565   6.315   2.925   2.379 -0.9293  0.5794 -0.1267
 3201TIP3   OH2 9566   5.659   6.765   4.900 -0.4147  0.1983 -0.2878
 3201TIP3    H1 9567   5.650   6.745   4.806  0.7512 -0.9762 -0.1853
 3201TIP3    H2 9568   5.745   6.807   4.907 -1.0402  1.4500  0.1022
 3202TIP3   OH2 9569   5.529   5.835   1.700 -1.0224  0.1014  0.5007
 3202TIP3    H1 9570   5.506   5.874   1.616 -0.7275  0.4059  0.5587
 3202TIP3    H2 9571   5.593   5.895   1.738 -0.8776 -0.2241  0.7809
 3203TIP3   OH2 9572   7.117   0.837   4.210  0.2070 -0.6911  0.1946
 3203TIP3    H1 9573   7.206   0.854   4.178 -0.1570 -1.0089 -1.0299
 3203TIP3    H2 9574   7.062   0.838   4.131 -1.0456  0.4898  1.0356
 3204TIP3   OH2 9575   6.658   2.907   1.963  0.2805 -0.4755  0.0931
 3204TIP3    H1 9576   6.600   2.841   2.003 -0.3595  0.0371  0.0210
 3204TIP3    H2 9577   6.682   2.869   1.878  0.8879 -1.1490  0.5592
 3205TIP3   OH2 9578   3.394   1.922   4.840  0.3750 -0.0778  0.2811
 3205TIP3    H1 9579   3.345   2.002   4.822  0.3891 -0.1218  0.0531
 3205TIP3    H2 9580   3.337   1.851   4.810 -0.3886 -0.2589  2.0382
 3206TIP3   OH2 9581   2.116   3.216   4.292  0.5310 -0.3581 -0.0799
 3206TIP3    H1 9582   2.114   3.196   4.199 -0.3746  0.5215 -0.2578
 3206TIP3    H2 9583   2.189   3.164   4.326  1.3707 -0.0693 -1.4096
 3207TIP3   OH2 9584   6.147   2.288   3.160 -0.3536  0.5737 -0.9381
 3207TIP3    H1 9585   6.242   2.292   3.165 -0.3395  1.2928 -1.6343
 3207TIP3    H2 9586   6.119   2.269   3.250  0.4819 -0.6549 -0.9189
 3208TIP3   OH2 9587   0.208   1.541   3.599 -0.3943  0.2747 -0.3974
 3208TIP3    H1 9588   0.231   1.555   3.507  0.0187  0.1036 -0.3249
 3208TIP3    H2 9589   0.253   1.612   3.646 -0.5185  0.2994 -0.3153
 3209TIP3   OH2 9590   0.195   4.905   4.366 -0.1873 -0.0256 -0.6316
 3209TIP3    H1 9591   0.106   4.884   4.393  0.3783  0.1224  1.4730
 3209TIP3    H2 9592   0.251   4.870   4.436  1.2988  1.3962 -1.0467
 3210TIP3   OH2 9593   5.288   3.144   4.370  0.0080  0.4824 -0.3394
 3210TIP3    H1 9594   5.302   3.117   4.461  2.0297  0.7363 -0.5344
 3210TIP3    H2 9595   5.267   3.063   4.325 -1.3887  0.4038  0.3827
 3211TIP3   OH2 9596   4.574   0.442   3.559 -0.6020  0.4944  0.6351
 3211TIP3    H1 9597   4.485   0.445   3.593 -0.7880  0.1945  0.1743
 3211TIP3    H2 9598   4.589   0.531   3.525 -0.5499  0.6837  1.1388
 3212TIP3   OH2 9599   6.639   3.333   3.968 -0.2874  0.0303 -0.2385
 3212TIP3    H1 9600   6.636   3.389   4.046 -1.5388 -1.5150  0.8940
 3212TIP3    H2 9601   6.732   3.312   3.957 -0.2139 -0.9839  1.8235
 3213TIP3   OH2 9602   3.012   2.652   0.884  0.2740  0.4784 -0.2610
 3213TIP3    H1 9603   3.077   2.611   0.942 -0.3815  0.5126  0.5296
 3213TIP3    H2 9604   2.946   2.584   0.872  0.6944  0.2616 -1.4892
 3214TIP3   OH2 9605   2.730   0.482   3.990  0.4289  0.0093 -0.5656
 3214TIP3    H1 9606   2.820   0.450   4.000  0.3601 -0.4703 -1.3751
 3214TIP3    H2 9607   2.694   0.429   3.919 -0.2816  0.6581 -0.7002
 3215TIP3   OH2 9608   5.845   5.271   5.037 -0.3025  0.1495 -0.1578
 3215TIP3    H1 9609   5.879   5.333   4.972 -0.4065 -0.1893 -0.5457
 3215TIP3    H2 9610   5.750   5.278   5.028 -0.3246  0.4976  0.3422
 3216TIP3   OH2 9611   4.337   6.566   1.323 -0.6385 -0.0187  0.0108
 3216TIP3    H1 9612   4.393   6.502   1.368 -0.5339 -0.8202 -1.2167
 3216TIP3    H2 9613   4.265   6.514   1.287 -1.6025  0.8526  0.6337
 3217TIP3   OH2 9614   6.933   0.144   4.279  0.6488 -0.1013 -0.3328
 3217TIP3    H1 9615   6.930   0.238   4.296  3.6531 -0.0281  0.3851
 3217TIP3    H2 9616   6.912   0.135   4.186  0.1679  1.2467 -0.3730
 3218TIP3   OH2 9617   2.960   4.979   3.177  0.4585  1.0577  0.3330
 3218TIP3    H1 9618   2.890   4.972   3.112  0.4225  0.3386  0.4404
 3218TIP3    H2 9619   2.980   5.072   3.180 -0.3689  1.2495  0.1741
 3219TIP3   OH2 9620   2.716   2.516   3.542  0.0432  0.3122 -0.2157
 3219TIP3    H1 9621   2.657   2.448   3.507 -0.5128  0.2991  0.7087
 3219TIP3    H2 9622   2.726   2.493   3.634  2.1544 -0.1384 -0.5166
 3220TIP3   OH2 9623   0.286   3.689   3.649 -0.1683 -0.1695  0.0385
 3220TIP3    H1 9624   0.241   3.688   3.734 -0.4901  0.1147 -0.1260
 3220TIP3    H2 9625   0.272   3.601   3.613 -0.6280 -0.0696 -0.0302
 3221TIP3   OH2 9626   4.613   3.488   4.699 -0.2547  0.0986  0.0696
 3221TIP3    H1 9627   4.670   3.557   4.665  0.7427 -0.4616  0.5598
 3221TIP3    H2 9628   4.528   3.531   4.709  0.4893  1.4575  0.9830
 3222TIP3   OH2 9629   0.343   4.091   4.964 -0.7654 -0.3177 -0.3352
 3222TIP3    H1 9630   0.259   4.125   4.996 -0.8609 -0.4356 -0.4553
 3222TIP3    H2 9631   0.371   4.029   5.031 -0.2676  0.4769  0.2040
 3223TIP3   OH2 9632   6.627   4.961   2.336  0.1562 -0.3701  1.0295
 3223TIP3    H1 9633   6.543   4.918   2.349 -0.3258 -0.0132 -0.6838
 3223TIP3    H2 9634   6.666   4.915   2.261  0.2500  1.2296  0.0571
 3224TIP3   OH2 9635   4.961   4.633   3.651  0.0361 -0.1779 -0.0362
 3224TIP3    H1 9636   4.927   4.722   3.661 -1.4469 -0.8909  2.5470
 3224TIP3    H2 9637   4.930   4.604   3.565 -2.8489  0.5557  0.6439
 3225TIP3   OH2 9638   7.212   4.277   0.653 -0.0356  0.2619 -0.0411
 3225TIP3    H1 9639   7.155   4.298   0.579  0.2090  0.0389 -0.2917
 3225TIP3    H2 9640   7.200   4.183   0.667 -2.8545  0.8366  2.5099
 3226TIP3   OH2 9641   1.282   6.027   2.292  0.0431  0.6690  0.3082
 3226TIP3    H1 9642   1.286   5.934   2.317  1.3823  1.0592  1.7272
 3226TIP3    H2 9643   1.201   6.034   2.242 -0.5497 -1.1018  0.9015
 3227TIP3   OH2 9644   1.465   6.208   2.479  0.2598  0.3161  0.0021
 3227TIP3    H1 9645   1.560   6.203   2.466  0.2558 -0.6734  0.2572
 3227TIP3    H2 9646   1.430   6.136   2.427 -0.0332 -1.5816  2.6206
 3228TIP3   OH2 9647   5.882   4.869   3.002 -0.0039 -0.5833 -0.0670
 3228TIP3    H1 9648   5.977   4.870   3.015 -0.0587 -0.8024  0.3767
 3228TIP3    H2 9649   5.857   4.779   3.024 -0.6380  0.1041  2.2395
 3229TIP3   OH2 9650   4.407   0.020   1.579 -0.5485  0.7710  0.4072
 3229TIP3    H1 9651   4.355  -0.044   1.627 -0.6791 -1.0426 -1.9622
 3229TIP3    H2 9652   4.360   0.103   1.591 -2.0894 -0.1532  1.0852
 3230TIP3   OH2 9653   0.719   6.523   3.280  0.4316 -0.2408 -0.2807
 3230TIP3    H1 9654   0.691   6.552   3.367  2.8756  0.2696  0.4218
 3230TIP3    H2 9655   0.739   6.604   3.233  0.8104 -0.5703 -0.6957
 3231TIP3   OH2 9656   5.005   4.452   1.737 -0.0325 -0.2198  0.3066
 3231TIP3    H1 9657   5.055   4.437   1.657 -0.6931  1.3992 -0.4639
 3231TIP3    H2 9658   4.914   4.433   1.712  0.1298 -3.6339  1.8266
 3232TIP3   OH2 9659   2.820   2.912   0.054 -0.5012  0.7828  0.0636
 3232TIP3    H1 9660   2.753   2.964   0.008 -0.7097  0.0992 -0.4335
 3232TIP3    H2 9661   2.772   2.870   0.125  0.2634  3.6725  2.4811
 3233TIP3   OH2 9662   7.014   1.832   0.810 -0.0644  0.3775 -0.1199
 3233TIP3    H1 9663   7.030   1.922   0.840 -0.4100 -0.3595  2.5224
 3233TIP3    H2 9664   6.963   1.792   0.880  0.7202 -2.1179 -0.8708
 3234TIP3   OH2 9665   4.782   6.201   0.213  0.1006 -0.2946 -0.8179
 3234TIP3    H1 9666   4.791   6.106   0.203  0.3262 -0.2287 -1.2696
 3234TIP3    H2 9667   4.823   6.237   0.135 -1.0193  0.1352 -1.2335
 3235TIP3   OH2 9668   1.765   0.681   0.686  0.2690 -0.0282 -0.0844
 3235TIP3    H1 9669   1.728   0.631   0.613  0.5292 -0.9324  0.3879
 3235TIP3    H2 9670   1.751   0.626   0.763  0.1903  0.8196  0.5211
 3236TIP3   OH2 9671   1.883   0.929   1.738  0.3745 -0.0152 -0.3109
 3236TIP3    H1 9672   1.848   0.852   1.782  0.6074 -0.3975 -0.7868
 3236TIP3    H2 9673   1.975   0.932   1.763  1.2880 -1.8987 -2.9752
 3237TIP3   OH2 9674   2.757   1.761   4.553  0.6649 -0.0771 -0.7694
 3237TIP3    H1 9675   2.680   1.801   4.594  1.3690 -0.2636  0.7974
 3237TIP3    H2 9676   2.811   1.836   4.526  0.1491  0.0491 -1.4720
 3238TIP3   OH2 9677   2.442   4.965   0.938 -0.3983  0.6188 -0.0944
 3238TIP3    H1 9678   2.511   5.005   0.885  0.2467  0.2187  0.4227
 3238TIP3    H2 9679   2.479   4.880   0.965 -1.2319  0.2437 -0.1045
 3239TIP3   OH2 9680   2.364   0.164   1.520  0.5583 -0.0403  0.1002
 3239TIP3    H1 9681   2.406   0.234   1.570  0.2779 -0.6488  1.2164
 3239TIP3    H2 9682   2.287   0.205   1.481  0.1122  0.1835  1.1662
 3240TIP3   OH2 9683   3.929   2.962   2.563  0.0756  0.2849  0.1801
 3240TIP3    H1 9684   3.965   3.035   2.513  0.1533  0.3145  0.2783
 3240TIP3    H2 9685   3.963   2.975   2.652 -0.4741  0.5210  0.3660
 3241TIP3   OH2 9686   6.987   1.183   3.802 -0.0623  0.5879  0.2206
 3241TIP3    H1 9687   6.947   1.113   3.750  1.6609  2.3852 -3.9795
 3241TIP3    H2 9688   6.916   1.246   3.817 -0.3878  0.5114 -0.9433
 3242TIP3   OH2 9689   0.673   6.408   3.805 -0.6335 -0.4415  0.0604
 3242TIP3    H1 9690   0.599   6.467   3.819 -0.7271 -0.0019 -1.9361
 3242TIP3    H2 9691   0.632   6.321   3.799 -0.7566 -0.4389  0.7232
 3243TIP3   OH2 9692   6.431   5.868   1.911 -0.2268 -0.5076  0.1042
 3243TIP3    H1 9693   6.433   5.829   1.823 -0.4340  1.4755 -0.8381
 3243TIP3    H2 9694   6.510   5.835   1.954  0.3751 -0.7855 -1.1617
 3244TIP3   OH2 9695   3.958   1.519   0.122 -0.2718 -0.4118  0.5429
 3244TIP3    H1 9696   3.864   1.506   0.116 -0.4806  1.2565 -0.5529
 3244TIP3    H2 9697   3.978   1.580   0.050  1.7021 -1.0737  0.4775
 3245TIP3   OH2 9698   4.325   0.116   4.372  0.4608 -0.0815  0.1011
 3245TIP3    H1 9699   4.326   0.024   4.397  2.1585 -0.6352 -1.7732
 3245TIP3    H2 9700   4.408   0.151   4.404  0.2676  0.5528 -0.0658
 3246TIP3   OH2 9701   5.869   6.162   1.369 -0.5638  0.4804 -0.1644
 3246TIP3    H1 9702   5.777   6.183   1.379 -0.6617 -0.4813  1.1356
 3246TIP3    H2 9703   5.874   6.067   1.380  0.7031  0.6354  0.8960
 3247TIP3   OH2 9704   2.263   6.500   1.944 -0.1082  0.3718 -0.1361
 3247TIP3    H1 9705   2.268   6.587   1.985  1.8099 -0.2058  0.9527
 3247TIP3    H2 9706   2.354   6.473   1.933 -0.6391 -2.0577  0.7493
 3248TIP3   OH2 9707   0.355   6.021   4.457 -0.0231  0.0914 -0.0524
 3248TIP3    H1 9708   0.318   6.013   4.370  1.7312 -0.4078 -0.7957
 3248TIP3    H2 9709   0.355   5.932   4.492  1.2109 -0.0571 -0.3992
 3249TIP3   OH2 9710   4.199   4.292   0.152  0.0121 -0.3165 -0.3932
 3249TIP3    H1 9711   4.268   4.248   0.200 -0.7719  0.7303  1.8179
 3249TIP3    H2 9712   4.117   4.263   0.193 -0.6982  0.6436 -1.0667
 3250TIP3   OH2 9713   2.711   5.762   2.798  0.0041  0.1366 -0.5682
 3250TIP3    H1 9714   2.673   5.756   2.885 -0.3244 -0.3456 -0.7406
 3250TIP3    H2 9715   2.797   5.800   2.812  1.3532 -2.9221  0.3826
 3251TIP3   OH2 9716   3.216   2.418   5.639 -0.3914 -0.7771  0.5884
 3251TIP3    H1 9717   3.150   2.379   5.581  0.2057 -2.8926  1.2208
 3251TIP3    H2 9718   3.165   2.466   5.705 -1.1087  0.6813 -0.9761
 3252TIP3   OH2 9719   1.561   4.549   4.690 -0.7346  0.5699  0.0049
 3252TIP3    H1 9720   1.502   4.539   4.764 -1.7452  1.5365 -0.6461
 3252TIP3    H2 9721   1.555   4.465   4.643 -1.8014  0.7511 -0.1994
 3253TIP3   OH2 9722   6.131   4.320   2.726  0.0817  0.1697  0.4211
 3253TIP3    H1 9723   6.164   4.230   2.719  0.2994  0.2336  0.6087
 3253TIP3    H2 9724   6.092   4.324   2.813  1.0923  0.5912  0.8593
 3254TIP3   OH2 9725   4.070   2.177   5.335  0.5902 -0.2675 -0.2588
 3254TIP3    H1 9726   4.126   2.135   5.270 -0.0116 -1.7456  0.1515
 3254TIP3    H2 9727   4.013   2.234   5.284  2.6192  1.5371 -0.6628
 3255TIP3   OH2 9728   5.231   1.674   5.192 -0.4176  0.1265  0.4739
 3255TIP3    H1 9729   5.146   1.687   5.149  0.1437  1.6129 -0.2662
 3255TIP3    H2 9730   5.272   1.760   5.188  0.8577 -0.4207  1.4222
 3256TIP3   OH2 9731   7.187   0.188   1.202 -0.1417  0.1586  0.1100
 3256TIP3    H1 9732   7.182   0.104   1.246 -0.4405 -0.3562 -0.8717
 3256TIP3    H2 9733   7.222   0.167   1.115 -0.7213  0.9772 -0.3293
 3257TIP3   OH2 9734   7.105   5.093   2.690  0.3122 -0.3392  0.3623
 3257TIP3    H1 9735   7.134   5.111   2.780 -2.4112  2.6673  0.8444
 3257TIP3    H2 9736   7.125   5.174   2.642  0.0954 -1.2197 -1.2797
 3258TIP3   OH2 9737   1.968   6.250   4.070 -0.6133  0.4070  0.3250
 3258TIP3    H1 9738   2.044   6.207   4.109 -0.3037  1.3158  0.7550
 3258TIP3    H2 9739   2.001   6.289   3.989 -0.9604 -0.3912 -0.2152
 3259TIP3   OH2 9740   6.885   0.402   2.253 -0.5461 -0.1784  0.4223
 3259TIP3    H1 9741   6.806   0.360   2.219  2.0209 -2.6078 -3.2150
 3259TIP3    H2 9742   6.910   0.349   2.329 -1.1049 -0.8801  0.1299
 3260TIP3   OH2 9743   7.127   2.456   4.116 -0.2382 -0.1535  0.1607
 3260TIP3    H1 9744   7.098   2.485   4.203 -0.3145  2.9989 -0.7915
 3260TIP3    H2 9745   7.107   2.530   4.059  1.1328 -1.5700 -2.2970
 3261TIP3   OH2 9746   5.769   0.623   5.080  0.0779  0.4018  0.2761
 3261TIP3    H1 9747   5.692   0.592   5.128  0.4448  0.3698  0.8619
 3261TIP3    H2 9748   5.823   0.665   5.147  0.7677  0.0506 -0.0502
 3262TIP3   OH2 9749   1.702   5.849   2.313 -0.2584 -0.2168  0.5684
 3262TIP3    H1 9750   1.777   5.790   2.305  0.8619  1.3271 -1.1847
 3262TIP3    H2 9751   1.633   5.796   2.352  1.0543 -2.3380  0.1305
 3263TIP3   OH2 9752   1.628   1.570   0.774 -0.3498  0.0622 -0.4078
 3263TIP3    H1 9753   1.578   1.535   0.700 -0.9799  0.0946 -0.0103
 3263TIP3    H2 9754   1.714   1.590   0.738 -0.5776 -0.1339 -1.0787
 3264TIP3   OH2 9755   1.829   2.822   1.528  0.1012 -0.0338 -0.2415
 3264TIP3    H1 9756   1.802   2.912   1.547 -0.7885  0.0668 -1.7771
 3264TIP3    H2 9757   1.924   2.822   1.539  0.1455  1.1738 -0.5323
 3265TIP3   OH2 9758   2.630   1.259   4.426  0.2267 -0.5442  0.0408
 3265TIP3    H1 9759   2.626   1.351   4.400  1.6992 -0.3414  0.3954
 3265TIP3    H2 9760   2.659   1.213   4.348 -0.7997 -0.7695 -0.2220
 3266TIP3   OH2 9761   3.599   3.588   2.019  0.6488 -0.3416  0.1933
 3266TIP3    H1 9762   3.681   3.626   2.049  0.5158 -0.3344  0.5442
 3266TIP3    H2 9763   3.533   3.619   2.081  0.5078 -0.9746  0.3694
 3267TIP3   OH2 9764   5.722   4.843   3.401  0.1351  0.0027 -0.1687
 3267TIP3    H1 9765   5.667   4.782   3.352 -0.1340 -0.7347  1.0116
 3267TIP3    H2 9766   5.666   4.876   3.471  0.9241 -0.0546  0.5052
 3268TIP3   OH2 9767   3.756   3.020   4.469  0.2530  0.2454 -0.1540
 3268TIP3    H1 9768   3.700   2.943   4.473 -0.1545  0.5948  2.5993
 3268TIP3    H2 9769   3.736   3.060   4.384 -0.1222 -2.1724 -1.2927
 3269TIP3   OH2 9770   0.859   4.039   5.673 -0.4443  0.4076 -0.1412
 3269TIP3    H1 9771   0.775   4.074   5.701 -0.3002  1.5787 -1.1016
 3269TIP3    H2 9772   0.880   4.087   5.593  0.3343 -1.0723 -0.8648
 3270TIP3   OH2 9773   4.348   2.342   3.569 -0.1978 -0.1948  0.2353
 3270TIP3    H1 9774   4.298   2.422   3.553 -1.6119 -1.1889 -0.5836
 3270TIP3    H2 9775   4.406   2.335   3.493 -2.4763 -1.6514 -1.4772
 3271TIP3   OH2 9776   3.798   5.420   0.133 -0.3014 -0.1895  0.4148
 3271TIP3    H1 9777   3.722   5.388   0.180 -0.8189  0.1415 -0.1851
 3271TIP3    H2 9778   3.775   5.411   0.040  0.5428 -0.4654  0.2143
 3272TIP3   OH2 9779   2.947   5.683   1.147 -0.4496 -0.4266 -0.1652
 3272TIP3    H1 9780   2.951   5.593   1.116 -1.0602 -0.3287 -0.5311
 3272TIP3    H2 9781   2.898   5.730   1.080 -2.2838 -0.3252  1.1809
 3273TIP3   OH2 9782   1.637   0.943   3.939  0.0379  0.8466 -0.0465
 3273TIP3    H1 9783   1.719   0.962   3.985  0.3561 -0.2682 -0.1263
 3273TIP3    H2 9784   1.645   0.851   3.913 -1.4439  0.5811  0.3597
 3274TIP3   OH2 9785   0.911   3.871   2.620  0.6368  0.0565  0.0605
 3274TIP3    H1 9786   0.889   3.928   2.547  1.6291  1.5429  0.8664
 3274TIP3    H2 9787   0.914   3.783   2.582 -0.3351  0.5917 -1.3414
 3275TIP3   OH2 9788   4.111   3.612   0.228  0.3583 -0.0340 -0.8157
 3275TIP3    H1 9789   4.024   3.650   0.212 -0.5275 -1.5892 -0.0030
 3275TIP3    H2 9790   4.092   3.529   0.272  2.3303  0.8529  2.0084
 3276TIP3   OH2 9791   4.811   2.977   4.785  0.2437 -0.4514 -0.4722
 3276TIP3    H1 9792   4.772   2.894   4.811 -0.9013 -0.3479 -1.7983
 3276TIP3    H2 9793   4.823   2.970   4.691 -0.4868  1.1380 -0.7044
 3277TIP3   OH2 9794   3.339   5.680   1.017  0.2771 -0.3687 -0.1417
 3277TIP3    H1 9795   3.297   5.760   1.050  1.5660 -0.5400  2.0445
 3277TIP3    H2 9796   3.296   5.609   1.063  1.5998 -0.6742  0.6634
 3278TIP3   OH2 9797   5.661   3.571   1.025 -0.2306 -0.0803  0.2707
 3278TIP3    H1 9798   5.680   3.574   0.932  1.0775  1.2163  0.5349
 3278TIP3    H2 9799   5.577   3.527   1.032  0.8971 -2.7007 -1.2958
 3279TIP3   OH2 9800   5.980   6.540   1.359 -0.3402 -0.5145 -0.3993
 3279TIP3    H1 9801   5.986   6.626   1.399 -0.1911 -0.7102  0.0094
 3279TIP3    H2 9802   6.058   6.534   1.304  0.3913 -0.9179  0.6441
 3280TIP3   OH2 9803   7.136   6.215   5.336  0.1337 -0.0623  0.2020
 3280TIP3    H1 9804   7.120   6.194   5.244 -0.1266 -0.8093  0.4187
 3280TIP3    H2 9805   7.074   6.161   5.385 -0.4593  1.0829  0.7801
 3281TIP3   OH2 9806   2.101   6.000   2.623  0.1992 -0.0136  0.4804
 3281TIP3    H1 9807   2.114   6.073   2.563  0.8270  1.0684  1.8631
 3281TIP3    H2 9808   2.182   5.949   2.616 -0.2559 -0.6202 -0.5154
 3282TIP3   OH2 9809   2.546   0.355   3.425  0.0021  0.0462  0.4706
 3282TIP3    H1 9810   2.454   0.368   3.401  0.3813  2.1685 -0.1048
 3282TIP3    H2 9811   2.589   0.333   3.342  0.2162  0.5103  0.4509
 3283TIP3   OH2 9812   1.948   3.758   2.227 -0.2492 -0.0999 -0.4856
 3283TIP3    H1 9813   1.976   3.677   2.184 -1.6247 -0.3592 -0.9456
 3283TIP3    H2 9814   1.857   3.770   2.199 -1.2526 -0.3100  2.4203
 3284TIP3   OH2 9815   1.410   5.432   2.554  0.1655 -0.1938  0.2339
 3284TIP3    H1 9816   1.436   5.484   2.630 -2.0437 -0.7415  1.4398
 3284TIP3    H2 9817   1.440   5.484   2.479  1.2728  0.9953  1.4259
 3285TIP3   OH2 9818   4.276   1.943   1.830  0.2894  0.4516  0.3520
 3285TIP3    H1 9819   4.333   1.884   1.781  1.4923  0.9154  1.1465
 3285TIP3    H2 9820   4.208   1.886   1.867  0.2447 -0.1125 -0.5720
 3286TIP3   OH2 9821   0.196   2.485   4.838  0.5316  0.0172 -0.0178
 3286TIP3    H1 9822   0.113   2.454   4.872 -0.9892  0.9486 -2.6048
 3286TIP3    H2 9823   0.248   2.504   4.916 -1.0844 -2.0063  1.6633
 3287TIP3   OH2 9824   6.386   0.392   1.945  0.4377 -0.5557  0.1040
 3287TIP3    H1 9825   6.361   0.309   1.904  0.8348 -1.5193  1.7546
 3287TIP3    H2 9826   6.481   0.391   1.944  0.4433 -0.1715  0.2628
 3288TIP3   OH2 9827   2.013   5.521   0.953  0.0744 -0.1839  0.1135
 3288TIP3    H1 9828   2.083   5.557   1.009  2.5162 -2.5185 -1.1917
 3288TIP3    H2 9829   1.991   5.593   0.894  1.6643  0.5404  0.3415
 3289TIP3   OH2 9830   2.141   2.390   0.235 -0.1426 -0.0373 -0.2391
 3289TIP3    H1 9831   2.234   2.392   0.255  0.3512  2.5628 -2.1829
 3289TIP3    H2 9832   2.098   2.373   0.319  2.0024  1.5870  1.3009
 3290TIP3   OH2 9833   4.653   0.281   5.026  0.2523  0.3608 -0.6559
 3290TIP3    H1 9834   4.662   0.329   4.944 -0.4105  2.1150  0.2410
 3290TIP3    H2 9835   4.590   0.212   5.007 -0.3543  1.1188 -1.4829
 3291TIP3   OH2 9836   0.961   3.116   0.646 -0.4568 -0.5542 -0.4958
 3291TIP3    H1 9837   0.968   3.193   0.703 -1.5919  0.2722 -1.4240
 3291TIP3    H2 9838   1.044   3.115   0.597 -1.1771  1.2807 -1.8844
 3292TIP3   OH2 9839   0.681   6.061   0.967 -0.4685  0.5142 -0.2879
 3292TIP3    H1 9840   0.670   6.156   0.966  0.1464  0.6008  0.2499
 3292TIP3    H2 9841   0.775   6.048   0.952 -0.8449 -0.0832 -2.3617
 3293TIP3   OH2 9842   4.855   5.853   1.747  0.2538 -0.3060  0.1572
 3293TIP3    H1 9843   4.949   5.870   1.742 -0.1967  2.2714 -1.3671
 3293TIP3    H2 9844   4.830   5.882   1.835  0.7644 -0.5193  0.3807
 3294TIP3   OH2 9845   4.301   4.111   1.962 -0.0354 -0.3180  0.0038
 3294TIP3    H1 9846   4.255   4.168   1.900  0.7821  0.7332  0.3282
 3294TIP3    H2 9847   4.237   4.043   1.984 -0.7210 -0.0562 -1.1044
 3295TIP3   OH2 9848   6.876   4.540   3.474  0.0267 -0.1764  1.2069
 3295TIP3    H1 9849   6.971   4.548   3.475  0.1701 -1.4546  0.4461
 3295TIP3    H2 9850   6.857   4.469   3.535 -0.4595  0.2294  1.5326
 3296TIP3   OH2 9851   1.201   0.807   3.798  0.0190  0.4668 -0.0666
 3296TIP3    H1 9852   1.282   0.847   3.829  0.6052 -0.4690 -0.3374
 3296TIP3    H2 9853   1.138   0.822   3.868  1.2386 -1.3957  1.5175
 3297TIP3   OH2 9854   7.087   5.731   4.567  0.4414  0.1457 -0.0037
 3297TIP3    H1 9855   7.040   5.786   4.630 -1.2267 -0.7838 -0.3534
 3297TIP3    H2 9856   7.179   5.752   4.580  0.0783  0.7113  2.0545
 3298TIP3   OH2 9857   6.993   3.338   0.425  0.0904  0.3746  0.2389
 3298TIP3    H1 9858   7.044   3.405   0.380  1.3657  0.3233  1.5274
 3298TIP3    H2 9859   6.911   3.382   0.448  0.6562  1.3153  0.5212
 3299TIP3   OH2 9860   2.971   2.662   4.550 -0.0190  1.0232  0.3228
 3299TIP3    H1 9861   2.919   2.662   4.470  1.5777 -0.9030 -0.8276
 3299TIP3    H2 9862   3.053   2.706   4.525  1.4365 -1.5961  0.0893
 3300TIP3   OH2 9863   5.126   5.400   1.397  0.0977 -0.0403  0.4128
 3300TIP3    H1 9864   5.044   5.398   1.347 -0.9868 -0.4855  2.1289
 3300TIP3    H2 9865   5.099   5.411   1.488  1.8779 -1.4557  1.1797
 3301TIP3   OH2 9866   4.235   2.444   4.356 -0.2373  0.1721  0.1388
 3301TIP3    H1 9867   4.291   2.368   4.340 -0.6087 -0.0078 -0.3164
 3301TIP3    H2 9868   4.295   2.511   4.388  0.0688 -0.3596  0.6894
 3302TIP3   OH2 9869   6.151   4.482   3.468 -0.9737 -0.1107 -0.1495
 3302TIP3    H1 9870   6.242   4.497   3.442 -0.9766  2.1063  0.9130
 3302TIP3    H2 9871   6.155   4.408   3.527  0.3285  0.6351  0.7496
 3303TIP3   OH2 9872   7.187   4.610   4.994 -0.2938 -0.1052 -0.0379
 3303TIP3    H1 9873   7.161   4.575   4.909 -0.9256 -1.0800  0.5359
 3303TIP3    H2 9874   7.272   4.652   4.978 -0.5722  0.0415 -1.2119
 3304TIP3   OH2 9875   2.174   6.178   5.065  0.4954  0.1741  0.6672
 3304TIP3    H1 9876   2.096   6.234   5.059 -0.9147 -1.7265  0.2517
 3304TIP3    H2 9877   2.141   6.089   5.050  2.7699 -0.7060  0.4587
 3305TIP3   OH2 9878   5.574   2.501   5.521  0.5371  0.0182  0.5259
 3305TIP3    H1 9879   5.668   2.517   5.517  0.8763 -1.8872 -0.7714
 3305TIP3    H2 9880   5.566   2.406   5.523 -1.3676  0.1493  1.3949
 3306TIP3   OH2 9881   2.858   2.650   5.496  0.3398 -0.4407  0.0523
 3306TIP3    H1 9882   2.789   2.594   5.531 -1.9285  1.2844 -1.3875
 3306TIP3    H2 9883   2.855   2.636   5.401  0.5447  1.1568 -0.2231
 3307TIP3   OH2 9884   4.634   1.196   3.303  0.0964 -0.4592  0.0330
 3307TIP3    H1 9885   4.622   1.291   3.306 -0.9945 -0.5885  0.3018
 3307TIP3    H2 9886   4.614   1.167   3.392 -0.1134 -0.9968 -0.1885
 3308TIP3   OH2 9887   5.569   4.644   4.699  0.0541  0.4475 -0.3148
 3308TIP3    H1 9888   5.629   4.570   4.706 -1.3328 -0.7456 -0.5687
 3308TIP3    H2 9889   5.510   4.621   4.628 -1.2091  1.1941  0.4481
 3309TIP3   OH2 9890   6.158   0.320   0.044 -0.4898  0.3280 -0.3211
 3309TIP3    H1 9891   6.251   0.314   0.021 -0.1687 -0.0245  0.9727
 3309TIP3    H2 9892   6.157   0.316   0.140 -1.9407 -0.9974 -0.3546
 3310TIP3   OH2 9893   2.699   4.645   3.470  0.1581  0.0612  0.6962
 3310TIP3    H1 9894   2.744   4.701   3.406  1.0286 -1.3597  0.0158
 3310TIP3    H2 9895   2.654   4.706   3.528  0.6676  1.4437 -0.3135
 3311TIP3   OH2 9896   0.725   1.539   5.443  0.1328 -0.1150  0.0940
 3311TIP3    H1 9897   0.745   1.616   5.496 -1.2630  0.0669  0.4065
 3311TIP3    H2 9898   0.635   1.517   5.466 -1.1187  0.8669 -3.2449
 3312TIP3   OH2 9899   6.682   6.131   0.932 -0.3117  0.2905 -0.4304
 3312TIP3    H1 9900   6.724   6.057   0.887 -1.3836 -0.2631 -0.5518
 3312TIP3    H2 9901   6.677   6.199   0.864 -0.9089 -0.1496 -0.8388
 3313TIP3   OH2 9902   4.220   0.805   4.944 -0.2330 -0.0732  0.8365
 3313TIP3    H1 9903   4.282   0.835   4.877 -1.2352  1.5969  0.5921
 3313TIP3    H2 9904   4.179   0.728   4.906 -0.6836  0.7627 -0.4537
 3314TIP3   OH2 9905   3.897   1.761   4.078  0.6004 -0.1619 -0.1945
 3314TIP3    H1 9906   3.972   1.768   4.018  0.6918 -0.6515 -0.1426
 3314TIP3    H2 9907   3.823   1.740   4.021  0.5696 -0.0201 -0.2062
 3315TIP3   OH2 9908   3.714   0.576   1.093 -0.0542 -1.0854  0.2033
 3315TIP3    H1 9909   3.771   0.536   1.027  0.8402  0.0860  0.2485
 3315TIP3    H2 9910   3.756   0.659   1.115 -0.8923 -0.9722  1.4883
 3316TIP3   OH2 9911   1.592   1.766   5.813  0.2543 -0.3207 -0.3582
 3316TIP3    H1 9912   1.624   1.699   5.872  0.3248 -1.1584 -1.3267
 3316TIP3    H2 9913   1.505   1.735   5.786  0.6167 -0.4431 -1.4311
 3317TIP3   OH2 9914   4.954   1.353   3.675 -0.0058  0.2051 -0.2345
 3317TIP3    H1 9915   4.925   1.298   3.748 -0.8191  1.7240  0.6359
 3317TIP3    H2 9916   5.037   1.315   3.647 -0.3090 -1.1621  0.6425
 3318TIP3   OH2 9917   4.155   3.685   3.448 -0.6786 -0.1394  0.5011
 3318TIP3    H1 9918   4.165   3.698   3.542  0.9073 -0.9790  0.4813
 3318TIP3    H2 9919   4.207   3.755   3.408  0.6907 -1.2238  0.3084
 3319TIP3   OH2 9920   5.142   1.164   2.576 -0.2706  0.4141 -0.0128
 3319TIP3    H1 9921   5.142   1.079   2.620 -1.5397 -0.2377 -1.1798
 3319TIP3    H2 9922   5.231   1.172   2.541 -0.0612 -0.3249  0.3241
 3320TIP3   OH2 9923   2.851   1.031   2.815  0.1252  0.6963 -0.2139
 3320TIP3    H1 9924   2.772   1.019   2.761  0.6378  0.1003 -0.8557
 3320TIP3    H2 9925   2.924   1.015   2.754  0.7197  0.0831  0.6348
 3321TIP3   OH2 9926   0.275   1.433   4.714 -0.4288 -0.1601 -0.1756
 3321TIP3    H1 9927   0.324   1.479   4.782 -0.2673  1.1360 -1.1351
 3321TIP3    H2 9928   0.192   1.409   4.755 -0.5136  0.9932  0.3515
 3322TIP3   OH2 9929   7.081   6.512   5.443 -0.1906 -0.4012  0.1226
 3322TIP3    H1 9930   7.113   6.425   5.468 -0.3569 -0.8947 -1.3169
 3322TIP3    H2 9931   7.142   6.573   5.487 -0.7853 -1.1673  2.1318
 3323TIP3   OH2 9932   3.981   4.010   4.935  0.0513 -0.0301  0.5646
 3323TIP3    H1 9933   4.058   4.019   4.879 -1.6180  0.3746 -1.7953
 3323TIP3    H2 9934   3.953   4.099   4.953 -0.9624 -0.1680 -0.2422
 3324TIP3   OH2 9935   1.793   0.620   1.407 -0.3975  0.2541 -0.1398
 3324TIP3    H1 9936   1.742   0.678   1.350 -0.7828  0.6343  0.5857
 3324TIP3    H2 9937   1.810   0.542   1.353 -0.6076  0.6760 -0.8293
 3325TIP3   OH2 9938   1.982   0.889   1.225 -0.0004  0.4258 -0.0126
 3325TIP3    H1 9939   1.930   0.880   1.306 -0.7455 -0.5873 -0.5721
 3325TIP3    H2 9940   1.916   0.896   1.156  0.6323  0.7889 -0.5805
 3326TIP3   OH2 9941   0.387   0.712   0.336 -0.2402  0.2705 -0.4626
 3326TIP3    H1 9942   0.465   0.706   0.282 -0.9147  1.2803 -1.6172
 3326TIP3    H2 9943   0.378   0.806   0.354 -0.9509  0.1205 -0.0053
 3327TIP3   OH2 9944   2.396   5.182   4.584  0.0075 -0.6642  0.2606
 3327TIP3    H1 9945   2.481   5.156   4.549  1.2665  3.4711 -0.2286
 3327TIP3    H2 9946   2.414   5.205   4.675 -0.4792  0.6514  0.0345
 3328TIP3   OH2 9947   2.987   3.684   0.659  0.3943  0.0184  0.2164
 3328TIP3    H1 9948   2.965   3.620   0.592  3.5908  0.3267 -1.2922
 3328TIP3    H2 9949   3.063   3.648   0.703  0.8868  1.7355  0.8631
 3329TIP3   OH2 9950   4.816   0.952   3.321  0.1478  0.2831 -0.6127
 3329TIP3    H1 9951   4.779   0.908   3.245 -1.4304  1.5387 -0.6334
 3329TIP3    H2 9952   4.761   1.029   3.333  1.2965  0.9272  0.8965
 3330TIP3   OH2 9953   6.308   2.765   0.692 -0.2388  0.2105 -0.5737
 3330TIP3    H1 9954   6.269   2.683   0.661 -0.1540  0.6818 -1.9975
 3330TIP3    H2 9955   6.292   2.827   0.621  0.4019  1.2195  0.1453
 3331TIP3   OH2 9956   3.936   2.351   4.066 -0.8032  0.3190 -0.3376
 3331TIP3    H1 9957   3.953   2.417   4.132 -0.5917  1.1020 -1.1468
 3331TIP3    H2 9958   3.929   2.401   3.984  1.3507 -0.8363 -1.2902
 3332TIP3   OH2 9959   1.580   4.617   3.419  0.6048 -0.2794  0.2963
 3332TIP3    H1 9960   1.545   4.609   3.331 -0.3827  0.3991  0.6147
 3332TIP3    H2 9961   1.505   4.597   3.476  0.8466  0.7219  0.9836
 3333TIP3   OH2 9962   1.081   3.631   1.648  0.4980 -0.1756 -0.1628
 3333TIP3    H1 9963   1.056   3.539   1.659  2.1397 -0.6703 -0.3146
 3333TIP3    H2 9964   1.077   3.646   1.553  1.3466 -0.4476 -0.2514
 3334TIP3   OH2 9965   3.214   1.094   3.113 -0.0670 -0.3307  0.1066
 3334TIP3    H1 9966   3.133   1.050   3.141  0.9099 -1.4401  1.2836
 3334TIP3    H2 9967   3.185   1.155   3.045 -1.5973 -2.2273 -1.0512
 3335TIP3   OH2 9968   0.485   0.560   2.136  0.1739  0.3106 -0.3794
 3335TIP3    H1 9969   0.570   0.562   2.180 -0.0027 -0.2643  0.0025
 3335TIP3    H2 9970   0.462   0.467   2.134  0.6631  0.1651 -2.6120
 3336TIP3   OH2 9971   5.847   4.214  -0.014 -0.2432  0.0480 -0.1930
 3336TIP3    H1 9972   5.902   4.292  -0.009 -1.7711  1.2714 -1.4894
 3336TIP3    H2 9973   5.890   4.151   0.043  0.9828  1.8647  1.0036
 3337TIP3   OH2 9974   2.777   3.623   2.160 -0.3341  0.0005 -0.4651
 3337TIP3    H1 9975   2.766   3.535   2.196 -1.6623 -0.0775 -0.9970
 3337TIP3    H2 9976   2.689   3.659   2.157  0.2220  1.5073  0.0735
 3338TIP3   OH2 9977   0.542   3.956   3.983 -0.2984  0.0254 -0.1149
 3338TIP3    H1 9978   0.547   3.884   3.920  0.7323 -1.0736  1.1582
 3338TIP3    H2 9979   0.469   3.932   4.040  0.7346 -0.6025  0.9766
 3339TIP3   OH2 9980   2.760   4.524   0.936  0.2945 -0.1207  0.1317
 3339TIP3    H1 9981   2.744   4.432   0.914 -2.2593 -0.1032  1.5468
 3339TIP3    H2 9982   2.722   4.534   1.023  0.2414  2.3698 -0.1222
 3340TIP3   OH2 9983   6.706   3.280   3.409  0.1460 -0.3104 -0.4096
 3340TIP3    H1 9984   6.658   3.358   3.380 -0.5520 -0.3152  0.6786
 3340TIP3    H2 9985   6.794   3.291   3.373 -0.1626  0.5889 -0.9210
 3341TIP3   OH2 9986   1.258   0.254   2.276  0.1850 -0.0930 -0.5154
 3341TIP3    H1 9987   1.290   0.294   2.195 -0.7347 -1.0470 -1.3675
 3341TIP3    H2 9988   1.336   0.247   2.331  0.4243  2.7792 -0.3241
 3342TIP3   OH2 9989   5.975   0.983   2.875 -0.1065  0.0846  0.0596
 3342TIP3    H1 9990   5.953   1.052   2.937  0.2725 -0.4273  0.7685
 3342TIP3    H2 9991   5.912   0.913   2.893  0.5714 -0.4293  0.4915
 3343TIP3   OH2 9992   4.739   4.110   5.384 -0.5538 -0.0916  0.2531
 3343TIP3    H1 9993   4.753   4.184   5.443  1.4536 -1.4620  1.6371
 3343TIP3    H2 9994   4.674   4.056   5.429 -1.7253  0.5881 -0.5710
 3344TIP3   OH2 9995   3.261   1.006   0.108  0.1046  0.8861 -0.2233
 3344TIP3    H1 9996   3.317   1.066   0.155 -0.6423  0.2292  1.5919
 3344TIP3    H2 9997   3.314   0.927   0.096 -0.7899 -0.2983  2.8174
 3345TIP3   OH2 9998   2.972   5.768   4.287  0.3166 -0.2795  0.5799
 3345TIP3    H1 9999   3.040   5.730   4.342 -1.3474 -1.0964  2.1524
 3345TIP3    H210000   2.936   5.694   4.238 -1.0196 -0.3161  1.5519
 3346TIP3   OH210001   2.028   0.212   5.685  0.1405 -0.1277 -0.8190
 3346TIP3    H110002   1.977   0.228   5.764  1.3948  3.7149 -0.5670
 3346TIP3    H210003   2.119   0.209   5.715  0.4995 -0.6748 -1.8964
 3347TIP3   OH210004   5.600   3.082   1.250  0.3207  0.0923  0.3775
 3347TIP3    H110005   5.686   3.095   1.290  0.1212  0.1553  0.7975
 3347TIP3    H210006   5.582   3.165   1.206  0.1142  0.3834  0.9953
 3348TIP3   OH210007   4.095   1.723   1.907  0.1518 -0.2752  0.1002
 3348TIP3    H110008   4.081   1.719   1.813  2.5163 -0.5677 -0.3045
 3348TIP3    H210009   4.012   1.754   1.943 -1.0343 -0.8854 -1.9887
 3349TIP3   OH210010   2.306   0.059   3.034 -0.5997  0.1722 -0.3074
 3349TIP3    H110011   2.357  -0.022   3.038 -1.0647 -0.2022 -1.6472
 3349TIP3    H210012   2.272   0.062   2.945  0.3404  2.4122 -0.6680
 3350TIP3   OH210013   1.079   4.230   2.570 -0.2389  0.2924 -0.3862
 3350TIP3    H110014   1.123   4.224   2.485 -0.8719  0.6921 -0.7471
 3350TIP3    H210015   1.060   4.323   2.580  1.7061  0.5792  1.1645
 3351TIP3   OH210016   3.108   0.934   5.615  0.1692 -0.5753  0.5513
 3351TIP3    H110017   3.118   0.916   5.708  1.0435  0.0310  0.5976
 3351TIP3    H210018   3.197   0.924   5.580  0.7847  3.1372  0.5440
 3352TIP3   OH210019   3.563   1.265   1.258 -0.2787  0.4740  0.1662
 3352TIP3    H110020   3.479   1.223   1.238  0.3464  0.0407 -1.6746
 3352TIP3    H210021   3.592   1.302   1.175  1.1869  0.9582  0.8665
 3353TIP3   OH210022   5.653   1.797   4.556  0.6718 -0.5894 -0.1959
 3353TIP3    H110023   5.713   1.850   4.607  1.9410  0.0160 -2.2106
 3353TIP3    H210024   5.567   1.835   4.573  1.2892  0.7492  0.0677
 3354TIP3   OH210025   6.637   6.447   2.574  0.2249 -0.1752  0.2285
 3354TIP3    H110026   6.729   6.420   2.571  0.9420  2.1132 -1.9304
 3354TIP3    H210027   6.640   6.543   2.574 -2.1440 -0.0145 -1.1733
 3355TIP3   OH210028   5.633   6.765   4.405 -0.2939  0.2085 -0.8472
 3355TIP3    H110029   5.594   6.788   4.489  0.2939  0.3427 -0.6079
 3355TIP3    H210030   5.642   6.670   4.408 -0.2786  0.2125 -0.7606
 3356TIP3   OH210031   3.115   3.915   0.566 -0.5554  0.6914 -0.5874
 3356TIP3    H110032   3.101   3.904   0.471  0.5843  0.2938 -0.7295
 3356TIP3    H210033   3.068   3.841   0.605 -0.8117  0.7034 -0.8619
 3357TIP3   OH210034   2.640   0.521   2.059  0.7561  0.2944 -0.1203
 3357TIP3    H110035   2.715   0.487   2.010 -0.7718 -1.6651 -1.2643
 3357TIP3    H210036   2.574   0.538   1.992  0.3387  2.6139  0.7924
 3358TIP3   OH210037   2.103   0.113   4.711 -0.0346  0.3954 -0.4876
 3358TIP3    H110038   2.177   0.173   4.725 -1.0155  1.8049 -1.0895
 3358TIP3    H210039   2.091   0.112   4.616 -0.5896 -0.0527 -0.4171
 3359TIP3   OH210040   6.782   5.926   0.767  0.1766  0.1222  0.6097
 3359TIP3    H110041   6.714   5.876   0.721  0.3467  0.2854  0.1714
 3359TIP3    H210042   6.863   5.876   0.751  0.0785 -0.3687  1.5896
 3360TIP3   OH210043   6.082   5.420   2.958  0.1251 -0.1312  0.5673
 3360TIP3    H110044   6.014   5.387   2.898  0.4042 -0.0061  0.1815
 3360TIP3    H210045   6.034   5.443   3.037 -0.5350  1.4789 -0.2601
 3361TIP3   OH210046   4.089   6.283   1.710 -0.6475 -0.6585 -0.2339
 3361TIP3    H110047   4.152   6.305   1.778 -0.4489  0.2526 -0.7084
 3361TIP3    H210048   4.088   6.187   1.708  0.4887 -0.6822 -0.0166
 3362TIP3   OH210049   4.616   2.996   5.847 -0.4025  0.8193 -0.1296
 3362TIP3    H110050   4.550   3.062   5.824  0.1289  0.9164 -1.4764
 3362TIP3    H210051   4.690   3.015   5.789  0.4035  0.0593  0.6286
 3363TIP3   OH210052   5.225   2.542   5.111  0.5791 -0.3884  0.1417
 3363TIP3    H110053   5.291   2.602   5.077  1.5514 -1.0314  0.8411
 3363TIP3    H210054   5.152   2.548   5.049  2.0032 -1.0322 -1.6681
 3364TIP3   OH210055   5.419   3.753   4.469 -0.4147 -0.2344 -0.2262
 3364TIP3    H110056   5.486   3.775   4.534 -2.5937  0.9701  1.7744
 3364TIP3    H210057   5.384   3.669   4.498 -1.9979  0.7190  0.7966
 3365TIP3   OH210058   2.100   2.870   2.752  0.3265 -0.2931  0.0506
 3365TIP3    H110059   2.184   2.831   2.776  0.3921 -0.3483 -0.2701
 3365TIP3    H210060   2.080   2.833   2.666  0.0260 -0.1986  0.0805
 3366TIP3   OH210061   1.575   5.571   2.713  0.8428  0.2398 -0.5309
 3366TIP3    H110062   1.638   5.573   2.642  1.2532  1.6776 -0.1476
 3366TIP3    H210063   1.624   5.539   2.789  0.3593 -1.4807 -0.8949
 3367TIP3   OH210064   1.748   5.072   3.340  1.0338 -0.4602  0.2012
 3367TIP3    H110065   1.745   4.980   3.316  1.1081 -0.3444 -0.2636
 3367TIP3    H210066   1.756   5.072   3.435 -0.7089 -0.9137  0.3741
 3368TIP3   OH210067   6.537   0.017   2.466 -0.4501  0.0107 -0.2014
 3368TIP3    H110068   6.562   0.103   2.432 -1.3121 -0.0435 -1.0294
 3368TIP3    H210069   6.533  -0.039   2.388 -1.9743 -0.2508  0.0408
 3369TIP3   OH210070   3.473   2.800   2.075 -0.0455 -0.3283 -0.3487
 3369TIP3    H110071   3.413   2.790   2.001 -3.4113 -0.2405  2.1490
 3369TIP3    H210072   3.452   2.886   2.111 -0.3737 -1.3734  2.1362
 3370TIP3   OH210073   7.107   4.073   4.425  0.5369  0.1820 -0.0782
 3370TIP3    H110074   7.182   4.020   4.397  1.8088  1.5624  0.5375
 3370TIP3    H210075   7.075   4.030   4.505  0.0900 -0.9156 -0.8280
 3371TIP3   OH210076   5.915   4.785   4.401 -0.4924  0.2159  0.6910
 3371TIP3    H110077   5.941   4.778   4.493 -0.8139  2.4045  0.9907
 3371TIP3    H210078   5.837   4.839   4.402 -3.2348 -3.3006 -0.5122
 3372TIP3   OH210079   5.890   0.504   1.505 -0.0684 -0.4123  0.2054
 3372TIP3    H110080   5.852   0.465   1.427  1.6440 -1.9397  0.0684
 3372TIP3    H210081   5.815   0.519   1.564 -1.0841 -1.4639 -0.7818
 3373TIP3   OH210082   1.226   3.274   3.528 -0.2338  0.4821 -0.6976
 3373TIP3    H110083   1.165   3.333   3.573 -1.3717 -0.5090 -0.8927
 3373TIP3    H210084   1.204   3.187   3.560 -0.2564 -0.1149 -2.2585
 3374TIP3   OH210085   4.441   4.600   0.205 -0.0017 -0.3719  0.8297
 3374TIP3    H110086   4.369   4.587   0.143  0.0038 -1.8925  1.1133
 3374TIP3    H210087   4.466   4.512   0.232  0.1088  0.2480  2.8857
 3375TIP3   OH210088   3.681   1.443   2.695  0.3776  1.0307 -0.0618
 3375TIP3    H110089   3.596   1.473   2.661  0.1823 -0.3101 -0.8046
 3375TIP3    H210090   3.664   1.355   2.728  1.3431  1.0077  0.4045
 3376TIP3   OH210091   5.247   2.840   5.483 -0.2455  0.1467 -0.0165
 3376TIP3    H110092   5.295   2.776   5.430 -1.0856 -0.1315 -0.4614
 3376TIP3    H210093   5.231   2.913   5.424 -0.7493  0.0478 -0.0072
 3377TIP3   OH210094   5.763   2.200   3.294 -0.3544 -0.0011  0.2867
 3377TIP3    H110095   5.672   2.192   3.324  0.1492  1.1086  2.2689
 3377TIP3    H210096   5.759   2.178   3.201 -2.5934 -0.2813  0.3841
 3378TIP3   OH210097   4.140   5.972   0.573  0.2334  0.4086 -0.8009
 3378TIP3    H110098   4.068   6.024   0.609 -1.5123 -1.7705 -0.8953
 3378TIP3    H210099   4.219   6.013   0.609 -1.1780  1.2684  1.6169
 3379TIP3   OH210100   6.196   6.563   4.296 -0.0078  0.7756 -0.4487
 3379TIP3    H110101   6.234   6.624   4.359 -1.7735  0.0367  1.4786
 3379TIP3    H210102   6.138   6.617   4.242 -0.7574  1.0202  0.5578
 3380TIP3   OH210103   3.968   2.517   3.858 -0.0095  0.2427  0.0176
 3380TIP3    H110104   3.980   2.505   3.764  0.6008 -0.4416  0.1707
 3380TIP3    H210105   3.882   2.558   3.866  0.3520  1.2255 -0.8878
 3381TIP3   OH210106   1.685   6.321   0.104 -0.3921  0.3954 -0.4104
 3381TIP3    H110107   1.670   6.232   0.073 -0.7364  0.2933  0.0372
 3381TIP3    H210108   1.660   6.319   0.196  2.6109  0.1454  0.5120
 3382TIP3   OH210109   4.413   0.511   0.149  1.3206 -0.6171 -0.4056
 3382TIP3    H110110   4.404   0.423   0.187 -0.5162  0.5898  2.3047
 3382TIP3    H210111   4.354   0.512   0.074  1.0331 -1.5661 -0.1996
 3383TIP3   OH210112   0.509   4.008   5.428 -0.4984  0.5535  0.2293
 3383TIP3    H110113   0.488   3.962   5.508  1.3125  0.6234  0.7891
 3383TIP3    H210114   0.470   4.095   5.439  0.8025  1.0101  1.6446
 3384TIP3   OH210115   6.227   3.585   4.651 -0.3629 -0.3884  0.3061
 3384TIP3    H110116   6.169   3.572   4.577  1.9162 -1.0197 -1.5009
 3384TIP3    H210117   6.209   3.675   4.680 -0.2972  0.4543 -2.0192
 3385TIP3   OH210118   6.191   5.034   1.303  0.4243 -0.3480  0.1309
 3385TIP3    H110119   6.218   4.952   1.343 -2.7392 -0.9578  1.2834
 3385TIP3    H210120   6.265   5.093   1.318  1.5324 -2.0849  2.0567
 3386TIP3   OH210121   0.209   4.561   2.518  0.1370 -0.0714  0.5191
 3386TIP3    H110122   0.222   4.584   2.611  0.1281  0.6395  0.3509
 3386TIP3    H210123   0.295   4.573   2.479  0.6982 -2.4895  0.8419
 3387TIP3   OH210124   0.104   1.183   4.587 -0.1828 -0.2544 -0.4380
 3387TIP3    H110125   0.141   1.235   4.515  2.6403 -0.1701  0.9127
 3387TIP3    H210126   0.150   1.099   4.582  0.4569 -0.0766  1.4935
 3388TIP3   OH210127   4.883   3.816   4.777 -0.1569  0.6821  0.2076
 3388TIP3    H110128   4.799   3.811   4.821 -0.5514 -2.9885 -0.5957
 3388TIP3    H210129   4.863   3.803   4.685  1.2271 -1.0912  0.0788
 3389TIP3   OH210130   2.559   6.176   0.210  0.5429 -0.3177 -0.0160
 3389TIP3    H110131   2.500   6.198   0.137 -0.3451 -0.7019  0.5754
 3389TIP3    H210132   2.560   6.254   0.265  1.0580 -0.1009 -0.3199
 3390TIP3   OH210133   0.400   0.288   2.167  0.2439 -0.6254  0.3913
 3390TIP3    H110134   0.331   0.304   2.232  0.0692 -0.5015  0.1756
 3390TIP3    H210135   0.369   0.213   2.117 -0.7305  0.6579 -1.0511
 3391TIP3   OH210136   4.545   6.485   2.019 -0.4715 -0.2694  0.1388
 3391TIP3    H110137   4.589   6.402   2.000 -0.1139 -0.0784  0.1215
 3391TIP3    H210138   4.460   6.478   1.975 -0.4578 -0.6405  0.1688
 3392TIP3   OH210139   4.274   0.356   3.627  0.0238 -0.1097 -0.2607
 3392TIP3    H110140   4.307   0.271   3.655 -0.3529 -0.2693 -0.2964
 3392TIP3    H210141   4.199   0.373   3.685 -0.0089  0.1185 -0.3673
 3393TIP3   OH210142   5.744   0.119   3.448 -0.8612  0.0709 -1.2870
 3393TIP3    H110143   5.668   0.114   3.506 -1.4319 -0.1058 -2.0327
 3393TIP3    H210144   5.728   0.197   3.395  1.1180  2.0265  0.7691
 3394TIP3   OH210145   2.103   3.853   5.141 -0.1790  0.2690 -0.4414
 3394TIP3    H110146   2.120   3.899   5.059 -1.0853  1.4456 -0.0006
 3394TIP3    H210147   2.180   3.798   5.155 -0.6759 -1.1947 -2.8784
 3395TIP3   OH210148   1.100   4.328   5.144  0.4821  0.5860 -0.3629
 3395TIP3    H110149   1.170   4.269   5.118  1.3646  2.1032 -1.5435
 3395TIP3    H210150   1.052   4.346   5.064 -0.2973  0.8151  0.1409
 3396TIP3   OH210151   6.959   3.293   2.733 -0.4485  0.6332 -0.0624
 3396TIP3    H110152   6.939   3.347   2.657  1.0570  0.2618 -0.7472
 3396TIP3    H210153   7.054   3.295   2.740 -0.4816 -0.4257  1.0136
 3397TIP3   OH210154   2.040   1.409   2.222 -0.1459  0.2591  0.1333
 3397TIP3    H110155   1.984   1.387   2.148  0.3627  1.3009 -0.5827
 3397TIP3    H210156   2.128   1.391   2.192 -0.0316 -0.8772  1.0780
 3398TIP3   OH210157   6.702   3.252   4.862  0.3795  0.9703  0.7428
 3398TIP3    H110158   6.724   3.337   4.824 -2.1201  1.7212  0.7944
 3398TIP3    H210159   6.613   3.235   4.832  1.0438 -2.0023  0.1525
 3399TIP3   OH210160   0.417   6.580   1.973 -0.2181  0.3316 -0.3575
 3399TIP3    H110161   0.338   6.614   2.016 -0.8888 -2.1326  0.4974
 3399TIP3    H210162   0.489   6.605   2.032 -0.6520  0.4407  0.1380
 3400TIP3   OH210163   2.600   4.973   4.989  0.0307  0.1506 -0.1606
 3400TIP3    H110164   2.523   4.917   4.993  0.0270  0.1086 -0.7190
 3400TIP3    H210165   2.566   5.058   4.960  0.0181  0.4793  0.7980
 3401TIP3   OH210166   1.935   5.378   1.490  0.3261 -0.1174 -0.6343
 3401TIP3    H110167   2.008   5.402   1.547  0.1381 -0.4509 -0.2476
 3401TIP3    H210168   1.883   5.458   1.484 -0.3831 -0.4359  0.7820
 3402TIP3   OH210169   5.995   1.121   1.540  0.0448 -0.1639  0.4278
 3402TIP3    H110170   6.042   1.189   1.492  1.5154 -1.4591 -0.0582
 3402TIP3    H210171   5.971   1.163   1.623 -0.5485  1.4262 -0.5011
 3403TIP3   OH210172   4.380   0.440   4.935  0.5587 -0.3798  0.1049
 3403TIP3    H110173   4.391   0.371   4.870 -0.3189 -1.2188  0.8199
 3403TIP3    H210174   4.399   0.397   5.019 -2.9389 -0.6479  0.9014
 3404TIP3   OH210175   4.147   5.974   1.735  0.3092  0.0698  0.2280
 3404TIP3    H110176   4.191   5.894   1.705 -1.1582 -0.5312 -0.4126
 3404TIP3    H210177   4.088   5.944   1.804 -0.4111  0.5562 -0.1650
 3405TIP3   OH210178   0.771   3.537   0.516 -0.2640 -0.0689  0.4204
 3405TIP3    H110179   0.818   3.614   0.482 -1.7438  0.7719  0.1716
 3405TIP3    H210180   0.721   3.572   0.590  0.1103 -1.1194  1.1894
 3406TIP3   OH210181   4.266   4.036   3.424 -0.6598 -0.0119 -0.1660
 3406TIP3    H110182   4.283   4.128   3.443  0.6055 -0.2415 -0.1272
 3406TIP3    H210183   4.336   3.989   3.469 -0.4185 -0.8881 -1.4078
 3407TIP3   OH210184   5.190   4.606   1.172  0.1853  0.0350  0.5593
 3407TIP3    H110185   5.254   4.616   1.102 -0.1307  0.9577  0.3845
 3407TIP3    H210186   5.237   4.629   1.252  1.0039 -2.5746  0.9078
 3408TIP3   OH210187   2.204   2.201   4.385 -0.0999 -0.0940  0.2540
 3408TIP3    H110188   2.207   2.105   4.382  0.3641 -0.1078  0.9164
 3408TIP3    H210189   2.157   2.221   4.467  0.8479  0.2381  0.7341
 3409TIP3   OH210190   6.155   2.302   5.767  0.5469 -0.2130  0.1903
 3409TIP3    H110191   6.211   2.374   5.797  0.0973 -0.3663  1.4434
 3409TIP3    H210192   6.116   2.267   5.847 -0.7093 -0.6317 -0.5861
 3410TIP3   OH210193   5.523   3.925   5.616  0.5422 -0.4083 -0.4250
 3410TIP3    H110194   5.537   3.891   5.704  3.7631 -0.4964 -0.8378
 3410TIP3    H210195   5.507   4.018   5.628  0.5283 -0.4987  0.2712
 3411TIP3   OH210196   6.600   3.629   2.951  0.2232 -0.0538  0.2095
 3411TIP3    H110197   6.614   3.691   3.023  2.7265 -1.1361  0.7534
 3411TIP3    H210198   6.562   3.552   2.993 -0.3636  0.1061 -0.0177
 3412TIP3   OH210199   2.834   2.585   5.241 -0.3058 -0.4126  0.2079
 3412TIP3    H110200   2.855   2.491   5.235 -1.6069 -0.6843 -0.5910
 3412TIP3    H210201   2.890   2.626   5.174  1.4299 -0.3587  1.6210
 3413TIP3   OH210202   6.123   1.162   5.111  0.1232 -0.5220  0.1424
 3413TIP3    H110203   6.207   1.207   5.111 -0.2621  0.2220  0.9800
 3413TIP3    H210204   6.130   1.095   5.179  0.5262 -1.4400 -0.7730
 3414TIP3   OH210205   2.251   0.724   3.803 -0.2248 -0.0564  0.5416
 3414TIP3    H110206   2.163   0.755   3.823 -0.0768  1.7008 -1.2721
 3414TIP3    H210207   2.308   0.775   3.860 -0.2058  0.7997 -0.2303
 3415TIP3   OH210208   5.829   4.341   2.119 -0.2473  0.2565  0.0611
 3415TIP3    H110209   5.751   4.392   2.143  1.4626  2.1284  2.1944
 3415TIP3    H210210   5.893   4.362   2.188  1.3591 -3.1246 -0.2053
 3416TIP3   OH210211   0.296   3.452   1.414 -0.2002  0.6625 -0.2598
 3416TIP3    H110212   0.267   3.475   1.326  0.4420  0.2600 -0.5885
 3416TIP3    H210213   0.363   3.384   1.400  0.9504  1.6059  0.4587
 3417TIP3   OH210214   0.584   0.619   3.466 -0.4741  0.4081  0.2056
 3417TIP3    H110215   0.520   0.552   3.442  0.0629 -0.1001  0.1756
 3417TIP3    H210216   0.669   0.577   3.452 -0.0291  1.9269 -2.4046
 3418TIP3   OH210217   2.656   5.446   0.133 -0.0931 -0.3379  0.2678
 3418TIP3    H110218   2.623   5.535   0.121 -2.7518 -1.2205  0.4130
 3418TIP3    H210219   2.699   5.426   0.050 -0.6061  0.6384 -0.2655
 3419TIP3   OH210220   6.428   5.098   5.810  0.6439 -0.2878  0.5176
 3419TIP3    H110221   6.419   5.072   5.718  0.5111 -0.8007  0.6711
 3419TIP3    H210222   6.393   5.187   5.813  0.5647 -0.3014  0.0881
 3420TIP3   OH210223   3.294   4.445   5.009 -0.8007 -0.2524  0.2325
 3420TIP3    H110224   3.280   4.514   5.074 -1.2823 -0.7159  0.6238
 3420TIP3    H210225   3.206   4.422   4.979 -0.6059 -0.2825 -0.3423
 3421TIP3   OH210226   1.352   5.411   1.855 -0.1850 -0.3173 -0.2870
 3421TIP3    H110227   1.338   5.499   1.891 -1.8706 -0.8857  0.5158
 3421TIP3    H210228   1.276   5.361   1.883 -0.7298 -1.2922 -3.1793
 3422TIP3   OH210229   6.066   0.985   4.871  0.4077 -0.0243  0.3568
 3422TIP3    H110230   6.067   1.023   4.958  1.6205 -1.6004  1.0830
 3422TIP3    H210231   6.146   0.933   4.866  0.0551 -0.4901 -1.4705
 3423TIP3   OH210232   5.037   3.869   0.606 -0.2130  0.0355  0.0880
 3423TIP3    H110233   5.032   3.810   0.531  0.3985  1.5021 -1.1550
 3423TIP3    H210234   4.950   3.909   0.610  0.0936  0.7856 -0.5594
 3424TIP3   OH210235   7.126   1.072   0.728 -0.1242 -0.2110  0.2263
 3424TIP3    H110236   7.086   1.124   0.797 -0.7275 -1.5414  0.9029
 3424TIP3    H210237   7.200   1.028   0.771 -0.2425 -0.7118 -0.0810
 3425TIP3   OH210238   0.668   5.906   4.774 -0.1191 -0.7238  0.0429
 3425TIP3    H110239   0.609   5.962   4.724 -0.9694 -1.0774  0.6294
 3425TIP3    H210240   0.614   5.873   4.846  0.7189 -1.2829  0.4236
 3426TIP3   OH210241   2.129   3.857   1.132 -0.0361 -0.3902  0.2972
 3426TIP3    H110242   2.131   3.884   1.041 -1.0633  0.1214  0.4091
 3426TIP3    H210243   2.215   3.817   1.148 -0.1836 -1.3332 -1.1376
 3427TIP3   OH210244   1.568   4.139   0.592  0.8642 -0.6893  0.2123
 3427TIP3    H110245   1.643   4.084   0.615 -1.9505 -3.8243  2.8667
 3427TIP3    H210246   1.522   4.155   0.674 -1.4013  1.1838 -1.2550
 3428TIP3   OH210247   5.502   2.866   1.134 -0.1514  0.2722  0.3135
 3428TIP3    H110248   5.503   2.808   1.210  0.0036  2.0559  1.7276
 3428TIP3    H210249   5.546   2.945   1.163  0.6001  0.7364 -1.8971
 3429TIP3   OH210250   0.595   2.197   5.694 -0.1265  0.3605  0.0512
 3429TIP3    H110251   0.607   2.266   5.629 -1.3278  1.4318  0.9111
 3429TIP3    H210252   0.666   2.211   5.757  0.9835 -0.6230 -0.9455
 3430TIP3   OH210253   3.560   2.603   1.571 -0.2310 -0.1263  0.2541
 3430TIP3    H110254   3.621   2.652   1.626  0.6288 -1.2046  0.3176
 3430TIP3    H210255   3.615   2.538   1.527 -1.2182 -0.6109 -0.3018
 3431TIP3   OH210256   2.193   6.092   3.128 -0.4292  0.1490  0.8005
 3431TIP3    H110257   2.148   6.008   3.124  0.1535 -0.1591  0.6482
 3431TIP3    H210258   2.221   6.109   3.038  0.5855 -0.1268  1.0489
 3432TIP3   OH210259   3.674   1.834   5.465  0.6308  0.1862  0.2439
 3432TIP3    H110260   3.708   1.749   5.437 -1.3904 -0.4997 -0.3349
 3432TIP3    H210261   3.752   1.889   5.476  1.8593 -1.1194 -1.3938
 3433TIP3   OH210262   4.841   2.175   4.516  0.2483 -0.4242  0.0253
 3433TIP3    H110263   4.750   2.166   4.485  0.4634 -1.0496 -0.4633
 3433TIP3    H210264   4.875   2.085   4.513  1.5360  0.0936 -1.8271
 3434TIP3   OH210265   1.698   5.591   0.037 -0.5526 -0.4437  0.0852
 3434TIP3    H110266   1.720   5.505   0.001  0.5624 -0.1187 -0.0471
 3434TIP3    H210267   1.612   5.579   0.077 -1.0596 -1.2618 -1.1748
 3435TIP3   OH210268   3.404   5.772   3.371 -0.1146  0.0810 -0.3827
 3435TIP3    H110269   3.415   5.800   3.462 -1.0977  1.0126 -0.5268
 3435TIP3    H210270   3.481   5.808   3.325 -2.0286  4.0910 -0.8604
 3436TIP3   OH210271   4.040   0.618   2.233 -0.0606 -0.0176 -1.3883
 3436TIP3    H110272   4.052   0.606   2.327  1.0529  3.6676 -0.9210
 3436TIP3    H210273   3.957   0.574   2.214 -0.0084 -1.3962  1.1593
 3437TIP3   OH210274   6.064   4.143   4.187 -0.4467 -0.2003 -0.4966
 3437TIP3    H110275   5.989   4.109   4.139 -0.0094 -0.1883 -1.2035
 3437TIP3    H210276   6.060   4.099   4.272 -0.9238 -0.6353 -0.7382
 3438TIP3   OH210277   0.335   0.052   2.474 -0.9245  0.2078  0.7026
 3438TIP3    H110278   0.425   0.023   2.459 -0.9907  0.8241 -1.1354
 3438TIP3    H210279   0.285   0.016   2.401 -1.9831  0.6559  1.1851
 3439TIP3   OH210280   5.936   6.705   3.016  0.0883 -0.3887  0.7278
 3439TIP3    H110281   5.867   6.727   3.077  0.8838 -0.9204  1.8475
 3439TIP3    H210282   5.923   6.765   2.942 -1.0006  0.1203  1.3161
 3440TIP3   OH210283   4.648   6.222   1.980  0.4488 -0.1036  0.1999
 3440TIP3    H110284   4.583   6.156   2.005  1.2152 -0.5485  1.0695
 3440TIP3    H210285   4.689   6.186   1.901  1.8503 -1.4185  1.4495
 3441TIP3   OH210286   5.516   6.095   4.502  0.2878  0.6209  0.3102
 3441TIP3    H110287   5.488   6.017   4.454  0.2594 -0.3786  1.8730
 3441TIP3    H210288   5.436   6.129   4.541  0.4318  0.8855  0.3756
 3442TIP3   OH210289   1.447   2.756   2.004 -0.8587 -0.0550 -0.2769
 3442TIP3    H110290   1.420   2.839   2.043  0.4472  0.3917 -0.2894
 3442TIP3    H210291   1.535   2.772   1.970 -0.5983 -1.4334 -0.3255
 3443TIP3   OH210292   4.085   2.336   3.301 -0.0139  0.8219 -0.4297
 3443TIP3    H110293   4.176   2.365   3.313  0.1731  0.4714 -0.9845
 3443TIP3    H210294   4.089   2.271   3.231 -0.3342 -0.9859  1.1408
 3444TIP3   OH210295   3.519   0.732   1.907  0.2056 -0.3475  0.0948
 3444TIP3    H110296   3.443   0.772   1.863  0.3984  0.8315  0.7982
 3444TIP3    H210297   3.489   0.645   1.933 -0.6139 -0.2304 -0.4301
 3445TIP3   OH210298   4.047   4.939   0.526 -0.7796 -0.5772 -0.3440
 3445TIP3    H110299   4.128   4.891   0.509 -1.4498 -2.7800  2.0445
 3445TIP3    H210300   4.067   5.029   0.504  2.6488 -0.8624  1.0349
 3446TIP3   OH210301   3.870   4.619   0.538 -0.3163 -0.6576  0.8661
 3446TIP3    H110302   3.913   4.637   0.622 -0.4906 -1.1236  1.0583
 3446TIP3    H210303   3.822   4.699   0.518  1.0567  0.0781  0.3838
 3447TIP3   OH210304   0.524   0.813   4.140 -0.2487  1.0319 -0.5518
 3447TIP3    H110305   0.515   0.893   4.088 -1.6232  1.3797  0.1720
 3447TIP3    H210306   0.470   0.749   4.093  0.3594  0.6920 -0.7941
 3448TIP3   OH210307   4.223   6.595   3.972 -0.1508 -0.3163  0.7924
 3448TIP3    H110308   4.290   6.651   3.931 -0.0276 -1.1298 -0.1498
 3448TIP3    H210309   4.143   6.647   3.969 -0.7868 -1.2278 -2.8949
 3449TIP3   OH210310   1.930   4.812   3.313  0.6024  0.2602 -0.3623
 3449TIP3    H110311   1.979   4.807   3.395  0.8914  0.4211 -0.5255
 3449TIP3    H210312   1.953   4.732   3.266  0.5426  0.2329 -0.3449
 3450TIP3   OH210313   0.769   0.615   2.219 -0.0033 -0.3945  0.0320
 3450TIP3    H110314   0.727   0.682   2.273  0.1755  0.1148 -0.4499
 3450TIP3    H210315   0.860   0.644   2.213 -0.2250  0.0868 -1.3306
 3451TIP3   OH210316   5.869   0.225   0.294  0.6233  0.1040  0.9769
 3451TIP3    H110317   5.924   0.149   0.276 -1.1443 -1.5794  2.2479
 3451TIP3    H210318   5.891   0.250   0.384 -1.5150 -1.4627  2.0299
 3452TIP3   OH210319   6.012   6.619   4.997 -0.2882 -0.0663  0.0433
 3452TIP3    H110320   6.070   6.543   5.004  0.5125  0.0671 -3.3074
 3452TIP3    H210321   5.924   6.583   5.009  0.1918 -1.1857  0.3216
 3453TIP3   OH210322   6.282   5.450   1.242  0.5528 -0.5901  0.9836
 3453TIP3    H110323   6.314   5.361   1.227 -1.7653 -1.1198 -1.9371
 3453TIP3    H210324   6.304   5.469   1.333  1.4424 -4.0176  1.6293
 3454TIP3   OH210325   3.381   5.852   2.156 -0.0962 -0.1880  0.0851
 3454TIP3    H110326   3.395   5.910   2.081  0.4114 -0.5331 -0.0901
 3454TIP3    H210327   3.469   5.828   2.185 -0.2527  0.7376  1.4277
 3455TIP3   OH210328   1.374   5.720   3.251  0.3583 -0.2594  0.0832
 3455TIP3    H110329   1.454   5.728   3.303  0.1560  0.6457  0.2757
 3455TIP3    H210330   1.323   5.798   3.274 -1.0865 -1.3898  0.8387
 3456TIP3   OH210331   1.495   1.955   0.197 -0.1467  0.4097  0.1609
 3456TIP3    H110332   1.478   1.981   0.107 -1.2431 -0.3884  0.1161
 3456TIP3    H210333   1.583   1.916   0.194  0.5831  1.9827 -0.1869
 3457TIP3   OH210334   2.746   6.056   3.026  0.3894  0.1918 -0.5007
 3457TIP3    H110335   2.663   6.049   3.071  0.1365  0.3353 -0.9386
 3457TIP3    H210336   2.746   6.144   2.988  0.8861  0.3173 -0.2221
 3458TIP3   OH210337   5.358   1.917   5.147  0.3757  0.0635  0.1027
 3458TIP3    H110338   5.293   1.980   5.116  1.0360  0.7557  0.0798
 3458TIP3    H210339   5.442   1.955   5.121  0.8990  0.1429  1.8098
 3459TIP3   OH210340   3.898   6.175   4.570  0.3286 -0.1858 -0.6094
 3459TIP3    H110341   3.955   6.217   4.634 -0.7040 -0.8572  0.8384
 3459TIP3    H210342   3.813   6.218   4.583 -0.8665 -2.7861  1.1905
 3460TIP3   OH210343   6.522   3.082   0.558  0.3136  0.1932 -0.0441
 3460TIP3    H110344   6.504   3.160   0.609  0.9282 -0.5005  1.2884
 3460TIP3    H210345   6.585   3.033   0.611 -1.3596 -2.0555  0.0225
 3461TIP3   OH210346   4.021   2.720   4.232 -0.1167 -0.4141 -0.7734
 3461TIP3    H110347   4.075   2.791   4.268 -0.9077  0.0251 -0.4153
 3461TIP3    H210348   4.083   2.649   4.216  0.3201 -0.5837  1.3386
 3462TIP3   OH210349   2.913   1.406   1.689 -1.0388 -0.4215  0.8558
 3462TIP3    H110350   2.928   1.497   1.663  1.7498 -0.6274  1.3872
 3462TIP3    H210351   2.913   1.357   1.607 -0.7359 -0.1355  0.6810
 3463TIP3   OH210352   5.331   2.116   3.654 -0.0624 -0.1945  0.0360
 3463TIP3    H110353   5.251   2.140   3.700 -1.1719 -0.1249 -1.8262
 3463TIP3    H210354   5.401   2.129   3.718 -1.6333 -1.4110  2.1107
 3464TIP3   OH210355   2.917   0.774   1.667 -0.1959 -0.4080  0.4090
 3464TIP3    H110356   2.869   0.856   1.678  2.6965  1.1179  2.8319
 3464TIP3    H210357   2.959   0.783   1.581  0.9079  1.1490  1.0791
 3465TIP3   OH210358   6.565   4.745   5.029  0.3097  0.2889 -0.1950
 3465TIP3    H110359   6.590   4.808   5.096 -0.3496 -0.5697  0.8802
 3465TIP3    H210360   6.648   4.711   4.995  0.6530  1.2571 -0.3424
 3466TIP3   OH210361   6.976   2.758   3.873 -0.2225 -0.3719  0.4254
 3466TIP3    H110362   7.007   2.693   3.811  1.3166 -0.2529  1.0316
 3466TIP3    H210363   7.055   2.806   3.900 -0.8004 -0.5416  2.5947
 3467TIP3   OH210364   2.344   6.554   3.031 -0.5479  0.3764 -0.6237
 3467TIP3    H110365   2.406   6.626   3.043  0.0760 -0.3708  1.0799
 3467TIP3    H210366   2.399   6.478   3.016 -0.8975 -0.4991  1.9721
 3468TIP3   OH210367   0.527   2.772   2.911  0.6649  0.0293  0.4764
 3468TIP3    H110368   0.472   2.789   2.835 -0.1049  2.4565  1.4716
 3468TIP3    H210369   0.466   2.749   2.981  1.2634 -0.9748  0.6868
 3469TIP3   OH210370   3.226   5.954   2.381 -0.2210 -0.5339 -0.1051
 3469TIP3    H110371   3.134   5.934   2.364 -0.0821 -1.6347  0.3609
 3469TIP3    H210372   3.272   5.928   2.301 -0.3827  0.6861 -0.6173
 3470TIP3   OH210373   0.625   4.615   0.079  0.7121 -0.5230 -0.0982
 3470TIP3    H110374   0.582   4.583  -0.001 -1.3331 -0.5074  0.9240
 3470TIP3    H210375   0.703   4.661   0.048 -0.3622  0.0437 -2.1390
 3471TIP3   OH210376   3.217   2.103   4.307 -0.4276  0.3643  0.5442
 3471TIP3    H110377   3.266   2.182   4.285  0.3880  0.0964  1.3160
 3471TIP3    H210378   3.285   2.036   4.319 -1.1747 -1.2906 -3.0409
 3472TIP3   OH210379   1.488   2.197   1.791 -0.3438  0.6863  0.4682
 3472TIP3    H110380   1.415   2.194   1.730 -1.3873  1.5820  1.6059
 3472TIP3    H210381   1.454   2.157   1.871  1.3964 -1.6683  0.1493
 3473TIP3   OH210382   2.686   5.471   5.526  0.2628 -0.2697  0.3170
 3473TIP3    H110383   2.623   5.460   5.454 -0.2152  0.5433  0.5947
 3473TIP3    H210384   2.762   5.510   5.485  0.1520 -0.1955  0.1796
 3474TIP3   OH210385   1.012   0.588   5.425 -0.0896  0.1917 -0.2581
 3474TIP3    H110386   1.048   0.521   5.483  0.2732 -0.8244 -1.6170
 3474TIP3    H210387   0.921   0.564   5.413  0.1031 -0.1998 -0.9416
 3475TIP3   OH210388   4.321   4.952   4.231 -0.3071 -0.0685  0.6360
 3475TIP3    H110389   4.265   4.935   4.307 -1.5284  1.9318  0.2357
 3475TIP3    H210390   4.362   5.037   4.250 -0.5960  0.4415 -0.9188
 3476TIP3   OH210391   0.547   1.652   0.640  0.4941  0.0150  0.7753
 3476TIP3    H110392   0.472   1.611   0.683 -1.5592  2.1314 -0.5435
 3476TIP3    H210393   0.553   1.609   0.555  0.3323  0.2951  0.6197
 3477TIP3   OH210394   4.192   5.395   0.198 -0.1368 -0.1539 -0.4576
 3477TIP3    H110395   4.187   5.372   0.290  0.2480  2.4642  0.2830
 3477TIP3    H210396   4.207   5.311   0.153 -0.8813 -1.5495  1.7556
 3478TIP3   OH210397   6.390   3.159   5.545  0.2114 -0.0557 -0.0330
 3478TIP3    H110398   6.376   3.239   5.494 -0.9242 -1.7766 -2.6317
 3478TIP3    H210399   6.309   3.147   5.594 -0.3830 -0.5707 -1.1134
 3479TIP3   OH210400   5.308   2.348   5.285 -0.0518 -0.2994  0.1343
 3479TIP3    H110401   5.396   2.331   5.253 -0.1272  0.6290 -0.6228
 3479TIP3    H210402   5.274   2.416   5.226 -0.9098  0.0497  1.0036
 3480TIP3   OH210403   4.972   1.912   4.562  0.0580  0.1912 -0.2674
 3480TIP3    H110404   5.048   1.901   4.505 -0.7569 -1.2057 -1.1320
 3480TIP3    H210405   4.998   1.875   4.646  0.7232  0.8181 -0.1900
 3481TIP3   OH210406   7.113   2.779   1.212 -0.2131  0.1097  0.4595
 3481TIP3    H110407   7.059   2.851   1.246 -1.6725 -0.4067 -0.6610
 3481TIP3    H210408   7.184   2.823   1.166  0.0042  0.8120  1.4271
 3482TIP3   OH210409   3.366   4.278   5.786 -0.8387 -0.2604  0.7691
 3482TIP3    H110410   3.450   4.322   5.783 -1.0412  0.6789  4.4336
 3482TIP3    H210411   3.301   4.348   5.775 -1.1439 -0.4786  1.1429
 3483TIP3   OH210412   4.833   4.733   2.408  0.2933 -0.7378 -0.2335
 3483TIP3    H110413   4.823   4.681   2.329 -2.2891 -0.2112 -0.3587
 3483TIP3    H210414   4.809   4.822   2.381  0.2270 -0.3816  0.9438
 3484TIP3   OH210415   1.492   0.134   1.124 -0.0079 -0.0963 -0.2045
 3484TIP3    H110416   1.490   0.059   1.183  0.6135 -0.2059 -0.3165
 3484TIP3    H210417   1.464   0.099   1.040  0.7134 -0.3095 -0.3638
 3485TIP3   OH210418   5.987   1.560   3.577  0.7259 -0.0926  0.0333
 3485TIP3    H110419   5.950   1.532   3.493 -1.5035  3.4982 -0.3920
 3485TIP3    H210420   6.059   1.618   3.554  1.6955 -0.9884  0.7195
 3486TIP3   OH210421   4.717   3.312   5.610  0.2423  0.3099  0.5115
 3486TIP3    H110422   4.722   3.217   5.617  0.5700  0.2475 -0.3871
 3486TIP3    H210423   4.633   3.328   5.567  0.8229  0.3192 -0.6834
 3487TIP3   OH210424   0.708   3.826   5.440 -0.3432  0.4836 -0.0022
 3487TIP3    H110425   0.775   3.838   5.373 -0.1875 -1.7476 -0.3253
 3487TIP3    H210426   0.657   3.908   5.438  2.0824  2.0799  0.0080
 3488TIP3   OH210427   2.138   6.351   2.195 -0.1511  0.1221 -0.4936
 3488TIP3    H110428   2.175   6.269   2.161 -1.8304  0.1813 -2.6624
 3488TIP3    H210429   2.153   6.415   2.125 -1.7933  0.8205 -0.2547
 3489TIP3   OH210430   0.795   5.658   2.213  0.2706  0.1607  0.2018
 3489TIP3    H110431   0.708   5.619   2.205 -0.6702  1.7613  1.7429
 3489TIP3    H210432   0.784   5.747   2.180  0.6895  1.1168  2.4540
 3490TIP3   OH210433   6.442   6.211   5.400  0.2020  0.0599  0.0367
 3490TIP3    H110434   6.403   6.259   5.327 -2.1598  0.4930  1.4497
 3490TIP3    H210435   6.486   6.278   5.452  1.0543 -0.0936 -0.4819
 3491TIP3   OH210436   6.215   3.124   0.213  0.1817 -0.1006  0.4203
 3491TIP3    H110437   6.158   3.050   0.236 -1.4674  1.1064  0.3065
 3491TIP3    H210438   6.240   3.161   0.298 -0.0574 -0.0055  0.4508
 3492TIP3   OH210439   5.165   3.543   5.187 -0.2422 -0.6712 -0.5142
 3492TIP3    H110440   5.241   3.496   5.221 -0.9108 -1.3735  0.0293
 3492TIP3    H210441   5.168   3.529   5.092 -0.2509 -1.5261 -0.3915
 3493TIP3   OH210442   6.828   1.009   3.634 -0.2139 -0.0693 -0.1806
 3493TIP3    H110443   6.782   0.944   3.687  0.0881 -0.2256 -0.1076
 3493TIP3    H210444   6.765   1.034   3.567 -0.2491 -0.6286 -0.3635
 3494TIP3   OH210445   1.294   2.888   0.641 -0.1341 -0.5391 -0.6838
 3494TIP3    H110446   1.265   2.949   0.574 -0.1618 -0.0061 -0.1916
 3494TIP3    H210447   1.355   2.829   0.596 -0.9796 -0.8687 -1.4255
 3495TIP3   OH210448   6.766   4.481   5.288 -0.4382  0.5571 -0.1414
 3495TIP3    H110449   6.789   4.423   5.215 -0.6898  0.5182 -0.1876
 3495TIP3    H210450   6.740   4.422   5.358  0.1851  0.5764  0.1179
 3496TIP3   OH210451   3.938   4.008   3.660  0.6861 -0.2371 -0.0181
 3496TIP3    H110452   3.906   3.937   3.604 -0.2645  0.1972 -0.0484
 3496TIP3    H210453   4.031   4.014   3.640  0.6413 -1.0222 -0.5191
 3497TIP3   OH210454   3.738   0.845   0.581  0.6470  0.1492 -0.3220
 3497TIP3    H110455   3.666   0.908   0.592  0.4969 -0.0610 -0.0859
 3497TIP3    H210456   3.711   0.769   0.632  0.9458 -0.0101 -0.3998
 3498TIP3   OH210457   0.629   5.326   0.855 -0.1590 -0.0516 -0.0777
 3498TIP3    H110458   0.601   5.365   0.772 -0.1883 -0.1390 -0.1095
 3498TIP3    H210459   0.707   5.275   0.832 -0.2996 -0.2614 -0.0956
 3499TIP3   OH210460   1.622   2.465   5.853 -0.0020  0.2727  0.1891
 3499TIP3    H110461   1.610   2.390   5.910  0.8908  0.7999  1.1175
 3499TIP3    H210462   1.715   2.463   5.829  0.1422  1.3026  0.5825
 3500TIP3   OH210463   5.729   4.693   1.552  0.3850 -0.4507  0.2479
 3500TIP3    H110464   5.793   4.687   1.480 -1.1421 -0.3581 -1.1787
 3500TIP3    H210465   5.722   4.604   1.585  1.6772 -0.3563  0.8380
 3501TIP3   OH210466   4.004   4.837   2.761 -0.0167  0.4036 -0.0141
 3501TIP3    H110467   3.934   4.898   2.782 -0.1010  0.3127 -0.0311
 3501TIP3    H210468   4.078   4.892   2.735 -0.8431  0.4454 -2.4149
 3502TIP3   OH210469   4.493   6.268   3.613 -0.2815  0.5399  0.1700
 3502TIP3    H110470   4.568   6.222   3.576  0.1135 -0.6555  2.3280
 3502TIP3    H210471   4.434   6.282   3.538  0.4194 -1.7957 -0.9096
 3503TIP3   OH210472   2.002   2.350   3.915  0.0600  0.5067  0.5829
 3503TIP3    H110473   2.088   2.310   3.905 -0.4993 -0.8395  0.8587
 3503TIP3    H210474   2.014   2.419   3.980  0.6877 -0.4787  1.5428
 3504TIP3   OH210475   0.979   4.528   4.740 -0.0989 -0.1433  0.0414
 3504TIP3    H110476   0.911   4.551   4.676  0.7246 -1.8242 -1.5336
 3504TIP3    H210477   0.931   4.493   4.815 -1.0025 -1.7166 -1.2174
 3505TIP3   OH210478   1.098   2.388   2.358 -0.3119  0.8387  0.1895
 3505TIP3    H110479   1.111   2.350   2.445 -0.1441  1.1901  0.3196
 3505TIP3    H210480   1.043   2.324   2.312  1.5242 -0.5079 -0.2488
 3506TIP3   OH210481   5.020   3.260   1.705  0.0924 -0.3702  0.3086
 3506TIP3    H110482   5.111   3.274   1.731 -0.0026 -0.0327  0.4724
 3506TIP3    H210483   4.994   3.342   1.664 -0.2767 -0.2918  0.6879
 3507TIP3   OH210484   1.875   3.312   3.314  0.4135  0.0231  0.0803
 3507TIP3    H110485   1.822   3.322   3.235  0.5795  0.1724 -0.0120
 3507TIP3    H210486   1.834   3.370   3.378  0.2949 -0.0781  0.0970
 3508TIP3   OH210487   5.178   0.951   2.749  0.1254 -0.0601  0.4318
 3508TIP3    H110488   5.216   0.864   2.732 -1.0905 -0.5906  0.3516
 3508TIP3    H210489   5.092   0.933   2.785  0.6757  1.1150  2.4579
 3509TIP3   OH210490   3.290   3.709   1.235 -0.2782 -0.0110 -0.6037
 3509TIP3    H110491   3.221   3.660   1.190  0.0452  0.5444 -1.7200
 3509TIP3    H210492   3.252   3.730   1.321 -0.8608 -1.1615 -0.5633
 3510TIP3   OH210493   1.797   2.701   5.536  0.0511 -0.2056  0.1429
 3510TIP3    H110494   1.855   2.628   5.516  0.9089  0.7620 -1.0878
 3510TIP3    H210495   1.838   2.745   5.610 -0.3454 -0.8410  0.7402
 3511TIP3   OH210496   3.661   3.175   5.525 -0.2849 -0.2505  0.0555
 3511TIP3    H110497   3.626   3.215   5.446 -3.0987 -0.0084  1.2841
 3511TIP3    H210498   3.604   3.099   5.541 -1.3240  0.9778  2.9601
 3512TIP3   OH210499  -0.024   4.970   1.840  0.0139 -0.0538  0.1041
 3512TIP3    H110500   0.071   4.972   1.852  0.0677  1.1723 -0.3912
 3512TIP3    H210501  -0.036   4.948   1.748 -0.2059 -0.5606  0.2474
 3513TIP3   OH210502   3.487   2.580   0.058  0.1373 -0.4139 -0.0338
 3513TIP3    H110503   3.442   2.637  -0.005 -1.2225 -1.5061 -0.1035
 3513TIP3    H210504   3.558   2.540   0.007 -0.1596 -0.3207 -0.5307
 3514TIP3   OH210505   7.035   3.932   3.849 -0.8366  0.2274 -0.3610
 3514TIP3    H110506   7.043   3.879   3.929 -0.3187  1.0460  0.1521
 3514TIP3    H210507   6.982   3.879   3.790 -2.5580  0.2417  1.0956
 3515TIP3   OH210508   2.643   1.632   2.199  0.0773  0.1636  0.2669
 3515TIP3    H110509   2.711   1.697   2.181  0.3920 -0.4308 -0.8072
 3515TIP3    H210510   2.563   1.670   2.162  0.1442  0.1865  0.1462
 3516TIP3   OH210511   0.602   1.927   5.588 -0.3313  0.1360 -0.0975
 3516TIP3    H110512   0.574   2.010   5.626  1.2321  0.9015 -0.5380
 3516TIP3    H210513   0.636   1.950   5.502 -0.9383 -1.1338 -0.7014
 3517TIP3   OH210514   0.535   1.734   4.056 -0.8015 -0.0299 -0.0619
 3517TIP3    H110515   0.526   1.648   4.097  1.2974 -0.2052  0.1411
 3517TIP3    H210516   0.577   1.716   3.972  0.1390  0.8245  0.2109
 3518TIP3   OH210517   4.600   1.741   2.244  0.2074  0.2190  0.6041
 3518TIP3    H110518   4.692   1.716   2.241  0.6430  1.6284  1.5284
 3518TIP3    H210519   4.575   1.752   2.152  1.0493  0.1241  0.3563
 3519TIP3   OH210520   5.384   6.715   3.004 -0.5486 -0.3798 -0.2553
 3519TIP3    H110521   5.373   6.688   3.095 -1.6712  1.5705  0.2647
 3519TIP3    H210522   5.449   6.655   2.968  0.8978 -0.4011  2.2006
 3520TIP3   OH210523   3.337   6.673   0.068 -0.5879 -0.1708  0.2377
 3520TIP3    H110524   3.331   6.733  -0.007  2.5723 -2.3190 -1.9785
 3520TIP3    H210525   3.273   6.604   0.047 -0.6957 -0.0747  0.2468
 3521TIP3   OH210526   0.839   4.089   0.840  0.0682 -0.4637  0.5233
 3521TIP3    H110527   0.892   4.091   0.761  0.8982  1.8924  1.0493
 3521TIP3    H210528   0.827   3.996   0.860  0.8609 -1.0817 -1.6577
 3522TIP3   OH210529   3.035   6.607   2.722 -0.2680  0.0404  0.3314
 3522TIP3    H110530   3.101   6.675   2.704 -1.1329  1.2447  1.5249
 3522TIP3    H210531   2.952   6.654   2.725 -0.9429 -1.1306  0.8669
 3523TIP3   OH210532   4.137   3.239   2.245 -0.3455 -1.0366  0.3627
 3523TIP3    H110533   4.075   3.167   2.231 -0.2907 -0.9571 -0.2758
 3523TIP3    H210534   4.222   3.204   2.217 -0.4344 -0.4972 -0.5908
 3524TIP3   OH210535   6.716   3.461   2.457 -0.6555  0.1534 -0.3891
 3524TIP3    H110536   6.727   3.514   2.536  2.8999 -1.8103  0.6554
 3524TIP3    H210537   6.723   3.523   2.385  0.8925  1.4513  0.8053
 3525TIP3   OH210538   5.468   0.550   2.007  0.1271 -0.1869  0.3925
 3525TIP3    H110539   5.450   0.464   1.971 -0.8954  1.0545 -2.4047
 3525TIP3    H210540   5.412   0.556   2.084 -0.5477 -1.6580  0.0460
 3526TIP3   OH210541   4.931   5.868   0.400 -0.3630 -0.7329 -0.0081
 3526TIP3    H110542   4.847   5.888   0.441 -1.1111 -1.4160 -1.1624
 3526TIP3    H210543   4.909   5.818   0.322  1.0156  0.4603 -1.2321
 3527TIP3   OH210544   1.413   0.055   3.204  0.1184  0.4338  0.6578
 3527TIP3    H110545   1.414  -0.015   3.269 -1.5665  1.0836  1.4590
 3527TIP3    H210546   1.353   0.023   3.135  1.7084 -0.1537 -0.5112
 3528TIP3   OH210547   6.918   6.611   2.817 -0.0620  0.6173  0.5157
 3528TIP3    H110548   7.000   6.580   2.856 -0.3446  0.7400  1.2190
 3528TIP3    H210549   6.945   6.653   2.736  0.4049 -0.8864 -0.1519
 3529TIP3   OH210550   2.698   2.276   1.131  0.2745 -0.2479  0.3033
 3529TIP3    H110551   2.662   2.263   1.043  0.5096  0.4990  0.0941
 3529TIP3    H210552   2.668   2.363   1.157  1.6863  0.2855  0.2417
 3530TIP3   OH210553   0.310   3.859   0.943  0.0105  0.1066  0.4427
 3530TIP3    H110554   0.377   3.858   0.875  0.3160  0.3394  0.7353
 3530TIP3    H210555   0.313   3.948   0.979 -0.7512  0.2425  0.1738
 3531TIP3   OH210556   5.391   1.965   2.421 -0.5200 -0.3003  0.4341
 3531TIP3    H110557   5.404   1.870   2.414 -0.1268 -0.2422  0.3487
 3531TIP3    H210558   5.470   1.996   2.466  0.3480  0.2577 -1.4083
 3532TIP3   OH210559   4.246   4.137   1.436 -0.4313 -0.1300 -0.3252
 3532TIP3    H110560   4.304   4.150   1.511  0.3570  0.1412 -0.9613
 3532TIP3    H210561   4.302   4.153   1.360 -0.7793 -1.9777 -1.0271
 3533TIP3   OH210562   4.597   4.807   1.344 -0.6249 -0.3854 -0.0642
 3533TIP3    H110563   4.531   4.748   1.381 -1.5926  0.3245 -0.6062
 3533TIP3    H210564   4.676   4.790   1.395 -0.8937 -2.1006 -0.1829
 3534TIP3   OH210565   4.780   1.941   1.088  0.7101  0.2658  0.2886
 3534TIP3    H110566   4.753   2.031   1.103  0.1619 -0.2058  2.4700
 3534TIP3    H210567   4.830   1.917   1.165  0.7631 -1.3344 -0.1897
 3535TIP3   OH210568   2.062   6.462   1.165  1.1016 -0.3786 -0.0307
 3535TIP3    H110569   2.122   6.419   1.105  1.1412 -0.6065  0.1694
 3535TIP3    H210570   2.039   6.394   1.229  0.7780 -0.2424  0.0017
 3536TIP3   OH210571   1.656   3.493   3.915 -0.5020 -0.0192 -0.0853
 3536TIP3    H110572   1.579   3.449   3.879 -0.8709  0.4650  0.0974
 3536TIP3    H210573   1.684   3.437   3.987 -0.6600 -0.2257 -0.1835
 3537TIP3   OH210574   5.908   0.104   1.538 -0.3276 -0.0926  0.0076
 3537TIP3    H110575   5.846   0.044   1.580  1.3941 -1.9470  0.0435
 3537TIP3    H210576   5.956   0.144   1.611  1.7981 -2.3722 -0.0025
 3538TIP3   OH210577   2.475   2.913   5.877  0.0080  0.3009  0.0015
 3538TIP3    H110578   2.557   2.907   5.829  0.2232 -1.4356  0.5188
 3538TIP3    H210579   2.408   2.921   5.809  0.5048  0.4139 -0.4804
 3539TIP3   OH210580   0.803   1.375   5.248  0.5426 -0.0039  0.6928
 3539TIP3    H110581   0.774   1.428   5.322  0.0976 -1.3445  1.5132
 3539TIP3    H210582   0.722   1.339   5.212  0.9471 -1.5915  1.3078
 3540TIP3   OH210583   1.540   0.849   1.833 -0.0088 -0.2523  0.3619
 3540TIP3    H110584   1.614   0.868   1.891  0.5518  2.1161 -0.9544
 3540TIP3    H210585   1.469   0.824   1.891  1.2636 -0.5854  1.8351
 3541TIP3   OH210586   3.635   4.117   1.698 -0.1725 -0.1942 -0.2544
 3541TIP3    H110587   3.635   4.044   1.760  1.3211  0.6791  0.8532
 3541TIP3    H210588   3.602   4.191   1.748 -0.8905  0.0876 -1.1239
 3542TIP3   OH210589  -0.006   5.429   4.996 -0.0143 -0.4411  0.0784
 3542TIP3    H110590   0.010   5.336   5.014  0.0174 -0.3839  0.3441
 3542TIP3    H210591   0.057   5.451   4.927  0.1568 -0.5498  0.1990
 3543TIP3   OH210592   6.438   6.441   4.040 -0.2193 -0.0933 -0.6442
 3543TIP3    H110593   6.391   6.423   4.121  0.6609 -0.5188 -0.2083
 3543TIP3    H210594   6.460   6.534   4.044 -0.5236 -0.0237 -0.5876
 3544TIP3   OH210595   0.639   0.267   5.081 -0.0095  0.6338 -0.2432
 3544TIP3    H110596   0.590   0.343   5.051  0.7559  0.9465 -0.7183
 3544TIP3    H210597   0.615   0.197   5.020 -1.5110  0.1750  0.7931
 3545TIP3   OH210598   3.948   2.594   1.772  0.5658  0.7234 -0.0659
 3545TIP3    H110599   3.980   2.521   1.718  2.0239  0.7510  0.7042
 3545TIP3    H210600   3.887   2.641   1.715 -0.8707 -1.3986 -0.4033
 3546TIP3   OH210601   3.376   3.207   4.262 -0.0177  0.0568 -0.4015
 3546TIP3    H110602   3.357   3.217   4.356 -0.0644  0.7174 -0.4729
 3546TIP3    H210603   3.304   3.155   4.228 -2.2238  3.0668 -0.8086
 3547TIP3   OH210604   4.942   2.082   0.902  0.8574 -0.7696  0.3335
 3547TIP3    H110605   4.881   2.012   0.926  0.4889 -0.1684  1.1747
 3547TIP3    H210606   4.986   2.104   0.984 -0.7549  1.6528  0.6392
 3548TIP3   OH210607   0.696   2.603   0.701  0.7731  0.5435 -0.4234
 3548TIP3    H110608   0.776   2.578   0.748  1.8878  3.3828 -0.6057
 3548TIP3    H210609   0.702   2.698   0.692 -2.2288  0.7671 -1.2600
 3549TIP3   OH210610   6.408   3.746   3.339 -0.0289 -0.7034 -0.9621
 3549TIP3    H110611   6.403   3.651   3.326  0.1181 -0.4965 -2.6556
 3549TIP3    H210612   6.388   3.783   3.254  1.4650  0.7683 -0.7224
 3550TIP3   OH210613   0.111   6.101   2.278 -0.1795 -0.5414 -0.2780
 3550TIP3    H110614   0.097   6.019   2.231 -0.4573 -0.4122 -0.4272
 3550TIP3    H210615   0.158   6.076   2.357  2.0994 -0.5289 -1.5492
 3551TIP3   OH210616   3.602   6.138   3.596  0.0284 -0.4157  0.6437
 3551TIP3    H110617   3.613   6.068   3.660 -0.1685 -1.1122 -0.0721
 3551TIP3    H210618   3.542   6.200   3.639  1.7060  0.3068  2.0522
 3552TIP3   OH210619   3.513   1.107   3.706 -0.1289  0.0536 -0.1011
 3552TIP3    H110620   3.547   1.196   3.709 -0.7546  0.4080 -1.9855
 3552TIP3    H210621   3.584   1.055   3.668 -0.8628  0.4147 -2.1073
 3553TIP3   OH210622   6.519   3.289   2.070 -0.1397 -0.3925  0.4413
 3553TIP3    H110623   6.476   3.372   2.091  0.6414 -0.0573  0.7251
 3553TIP3    H210624   6.565   3.265   2.151  0.4587 -0.5977  0.0400
 3554TIP3   OH210625   4.373   4.988   2.266 -0.3688  0.2323  0.6404
 3554TIP3    H110626   4.294   5.037   2.289  0.2342  0.4184  2.4809
 3554TIP3    H210627   4.422   4.982   2.348  1.7666  0.5287 -0.5562
 3555TIP3   OH210628   7.071   5.113   3.272  0.4616 -0.2656  0.5957
 3555TIP3    H110629   6.996   5.103   3.214  1.4158 -0.4546 -0.6601
 3555TIP3    H210630   7.086   5.208   3.276 -0.6830 -0.1180  2.0013
 3556TIP3   OH210631   6.124   6.257   1.305 -0.7124 -0.2173  0.4660
 3556TIP3    H110632   6.032   6.236   1.320 -0.6154  0.7264  2.8349
 3556TIP3    H210633   6.168   6.172   1.302 -1.3607 -0.6255  1.7833
 3557TIP3   OH210634   5.862   4.782   0.173  0.4648  0.0022 -0.0782
 3557TIP3    H110635   5.791   4.772   0.237 -0.5023  1.5070 -0.8612
 3557TIP3    H210636   5.844   4.714   0.108  1.4390 -1.5219  1.1633
 3558TIP3   OH210637   0.089   5.506   1.321  0.0836  0.7039  0.3110
 3558TIP3    H110638   0.004   5.501   1.277  0.8005  2.4173 -1.4438
 3558TIP3    H210639   0.094   5.426   1.373 -1.1670 -1.1827 -2.2415
 3559TIP3   OH210640   3.434   3.683   0.816 -0.0296 -0.3749 -0.0286
 3559TIP3    H110641   3.490   3.685   0.739 -0.5096 -2.6357 -0.5008
 3559TIP3    H210642   3.494   3.666   0.889  0.3671  1.3213  0.0775
 3560TIP3   OH210643   3.518   4.683   4.335 -0.1605 -0.4086  0.2148
 3560TIP3    H110644   3.575   4.618   4.294  0.5495  0.5249 -0.3377
 3560TIP3    H210645   3.566   4.711   4.413 -1.2554 -1.7780  1.4287
 3561TIP3   OH210646   5.528   1.083   5.262  0.0365  0.5276 -0.9148
 3561TIP3    H110647   5.622   1.064   5.262 -0.1483 -0.5432  0.1873
 3561TIP3    H210648   5.523   1.178   5.249  1.2063  0.4392 -2.2042
 3562TIP3   OH210649   0.358   1.862   3.403  0.1053  0.0171  0.0386
 3562TIP3    H110650   0.334   1.849   3.494  0.6627 -0.9769  0.0601
 3562TIP3    H210651   0.327   1.783   3.358 -0.5145  0.6650 -0.7133
 3563TIP3   OH210652   5.208   0.912   0.307 -0.1381 -0.2450 -0.5037
 3563TIP3    H110653   5.229   0.995   0.349 -0.6897 -0.5999  0.5037
 3563TIP3    H210654   5.288   0.860   0.318 -0.1351 -0.1908 -0.2583
 3564TIP3   OH210655   3.723   2.724   5.757  0.3468 -0.1641 -0.1228
 3564TIP3    H110656   3.744   2.631   5.753 -0.3446 -0.3298 -0.0165
 3564TIP3    H210657   3.627   2.727   5.761  0.4085  0.4667  1.8848
 3565TIP3   OH210658   0.251   3.671   0.098 -0.2204  0.1883  0.6379
 3565TIP3    H110659   0.208   3.755   0.084  2.0578  1.3909  0.4498
 3565TIP3    H210660   0.223   3.618   0.023  2.3195  2.5518 -2.2370
 3566TIP3   OH210661   0.493   4.900   5.091 -0.3130 -0.2745 -0.2555
 3566TIP3    H110662   0.506   4.947   5.173  0.8778 -0.4273 -0.3470
 3566TIP3    H210663   0.505   4.808   5.115 -3.6171 -0.7480  0.1452
 3567TIP3   OH210664   3.026   3.575   0.015 -0.4805  0.1675 -0.2920
 3567TIP3    H110665   3.010   3.597   0.107 -0.7455  0.2722 -0.3626
 3567TIP3    H210666   3.038   3.480   0.015  0.3306  0.2636 -0.0350
 3568TIP3   OH210667   6.200   4.833   5.235 -0.3910 -0.4141 -0.0707
 3568TIP3    H110668   6.187   4.896   5.305  2.2118  0.0649  0.0658
 3568TIP3    H210669   6.207   4.886   5.156  2.7421 -0.3198  0.1611
 3569TIP3   OH210670   6.265   1.355   1.862 -0.5378  0.1869 -0.2679
 3569TIP3    H110671   6.307   1.441   1.854  0.4855 -0.2146  0.6057
 3569TIP3    H210672   6.226   1.355   1.949 -0.1769 -0.3871 -0.1042
 3570TIP3   OH210673   5.652   4.936   0.483  0.8908 -0.4644 -0.4811
 3570TIP3    H110674   5.645   5.020   0.437  0.1703  0.4471  1.2310
 3570TIP3    H210675   5.714   4.952   0.554 -1.2682 -0.5738  1.5143
 3571TIP3   OH210676   5.194   5.245   2.522 -0.3486  0.3469  0.2387
 3571TIP3    H110677   5.152   5.202   2.448 -0.7948  0.6707  0.3005
 3571TIP3    H210678   5.277   5.277   2.488  0.1510 -0.8524  0.2738
 3572TIP3   OH210679   3.598   3.379   5.332  0.3915  0.0695  0.5248
 3572TIP3    H110680   3.657   3.450   5.357 -1.0040  2.1557 -1.7163
 3572TIP3    H210681   3.544   3.415   5.262 -1.9895 -2.4848  0.8566
 3573TIP3   OH210682   4.839   2.410   4.164  0.0177  0.1240 -0.6748
 3573TIP3    H110683   4.920   2.363   4.180  0.9345  1.4156 -1.3431
 3573TIP3    H210684   4.864   2.503   4.167 -1.8345  0.6501  1.2848
 3574TIP3   OH210685   5.561   3.587   1.546 -0.0131  0.2720  0.0895
 3574TIP3    H110686   5.538   3.540   1.466  0.9436 -0.5613  0.2687
 3574TIP3    H210687   5.504   3.664   1.547 -1.8929 -1.0543 -0.0374
 3575TIP3   OH210688   5.289   4.153   1.718 -0.2828  0.2905 -0.8721
 3575TIP3    H110689   5.298   4.092   1.791  0.1449 -0.7925 -1.7920
 3575TIP3    H210690   5.198   4.144   1.690 -0.3155  0.3392 -0.7813
 3576TIP3   OH210691   6.864   5.587   4.749 -0.8562  0.3077 -0.6280
 3576TIP3    H110692   6.906   5.674   4.745  0.7261 -0.3905  0.0587
 3576TIP3    H210693   6.868   5.555   4.659 -1.8226  1.0910 -0.9710
 3577TIP3   OH210694   4.862   3.126   2.028  0.1273 -0.6258 -0.7372
 3577TIP3    H110695   4.864   3.107   1.934  0.9177 -1.4369 -0.5643
 3577TIP3    H210696   4.949   3.162   2.047 -0.4280  0.6901 -0.5287
 3578TIP3   OH210697   5.886   0.047   1.973  0.7922  0.1735 -0.6207
 3578TIP3    H110698   5.979   0.039   1.993  0.9689  3.2900  0.2851
 3578TIP3    H210699   5.854  -0.044   1.973  3.1752 -0.8445  2.2088
 3579TIP3   OH210700   5.929   2.562   2.161  0.0051  0.3407  0.1089
 3579TIP3    H110701   5.966   2.508   2.230 -0.5731  0.2284  0.3373
 3579TIP3    H210702   5.962   2.523   2.080  0.2887  0.1739  0.3027
 3580TIP3   OH210703   7.018   3.940   1.392 -0.3363  0.2676  0.8619
 3580TIP3    H110704   7.079   3.989   1.337 -1.1924 -0.0305 -0.3747
 3580TIP3    H210705   7.066   3.861   1.417 -0.6737 -0.6751 -1.3045
 3581TIP3   OH210706   5.463   0.170   0.672  0.4514 -0.0020  0.0277
 3581TIP3    H110707   5.537   0.109   0.675  0.3034 -0.3973 -2.3703
 3581TIP3    H210708   5.502   0.254   0.647  0.5405  0.8037  2.5333
 3582TIP3   OH210709   2.334   4.564   1.862 -0.5109 -0.1989 -0.1990
 3582TIP3    H110710   2.325   4.652   1.826 -2.1980  1.0018  2.8187
 3582TIP3    H210711   2.366   4.577   1.951 -0.6325 -2.6713  0.2816
 3583TIP3   OH210712   1.217   6.688   1.085  0.0314  0.4032 -0.2410
 3583TIP3    H110713   1.139   6.706   1.032  0.9152  2.4903 -0.9215
 3583TIP3    H210714   1.252   6.607   1.048 -1.2284 -0.0217 -0.5863
 3584TIP3   OH210715   0.197   0.359   2.369  0.1241 -0.2161  0.6265
 3584TIP3    H110716   0.150   0.439   2.395  0.8944  0.5555 -0.2618
 3584TIP3    H210717   0.133   0.309   2.318 -0.8420 -0.9203  2.4452
 3585TIP3   OH210718   4.619   4.401   5.785  0.1904 -0.1730 -0.2071
 3585TIP3    H110719   4.686   4.339   5.758 -0.0383  0.0877 -1.4243
 3585TIP3    H210720   4.663   4.486   5.787  0.4647 -0.3151  1.3072
 3586TIP3   OH210721   4.418   2.696   4.391 -0.1266 -0.4530  0.0778
 3586TIP3    H110722   4.384   2.746   4.317 -1.0548 -0.8095  0.2459
 3586TIP3    H210723   4.491   2.646   4.356 -0.1072 -0.0781 -0.4252
 3587TIP3   OH210724   0.778   3.970   4.120 -0.3534  0.2185 -0.5618
 3587TIP3    H110725   0.696   3.957   4.072 -0.5794 -0.9397  0.0829
 3587TIP3    H210726   0.833   3.895   4.094 -0.4948 -0.4604  0.9626
 3588TIP3   OH210727   2.955   2.551   0.598 -0.3103  0.1923  0.5354
 3588TIP3    H110728   2.959   2.468   0.647 -0.8206 -0.5061 -0.5833
 3588TIP3    H210729   3.044   2.585   0.603  0.1823 -0.9759  0.0892
 3589TIP3   OH210730   5.815   1.444   2.044 -0.1719 -0.3888  0.4593
 3589TIP3    H110731   5.720   1.428   2.049  0.0028 -1.2946  1.2932
 3589TIP3    H210732   5.851   1.364   2.005  0.0632  0.8000 -1.9115
 3590TIP3   OH210733   3.468   6.446   1.528 -0.2775 -0.3314 -0.2413
 3590TIP3    H110734   3.479   6.499   1.449 -0.1515 -1.1125 -0.7602
 3590TIP3    H210735   3.384   6.401   1.515 -0.1338 -0.6554 -0.0513
 3591TIP3   OH210736   2.745   2.720   0.658 -0.4674  0.0725  0.3504
 3591TIP3    H110737   2.665   2.673   0.632 -0.2012 -0.2555  0.1219
 3591TIP3    H210738   2.816   2.660   0.638 -0.1081  0.6417 -0.1172
 3592TIP3   OH210739   5.638   3.966   0.617 -0.3851 -0.4728  0.3177
 3592TIP3    H110740   5.565   3.968   0.555  0.0619  1.1631 -0.2143
 3592TIP3    H210741   5.688   3.888   0.593 -1.0808 -0.7349 -0.3365
 3593TIP3   OH210742   0.434   6.618   3.101 -0.0051  0.0816  0.0790
 3593TIP3    H110743   0.518   6.581   3.073 -0.4659 -0.3908 -0.7131
 3593TIP3    H210744   0.450   6.647   3.191  0.9178 -0.2842  0.0496
 3594TIP3   OH210745   5.416   3.213   2.460  0.1271 -0.3076 -0.1844
 3594TIP3    H110746   5.334   3.165   2.447 -0.6918  0.4188  1.8257
 3594TIP3    H210747   5.463   3.203   2.378 -2.5084  0.2706 -1.9116
 3595TIP3   OH210748   0.146   3.626   3.089  0.1766 -0.1481 -0.4668
 3595TIP3    H110749   0.095   3.672   3.022 -1.0428 -0.1471  0.4143
 3595TIP3    H210750   0.205   3.569   3.041 -0.2306  0.3147 -1.5393
 3596TIP3   OH210751   0.043   6.136   0.414  0.1042  0.5044  0.4113
 3596TIP3    H110752   0.019   6.047   0.442  0.0970  0.4281  0.1603
 3596TIP3    H210753   0.133   6.146   0.445 -0.1684  0.7170  1.1722
 3597TIP3   OH210754   3.248   5.600   5.199 -0.4027 -0.4568  0.7350
 3597TIP3    H110755   3.330   5.553   5.206  0.3678  0.5018 -1.0948
 3597TIP3    H210756   3.246   5.657   5.276  0.2579 -1.0487  1.2022
 3598TIP3   OH210757   1.488   6.274   3.966  0.2416  0.2007 -0.3188
 3598TIP3    H110758   1.434   6.207   4.008  0.4750  0.1274 -0.1343
 3598TIP3    H210759   1.426   6.343   3.941 -0.2838 -0.8588 -2.1181
 3599TIP3   OH210760   6.994   3.534   4.912 -0.0845  0.1831 -0.2648
 3599TIP3    H110761   7.000   3.439   4.904 -0.4833 -0.0317  1.4332
 3599TIP3    H210762   7.013   3.551   5.004  0.0602  1.7649 -0.5624
 3600TIP3   OH210763   6.075   3.025   5.874  0.1686  0.4248 -0.0248
 3600TIP3    H110764   6.019   3.018   5.796  0.4219 -0.6238 -0.1297
 3600TIP3    H210765   6.152   2.973   5.853 -0.0508 -0.4270  1.1738
 3601TIP3   OH210766   6.507   0.786   2.345 -0.3080 -0.7156 -0.2758
 3601TIP3    H110767   6.467   0.839   2.276 -1.1489  0.1374  0.8265
 3601TIP3    H210768   6.451   0.801   2.422  1.0557 -0.9889  0.8085
 3602TIP3   OH210769   2.193   5.136   2.952 -0.3949  0.0674  0.0558
 3602TIP3    H110770   2.136   5.204   2.918  0.1274  0.0283 -0.9357
 3602TIP3    H210771   2.136   5.078   3.003 -1.1518  0.2648 -0.5665
 3603TIP3   OH210772   4.997   2.520   4.942  0.1391  0.0125  0.5118
 3603TIP3    H110773   5.034   2.434   4.923 -0.6651 -0.3403  0.5046
 3603TIP3    H210774   4.904   2.510   4.923 -0.0189  0.7815  0.8750
 3604TIP3   OH210775   3.751   6.068   2.852 -0.4016 -0.0845  0.5122
 3604TIP3    H110776   3.713   5.981   2.837  1.6655 -0.7747 -1.1235
 3604TIP3    H210777   3.694   6.127   2.804 -0.3823 -0.8709 -0.5112
 3605TIP3   OH210778   5.757   3.739   3.520 -0.0360 -0.7121 -0.0674
 3605TIP3    H110779   5.810   3.677   3.469 -0.4059 -0.6663 -0.5126
 3605TIP3    H210780   5.781   3.825   3.485  0.2424 -0.6199  0.3349
 3606TIP3   OH210781   4.993   5.604   3.978 -0.1203  0.2003 -0.3268
 3606TIP3    H110782   4.920   5.573   4.032 -0.6528  0.4290 -0.9053
 3606TIP3    H210783   4.975   5.570   3.891 -0.3919  1.5913 -0.8383
 3607TIP3   OH210784   2.737   6.345   3.644  0.0094 -0.5757 -0.7409
 3607TIP3    H110785   2.831   6.330   3.656 -0.2951 -2.6085 -0.5025
 3607TIP3    H210786   2.714   6.409   3.711  1.2110 -0.0598 -0.7946
 3608TIP3   OH210787   2.190   6.139   4.562  0.3990  0.2539  0.3299
 3608TIP3    H110788   2.255   6.210   4.558 -0.9910  1.6804  1.5771
 3608TIP3    H210789   2.143   6.155   4.644  0.6821 -2.7382  1.1914
 3609TIP3   OH210790   0.951   6.395   1.578 -0.6283 -0.1305  0.0113
 3609TIP3    H110791   0.939   6.303   1.554 -1.9535 -0.4216  1.5968
 3609TIP3    H210792   1.046   6.407   1.585 -0.4520 -1.4195 -0.0513
 3610TIP3   OH210793   1.420   4.321   0.221 -0.3734 -0.4372  0.3195
 3610TIP3    H110794   1.505   4.316   0.266 -0.5026  0.0148  0.6316
 3610TIP3    H210795   1.368   4.251   0.261 -0.4919 -0.0298  0.9007
 3611TIP3   OH210796   6.797   0.488   1.154 -0.1886  0.5365 -0.0540
 3611TIP3    H110797   6.723   0.442   1.115  1.5122 -1.9989 -0.5389
 3611TIP3    H210798   6.853   0.511   1.080  1.0279 -0.5011  0.5037
 3612TIP3   OH210799   2.562   1.329   5.270 -0.0003 -0.2677 -0.5818
 3612TIP3    H110800   2.657   1.339   5.261  0.1434 -1.7196 -0.8300
 3612TIP3    H210801   2.546   1.336   5.364  0.2137  0.9635 -0.6201
 3613TIP3   OH210802   3.755   4.286   0.217  0.0561  0.6340  0.4970
 3613TIP3    H110803   3.805   4.319   0.291 -0.0317  1.4624  0.2041
 3613TIP3    H210804   3.814   4.223   0.174  0.4493  0.8262  0.7476
 3614TIP3   OH210805   2.024   3.758   1.647 -0.4541 -0.0814 -0.2804
 3614TIP3    H110806   2.036   3.714   1.563 -1.2943  0.5647 -0.7592
 3614TIP3    H210807   2.104   3.810   1.659  0.9650 -2.3542  0.7289
 3615TIP3   OH210808   1.446   1.290   2.223  0.1362 -0.2822  0.0589
 3615TIP3    H110809   1.392   1.365   2.249 -0.3693 -0.8978  0.7926
 3615TIP3    H210810   1.534   1.327   2.211  0.3612  0.0756  2.4458
 3616TIP3   OH210811   3.471   0.369   3.035  0.0735 -0.2709 -0.4438
 3616TIP3    H110812   3.466   0.451   2.985  1.4664  0.2420  0.2022
 3616TIP3    H210813   3.561   0.367   3.068 -0.5907 -0.9678  1.4015
 3617TIP3   OH210814   6.206   3.053   1.811 -0.6153  0.4045 -0.2936
 3617TIP3    H110815   6.194   3.059   1.716 -0.2340  0.5093 -0.3395
 3617TIP3    H210816   6.300   3.040   1.822 -0.8022 -0.7665  0.0260
 3618TIP3   OH210817   5.866   5.717   5.597 -0.2202 -0.0416  0.2712
 3618TIP3    H110818   5.838   5.808   5.591  0.5429  0.1600 -0.4861
 3618TIP3    H210819   5.797   5.667   5.554 -0.3418  0.2454  0.1321
 3619TIP3   OH210820   3.755   2.759   1.260 -1.0926  0.6554 -0.3511
 3619TIP3    H110821   3.663   2.774   1.236 -1.5626 -0.2862  0.7440
 3619TIP3    H210822   3.764   2.800   1.346  0.0959  2.5058 -1.2905
 3620TIP3   OH210823   0.743   2.810   2.190 -0.2482 -0.3073  0.1550
 3620TIP3    H110824   0.747   2.736   2.129  3.1097  1.5660 -2.2436
 3620TIP3    H210825   0.677   2.868   2.153 -2.2905 -1.5799  1.5898
 3621TIP3   OH210826   7.109   6.167   1.375 -0.3558 -0.2323 -0.6965
 3621TIP3    H110827   7.018   6.141   1.366 -0.9214  0.9041  1.2155
 3621TIP3    H210828   7.143   6.167   1.286 -2.4781  0.2214 -1.5587
 3622TIP3   OH210829   1.849   5.154   0.268  0.5442 -0.1564 -0.4952
 3622TIP3    H110830   1.888   5.100   0.336  1.7273  3.9063  2.4791
 3622TIP3    H210831   1.914   5.156   0.198  2.4221  0.6203  1.1735
 3623TIP3   OH210832   5.863   0.726   2.290  0.5335  0.5300 -0.1544
 3623TIP3    H110833   5.795   0.679   2.337 -0.4741  0.1882 -1.8606
 3623TIP3    H210834   5.930   0.660   2.273  0.8681  0.6378  0.6853
 3624TIP3   OH210835   5.219   2.332   3.194 -0.0948 -0.6119  0.1553
 3624TIP3    H110836   5.253   2.243   3.201 -0.4391 -0.7459  0.1504
 3624TIP3    H210837   5.297   2.386   3.183  0.0556 -1.0372 -1.1090
 3625TIP3   OH210838   3.753   0.404   4.733  0.2264 -0.1714 -0.6117
 3625TIP3    H110839   3.732   0.481   4.786 -0.6362 -1.3438  0.8441
 3625TIP3    H210840   3.818   0.435   4.671  0.3091  1.6010  0.2769
 3626TIP3   OH210841   5.519   5.549   0.537  0.3343 -0.0717 -0.4094
 3626TIP3    H110842   5.598   5.545   0.483 -0.1918 -2.1683 -1.0928
 3626TIP3    H210843   5.450   5.573   0.475 -0.1092 -1.5470 -0.5136
 3627TIP3   OH210844   2.571   6.824   1.429 -0.7882 -0.4198  0.0497
 3627TIP3    H110845   2.524   6.796   1.507  1.2986 -2.3517  0.7217
 3627TIP3    H210846   2.545   6.761   1.361 -1.9687  0.7652 -0.6543
 3628TIP3   OH210847   3.758   2.671   3.937  0.3986 -0.3494 -0.9843
 3628TIP3    H110848   3.684   2.726   3.909 -0.2684 -1.1462 -0.8311
 3628TIP3    H210849   3.742   2.655   4.030  1.0160 -0.1557 -0.8406
 3629TIP3   OH210850   4.456   6.694   3.820 -0.2382  0.3966  0.2997
 3629TIP3    H110851   4.502   6.753   3.881 -1.2375  1.0902  0.4119
 3629TIP3    H210852   4.519   6.624   3.803  0.0589  0.1350  2.2020
 3630TIP3   OH210853   5.828   1.343   1.355  0.2000 -0.0296 -0.1408
 3630TIP3    H110854   5.889   1.413   1.334 -1.5842  1.3791 -0.8765
 3630TIP3    H210855   5.808   1.355   1.448  0.7300 -0.2746  0.0106
 3631TIP3   OH210856   4.296   5.519   2.965 -0.0593  0.4054 -0.4801
 3631TIP3    H110857   4.339   5.448   3.012 -1.2645  0.8065  1.3372
 3631TIP3    H210858   4.314   5.597   3.017 -2.2920  0.7092 -0.0350
 3632TIP3   OH210859   3.166   3.494   4.879 -0.7882  0.0919 -0.2520
 3632TIP3    H110860   3.119   3.514   4.797 -1.4352  1.8118  0.4945
 3632TIP3    H210861   3.096   3.471   4.941 -0.6348  1.9847  0.6795
 3633TIP3   OH210862   0.732   0.979   4.954 -0.3062 -0.0374  0.6325
 3633TIP3    H110863   0.779   0.902   4.921 -0.2241  0.3037 -0.0524
 3633TIP3    H210864   0.793   1.019   5.016  0.1407  0.1526  0.0787
 3634TIP3   OH210865   2.359   4.679   5.182 -0.1770 -0.0167 -0.5286
 3634TIP3    H110866   2.292   4.611   5.176 -1.0251  0.5213  1.7976
 3634TIP3    H210867   2.350   4.714   5.271  2.9206  0.4020 -0.2845
 3635TIP3   OH210868   3.387   0.511   3.782 -0.0273  0.4624  0.3242
 3635TIP3    H110869   3.310   0.558   3.815 -0.7511 -0.9277  0.6843
 3635TIP3    H210870   3.461   0.567   3.805 -0.7786  0.9955  1.5568
 3636TIP3   OH210871   6.760   5.856   1.856  0.1203  0.4100 -0.1402
 3636TIP3    H110872   6.716   5.932   1.818 -0.8903  0.1389  0.4297
 3636TIP3    H210873   6.691   5.790   1.861  0.3647  0.2486  1.5645
 3637TIP3   OH210874   5.353   5.826   5.840 -0.0988  0.6938 -0.4165
 3637TIP3    H110875   5.278   5.778   5.805 -0.0677  0.7931 -0.6182
 3637TIP3    H210876   5.425   5.807   5.780  0.1837  0.1456  0.0911
 3638TIP3   OH210877   4.843   1.481   1.164  0.1362 -0.0756 -0.1044
 3638TIP3    H110878   4.764   1.430   1.179 -0.8509  0.9206 -1.7043
 3638TIP3    H210879   4.908   1.418   1.133 -0.0458 -0.8728  1.0929
 3639TIP3   OH210880   7.195   0.931   4.797 -0.2560 -0.2421 -0.2285
 3639TIP3    H110881   7.263   0.881   4.753 -0.3409 -0.6282  0.0776
 3639TIP3    H210882   7.150   0.979   4.727  0.9526  0.7813 -0.3362
 3640TIP3   OH210883   1.930   1.972   3.429 -0.5034 -0.4449  0.1922
 3640TIP3    H110884   1.920   2.023   3.348 -1.2739  0.4156  0.8177
 3640TIP3    H210885   2.025   1.964   3.440 -0.3831 -0.3030 -0.6238
 3641TIP3   OH210886   6.283   5.003   1.646  0.3839  0.2202 -0.2349
 3641TIP3    H110887   6.194   4.971   1.655  0.3728  0.2213 -0.3331
 3641TIP3    H210888   6.292   5.070   1.713  0.6642 -0.5426  0.4999
 3642TIP3   OH210889   5.984   5.809   1.895  0.2879  0.1437 -0.5315
 3642TIP3    H110890   5.949   5.891   1.862  1.1770  0.0136 -1.8445
 3642TIP3    H210891   6.072   5.831   1.925 -0.1252  0.0358  0.8689
 3643TIP3   OH210892   0.971   1.216   1.713 -0.1706  0.1894 -0.1525
 3643TIP3    H110893   0.911   1.289   1.728 -0.9841 -0.1355 -1.6097
 3643TIP3    H210894   0.915   1.145   1.681  0.8637 -0.4479 -0.6012
 3644TIP3   OH210895   2.139   2.054   5.043  0.5209  0.3487  0.0437
 3644TIP3    H110896   2.090   1.974   5.061  2.0217 -0.7578 -0.5038
 3644TIP3    H210897   2.137   2.103   5.125 -0.6027 -0.1310  0.3190
 3645TIP3   OH210898   1.147   3.335   4.758 -0.1551 -0.4275  0.4445
 3645TIP3    H110899   1.084   3.407   4.761 -1.2196 -1.1116 -2.2352
 3645TIP3    H210900   1.126   3.282   4.835 -2.9337 -0.6084 -0.3287
 3646TIP3   OH210901   4.034   1.313   2.027 -0.0822  0.2940  0.1703
 3646TIP3    H110902   3.978   1.388   2.009  0.4595  0.7406  0.3115
 3646TIP3    H210903   3.974   1.240   2.039 -0.5605  0.4573 -1.1374
 3647TIP3   OH210904   7.163   5.034   5.313  0.1900 -0.2822 -0.5504
 3647TIP3    H110905   7.080   5.080   5.327  0.9181  1.4495 -1.6001
 3647TIP3    H210906   7.150   4.983   5.234  0.0571 -0.1215 -0.6333
 3648TIP3   OH210907   6.239   1.017   1.643 -0.9394 -0.5834 -0.0243
 3648TIP3    H110908   6.164   1.062   1.604 -1.6193 -1.2054  0.5365
 3648TIP3    H210909   6.270   0.959   1.573 -0.0133  0.7801 -0.7712
 3649TIP3   OH210910   1.321   4.227   3.957  0.1766  0.4090  0.0084
 3649TIP3    H110911   1.394   4.165   3.969 -0.4869 -0.8363 -1.8698
 3649TIP3    H210912   1.364   4.312   3.944  1.2572 -0.1212 -0.0043
 3650TIP3   OH210913   2.207   5.095   5.052 -0.5943  0.2382 -0.1824
 3650TIP3    H110914   2.232   5.187   5.038 -0.2021  0.4910  1.8497
 3650TIP3    H210915   2.282   5.045   5.020 -0.9940  0.5751 -1.7239
 3651TIP3   OH210916   1.476   2.328   5.654  0.2397  0.7168 -0.3790
 3651TIP3    H110917   1.390   2.344   5.693 -0.1049 -0.5996 -0.5541
 3651TIP3    H210918   1.537   2.347   5.725 -0.2590  0.4668  0.1275
 3652TIP3   OH210919   1.898   2.410   1.676  0.6196  0.2520  0.0784
 3652TIP3    H110920   1.879   2.317   1.675  1.0634  0.1459  0.7125
 3652TIP3    H210921   1.985   2.418   1.638 -0.1044  0.5980 -1.5703
 3653TIP3   OH210922   2.802   0.336   0.949 -0.6303  0.0127  0.1215
 3653TIP3    H110923   2.812   0.327   1.044 -1.0545  0.8312  0.2516
 3653TIP3    H210924   2.891   0.349   0.917 -0.2338 -2.1211  0.1621
 3654TIP3   OH210925   1.846   6.224   2.980  0.1365 -0.1135  0.1429
 3654TIP3    H110926   1.768   6.219   2.926 -0.3565  1.0200  0.7123
 3654TIP3    H210927   1.835   6.154   3.045  0.7258 -1.4702 -1.1495
 3655TIP3   OH210928   1.380   4.541   4.909  0.1581  0.3177  0.0572
 3655TIP3    H110929   1.444   4.518   4.977 -0.9444 -0.1347  0.9735
 3655TIP3    H210930   1.323   4.606   4.950  0.4348  1.2477 -0.9846
 3656TIP3   OH210931   1.107   3.051   3.598  0.2577 -0.0411 -0.1810
 3656TIP3    H110932   1.061   3.024   3.678 -1.0236 -1.1055 -1.2326
 3656TIP3    H210933   1.038   3.056   3.531  1.6679 -2.2426 -1.9495
 3657TIP3   OH210934   2.101   4.316   4.166  0.0601  0.2094  0.3959
 3657TIP3    H110935   2.093   4.287   4.257 -0.2066 -0.6873  0.0931
 3657TIP3    H210936   2.071   4.407   4.168 -3.1761 -0.7209  0.6777
 3658TIP3   OH210937   4.372   4.609   2.406  0.2763  0.3951  0.2836
 3658TIP3    H110938   4.390   4.520   2.378 -0.3119  0.6991 -1.1253
 3658TIP3    H210939   4.442   4.628   2.469 -0.7505 -1.7227  2.1807
 3659TIP3   OH210940   1.210   5.711   5.350 -0.1649  0.5994 -0.1906
 3659TIP3    H110941   1.170   5.764   5.419  1.1392 -0.8956  1.7910
 3659TIP3    H210942   1.262   5.646   5.396  0.3117 -0.8367 -2.5955
 3660TIP3   OH210943   0.756   6.277   3.177  0.6713  0.2398 -0.0999
 3660TIP3    H110944   0.741   6.218   3.251  2.9564  0.1040  0.3404
 3660TIP3    H210945   0.721   6.361   3.205  2.1246  0.3697  1.4938
 3661TIP3   OH210946   5.148   4.953   4.854  0.5842  0.2767  0.1413
 3661TIP3    H110947   5.144   5.001   4.771  0.8594 -0.1852 -0.1473
 3661TIP3    H210948   5.138   4.862   4.829  0.8206  0.1207  0.6050
 3662TIP3   OH210949   2.509   3.219   3.774  0.4693  0.5013 -0.2826
 3662TIP3    H110950   2.422   3.257   3.788 -0.0526  0.1348 -2.2224
 3662TIP3    H210951   2.561   3.292   3.739  0.5826  0.4020 -0.3207
 3663TIP3   OH210952   5.326   2.713   3.539  0.2385 -0.0456  0.6757
 3663TIP3    H110953   5.273   2.782   3.579  0.9612  0.0424  1.5083
 3663TIP3    H210954   5.358   2.661   3.612  2.4078  0.7144  0.3553
 3664TIP3   OH210955   5.524   5.205   0.030 -0.4080 -0.7092 -0.4815
 3664TIP3    H110956   5.570   5.266   0.087 -1.0611 -1.0850  0.4656
 3664TIP3    H210957   5.536   5.119   0.071 -0.5505 -1.0450 -1.1216
 3665TIP3   OH210958   4.545   5.089   5.398 -0.4616  0.1369  0.1531
 3665TIP3    H110959   4.609   5.082   5.327 -0.6746 -0.5075  0.0108
 3665TIP3    H210960   4.563   5.014   5.454 -0.0730  0.8333  0.9761
 3666TIP3   OH210961   5.278   6.162   3.238  0.0053  0.2023  0.1277
 3666TIP3    H110962   5.239   6.102   3.301  0.6118 -1.1827 -0.7734
 3666TIP3    H210963   5.360   6.121   3.212  1.8211  2.7271  1.4663
 3667TIP3   OH210964   0.737   5.664   5.397 -0.0425 -0.0633 -0.2187
 3667TIP3    H110965   0.793   5.726   5.349 -0.4729 -0.2780 -1.0197
 3667TIP3    H210966   0.675   5.633   5.332 -0.4229 -0.6383  0.4065
 3668TIP3   OH210967   3.511   1.433   4.833 -0.0874 -0.0719  0.3043
 3668TIP3    H110968   3.476   1.481   4.759  0.4900 -0.6549 -0.3561
 3668TIP3    H210969   3.532   1.346   4.798  2.2752  0.3159  0.5785
 3669TIP3   OH210970   0.126   3.437   1.638 -0.5407  0.1524 -0.6229
 3669TIP3    H110971   0.176   3.411   1.561  1.5796 -1.6407  1.2316
 3669TIP3    H210972   0.112   3.531   1.628  3.9852  0.9891 -0.9513
 3670TIP3   OH210973   5.828   4.008   5.194  0.0690  0.5354  0.7898
 3670TIP3    H110974   5.811   3.952   5.269 -0.9369  0.0191  0.2065
 3670TIP3    H210975   5.758   3.986   5.132 -1.1128  3.2913  1.0088
 3671TIP3   OH210976   1.427   0.661   2.930  0.0746 -0.2515 -0.4735
 3671TIP3    H110977   1.408   0.731   2.993 -0.9345 -0.8830 -0.0524
 3671TIP3    H210978   1.406   0.700   2.845  2.2352  0.8858 -0.5481
 3672TIP3   OH210979   2.442   6.623   1.280 -0.3247  0.2912  0.1603
 3672TIP3    H110980   2.393   6.575   1.347 -1.9922  0.1391 -1.0718
 3672TIP3    H210981   2.435   6.567   1.202  0.8870  0.8192 -0.3437
 3673TIP3   OH210982   5.819   4.698   2.111 -0.1444  0.4673  0.1014
 3673TIP3    H110983   5.848   4.765   2.174  1.5053 -0.2101  0.0942
 3673TIP3    H210984   5.769   4.636   2.164  1.2912 -0.1366  0.7825
 3674TIP3   OH210985   4.846   1.997   4.178 -0.2009  0.0258 -0.4642
 3674TIP3    H110986   4.835   1.978   4.271 -0.0491 -1.0058 -0.6382
 3674TIP3    H210987   4.850   1.910   4.136  0.1878  0.4643 -1.3721
 3675TIP3   OH210988   6.983   1.996   3.074 -0.1156  0.7089 -0.0190
 3675TIP3    H110989   6.953   1.906   3.061 -0.7367  0.9816 -0.5131
 3675TIP3    H210990   6.921   2.050   3.023 -0.5224  1.5220  1.2965
 3676TIP3   OH210991   1.963   3.830   4.276 -0.0970 -0.5485  0.0656
 3676TIP3    H110992   2.030   3.859   4.214 -0.4732  2.9968  1.1201
 3676TIP3    H210993   2.012   3.807   4.355  0.0196  3.2030  1.2624
 3677TIP3   OH210994   2.335   5.000   5.475 -0.0231  0.2315  0.0535
 3677TIP3    H110995   2.357   4.907   5.475 -1.1872 -0.0579 -1.0784
 3677TIP3    H210996   2.376   5.034   5.555  2.8526 -0.6289 -0.9301
 3678TIP3   OH210997   4.251   1.293   1.839 -0.1985 -0.2115  0.3895
 3678TIP3    H110998   4.182   1.252   1.892 -1.1725 -0.4362 -1.0172
 3678TIP3    H210999   4.318   1.225   1.829 -0.6887 -0.6527  0.0995
 3679TIP3   OH211000   5.029   4.041   1.703  0.5691  0.1521  0.4618
 3679TIP3    H111001   5.013   3.952   1.673 -0.0863  0.3992  0.0507
 3679TIP3    H211002   4.945   4.086   1.689  0.9574  0.8851  0.4489
 3680TIP3   OH211003   1.450   3.398   3.430  0.6955 -0.6940 -0.1988
 3680TIP3    H111004   1.377   3.342   3.456  0.3519 -0.5026 -0.7510
 3680TIP3    H211005   1.425   3.433   3.344  1.0859 -0.0171 -0.0458
 3681TIP3   OH211006   6.505   3.053   3.974 -0.1645  0.1070 -0.0566
 3681TIP3    H111007   6.537   3.142   3.962  1.2848 -0.4990 -0.9567
 3681TIP3    H211008   6.511   3.038   4.068  0.5591  0.6098 -0.0137
 3682TIP3   OH211009   5.115   5.220   5.710  0.1452  0.0373 -0.1707
 3682TIP3    H111010   5.112   5.315   5.700 -1.7014  0.0116 -0.1526
 3682TIP3    H211011   5.202   5.196   5.678  0.5500  1.6984 -0.4279
 3683TIP3   OH211012   5.869   2.418   4.770 -0.4812 -0.2984  0.4701
 3683TIP3    H111013   5.866   2.489   4.706 -2.4395  0.9335  1.8098
 3683TIP3    H211014   5.801   2.357   4.742  0.8765 -1.4784 -0.4080
 3684TIP3   OH211015   5.619   4.539   1.013 -0.1928 -0.1917 -0.2298
 3684TIP3    H111016   5.528   4.538   0.984 -0.5890 -0.0477  0.9639
 3684TIP3    H211017   5.647   4.629   1.002 -0.4611 -0.0565  0.1741
 3685TIP3   OH211018   4.017   2.965   1.142  0.0073  0.3109 -0.1008
 3685TIP3    H111019   4.007   2.870   1.148  1.6976  0.1526  0.7381
 3685TIP3    H211020   4.111   2.979   1.130 -0.0659  1.9179  0.8432
 3686TIP3   OH211021   5.560   5.898   3.296  0.0766 -0.2859  0.0992
 3686TIP3    H111022   5.522   5.817   3.263  1.5232 -0.9652  0.0149
 3686TIP3    H211023   5.548   5.894   3.391 -0.5773 -0.2002  0.0234
 3687TIP3   OH211024   4.464   3.508   1.500  0.2121 -0.1569  0.1619
 3687TIP3    H111025   4.559   3.516   1.509  0.2311  0.5272 -0.5536
 3687TIP3    H211026   4.445   3.545   1.414 -0.7891  0.3808  0.6057
 3688TIP3   OH211027   1.973   5.046   4.901  0.1648  0.0204  0.0933
 3688TIP3    H111028   1.902   5.090   4.947 -0.0128  0.7776 -0.8656
 3688TIP3    H211029   2.052   5.074   4.945 -0.1269 -1.0232  1.3304
 3689TIP3   OH211030   6.645   4.694   1.570 -0.1847  0.2003 -0.3732
 3689TIP3    H111031   6.733   4.671   1.539 -0.0965  1.6242 -1.2650
 3689TIP3    H211032   6.599   4.610   1.574  1.5280 -0.7410  1.2570
 3690TIP3   OH211033   4.759   0.759   4.329 -0.7469  0.0363 -0.1052
 3690TIP3    H111034   4.754   0.852   4.349  0.9356 -0.2873  2.2810
 3690TIP3    H211035   4.668   0.729   4.333 -1.0532  1.0046  2.5653
 3691TIP3   OH211036   1.032   6.209   0.515  0.2332 -0.4151 -0.1740
 3691TIP3    H111037   1.061   6.120   0.493 -0.3734 -0.2423 -1.8175
 3691TIP3    H211038   1.013   6.249   0.430  0.3328  1.2418  0.5555
 3692TIP3   OH211039   5.195   6.567   0.663  0.0700  0.5446 -0.4790
 3692TIP3    H111040   5.238   6.644   0.624 -0.1722  1.0070  0.1440
 3692TIP3    H211041   5.264   6.501   0.667 -0.2374 -0.0175 -2.9769
 3693TIP3   OH211042   0.533   3.289   5.510 -0.5762 -0.0733  0.1190
 3693TIP3    H111043   0.497   3.290   5.421 -1.7135  0.3314  0.5707
 3693TIP3    H211044   0.468   3.241   5.561  0.7262 -1.5279  0.4793
 3694TIP3   OH211045   3.876   4.294   1.026 -0.6612 -0.2168  0.3054
 3694TIP3    H111046   3.831   4.357   1.082  0.2363  1.2725 -0.5596
 3694TIP3    H211047   3.950   4.264   1.078  0.1604  1.1440 -0.0291
 3695TIP3   OH211048   2.676   1.772   1.891  0.6433 -0.2074 -0.6362
 3695TIP3    H111049   2.675   1.790   1.797  0.6660 -0.3057 -0.6554
 3695TIP3    H211050   2.767   1.783   1.917  0.3802  1.4015 -0.3171
 3696TIP3   OH211051   5.062   6.094   1.696  0.9720 -0.1432  0.6292
 3696TIP3    H111052   5.090   6.137   1.777  1.3301  0.0669  0.3962
 3696TIP3    H211053   5.128   6.118   1.632  1.7693 -1.8961  0.7363
 3697TIP3   OH211054   0.121   4.654   3.948  0.0179  0.3896 -0.0229
 3697TIP3    H111055   0.042   4.670   3.895  0.3551 -0.0798 -0.6886
 3697TIP3    H211056   0.178   4.603   3.890  0.7896  0.6788  0.4705
 3698TIP3   OH211057   3.981   4.814   1.481 -0.2550 -0.1163 -0.0017
 3698TIP3    H111058   3.950   4.848   1.565  2.4896 -0.6262  1.3304
 3698TIP3    H211059   3.975   4.889   1.422  0.4237  1.1065  1.4193
 3699TIP3   OH211060   0.327   0.921   4.787  0.2891 -0.1945 -0.2160
 3699TIP3    H111061   0.267   0.888   4.719  0.5823  0.3596 -0.7537
 3699TIP3    H211062   0.347   1.011   4.760  0.3439  0.0586  0.6579
 3700TIP3   OH211063   4.855   4.078   0.646 -0.2402 -0.0309 -0.2557
 3700TIP3    H111064   4.900   4.114   0.722  0.3086 -0.8370 -0.1778
 3700TIP3    H211065   4.770   4.121   0.645 -0.3846 -0.2517  1.0106
 3701TIP3   OH211066   3.421   5.196   0.128  0.2461 -0.1458  0.3357
 3701TIP3    H111067   3.336   5.162   0.158  1.0166 -0.7065  2.0037
 3701TIP3    H211068   3.474   5.117   0.113  0.8090  0.2269  0.3402
 3702TIP3   OH211069   5.298   0.048   2.702  0.3311  0.1400 -0.1876
 3702TIP3    H111070   5.249   0.016   2.777 -0.7759 -0.0382 -0.9668
 3702TIP3    H211071   5.338   0.130   2.732 -3.3020  2.2273 -0.4980
 3703TIP3   OH211072   5.839   4.131   2.761  0.5754 -0.1934 -0.2804
 3703TIP3    H111073   5.844   4.223   2.736  1.0816  0.1046  0.8556
 3703TIP3    H211074   5.906   4.088   2.707 -0.3261 -0.0938 -1.5295
 3704TIP3   OH211075   2.820   3.799   0.843  0.3031 -0.2727  0.8491
 3704TIP3    H111076   2.880   3.767   0.777 -1.4211  0.5781 -1.2607
 3704TIP3    H211077   2.733   3.783   0.807 -0.7030  1.4434  2.2852
 3705TIP3   OH211078   1.398   6.329   2.718 -0.2550  0.0776 -0.6319
 3705TIP3    H111079   1.406   6.300   2.627 -1.3285  0.6811 -0.9264
 3705TIP3    H211080   1.367   6.252   2.765 -1.3574  0.2287 -1.0894
 3706TIP3   OH211081   6.673   3.255   2.280 -0.1959 -0.0321 -0.1750
 3706TIP3    H111082   6.681   3.341   2.322 -0.4365 -0.1842  0.1887
 3706TIP3    H211083   6.758   3.214   2.294 -0.2349 -0.0358  0.0643
 3707TIP3   OH211084   3.365   3.254   5.697 -0.2257 -0.1547 -0.3880
 3707TIP3    H111085   3.373   3.249   5.792  0.3383 -1.9125 -0.4938
 3707TIP3    H211086   3.381   3.165   5.666 -1.2277  0.1925 -2.0855
 3708TIP3   OH211087   2.516   1.862   2.466  0.0135 -0.4375  0.1027
 3708TIP3    H111088   2.494   1.876   2.374  0.6367 -0.7584 -0.1003
 3708TIP3    H211089   2.585   1.926   2.485 -0.5112  0.0180  0.5101
 3709TIP3   OH211090   6.056   5.788   5.773 -0.5278 -0.2917  0.5624
 3709TIP3    H111091   6.008   5.744   5.703  1.0856 -0.5266 -0.4347
 3709TIP3    H211092   6.070   5.719   5.839 -0.9663 -0.3895  0.5559
 3710TIP3   OH211093   2.598   1.048   3.573  0.0293 -0.0513  0.3065
 3710TIP3    H111094   2.624   1.110   3.506 -0.3460 -1.6466 -1.3938
 3710TIP3    H211095   2.506   1.067   3.591  0.1078  0.3180  0.3219
 3711TIP3   OH211096   6.769   1.737   2.484  0.2819  0.3966  0.2564
 3711TIP3    H111097   6.702   1.702   2.542 -0.2255  1.2504  0.2061
 3711TIP3    H211098   6.805   1.660   2.440 -1.2169 -0.0270 -0.2953
 3712TIP3   OH211099   6.136   3.202   2.044  0.0367 -0.4827  0.5694
 3712TIP3    H111100   6.126   3.144   2.120  1.2811  0.4003  1.4481
 3712TIP3    H211101   6.146   3.143   1.970 -0.0093 -1.3865  1.2642
 3713TIP3   OH211102   4.540   1.771   0.389 -0.3364  0.3604 -0.3212
 3713TIP3    H111103   4.605   1.716   0.434 -0.5599  0.7407  0.4868
 3713TIP3    H211104   4.458   1.724   0.398 -0.5501  0.8567  0.4707
 3714TIP3   OH211105   0.835   4.164   5.420  0.1126  0.4290  0.1519
 3714TIP3    H111106   0.745   4.137   5.398  0.1686  0.0897  0.3348
 3714TIP3    H211107   0.833   4.259   5.416  0.1541  0.3899 -1.4816
 3715TIP3   OH211108   4.213   5.381   2.534 -0.1635 -1.0288  0.3603
 3715TIP3    H111109   4.303   5.407   2.517 -1.2153  2.1823 -1.0380
 3715TIP3    H211110   4.168   5.397   2.451 -2.6297  0.6410  1.8921
 3716TIP3   OH211111   6.851   3.846   1.178 -0.3914  1.0909 -0.4582
 3716TIP3    H111112   6.765   3.874   1.210  0.0940  1.9583  0.1376
 3716TIP3    H211113   6.913   3.881   1.242  0.3080 -1.2044  0.2173
 3717TIP3   OH211114   6.845   1.818   4.667  0.1919 -0.0215  0.5128
 3717TIP3    H111115   6.843   1.794   4.760 -1.5379 -1.4842  0.1578
 3717TIP3    H211116   6.774   1.881   4.657  1.7505  1.8001  0.5486
 3718TIP3   OH211117   4.014   3.038   0.816 -0.4737 -0.6621  0.1181
 3718TIP3    H111118   3.962   3.059   0.893  0.2244 -0.8810  0.6544
 3718TIP3    H211119   3.987   2.950   0.792 -1.9935  0.0525 -0.9784
 3719TIP3   OH211120   6.426   1.452   5.843  0.1146  0.3043  0.1879
 3719TIP3    H111121   6.432   1.431   5.936  0.5214  0.4705  0.1999
 3719TIP3    H211122   6.483   1.528   5.831  1.2335 -0.5999 -0.4573
 3720TIP3   OH211123   7.113   5.863   4.046  0.8115  0.2440 -0.4473
 3720TIP3    H111124   7.044   5.830   4.103  0.4995  0.2678 -0.8118
 3720TIP3    H211125   7.194   5.847   4.095  0.7148 -1.4083 -0.7519
 3721TIP3   OH211126   2.686   3.652   0.502  0.3982 -0.1410  0.5698
 3721TIP3    H111127   2.640   3.569   0.518  2.4808 -1.6820 -0.9012
 3721TIP3    H211128   2.654   3.710   0.571 -1.7839 -1.8756  1.1529
 3722TIP3   OH211129   2.147   3.180   0.735 -0.1268 -0.6183 -0.2351
 3722TIP3    H111130   2.109   3.168   0.648  0.1358  0.3691 -0.5090
 3722TIP3    H211131   2.171   3.092   0.764  0.3185 -0.9133 -1.4146
 3723TIP3   OH211132   6.258   4.910   1.027 -0.5384 -0.2875  0.0429
 3723TIP3    H111133   6.271   4.833   1.082  0.1668 -0.4458 -0.3284
 3723TIP3    H211134   6.234   4.980   1.088 -2.1129 -0.9931  0.2909
 3724TIP3   OH211135   1.638   4.627   5.795  0.5099  0.2696  0.2324
 3724TIP3    H111136   1.567   4.603   5.855  0.5123  0.3686  0.2748
 3724TIP3    H211137   1.718   4.617   5.847  0.5227  0.2230  0.2045
 3725TIP3   OH211138   3.141   4.241   1.495 -0.4578 -0.1775 -0.2279
 3725TIP3    H111139   3.092   4.159   1.504  1.1025 -1.1442 -0.2545
 3725TIP3    H211140   3.213   4.220   1.435  0.4884  0.9659  0.4703
 3726TIP3   OH211141   0.159   0.977   5.115 -0.3940 -0.1830 -0.3621
 3726TIP3    H111142   0.250   0.977   5.087  0.1409 -0.7312  1.2564
 3726TIP3    H211143   0.136   1.069   5.124 -0.7265  0.0544 -2.8269
 3727TIP3   OH211144   1.928   6.141   5.752  0.1311 -0.0972  0.2501
 3727TIP3    H111145   1.883   6.216   5.713 -0.7286 -1.1991 -0.9348
 3727TIP3    H211146   1.862   6.098   5.806 -0.3514 -1.7793 -1.5746
 3728TIP3   OH211147   0.488   5.184   3.131  0.0123  0.0080  0.8100
 3728TIP3    H111148   0.458   5.099   3.099 -0.2412  0.3871  0.0238
 3728TIP3    H211149   0.573   5.197   3.089 -0.9101  1.1083 -0.8367
 3729TIP3   OH211150   0.870   5.317   2.456  0.3705 -0.3346 -0.3788
 3729TIP3    H111151   0.927   5.296   2.531 -0.0791  2.2792  0.8131
 3729TIP3    H211152   0.782   5.307   2.491  0.1560  0.3045 -0.7344
 3730TIP3   OH211153   7.192   0.768   5.152  0.6095 -0.4468 -0.4105
 3730TIP3    H111154   7.198   0.714   5.073 -2.4521  0.5628 -1.4534
 3730TIP3    H211155   7.233   0.851   5.128  1.4470 -0.7995 -0.2399
 3731TIP3   OH211156   6.411   5.958   4.885  0.0634 -0.9302  0.0551
 3731TIP3    H111157   6.463   5.932   4.809 -1.2638  0.2653 -1.3049
 3731TIP3    H211158   6.432   5.892   4.951  1.3745 -1.9090 -1.2684
 3732TIP3   OH211159   6.138   0.226   3.271  0.0271 -0.9116  0.0340
 3732TIP3    H111160   6.161   0.203   3.361  0.4284 -0.2186  0.1138
 3732TIP3    H211161   6.094   0.147   3.236 -0.8789 -0.8894  1.0876
 3733TIP3   OH211162   2.599   3.375   0.632  0.1282  0.3838  0.3949
 3733TIP3    H111163   2.555   3.379   0.547  1.3452  1.1556 -0.2214
 3733TIP3    H211164   2.620   3.282   0.644 -1.8055 -0.0631  0.8273
 3734TIP3   OH211165   0.909   5.228   0.368 -0.2414 -0.1996  0.3214
 3734TIP3    H111166   0.867   5.143   0.357 -0.4624 -0.1285  0.5833
 3734TIP3    H211167   0.995   5.208   0.406 -0.4199 -0.2883  0.6870
 3735TIP3   OH211168   1.523   3.544   0.956  0.2224 -0.6728 -0.4934
 3735TIP3    H111169   1.496   3.452   0.960 -0.3126 -0.4816  0.9470
 3735TIP3    H211170   1.536   3.569   1.047  1.9900  0.2302 -0.9397
 3736TIP3   OH211171   7.020   1.141   2.882  0.2694 -0.0943  0.2746
 3736TIP3    H111172   6.946   1.196   2.909  0.8539 -0.3323  2.6241
 3736TIP3    H211173   6.999   1.114   2.793 -1.3232  1.7528  0.0208
 3737TIP3   OH211174   1.656   0.616   4.733 -0.6108  0.7896 -0.5383
 3737TIP3    H111175   1.675   0.708   4.749  1.7693  0.4550 -1.0499
 3737TIP3    H211176   1.687   0.571   4.811  0.1940  0.2618 -1.1381
 3738TIP3   OH211177   2.235   4.513   4.755  0.0038  0.1798 -0.2376
 3738TIP3    H111178   2.184   4.588   4.725 -1.2788 -0.4720  0.2549
 3738TIP3    H211179   2.325   4.535   4.731  0.1305  3.1616  2.4010
 3739TIP3   OH211180   5.491   3.124   3.015 -0.3635 -0.4193 -0.0171
 3739TIP3    H111181   5.486   3.169   3.099 -0.2308  1.1342 -0.8049
 3739TIP3    H211182   5.400   3.098   2.997 -0.3852 -0.8071  0.6100
 3740TIP3   OH211183   1.745   5.862   5.653  0.1760  0.3904 -0.2850
 3740TIP3    H111184   1.738   5.922   5.728 -1.6601 -0.4066  0.2282
 3740TIP3    H211185   1.767   5.777   5.692 -0.1884  0.0980 -0.7100
 3741TIP3   OH211186   5.366   4.807   3.105  0.4551  0.0527 -0.4997
 3741TIP3    H111187   5.322   4.804   3.020 -0.2588  1.5534 -0.2257
 3741TIP3    H211188   5.455   4.835   3.085 -0.1084  1.8350 -0.6713
 3742TIP3   OH211189   5.850   4.356   0.597  0.1527 -0.1858  0.0352
 3742TIP3    H111190   5.857   4.450   0.579 -0.1602  0.0992  1.3177
 3742TIP3    H211191   5.819   4.319   0.514  0.1780  0.8511 -0.4631
 3743TIP3   OH211192   2.070   5.712   4.744 -0.3550  0.0601  0.0200
 3743TIP3    H111193   1.975   5.708   4.737 -0.3360  0.3516 -0.4885
 3743TIP3    H211194   2.092   5.802   4.719  0.0591 -0.0338  0.0390
 3744TIP3   OH211195   2.206   3.820   1.987  0.1650 -0.1864  0.1941
 3744TIP3    H111196   2.130   3.875   1.971 -1.0289 -1.6371  0.5812
 3744TIP3    H211197   2.280   3.868   1.951 -1.0913  0.7829 -1.1765
 3745TIP3   OH211198   0.849   2.876   1.656  0.1998 -0.2428 -0.5777
 3745TIP3    H111199   0.799   2.824   1.593  0.7527 -0.2844 -0.9942
 3745TIP3    H211200   0.798   2.873   1.736 -0.3135 -0.5303 -0.9102
 3746TIP3   OH211201   4.951   1.125   4.251 -0.3925 -0.1161  0.0793
 3746TIP3    H111202   4.919   1.215   4.242 -0.5585 -0.3190 -1.6384
 3746TIP3    H211203   4.871   1.072   4.252 -0.2605 -0.3144  0.1498
 3747TIP3   OH211204   5.828   3.753   0.598  0.5268 -0.3181  0.0510
 3747TIP3    H111205   5.821   3.764   0.503  0.7828  0.1524  0.0811
 3747TIP3    H211206   5.871   3.669   0.610 -0.2707 -0.7743 -0.2332
 3748TIP3   OH211207   6.355   4.028   0.129 -0.7463 -0.2248  0.2378
 3748TIP3    H111208   6.273   4.075   0.140 -0.9541 -0.3760 -0.5799
 3748TIP3    H211209   6.337   3.940   0.163 -0.7470 -0.0857  0.5929
 3749TIP3   OH211210   6.385   4.850   2.417  0.7018  1.0611 -0.0077
 3749TIP3    H111211   6.403   4.773   2.362  0.2117  1.7802 -1.2187
 3749TIP3    H211212   6.353   4.813   2.499 -1.5351 -0.0565 -1.2786
 3750TIP3   OH211213   6.981   0.361   3.853 -0.2340  0.5860 -0.1907
 3750TIP3    H111214   6.996   0.331   3.763 -0.6140  1.0145 -0.3953
 3750TIP3    H211215   6.986   0.456   3.848  0.3916  0.5894  0.3630
 3751TIP3   OH211216   4.744   4.638   5.779  0.3343 -0.6462  0.0485
 3751TIP3    H111217   4.793   4.675   5.706 -1.1898 -0.4951 -0.9482
 3751TIP3    H211218   4.723   4.714   5.835  0.0676 -0.4919 -0.2539
 3752TIP3   OH211219   1.079   5.744   3.565  0.1631 -0.5642  0.0136
 3752TIP3    H111220   0.990   5.766   3.538  0.5329  0.1537 -0.6516
 3752TIP3    H211221   1.092   5.791   3.648  1.2731  2.6928 -1.8479
 3753TIP3   OH211222   1.787   0.476   4.947 -0.0290  0.1398  0.1282
 3753TIP3    H111223   1.769   0.537   5.019  0.5257  0.3439  0.1007
 3753TIP3    H211224   1.872   0.438   4.969  0.5189  0.7804 -0.8086
 3754TIP3   OH211225   4.899   1.635   2.037 -0.1858  0.2938 -0.2986
 3754TIP3    H111226   4.851   1.555   2.016 -1.8181  0.6313  1.7993
 3754TIP3    H211227   4.961   1.608   2.105  0.0393  0.5930 -0.3838
 3755TIP3   OH211228   6.979   1.318   4.666  0.5637 -0.6835 -0.1134
 3755TIP3    H111229   7.022   1.357   4.591  2.5124 -1.5902  0.4676
 3755TIP3    H211230   6.901   1.372   4.680  0.5954 -0.0010 -2.2370
 3756TIP3   OH211231   1.461   2.199   2.910  0.2207  0.4745  0.1500
 3756TIP3    H111232   1.468   2.294   2.898  1.0826  0.2027 -1.9365
 3756TIP3    H211233   1.509   2.182   2.991  0.3398  1.7752  0.3781
 3757TIP3   OH211234   1.836   6.607   5.012 -0.0197  0.2643 -0.0927
 3757TIP3    H111235   1.916   6.635   5.056  0.9350 -1.6949 -0.4787
 3757TIP3    H211236   1.783   6.687   5.006  0.6469  1.0431  2.7389
 3758TIP3   OH211237   0.011   2.841   2.676  0.1370  0.7581 -0.2253
 3758TIP3    H111238   0.024   2.765   2.734 -0.0541 -0.0969 -1.2653
 3758TIP3    H211239  -0.006   2.802   2.590  0.4279  2.0024 -0.8622
 3759TIP3   OH211240   0.016   5.476   1.616  0.1970 -0.0737  0.4093
 3759TIP3    H111241  -0.039   5.434   1.682  0.5033 -0.6343  0.3080
 3759TIP3    H211242   0.105   5.471   1.652  0.2348  0.5387  0.4224
 3760TIP3   OH211243   4.474   5.870   0.253  0.3982  0.1381 -0.4321
 3760TIP3    H111244   4.532   5.796   0.270 -1.3062 -0.9759  0.7970
 3760TIP3    H211245   4.407   5.836   0.195  0.6917  1.3013 -1.5013
 3761TIP3   OH211246   4.092   3.953   3.924  0.1050 -0.5853  0.5263
 3761TIP3    H111247   4.028   3.893   3.961 -0.0952 -2.1938 -2.1350
 3761TIP3    H211248   4.056   4.041   3.941 -2.7847 -1.4030 -0.6844
 3762TIP3   OH211249   3.853   5.878   3.005  0.3493 -0.5310  0.0153
 3762TIP3    H111250   3.835   5.960   2.960 -1.8921 -0.6131  0.6600
 3762TIP3    H211251   3.868   5.903   3.096  0.7441 -0.7494  0.0126
 3763TIP3   OH211252   5.280   1.889   0.059 -0.0448  0.0028  0.2935
 3763TIP3    H111253   5.316   1.965   0.105  1.3075 -1.9555  2.7583
 3763TIP3    H211254   5.347   1.867  -0.006 -0.3116  0.7380 -0.2363
 3764TIP3   OH211255   0.249   4.507   5.512  0.2534 -0.0074  0.3550
 3764TIP3    H111256   0.163   4.469   5.531 -0.0250  1.1480  1.5566
 3764TIP3    H211257   0.305   4.475   5.583  0.9357 -1.0227 -0.5973
 3765TIP3   OH211258   3.698   2.741   0.949  0.1387 -0.3661 -0.3662
 3765TIP3    H111259   3.703   2.646   0.960 -1.3059 -0.4818 -0.5195
 3765TIP3    H211260   3.780   2.765   0.906  0.3325 -1.5992 -0.7080
 3766TIP3   OH211261   1.378   6.225   3.036 -0.0142  0.3684  0.3931
 3766TIP3    H111262   1.430   6.250   2.959  1.0058 -0.2187  0.8830
 3766TIP3    H211263   1.321   6.155   3.004 -0.9148  1.3660 -0.2765
 3767TIP3   OH211264   0.811   5.793   3.734 -0.2989  0.0634 -0.0444
 3767TIP3    H111265   0.774   5.729   3.796 -1.6268 -1.3772 -2.1959
 3767TIP3    H211266   0.888   5.827   3.779 -0.4520 -1.8599  1.8726
 3768TIP3   OH211267   3.220   1.845   1.895 -0.4535 -0.6081  0.1102
 3768TIP3    H111268   3.311   1.865   1.914 -0.9577  0.7474  1.2705
 3768TIP3    H211269   3.218   1.830   1.800  0.6423  1.3361 -0.2778
 3769TIP3   OH211270   1.529   2.769   1.529  0.2830  0.2780 -0.3996
 3769TIP3    H111271   1.623   2.785   1.516 -0.0604  1.6320 -1.5777
 3769TIP3    H211272   1.501   2.837   1.590  0.3436 -1.1735  1.3328
 3770TIP3   OH211273   2.429   2.812   3.230 -0.0602  1.2164 -0.4260
 3770TIP3    H111274   2.465   2.800   3.318 -1.4007  2.0417  0.2832
 3770TIP3    H211275   2.346   2.765   3.232  0.4478  0.2326 -1.6657
 3771TIP3   OH211276   2.202   5.609   4.104  0.1606 -0.4925 -0.6498
 3771TIP3    H111277   2.293   5.621   4.130  0.4327 -2.1150 -0.7798
 3771TIP3    H211278   2.166   5.698   4.102  1.9402  0.2544 -1.3919
 3772TIP3   OH211279   0.472   4.504   2.931  0.2332  0.3983 -0.2801
 3772TIP3    H111280   0.514   4.421   2.907  0.2357  0.8399 -1.9121
 3772TIP3    H211281   0.543   4.568   2.931  0.1153  0.5339  0.3015
 3773TIP3   OH211282   0.446   1.036   5.018 -0.2553  0.1083 -0.1064
 3773TIP3    H111283   0.396   0.988   4.952 -1.1827  1.2226 -0.2503
 3773TIP3    H211284   0.532   0.994   5.018 -0.9702 -1.4453 -0.3169
 3774TIP3   OH211285   4.641   3.504   3.073 -0.3286  0.1855 -0.0614
 3774TIP3    H111286   4.633   3.411   3.094  2.0065  0.1198  0.8061
 3774TIP3    H211287   4.560   3.543   3.105 -0.4144 -1.2127  1.5504
 3775TIP3   OH211288   2.383   3.830   4.515 -0.0001 -0.3068  0.1321
 3775TIP3    H111289   2.381   3.797   4.425  1.6749 -0.2861  0.0569
 3775TIP3    H211290   2.393   3.925   4.506  0.0003 -0.2863  0.3352
 3776TIP3   OH211291   1.848   4.041   3.385  0.1984  0.6850  0.2806
 3776TIP3    H111292   1.874   4.132   3.371  0.7681  1.2620  3.8940
 3776TIP3    H211293   1.907   3.990   3.329  0.8214  2.4858 -0.7642
 3777TIP3   OH211294   4.238   4.970   1.387 -0.3053  0.2942 -0.3683
 3777TIP3    H111295   4.330   4.999   1.388 -0.6928  1.5731  0.5810
 3777TIP3    H211296   4.221   4.945   1.478 -1.0079  0.4246 -0.4655
 3778TIP3   OH211297   3.734   0.981   4.582  0.0049  0.2725  0.2099
 3778TIP3    H111298   3.698   0.897   4.613 -2.7249  2.0057  2.2183
 3778TIP3    H211299   3.804   1.001   4.644  0.4319 -0.3031 -0.0673
 3779TIP3   OH211300   4.605   0.639   1.507 -0.3403  0.2231  0.0317
 3779TIP3    H111301   4.605   0.734   1.496 -0.2206  0.3225  0.8499
 3779TIP3    H211302   4.683   0.610   1.459  0.4280  0.6965  0.9480
 3780TIP3   OH211303   5.962   0.940   1.823  0.2297 -0.1850 -0.2217
 3780TIP3    H111304   5.920   0.903   1.900 -0.1157 -0.6789 -0.6389
 3780TIP3    H211305   6.056   0.930   1.840  0.1775  0.4405  0.4799
 3781TIP3   OH211306   0.533   5.254   1.864  0.2255  0.5504  0.3330
 3781TIP3    H111307   0.587   5.332   1.850  0.5003  0.2475 -0.3805
 3781TIP3    H211308   0.582   5.203   1.928  0.3810  0.6566  0.3012
 3782TIP3   OH211309   7.128   2.071   0.885  0.3042 -0.1295 -0.1352
 3782TIP3    H111310   7.074   2.134   0.835  1.0206  0.4247 -0.2281
 3782TIP3    H211311   7.175   2.126   0.948  1.6097 -0.4521 -0.8011
 3783TIP3   OH211312   1.370   3.450   3.901 -0.4201  0.2061 -0.3296
 3783TIP3    H111313   1.398   3.490   3.984  1.8586 -2.0942  0.1402
 3783TIP3    H211314   1.275   3.457   3.902 -0.4135  0.9220  2.1604
 3784TIP3   OH211315   0.101   1.556   1.001  0.4756 -0.5748  0.0560
 3784TIP3    H111316   0.123   1.583   0.912 -0.2332  0.6234  0.2345
 3784TIP3    H211317   0.068   1.635   1.043 -3.9103 -2.0633 -0.0952
 3785TIP3   OH211318   6.728   3.516   0.789  0.0080 -0.0701  0.0462
 3785TIP3    H111319   6.816   3.548   0.808 -0.5670 -0.3896  4.3466
 3785TIP3    H211320   6.670   3.577   0.836 -1.9407 -0.9301 -1.1319
 3786TIP3   OH211321   5.506   3.573   0.528  0.3933 -0.1576 -0.4888
 3786TIP3    H111322   5.576   3.602   0.470 -0.0617  0.3016 -0.8199
 3786TIP3    H211323   5.518   3.626   0.607  1.7103 -1.5962  0.3100
 3787TIP3   OH211324   5.572   2.305   1.470 -0.1440  0.1566 -0.3822
 3787TIP3    H111325   5.480   2.310   1.494  0.2563 -1.6857  1.8462
 3787TIP3    H211326   5.606   2.393   1.486 -1.4983  0.8779 -1.3274
 3788TIP3   OH211327   1.760   2.299   0.349 -0.2929 -0.1633  0.3677
 3788TIP3    H111328   1.765   2.282   0.255 -1.8073 -1.7309  0.5174
 3788TIP3    H211329   1.710   2.380   0.356 -0.4218 -0.1942 -0.1689
 3789TIP3   OH211330   1.020   6.489   4.509  0.0873  0.4085  0.1425
 3789TIP3    H111331   0.966   6.539   4.448  0.8764  0.3998 -0.5793
 3789TIP3    H211332   0.964   6.417   4.537  0.2685 -0.6579 -2.0019
 3790TIP3   OH211333   4.249   3.516   2.672  0.1198 -1.1321  0.2505
 3790TIP3    H111334   4.183   3.483   2.734 -0.1010 -2.2345 -0.5386
 3790TIP3    H211335   4.214   3.494   2.586 -0.1306  1.4140 -0.3731
 3791TIP3   OH211336   4.617   3.787   3.978  0.0888 -0.2121  0.7886
 3791TIP3    H111337   4.523   3.770   3.975  0.1992 -0.7205 -1.1596
 3791TIP3    H211338   4.645   3.752   4.062 -1.0635 -2.5101  0.3086
 3792TIP3   OH211339   0.669   1.889   2.697 -0.6152 -0.1225  0.0370
 3792TIP3    H111340   0.657   1.806   2.651  1.5253 -0.3110 -0.3193
 3792TIP3    H211341   0.717   1.865   2.777 -2.1450  0.4986  1.1804
 3793TIP3   OH211342   4.478   5.216   3.444  0.2742  0.0805 -0.3176
 3793TIP3    H111343   4.528   5.135   3.440  0.6588  0.2095  1.1684
 3793TIP3    H211344   4.544   5.285   3.444  0.0682  0.2942  0.5043
 3794TIP3   OH211345   4.099   5.335   0.889 -0.3048 -0.2216  0.2595
 3794TIP3    H111346   4.170   5.306   0.946  1.0849  1.0258 -0.7750
 3794TIP3    H211347   4.057   5.406   0.939  0.4439  0.3718  0.0682
 3795TIP3   OH211348   5.511   4.941   0.125 -0.3178 -0.0087 -0.2866
 3795TIP3    H111349   5.522   4.885   0.202 -1.3418 -0.1163 -0.1982
 3795TIP3    H211350   5.599   4.952   0.090  0.0054 -0.9485  0.2083
 3796TIP3   OH211351   6.720  -0.004   5.472 -0.3786 -0.0069  0.4326
 3796TIP3    H111352   6.686   0.044   5.396  1.1257 -0.4344 -0.5655
 3796TIP3    H211353   6.642  -0.035   5.517 -1.3280  0.3255 -0.9066
 3797TIP3   OH211354   3.740   1.676   2.468  0.2882  0.1508 -0.0139
 3797TIP3    H111355   3.762   1.584   2.459  0.8724  0.2770  0.0218
 3797TIP3    H211356   3.825   1.721   2.466 -0.0115  0.7187 -0.4358
 3798TIP3   OH211357   5.554   3.185   1.747 -0.5859  0.3468 -0.2103
 3798TIP3    H111358   5.501   3.135   1.808 -0.0349  0.4477  0.3636
 3798TIP3    H211359   5.636   3.135   1.741 -0.7209  0.2084 -1.0589
 3799TIP3   OH211360   5.299   4.811   0.797  0.0143  0.0935 -0.3177
 3799TIP3    H111361   5.334   4.860   0.723  0.8416  1.1456  0.7424
 3799TIP3    H211362   5.371   4.807   0.860 -0.1903 -2.0463 -0.1339
 3800TIP3   OH211363   6.606   4.286   2.722 -0.6384  0.5032 -0.0509
 3800TIP3    H111364   6.581   4.378   2.730 -1.4672  0.2836  0.0347
 3800TIP3    H211365   6.532   4.246   2.675  0.1314  0.0625 -0.9296
 3801TIP3   OH211366   3.600   4.021   0.628  0.1407  0.1325  0.0276
 3801TIP3    H111367   3.650   3.983   0.700  0.5218  0.0581 -0.2697
 3801TIP3    H211368   3.553   3.947   0.590 -0.4596  0.2578  0.5106
 3802TIP3   OH211369   1.271   2.658   3.453  0.7907 -0.6112 -0.5477
 3802TIP3    H111370   1.240   2.721   3.388  0.9321 -1.9743 -1.9733
 3802TIP3    H211371   1.195   2.643   3.509  0.7918  0.8985 -0.0828
 3803TIP3   OH211372   0.413   1.006   3.111 -0.4179  0.2284  0.1805
 3803TIP3    H111373   0.408   0.926   3.162 -0.7006  0.0383 -0.1413
 3803TIP3    H211374   0.349   1.065   3.150 -0.2175  0.2954  0.4102
 3804TIP3   OH211375   3.358   5.921   1.411  0.0404  0.1174  0.7341
 3804TIP3    H111376   3.387   5.830   1.416 -0.0733  0.0588  0.3768
 3804TIP3    H211377   3.296   5.931   1.484  0.5330  0.0915  1.1640
 3805TIP3   OH211378   0.806   2.001   3.904  0.0345  0.2698  0.2076
 3805TIP3    H111379   0.766   2.063   3.965  0.0603 -0.8908  1.4412
 3805TIP3    H211380   0.736   1.979   3.842 -0.6363 -0.1632  1.1024
 3806TIP3   OH211381   4.346   1.760   3.508  0.0070  0.6863 -0.2898
 3806TIP3    H111382   4.430   1.806   3.518  0.3602  0.0501 -0.3234
 3806TIP3    H211383   4.370   1.669   3.495 -0.7483 -0.1259  3.1603
 3807TIP3   OH211384   4.333   5.050   2.772 -0.1677  0.2993  0.5390
 3807TIP3    H111385   4.344   5.144   2.759  0.6180  0.3360  1.3260
 3807TIP3    H211386   4.342   5.038   2.866 -0.7280 -0.5121  0.4971
 3808TIP3   OH211387   0.785   4.820   5.365  0.3193  0.6345  0.0852
 3808TIP3    H111388   0.764   4.913   5.355  1.4601  1.3230  2.9933
 3808TIP3    H211389   0.864   4.820   5.419  0.0363 -2.0629  0.6069
 3809TIP3   OH211390   1.456   4.515   0.637  0.1857 -0.4869 -0.4778
 3809TIP3    H111391   1.483   4.456   0.708 -0.6223 -0.0584  0.1973
 3809TIP3    H211392   1.361   4.518   0.643  0.1705  0.3025 -0.9830
 3810TIP3   OH211393   3.372   4.721   4.112 -0.0553  0.2722  0.3014
 3810TIP3    H111394   3.401   4.701   4.201 -0.1429 -3.0497 -0.2946
 3810TIP3    H211395   3.420   4.659   4.056 -0.1907  2.0784 -1.9848
 3811TIP3   OH211396   1.805   2.644   3.603 -0.3778 -0.5196  0.2247
 3811TIP3    H111397   1.823   2.552   3.624 -0.3442 -0.5804 -0.0629
 3811TIP3    H211398   1.710   2.651   3.609 -0.2961 -0.2434  1.5565
 3812TIP3   OH211399   6.130   2.630   5.809 -0.0145  0.0555 -0.4386
 3812TIP3    H111400   6.158   2.581   5.886  2.2499  0.6730 -0.7990
 3812TIP3    H211401   6.035   2.634   5.817  0.0409 -1.0977  1.5717
 3813TIP3   OH211402   4.783   4.162   1.711  0.0728 -0.7108  0.0720
 3813TIP3    H111403   4.731   4.089   1.746 -1.7045 -0.4271 -1.8173
 3813TIP3    H211404   4.719   4.225   1.681  1.3955 -0.8308 -3.4505
 3814TIP3   OH211405   6.004   2.933   4.954  0.1000 -0.5924  0.6325
 3814TIP3    H111406   5.920   2.935   4.909 -0.8914  2.6784  2.3501
 3814TIP3    H211407   6.056   3.001   4.910  0.9977 -0.9743  1.0803
 3815TIP3   OH211408   1.749   2.613   1.755  1.1003  0.4217 -0.2853
 3815TIP3    H111409   1.796   2.547   1.704 -1.1472 -0.2941 -1.5830
 3815TIP3    H211410   1.658   2.582   1.756  0.5920  1.7650  2.0197
 3816TIP3   OH211411   2.617   5.244   3.252 -0.3922  0.4370 -0.0071
 3816TIP3    H111412   2.558   5.300   3.201 -1.1927  0.6105  1.0856
 3816TIP3    H211413   2.697   5.296   3.261  0.5766 -0.3690 -2.7626
 3817TIP3   OH211414   2.947   3.221   0.749 -0.5238  0.3726 -0.0284
 3817TIP3    H111415   2.982   3.190   0.832 -0.0665 -0.1023 -0.3933
 3817TIP3    H211416   2.912   3.143   0.706 -1.5466  0.7581  0.0924
 3818TIP3   OH211417   6.700   1.935   2.291 -0.0116  0.0515 -0.3946
 3818TIP3    H111418   6.757   2.004   2.255  0.6953 -1.0902 -1.5655
 3818TIP3    H211419   6.757   1.884   2.348 -0.6422  0.6645  0.8119
 3819TIP3   OH211420   6.372   1.344   4.630 -0.0171 -0.2538  0.2690
 3819TIP3    H111421   6.380   1.417   4.691  0.6596 -0.5208  0.5123
 3819TIP3    H211422   6.281   1.315   4.638 -0.7854  1.5744 -1.0048
 3820TIP3   OH211423   5.498   2.599   5.095  0.2235  0.3782 -0.0470
 3820TIP3    H111424   5.516   2.507   5.078 -0.1295 -0.1775  2.2659
 3820TIP3    H211425   5.544   2.646   5.026  0.9470 -1.4943 -0.8865
 3821TIP3   OH211426   1.969   0.750   3.879  0.0856  0.1850 -0.8995
 3821TIP3    H111427   1.889   0.697   3.877  0.2041  0.0114 -1.0863
 3821TIP3    H211428   2.002   0.739   3.969 -2.1798  3.3973  0.5285
 3822TIP3   OH211429   1.816   1.645   4.850  0.1768 -0.0040 -0.1724
 3822TIP3    H111430   1.740   1.655   4.907  2.4758  1.4196  2.9450
 3822TIP3    H211431   1.828   1.731   4.811  0.2950 -0.1668 -0.4973
 3823TIP3   OH211432   4.763   5.859   4.873 -0.2966  0.2413  0.1733
 3823TIP3    H111433   4.734   5.910   4.797 -0.2083 -0.5163 -0.3761
 3823TIP3    H211434   4.709   5.891   4.945  1.3803  2.8612  0.4152
 3824TIP3   OH211435   0.310   2.362   4.321  0.3625 -0.4373 -0.2025
 3824TIP3    H111436   0.352   2.277   4.325 -0.2378 -0.7032  1.7072
 3824TIP3    H211437   0.372   2.422   4.362  1.0687  0.2208 -2.1267
 3825TIP3   OH211438   0.340   1.753   5.712  0.0821 -0.0563  0.4623
 3825TIP3    H111439   0.245   1.755   5.701  0.1258  0.7419  0.1982
 3825TIP3    H211440   0.363   1.840   5.745  0.6708 -0.3949  0.9747
 3826TIP3   OH211441   7.052   3.938   4.663 -0.5180  0.0630  0.1664
 3826TIP3    H111442   6.999   3.868   4.625 -3.7890  1.7931  1.1816
 3826TIP3    H211443   7.056   3.917   4.756  0.9188 -0.1713  0.0797
 3827TIP3   OH211444   5.335   3.689   0.216 -0.3442  0.4958 -0.0930
 3827TIP3    H111445   5.411   3.670   0.162  0.0826 -0.2551  0.7636
 3827TIP3    H211446   5.351   3.777   0.249  0.1229  0.3628  0.0391
 3828TIP3   OH211447   3.303   0.359   3.388 -0.4207  0.3435  0.0223
 3828TIP3    H111448   3.215   0.398   3.384 -1.3294 -1.3792  1.6615
 3828TIP3    H211449   3.292   0.281   3.443  2.1995  0.2158  0.4740
 3829TIP3   OH211450   4.339   2.158   2.813  0.1734 -0.0782 -0.6808
 3829TIP3    H111451   4.351   2.143   2.719  1.9031 -0.7819 -0.3868
 3829TIP3    H211452   4.320   2.072   2.849 -0.8957  0.2533 -0.4182
 3830TIP3   OH211453   5.792   0.052   4.031 -0.1410  0.1832 -0.9100
 3830TIP3    H111454   5.753   0.109   4.097  4.2842  2.5143  0.1594
 3830TIP3    H211455   5.826   0.113   3.964 -0.3559 -1.7443 -2.8919
 3831TIP3   OH211456   5.457   3.663   3.108 -0.6093 -0.5012 -0.4207
 3831TIP3    H111457   5.426   3.674   3.018  0.2056  0.9065 -0.5556
 3831TIP3    H211458   5.550   3.686   3.104 -0.4332 -0.9625  0.6873
 3832TIP3   OH211459   2.477   2.310   0.967 -0.9481  0.0744  0.6213
 3832TIP3    H111460   2.460   2.403   0.979  1.8316  0.8666 -0.8296
 3832TIP3    H211461   2.464   2.294   0.874 -0.3852 -0.7306  0.6603
 3833TIP3   OH211462   7.039   2.797   3.511  0.3259 -0.0033 -0.1303
 3833TIP3    H111463   7.106   2.852   3.473  0.6465 -0.0657  0.3360
 3833TIP3    H211464   7.087   2.723   3.549 -0.0171 -0.1467  0.0333
 3834TIP3   OH211465   0.795   4.442   3.342 -0.1808 -0.7242 -0.1588
 3834TIP3    H111466   0.871   4.421   3.288 -0.0400 -0.0726 -0.2212
 3834TIP3    H211467   0.721   4.399   3.299  0.2050 -1.6492  0.0948
 3835TIP3   OH211468   2.027   4.770   4.970  0.1825 -0.7813 -0.2616
 3835TIP3    H111469   2.019   4.863   4.947  0.0767 -0.1774  1.9673
 3835TIP3    H211470   1.948   4.730   4.936 -0.1443  0.1102 -0.5853
 3836TIP3   OH211471   3.939   6.649   2.835 -0.3947  0.3329  0.2632
 3836TIP3    H111472   3.912   6.739   2.851  0.2497  0.5405  0.2117
 3836TIP3    H211473   3.857   6.599   2.831 -0.7328  0.8464  0.7068
 3837TIP3   OH211474   1.369   6.029   4.056 -0.4799 -0.3968  0.1397
 3837TIP3    H111475   1.285   6.015   4.100  0.1839  0.1700  1.6661
 3837TIP3    H211476   1.388   5.946   4.014 -2.5113 -0.0890 -1.5566
 3838TIP3   OH211477   2.045   1.320   0.671  0.8433 -0.4131  0.0411
 3838TIP3    H111478   2.038   1.229   0.642  0.2967 -0.2375 -0.3928
 3838TIP3    H211479   2.106   1.360   0.609  0.0703 -0.1654 -0.5779
 3839TIP3   OH211480   0.983   1.972   5.807 -0.0162 -0.2283  0.0724
 3839TIP3    H111481   1.024   1.942   5.726 -0.9201 -0.0112 -0.4833
 3839TIP3    H211482   0.998   1.901   5.870  0.0683 -0.7156 -0.4909
 3840TIP3   OH211483   3.963   4.119   0.218  0.0255  0.1836 -0.0281
 3840TIP3    H111484   3.954   4.051   0.153  0.0178  0.4701 -0.3291
 3840TIP3    H211485   3.968   4.072   0.302 -1.5194 -0.1224 -0.0830
 3841TIP3   OH211486   3.452   2.420   0.792  0.0005  0.1533  0.4997
 3841TIP3    H111487   3.500   2.346   0.828  0.2419  0.7389  1.4204
 3841TIP3    H211488   3.503   2.497   0.818  0.1315  0.6153 -1.0407
 3842TIP3   OH211489   4.181   2.550   4.089 -0.3457 -0.3965 -0.1770
 3842TIP3    H111490   4.230   2.471   4.110  2.2267  1.0407 -0.3674
 3842TIP3    H211491   4.162   2.541   3.995 -0.8391 -1.1502 -0.0157
 3843TIP3   OH211492   2.353   5.987   4.902 -0.6055  0.1503  0.6481
 3843TIP3    H111493   2.380   5.921   4.965 -1.9546 -1.4790 -0.3841
 3843TIP3    H211494   2.360   5.944   4.817 -5.0957 -0.1277  0.1664
 3844TIP3   OH211495   0.178   3.518   0.311  0.4616  0.0662 -0.0108
 3844TIP3    H111496   0.220   3.600   0.285  0.3545  0.7526  1.8534
 3844TIP3    H211497   0.097   3.544   0.354  1.1493 -0.8821  1.9987
 3845TIP3   OH211498   4.494   2.347   1.586 -0.9865 -0.4609 -0.2281
 3845TIP3    H111499   4.419   2.322   1.532 -0.6718 -1.0430 -0.3971
 3845TIP3    H211500   4.478   2.305   1.671 -2.0543  1.3613  0.5430
 3846TIP3   OH211501   0.250   4.470   3.798 -0.4026  0.1696  0.4185
 3846TIP3    H111502   0.341   4.450   3.776 -0.2279  3.0610 -2.3229
 3846TIP3    H211503   0.199   4.404   3.751  0.2761  0.4548 -0.7693
 3847TIP3   OH211504   2.338   5.464   1.953 -0.5217 -0.0128 -0.2651
 3847TIP3    H111505   2.322   5.384   1.901 -0.0626  0.7185 -1.5756
 3847TIP3    H211506   2.362   5.530   1.888 -0.0608  0.9844  0.8899
 3848TIP3   OH211507   2.437   0.874   1.935  0.1356 -0.2795 -0.0177
 3848TIP3    H111508   2.489   0.946   1.899  1.5271 -1.4955 -0.5476
 3848TIP3    H211509   2.451   0.879   2.029 -0.4153  0.6008  0.0303
 3849TIP3   OH211510   2.254   5.646   5.824  0.2369  0.1577  0.0435
 3849TIP3    H111511   2.344   5.671   5.847 -0.1479  2.5350 -0.7447
 3849TIP3    H211512   2.262   5.603   5.739  0.7219 -0.5488  0.4393
 3850TIP3   OH211513   7.046   5.339   4.012 -0.4118  0.6664 -0.1296
 3850TIP3    H111514   7.064   5.303   4.099  1.6777  0.5565 -0.5677
 3850TIP3    H211515   7.091   5.280   3.952 -0.2975  1.7639 -1.1522
 3851TIP3   OH211516   1.987   0.982   2.125  0.7702  0.3927  0.9681
 3851TIP3    H111517   2.021   0.989   2.036  0.5918 -1.1210  0.7544
 3851TIP3    H211518   2.053   0.932   2.173  1.1546  1.7009  1.8780
 3852TIP3   OH211519   2.234   5.576   2.757 -0.1647 -0.3603  0.4683
 3852TIP3    H111520   2.275   5.568   2.843 -0.2183  0.0829  0.5351
 3852TIP3    H211521   2.298   5.622   2.703 -0.5783  0.3572  0.5805
 3853TIP3   OH211522   6.404   6.540   5.604 -0.5780 -0.1975 -0.0507
 3853TIP3    H111523   6.495   6.515   5.584 -0.8093 -1.1792  0.0444
 3853TIP3    H211524   6.365   6.557   5.518 -0.4510 -0.3376 -0.1386
 3854TIP3   OH211525   3.118   5.828   0.275 -0.0674  0.1553  0.0644
 3854TIP3    H111526   3.196   5.874   0.307 -0.3047  0.9398 -0.4518
 3854TIP3    H211527   3.128   5.828   0.180  0.1934 -1.3638  0.0739
 3855TIP3   OH211528   6.015   3.389   0.354  0.1312 -0.3775 -0.1514
 3855TIP3    H111529   5.950   3.342   0.303  0.6206 -1.0260 -0.1928
 3855TIP3    H211530   6.085   3.408   0.291  0.5486 -0.8101  0.1780
 3856TIP3   OH211531   1.364   1.491   1.304  0.6076 -0.4210 -0.1206
 3856TIP3    H111532   1.276   1.471   1.272  1.7620 -2.3056 -2.4413
 3856TIP3    H211533   1.375   1.435   1.381 -0.6250  0.8249  1.0295
 3857TIP3   OH211534   6.990   5.756   0.842 -0.1074 -0.2338  0.0591
 3857TIP3    H111535   7.068   5.757   0.898 -0.4151  0.5813  0.4944
 3857TIP3    H211536   6.917   5.771   0.903 -0.4728  0.3874 -0.5191
 3858TIP3   OH211537   3.368   4.566   1.953 -0.0803  0.2319 -0.1601
 3858TIP3    H111538   3.316   4.486   1.954  0.5443 -0.4105 -4.0053
 3858TIP3    H211539   3.373   4.591   1.860  1.5956  3.5277  0.6356
 3859TIP3   OH211540   5.838   0.618   3.919  0.3040 -0.4109 -0.2472
 3859TIP3    H111541   5.751   0.616   3.958 -0.4234  1.1417 -1.6499
 3859TIP3    H211542   5.825   0.662   3.835  2.6566  1.0485  0.0708
 3860TIP3   OH211543   1.253   1.117   1.120 -0.7818  0.0589 -0.0200
 3860TIP3    H111544   1.212   1.203   1.110 -2.0755 -0.5130  0.2276
 3860TIP3    H211545   1.181   1.055   1.117 -0.0776 -0.9013  1.7008
 3861TIP3   OH211546   2.828   5.265   4.566 -0.3567  0.2351  0.2431
 3861TIP3    H111547   2.733   5.260   4.556 -0.6498  1.1464  2.1783
 3861TIP3    H211548   2.848   5.357   4.550  0.4650 -0.2236 -1.7167
 3862TIP3   OH211549   6.815   2.569   5.237  0.1791 -1.0562 -0.3979
 3862TIP3    H111550   6.799   2.533   5.150  0.6075 -1.0909 -0.4608
 3862TIP3    H211551   6.739   2.540   5.289 -0.1989 -0.8278 -0.8163
 3863TIP3   OH211552   5.770   3.328   2.964  0.3031  0.0040  0.5476
 3863TIP3    H111553   5.807   3.403   2.916  3.4584  0.9342  3.9561
 3863TIP3    H211554   5.676   3.344   2.964  0.4825  1.7882 -2.1504
 3864TIP3   OH211555   1.085   2.191   3.430  0.3033  0.4969 -0.4043
 3864TIP3    H111556   1.166   2.207   3.383  0.4233  1.0423 -0.0165
 3864TIP3    H211557   1.110   2.132   3.501  0.3068  0.4483 -0.4458
 3865TIP3   OH211558   4.332   2.487   3.314 -0.1202  0.2330 -0.3400
 3865TIP3    H111559   4.346   2.491   3.220  1.7755 -0.7655 -0.1452
 3865TIP3    H211560   4.399   2.543   3.352 -0.1610 -0.2280  0.4510
 3866TIP3   OH211561   4.476   0.177   0.592  0.4717  0.4117  0.2108
 3866TIP3    H111562   4.386   0.144   0.580  0.2239  1.3575 -0.6342
 3866TIP3    H211563   4.520   0.155   0.510  1.2951 -0.8309  0.9457
 3867TIP3   OH211564   7.129   4.634   1.697  0.6400 -0.4666  0.1906
 3867TIP3    H111565   7.123   4.538   1.691  0.1137 -0.4512  0.3859
 3867TIP3    H211566   7.065   4.666   1.633  0.2528 -0.2538  0.6776
 3868TIP3   OH211567   6.337   3.129   3.598  0.5879 -0.2032 -0.2129
 3868TIP3    H111568   6.323   3.109   3.690 -0.0846 -2.0688 -0.6758
 3868TIP3    H211569   6.277   3.071   3.551  1.2874  0.3227 -1.8463
 3869TIP3   OH211570   5.354   2.726   2.188 -0.2364  0.4840 -0.5946
 3869TIP3    H111571   5.298   2.686   2.256 -0.1390 -0.3201 -0.9774
 3869TIP3    H211572   5.435   2.746   2.234 -0.5795  1.0059 -0.2018
 3870TIP3   OH211573   1.570   5.123   4.214 -0.1291 -0.5102  0.6725
 3870TIP3    H111574   1.655   5.106   4.256 -0.9786 -3.1658  1.5246
 3870TIP3    H211575   1.508   5.127   4.286 -1.0776 -1.3090 -0.0688
 3871TIP3   OH211576   4.830   5.158   2.917  0.0109  0.3713 -0.1468
 3871TIP3    H111577   4.755   5.099   2.921 -0.4751  0.9366 -0.7706
 3871TIP3    H211578   4.887   5.118   2.851  1.5370 -1.4774  2.1233
 3872TIP3   OH211579   5.904   3.516   3.448  0.0129 -0.1517  0.2956
 3872TIP3    H111580   5.939   3.478   3.367  2.0190  0.6295  0.7496
 3872TIP3    H211581   5.915   3.448   3.514  1.4839  0.3316  0.5994
 3873TIP3   OH211582   0.259   1.607   5.020 -0.6421 -0.5427  0.3267
 3873TIP3    H111583   0.286   1.606   5.112 -1.2894  1.6475  0.5834
 3873TIP3    H211584   0.341   1.604   4.971 -0.2058 -0.0839  1.0069
 3874TIP3   OH211585   0.580   4.276   1.531 -0.6396  0.4630 -0.2506
 3874TIP3    H111586   0.551   4.294   1.620 -2.1619 -0.3136 -0.5479
 3874TIP3    H211587   0.675   4.270   1.537 -0.7906 -0.8819  1.5837
 3875TIP3   OH211588   3.478   0.266   3.806 -0.6448 -0.2048  0.1543
 3875TIP3    H111589   3.480   0.360   3.790 -0.4315 -0.2891 -0.3199
 3875TIP3    H211590   3.385   0.247   3.823 -0.7985 -0.0169 -0.4330
 3876TIP3   OH211591   3.977   2.649   3.080  0.0790  0.1458  0.6506
 3876TIP3    H111592   4.015   2.674   3.164  0.6012  0.6077  0.2908
 3876TIP3    H211593   4.053   2.640   3.022 -0.3114  0.3773  0.0978
 3877TIP3   OH211594   7.029   5.803   1.386  0.2765  0.1255 -0.5847
 3877TIP3    H111595   7.122   5.794   1.364  0.7308  0.2272  1.1318
 3877TIP3    H211596   7.006   5.721   1.428 -0.1466  0.4627 -0.1457
 3878TIP3   OH211597   1.673   3.009   4.208  0.1878  0.0783  0.1258
 3878TIP3    H111598   1.618   2.931   4.197  0.0619  0.2953 -0.8496
 3878TIP3    H211599   1.709   3.000   4.296 -0.4800 -0.6652  0.3398
 3879TIP3   OH211600   6.812   4.603   4.981 -0.0599  0.3251  0.2858
 3879TIP3    H111601   6.898   4.579   5.014  0.8641  1.8169 -0.9279
 3879TIP3    H211602   6.788   4.531   4.921  0.0783 -0.3477  1.0204
 3880TIP3   OH211603   6.119   0.784   1.025 -0.3547 -0.0005 -0.0913
 3880TIP3    H111604   6.110   0.843   1.100 -2.8884 -0.8361  0.3533
 3880TIP3    H211605   6.099   0.697   1.060  0.3269 -0.7047 -1.3653
 3881TIP3   OH211606   4.225   5.753   4.976 -0.1417 -0.5703 -0.1874
 3881TIP3    H111607   4.257   5.663   4.975 -0.6628 -0.7851  1.0051
 3881TIP3    H211608   4.133   5.746   4.952 -0.1703 -0.3547 -0.1465
 3882TIP3   OH211609   1.579   1.043   1.577 -0.4953 -0.2005  0.1924
 3882TIP3    H111610   1.568   1.073   1.667 -1.5150 -0.7036  0.2595
 3882TIP3    H211611   1.617   0.955   1.586  0.4024  0.1737  0.0865
 3883TIP3   OH211612   4.226   2.096   5.128 -0.4518 -0.9868  0.0765
 3883TIP3    H111613   4.242   2.031   5.060 -0.9561 -0.2161 -0.8039
 3883TIP3    H211614   4.275   2.173   5.100  1.5487 -1.4745  1.9879
 3884TIP3   OH211615   2.505   0.371   1.632  0.4011  0.5107 -0.1956
 3884TIP3    H111616   2.594   0.336   1.635  0.1448 -0.1609 -0.2595
 3884TIP3    H211617   2.503   0.436   1.702  0.5242 -0.4741  0.7481
 3885TIP3   OH211618   4.713   4.352   2.018 -0.0143 -0.9214 -0.0292
 3885TIP3    H111619   4.649   4.394   1.962 -0.0091  0.4926  0.9667
 3885TIP3    H211620   4.681   4.262   2.029 -0.8363 -0.7587 -0.9812
 3886TIP3   OH211621   1.842   1.206   5.515  0.1249 -0.3042 -0.2108
 3886TIP3    H111622   1.841   1.287   5.463 -0.3980 -0.4598 -0.4539
 3886TIP3    H211623   1.923   1.210   5.565  0.7051 -0.2021 -1.1354
 3887TIP3   OH211624   4.533   5.402   2.198  0.2053  0.3539 -0.3496
 3887TIP3    H111625   4.540   5.325   2.142  1.6928 -0.1178  0.4183
 3887TIP3    H211626   4.551   5.476   2.140  2.1288 -0.1546 -0.4891
 3888TIP3   OH211627   2.299   3.360   5.708 -0.3117  0.1395 -0.1224
 3888TIP3    H111628   2.373   3.390   5.762 -0.0025 -0.5508 -0.1584
 3888TIP3    H211629   2.224   3.363   5.767  0.0937 -0.9866  0.4783
 3889TIP3   OH211630   4.705   0.247   5.790 -0.4345  0.0720  0.1819
 3889TIP3    H111631   4.628   0.251   5.734 -0.6500 -2.0569  0.2309
 3889TIP3    H211632   4.744   0.334   5.784 -2.9099  1.2739  0.3083
 3890TIP3   OH211633   1.896   5.890   2.762  0.0864 -0.3629  0.2488
 3890TIP3    H111634   1.834   5.943   2.712 -1.3093 -0.3469  1.8873
 3890TIP3    H211635   1.982   5.912   2.725 -0.7385  0.6270 -1.2056
 3891TIP3   OH211636   3.323   6.020   1.854 -0.4364 -0.3188 -0.4573
 3891TIP3    H111637   3.277   5.980   1.781  1.1440  0.8784 -2.2007
 3891TIP3    H211638   3.269   6.095   1.878 -1.6827 -1.4955  0.6158
 3892TIP3   OH211639   4.755   5.404   4.573  0.0246 -0.2202  0.2637
 3892TIP3    H111640   4.740   5.497   4.560 -2.6494 -0.4781  0.9496
 3892TIP3    H211641   4.722   5.386   4.661  0.2945 -1.8643  0.0730
 3893TIP3   OH211642   5.245   6.391   5.347  0.2093 -0.1652 -0.3804
 3893TIP3    H111643   5.204   6.343   5.418 -0.2416 -0.5537 -0.8991
 3893TIP3    H211644   5.332   6.352   5.338  1.2515  1.5175  1.5874
 3894TIP3   OH211645   7.173   3.616   1.967 -0.1166  0.2163 -0.0135
 3894TIP3    H111646   7.177   3.666   2.048  0.3046 -1.7065  1.1970
 3894TIP3    H211647   7.211   3.675   1.901 -1.0054  2.0246  1.0155
 3895TIP3   OH211648   3.967   4.267   3.905  0.7752 -0.0950 -0.7529
 3895TIP3    H111649   4.039   4.326   3.928  0.2799  0.9775 -1.8172
 3895TIP3    H211650   4.002   4.215   3.832  1.3158 -1.3779  0.3790
 3896TIP3   OH211651   6.268   0.624   5.743 -0.1227  0.6641  0.3943
 3896TIP3    H111652   6.259   0.609   5.649  1.2645 -1.1604  0.4868
 3896TIP3    H211653   6.179   0.642   5.773 -0.6244  1.0569 -1.2144
 3897TIP3   OH211654   6.768   6.791   0.980 -0.2588  0.4399 -0.2837
 3897TIP3    H111655   6.809   6.706   0.998  1.2483  0.8573 -1.5824
 3897TIP3    H211656   6.824   6.854   1.025 -0.0075  0.9315 -1.2687
 3898TIP3   OH211657   2.940   4.077   1.305  0.2063  0.0853  0.2556
 3898TIP3    H111658   2.953   4.171   1.303  1.0121 -0.0009 -2.7198
 3898TIP3    H211659   3.008   4.042   1.248 -0.5674 -2.2454  0.6364
 3899TIP3   OH211660   3.872   2.315   5.509 -0.0723  0.2064 -0.0846
 3899TIP3    H111661   3.852   2.228   5.544 -1.3167  0.7674  0.6657
 3899TIP3    H211662   3.854   2.307   5.415  1.5663 -0.8114 -0.3657
 3900TIP3   OH211663   3.269   6.124   4.585 -0.0386 -0.3945 -0.2713
 3900TIP3    H111664   3.200   6.061   4.567 -0.4737  0.2105 -0.7982
 3900TIP3    H211665   3.235   6.207   4.550  1.5003 -0.3481 -1.8454
 3901TIP3   OH211666   1.786   0.878   0.485 -0.0930  0.5297 -0.3556
 3901TIP3    H111667   1.776   0.826   0.405  1.5269 -0.1511 -0.1646
 3901TIP3    H211668   1.789   0.813   0.556 -2.5486  1.1666  0.4465
 3902TIP3   OH211669   3.908   4.769   4.277 -0.2162 -0.1403  0.6554
 3902TIP3    H111670   3.821   4.797   4.249  0.2948  3.0909  1.8738
 3902TIP3    H211671   3.896   4.739   4.367  0.0623  1.7696  1.3843
 3903TIP3   OH211672   3.878   4.941   2.535 -0.0892 -0.4066  0.4137
 3903TIP3    H111673   3.909   4.861   2.577  1.0564 -0.1812  0.0388
 3903TIP3    H211674   3.954   5.000   2.536 -1.0471  0.8625  1.1154
 3904TIP3   OH211675   3.696   0.466   1.486  0.2650 -0.1336  0.5713
 3904TIP3    H111676   3.672   0.458   1.579 -1.5655  0.2810  0.1680
 3904TIP3    H211677   3.678   0.380   1.450 -1.4142  0.3619  0.1259
 3905TIP3   OH211678   3.463   3.542   1.454 -0.4887 -0.5126 -0.2302
 3905TIP3    H111679   3.432   3.543   1.545 -1.0311 -1.8214 -0.3749
 3905TIP3    H211680   3.529   3.473   1.453  0.6271  0.5330 -0.5058
 3906TIP3   OH211681   7.055   5.595   5.138 -0.3109 -0.4553 -0.6782
 3906TIP3    H111682   7.093   5.523   5.087  1.3137  0.2686 -0.5457
 3906TIP3    H211683   7.109   5.671   5.116 -1.4677  0.5453 -0.1638
 3907TIP3   OH211684   1.590   6.727   0.020  0.1046  0.6645  0.2123
 3907TIP3    H111685   1.611   6.752   0.110  1.1142  0.6407 -0.0013
 3907TIP3    H211686   1.577   6.810  -0.026 -0.8994  0.6623  0.4881
 3908TIP3   OH211687   3.261   3.921   0.827  0.1142 -0.0173  0.3430
 3908TIP3    H111688   3.345   3.880   0.849 -0.5501 -1.3417  0.4650
 3908TIP3    H211689   3.248   3.899   0.735  0.2169  0.7927  0.1222
 3909TIP3   OH211690   5.426   2.644   5.356  0.5068  0.0540 -0.8783
 3909TIP3    H111691   5.463   2.614   5.273  3.6038  1.9858 -0.3636
 3909TIP3    H211692   5.456   2.579   5.420  0.1644 -0.1457 -0.9180
 3910TIP3   OH211693   3.113   5.109   2.106  0.3440  0.3005  0.1012
 3910TIP3    H111694   3.146   5.166   2.038  0.9349 -1.5188 -1.2111
 3910TIP3    H211695   3.121   5.021   2.070 -2.7237 -0.5057  1.0724
 3911TIP3   OH211696   4.922   5.922   0.704 -0.1677 -0.2605 -0.1800
 3911TIP3    H111697   4.936   6.016   0.721 -0.1299 -0.3734  0.4286
 3911TIP3    H211698   4.993   5.898   0.644  0.3022 -0.0855  0.3037
 3912TIP3   OH211699   6.890   4.285   3.632 -0.2117 -0.0246  0.2549
 3912TIP3    H111700   6.959   4.241   3.584 -0.9669  0.8857 -1.7661
 3912TIP3    H211701   6.823   4.218   3.645 -0.5027 -0.0018 -1.0410
 3913TIP3   OH211702   1.463   1.007   4.665 -0.5856  0.2453 -0.0261
 3913TIP3    H111703   1.387   0.965   4.705 -0.8521  0.8567  0.1292
 3913TIP3    H211704   1.537   0.979   4.720 -0.1601 -2.8890 -1.9672
 3914TIP3   OH211705   0.871   4.292   3.606  0.2527  0.0129  0.0021
 3914TIP3    H111706   0.822   4.374   3.614 -1.4400 -1.0288  0.6685
 3914TIP3    H211707   0.884   4.263   3.696 -1.1902 -1.5907 -0.2663
 3915TIP3   OH211708   1.064   0.014   5.284  0.3203  0.0380  0.2155
 3915TIP3    H111709   0.995   0.051   5.229  1.1656  1.1052 -0.1541
 3915TIP3    H211710   1.118   0.089   5.308 -0.8739 -0.0784  3.8229
 3916TIP3   OH211711   5.936   3.802   1.006 -0.8444 -0.2716 -0.0513
 3916TIP3    H111712   5.937   3.897   1.007 -0.3843 -0.2682  1.6727
 3916TIP3    H211713   5.844   3.779   0.992 -1.0373  0.4219  0.0495
 3917TIP3   OH211714   3.490   4.383   3.202  0.0936  0.2462 -0.0169
 3917TIP3    H111715   3.530   4.350   3.122 -0.7008 -1.8746  0.3932
 3917TIP3    H211716   3.415   4.435   3.172 -1.1505 -1.8342 -0.6965
 3918TIP3   OH211717   3.322   4.049   0.030  0.0551 -0.1500  0.1831
 3918TIP3    H111718   3.392   3.984   0.045  0.4779  0.7728  2.7685
 3918TIP3    H211719   3.256   4.002  -0.019  1.1900 -1.9720  0.2958
 3919TIP3   OH211720   2.968   6.575   3.145  0.1102  0.3471  0.2894
 3919TIP3    H111721   2.875   6.554   3.133  0.7408 -1.7347 -1.6119
 3919TIP3    H211722   2.998   6.513   3.211  0.4551  0.0042 -0.1852
 3920TIP3   OH211723   4.225   2.792   0.127 -0.5928 -0.3670 -0.1063
 3920TIP3    H111724   4.293   2.753   0.182  0.3162  0.4546 -0.6325
 3920TIP3    H211725   4.163   2.830   0.190 -0.0070 -0.1705  0.3585
 3921TIP3   OH211726   4.662   2.452   2.145  0.4011  0.1859 -0.0908
 3921TIP3    H111727   4.719   2.414   2.078 -0.2610 -1.3092  0.1472
 3921TIP3    H211728   4.609   2.378   2.176 -0.3420  1.1504  1.0301
 3922TIP3   OH211729   1.359   6.049   2.785 -0.4060 -0.3213 -0.0207
 3922TIP3    H111730   1.290   6.003   2.833  0.1639 -0.3163  0.8148
 3922TIP3    H211731   1.414   5.979   2.749 -0.7905 -0.3238 -0.6134
 3923TIP3   OH211732   4.377   1.375   0.577  0.6114 -0.0091  0.6004
 3923TIP3    H111733   4.339   1.330   0.501 -1.6295  0.8431  1.1171
 3923TIP3    H211734   4.467   1.343   0.582  0.5606 -0.7471 -1.8742
 3924TIP3   OH211735   1.513   4.792   1.499 -0.4768 -0.5057 -0.5353
 3924TIP3    H111736   1.485   4.863   1.442 -0.2436  0.3427  0.3730
 3924TIP3    H211737   1.473   4.812   1.583  2.2427  0.4346  0.6651
 3925TIP3   OH211738   1.539   0.074   2.711 -0.1173  0.0493 -0.2657
 3925TIP3    H111739   1.630   0.098   2.726  0.0482 -1.0730  0.7341
 3925TIP3    H211740   1.491   0.118   2.781  0.0649 -1.5683  0.9653
 3926TIP3   OH211741   4.457   3.988   4.225  0.0466 -0.3443 -0.2896
 3926TIP3    H111742   4.552   3.982   4.218  0.0088  0.6069 -2.6973
 3926TIP3    H211743   4.425   3.941   4.148 -1.4576 -0.6245  0.4757
 3927TIP3   OH211744   5.059   5.201   4.193  0.2674  0.7929  0.2707
 3927TIP3    H111745   5.149   5.193   4.225 -0.0285  0.3282  1.0004
 3927TIP3    H211746   5.067   5.190   4.098  1.2290  2.8091  0.0601
 3928TIP3   OH211747   3.177   4.472   0.583 -0.0973  0.7804  0.2441
 3928TIP3    H111748   3.166   4.461   0.677  1.1459  0.6624  0.3825
 3928TIP3    H211749   3.174   4.383   0.548 -0.1319  0.7938  0.2124
 3929TIP3   OH211750   2.815   0.629   4.821 -0.3864 -0.1837 -0.4503
 3929TIP3    H111751   2.807   0.671   4.907 -0.1835  0.2956 -0.6599
 3929TIP3    H211752   2.905   0.648   4.793  0.3110 -2.2705  0.2129
 3930TIP3   OH211753   5.241   1.235   3.868  0.7764 -0.0274 -0.1123
 3930TIP3    H111754   5.184   1.304   3.905 -0.8570 -1.8255  0.9084
 3930TIP3    H211755   5.252   1.172   3.940 -1.3696 -2.9710 -2.1337
 3931TIP3   OH211756   4.838   2.293   3.678 -0.5679  0.4288  0.1941
 3931TIP3    H111757   4.795   2.338   3.604  1.3873  0.8102 -0.7888
 3931TIP3    H211758   4.853   2.204   3.646 -0.7244  0.2591  0.5846
 3932TIP3   OH211759   4.042   1.325   0.632 -0.1933 -0.2860  0.1435
 3932TIP3    H111760   4.042   1.333   0.537  0.0595  1.3117  0.2454
 3932TIP3    H211761   4.089   1.403   0.663 -0.2057 -0.8044  1.5765
 3933TIP3   OH211762   4.876   0.269   4.546  0.9725  0.0760 -0.2566
 3933TIP3    H111763   4.817   0.284   4.471 -0.0594  2.0225  0.8695
 3933TIP3    H211764   4.880   0.173   4.554 -1.5295 -0.1512 -0.8204
 3934TIP3   OH211765   5.221   5.681   4.942  0.1972  0.3615  0.0613
 3934TIP3    H111766   5.187   5.716   4.860  0.1706  0.2022  0.0032
 3934TIP3    H211767   5.170   5.725   5.010  1.2618  1.6391  0.0588
 3935TIP3   OH211768   1.520   1.305   0.664  0.0736  0.1463  0.6128
 3935TIP3    H111769   1.466   1.339   0.592 -0.8901 -0.9022  0.8245
 3935TIP3    H211770   1.596   1.266   0.621  0.9627  2.0591  0.3349
 3936TIP3   OH211771   0.660   0.992   4.510  0.1155  0.3117  0.3304
 3936TIP3    H111772   0.592   1.039   4.462  0.9417  0.2558 -0.9348
 3936TIP3    H211773   0.690   1.056   4.576 -0.3038  0.7652  0.0919
 3937TIP3   OH211774   0.636   3.665   5.172  0.2939  0.2944  0.7120
 3937TIP3    H111775   0.666   3.669   5.081  2.0380 -0.6395  1.1969
 3937TIP3    H211776   0.545   3.636   5.166  0.2556  0.6512 -0.7505
 3938TIP3   OH211777   5.666   0.206   2.835 -0.1239  0.1511 -0.7547
 3938TIP3    H111778   5.749   0.203   2.883 -1.0418 -0.9331  0.9032
 3938TIP3    H211779   5.672   0.283   2.780  2.0131  0.0457 -0.7460
 3939TIP3   OH211780   2.073   1.131   4.164 -0.1369  0.8897  0.2259
 3939TIP3    H111781   2.165   1.105   4.155 -0.0358  0.6279  1.6565
 3939TIP3    H211782   2.024   1.050   4.153 -0.3813  1.3147 -2.3924
 3940TIP3   OH211783   3.418   6.047   0.111  0.2907 -0.8161  0.0626
 3940TIP3    H111784   3.479   6.031   0.183  0.0384 -2.1728  0.0012
 3940TIP3    H211785   3.387   6.136   0.126  0.8667 -0.7743  1.1624
 3941TIP3   OH211786   0.927   2.455   0.383  0.0856 -0.0073 -0.6993
 3941TIP3    H111787   0.862   2.436   0.451 -0.8873 -1.5042 -1.9863
 3941TIP3    H211788   0.883   2.517   0.324  0.1128 -0.4257 -1.1598
 3942TIP3   OH211789   2.387   1.534   1.643  0.3664 -0.4453  0.0346
 3942TIP3    H111790   2.305   1.566   1.681 -0.1399 -2.4414  0.7463
 3942TIP3    H211791   2.408   1.598   1.574 -2.3058 -0.3809 -0.8400
 3943TIP3   OH211792   2.112   0.088   4.435  0.2232 -0.2093  0.1570
 3943TIP3    H111793   2.185   0.130   4.390  0.8160 -0.6142  0.7270
 3943TIP3    H211794   2.035   0.108   4.381  0.4821  1.5912  0.4055
 3944TIP3   OH211795   5.783   0.307   5.199  0.0546  0.1742 -0.3965
 3944TIP3    H111796   5.690   0.315   5.220 -0.3684 -1.7338 -1.3401
 3944TIP3    H211797   5.789   0.327   5.105  0.6969  0.8929 -0.2127
 3945TIP3   OH211798   2.219   2.802   5.766 -0.4647  0.1755 -0.3098
 3945TIP3    H111799   2.154   2.821   5.833  0.1035 -1.9124  0.9130
 3945TIP3    H211800   2.218   2.707   5.757  1.4582  0.1941 -1.2255
 3946TIP3   OH211801   1.940   4.449   1.747 -0.5988  0.4091 -0.2312
 3946TIP3    H111802   2.025   4.405   1.741  0.1981  1.9035 -0.4070
 3946TIP3    H211803   1.875   4.379   1.739  0.6099 -0.6462 -1.0052
 3947TIP3   OH211804   3.055   4.821   5.600  0.1519  0.0045 -0.4012
 3947TIP3    H111805   3.107   4.832   5.680  0.7999 -0.6853 -0.7093
 3947TIP3    H211806   3.081   4.894   5.544  0.6717 -0.2414 -0.4850
 3948TIP3   OH211807   1.288   3.571   5.302  0.2468 -0.2874  0.0020
 3948TIP3    H111808   1.315   3.479   5.295  0.9773 -0.1603  0.9123
 3948TIP3    H211809   1.239   3.575   5.385 -1.4252 -0.2184 -0.9328
 3949TIP3   OH211810   5.647   2.181   4.126 -0.2924 -0.6810  0.0934
 3949TIP3    H111811   5.586   2.190   4.199  1.3264 -0.0990  1.4312
 3949TIP3    H211812   5.695   2.101   4.145 -0.5326 -1.0643 -0.8760
 3950TIP3   OH211813   3.615   4.816   2.332  0.5794 -0.2419  0.0081
 3950TIP3    H111814   3.688   4.848   2.279  1.1669  0.5360  1.2422
 3950TIP3    H211815   3.621   4.721   2.325  1.1763 -0.1691 -0.6104
 3951TIP3   OH211816   2.481   0.900   0.561  0.3477 -0.1036 -0.0326
 3951TIP3    H111817   2.422   0.908   0.636 -1.4801 -1.0747 -1.2995
 3951TIP3    H211818   2.518   0.988   0.550  0.8811  0.0076  2.1136
 3952TIP3   OH211819   5.322   6.000   0.640  0.1887  0.0491 -0.3955
 3952TIP3    H111820   5.285   6.059   0.705 -0.3617 -0.2611 -0.4205
 3952TIP3    H211821   5.302   5.913   0.672 -1.7051 -0.1220 -1.8429
 3953TIP3   OH211822   4.732   3.769   2.364 -0.1511  0.4748 -0.2746
 3953TIP3    H111823   4.704   3.678   2.354 -0.0691  0.3930  0.2306
 3953TIP3    H211824   4.771   3.773   2.452  2.6880  0.2571 -1.4172
 3954TIP3   OH211825   6.210   0.353   0.336  0.1911 -0.1573  0.0446
 3954TIP3    H111826   6.187   0.434   0.383  1.8851  0.4946 -0.1751
 3954TIP3    H211827   6.276   0.312   0.392 -0.4847 -1.2970  0.0312
 3955TIP3   OH211828   1.923   5.934   4.791 -0.6995 -0.4374  0.5321
 3955TIP3    H111829   1.853   5.882   4.751  0.5337 -0.7243 -1.3508
 3955TIP3    H211830   1.956   5.878   4.862 -2.6407 -0.0941  1.7794
 3956TIP3   OH211831   5.087   6.722   2.242  0.2633 -0.0159 -0.6513
 3956TIP3    H111832   5.150   6.754   2.178 -0.6152 -0.4579 -1.7813
 3956TIP3    H211833   5.107   6.629   2.254 -0.6351 -0.3541 -1.6202
 3957TIP3   OH211834   3.355   1.165   4.014  0.0508 -0.0842  0.4088
 3957TIP3    H111835   3.354   1.069   4.008  0.8868 -0.0226 -1.7235
 3957TIP3    H211836   3.352   1.194   3.923  1.2897  1.8987  0.9408
 3958TIP3   OH211837   6.094   6.078   0.532 -0.4005 -0.1116  0.0744
 3958TIP3    H111838   6.113   6.172   0.525 -0.2093 -0.0316  1.4896
 3958TIP3    H211839   6.000   6.075   0.548 -0.8689 -0.3036 -2.3183
 3959TIP3   OH211840   6.322   5.260   4.142 -0.2202  0.1600 -0.0178
 3959TIP3    H111841   6.300   5.256   4.049 -1.6826  1.1182  0.2584
 3959TIP3    H211842   6.308   5.171   4.174  1.5638 -0.4998 -0.9464
 3960TIP3   OH211843   6.172   4.584   3.923  0.6304  0.1500 -0.2089
 3960TIP3    H111844   6.146   4.541   4.004 -0.4472 -1.2153 -1.2408
 3960TIP3    H211845   6.090   4.604   3.878  1.1461  2.2829 -0.3034
 3961TIP3   OH211846   1.790   4.192   5.212 -1.4162  0.3836 -0.1897
 3961TIP3    H111847   1.855   4.223   5.274 -0.3572  0.2814 -1.2199
 3961TIP3    H211848   1.800   4.097   5.211 -1.4487  0.3802 -0.4788
 3962TIP3   OH211849   4.771   2.862   3.778  0.9227 -0.1292 -0.1975
 3962TIP3    H111850   4.810   2.917   3.711 -1.2614 -1.0656 -2.3588
 3962TIP3    H211851   4.802   2.773   3.758 -1.4096 -0.7415 -1.3739
 3963TIP3   OH211852   0.473   3.767   1.851  0.2940  0.2205  0.3770
 3963TIP3    H111853   0.417   3.729   1.785 -0.3005  0.9639  0.4369
 3963TIP3    H211854   0.560   3.729   1.835 -0.2580 -1.0760  0.4073
 3964TIP3   OH211855   6.583   3.779   4.149  0.2715 -0.1331 -0.3379
 3964TIP3    H111856   6.509   3.728   4.115  1.3134 -1.0548 -1.3585
 3964TIP3    H211857   6.544   3.843   4.208 -1.3764 -0.3055 -1.1737
 3965TIP3   OH211858   3.276   6.290   4.236 -0.3939 -0.1544 -0.1250
 3965TIP3    H111859   3.335   6.342   4.290  0.0674 -0.6478 -0.1430
 3965TIP3    H211860   3.266   6.341   4.156 -1.0504  0.5602  0.4041
 3966TIP3   OH211861   3.624   5.403   1.787  0.3094 -0.0619 -0.3389
 3966TIP3    H111862   3.540   5.358   1.790 -1.1566  2.5727  1.2866
 3966TIP3    H211863   3.652   5.408   1.878  0.0037  2.8995 -0.3258
 3967TIP3   OH211864   6.690   5.419   2.785 -0.1238 -0.0912  0.0522
 3967TIP3    H111865   6.633   5.452   2.855 -0.9574 -1.2152 -0.0800
 3967TIP3    H211866   6.728   5.498   2.747 -2.1508  0.7624 -0.3266
 3968TIP3   OH211867   2.023   4.623   3.115  0.0369 -0.1111 -0.0505
 3968TIP3    H111868   2.070   4.552   3.071  0.0724 -0.8177  1.0733
 3968TIP3    H211869   1.934   4.618   3.080 -0.5560 -2.1346  1.4897
 3969TIP3   OH211870   6.293   1.177   2.261  0.3160 -0.2216 -0.4181
 3969TIP3    H111871   6.238   1.158   2.337 -0.4818 -0.6944 -1.0895
 3969TIP3    H211872   6.240   1.235   2.206  1.3540  1.1038 -0.0695
 3970TIP3   OH211873   2.999   3.805   3.944  0.0826 -0.2913  0.4547
 3970TIP3    H111874   2.958   3.889   3.925  2.0112  0.4325 -0.8450
 3970TIP3    H211875   2.941   3.763   4.008 -2.1028  1.0207 -0.5723
 3971TIP3   OH211876   0.180   3.731   1.241  0.5014 -1.1598  0.2537
 3971TIP3    H111877   0.267   3.729   1.282  0.2893  0.7310  0.9037
 3971TIP3    H211878   0.189   3.677   1.163  1.8951 -2.0423  0.9713
 3972TIP3   OH211879   6.392   4.757   5.686 -0.6495 -0.1829  0.3683
 3972TIP3    H111880   6.377   4.828   5.623 -2.1054  0.1101  1.0158
 3972TIP3    H211881   6.435   4.800   5.760  0.0601 -0.3200  0.0434
 3973TIP3   OH211882   1.876   3.453   4.648 -0.0562 -0.1267  0.0926
 3973TIP3    H111883   1.933   3.389   4.604  0.0184  0.4036 -0.5993
 3973TIP3    H211884   1.914   3.462   4.735  1.9649  1.4444 -0.8607
 3974TIP3   OH211885   2.456   2.035   3.588 -0.1914 -0.3494 -0.1266
 3974TIP3    H111886   2.477   1.946   3.560 -0.5643 -0.5318  0.1719
 3974TIP3    H211887   2.366   2.050   3.558 -0.3613 -0.3111  0.3890
 3975TIP3   OH211888   0.651   4.136   3.457  0.2131  0.1796  0.1382
 3975TIP3    H111889   0.588   4.161   3.524 -0.6425  0.3366 -0.7103
 3975TIP3    H211890   0.736   4.139   3.501 -0.5113 -2.0118  1.8794
 3976TIP3   OH211891   5.332   1.901   2.152  0.1347 -0.7866 -0.1710
 3976TIP3    H111892   5.420   1.926   2.180  0.6423 -0.4069 -1.9774
 3976TIP3    H211893   5.275   1.969   2.188  0.6756 -0.6649  0.4578
 3977TIP3   OH211894   1.606   6.367   1.639  0.0879 -0.1201 -0.7093
 3977TIP3    H111895   1.540   6.306   1.672  0.8818 -1.0481 -0.8002
 3977TIP3    H211896   1.625   6.337   1.550  1.1446 -0.3139 -0.4354
 3978TIP3   OH211897   3.601   6.413   4.217  0.2117  0.4094  0.6260
 3978TIP3    H111898   3.596   6.504   4.246  1.0987  0.3953  0.8458
 3978TIP3    H211899   3.677   6.411   4.159 -0.6507  0.1109 -0.5238
 3979TIP3   OH211900   1.228   4.234   5.741  0.2518 -0.5826 -0.4059
 3979TIP3    H111901   1.241   4.168   5.674 -1.9036  2.6059 -4.4261
 3979TIP3    H211902   1.133   4.236   5.756  0.5260 -0.1263  1.6993
 3980TIP3   OH211903   3.531   3.786   5.167 -0.3127 -0.2034  0.4794
 3980TIP3    H111904   3.596   3.832   5.113  0.3040 -1.5576  0.0242
 3980TIP3    H211905   3.451   3.786   5.114  0.7526 -3.1101 -1.3807
 3981TIP3   OH211906   4.069   4.199   1.204 -0.3441  0.4344 -0.1884
 3981TIP3    H111907   4.100   4.136   1.139 -1.8973  0.2108 -0.7548
 3981TIP3    H211908   4.125   4.185   1.281  1.3841  0.5628 -1.3732
 3982TIP3   OH211909   3.547   3.204   4.914 -0.4402 -0.2615  0.5191
 3982TIP3    H111910   3.457   3.176   4.894  0.1354 -0.6831 -1.7036
 3982TIP3    H211911   3.580   3.239   4.831  1.8677 -1.2614  0.9447
 3983TIP3   OH211912   6.624   6.236   4.062  0.0327 -0.4795 -0.0857
 3983TIP3    H111913   6.710   6.259   4.025  0.1061  0.0793  0.4151
 3983TIP3    H211914   6.574   6.317   4.058 -0.1167 -0.5290  0.6015
 3984TIP3   OH211915   6.443   3.144   4.724  0.0793 -0.2192  0.4888
 3984TIP3    H111916   6.363   3.194   4.737  0.3710  0.6913 -0.9589
 3984TIP3    H211917   6.414   3.058   4.693 -0.3578 -0.1487  0.7057
 3985TIP3   OH211918   2.693   0.364   3.180  0.3061  0.2793  0.7558
 3985TIP3    H111919   2.682   0.387   3.087  2.0202  0.3862  0.5566
 3985TIP3    H211920   2.778   0.401   3.204  0.8361 -1.5377  1.8056
 3986TIP3   OH211921   3.260   2.919   3.745  0.3262  0.1841  0.4864
 3986TIP3    H111922   3.315   2.852   3.705  2.3287  1.4569  0.9927
 3986TIP3    H211923   3.212   2.958   3.672 -1.1589 -1.9529  0.2169
 3987TIP3   OH211924   2.909   1.390   0.916  0.3588 -0.0903 -0.4315
 3987TIP3    H111925   2.989   1.346   0.889  1.3538  1.4871 -0.2204
 3987TIP3    H211926   2.860   1.404   0.835  0.7538 -0.2052 -0.6929
 3988TIP3   OH211927   3.008   6.288   4.294  0.0918 -0.4542  0.0966
 3988TIP3    H111928   2.963   6.232   4.358  1.0318  0.0064  1.2061
 3988TIP3    H211929   3.101   6.266   4.305  0.2504 -0.6922 -1.4582
 3989TIP3   OH211930   0.231   1.153   3.288  0.4370  0.1768 -0.0048
 3989TIP3    H111931   0.225   1.246   3.308  2.0536  1.0346 -2.8911
 3989TIP3    H211932   0.189   1.144   3.202  0.4852 -1.7060  0.1212
 3990TIP3   OH211933   3.964   4.482   0.847 -0.0602 -0.2703  0.2650
 3990TIP3    H111934   3.887   4.510   0.797  0.5567  1.3472  0.1347
 3990TIP3    H211935   3.939   4.495   0.938 -0.0419  0.0298  0.2310
 3991TIP3   OH211936   1.831   2.493   4.205  0.4745  0.5473 -0.0775
 3991TIP3    H111937   1.849   2.550   4.130  0.1489 -2.8522 -3.0262
 3991TIP3    H211938   1.917   2.470   4.240  1.1775 -1.8230 -2.9012
 3992TIP3   OH211939   0.678   0.932   0.949 -0.3621 -0.6542  0.3622
 3992TIP3    H111940   0.690   0.838   0.959 -0.5423 -0.8749 -1.1743
 3992TIP3    H211941   0.734   0.971   1.016 -0.2157 -1.8440  0.9614
 3993TIP3   OH211942   2.286   4.628   4.204  0.5378  0.3639 -0.3513
 3993TIP3    H111943   2.362   4.686   4.204 -0.2756  1.4647 -0.2677
 3993TIP3    H211944   2.298   4.572   4.281  2.1363 -0.6962 -1.3290
 3994TIP3   OH211945   0.205   5.579   2.327 -0.2686 -0.1946 -0.1150
 3994TIP3    H111946   0.282   5.551   2.377 -1.3513 -0.7313  1.3230
 3994TIP3    H211947   0.158   5.498   2.307 -2.5255  0.2844  2.5788
 3995TIP3   OH211948   5.320   1.820   2.691  0.4836 -0.5588 -0.2127
 3995TIP3    H111949   5.406   1.861   2.684 -0.0358  1.3641  2.5683
 3995TIP3    H211950   5.262   1.877   2.642  0.3432 -0.0124  0.5647
 3996TIP3   OH211951   0.266   1.916   3.682 -0.2023  0.0051 -0.3321
 3996TIP3    H111952   0.281   1.872   3.765  0.3981  0.8170  0.0093
 3996TIP3    H211953   0.172   1.935   3.682 -0.0922  0.6678  0.5282
 3997TIP3   OH211954   4.463   6.383   1.489 -0.4302 -0.5268 -0.6082
 3997TIP3    H111955   4.456   6.327   1.566 -0.1975  0.8864  0.4849
 3997TIP3    H211956   4.537   6.441   1.508 -0.7270  0.2295 -1.6553
 3998TIP3   OH211957   6.577   3.472   4.228  0.5172  0.1126 -0.0931
 3998TIP3    H111958   6.496   3.427   4.206  0.4142  0.0696  0.3715
 3998TIP3    H211959   6.550   3.560   4.253  0.5596 -0.0507  0.5467
 3999TIP3   OH211960   0.234   1.280   4.336  0.0392 -0.2412 -0.6144
 3999TIP3    H111961   0.195   1.354   4.289 -0.5131 -0.8656 -1.1406
 3999TIP3    H211962   0.234   1.208   4.274  2.8110 -0.0738 -0.9600
 4000TIP3   OH211963   5.656   1.237   2.817 -0.3981 -0.0276  0.0442
 4000TIP3    H111964   5.634   1.330   2.818  0.3585  0.2575 -2.8989
 4000TIP3    H211965   5.652   1.211   2.909 -3.9720  2.0721  0.6468
 4001TIP3   OH211966   3.156   5.871   4.499  0.4889 -0.0146  0.8364
 4001TIP3    H111967   3.201   5.912   4.425  0.9814  1.3518  1.8430
 4001TIP3    H211968   3.179   5.778   4.492  0.6953  0.1151 -0.5850
 4002TIP3   OH211969   1.734   0.469   0.437 -0.5016  0.0826 -0.2133
 4002TIP3    H111970   1.775   0.389   0.403 -0.8332 -0.5039  0.7206
 4002TIP3    H211971   1.641   0.448   0.443 -0.6633  0.7189 -0.4216
 4003TIP3   OH211972   5.788   5.334   4.682  0.6783 -0.2424  0.3480
 4003TIP3    H111973   5.738   5.362   4.605  0.6334  1.8281  1.0926
 4003TIP3    H211974   5.876   5.367   4.667  0.9233 -0.7192  0.7214
 4004TIP3   OH211975   6.775   3.008   4.040  0.4313  0.1113 -0.5908
 4004TIP3    H111976   6.688   2.983   4.008  0.3494  0.3617 -0.5692
 4004TIP3    H211977   6.810   2.929   4.080 -0.3258  0.3306  0.5829
 4005TIP3   OH211978   1.409   0.100   5.377 -0.3607  0.0303  0.2455
 4005TIP3    H111979   1.480   0.162   5.394 -1.1306  0.9854  0.0664
 4005TIP3    H211980   1.379   0.121   5.289 -1.7132  0.5191  0.7963
 4006TIP3   OH211981   1.530   2.851   2.589  0.1528  0.1099 -0.0842
 4006TIP3    H111982   1.463   2.906   2.548 -0.8852 -0.7337  0.4236
 4006TIP3    H211983   1.541   2.778   2.529 -1.5956 -1.2889  1.1869
 4007TIP3   OH211984   3.889   5.767   5.834 -0.4334  0.4505  0.4704
 4007TIP3    H111985   3.849   5.815   5.906 -3.9948  0.8596 -1.5484
 4007TIP3    H211986   3.941   5.832   5.787 -0.6896  0.9479  0.8717
 4008TIP3   OH211987   3.435   2.891   4.554 -0.2354  0.3769 -0.2456
 4008TIP3    H111988   3.494   2.857   4.487 -1.3475  1.2349 -1.6908
 4008TIP3    H211989   3.453   2.985   4.557  0.9688  0.1591  1.8839
 4009TIP3   OH211990   4.020   4.918   0.082 -0.7108 -0.1844  0.5635
 4009TIP3    H111991   3.982   4.979   0.145  2.4197  1.9882  0.5643
 4009TIP3    H211992   4.091   4.876   0.130  1.4679  1.2061 -1.2692
 4010TIP3   OH211993   2.831   4.862   1.877  0.1146  0.2520  0.0739
 4010TIP3    H111994   2.822   4.890   1.968  0.8726 -0.2679  0.3171
 4010TIP3    H211995   2.917   4.820   1.873 -0.5756 -1.1918 -0.4876
 4011TIP3   OH211996   2.354   4.224   0.049  0.2784 -0.1276 -0.4007
 4011TIP3    H111997   2.271   4.268   0.068  0.7378  0.3000  0.6685
 4011TIP3    H211998   2.417   4.295   0.036  0.6776 -0.4553 -0.2726
 4012TIP3   OH211999   6.765   6.643   1.423  0.4685 -0.4969  0.2607
 4012TIP3    H112000   6.833   6.579   1.401 -1.3745 -2.2877 -0.5266
 4012TIP3    H212001   6.740   6.621   1.512  0.9221  0.2048  0.5716
 4013TIP3   OH212002   1.513   1.763   5.499  0.5463  0.1925 -0.4563
 4013TIP3    H112003   1.597   1.807   5.485  0.6649  0.0692 -0.1441
 4013TIP3    H212004   1.533   1.692   5.560  0.1154  0.5086  0.0643
 4014TIP3   OH212005   0.948   4.046   3.179 -0.0557  0.2626  0.4724
 4014TIP3    H112006   1.026   4.092   3.147 -1.0343  1.0537 -0.8665
 4014TIP3    H212007   0.959   4.045   3.274  2.3503 -1.0701  0.2651
 4015TIP3   OH212008   4.962   0.906   4.452  0.4796 -0.2344 -0.1588
 4015TIP3    H112009   5.047   0.877   4.486  0.2728 -2.1809 -1.1482
 4015TIP3    H212010   4.977   0.916   4.357 -0.1469  0.4119 -0.1949
 4016TIP3   OH212011   4.063   6.567   4.918  0.3944  0.2685 -0.2120
 4016TIP3    H112012   4.139   6.625   4.909 -0.6780  1.5863 -1.2448
 4016TIP3    H212013   4.034   6.580   5.008  1.4517 -0.3726  0.2492
 4017TIP3   OH212014   3.443   6.554   3.510  0.1187  0.0998  0.2912
 4017TIP3    H112015   3.485   6.637   3.485 -1.6919  1.0264  0.1779
 4017TIP3    H212016   3.362   6.552   3.459  0.3989 -2.0574 -0.1695
 4018TIP3   OH212017   5.540   3.324   3.877 -0.0009 -0.5490 -0.2646
 4018TIP3    H112018   5.600   3.273   3.823 -0.0605 -0.9768  0.0649
 4018TIP3    H212019   5.462   3.334   3.822  0.8845  1.2869 -1.2793
 4019TIP3   OH212020   4.136   5.417   4.785  0.2408  0.3089 -0.0765
 4019TIP3    H112021   4.215   5.431   4.733  0.0558 -1.7310 -0.9974
 4019TIP3    H212022   4.168   5.388   4.870  0.5030  0.0108 -0.2746
 4020TIP3   OH212023   0.970   2.967   2.524  0.3872 -0.5793 -0.1325
 4020TIP3    H112024   1.015   2.944   2.443 -0.3099  0.6291 -0.8828
 4020TIP3    H212025   1.033   2.946   2.593  1.4680 -0.4677 -1.0556
 4021TIP3   OH212026   2.011   6.247   1.307 -0.2593  0.3850 -0.2320
 4021TIP3    H112027   1.945   6.180   1.288  1.0531 -1.0517  0.0163
 4021TIP3    H212028   2.022   6.244   1.402 -0.1857  0.9692 -0.2174
 4022TIP3   OH212029   5.642   5.135   2.811 -0.0505  0.5681 -0.7529
 4022TIP3    H112030   5.581   5.062   2.821 -1.5793  1.3739 -3.2119
 4022TIP3    H212031   5.728   5.093   2.802 -0.7211 -0.8433 -0.7596
 4023TIP3   OH212032   7.050   1.415   5.769  0.9258  0.4323 -0.2943
 4023TIP3    H112033   6.965   1.411   5.812  0.3885 -3.2477 -1.3263
 4023TIP3    H212034   7.114   1.410   5.840  0.2335  0.9046  0.3704
 4024TIP3   OH212035   2.368   3.780   3.101  0.1761  0.4085 -0.3882
 4024TIP3    H112036   2.423   3.834   3.044  1.3825 -1.3764 -0.9903
 4024TIP3    H212037   2.337   3.709   3.045 -0.6121 -0.0554  0.6010
 4025TIP3   OH212038   6.958   5.694   3.007 -0.2659  0.0288 -0.6175
 4025TIP3    H112039   6.933   5.764   2.947  0.3807  0.8530  0.0448
 4025TIP3    H212040   6.915   5.717   3.089 -0.0379 -0.3421 -0.3951
 4026TIP3   OH212041   6.512   4.462   1.642 -0.5257  0.2618  0.5023
 4026TIP3    H112042   6.568   4.399   1.597 -0.3153  0.3189  0.6813
 4026TIP3    H212043   6.432   4.412   1.662 -0.6577  0.2659 -0.0109
 4027TIP3   OH212044   4.362   0.938   5.139 -0.2211  0.5293 -0.4461
 4027TIP3    H112045   4.408   0.859   5.168  1.6488  1.2222 -1.3459
 4027TIP3    H212046   4.322   0.913   5.055 -1.3282 -0.0059  0.2213
 4028TIP3   OH212047   5.723   5.086   2.235 -0.4018  0.3715  0.2803
 4028TIP3    H112048   5.735   5.121   2.323 -0.0990 -1.7118  1.1308
 4028TIP3    H212049   5.812   5.080   2.200 -0.6228  2.7985 -0.9109
 4029TIP3   OH212050   5.665   4.518   2.276 -0.2025 -0.0462 -0.3870
 4029TIP3    H112051   5.634   4.469   2.352  1.3630 -0.2469  0.1567
 4029TIP3    H212052   5.608   4.594   2.272 -0.5312 -0.2125  0.7799
 4030TIP3   OH212053   4.165   0.420   5.476 -0.1480 -0.3425 -0.2739
 4030TIP3    H112054   4.129   0.338   5.509  2.1558 -1.5750 -0.6082
 4030TIP3    H212055   4.158   0.481   5.550 -0.0192 -1.4639  0.6914
 4031TIP3   OH212056   0.675   6.297   0.243  0.4468  0.5730 -0.0778
 4031TIP3    H112057   0.671   6.213   0.288  0.8459  1.0488  0.8719
 4031TIP3    H212058   0.694   6.361   0.312  1.0362  1.3301 -0.9155
 4032TIP3   OH212059   2.660   2.100   1.862 -0.1564  0.0819 -0.3708
 4032TIP3    H112060   2.688   2.118   1.772  0.3991 -0.6502 -0.3546
 4032TIP3    H212061   2.602   2.025   1.854  0.1535 -0.1917 -0.0876
 4033TIP3   OH212062   6.657   1.814   1.120  0.5944 -0.1004  0.2712
 4033TIP3    H112063   6.724   1.783   1.059  0.8386 -0.7018  0.8296
 4033TIP3    H212064   6.574   1.783   1.083  0.7702 -0.7618  0.4226
 4034TIP3   OH212065   0.423   0.299   3.647 -0.0718 -0.4707 -0.2160
 4034TIP3    H112066   0.501   0.247   3.626  1.8554  2.3522 -0.5717
 4034TIP3    H212067   0.434   0.322   3.739  1.9982  3.4997 -1.2335
 4035TIP3   OH212068   2.419   2.069   4.048 -0.4546 -0.2768  0.1631
 4035TIP3    H112069   2.486   2.067   3.980  0.0352 -3.0684  0.5983
 4035TIP3    H212070   2.441   2.145   4.102  1.6992 -0.4749 -0.3662
 4036TIP3   OH212071   5.070   1.815   4.843 -0.4658  0.8493 -0.1100
 4036TIP3    H112072   5.135   1.759   4.800  1.0983  1.4924  1.3233
 4036TIP3    H212073   5.036   1.761   4.914  0.1311  1.2801  0.5051
 4037TIP3   OH212074   2.453   5.385   0.547 -0.2470 -0.0142 -0.3634
 4037TIP3    H112075   2.389   5.438   0.595  2.7173  1.5714  2.2053
 4037TIP3    H212076   2.438   5.295   0.578 -1.1747  0.3428  0.2536
 4038TIP3   OH212077   0.471   5.020   5.343  0.0855 -0.2236 -0.2811
 4038TIP3    H112078   0.470   5.023   5.439 -1.3013  0.8647 -0.2938
 4038TIP3    H212079   0.537   5.083   5.317  1.4064 -1.4724 -0.0481
 4039TIP3   OH212080   7.029   2.182   4.673  0.5778  0.1994  0.2844
 4039TIP3    H112081   6.964   2.165   4.741  0.1828 -2.2664 -0.5926
 4039TIP3    H212082   7.111   2.148   4.710  0.9751  1.4590  0.6011
 4040TIP3   OH212083   5.706   5.621   5.872  0.1805  0.2560 -0.2367
 4040TIP3    H112084   5.754   5.643   5.952 -0.6404  0.7984  0.1232
 4040TIP3    H212085   5.760   5.555   5.828 -0.6039 -2.1568  2.1212
 4041TIP3   OH212086   3.386   5.153   2.624  0.1492 -0.2759 -0.0021
 4041TIP3    H112087   3.327   5.104   2.566  1.0917  1.3552 -2.4995
 4041TIP3    H212088   3.471   5.111   2.611  0.5872  0.8058 -0.7059
 4042TIP3   OH212089   1.490   5.858   5.413  0.0884  0.3307  0.2568
 4042TIP3    H112090   1.453   5.779   5.452 -0.0320  0.3161  0.1161
 4042TIP3    H212091   1.416   5.919   5.409  0.4738  0.9156  1.5744
 4043TIP3   OH212092   2.461   1.453   3.511  0.0399 -0.1846 -0.2118
 4043TIP3    H112093   2.446   1.401   3.433  0.5768 -0.8462  0.1184
 4043TIP3    H212094   2.434   1.397   3.584  0.2581  0.1377  0.1239
 4044TIP3   OH212095   4.138   4.863   4.777 -0.1957 -0.5888  0.3981
 4044TIP3    H112096   4.208   4.823   4.828  1.4272  0.3935 -0.9453
 4044TIP3    H212097   4.137   4.955   4.805  0.4153 -0.1438 -0.9674
 4045TIP3   OH212098   3.150   4.113   3.899  0.4866  0.2127 -0.2900
 4045TIP3    H112099   3.238   4.150   3.902  1.0999 -1.2147  1.6633
 4045TIP3    H212100   3.156   4.041   3.836  1.2278 -0.9491  1.0544
 4046TIP3   OH212101   6.829   6.663   3.306  0.2147 -0.7767  0.6833
 4046TIP3    H112102   6.799   6.668   3.397  0.0745 -1.5052  0.6829
 4046TIP3    H212103   6.757   6.622   3.259  0.2653 -0.3475  0.2266
 4047TIP3   OH212104   6.312   6.653   2.255 -0.2662 -0.2150  0.6199
 4047TIP3    H112105   6.393   6.643   2.206  0.2614  0.5118  1.3262
 4047TIP3    H212106   6.338   6.650   2.346 -0.8658  1.2429  0.8626
 4048TIP3   OH212107   2.211   3.617   5.540  0.2553  0.4216  0.1198
 4048TIP3    H112108   2.276   3.548   5.555 -1.1440 -0.9664  0.1604
 4048TIP3    H212109   2.227   3.681   5.609  0.5430 -0.7012  1.1320
 4049TIP3   OH212110   4.570   2.358   0.858  0.0196 -0.0278  0.0372
 4049TIP3    H112111   4.649   2.326   0.815  0.2667  1.3810 -0.6325
 4049TIP3    H212112   4.502   2.296   0.833  0.6455 -0.5091 -0.5112
 4050TIP3   OH212113   6.438   2.230   0.665 -0.1941  0.6067 -0.1449
 4050TIP3    H112114   6.467   2.315   0.632  1.3449  0.0702 -0.2350
 4050TIP3    H212115   6.384   2.194   0.595 -1.2262  1.6630  0.0678
 4051TIP3   OH212116   7.144   5.004   5.574 -0.6766  0.4584  0.3751
 4051TIP3    H112117   7.056   4.991   5.540 -0.9095  0.2952  1.0316
 4051TIP3    H212118   7.200   4.999   5.496 -1.0656 -1.1668  0.1544
 4052TIP3   OH212119   4.544   0.281   2.801 -0.7202 -0.5414  0.0039
 4052TIP3    H112120   4.539   0.220   2.727 -1.6742 -1.2998  0.6633
 4052TIP3    H212121   4.504   0.233   2.874  1.8721 -0.5420  1.5286
 4053TIP3   OH212122   4.448   6.500   0.238 -0.4922 -0.1304 -0.4434
 4053TIP3    H112123   4.515   6.568   0.240 -0.6673  0.0437  1.2772
 4053TIP3    H212124   4.388   6.527   0.169 -0.8224  1.7427  0.5230
 4054TIP3   OH212125   1.036   2.448   2.914 -0.2912 -1.1628 -0.4912
 4054TIP3    H112126   0.984   2.522   2.942 -0.1632 -0.7098 -1.4200
 4054TIP3    H212127   1.097   2.433   2.986 -1.7266 -1.7537  0.6399
 4055TIP3   OH212128   4.478   2.072   1.089 -0.3201  0.0110 -0.2545
 4055TIP3    H112129   4.476   2.001   1.154 -2.7885  0.7049  0.5063
 4055TIP3    H212130   4.570   2.099   1.086  0.4740 -2.3470  0.3462
 4056TIP3   OH212131   4.743   6.374   5.378  0.1194 -0.2020  0.1800
 4056TIP3    H112132   4.683   6.344   5.445  0.1643 -0.0054  0.3088
 4056TIP3    H212133   4.729   6.314   5.304  0.1996 -0.5280  0.4288
 4057TIP3   OH212134   6.711   1.494   0.105  0.4297  0.0799 -0.2790
 4057TIP3    H112135   6.646   1.544   0.055 -1.5827 -2.0372  0.0856
 4057TIP3    H212136   6.792   1.543   0.093 -1.1509  2.7567 -0.8979
 4058TIP3   OH212137   1.320   4.194   2.781 -0.1493  0.3014  0.3779
 4058TIP3    H112138   1.415   4.187   2.791 -0.1664 -0.3335  0.1925
 4058TIP3    H212139   1.306   4.189   2.686 -0.4038 -0.3004  0.4388
 4059TIP3   OH212140   4.629   5.385   0.688 -0.4073 -0.0799 -0.0930
 4059TIP3    H112141   4.573   5.383   0.611 -0.3145  0.9172 -0.2072
 4059TIP3    H212142   4.572   5.420   0.757 -0.3612 -0.5292  0.1714
 4060TIP3   OH212143   0.657   3.855   1.668  0.6697  0.2014 -0.3397
 4060TIP3    H112144   0.626   3.911   1.739  2.2627 -0.1617  0.6889
 4060TIP3    H212145   0.683   3.916   1.599 -0.2402  0.5828 -0.3705
 4061TIP3   OH212146   5.210   1.343   3.421  0.4723  0.0067 -0.2679
 4061TIP3    H112147   5.170   1.427   3.398 -0.4271  0.3959  2.3359
 4061TIP3    H212148   5.295   1.367   3.457  0.0635 -0.1090  0.8268
 4062TIP3   OH212149   2.542   3.906   5.308  0.5801 -0.2448  0.2903
 4062TIP3    H112150   2.581   3.937   5.390 -1.0685  1.0388  0.6349
 4062TIP3    H212151   2.584   3.822   5.293  1.9970  0.1483  1.6716
 4063TIP3   OH212152   4.575   0.625   2.988 -0.3354 -0.3813 -0.7956
 4063TIP3    H112153   4.552   0.542   3.031  2.8025  0.0999  2.3057
 4063TIP3    H212154   4.618   0.598   2.907 -0.2219 -1.7592 -0.3207
 4064TIP3   OH212155   2.676   2.628   1.567 -0.6706 -0.4823 -0.4882
 4064TIP3    H112156   2.749   2.667   1.519 -1.6425 -0.1920 -1.7838
 4064TIP3    H212157   2.718   2.577   1.637  0.7593 -0.3645 -1.2214
 4065TIP3   OH212158   3.167   4.544   1.425  0.1528 -0.2103  0.3784
 4065TIP3    H112159   3.218   4.473   1.387  0.0311  1.6417 -3.7625
 4065TIP3    H212160   3.230   4.614   1.440 -0.2141 -0.1004  1.5220
 4066TIP3   OH212161   2.832   0.954   3.295 -0.6488 -0.0446 -0.2913
 4066TIP3    H112162   2.754   1.009   3.295 -1.5004 -1.1906  1.3825
 4066TIP3    H212163   2.807   0.875   3.343  1.1825 -0.9741 -0.7510
 4067TIP3   OH212164   5.837   0.032   5.175  0.5476 -1.0034  0.0506
 4067TIP3    H112165   5.838   0.119   5.216  0.4965 -0.6046 -0.7777
 4067TIP3    H212166   5.755   0.030   5.125  0.0474 -1.9176  0.8627
 4068TIP3   OH212167   4.231   2.730   3.005 -0.2305 -0.1981 -0.4311
 4068TIP3    H112168   4.297   2.662   3.015  0.1583 -0.1781 -2.3263
 4068TIP3    H212169   4.221   2.768   3.092 -0.5402 -2.7178  0.7172
 4069TIP3   OH212170   2.403   0.452   5.007  0.0571 -0.0273 -0.1687
 4069TIP3    H112171   2.467   0.382   5.022  1.8131  1.8689  2.0110
 4069TIP3    H212172   2.438   0.501   4.932  1.3395  1.0448  1.0590
 4070TIP3   OH212173   2.444   1.526   2.394  0.3056  0.2294 -0.0925
 4070TIP3    H112174   2.526   1.570   2.416  1.0998 -0.8324 -0.7887
 4070TIP3    H212175   2.460   1.434   2.416 -0.3285 -0.1595 -1.1729
 4071TIP3   OH212176   0.128   3.073   0.717  0.0744  0.2834 -0.4374
 4071TIP3    H112177   0.057   3.109   0.770  0.1050 -0.4980  0.1537
 4071TIP3    H212178   0.083   3.027   0.646 -0.1932 -2.2801  1.2219
 4072TIP3   OH212179   0.497   4.325   0.410 -0.6530  0.2938 -0.2569
 4072TIP3    H112180   0.474   4.282   0.328  0.6198  0.0250 -0.4861
 4072TIP3    H212181   0.546   4.259   0.459 -0.0925  0.9474  0.0781
 4073TIP3   OH212182   6.922   3.135   2.350  0.5464 -0.0182 -0.2355
 4073TIP3    H112183   7.008   3.139   2.307  0.1250 -1.2781 -1.2591
 4073TIP3    H212184   6.911   3.043   2.371 -0.3469  0.2207  0.3626
 4074TIP3   OH212185   1.968   3.857   3.215 -0.7145 -0.2988 -0.2147
 4074TIP3    H112186   1.910   3.889   3.146 -2.2415 -0.9915  0.6960
 4074TIP3    H212187   1.956   3.762   3.214 -0.5122 -0.3459  0.7699
 4075TIP3   OH212188   0.920   2.620   1.388 -0.0850  0.4355  0.2144
 4075TIP3    H112189   0.977   2.575   1.450  1.4516 -0.9093 -2.0035
 4075TIP3    H212190   0.972   2.695   1.359 -0.9923  1.3429  0.8889
 4076TIP3   OH212191   3.175   6.376   4.515  0.4009  0.0786 -0.9085
 4076TIP3    H112192   3.252   6.432   4.508  0.8745 -0.2869  0.9157
 4076TIP3    H212193   3.101   6.437   4.514  0.9040  0.7983  0.9209
 4077TIP3   OH212194   5.838   5.405   5.741  0.7190  0.0905 -0.6490
 4077TIP3    H112195   5.893   5.377   5.667 -0.2208 -1.4411 -0.8118
 4077TIP3    H212196   5.789   5.327   5.765  0.7221  0.6563  1.3860
 4078TIP3   OH212197   1.963   4.404   5.034  0.3849 -0.4919  0.2451
 4078TIP3    H112198   2.019   4.343   4.985  0.5372  0.9339 -1.4751
 4078TIP3    H212199   1.899   4.434   4.969 -1.2398 -0.6688  1.6992
 4079TIP3   OH212200   4.118   0.965   4.140  0.7140  0.1008 -0.4556
 4079TIP3    H112201   4.199   0.957   4.088  1.3954 -1.6649  0.7770
 4079TIP3    H212202   4.147   1.002   4.223 -0.2444  2.1588 -0.9817
 4080TIP3   OH212203   0.028   5.510   4.314 -0.3870 -0.0571  0.2849
 4080TIP3    H112204  -0.034   5.580   4.294  1.1353  0.9102 -1.3616
 4080TIP3    H212205   0.030   5.457   4.234 -1.3260 -1.8894  1.4166
 4081TIP3   OH212206   0.219   6.164   1.668 -0.3180 -0.0298 -0.1080
 4081TIP3    H112207   0.175   6.099   1.722 -1.0088 -0.0924 -0.7304
 4081TIP3    H212208   0.310   6.134   1.664 -0.5043 -0.6347  0.1002
 4082TIP3   OH212209   3.857   6.436   1.252  0.4185  0.0336  0.0303
 4082TIP3    H112210   3.800   6.358   1.248 -0.7880  0.8714  0.3176
 4082TIP3    H212211   3.898   6.432   1.338 -0.8370  0.4939  0.6846
 4083TIP3   OH212212   1.236   2.378   0.713 -0.0070  0.2900 -0.1737
 4083TIP3    H112213   1.157   2.339   0.751  0.5917 -3.0068 -1.9140
 4083TIP3    H212214   1.209   2.409   0.626  0.6663 -1.4557 -1.0485
 4084TIP3   OH212215   5.989   6.435   3.017 -0.2317  0.1147 -0.0069
 4084TIP3    H112216   6.006   6.402   3.105 -2.6802  1.3067  0.9999
 4084TIP3    H212217   5.979   6.530   3.029 -1.0748  0.2321 -1.4827
 4085TIP3   OH212218   3.368   0.456   5.752 -0.0028 -0.7754  0.0320
 4085TIP3    H112219   3.388   0.537   5.800  0.5572 -0.6456 -0.4073
 4085TIP3    H212220   3.445   0.441   5.697 -0.0736 -1.6398  0.1438
 4086TIP3   OH212221   2.670   0.764   3.816  0.1057  0.2734 -0.3907
 4086TIP3    H112222   2.695   0.777   3.907  2.5206 -0.2321 -0.9117
 4086TIP3    H212223   2.714   0.835   3.769 -0.5002  0.0894 -1.2579
 4087TIP3   OH212224   4.731   0.586   2.265 -0.5337  0.8245  0.0143
 4087TIP3    H112225   4.696   0.502   2.237 -0.7821  0.6067  0.9434
 4087TIP3    H212226   4.764   0.627   2.185 -1.0537  0.1494 -0.5492
 4088TIP3   OH212227   5.844   2.253   1.453  0.0537 -0.0806 -0.4234
 4088TIP3    H112228   5.761   2.237   1.410 -0.9770  0.6649  1.1827
 4088TIP3    H212229   5.829   2.230   1.545  1.7546 -0.3412 -0.1626
 4089TIP3   OH212230   4.388   3.197   4.949 -0.7962 -0.0269  0.2493
 4089TIP3    H112231   4.385   3.101   4.954  0.4712 -0.2271 -1.4704
 4089TIP3    H212232   4.457   3.214   4.884 -2.7213  1.9796 -1.3974
 4090TIP3   OH212233   4.812   5.846   3.132  1.1263 -0.0234 -0.4099
 4090TIP3    H112234   4.809   5.787   3.057 -5.5264  0.2431 -0.8935
 4090TIP3    H212235   4.843   5.791   3.204 -1.4693 -3.3035 -1.5367
 4091TIP3   OH212236   5.274   1.141   1.610  0.2611  0.2186  0.1813
 4091TIP3    H112237   5.186   1.158   1.645 -0.1384 -0.1687 -0.6238
 4091TIP3    H212238   5.260   1.125   1.517  0.6073 -3.9413  0.6543
 4092TIP3   OH212239   5.478   0.633   0.634 -0.8599  0.3624  0.2393
 4092TIP3    H112240   5.392   0.603   0.663 -0.7788  0.7854  0.9670
 4092TIP3    H212241   5.516   0.559   0.588 -1.0893 -0.2934  1.0775
 4093TIP3   OH212242   4.030   2.271   2.297  0.1395  0.1872  0.3415
 4093TIP3    H112243   3.937   2.274   2.276  0.1713  2.9623  0.1860
 4093TIP3    H212244   4.033   2.274   2.392  0.0856 -0.9259  0.3877
 4094TIP3   OH212245   7.225   1.919   3.785 -0.2059  0.1124  0.0025
 4094TIP3    H112246   7.176   1.966   3.718  1.4435  0.1971 -1.1796
 4094TIP3    H212247   7.194   1.829   3.778 -0.8146  0.3231 -0.1150
 4095TIP3   OH212248   5.655   2.068   0.847 -0.1786 -0.4846 -0.1338
 4095TIP3    H112249   5.572   2.114   0.858 -1.0102 -1.8487 -0.5351
 4095TIP3    H212250   5.636   1.995   0.789  1.0902 -1.3606  0.4801
 4096TIP3   OH212251   1.131   5.829   1.846  0.3619 -0.3121 -0.5154
 4096TIP3    H112252   1.095   5.797   1.928  1.9585  0.7507  0.6550
 4096TIP3    H212253   1.116   5.758   1.784 -1.5578 -0.8333  0.4633
 4097TIP3   OH212254   1.683   0.566   1.652  0.0583 -0.0550 -0.2395
 4097TIP3    H112255   1.691   0.629   1.581 -0.7201 -0.0433 -0.3253
 4097TIP3    H212256   1.721   0.486   1.618  0.2947  0.1408 -0.4313
 4098TIP3   OH212257   4.565   5.696   3.008  0.6645 -0.7449 -0.2915
 4098TIP3    H112258   4.656   5.719   2.986  0.5953 -0.2394 -0.0643
 4098TIP3    H212259   4.522   5.686   2.924  1.3338 -2.7116 -0.4572
 4099TIP3   OH212260   5.018   1.277   1.151  0.5507 -0.0733  0.1241
 4099TIP3    H112261   5.005   1.185   1.130 -1.2561  0.2432 -0.3160
 4099TIP3    H212262   5.111   1.292   1.138  0.8674 -1.8093  0.1374
 4100TIP3   OH212263   3.080   5.630   2.957  0.0631 -0.8090  0.6662
 4100TIP3    H112264   3.030   5.711   2.967  0.3639 -0.6085  0.5446
 4100TIP3    H212265   3.115   5.612   3.044 -0.4750 -1.1178  0.8230
 4101TIP3   OH212266   3.453   2.798   0.830 -0.1462 -0.6997 -0.1488
 4101TIP3    H112267   3.538   2.801   0.874  0.2458  0.0757 -0.9235
 4101TIP3    H212268   3.474   2.774   0.739 -0.7969 -0.9129 -0.2453
 4102TIP3   OH212269   0.431   2.411   2.047  0.1111 -0.1487 -0.7154
 4102TIP3    H112270   0.409   2.483   2.106  2.5538  0.3747 -0.3346
 4102TIP3    H212271   0.354   2.354   2.049  0.0213 -0.1192  2.9641
 4103TIP3   OH212272   1.497   5.886   0.814 -0.5445 -0.0645 -0.1667
 4103TIP3    H112273   1.516   5.800   0.776  0.6410 -0.7531  1.8349
 4103TIP3    H212274   1.420   5.871   0.869 -0.1126  0.0543  0.4760
 4104TIP3   OH212275   0.488   2.641   3.332  0.1937 -0.6194  0.5029
 4104TIP3    H112276   0.428   2.653   3.259  0.4814 -0.9103  0.2146
 4104TIP3    H212277   0.499   2.546   3.339  1.2855 -0.5520 -0.0115
 4105TIP3   OH212278   6.118   1.117   3.574  0.4710 -0.0076  0.1227
 4105TIP3    H112279   6.046   1.169   3.607  0.2175 -1.5080  2.1526
 4105TIP3    H212280   6.077   1.042   3.531  0.8292 -0.1159 -0.0433
 4106TIP3   OH212281   2.795   3.391   5.485 -0.5817  0.1012 -0.5438
 4106TIP3    H112282   2.761   3.323   5.544  0.1073 -1.9531 -2.3983
 4106TIP3    H212283   2.879   3.357   5.456  0.3171  2.3221 -0.6846
 4107TIP3   OH212284   2.301   4.484   2.178 -0.4472 -0.0286 -0.3701
 4107TIP3    H112285   2.332   4.574   2.181  0.8507 -0.4802  0.6737
 4107TIP3    H212286   2.209   4.489   2.203 -0.5451  1.0635 -0.9304
 4108TIP3   OH212287   1.668   0.610   5.503  0.5251  0.3215  0.5370
 4108TIP3    H112288   1.644   0.660   5.580 -2.5433 -0.9622  0.5470
 4108TIP3    H212289   1.704   0.528   5.537 -0.9242 -0.2876  0.6550
 4109TIP3   OH212290   0.449   6.171   5.300 -0.1509 -0.2537 -0.0962
 4109TIP3    H112291   0.478   6.085   5.269  2.8256  1.0041 -1.2520
 4109TIP3    H212292   0.374   6.153   5.356 -0.3918 -3.4678 -1.2430
 4110TIP3   OH212293   3.824   5.876   1.410 -0.2536  0.4505 -0.4689
 4110TIP3    H112294   3.829   5.833   1.496 -1.2278  1.7692  0.2977
 4110TIP3    H212295   3.885   5.950   1.417  0.0527  0.2602 -1.1040
 4111TIP3   OH212296   1.785   2.486   0.640 -0.3775  0.0039 -0.1944
 4111TIP3    H112297   1.699   2.450   0.618 -0.7121  1.3175 -1.1477
 4111TIP3    H212298   1.766   2.575   0.668  0.4028 -0.5430  2.3277
 4112TIP3   OH212299   6.821   4.900   3.546 -0.3525  0.2263  0.3926
 4112TIP3    H112300   6.728   4.897   3.526 -0.2800  1.1009 -0.1682
 4112TIP3    H212301   6.839   4.993   3.563  0.1003 -0.1527  2.1171
 4113TIP3   OH212302   2.180   0.773   0.210  0.1560 -0.0527  0.5345
 4113TIP3    H112303   2.179   0.858   0.253  2.4265  0.5220 -0.3730
 4113TIP3    H212304   2.249   0.780   0.144 -0.4008 -2.2172 -0.3912
 4114TIP3   OH212305   0.090   1.335   2.573 -0.6525 -0.0576 -0.1260
 4114TIP3    H112306   0.023   1.399   2.551 -1.0694 -0.2319  0.6029
 4114TIP3    H212307   0.047   1.250   2.563 -0.1849 -0.2269 -0.8120
 4115TIP3   OH212308   3.689   5.842   2.723  0.8512 -0.3574  0.1698
 4115TIP3    H112309   3.747   5.768   2.705  1.6397 -0.8650  3.9244
 4115TIP3    H212310   3.618   5.805   2.775 -0.9361  0.9070 -1.2545
 4116TIP3   OH212311   6.761   1.137   0.629  0.0362  0.1610  0.1358
 4116TIP3    H112312   6.711   1.068   0.673  1.3808  0.3234  2.0502
 4116TIP3    H212313   6.742   1.216   0.679 -0.0014  0.8018 -0.8697
 4117TIP3   OH212314   5.908   0.712   0.669 -0.5426  0.1257  0.2611
 4117TIP3    H112315   5.936   0.688   0.581  0.2379  1.8847 -0.0094
 4117TIP3    H212316   5.893   0.628   0.713  0.3182 -0.8056 -1.1352
 4118TIP3   OH212317   5.192   1.597   3.776 -0.5747 -0.4403  0.4646
 4118TIP3    H112318   5.272   1.630   3.816  0.3643  1.3211 -2.5959
 4118TIP3    H212319   5.163   1.528   3.836  2.3605 -0.1460  2.4586
 4119TIP3   OH212320   6.394   2.632   1.865  0.0202  0.4489  0.2072
 4119TIP3    H112321   6.422   2.695   1.931 -0.1623 -0.2562  0.9735
 4119TIP3    H212322   6.300   2.646   1.857 -0.1402 -0.1684  0.8798
 4120TIP3   OH212323   0.663   4.887   0.224  0.1104 -0.0788 -0.3564
 4120TIP3    H112324   0.575   4.874   0.261 -0.7907 -0.2043 -2.4020
 4120TIP3    H212325   0.716   4.913   0.299 -1.8205  0.6822  0.8531
 4121TIP3   OH212326   1.265   5.752   2.424 -0.3175 -0.1093 -0.7397
 4121TIP3    H112327   1.232   5.746   2.514  0.9450  2.4397  0.0133
 4121TIP3    H212328   1.202   5.704   2.372 -2.1528 -0.0801  1.2897
 4122TIP3   OH212329   1.276   0.237   3.388  0.2073  0.6722  0.1484
 4122TIP3    H112330   1.238   0.166   3.439 -1.7983  0.3720 -1.6603
 4122TIP3    H212331   1.352   0.198   3.346 -0.6542 -0.3192 -0.5248
 4123TIP3   OH212332   3.556   6.643   0.771  0.6059 -0.3947 -0.0578
 4123TIP3    H112333   3.569   6.563   0.719 -1.9020 -1.4023  0.6809
 4123TIP3    H212334   3.480   6.623   0.826 -0.4407  2.6920 -0.1958
 4124TIP3   OH212335   3.099   0.257   0.194  0.4227 -0.1840  0.3466
 4124TIP3    H112336   3.013   0.296   0.190  0.0087 -1.0905  0.1193
 4124TIP3    H212337   3.146   0.308   0.260  0.2164  1.2438 -0.5829
 4125TIP3   OH212338   4.730   3.264   0.065 -0.1636  0.0660 -0.1253
 4125TIP3    H112339   4.721   3.355   0.094  0.2343  0.2265 -0.5041
 4125TIP3    H212340   4.807   3.232   0.112 -1.9913 -1.0137  2.3628
 4126TIP3   OH212341   0.375   0.415   1.686 -0.1234  0.3472  0.2148
 4126TIP3    H112342   0.364   0.506   1.659 -1.2627 -0.0334 -0.6565
 4126TIP3    H212343   0.464   0.392   1.658 -0.4424  0.6781 -1.1211
 4127TIP3   OH212344   3.654   1.551   1.505 -0.2296  0.2298 -0.4757
 4127TIP3    H112345   3.676   1.600   1.585 -0.7403  0.1366 -0.2715
 4127TIP3    H212346   3.738   1.522   1.470  0.1252  1.6531 -0.8551
 4128TIP3   OH212347   4.983   6.412   1.693  0.3797  0.3343  0.2475
 4128TIP3    H112348   4.966   6.497   1.733 -1.0857 -0.2693  1.0134
 4128TIP3    H212349   5.061   6.379   1.739  0.4507  0.8996  0.5452
 4129TIP3   OH212350   2.529   3.252   0.348 -0.1801 -0.3311  0.0896
 4129TIP3    H112351   2.502   3.344   0.357 -1.8490 -0.6876 -0.8518
 4129TIP3    H212352   2.584   3.251   0.270 -0.8600 -0.2561 -0.3990
 4130TIP3   OH212353   2.206   6.489   4.149  0.1496 -0.6494 -0.1269
 4130TIP3    H112354   2.242   6.519   4.233 -0.1637  1.4340 -0.6705
 4130TIP3    H212355   2.112   6.504   4.156  0.2101  0.3559 -1.1225
 4131TIP3   OH212356   2.279   0.077   1.911 -0.0460  0.3740 -0.1052
 4131TIP3    H112357   2.240   0.022   1.844  0.4109 -1.2407  0.9059
 4131TIP3    H212358   2.372   0.079   1.888 -0.1171  1.1172 -0.3765
 4132TIP3   OH212359   2.509   0.390   4.089  0.3728 -0.4301  0.4956
 4132TIP3    H112360   2.451   0.463   4.069  0.6479  0.5266  2.8912
 4132TIP3    H212361   2.597   0.423   4.069  0.3335 -0.9131 -0.5241
 4133TIP3   OH212362   3.996   6.536   3.343 -0.3860  0.2297  0.5872
 4133TIP3    H112363   3.987   6.617   3.393 -1.4608  1.3506 -1.3285
 4133TIP3    H212364   3.932   6.477   3.382 -1.7226  1.3281  0.1179
 4134TIP3   OH212365   3.361   5.872   3.674 -0.4671  0.1541  0.2312
 4134TIP3    H112366   3.303   5.944   3.700  0.9888  0.6687  2.2930
 4134TIP3    H212367   3.446   5.896   3.710  0.3376 -2.0476 -0.0820
 4135TIP3   OH212368   6.845   2.693   3.315  0.2663  0.2125 -0.0504
 4135TIP3    H112369   6.908   2.727   3.378  0.6967  2.4928 -1.5882
 4135TIP3    H212370   6.879   2.720   3.230 -1.6562 -0.4434 -1.0908
 4136TIP3   OH212371   4.811   5.951   5.154  0.0881 -0.1491  0.4001
 4136TIP3    H112372   4.844   6.016   5.216 -0.6565  0.2176  0.4250
 4136TIP3    H212373   4.716   5.957   5.162 -0.0012 -0.5532 -0.3110
 4137TIP3   OH212374   0.011   5.319   3.679 -0.3558  0.1967 -0.3505
 4137TIP3    H112375  -0.071   5.280   3.645  1.1268 -2.2773 -1.3929
 4137TIP3    H212376   0.073   5.308   3.607  1.0364  1.5807  0.6055
 4138TIP3   OH212377   3.030   5.486   2.015  0.4923  0.1477  0.1487
 4138TIP3    H112378   3.081   5.405   2.005 -0.2873 -0.3911  0.3939
 4138TIP3    H212379   3.079   5.537   2.080  0.5679 -0.4854  0.6031
 4139TIP3   OH212380   0.299   3.309   2.493  0.0740 -0.7434 -0.9376
 4139TIP3    H112381   0.278   3.233   2.548 -2.8679 -0.7202 -1.8747
 4139TIP3    H212382   0.335   3.373   2.553 -1.0625 -1.4813  0.5913
 4140TIP3   OH212383   2.846   5.788   0.289  0.1643 -0.2813 -0.5481
 4140TIP3    H112384   2.932   5.829   0.303  0.0787  0.2816 -1.5866
 4140TIP3    H212385   2.865   5.695   0.279  0.6881 -0.1394 -0.9425
 4141TIP3   OH212386   0.100   2.954   1.125 -0.0654 -0.3038 -0.1050
 4141TIP3    H112387   0.053   3.038   1.121  0.8289  0.2889  1.1523
 4141TIP3    H212388   0.144   2.947   1.041 -0.4086  0.3437 -0.3499
 4142TIP3   OH212389   5.132   1.800   4.093 -0.0091  0.0019 -0.5103
 4142TIP3    H112390   5.141   1.892   4.070  0.5153  0.4662  1.3475
 4142TIP3    H212391   5.074   1.763   4.026 -0.8510  1.8505 -0.8474
 4143TIP3   OH212392   3.873   6.159   4.257 -0.1721 -0.1479 -0.0766
 4143TIP3    H112393   3.885   6.230   4.194 -0.1295 -0.4520 -0.4147
 4143TIP3    H212394   3.905   6.195   4.340  1.0633 -0.1849 -0.5031
 4144TIP3   OH212395   0.563   5.153   4.162 -0.0260  0.7604 -0.0917
 4144TIP3    H112396   0.514   5.127   4.084  1.5283 -0.5275 -0.6961
 4144TIP3    H212397   0.501   5.205   4.213 -1.4793  0.5688 -1.5754
 4145TIP3   OH212398   3.193   2.619   5.048 -0.1203  0.3079 -0.2693
 4145TIP3    H112399   3.122   2.649   4.992 -0.5684  1.9011  1.0703
 4145TIP3    H212400   3.259   2.687   5.043  0.6781 -0.4496 -0.3340
 4146TIP3   OH212401   1.022   0.699   4.402 -0.6743 -0.1098 -0.0040
 4146TIP3    H112402   0.973   0.617   4.398  0.0400 -0.4843 -1.2937
 4146TIP3    H212403   0.975   0.757   4.342  0.1381 -0.3106 -0.8518
 4147TIP3   OH212404   6.465   1.101   0.480 -0.0016 -0.2202  0.7850
 4147TIP3    H112405   6.373   1.093   0.506 -0.4203 -0.1433 -0.6027
 4147TIP3    H212406   6.513   1.107   0.563 -1.1740 -0.9656  1.5421
 4148TIP3   OH212407   3.734   5.655   3.846 -0.2349  0.3697 -0.1221
 4148TIP3    H112408   3.801   5.601   3.804  0.0066 -0.4770  1.2826
 4148TIP3    H212409   3.713   5.608   3.927 -0.8107  1.8445  0.6199
 4149TIP3   OH212410   4.291   6.776   4.896  0.0408 -0.4576 -0.2158
 4149TIP3    H112411   4.341   6.756   4.818  0.3321 -0.9781  0.0986
 4149TIP3    H212412   4.329   6.858   4.929  0.9921 -1.0759  0.2683
 4150TIP3   OH212413   3.511   5.184   4.759 -0.2600  0.1097  0.1075
 4150TIP3    H112414   3.518   5.279   4.749  0.8570 -0.1407 -2.0411
 4150TIP3    H212415   3.436   5.160   4.705  0.1248 -0.3313 -0.2356
 4151TIP3   OH212416   0.908   4.206   1.782  0.5108  0.1236 -0.1241
 4151TIP3    H112417   0.953   4.122   1.784 -2.2400 -1.5751 -1.9385
 4151TIP3    H212418   0.866   4.212   1.868  1.5973  0.2048  0.4160
 4152TIP3   OH212419   0.209   3.299   2.078 -0.5477 -0.3408 -0.2972
 4152TIP3    H112420   0.265   3.334   2.009 -0.4424 -2.5014 -1.4128
 4152TIP3    H212421   0.157   3.231   2.034 -1.3877 -0.9212  1.4883
 4153TIP3   OH212422   2.028   4.578   0.721  0.4390  0.2299  0.0082
 4153TIP3    H112423   1.950   4.539   0.682  1.4305 -1.8551  0.0081
 4153TIP3    H212424   2.028   4.668   0.688 -0.4143 -0.5441 -2.3065
 4154TIP3   OH212425   2.309   2.331   1.657  0.0072  0.0570 -0.5686
 4154TIP3    H112426   2.383   2.341   1.597 -0.7017 -0.4146 -1.5576
 4154TIP3    H212427   2.348   2.299   1.738  0.9670  0.4860 -0.8391
 4155TIP3   OH212428   4.756   2.048   3.833  0.1186 -0.5975  0.7008
 4155TIP3    H112429   4.722   2.134   3.857  2.5884 -0.2079  3.4959
 4155TIP3    H212430   4.731   1.991   3.905  0.3037 -1.7143 -0.0883
 4156TIP3   OH212431   1.879   3.590   5.316 -0.4899  0.1845  0.4141
 4156TIP3    H112432   1.829   3.508   5.304 -3.1077  1.9691 -2.8752
 4156TIP3    H212433   1.969   3.566   5.293 -1.1095 -1.8743 -0.1701
 4157TIP3   OH212434   4.791   0.796   3.097 -0.5171 -0.3179 -0.3332
 4157TIP3    H112435   4.857   0.738   3.058 -0.1680 -0.7300  0.8369
 4157TIP3    H212436   4.725   0.806   3.029  0.3265 -0.6074 -1.2128
 4158TIP3   OH212437   0.998   0.386   2.738  0.1088 -0.0139  0.2772
 4158TIP3    H112438   1.071   0.341   2.695  1.1275  0.3675  1.5389
 4158TIP3    H212439   0.975   0.458   2.679  1.9048  0.9012  0.6351
 4159TIP3   OH212440   3.238   0.054   0.086  0.2405 -0.2840 -0.0601
 4159TIP3    H112441   3.184   0.013   0.018 -0.7026 -0.3497  0.7049
 4159TIP3    H212442   3.178   0.114   0.131  0.1438 -2.0424  2.3223
 4160TIP3   OH212443   0.944   6.423   3.875 -0.2441  0.0245 -0.1553
 4160TIP3    H112444   0.852   6.437   3.851 -0.8664  1.3120  2.5339
 4160TIP3    H212445   0.946   6.336   3.914 -0.7557  0.6329  1.3136
 4161TIP3   OH212446   3.720   0.267   3.109  0.1823 -0.5642  0.1499
 4161TIP3    H112447   3.697   0.174   3.105 -0.8412 -0.3090  0.0240
 4161TIP3    H212448   3.779   0.280   3.035  1.8973 -1.5202  1.2798
 4162TIP3   OH212449   6.275   3.304   3.329 -0.1147 -0.2338 -0.7411
 4162TIP3    H112450   6.293   3.338   3.417  0.3383  0.2834 -1.0247
 4162TIP3    H212451   6.234   3.219   3.344  0.6635 -0.5023 -0.0378
 4163TIP3   OH212452   1.641   3.648   1.575  0.0683  0.3232 -0.3912
 4163TIP3    H112453   1.591   3.688   1.504  0.7058  1.3036 -0.3073
 4163TIP3    H212454   1.654   3.719   1.638 -0.5064 -0.5369  0.7304
 4164TIP3   OH212455   3.848   5.468   3.438 -0.2133  0.0782 -0.0891
 4164TIP3    H112456   3.813   5.430   3.519 -0.5964  0.3522 -0.1254
 4164TIP3    H212457   3.784   5.446   3.371  0.4088 -0.7002 -0.4536
 4165TIP3   OH212458   4.676   4.774   3.207  0.1066  0.6218  0.2710
 4165TIP3    H112459   4.584   4.754   3.191  0.2395 -0.0414  0.2854
 4165TIP3    H212460   4.711   4.694   3.246  0.8711  0.5921 -0.4558
 4166TIP3   OH212461   2.679   4.556   1.204  0.6608  0.7651 -0.0897
 4166TIP3    H112462   2.704   4.471   1.240 -0.1251  0.4278 -0.3128
 4166TIP3    H212463   2.595   4.576   1.244  0.2710  0.8801 -0.9318
 4167TIP3   OH212464   6.927   2.754   2.786 -0.0436 -0.0754 -0.0238
 4167TIP3    H112465   6.940   2.703   2.705 -1.6756 -1.0267  0.2823
 4167TIP3    H212466   6.919   2.844   2.756  2.9192  0.1247 -0.5764
 4168TIP3   OH212467   4.412   5.980   1.901 -0.1807  0.3504 -0.4789
 4168TIP3    H112468   4.340   6.012   1.847 -0.5557  1.5278  0.6727
 4168TIP3    H212469   4.386   5.891   1.926  0.2553 -0.4370 -2.6217
 4169TIP3   OH212470   6.422   3.499   0.900 -0.2848 -0.3574  0.4432
 4169TIP3    H112471   6.344   3.485   0.953 -0.6128 -1.1487 -0.2219
 4169TIP3    H212472   6.448   3.589   0.918 -1.6121  0.0652  0.3301
 4170TIP3   OH212473   3.824   6.652   5.607 -0.6610  0.0678  0.0434
 4170TIP3    H112474   3.743   6.642   5.556  0.1548  0.6484 -1.4066
 4170TIP3    H212475   3.837   6.746   5.612  0.0238 -0.0290  0.1070
 4171TIP3   OH212476   6.907   4.238   4.024 -0.3255  0.1129 -0.0442
 4171TIP3    H112477   6.987   4.282   3.996 -0.7278 -0.4678 -2.3864
 4171TIP3    H212478   6.874   4.292   4.096  0.4806  2.2450 -1.1712
 4172TIP3   OH212479   0.330   1.224   0.639 -0.1166  0.1338 -0.4717
 4172TIP3    H112480   0.315   1.162   0.567  1.2756  0.6247 -1.2246
 4172TIP3    H212481   0.410   1.192   0.681 -1.9085 -1.2963  2.1776
 4173TIP3   OH212482   3.969   1.372   0.365  0.3430 -0.4921  1.0253
 4173TIP3    H112483   3.955   1.419   0.283  0.5850 -1.4221  0.4403
 4173TIP3    H212484   3.888   1.386   0.415 -0.5102 -1.3379 -0.0808
 4174TIP3   OH212485   2.360   2.185   2.655 -0.2370 -0.1182  0.2766
 4174TIP3    H112486   2.430   2.237   2.616 -0.0852 -1.9134 -2.0948
 4174TIP3    H212487   2.377   2.096   2.624 -2.4393 -0.9625  1.2844
 4175TIP3   OH212488   2.337   3.708   5.099 -0.0386 -0.0297 -0.1599
 4175TIP3    H112489   2.320   3.649   5.026  0.5601 -0.5739  0.1331
 4175TIP3    H212490   2.431   3.701   5.114 -0.4418 -1.6294  2.0794
 4176TIP3   OH212491   4.442   3.444   1.207 -0.1359  0.3474 -0.4177
 4176TIP3    H112492   4.438   3.348   1.208 -0.5937  0.3605 -0.6071
 4176TIP3    H212493   4.532   3.464   1.181 -0.3846 -0.0456 -1.6700
 4177TIP3   OH212494   4.269   3.250   4.000  0.0687  0.6314 -0.3497
 4177TIP3    H112495   4.256   3.163   4.038  2.4308  0.5880  0.5156
 4177TIP3    H212496   4.237   3.311   4.067  0.0089  0.4741 -0.2346
 4178TIP3   OH212497   0.261   3.228   3.193 -0.3606  0.3886  0.4524
 4178TIP3    H112498   0.355   3.245   3.204  0.1966 -0.5687 -2.1735
 4178TIP3    H212499   0.222   3.315   3.192  0.6057  0.8453  0.7560
 4179TIP3   OH212500   5.296   0.538   4.463  0.2784  0.2839 -0.2760
 4179TIP3    H112501   5.234   0.601   4.426 -0.0153 -0.4280 -1.0353
 4179TIP3    H212502   5.242   0.466   4.494  0.5418  0.7424  1.3658
 4180TIP3   OH212503   0.699   6.044   5.475  0.2585  0.5009  0.1832
 4180TIP3    H112504   0.689   6.029   5.381  1.4229  0.7733 -0.0053
 4180TIP3    H212505   0.611   6.033   5.511 -0.3093  0.9344 -1.0123
 4181TIP3   OH212506   0.442   4.159   2.560 -0.6446 -0.2522 -0.6664
 4181TIP3    H112507   0.408   4.076   2.527 -0.3121 -0.2654 -0.9835
 4181TIP3    H212508   0.525   4.137   2.601 -0.0650  0.0603 -1.6348
 4182TIP3   OH212509   1.229   4.898   2.563  0.9414  0.2123 -0.1975
 4182TIP3    H112510   1.189   4.962   2.504 -0.9871 -0.3710  0.4089
 4182TIP3    H212511   1.298   4.948   2.608  1.5004  1.0352 -1.8596
 4183TIP3   OH212512   6.377   4.488   5.803  0.2385 -0.5754 -0.5886
 4183TIP3    H112513   6.404   4.515   5.891 -3.3415 -2.3935  1.2917
 4183TIP3    H212514   6.384   4.567   5.750  1.2192  0.9397  1.6578
 4184TIP3   OH212515   6.715   5.656   3.211  0.1845 -0.3319  0.0780
 4184TIP3    H112516   6.668   5.727   3.166  1.6173 -0.4830 -1.8080
 4184TIP3    H212517   6.669   5.577   3.186  1.4667 -0.5051 -1.9734
 4185TIP3   OH212518   5.885   1.942   4.628  0.8041 -0.3805  0.4215
 4185TIP3    H112519   5.910   2.033   4.641  0.1226 -0.2129  0.6146
 4185TIP3    H212520   5.922   1.918   4.543 -0.1245  0.4912 -0.2526
 4186TIP3   OH212521   4.503   1.557   3.621  0.2909  0.3063  0.1826
 4186TIP3    H112522   4.597   1.574   3.618  0.1251  1.2088 -0.3747
 4186TIP3    H212523   4.469   1.624   3.682 -0.2050  1.1424 -0.9796
 4187TIP3   OH212524   7.094   4.128   2.449  0.1951 -0.0683 -0.5048
 4187TIP3    H112525   7.137   4.136   2.534 -1.4568 -0.9716  0.4682
 4187TIP3    H212526   7.001   4.129   2.470 -0.3032  1.6567 -2.5082
 4188TIP3   OH212527   5.163   0.621   1.941 -0.1333  0.0205  0.0629
 4188TIP3    H112528   5.180   0.619   2.035  3.2033  0.1163 -0.4022
 4188TIP3    H212529   5.117   0.704   1.927 -1.1073 -0.2080  1.6008
 4189TIP3   OH212530   5.582   0.969   4.826 -0.0017  0.3334 -0.2838
 4189TIP3    H112531   5.607   1.046   4.876 -1.8187  1.6125 -1.2220
 4189TIP3    H212532   5.551   0.906   4.891  2.6894 -0.1980  0.6211
 4190TIP3   OH212533   2.581   1.172   3.322 -0.5384  0.0597 -0.3012
 4190TIP3    H112534   2.507   1.230   3.302 -2.6127 -3.2422 -3.3978
 4190TIP3    H212535   2.644   1.189   3.252  0.7690  1.2969  1.0963
 4191TIP3   OH212536   1.870   1.321   3.618  0.0041 -0.2054 -0.2737
 4191TIP3    H112537   1.822   1.369   3.550 -0.5051 -0.3117  0.0053
 4191TIP3    H212538   1.878   1.232   3.582 -2.0353 -0.8170  0.6218
 4192TIP3   OH212539   2.619   3.466   4.822  0.2678  0.3186  0.1617
 4192TIP3    H112540   2.648   3.549   4.859  2.1888 -0.4545  0.5441
 4192TIP3    H212541   2.532   3.452   4.857 -0.6888  2.8094 -1.0094
 4193TIP3   OH212542   5.747   2.804   4.030  0.4232  0.1107  0.1556
 4193TIP3    H112543   5.833   2.763   4.043  0.6195  1.1385  2.6200
 4193TIP3    H212544   5.744   2.875   4.094 -2.0302  0.5246 -0.3131
 4194TIP3   OH212545   7.185   4.956   0.083 -0.1429  0.2386 -0.4530
 4194TIP3    H112546   7.212   4.961   0.175  0.5225  2.9628 -0.7125
 4194TIP3    H212547   7.094   4.985   0.082 -0.1968  0.0660 -0.6237
 4195TIP3   OH212548   6.073   3.488   2.031  0.2724  0.1141  0.3092
 4195TIP3    H112549   5.987   3.470   1.992 -0.8168  0.4709  2.3828
 4195TIP3    H212550   6.118   3.404   2.029  0.5071  0.2219 -2.1184
 4196TIP3   OH212551   5.675   6.324   5.436 -0.6484  0.0826  0.1546
 4196TIP3    H112552   5.768   6.345   5.430  0.0983 -2.2830  2.0839
 4196TIP3    H212553   5.661   6.258   5.367 -1.0940  0.9284 -0.5846
 4197TIP3   OH212554   1.016   3.233   5.070  0.2123  0.3658  0.1522
 4197TIP3    H112555   0.921   3.227   5.084  0.1118  1.1691 -0.1465
 4197TIP3    H212556   1.040   3.318   5.105  0.8233  0.1830  0.1872
 4198TIP3   OH212557   0.129   1.741   5.420 -0.1702 -0.1116  0.0947
 4198TIP3    H112558   0.087   1.683   5.484  1.8520 -1.3904  0.3489
 4198TIP3    H212559   0.106   1.704   5.335 -1.1584  0.3744  0.1371
 4199TIP3   OH212560   2.705   1.338   5.701 -0.7484  0.0462  0.0859
 4199TIP3    H112561   2.625   1.287   5.716 -0.4658  0.1192  2.1119
 4199TIP3    H212562   2.772   1.272   5.683 -0.4435 -0.3506  2.4259
 4200TIP3   OH212563   0.446   2.138   5.014 -0.0094 -0.0501 -0.3845
 4200TIP3    H112564   0.481   2.213   5.061 -0.3253  0.1889 -0.5257
 4200TIP3    H212565   0.445   2.067   5.078 -0.7863  0.3730  0.0799
 4201TIP3   OH212566   3.286   4.721   2.185  0.0215 -0.5225  0.1776
 4201TIP3    H112567   3.240   4.662   2.245  0.9732 -0.6404  0.8193
 4201TIP3    H212568   3.327   4.663   2.121  0.4396 -0.5261  0.4421
 4202TIP3   OH212569   1.537   5.150   1.169  0.1693  0.5020  0.4369
 4202TIP3    H112570   1.595   5.162   1.094 -0.0078  1.2250  0.4080
 4202TIP3    H212571   1.576   5.079   1.219 -0.8557 -1.5141 -1.4700
 4203TIP3   OH212572   0.653   1.026   5.251 -0.3561 -0.2381  0.1831
 4203TIP3    H112573   0.624   0.945   5.207 -1.9493  0.5255 -0.2385
 4203TIP3    H212574   0.594   1.094   5.217 -0.2154  0.7717  1.8847
 4204TIP3   OH212575   3.680   5.768   5.592  0.2169 -0.1545 -0.2329
 4204TIP3    H112576   3.726   5.852   5.597  1.4685 -0.7756 -0.8826
 4204TIP3    H212577   3.748   5.705   5.568 -0.7514 -1.3177 -0.0062
 4205TIP3   OH212578   0.395   2.007   4.012 -0.5870  0.2092  0.0883
 4205TIP3    H112579   0.471   2.016   4.069  0.8410 -2.1733 -1.2690
 4205TIP3    H212580   0.351   1.928   4.042 -1.7570  0.7954 -0.0214
 4206TIP3   OH212581   6.680   6.475   1.691 -0.2554  0.2399  0.8527
 4206TIP3    H112582   6.765   6.439   1.716 -0.9044 -1.0114  1.2968
 4206TIP3    H212583   6.689   6.569   1.708  1.4465  0.3384 -0.2979
 4207TIP3   OH212584   5.409   0.275   4.087 -0.4181  0.3031  0.5298
 4207TIP3    H112585   5.392   0.181   4.076 -0.5198  0.4458 -0.6979
 4207TIP3    H212586   5.332   0.309   4.132 -0.5656 -0.1355  0.6142
 4208TIP3   OH212587   2.877   5.838   0.895 -0.4822  0.5555  0.6901
 4208TIP3    H112588   2.851   5.929   0.908  0.4478  1.0123 -0.4212
 4208TIP3    H212589   2.864   5.822   0.801  1.3619  0.2298  0.4514
 4209TIP3   OH212590   6.325   4.126   2.892  0.4345 -0.1354  0.2731
 4209TIP3    H112591   6.399   4.119   2.953  0.1328 -0.5879  0.5981
 4209TIP3    H212592   6.365   4.122   2.806  0.7570 -0.8960  0.4469
 4210TIP3   OH212593   5.598   2.343   5.229 -0.1872  0.2889 -0.0313
 4210TIP3    H112594   5.624   2.251   5.224 -0.0815  0.1515  2.0394
 4210TIP3    H212595   5.677   2.389   5.258 -0.8176  0.6549  1.1864
 4211TIP3   OH212596   1.921   1.539   4.530  0.0106 -0.0105 -0.3952
 4211TIP3    H112597   1.941   1.633   4.529  2.8684 -0.5431 -0.7972
 4211TIP3    H212598   1.949   1.508   4.444  2.6119 -1.8061  0.9799
 4212TIP3   OH212599   5.287   4.933   2.653 -0.0817  0.2397  0.6921
 4212TIP3    H112600   5.267   4.880   2.731  0.0291  0.9115  1.1841
 4212TIP3    H212601   5.269   5.023   2.680  1.4518  0.6478  0.4528
 4213TIP3   OH212602   3.781   2.208   2.246  0.1893  0.0117 -0.0718
 4213TIP3    H112603   3.761   2.144   2.314 -1.2951  0.6133  0.1028
 4213TIP3    H212604   3.738   2.289   2.276 -0.4852  0.3022 -1.6905
 4214TIP3   OH212605   1.077   2.088   1.027  0.0685  0.6892  0.3881
 4214TIP3    H112606   1.094   2.098   0.933  0.4615  0.0401  0.3817
 4214TIP3    H212607   1.078   2.177   1.062  0.2614  0.9052 -0.1675
 4215TIP3   OH212608   3.069   0.239   5.024  0.1082 -0.2898 -0.0140
 4215TIP3    H112609   3.125   0.237   4.947 -1.0120 -0.3696 -0.8472
 4215TIP3    H212610   2.980   0.229   4.990 -0.3636 -0.9619  1.3393
 4216TIP3   OH212611   0.636   4.118   0.566 -0.1044 -0.2910  0.9249
 4216TIP3    H112612   0.591   4.068   0.498 -1.2932 -0.1251  1.5575
 4216TIP3    H212613   0.585   4.102   0.646  0.8612  0.0561  1.6372
 4217TIP3   OH212614   1.117   2.774   1.258  0.1186  0.1874  0.3311
 4217TIP3    H112615   1.045   2.772   1.194 -0.2073 -2.4794  0.6438
 4217TIP3    H212616   1.182   2.832   1.220 -0.3831 -0.7418 -2.1139
 4218TIP3   OH212617   0.847   2.950   4.912 -0.0566 -0.0538  0.8068
 4218TIP3    H112618   0.793   2.871   4.920 -1.5540  0.9259  0.7828
 4218TIP3    H212619   0.903   2.949   4.989 -1.2976 -0.2553  1.7393
 4219TIP3   OH212620   2.817   2.967   2.297 -0.2780  0.3485 -0.3815
 4219TIP3    H112621   2.750   3.035   2.301 -1.3170 -0.5954 -0.9397
 4219TIP3    H212622   2.771   2.891   2.261  0.8997 -0.5773  0.0026
 4220TIP3   OH212623   0.888   3.750   4.022 -0.1735  0.0235  0.4916
 4220TIP3    H112624   0.983   3.747   4.009  0.0224 -1.8123  1.9526
 4220TIP3    H212625   0.853   3.768   3.934  1.5018  0.8900 -0.0445
 4221TIP3   OH212626   2.923   4.302   0.471 -0.5165 -0.3501  0.3375
 4221TIP3    H112627   3.011   4.271   0.491  0.3175  0.9787 -1.0612
 4221TIP3    H212628   2.889   4.333   0.556  0.1271 -1.3828  0.9906
 4222TIP3   OH212629   0.078   4.602   4.230 -0.0703  0.2752 -0.2244
 4222TIP3    H112630   0.135   4.655   4.285  0.7320 -0.5355 -0.2462
 4222TIP3    H212631   0.105   4.622   4.140 -0.9183  1.0885 -0.3102
 4223TIP3   OH212632   0.164   3.940   5.260  0.0784 -0.0054 -0.0075
 4223TIP3    H112633   0.100   3.978   5.200  0.9114 -0.0324 -0.9263
 4223TIP3    H212634   0.199   3.865   5.214  3.0799  1.7989 -0.9038
 4224TIP3   OH212635   3.377   5.813   4.730  0.1436  0.1501  0.0549
 4224TIP3    H112636   3.318   5.874   4.687  0.0756 -0.7830 -1.2254
 4224TIP3    H212637   3.323   5.769   4.796  0.0398  1.0074  0.5526
 4225TIP3   OH212638   4.127   6.330   3.195  0.3319 -0.3705  0.3609
 4225TIP3    H112639   4.054   6.341   3.133  1.6035  0.5179 -1.0469
 4225TIP3    H212640   4.104   6.385   3.269 -0.3261  0.0845 -0.1671
 4226TIP3   OH212641   3.072   3.983   2.053 -0.1897  0.7710  0.3473
 4226TIP3    H112642   3.060   4.069   2.013 -0.4560  1.9310  2.7302
 4226TIP3    H212643   2.987   3.940   2.041 -0.5414  1.4285  0.3783
 4227TIP3   OH212644   6.427   2.291   3.146  0.5990  0.5021 -0.2667
 4227TIP3    H112645   6.444   2.369   3.093  0.1602  0.2326 -0.8146
 4227TIP3    H212646   6.508   2.240   3.141  0.9193  0.9587  0.1644
 4228TIP3   OH212647   2.093   3.463   2.689 -0.1828  0.3451  0.2195
 4228TIP3    H112648   2.101   3.407   2.612  0.9203 -0.1075  0.6458
 4228TIP3    H212649   2.061   3.405   2.758 -0.6243  0.6190  0.2473
 4229TIP3   OH212650   6.718   2.649   3.813  0.7935 -0.0437 -0.4121
 4229TIP3    H112651   6.751   2.582   3.753 -3.2732 -1.6192 -1.1889
 4229TIP3    H212652   6.724   2.730   3.763 -0.0462 -0.9040 -1.9832
 4230TIP3   OH212653   1.653   4.333   2.621  0.0094 -0.3314  0.2909
 4230TIP3    H112654   1.707   4.255   2.633  0.5889  0.1621  0.9508
 4230TIP3    H212655   1.701   4.386   2.558 -1.3945 -1.4102 -1.7943
 4231TIP3   OH212656   4.214   4.783   0.887  0.1385  0.3333  0.0640
 4231TIP3    H112657   4.200   4.688   0.881  0.5764  0.3093 -0.6820
 4231TIP3    H212658   4.261   4.795   0.970  0.3376 -0.1325  0.0244
 4232TIP3   OH212659   5.618   5.375   5.479 -0.0156 -0.4816  0.3155
 4232TIP3    H112660   5.617   5.456   5.429  0.4292 -0.0911  0.9362
 4232TIP3    H212661   5.646   5.308   5.416 -0.9924 -0.2749 -0.3618
 4233TIP3   OH212662   2.360   6.426   0.699 -1.0277  0.6733 -0.8198
 4233TIP3    H112663   2.315   6.423   0.784  0.0668 -0.7738 -0.2608
 4233TIP3    H212664   2.312   6.493   0.650 -3.1886 -0.1146  0.0783
 4234TIP3   OH212665   5.644   6.784   1.304 -0.6191  0.0054 -0.3672
 4234TIP3    H112666   5.722   6.790   1.248 -1.1104 -0.9143 -1.1727
 4234TIP3    H212667   5.571   6.802   1.245 -1.2611 -2.3576 -0.3901
 4235TIP3   OH212668   0.987   6.470   1.275 -0.2222  0.4595  0.3112
 4235TIP3    H112669   0.956   6.379   1.271 -0.5711  0.6191 -0.5933
 4235TIP3    H212670   0.998   6.487   1.369  1.0731 -0.9336  0.4577
 4236TIP3   OH212671   4.485   2.298   0.469  0.0642  0.3284  0.1896
 4236TIP3    H112672   4.457   2.231   0.407 -0.5074  1.7631 -1.1781
 4236TIP3    H212673   4.574   2.274   0.492  0.2765 -0.2712 -1.1863
 4237TIP3   OH212674   1.055   0.546   0.702 -0.3894 -0.3721 -0.1697
 4237TIP3    H112675   1.006   0.545   0.784 -0.6771  0.2809 -0.3254
 4237TIP3    H212676   0.990   0.573   0.636 -0.0197 -0.3179 -0.5141
 4238TIP3   OH212677   6.381   3.250   4.326 -0.0585  0.3277 -0.1239
 4238TIP3    H112678   6.317   3.278   4.260 -1.6880  0.6634  1.5390
 4238TIP3    H212679   6.329   3.206   4.393  1.5807 -0.1997  0.8598
 4239TIP3   OH212680   5.996   2.067   0.960 -0.6908  0.7036  0.3849
 4239TIP3    H112681   6.014   2.160   0.945 -0.4480  0.5627 -0.2435
 4239TIP3    H212682   6.082   2.025   0.957 -0.5058  0.7579  3.1047
 4240TIP3   OH212683   0.631   3.277   2.526 -0.7268 -0.2688 -0.0032
 4240TIP3    H112684   0.588   3.363   2.516 -2.2263 -0.6984  2.0354
 4240TIP3    H212685   0.637   3.243   2.437 -3.5933  0.3541 -0.5260
 4241TIP3   OH212686   6.713   3.401   0.526 -0.0844  0.0537  0.4586
 4241TIP3    H112687   6.739   3.453   0.602  1.6288  2.3555 -1.5577
 4241TIP3    H212688   6.628   3.364   0.550 -0.2987  1.8856  2.8926
 4242TIP3   OH212689   7.072   5.113   3.545 -0.2002 -0.3584  0.3467
 4242TIP3    H112690   7.095   5.022   3.563  1.2886  0.1099  1.0329
 4242TIP3    H212691   7.088   5.123   3.451 -0.6155 -0.8726  0.2211
 4243TIP3   OH212692   0.885   5.882   1.363  0.1706  0.0770 -0.2216
 4243TIP3    H112693   0.801   5.864   1.405 -0.9665  0.9582 -1.9960
 4243TIP3    H212694   0.915   5.796   1.333 -0.5631 -0.1367 -0.3865
 4244TIP3   OH212695   5.796   1.868   0.517 -0.7724  0.2287 -0.7555
 4244TIP3    H112696   5.735   1.813   0.565 -0.5501 -0.6474 -1.4534
 4244TIP3    H212697   5.873   1.874   0.573 -0.1626 -1.5142 -1.3462
 4245TIP3   OH212698   4.812   1.159   1.849 -0.7294 -0.0745 -0.1952
 4245TIP3    H112699   4.784   1.219   1.918  0.0973 -0.2594  0.3153
 4245TIP3    H212700   4.785   1.073   1.880  1.4284 -0.4166  0.9091
 4246TIP3   OH212701   0.694   6.179  -0.012 -0.4420  0.0683 -0.3024
 4246TIP3    H112702   0.659   6.258  -0.052  2.3875  1.9921  0.6729
 4246TIP3    H212703   0.685   6.193   0.082 -0.4779 -1.0788 -0.1151
 4247TIP3   OH212704   5.416   2.368   3.538  0.0883  0.2309 -0.1006
 4247TIP3    H112705   5.505   2.334   3.544 -0.8560 -2.3057  0.9901
 4247TIP3    H212706   5.369   2.324   3.609 -2.2798  0.7013 -1.2790
 4248TIP3   OH212707   0.117   4.203   2.982  0.2579  0.0951 -0.0601
 4248TIP3    H112708   0.191   4.195   2.922  1.1679  1.1869  0.8741
 4248TIP3    H212709   0.083   4.291   2.968 -1.4306 -0.6507 -1.0508
 4249TIP3   OH212710   2.509   1.959   2.162  0.3629 -0.3892 -0.0070
 4249TIP3    H112711   2.511   2.050   2.190  0.3896 -0.1396 -0.7814
 4249TIP3    H212712   2.416   1.939   2.150  0.4006  0.8841 -3.8917
 4250TIP3   OH212713   0.414   0.609   2.799  0.3055  0.3572 -0.1177
 4250TIP3    H112714   0.332   0.560   2.804  0.0811  0.7802  0.5675
 4250TIP3    H212715   0.482   0.543   2.802 -0.0039  0.0423  0.0306
 4251TIP3   OH212716   1.357   4.790   1.790  0.5975 -0.1684 -0.8205
 4251TIP3    H112717   1.442   4.762   1.823  1.6511  0.3025 -2.9605
 4251TIP3    H212718   1.326   4.854   1.854  1.7578 -0.4605  0.0721
 4252TIP3   OH212719   2.517   1.791   3.493  0.2106  0.0651  0.5473
 4252TIP3    H112720   2.438   1.752   3.455  0.0602 -1.3404  2.1836
 4252TIP3    H212721   2.588   1.767   3.434 -0.3127 -0.2418  0.0373
 4253TIP3   OH212722   0.848   0.242   2.919  0.2820 -0.0277  0.2015
 4253TIP3    H112723   0.884   0.310   2.863 -1.2362  1.9291  1.4352
 4253TIP3    H212724   0.855   0.161   2.868 -0.8083  1.5874 -2.7339
 4254TIP3   OH212725   5.999   4.450   4.117  0.6010  0.5128  0.1920
 4254TIP3    H112726   5.987   4.356   4.129  0.5124  0.4060 -0.7014
 4254TIP3    H212727   5.936   4.474   4.050  2.6144  0.6557 -1.7398
 4255TIP3   OH212728   5.224   0.073   5.013 -0.7141  0.0773  0.2642
 4255TIP3    H112729   5.132   0.094   5.031 -0.4068  1.7145  0.1259
 4255TIP3    H212730   5.241   0.113   4.928 -0.3037 -1.6658 -0.5118
 4256TIP3   OH212731   1.354   1.234   4.407 -0.3096 -0.2391 -0.8565
 4256TIP3    H112732   1.309   1.312   4.375 -0.7599 -0.6267 -1.1893
 4256TIP3    H212733   1.376   1.254   4.498 -1.2504 -0.0786 -0.6522
 4257TIP3   OH212734   0.480   0.667   4.831 -0.6496  0.1445 -0.5467
 4257TIP3    H112735   0.542   0.710   4.772  1.2669 -0.7458  0.7349
 4257TIP3    H212736   0.406   0.728   4.836  1.5819  2.9870  0.5736
 4258TIP3   OH212737   3.331   4.331   1.288 -0.0806 -0.0346  0.2201
 4258TIP3    H112738   3.377   4.253   1.320  0.8588  0.8205  1.0345
 4258TIP3    H212739   3.378   4.355   1.208  0.0756  0.0891  0.3475
 4259TIP3   OH212740   1.189   0.065   3.597 -0.1630 -0.0945 -0.6705
 4259TIP3    H112741   1.123   0.127   3.629 -1.1449 -0.9478 -0.9745
 4259TIP3    H212742   1.267   0.085   3.648 -0.8083  0.6003  0.0824
 4260TIP3   OH212743   2.178   0.366   1.586 -0.3699  0.2922 -0.2604
 4260TIP3    H112744   2.224   0.437   1.631 -1.8205  1.4247 -0.4564
 4260TIP3    H212745   2.156   0.303   1.654 -1.7347  1.5364  0.4988
 4261TIP3   OH212746   0.410   6.381   3.486 -0.4223  0.5925 -0.2664
 4261TIP3    H112747   0.444   6.467   3.459  0.9335  0.7613  1.7210
 4261TIP3    H212748   0.367   6.397   3.570 -0.1820 -0.6624  0.1230
 4262TIP3   OH212749   6.425   1.475   5.573 -0.0761  0.4161  0.1709
 4262TIP3    H112750   6.421   1.383   5.545  0.7838  0.2952  0.4057
 4262TIP3    H212751   6.434   1.469   5.669  1.6143  0.6790  0.0603
 4263TIP3   OH212752   2.790   1.023   1.704 -0.5627  0.3354 -0.2455
 4263TIP3    H112753   2.717   1.056   1.756 -0.3676  0.3566  0.0113
 4263TIP3    H212754   2.868   1.049   1.751 -0.4087 -0.6783  0.0827
 4264TIP3   OH212755   4.534   1.813   4.870 -0.0344  0.3091  0.0914
 4264TIP3    H112756   4.601   1.812   4.802  0.5137  0.1447  0.6227
 4264TIP3    H212757   4.515   1.720   4.887 -0.4764  0.3569 -0.1330
 4265TIP3   OH212758   3.637   0.632   0.724  0.0721 -0.3467 -0.4309
 4265TIP3    H112759   3.639   0.537   0.711  2.1271 -0.2730 -0.8810
 4265TIP3    H212760   3.580   0.643   0.800  0.9552 -2.0808  0.5660
 4266TIP3   OH212761   2.641   5.837   4.891  0.4052  0.3414 -0.2469
 4266TIP3    H112762   2.669   5.910   4.946  0.0966  1.3611 -1.3945
 4266TIP3    H212763   2.561   5.805   4.933  1.0425  0.0508  0.7704
 4267TIP3   OH212764   2.626   2.194   3.889 -0.3181 -0.2223 -0.3627
 4267TIP3    H112765   2.660   2.282   3.872 -0.2707 -0.1379  0.1661
 4267TIP3    H212766   2.697   2.136   3.861 -0.4248 -0.1057 -0.8995
 4268TIP3   OH212767   1.323   2.014   1.156 -0.6693  0.0389 -0.4289
 4268TIP3    H112768   1.350   1.925   1.177 -1.5061  0.0484  0.8347
 4268TIP3    H212769   1.246   2.003   1.101 -1.0093 -0.0373  0.0525
 4269TIP3   OH212770   4.058   1.195   0.153  0.4143  0.4384  0.1100
 4269TIP3    H112771   4.048   1.130   0.222 -1.6865  1.3753  0.7676
 4269TIP3    H212772   4.080   1.276   0.199  1.3023  0.5931 -0.5514
 4270TIP3   OH212773   1.499   4.617   3.160  0.2921  0.2841 -0.1422
 4270TIP3    H112774   1.441   4.693   3.169  0.7974  0.5185  1.3479
 4270TIP3    H212775   1.572   4.649   3.107  0.0880  0.5906 -0.2415
 4271TIP3   OH212776   7.210   0.234   4.656  0.0866 -0.1772 -0.9062
 4271TIP3    H112777   7.164   0.166   4.606 -0.6019 -0.5862  0.2342
 4271TIP3    H212778   7.155   0.249   4.733  1.3545  0.0330  0.0146
 4272TIP3   OH212779   0.447   1.276   2.068  0.1420 -0.3741  0.6117
 4272TIP3    H112780   0.525   1.252   2.118 -0.9387  1.6103  3.5281
 4272TIP3    H212781   0.459   1.369   2.048 -1.4877 -0.0195  1.1723
 4273TIP3   OH212782   5.924   6.034   2.743 -0.0191  0.7185 -0.1829
 4273TIP3    H112783   5.967   6.062   2.663  0.2229  0.5879 -0.0993
 4273TIP3    H212784   5.940   5.940   2.748  0.4395  0.8162  0.2974
 4274TIP3   OH212785   0.647   1.079   2.887  0.1393  0.2478 -0.3349
 4274TIP3    H112786   0.571   1.121   2.925 -0.1701 -1.0334  0.5410
 4274TIP3    H212787   0.625   0.986   2.885  1.8968 -0.2508  0.5479
 4275TIP3   OH212788   0.949   4.478   2.551 -0.0222  0.3923  0.0664
 4275TIP3    H112789   1.021   4.536   2.526  0.3903 -0.4585 -0.7768
 4275TIP3    H212790   0.932   4.499   2.643  1.5471  0.3632  0.3940
 4276TIP3   OH212791   3.324   1.003   5.330  0.5626  0.3472 -0.1876
 4276TIP3    H112792   3.379   1.067   5.284  0.9719 -1.2465 -2.0275
 4276TIP3    H212793   3.379   0.973   5.402  1.6942 -0.3429 -1.2948
 4277TIP3   OH212794   2.543   3.574   1.039 -0.0340  0.2978 -0.2893
 4277TIP3    H112795   2.519   3.537   0.954 -1.2843 -0.7231  0.4675
 4277TIP3    H212796   2.531   3.502   1.101  0.6236  1.0859  0.7912
 4278TIP3   OH212797   3.539   2.777   4.317 -0.0825  0.6641 -0.2921
 4278TIP3    H112798   3.623   2.768   4.271 -0.2001  0.1499 -0.4085
 4278TIP3    H212799   3.512   2.688   4.336  0.6891  0.8800  2.1560
 4279TIP3   OH212800   0.178   5.997   4.261 -0.2994 -0.1967  0.8956
 4279TIP3    H112801   0.140   6.058   4.197  1.4795 -0.4797 -0.4957
 4279TIP3    H212802   0.162   5.910   4.225  1.8193 -0.3209  0.0986
 4280TIP3   OH212803   4.664   6.708   0.802  0.2052  0.7644  0.5877
 4280TIP3    H112804   4.687   6.751   0.720 -0.5942  0.1261  0.0098
 4280TIP3    H212805   4.719   6.750   0.868  1.0581  1.0968 -0.3139
 4281TIP3   OH212806   2.659   5.173   2.127  0.2138  0.0559  0.2225
 4281TIP3    H112807   2.596   5.131   2.185 -1.0309  0.0250 -1.1096
 4281TIP3    H212808   2.616   5.253   2.097  2.5420  2.4319  2.7135
 4282TIP3   OH212809   4.826   3.974   1.306 -0.3109  0.0935 -0.5968
 4282TIP3    H112810   4.890   3.923   1.356 -0.6664  0.3270  0.1185
 4282TIP3    H212811   4.855   3.967   1.215 -0.3309 -1.3439 -0.5092
 4283TIP3   OH212812   4.380   4.894   0.635 -0.1328  0.3432 -0.1945
 4283TIP3    H112813   4.441   4.964   0.655  1.3234 -0.6808 -0.9431
 4283TIP3    H212814   4.317   4.897   0.708  1.4877  0.6572  1.2709
 4284TIP3   OH212815   6.960   3.099   5.539 -0.2163 -0.2403 -0.1711
 4284TIP3    H112816   6.877   3.052   5.541 -0.4179  0.0749 -0.9886
 4284TIP3    H212817   6.993   3.092   5.629  0.0644 -2.4557 -0.3973
 4285TIP3   OH212818   5.883   4.882   5.312 -0.4309 -0.2468  0.1795
 4285TIP3    H112819   5.880   4.795   5.270 -1.1914 -0.0784 -0.1278
 4285TIP3    H212820   5.954   4.927   5.266  0.3810 -0.9027  0.7537
 4286TIP3   OH212821   0.202   4.675   3.083  0.0191  0.1790 -0.1546
 4286TIP3    H112822   0.255   4.627   3.147  1.6088 -1.6427 -2.6288
 4286TIP3    H212823   0.259   4.747   3.054  0.4142 -0.5808 -1.3581
 4287TIP3   OH212824   5.110   2.273   4.901 -0.1670 -0.1187  0.0540
 4287TIP3    H112825   5.027   2.247   4.860 -0.2758 -0.2854  0.3780
 4287TIP3    H212826   5.177   2.245   4.838 -0.2724 -1.2657  0.4211
 4288TIP3   OH212827   7.221   5.909   2.883  0.0358 -0.2088  0.0402
 4288TIP3    H112828   7.177   5.924   2.967 -0.6740 -1.7132 -0.0138
 4288TIP3    H212829   7.155   5.934   2.817  0.3401  0.3139 -0.0688
 4289TIP3   OH212830   1.695   4.091   5.552  0.2281  0.0732 -0.5176
 4289TIP3    H112831   1.615   4.117   5.599 -1.3961  1.0108 -3.5218
 4289TIP3    H212832   1.756   4.163   5.568  0.6278 -0.7030  1.9101
 4290TIP3   OH212833   5.425   6.471   1.320 -0.1534  0.5573  0.1517
 4290TIP3    H112834   5.518   6.471   1.343  0.1438  4.2998 -0.4721
 4290TIP3    H212835   5.425   6.474   1.224 -0.9711 -0.1274  0.1238
 4291TIP3   OH212836   6.938   2.100   2.696  0.2878  0.3533  0.3970
 4291TIP3    H112837   6.944   2.143   2.610 -0.6851 -0.7891 -0.2775
 4291TIP3    H212838   7.028   2.096   2.727  0.6912  0.5605 -0.6888
 4292TIP3   OH212839   1.798   3.624   3.219  0.3161 -0.1045  0.0563
 4292TIP3    H112840   1.711   3.652   3.189  0.0616 -0.1948  0.6887
 4292TIP3    H212841   1.781   3.574   3.299  0.9463 -0.1773  0.1522
 4293TIP3   OH212842   6.232   5.415   5.083 -0.0960 -0.0141  0.4300
 4293TIP3    H112843   6.217   5.326   5.053 -2.0050  0.7179 -1.0414
 4293TIP3    H212844   6.177   5.424   5.160 -0.1664 -0.0274  0.3818
 4294TIP3   OH212845   5.063   2.736   4.748 -0.1878  0.5654 -0.0306
 4294TIP3    H112846   5.035   2.738   4.657  1.5114  0.4789 -0.5983
 4294TIP3    H212847   5.031   2.653   4.782 -0.7974  0.5822 -0.5552
 4295TIP3   OH212848   5.301   4.655   2.529  0.5450  0.5784  0.0530
 4295TIP3    H112849   5.228   4.686   2.582  0.0775 -2.0287  1.1090
 4295TIP3    H212850   5.274   4.670   2.438 -0.9216  0.4665  0.4567
 4296TIP3   OH212851   0.353   3.235   0.633 -0.1796 -0.8259  0.4729
 4296TIP3    H112852   0.277   3.182   0.659  0.2711 -2.0901 -0.7070
 4296TIP3    H212853   0.329   3.273   0.549  0.9724 -2.3055 -0.5604
 4297TIP3   OH212854   0.623   0.746   0.143  0.4166 -0.3504  0.3761
 4297TIP3    H112855   0.591   0.679   0.083  1.2040 -0.3159 -0.0942
 4297TIP3    H212856   0.565   0.822   0.128  2.2808  0.6663 -2.4328
 4298TIP3   OH212857   0.777   3.654   0.963 -0.0229 -0.1409  0.2578
 4298TIP3    H112858   0.755   3.631   0.872 -1.9759  1.0040  0.3748
 4298TIP3    H212859   0.800   3.571   1.004  2.0056 -0.5319 -1.5324
 4299TIP3   OH212860   2.751   0.299   1.854 -0.0486 -0.3188  0.1772
 4299TIP3    H112861   2.785   0.379   1.813 -0.6699 -1.0994 -2.0103
 4299TIP3    H212862   2.828   0.255   1.888  0.4652  0.5413  0.1620
 4300TIP3   OH212863   1.881   3.134   3.523 -0.6839  0.1041  0.1499
 4300TIP3    H112864   1.965   3.173   3.547 -0.7249  0.3871 -0.1541
 4300TIP3    H212865   1.858   3.177   3.440  0.8815 -2.9377 -2.0534
 4301TIP3   OH212866   3.908   6.397   5.740  0.2893  0.2889  0.4214
 4301TIP3    H112867   3.875   6.482   5.709  1.9218  1.3042  1.3052
 4301TIP3    H212868   3.939   6.415   5.828 -2.3216 -2.0372  1.9504
 4302TIP3   OH212869   2.226   6.137   3.519 -0.6087 -0.3449  1.1574
 4302TIP3    H112870   2.296   6.165   3.460 -1.3513 -0.7238  0.0758
 4302TIP3    H212871   2.271   6.119   3.602  0.6738 -1.1423  0.3303
 4303TIP3   OH212872   3.888   5.799   2.224  0.0158 -0.1660 -0.0920
 4303TIP3    H112873   3.904   5.881   2.271 -0.7060 -0.1198  0.0731
 4303TIP3    H212874   3.963   5.744   2.247  0.3295  0.3174  0.0736
 4304TIP3   OH212875   0.260   1.438  -0.012 -0.7030  0.0417  0.0562
 4304TIP3    H112876   0.239   1.385   0.065  0.4700  0.8928  0.9938
 4304TIP3    H212877   0.296   1.519   0.024  0.7973  0.0732 -1.4097
 4305TIP3   OH212878   2.871   2.342   2.146 -0.0942 -0.4046  0.3994
 4305TIP3    H112879   2.927   2.416   2.125  0.9924 -0.0199  4.0367
 4305TIP3    H212880   2.796   2.351   2.087  1.4937  1.6913 -1.4514
 4306TIP3   OH212881   2.651   2.680   3.040 -0.0195 -0.1598  0.1207
 4306TIP3    H112882   2.668   2.602   3.094 -0.0012 -0.1704  0.0993
 4306TIP3    H212883   2.621   2.746   3.103  1.7636  0.4203  0.4208
 4307TIP3   OH212884   1.928   6.762   0.207  0.2963  0.4865  0.1757
 4307TIP3    H112885   1.893   6.674   0.191 -2.0616  1.3697  0.2346
 4307TIP3    H212886   1.967   6.787   0.124  1.2916 -0.7079  0.2461
 4308TIP3   OH212887   0.870   5.908   5.271  0.0111  0.6578  0.4747
 4308TIP3    H112888   0.851   5.963   5.195  0.9478 -0.8942 -0.9275
 4308TIP3    H212889   0.938   5.956   5.319  0.0184  1.2496 -0.1235
 4309TIP3   OH212890   2.961   1.492   5.759  0.3539  0.4436 -0.2609
 4309TIP3    H112891   2.883   1.437   5.771  0.3235  0.4490 -0.4319
 4309TIP3    H212892   2.992   1.509   5.848  0.2483  0.3135 -0.1982
 4310TIP3   OH212893   6.926   0.829   5.155 -0.3146  0.4825 -0.4477
 4310TIP3    H112894   6.906   0.837   5.062 -1.7518 -0.8519 -0.3045
 4310TIP3    H212895   7.013   0.789   5.157 -1.1620 -1.5946 -1.3165
 4311TIP3   OH212896   1.941   2.862   4.532  0.0766 -0.6019  0.2585
 4311TIP3    H112897   1.989   2.909   4.601  0.4881 -0.3786 -0.1765
 4311TIP3    H212898   2.009   2.822   4.478 -0.2315 -0.3973 -0.2889
 4312TIP3   OH212899   0.645   1.986   1.519 -0.3772 -0.1454 -0.0422
 4312TIP3    H112900   0.681   1.948   1.600  2.2551  0.0925 -1.0135
 4312TIP3    H212901   0.571   1.930   1.498  0.4752 -1.8301  1.1598
 4313TIP3   OH212902   5.734   5.028   5.838  0.5320  0.4158  0.0096
 4313TIP3    H112903   5.803   5.076   5.883  1.4674 -0.2126 -0.7215
 4313TIP3    H212904   5.686   5.095   5.789  2.6689  0.5231 -2.1135
 4314TIP3   OH212905   3.140   2.048   2.079 -0.2190  0.0173 -0.3693
 4314TIP3    H112906   3.063   2.070   2.027 -1.2479  0.2881  1.1987
 4314TIP3    H212907   3.174   1.967   2.039 -3.5902 -2.3727  1.1294
 4315TIP3   OH212908   3.945   4.497   1.867  0.5019 -0.0291 -0.0415
 4315TIP3    H112909   4.022   4.529   1.914  0.3062  0.6901 -0.2001
 4315TIP3    H212910   3.978   4.476   1.780  0.5317  0.2585 -0.1026
 4316TIP3   OH212911   2.098   2.869   5.521  0.3407  0.0680  0.2872
 4316TIP3    H112912   2.147   2.846   5.600 -0.3383  0.6414  0.8798
 4316TIP3    H212913   2.114   2.962   5.509 -0.7246  0.2971  0.5808
 4317TIP3   OH212914   6.971   6.207   4.771 -0.1233 -0.5086  0.0826
 4317TIP3    H112915   6.959   6.294   4.811  0.7064 -0.9797  1.4371
 4317TIP3    H212916   7.000   6.225   4.682  0.1074  0.6093  0.3692
 4318TIP3   OH212917   4.656   0.118   1.647 -0.2708 -0.3548  0.1836
 4318TIP3    H112918   4.677   0.196   1.595 -0.0174  0.6272  1.7047
 4318TIP3    H212919   4.580   0.081   1.603  1.7231 -1.3652 -2.6991
 4319TIP3   OH212920   2.927   6.581   5.610 -0.2243 -0.3334  0.2802
 4319TIP3    H112921   2.961   6.569   5.699 -3.0843  1.8243  1.8319
 4319TIP3    H212922   2.833   6.565   5.618 -0.5500 -0.1509 -2.4085
 4320TIP3   OH212923   6.775   4.495   2.483  0.2328  0.4157  0.0434
 4320TIP3    H112924   6.860   4.539   2.487  0.4681  0.0511 -0.7554
 4320TIP3    H212925   6.713   4.564   2.461  0.7560  0.2148 -2.3214
 4321TIP3   OH212926   3.533   6.366   0.177 -0.4712  0.0667  0.4825
 4321TIP3    H112927   3.471   6.431   0.210 -0.5050  1.1320 -1.5405
 4321TIP3    H212928   3.618   6.394   0.213 -0.7438  0.2040  1.0267
 4322TIP3   OH212929   6.349   3.192  -0.009  0.3330  0.7558  0.7116
 4322TIP3    H112930   6.272   3.191   0.048 -1.1849 -1.6492 -1.2062
 4322TIP3    H212931   6.381   3.101  -0.007  1.0207  0.9200 -1.1862
 4323TIP3   OH212932   2.777   3.745   4.874 -0.3502 -0.5339 -0.2540
 4323TIP3    H112933   2.787   3.826   4.923  0.0068 -0.3713 -0.5853
 4323TIP3    H212934   2.862   3.733   4.831 -0.2168 -1.3829  0.2456
 4324TIP3   OH212935   4.312   4.323   5.003 -0.0483 -0.5375 -0.2000
 4324TIP3    H112936   4.237   4.369   4.965  0.7974  1.4945  0.4146
 4324TIP3    H212937   4.274   4.258   5.062 -1.3143 -0.3531 -0.7912
 4325TIP3   OH212938   2.722   1.870   2.885 -0.1064  0.2591  0.7805
 4325TIP3    H112939   2.635   1.905   2.902 -0.4407 -0.6598  1.0618
 4325TIP3    H212940   2.773   1.944   2.853 -2.0469  0.1134 -3.3493
 4326TIP3   OH212941   3.866   2.169   0.329 -0.5195  0.6139 -0.4582
 4326TIP3    H112942   3.842   2.166   0.237  0.6344  0.7625 -0.7757
 4326TIP3    H212943   3.959   2.146   0.331 -1.1528 -2.3091  0.9535
 4327TIP3   OH212944   4.489   2.016   3.909 -0.2001  0.1812  0.0641
 4327TIP3    H112945   4.434   2.040   3.834 -0.5376 -0.7423  0.0000
 4327TIP3    H212946   4.457   1.930   3.936  1.7888 -0.8264 -0.5420
 4328TIP3   OH212947   1.800   3.248   2.391  0.1627  0.2197 -0.4041
 4328TIP3    H112948   1.722   3.304   2.392 -1.0148 -1.2412 -2.2143
 4328TIP3    H212949   1.779   3.176   2.451 -0.9164 -1.3185 -2.4757
 4329TIP3   OH212950   7.047   4.355   2.278  0.5097 -0.1790  0.4621
 4329TIP3    H112951   7.013   4.404   2.353 -2.8921 -0.7195 -0.5399
 4329TIP3    H212952   7.063   4.267   2.312 -1.9848 -0.7036  0.4709
 4330TIP3   OH212953   6.886   5.238   5.843 -0.3116  0.0989 -0.4389
 4330TIP3    H112954   6.874   5.204   5.755  0.3418 -0.3286 -0.3800
 4330TIP3    H212955   6.820   5.193   5.896  0.1261 -0.6265 -0.4846
 4331TIP3   OH212956   5.377   5.364   1.303 -0.1201  0.6184 -0.2972
 4331TIP3    H112957   5.286   5.372   1.331 -0.1591  2.5106 -0.8238
 4331TIP3    H212958   5.392   5.270   1.296 -1.5222  0.2323  1.3829
 4332TIP3   OH212959   5.177   1.444   4.423 -0.2642  0.1353  0.1501
 4332TIP3    H112960   5.095   1.398   4.405  0.3573 -0.3901 -1.5516
 4332TIP3    H212961   5.222   1.390   4.488 -0.1674 -0.9674 -0.7904
 4333TIP3   OH212962   6.530   4.091   3.078 -0.2412  0.1232 -0.4755
 4333TIP3    H112963   6.593   4.130   3.017 -0.7714  1.5110 -0.1627
 4333TIP3    H212964   6.554   4.125   3.164 -2.5688  2.3439 -0.5808
 4334TIP3   OH212965   5.862   4.890   0.692 -0.1785 -0.3433  0.1573
 4334TIP3    H112966   5.832   4.903   0.782 -4.9423  1.0604 -1.3227
 4334TIP3    H212967   5.898   4.974   0.665 -2.2060  0.4559 -0.2285
 4335TIP3   OH212968   1.575   4.482   2.320  0.3536 -0.4090  0.1292
 4335TIP3    H112969   1.595   4.453   2.231  0.8419  0.2923 -0.0056
 4335TIP3    H212970   1.486   4.450   2.336 -0.3711  0.7722 -1.2164
 4336TIP3   OH212971   1.098   4.808   1.735 -0.2932 -0.3500  0.0229
 4336TIP3    H112972   1.192   4.803   1.752 -0.4060 -2.0452  0.3093
 4336TIP3    H212973   1.083   4.899   1.711  1.5735 -0.2698 -0.9953
 4337TIP3   OH212974   6.262   2.023   5.783 -0.1753 -0.5671 -0.6033
 4337TIP3    H112975   6.269   2.113   5.751  0.5726 -0.3804  0.0489
 4337TIP3    H212976   6.272   2.031   5.878 -0.3206 -1.3233 -0.5176
 4338TIP3   OH212977   1.239   4.575   1.501 -0.2043 -0.2535  0.0433
 4338TIP3    H112978   1.294   4.635   1.552  0.6263  0.3318 -1.4805
 4338TIP3    H212979   1.209   4.627   1.427  1.0319 -1.8408 -1.6671
 4339TIP3   OH212980   2.463   0.968   1.539 -0.3953 -0.3196 -0.0561
 4339TIP3    H112981   2.517   0.890   1.527 -0.7120 -0.3227 -1.6173
 4339TIP3    H212982   2.381   0.948   1.494  0.2951  1.6670 -2.4311
 4340TIP3   OH212983   2.691   0.032   2.944 -0.4964 -0.4781  0.1211
 4340TIP3    H112984   2.654   0.041   3.032  1.8835  0.6897  1.0918
 4340TIP3    H212985   2.775  -0.011   2.958  0.0201 -0.0773 -1.5673
 4341TIP3   OH212986   0.979   5.857   2.850  0.7548  0.1314  0.5295
 4341TIP3    H112987   1.005   5.926   2.790  1.2106 -0.2495  0.2842
 4341TIP3    H212988   1.041   5.864   2.923  0.6482  0.1355  0.6210
 4342TIP3   OH212989   5.757   0.485   3.627  0.4820 -0.2417  0.6396
 4342TIP3    H112990   5.674   0.440   3.615  0.7513 -0.8506  1.0211
 4342TIP3    H212991   5.755   0.556   3.563  0.1751 -0.9619 -0.1702
 4343TIP3   OH212992   0.035   6.778   3.475 -0.5918 -0.3573 -0.0291
 4343TIP3    H112993  -0.030   6.771   3.545  1.2719  0.5701  1.8834
 4343TIP3    H212994  -0.000   6.723   3.405 -2.1588 -1.9971  1.9138
 4344TIP3   OH212995   2.871   3.390   0.530  0.1987  0.3354 -0.1305
 4344TIP3    H112996   2.798   3.420   0.584 -1.1197 -0.6465 -1.2746
 4344TIP3    H212997   2.929   3.344   0.591 -1.0469 -0.4021  0.5464
 4345TIP3   OH212998   6.113   3.196   0.518  0.0193  0.0831  0.2234
 4345TIP3    H112999   6.119   3.224   0.609  1.3319 -0.9544  0.4955
 4345TIP3    H213000   6.077   3.271   0.472  0.4147  1.0356  1.4197
 4346TIP3   OH213001   0.046   0.730   2.211  0.3756  0.2649  0.2004
 4346TIP3    H113002  -0.000   0.802   2.253 -0.1205  0.3220 -0.4470
 4346TIP3    H213003  -0.005   0.652   2.234  1.7055 -0.1250  2.1455
 4347TIP3   OH213004   1.061   5.135   3.766 -0.3533 -0.7050  0.1545
 4347TIP3    H113005   0.996   5.074   3.734 -1.3389 -0.0916  0.9201
 4347TIP3    H213006   1.019   5.178   3.841  0.3051  0.8840 -0.3453
 4348TIP3   OH213007   2.823   1.015   2.312  0.4645 -0.1170  0.0247
 4348TIP3    H113008   2.772   0.936   2.298  0.1853  0.3492 -1.9073
 4348TIP3    H213009   2.880   0.995   2.387 -0.6834 -1.5563  0.5462
 4349TIP3   OH213010   4.671   0.738   5.553 -0.2752  0.1592 -0.1744
 4349TIP3    H113011   4.740   0.802   5.569  1.2197 -1.4740  0.3661
 4349TIP3    H213012   4.630   0.725   5.639 -1.3912  1.2405 -0.5263
 4350TIP3   OH213013   1.978   4.763   1.479  0.1388  0.1743 -0.1172
 4350TIP3    H113014   2.007   4.736   1.391 -1.1199 -0.2686 -0.4163
 4350TIP3    H213015   2.059   4.790   1.523  1.2438 -2.2616 -0.4581
 4351TIP3   OH213016   3.976   0.740   4.068  0.5002  0.1508 -0.4616
 4351TIP3    H113017   3.993   0.740   3.973  2.2293 -1.0521 -0.1957
 4351TIP3    H213018   4.029   0.812   4.102  0.6937 -0.0720 -0.2900
 4352TIP3   OH213019   2.971   3.161   1.928  0.4184  0.4617  0.0921
 4352TIP3    H113020   2.893   3.105   1.931  0.2254  0.6290 -1.0859
 4352TIP3    H213021   2.972   3.194   1.838  0.7721  2.0181  0.6463
 4353TIP3   OH213022   7.148   2.430   4.921  0.4354 -0.5692 -0.4220
 4353TIP3    H113023   7.062   2.443   4.880  0.0925 -2.1295 -0.2550
 4353TIP3    H213024   7.145   2.484   5.000 -0.5192 -0.8396 -0.2543
 4354TIP3   OH213025   3.413   5.446   5.882  0.4528  0.1260 -0.2797
 4354TIP3    H113026   3.472   5.481   5.815 -0.3040  1.0789 -0.4766
 4354TIP3    H213027   3.396   5.520   5.940 -2.9560  0.8731 -1.9478
 4355TIP3   OH213028   1.499   2.500   1.796 -0.2443 -0.0315  0.1075
 4355TIP3    H113029   1.490   2.406   1.780  0.6387 -0.2395  0.7762
 4355TIP3    H213030   1.487   2.510   1.890 -1.5476  0.6962 -0.1065
 4356TIP3   OH213031   1.803   5.479   3.947  0.1101 -0.1651 -0.3808
 4356TIP3    H113032   1.869   5.424   3.906  0.2646  0.0328 -0.3969
 4356TIP3    H213033   1.799   5.448   4.038 -0.5419 -0.8965 -0.6415
 4357TIP3   OH213034   1.476   2.978   1.699  0.2474 -0.1374  0.1021
 4357TIP3    H113035   1.382   2.987   1.714  0.5782  2.6686  1.0851
 4357TIP3    H213036   1.512   2.953   1.784  0.5415  0.3716  0.1311
 4358TIP3   OH213037   2.797   3.924   3.401 -0.3363  0.3020 -0.0319
 4358TIP3    H113038   2.732   3.975   3.448 -1.8168 -0.0257 -1.5983
 4358TIP3    H213039   2.851   3.884   3.469 -0.9061  1.6886  1.2816
 4359TIP3   OH213040   0.410   6.787   3.893  0.7785  0.1554  0.2561
 4359TIP3    H113041   0.474   6.750   3.832 -0.0704 -0.1388 -0.4763
 4359TIP3    H213042   0.395   6.717   3.957 -1.7861 -1.3810 -1.8489
 4360TIP3   OH213043   6.099   3.902   2.331 -0.3626  0.1607  0.1389
 4360TIP3    H113044   6.147   3.983   2.319 -0.3635  0.3276  1.1654
 4360TIP3    H213045   6.109   3.855   2.248  3.1014 -0.6426  0.8691
 4361TIP3   OH213046   6.812   4.625   3.789  0.0929  0.0803  0.0414
 4361TIP3    H113047   6.901   4.592   3.800  0.1977 -0.3312 -1.7259
 4361TIP3    H213048   6.762   4.584   3.860  0.8967 -1.3762 -0.1983
 4362TIP3   OH213049   4.191   4.401   5.816  0.4236  0.4469 -0.5834
 4362TIP3    H113050   4.182   4.417   5.722 -0.3427 -1.6866 -0.9239
 4362TIP3    H213051   4.109   4.357   5.840  1.1269 -0.1461  0.8249
 4363TIP3   OH213052   4.825   3.900   5.816  0.7186  0.5978 -0.4251
 4363TIP3    H113053   4.862   3.981   5.781  1.2110 -0.1556 -1.7604
 4363TIP3    H213054   4.755   3.878   5.755 -0.1420  0.5839  0.5485
 4364TIP3   OH213055   5.643   4.402   3.953 -0.3485 -0.1932  0.2446
 4364TIP3    H113056   5.601   4.353   3.882 -0.7149  1.5376 -0.7988
 4364TIP3    H213057   5.577   4.405   4.022 -0.3184 -1.1515  0.3215
 4365TIP3   OH213058   6.488   0.084   3.945  0.4553 -0.2802  0.1593
 4365TIP3    H113059   6.471   0.025   3.873  0.0254 -0.5217  0.4583
 4365TIP3    H213060   6.460   0.170   3.913  1.1674 -0.2149 -0.3068
 4366TIP3   OH213061   6.780   6.391   4.513 -0.1489  0.0559 -0.4213
 4366TIP3    H113062   6.755   6.358   4.599 -0.8325  1.5316 -0.0149
 4366TIP3    H213063   6.838   6.324   4.477 -0.9342 -1.2189  0.6171
 4367TIP3   OH213064   0.155   3.472   2.313  0.1331 -0.3834 -0.3566
 4367TIP3    H113065   0.189   3.408   2.375  3.2643  0.8731 -0.6194
 4367TIP3    H213066   0.177   3.437   2.227  1.6498  0.8311 -0.5112
 4368TIP3   OH213067   5.912   4.319   3.662  0.0807 -0.3277  0.3760
 4368TIP3    H113068   6.006   4.303   3.672 -0.4512 -2.8014  2.4936
 4368TIP3    H213069   5.894   4.396   3.715  1.1227  1.4002 -1.6214
 4369TIP3   OH213070   1.517   6.608   1.905  0.5504  0.0325 -0.2900
 4369TIP3    H113071   1.490   6.624   1.815 -0.7649 -0.0404  0.0685
 4369TIP3    H213072   1.449   6.550   1.941  0.4552  0.9154  1.0469
 4370TIP3   OH213073   2.157   3.140   5.533  0.2803 -0.3268 -0.3421
 4370TIP3    H113074   2.183   3.211   5.592  3.2254 -1.1482 -0.5159
 4370TIP3    H213075   2.213   3.151   5.457 -0.2594 -1.9752 -1.0108
 4371TIP3   OH213076   3.370   4.755   1.717  0.0317  0.1354 -0.5093
 4371TIP3    H113077   3.350   4.750   1.624  0.5621  1.5224 -0.7163
 4371TIP3    H213078   3.448   4.810   1.722  0.1077 -0.0603  0.7402
 4372TIP3   OH213079   2.886   5.919   4.601 -0.2914 -0.1381 -0.1343
 4372TIP3    H113080   2.948   5.882   4.539 -0.2825 -0.3217 -0.0161
 4372TIP3    H213081   2.930   5.912   4.686 -0.1357  0.4808 -0.1593
 4373TIP3   OH213082   0.488   1.564   1.351  0.3295  0.0698 -0.1563
 4373TIP3    H113083   0.396   1.559   1.377  0.3978  2.9175  0.9541
 4373TIP3    H213084   0.486   1.557   1.255 -1.4365  2.9569 -0.4422
 4374TIP3   OH213085   4.879   0.028   3.081  0.3212 -0.0489  0.2950
 4374TIP3    H113086   4.895   0.119   3.055  0.0874 -0.5909 -2.0096
 4374TIP3    H213087   4.795   0.031   3.126  0.9481  1.0454  1.4555
 4375TIP3   OH213088   1.953   2.123   3.185 -0.5720  0.2178 -0.0589
 4375TIP3    H113089   1.929   2.118   3.093 -1.5985  3.5743 -0.0831
 4375TIP3    H213090   2.044   2.151   3.186 -0.5515  0.1519 -0.0318
 4376TIP3   OH213091   0.869   4.538   4.300 -0.8789  0.4676  0.3029
 4376TIP3    H113092   0.899   4.556   4.211  1.1878 -2.4658  0.2333
 4376TIP3    H213093   0.774   4.544   4.295 -0.7229  3.4134 -1.2713
 4377TIP3   OH213094   1.910   6.230   5.351  0.1167  0.6881  0.1173
 4377TIP3    H113095   1.936   6.153   5.401 -0.6710  0.4453  0.1787
 4377TIP3    H213096   1.814   6.227   5.351  0.0639 -0.0288 -2.4723
 4378TIP3   OH213097   6.644   2.655   0.297 -0.1342 -0.2380  0.1901
 4378TIP3    H113098   6.651   2.746   0.325 -1.2253  0.2930 -1.1225
 4378TIP3    H213099   6.734   2.624   0.292  0.2232  0.5779  1.2070
 4379TIP3   OH213100   3.599   4.819   3.363  0.3548  0.1501 -0.3392
 4379TIP3    H113101   3.619   4.731   3.331  0.5122  0.5191 -1.2817
 4379TIP3    H213102   3.620   4.877   3.290 -1.1296  0.8518 -0.2564
 4380TIP3   OH213103   4.926   2.665   4.183  0.8271  0.3083 -0.0248
 4380TIP3    H113104   5.016   2.697   4.183  0.5770  1.0535 -0.9917
 4380TIP3    H213105   4.878   2.726   4.127 -0.1164 -0.5334 -0.1783
 4381TIP3   OH213106   3.341   0.611   2.900  0.1037  0.2677  0.3315
 4381TIP3    H113107   3.324   0.679   2.965  1.0333  1.2762 -0.4296
 4381TIP3    H213108   3.394   0.655   2.833  3.3372 -1.8630  1.2410
 4382TIP3   OH213109   1.206   1.951   5.078 -0.0016 -0.6777  0.0731
 4382TIP3    H113110   1.261   2.015   5.123 -1.4194  1.3068 -0.8799
 4382TIP3    H213111   1.213   1.973   4.986 -2.3037 -0.3683 -0.0920
 4383TIP3   OH213112   4.662   3.707   4.230 -0.9953 -0.2460  0.1700
 4383TIP3    H113113   4.713   3.632   4.259 -0.7394  0.1690  0.8063
 4383TIP3    H213114   4.610   3.733   4.306 -0.6641  0.5659  0.1273
 4384TIP3   OH213115   2.496   4.336   1.742 -0.4716  0.2628  0.8354
 4384TIP3    H113116   2.476   4.317   1.651  0.6818 -0.9085  0.7914
 4384TIP3    H213117   2.481   4.430   1.752  0.6791  0.6649 -0.9025
 4385TIP3   OH213118   1.083   4.186   3.457 -0.2349 -0.1921  0.3287
 4385TIP3    H113119   1.162   4.205   3.508  0.4799  0.7701 -1.0902
 4385TIP3    H213120   1.016   4.242   3.496  0.2003  0.2318  0.4820
 4386TIP3   OH213121   1.359   1.099   3.076  0.5960  0.4963  0.0379
 4386TIP3    H113122   1.378   1.020   3.126 -1.2843  0.8601  1.4753
 4386TIP3    H213123   1.272   1.126   3.107  0.4879  2.2243 -1.5838
 4387TIP3   OH213124   1.604   2.278   5.255  0.1122 -0.1905 -0.3798
 4387TIP3    H113125   1.600   2.274   5.159 -0.1847 -1.7079 -0.3280
 4387TIP3    H213126   1.685   2.232   5.277 -0.4580 -0.9567  0.1435
 4388TIP3   OH213127   1.256   4.928   3.771 -0.2576 -0.0515  0.1248
 4388TIP3    H113128   1.301   4.906   3.852  0.4671 -0.3822 -0.3641
 4388TIP3    H213129   1.177   4.975   3.800 -1.7608 -2.9719  1.2066
 4389TIP3   OH213130   2.162   3.200   3.659 -0.1350 -1.0205  0.2067
 4389TIP3    H113131   2.210   3.221   3.739 -1.7881 -1.0385  1.2502
 4389TIP3    H213132   2.230   3.193   3.591  1.2264 -0.2109  1.4258
 4390TIP3   OH213133   3.376   1.531   4.602 -0.0236 -0.1904  0.0909
 4390TIP3    H113134   3.285   1.504   4.587 -0.0684 -0.3032  0.5573
 4390TIP3    H213135   3.420   1.516   4.518 -0.0293 -1.8096  0.3479
 4391TIP3   OH213136   2.311   1.949   2.849 -0.1394 -0.0005 -0.4298
 4391TIP3    H113137   2.234   2.005   2.843 -0.3422 -0.2286  0.0030
 4391TIP3    H213138   2.385   2.009   2.851 -0.3324  0.2343 -0.3660
 4392TIP3   OH213139   2.184   0.996   4.575  0.1782 -0.1002  0.3099
 4392TIP3    H113140   2.247   1.039   4.517  1.2517 -0.4447  1.1855
 4392TIP3    H213141   2.132   0.941   4.516 -0.6468  1.6647 -0.7014
 4393TIP3   OH213142   4.959   0.349   0.613 -0.5219  0.1019 -0.2901
 4393TIP3    H113143   4.899   0.361   0.539  1.4458  0.3583 -1.9221
 4393TIP3    H213144   4.964   0.435   0.654  0.3062  0.6178 -1.4336
 4394TIP3   OH213145   4.313   5.820   0.008 -0.2931 -0.4486 -0.6474
 4394TIP3    H113146   4.398   5.856  -0.014 -0.0174  1.0618  2.4195
 4394TIP3    H213147   4.328   5.725   0.013  0.8813 -0.3117 -1.2434
 4395TIP3   OH213148   1.177   4.697   2.192 -0.2094  0.3669  0.0363
 4395TIP3    H113149   1.152   4.642   2.118 -0.3622 -1.6989  1.5076
 4395TIP3    H213150   1.271   4.712   2.180 -0.2455  0.1003 -0.6133
 4396TIP3   OH213151   4.836   6.366   2.723 -0.4762 -0.6427 -0.3174
 4396TIP3    H113152   4.825   6.442   2.781 -2.0406  0.0467 -1.4420
 4396TIP3    H213153   4.757   6.314   2.736 -0.1584 -1.2419 -0.7439
 4397TIP3   OH213154   6.233   6.363   2.891  0.4623 -0.2109  0.5715
 4397TIP3    H113155   6.247   6.271   2.911 -0.0036 -0.1815  1.0660
 4397TIP3    H213156   6.139   6.376   2.904  0.2898  0.0305 -0.7717
 4398TIP3   OH213157   0.185   1.985   4.254 -0.2765  0.0692 -0.2921
 4398TIP3    H113158   0.136   2.055   4.209  0.1220 -0.1375 -1.0751
 4398TIP3    H213159   0.259   2.030   4.294  0.9725 -0.0887 -2.2706
 4399TIP3   OH213160   5.912   3.572   5.155  0.0860  0.5367  0.1987
 4399TIP3    H113161   5.834   3.549   5.205 -0.1834  0.1016 -0.4057
 4399TIP3    H213162   5.940   3.490   5.115  0.0701  0.9371 -0.6659
 4400TIP3   OH213163   0.430   4.770   2.292 -0.3398  0.0492 -0.3721
 4400TIP3    H113164   0.349   4.787   2.243  0.8161 -0.4856 -2.6116
 4400TIP3    H213165   0.429   4.675   2.305  0.6147 -0.1921 -1.8109
 4401TIP3   OH213166   0.324   2.597   3.660 -0.8649  0.2113  0.0996
 4401TIP3    H113167   0.283   2.597   3.574  1.7982 -2.1334 -1.3601
 4401TIP3    H213168   0.263   2.550   3.716 -0.7547 -2.3164 -1.7270
 4402TIP3   OH213169   6.494   6.785   5.771 -0.0203 -0.3426 -0.2914
 4402TIP3    H113170   6.513   6.756   5.861  1.2608  0.3685 -0.3061
 4402TIP3    H213171   6.451   6.710   5.731 -0.4811 -0.7296  0.8725
 4403TIP3   OH213172   0.502   5.445   2.781 -0.1653  0.0659  0.7252
 4403TIP3    H113173   0.425   5.483   2.738 -1.0066  0.6406  2.6332
 4403TIP3    H213174   0.543   5.518   2.825  1.1972 -0.3511  0.1967
 4404TIP3   OH213175   1.651   6.621   4.753 -0.0033  0.1365  0.1007
 4404TIP3    H113176   1.646   6.703   4.802  1.4619  0.9186 -0.9652
 4404TIP3    H213177   1.597   6.560   4.803 -0.5313  1.5410  1.3317
 4405TIP3   OH213178   6.823   4.745   3.285 -0.4244  0.0992 -0.1977
 4405TIP3    H113179   6.790   4.811   3.345 -0.3640  0.9224 -1.0397
 4405TIP3    H213180   6.827   4.664   3.337 -3.5140 -0.0157  0.0343
 4406TIP3   OH213181   6.178   1.574   4.076 -0.1697 -0.0815  0.2068
 4406TIP3    H113182   6.212   1.490   4.108  1.0845  0.3912  0.1874
 4406TIP3    H213183   6.090   1.580   4.113 -1.1838 -2.3899 -1.5273
 4407TIP3   OH213184   6.781   0.048   3.496 -0.0150 -0.1122  0.3356
 4407TIP3    H113185   6.744   0.107   3.561 -0.4075 -0.1126  0.1140
 4407TIP3    H213186   6.760  -0.040   3.527 -0.1121 -0.1152  0.2611
 4408TIP3   OH213187   2.148   2.988   3.308 -0.4820 -0.7503  0.4756
 4408TIP3    H113188   2.176   2.897   3.317 -1.5469 -1.0491  1.0418
 4408TIP3    H213189   2.149   3.022   3.398  1.6431  0.3648  0.0734
 4409TIP3   OH213190   4.026   1.246   5.700  0.2133  0.3354  0.3026
 4409TIP3    H113191   4.063   1.159   5.714 -0.3668  0.2652  1.5114
 4409TIP3    H213192   3.999   1.275   5.787  0.1809  1.6319 -0.1174
 4410TIP3   OH213193   7.181   6.554   1.278 -0.0795  0.6619  0.1274
 4410TIP3    H113194   7.102   6.515   1.315  1.7058 -2.2193  1.2709
 4410TIP3    H213195   7.183   6.643   1.314 -2.7041  0.8164  0.0789
 4411TIP3   OH213196   4.384   1.734   1.707  1.0827 -0.4658 -0.1100
 4411TIP3    H113197   4.346   1.647   1.693  2.1148 -1.0573  0.5681
 4411TIP3    H213198   4.474   1.726   1.674  0.4153  1.1916 -2.6482
 4412TIP3   OH213199   3.641   5.749   2.181 -0.2647  0.1993  0.5857
 4412TIP3    H113200   3.640   5.695   2.260 -1.4235  0.0169  0.4739
 4412TIP3    H213201   3.732   5.778   2.172  0.5902 -2.3798  0.1827
 4413TIP3   OH213202   5.614   0.399   0.522  0.1183 -0.1553 -0.1647
 4413TIP3    H113203   5.571   0.366   0.442  3.5206  0.6973 -2.5918
 4413TIP3    H213204   5.699   0.356   0.522  0.4630  0.3559  2.7807
 4414TIP3   OH213205   6.288   0.463   5.190 -0.0161 -0.0630  0.1413
 4414TIP3    H113206   6.200   0.473   5.155  0.7570  2.1376 -1.3960
 4414TIP3    H213207   6.315   0.375   5.164 -0.9576  0.0506 -1.3168
 4415TIP3   OH213208   6.528   5.481   1.035  0.5912 -0.0043  0.1133
 4415TIP3    H113209   6.453   5.432   1.070  1.1182 -1.1897 -0.3480
 4415TIP3    H213210   6.550   5.543   1.104 -0.3123 -0.1995  0.5923
 4416TIP3   OH213211   3.276   5.081   3.852  0.0869  0.4211 -0.1826
 4416TIP3    H113212   3.293   5.142   3.781 -0.4138  0.4174 -0.3106
 4416TIP3    H213213   3.331   5.111   3.924  1.6198 -0.3606 -0.9872
 4417TIP3   OH213214   6.628   1.173   0.941 -0.3591  0.5964 -0.0474
 4417TIP3    H113215   6.721   1.187   0.923  0.1253 -0.3584  1.5106
 4417TIP3    H213216   6.584   1.242   0.891  1.0603  0.2550 -1.8797
 4418TIP3   OH213217   4.439   3.235   5.493  0.0299 -0.1801  0.2885
 4418TIP3    H113218   4.476   3.241   5.404 -1.1674 -1.5783 -0.3505
 4418TIP3    H213219   4.417   3.325   5.515  1.6044  0.3846 -0.2515
 4419TIP3   OH213220   1.105   0.283   4.390  0.0154  0.0443 -0.1422
 4419TIP3    H113221   1.039   0.351   4.379 -0.0912  0.0585  0.5713
 4419TIP3    H213222   1.084   0.219   4.322 -0.3527  0.3483 -0.3216
 4420TIP3   OH213223   4.972   1.362   2.578  0.0875 -0.1073  0.0484
 4420TIP3    H113224   4.972   1.393   2.669  0.4639  0.8900 -0.2748
 4420TIP3    H213225   5.047   1.304   2.572  0.5087  0.4171  0.1908
 4421TIP3   OH213226   4.919   4.602   1.369 -0.0097  0.0209 -0.2302
 4421TIP3    H113227   5.012   4.587   1.351  0.5565  0.9315  1.6396
 4421TIP3    H213228   4.899   4.543   1.442 -0.8600  0.0218 -0.4447
 4422TIP3   OH213229   4.357   4.917   0.345 -0.3591 -0.2413 -0.2384
 4422TIP3    H113230   4.288   4.861   0.308 -1.1388  0.0086  0.7898
 4422TIP3    H213231   4.366   4.887   0.436  0.5105  0.0940 -0.2079
 4423TIP3   OH213232   4.096   5.420   2.283  0.3687 -0.5510  0.3238
 4423TIP3    H113233   4.097   5.514   2.297  2.3599 -0.7425  1.9052
 4423TIP3    H213234   4.158   5.405   2.212  0.0772 -0.6866  0.0930
 4424TIP3   OH213235   1.685   3.723   5.007 -0.2952 -0.1782 -0.4499
 4424TIP3    H113236   1.680   3.627   5.013 -0.0313 -0.2724 -1.5557
 4424TIP3    H213237   1.598   3.753   5.031 -0.5586 -0.7322 -0.6970
 4425TIP3   OH213238   1.676   2.831   4.980  0.2371  0.5510  0.3607
 4425TIP3    H113239   1.668   2.846   5.074  0.8921  0.3081  0.4624
 4425TIP3    H213240   1.673   2.918   4.941 -1.1914  0.5793  0.5059
 4426TIP3   OH213241   0.747   2.276   0.037  0.4709 -0.3842  0.2823
 4426TIP3    H113242   0.673   2.266   0.098 -0.8018 -0.5870 -1.2290
 4426TIP3    H213243   0.824   2.251   0.089 -0.7877 -2.6137  1.2435
 4427TIP3   OH213244   6.199   2.790   0.231  0.2378 -0.1393  0.2591
 4427TIP3    H113245   6.113   2.803   0.193  0.7145 -2.9213 -2.1544
 4427TIP3    H213246   6.260   2.804   0.159  1.5919 -0.6698  1.2590
 4428TIP3   OH213247   4.532   0.380   3.126 -0.0876 -0.1795  0.0643
 4428TIP3    H113248   4.590   0.340   3.191 -1.3837  0.4831  1.6885
 4428TIP3    H213249   4.481   0.306   3.092 -1.1230 -0.2495  1.6509
 4429TIP3   OH213250   6.854   6.570   1.103 -0.0226 -0.2357 -0.4905
 4429TIP3    H113251   6.782   6.511   1.082 -0.3600 -0.4110  1.0205
 4429TIP3    H213252   6.886   6.539   1.188  1.0953  0.5379 -0.6109
 4430TIP3   OH213253   3.914   5.564   0.776 -0.0174  0.3224  0.3079
 4430TIP3    H113254   4.005   5.538   0.786 -0.5656 -1.3076  1.5519
 4430TIP3    H213255   3.915   5.659   0.781  1.6723  0.3840 -0.5019
 4431TIP3   OH213256   4.030   2.561   0.957  0.0852 -0.0838  0.1662
 4431TIP3    H113257   4.108   2.577   0.904  1.0021  0.9173  1.7219
 4431TIP3    H213258   4.033   2.467   0.976  0.1724 -0.3006 -0.8835
 4432TIP3   OH213259   5.831   4.643   2.636 -0.2112  0.1683 -0.5966
 4432TIP3    H113260   5.859   4.711   2.574  1.6474  0.4455  0.4721
 4432TIP3    H213261   5.753   4.678   2.677 -0.7309  0.5326 -1.8611
 4433TIP3   OH213262   4.268   0.405   0.645  0.6274  0.2882  0.0914
 4433TIP3    H113263   4.343   0.458   0.619 -0.0978  0.9012 -0.8581
 4433TIP3    H213264   4.301   0.316   0.651  1.0020  0.1814 -2.4577
 4434TIP3   OH213265   5.567   0.878   1.297 -0.0025  0.1086 -0.5112
 4434TIP3    H113266   5.576   0.844   1.208 -0.7409  1.2425 -1.0386
 4434TIP3    H213267   5.521   0.809   1.345 -0.1413 -0.2602 -1.1703
 4435TIP3   OH213268   6.006   2.898   0.063 -0.0183  0.4099  0.2500
 4435TIP3    H113269   5.916   2.900   0.033  0.0804  0.7369 -0.0312
 4435TIP3    H213270   6.044   2.981   0.033 -0.2277  1.3034  2.2517
 4436TIP3   OH213271   3.011   5.990   4.829  0.1146 -0.3247 -0.2191
 4436TIP3    H113272   3.051   6.028   4.908 -0.7200 -0.1067  0.1226
 4436TIP3    H213273   2.970   6.065   4.785 -1.8699 -0.8099  0.6521
 4437TIP3   OH213274   2.405   6.686   0.638  0.2140  0.0803  0.6452
 4437TIP3    H113275   2.329   6.735   0.669  1.4037  2.1430  0.4593
 4437TIP3    H213276   2.423   6.721   0.551  0.3172 -1.6577 -0.0668
 4438TIP3   OH213277   4.525   4.078   5.029 -0.4879 -0.2056 -0.0632
 4438TIP3    H113278   4.516   4.034   5.114 -1.4796  1.4067  0.7343
 4438TIP3    H213279   4.488   4.165   5.044 -2.6699 -0.5231 -2.7001
 4439TIP3   OH213280   3.501   1.952   3.167 -0.5427 -0.1668  0.0787
 4439TIP3    H113281   3.588   1.979   3.198 -0.6119  0.9169 -0.6381
 4439TIP3    H213282   3.520   1.888   3.098 -0.3325 -0.4998  0.4414
 4440TIP3   OH213283   6.346   4.177   1.593  0.6715 -0.0985 -0.0803
 4440TIP3    H113284   6.275   4.232   1.623 -0.4902 -1.7775  0.4052
 4440TIP3    H213285   6.318   4.088   1.614  1.8038 -1.0123 -2.1107
 4441TIP3   OH213286   4.499   3.140   2.482  0.2883  0.2293  0.0168
 4441TIP3    H113287   4.421   3.086   2.465  0.5616 -0.2529  0.2792
 4441TIP3    H213288   4.566   3.103   2.424  0.8631 -0.6011  1.1590
 4442TIP3   OH213289   4.707   2.935   1.452  0.4392 -0.0603 -0.2165
 4442TIP3    H113290   4.759   2.904   1.378 -0.5317  0.0947 -0.9739
 4442TIP3    H213291   4.665   3.015   1.420  1.1455  0.8378  0.9836
 4443TIP3   OH213292   7.003   1.493   1.070 -0.2912  0.5650  0.0703
 4443TIP3    H113293   7.087   1.511   1.111  1.0084 -1.3101 -1.5983
 4443TIP3    H213294   6.961   1.430   1.129  0.4575 -0.1964 -0.1945
 4444TIP3   OH213295   1.431   6.183   4.365  0.3702  0.8386  0.0964
 4444TIP3    H113296   1.439   6.228   4.449 -1.4850 -0.6029  1.1286
 4444TIP3    H213297   1.421   6.253   4.301  2.3729  1.9821  0.9647
 4445TIP3   OH213298   2.261   2.089   0.066  0.4966 -0.1048  0.2170
 4445TIP3    H113299   2.220   2.003   0.055  0.4075 -0.4418  2.6571
 4445TIP3    H213300   2.330   2.090  -0.000  2.2158 -3.2079  1.6915
 4446TIP3   OH213301   3.521   1.365   5.096 -0.2799 -0.1419  0.5900
 4446TIP3    H113302   3.515   1.394   5.005  0.3145  0.2810  0.6788
 4446TIP3    H213303   3.528   1.446   5.146 -0.7010 -0.3731  1.0187
 4447TIP3   OH213304   0.403   2.120   4.384  0.5053  0.3318 -0.4686
 4447TIP3    H113305   0.359   2.088   4.463  0.0872  1.7356 -0.1060
 4447TIP3    H213306   0.486   2.071   4.381 -0.5032 -1.4713 -0.4952
 4448TIP3   OH213307   3.710   6.032   3.996  0.8348 -0.1010  0.1605
 4448TIP3    H113308   3.724   5.974   4.071 -0.5175 -1.7901 -0.8207
 4448TIP3    H213309   3.790   6.084   3.990  0.5179  1.0004  3.5031
 4449TIP3   OH213310   4.581   0.847   5.811  0.2204  0.2428 -0.0293
 4449TIP3    H113311   4.609   0.812   5.896  0.7945 -0.4092 -0.4720
 4449TIP3    H213312   4.642   0.918   5.793 -1.0192  1.6010  0.9259
 4450TIP3   OH213313   2.286   1.201   2.650  0.2480 -0.1543  0.2354
 4450TIP3    H113314   2.248   1.114   2.662  0.4564 -0.0870  1.4924
 4450TIP3    H213315   2.234   1.241   2.581 -0.4262 -0.9468  0.2775
 4451TIP3   OH213316   2.486   0.039   1.310 -0.3428 -0.0158 -0.2997
 4451TIP3    H113317   2.443   0.055   1.394 -0.6789 -2.0125 -0.0495
 4451TIP3    H213318   2.526   0.123   1.288 -0.0581  0.5155  1.9526
 4452TIP3   OH213319   4.400   3.159   1.529  0.3304  0.3381  0.2292
 4452TIP3    H113320   4.482   3.186   1.571  0.8025  1.5354 -1.3758
 4452TIP3    H213321   4.332   3.206   1.577  0.3966 -1.5154  2.3044
 4453TIP3   OH213322   2.609   3.719   3.281  0.7365  0.1740 -0.3121
 4453TIP3    H113323   2.547   3.760   3.221 -1.1937 -1.2301  0.6090
 4453TIP3    H213324   2.651   3.792   3.327 -0.4144  1.1675 -0.8027
 4454TIP3   OH213325   2.184   5.104   1.599  0.1426 -0.6253 -0.2958
 4454TIP3    H113326   2.219   5.015   1.605 -1.9760 -1.6320 -2.0030
 4454TIP3    H213327   2.157   5.114   1.508 -0.1902  1.5842 -0.0100
 4455TIP3   OH213328   5.274   0.617   2.197 -0.5357  0.2652 -0.2889
 4455TIP3    H113329   5.229   0.668   2.264 -0.9859 -0.9496  0.3679
 4455TIP3    H213330   5.279   0.528   2.233  1.3610  0.0895 -0.8490
 4456TIP3   OH213331   3.242   3.243   2.797 -0.0306  0.5313  0.4180
 4456TIP3    H113332   3.179   3.276   2.861 -0.3607  0.1816  0.2717
 4456TIP3    H213333   3.205   3.161   2.766  0.1911  0.6287 -0.1250
 4457TIP3   OH213334   6.218   4.481   1.814  0.0347 -0.5599  0.8244
 4457TIP3    H113335   6.145   4.534   1.844  1.0723  0.7368  1.1718
 4457TIP3    H213336   6.224   4.409   1.877 -1.2949 -1.0404  0.4322
 4458TIP3   OH213337   6.672   2.510   4.032 -0.2344 -0.6418  0.4971
 4458TIP3    H113338   6.577   2.506   4.026 -0.2329 -0.3078  0.2373
 4458TIP3    H213339   6.700   2.558   3.954  0.0999 -0.1900  0.8820
 4459TIP3   OH213340   6.866   4.308   5.085  0.0629 -0.2186 -0.1143
 4459TIP3    H113341   6.894   4.273   5.001 -0.1394 -0.1864 -0.1955
 4459TIP3    H213342   6.904   4.248   5.150  2.1542  1.0409 -0.0909
 4460TIP3   OH213343   2.975   3.634   0.293  0.1922 -0.3777  0.1028
 4460TIP3    H113344   2.910   3.702   0.280  0.7596  1.1591  3.8341
 4460TIP3    H213345   2.924   3.558   0.321 -0.2100 -0.4017 -0.6692
 4461TIP3   OH213346   6.349   2.728   4.118 -0.1225 -0.4830  0.5040
 4461TIP3    H113347   6.323   2.641   4.148 -0.3990 -0.5057  0.1987
 4461TIP3    H213348   6.334   2.726   4.023  1.5095 -0.6907  0.2177
 4462TIP3   OH213349   3.165   4.656   5.191  0.0065 -0.2167 -0.2330
 4462TIP3    H113350   3.250   4.689   5.162  0.3235 -1.4301 -0.7472
 4462TIP3    H213351   3.177   4.637   5.284  0.0628  0.3410 -0.1246
 4463TIP3   OH213352   6.635   1.304   1.894 -0.0355 -0.0665  0.1441
 4463TIP3    H113353   6.575   1.234   1.865  0.0770 -0.5066  0.9513
 4463TIP3    H213354   6.590   1.344   1.968 -0.5868  1.4435 -0.9519
 4464TIP3   OH213355   2.780   5.552   1.350  0.2657  0.4273 -0.3702
 4464TIP3    H113356   2.832   5.603   1.287  0.4651  1.3640  0.5311
 4464TIP3    H213357   2.804   5.461   1.332  0.4010  0.6841 -1.5666
 4465TIP3   OH213358   1.300   2.666   3.046  0.0998 -0.0748 -0.2077
 4465TIP3    H113359   1.335   2.754   3.057 -0.5335  0.3638 -1.5858
 4465TIP3    H213360   1.364   2.609   3.090  1.0292  0.9735 -0.1707
 4466TIP3   OH213361   3.101   4.710   0.795 -0.0946 -0.8091  0.2088
 4466TIP3    H113362   3.189   4.717   0.833  0.7614 -2.1696 -1.3924
 4466TIP3    H213363   3.096   4.620   0.763 -2.2252 -0.8736  0.5518
 4467TIP3   OH213364   1.269   1.040   4.227 -0.1290 -0.7000  0.3637
 4467TIP3    H113365   1.180   1.055   4.194  0.4495  1.3689 -0.3413
 4467TIP3    H213366   1.279   1.102   4.299  0.1198 -2.2530  1.7294
 4468TIP3   OH213367   0.783   2.094   1.315  0.0122 -0.0463 -0.4392
 4468TIP3    H113368   0.729   2.061   1.387  2.7604 -1.8157  1.0080
 4468TIP3    H213369   0.811   2.181   1.344 -0.2151 -0.0773 -0.1189
 4469TIP3   OH213370   6.200   5.538   3.889  0.4021  0.3254 -0.1846
 4469TIP3    H113371   6.113   5.545   3.929  1.2506  2.4223  1.5028
 4469TIP3    H213372   6.260   5.546   3.963  2.0441  1.3895 -1.5684
 4470TIP3   OH213373   7.004   6.772   3.621  0.6422 -0.6112 -0.0106
 4470TIP3    H113374   6.994   6.678   3.607  1.6357 -0.5622 -1.1051
 4470TIP3    H213375   6.915   6.807   3.609  0.1019 -1.4829  1.2182
 4471TIP3   OH213376   5.823   4.439   1.712 -0.5378  0.3114  0.2311
 4471TIP3    H113377   5.868   4.376   1.767 -0.8395  0.6779  0.9054
 4471TIP3    H213378   5.730   4.418   1.721 -0.4896 -1.3266 -2.2343
 4472TIP3   OH213379   3.467   6.206   4.055  0.2009 -0.0011  0.2530
 4472TIP3    H113380   3.505   6.264   4.121  0.3119 -0.1338  0.3062
 4472TIP3    H213381   3.538   6.146   4.033  0.2720  0.2546 -0.2337
 4473TIP3   OH213382   2.339   5.026   1.992  0.2745 -0.1079  0.1663
 4473TIP3    H113383   2.264   5.080   2.018 -0.1089 -1.4545  2.0103
 4473TIP3    H213384   2.404   5.041   2.061  0.5423 -1.2202  0.1690
 4474TIP3   OH213385   1.088   1.455   5.452 -0.0953 -0.0129 -0.3032
 4474TIP3    H113386   1.158   1.520   5.446  1.3259 -1.6235 -3.3159
 4474TIP3    H213387   1.128   1.381   5.498 -0.5418 -0.1247 -0.0895
 4475TIP3   OH213388   0.014   0.378   1.402 -0.1560  0.0749  0.4397
 4475TIP3    H113389   0.090   0.431   1.380  0.8770  0.3389  3.9377
 4475TIP3    H213390  -0.002   0.324   1.325  1.0260  2.8117 -1.8931
 4476TIP3   OH213391   2.654   6.530   2.446  0.2830 -0.1689 -0.3592
 4476TIP3    H113392   2.741   6.493   2.429  0.6171  1.3356 -2.3534
 4476TIP3    H213393   2.672   6.621   2.470 -0.7236  0.0485 -0.4066
 4477TIP3   OH213394   5.040   6.013   1.031  0.0840  0.6426 -0.0859
 4477TIP3    H113395   4.953   6.022   1.069  0.5453  1.2260  0.8954
 4477TIP3    H213396   5.037   6.067   0.952 -0.7872 -0.2878 -0.7046
 4478TIP3   OH213397   6.786   4.037   4.976  0.4118  0.3265  0.8842
 4478TIP3    H113398   6.767   3.979   5.050  0.3982 -0.4801  0.2668
 4478TIP3    H213399   6.703   4.041   4.928  0.8263 -0.4327  0.0635
 4479TIP3   OH213400   5.496   5.028   5.465  0.0896  0.2893  0.4137
 4479TIP3    H113401   5.508   5.041   5.371 -1.0193 -0.9218  0.0695
 4479TIP3    H213402   5.429   5.092   5.489 -0.4452 -0.1544  0.1316
 4480TIP3   OH213403   3.602   0.034   3.697  0.0587  0.4818 -0.2965
 4480TIP3    H113404   3.568   0.122   3.716 -1.5750 -0.0868 -0.4309
 4480TIP3    H213405   3.562  -0.022   3.762  1.3156 -0.1530 -0.0408
 4481TIP3   OH213406   1.135   5.331   4.470  0.3528 -0.6091  0.2793
 4481TIP3    H113407   1.114   5.273   4.543  2.7183 -1.0202  0.7299
 4481TIP3    H213408   1.139   5.418   4.508  0.1312 -0.6197  0.3261
 4482TIP3   OH213409   3.145   1.306   2.129 -0.1601  0.0093 -0.0878
 4482TIP3    H113410   3.121   1.327   2.039  1.7731 -2.3296 -1.2963
 4482TIP3    H213411   3.065   1.271   2.169 -1.5907  2.9722 -0.1367
 4483TIP3   OH213412   4.554   1.146   5.528 -0.6272 -0.0726  0.6980
 4483TIP3    H113413   4.597   1.189   5.602 -0.5919  0.4685  0.3658
 4483TIP3    H213414   4.608   1.169   5.452 -1.9458  1.3132  0.1372
 4484TIP3   OH213415   6.670   6.583   2.931  0.2048 -0.2241 -0.2680
 4484TIP3    H113416   6.747   6.593   2.874  0.9045  2.7274  0.9944
 4484TIP3    H213417   6.634   6.671   2.937 -2.3990 -1.2611  0.4710
 4485TIP3   OH213418   4.603   1.430   0.962  0.1200 -0.6443  0.1278
 4485TIP3    H113419   4.590   1.412   1.055 -2.3630 -1.9150 -0.3807
 4485TIP3    H213420   4.545   1.369   0.918 -1.2074  2.0412 -2.1595
 4486TIP3   OH213421   2.544   6.355   1.423  0.4416 -0.1726  0.2943
 4486TIP3    H113422   2.538   6.371   1.329 -0.5976  1.3117  0.5661
 4486TIP3    H213423   2.593   6.430   1.457 -3.4310  2.1549  1.4728
 4487TIP3   OH213424   4.218   3.179   1.815 -0.1720 -0.4000 -0.1483
 4487TIP3    H113425   4.187   3.268   1.829  0.9447  0.0005 -0.1628
 4487TIP3    H213426   4.227   3.142   1.903  0.5033 -0.0901 -0.0791
 4488TIP3   OH213427   1.453   5.144   5.791 -0.0682 -0.0139 -0.1997
 4488TIP3    H113428   1.430   5.097   5.710 -0.1367 -0.7353  0.2286
 4488TIP3    H213429   1.402   5.100   5.859 -0.1082  0.6774  0.2162
 4489TIP3   OH213430   6.970   6.430   4.923  0.0105 -0.5971 -0.4271
 4489TIP3    H113431   6.950   6.514   4.881 -1.2515 -1.0297 -0.7287
 4489TIP3    H213432   6.959   6.447   5.017 -0.0135 -0.3691 -0.4696
 4490TIP3   OH213433   6.409   0.580   1.616  0.3238  0.5291  0.1188
 4490TIP3    H113434   6.323   0.593   1.657  0.7900 -1.1632  1.8165
 4490TIP3    H213435   6.409   0.487   1.592  1.6292  0.5435  0.0239
 4491TIP3   OH213436   2.144   6.140   0.727  0.4530 -0.2126 -0.0285
 4491TIP3    H113437   2.107   6.053   0.718 -2.0106  0.6596  0.9299
 4491TIP3    H213438   2.110   6.172   0.811  0.1003  2.1968 -1.0155
 4492TIP3   OH213439   2.865   2.943   4.547 -0.4062 -0.0910  0.0364
 4492TIP3    H113440   2.850   2.928   4.640  0.0914  0.5596  0.2342
 4492TIP3    H213441   2.851   2.858   4.506 -1.1403 -0.2700  0.6324
 4493TIP3   OH213442   3.299   6.310   2.650 -0.1646 -0.0744 -0.2536
 4493TIP3    H113443   3.329   6.379   2.590  1.5849  0.3742  1.0358
 4493TIP3    H213444   3.247   6.252   2.595  0.2079  1.0494 -1.8966
 4494TIP3   OH213445   2.789   0.487   4.439  0.1002 -0.8029  0.9078
 4494TIP3    H113446   2.874   0.480   4.395 -0.1954  0.8621 -0.0185
 4494TIP3    H213447   2.735   0.420   4.397  0.0583  0.2363 -0.8308
 4495TIP3   OH213448   1.503   0.752   1.525  0.2426  0.1750  0.5217
 4495TIP3    H113449   1.499   0.766   1.620 -0.3219 -0.2661  0.5715
 4495TIP3    H213450   1.504   0.657   1.515  1.7580  0.2083  0.1234
 4496TIP3   OH213451   3.946   5.297   5.498  0.2389  0.0180 -0.3663
 4496TIP3    H113452   4.034   5.313   5.465  0.9874 -2.4331  0.1961
 4496TIP3    H213453   3.927   5.207   5.472 -1.4793 -0.0285  0.8769
 4497TIP3   OH213454   1.783   5.605   5.765 -0.0932 -0.0678  0.0779
 4497TIP3    H113455   1.778   5.510   5.772 -1.1288 -0.2336 -2.1428
 4497TIP3    H213456   1.823   5.633   5.848  0.6827 -2.4451  0.5882
 4498TIP3   OH213457   3.038   2.061   3.272  0.6077  0.1031 -0.1799
 4498TIP3    H113458   2.962   2.011   3.243  0.7021 -0.6118  0.7457
 4498TIP3    H213459   3.098   2.058   3.198 -0.0247  0.1685 -0.7000
 4499TIP3   OH213460   1.838   2.037   2.352 -0.3642  0.1210 -0.1137
 4499TIP3    H113461   1.873   1.954   2.383 -1.1268  0.1569  0.8732
 4499TIP3    H213462   1.743   2.026   2.354 -0.4999 -0.1297 -3.1684
 4500TIP3   OH213463   5.516   4.312   2.503 -0.0325  0.3552 -0.0115
 4500TIP3    H113464   5.530   4.389   2.557  0.6331  0.0044  0.3262
 4500TIP3    H213465   5.499   4.241   2.565 -1.3172  0.3464 -0.3374
 4501TIP3   OH213466   2.045   0.603   0.758 -0.0415  0.0299  0.4364
 4501TIP3    H113467   2.041   0.539   0.687 -3.1172 -0.3156  0.7709
 4501TIP3    H213468   1.969   0.660   0.743 -0.9376 -0.1929  3.4541
 4502TIP3   OH213469   4.105   3.835   2.282 -0.1029 -0.4576 -0.1975
 4502TIP3    H113470   4.059   3.768   2.332  0.4915 -0.3055  0.5892
 4502TIP3    H213471   4.088   3.916   2.331  2.1663 -0.6138  0.9912
 4503TIP3   OH213472   2.459   4.674   0.919 -0.1408 -0.1208  0.1902
 4503TIP3    H113473   2.415   4.646   0.999  1.4342  0.3687  1.2843
 4503TIP3    H213474   2.484   4.592   0.876 -2.2480 -0.4176 -0.5976
 4504TIP3   OH213475   6.802   4.197   5.774  0.0874 -0.3211 -0.0962
 4504TIP3    H113476   6.765   4.109   5.785 -1.4870  0.1166 -1.4198
 4504TIP3    H213477   6.726   4.253   5.758  0.8225  1.7112  2.7202
 4505TIP3   OH213478   1.725   4.363   2.898 -0.3888  0.4298 -0.0106
 4505TIP3    H113479   1.665   4.317   2.958  1.0889 -1.0348  0.4062
 4505TIP3    H213480   1.690   4.345   2.811 -2.3030  2.2006  0.3266
 4506TIP3   OH213481   5.514   0.334   5.581  0.5632 -0.3010 -0.0708
 4506TIP3    H113482   5.425   0.367   5.565  0.8115  0.4411  0.0623
 4506TIP3    H213483   5.535   0.284   5.502  0.2124 -0.0761 -0.3112
 4507TIP3   OH213484   1.475   6.291   4.710  0.3787 -0.1967 -0.0259
 4507TIP3    H113485   1.414   6.344   4.659  1.5201  1.1843  0.0134
 4507TIP3    H213486   1.513   6.351   4.774  0.9002 -1.3133  0.7590
 4508TIP3   OH213487   0.832   0.867   4.307 -0.2001 -0.1648 -0.0764
 4508TIP3    H113488   0.763   0.907   4.361 -1.2917 -1.6179 -0.3320
 4508TIP3    H213489   0.801   0.879   4.217  0.2835 -0.1196 -0.2374
 4509TIP3   OH213490   2.771   1.667   5.256  0.0834  0.0522 -0.2439
 4509TIP3    H113491   2.851   1.718   5.242 -0.3874  0.7418 -0.4951
 4509TIP3    H213492   2.768   1.651   5.350 -0.0739  1.0475 -0.0648
 4510TIP3   OH213493   1.375   6.611   0.703  0.2476  0.1690 -0.9189
 4510TIP3    H113494   1.443   6.545   0.719  0.5876  0.7107  0.0190
 4510TIP3    H213495   1.371   6.620   0.608  1.2104 -0.1682 -1.0023
 4511TIP3   OH213496   1.865   1.143   5.905  0.0899 -0.3518 -0.8429
 4511TIP3    H113497   1.871   1.131   5.810  1.0552 -0.6261 -0.7537
 4511TIP3    H213498   1.806   1.074   5.934 -0.6319  0.0618 -1.3058
 4512TIP3   OH213499   4.711   6.087   3.262 -0.5101  0.5182 -0.2283
 4512TIP3    H113500   4.762   6.019   3.218  0.5658  1.3340 -0.3021
 4512TIP3    H213501   4.638   6.105   3.203  0.2257  0.7224 -1.0913
 4513TIP3   OH213502   5.891   1.528   2.931  0.5647 -0.2420 -0.4957
 4513TIP3    H113503   5.809   1.545   2.976 -0.1174 -0.7650 -1.4939
 4513TIP3    H213504   5.902   1.604   2.873 -1.0771 -1.7220 -2.9451
 4514TIP3   OH213505   2.314   1.443   2.156 -0.0261 -0.2590 -0.7061
 4514TIP3    H113506   2.368   1.490   2.093 -0.1519  1.4412  0.3894
 4514TIP3    H213507   2.351   1.466   2.241 -1.9058  0.2685  0.0350
 4515TIP3   OH213508   5.285   5.456   0.742 -0.0191 -0.0695 -0.2421
 4515TIP3    H113509   5.367   5.506   0.742  0.3058 -0.3895  2.9506
 4515TIP3    H213510   5.218   5.519   0.718  0.6709  1.3711  1.4438
 4516TIP3   OH213511   5.831   6.429   2.057 -0.3514 -0.4284 -0.6581
 4516TIP3    H113512   5.814   6.512   2.102  0.6796  0.3976 -1.7240
 4516TIP3    H213513   5.903   6.449   1.997 -1.6991 -1.4683 -2.7190
 4517TIP3   OH213514   5.316   4.491   5.253  0.7568 -0.2498 -0.2233
 4517TIP3    H113515   5.233   4.447   5.270  1.2536 -1.0086  0.3174
 4517TIP3    H213516   5.291   4.576   5.217 -0.2681 -0.0923  0.7955
 4518TIP3   OH213517   7.005   2.621   4.322 -0.7764  0.0765 -0.1808
 4518TIP3    H113518   6.945   2.615   4.396 -0.6955  0.0545 -0.1170
 4518TIP3    H213519   6.956   2.670   4.255  0.5409  3.7514  1.3081
 4519TIP3   OH213520   7.081   2.932   4.136  0.2821 -0.6448  0.8365
 4519TIP3    H113521   7.083   2.960   4.045  0.6451  0.3201  1.1306
 4519TIP3    H213522   7.001   2.880   4.143 -0.3820  0.2675  0.2497
 4520TIP3   OH213523   3.458   5.651   1.765  0.6060 -0.1348  0.1223
 4520TIP3    H113524   3.507   5.642   1.683  1.8389  0.0927  0.8055
 4520TIP3    H213525   3.368   5.628   1.742  0.9892 -0.3756 -1.2231
 4521TIP3   OH213526   6.201   4.030   3.511  0.1188 -0.2737 -0.2200
 4521TIP3    H113527   6.204   4.104   3.451  0.0079 -0.2945 -0.2522
 4521TIP3    H213528   6.108   4.006   3.516  0.0885 -0.0748  0.2032
 4522TIP3   OH213529   6.296   2.874   4.410 -0.6830 -0.3890 -0.2740
 4522TIP3    H113530   6.371   2.856   4.466 -0.1463  1.2208 -0.4270
 4522TIP3    H213531   6.274   2.789   4.371  0.8755 -0.9369 -0.0322
 4523TIP3   OH213532   4.560   2.002   5.467 -0.5271  0.1242 -0.0093
 4523TIP3    H113533   4.594   1.918   5.437  0.9478 -0.0544  1.9964
 4523TIP3    H213534   4.581   2.062   5.395  0.5381 -0.7734 -0.4867
 4524TIP3   OH213535   1.750   3.894   5.908  0.3878 -0.2620 -0.3971
 4524TIP3    H113536   1.772   3.984   5.885 -0.5946  0.6222  1.8589
 4524TIP3    H213537   1.696   3.863   5.835  1.0192  0.8345 -1.3668
 4525TIP3   OH213538   6.921   0.878   0.955  0.0436 -0.3048 -0.0202
 4525TIP3    H113539   6.888   0.917   1.036 -1.6344 -0.0580 -0.7731
 4525TIP3    H213540   7.000   0.831   0.982  1.2595  2.2475  1.2028
 4526TIP3   OH213541   3.309   4.592   3.086 -0.0381 -0.6480  0.1734
 4526TIP3    H113542   3.269   4.600   2.999  1.0590  0.1561 -0.2758
 4526TIP3    H213543   3.249   4.638   3.144 -0.6544 -0.9751 -0.1872
 4527TIP3   OH213544   1.370   2.072   2.023 -0.0329 -0.6947 -0.8072
 4527TIP3    H113545   1.318   2.108   2.095 -0.5195  0.3011 -1.6301
 4527TIP3    H213546   1.404   1.989   2.057 -0.2318 -0.2359  0.5659
 4528TIP3   OH213547   5.737   1.070   1.210  0.0580 -0.4155 -0.3430
 4528TIP3    H113548   5.722   1.136   1.277  1.4581  0.6912 -1.0633
 4528TIP3    H213549   5.669   1.004   1.226 -1.6885  1.3903  0.1199
 4529TIP3   OH213550   4.738   3.246   0.390 -0.5458 -0.1625  0.6610
 4529TIP3    H113551   4.819   3.226   0.343 -0.8587  1.3993 -0.6409
 4529TIP3    H213552   4.689   3.164   0.389 -0.0629 -0.4681 -0.8083
 4530TIP3   OH213553   3.433   5.246   4.043  0.3005 -0.5276 -0.0751
 4530TIP3    H113554   3.501   5.218   3.982 -0.2198 -1.4877 -0.2299
 4530TIP3    H213555   3.376   5.303   3.991  0.6330 -0.2231 -0.1091
 4531TIP3   OH213556   2.400   2.674   1.532 -0.2127 -0.5805 -0.4199
 4531TIP3    H113557   2.377   2.767   1.525  1.1366 -0.2344 -0.5124
 4531TIP3    H213558   2.495   2.673   1.528 -0.1860 -1.9276  0.1890
 4532TIP3   OH213559   5.304   3.659   3.355  0.2955  0.1465  0.5121
 4532TIP3    H113560   5.360   3.643   3.279  0.2407  1.4504  0.1663
 4532TIP3    H213561   5.358   3.636   3.430  0.5320 -0.6554  0.1042
 4533TIP3   OH213562   3.733   1.081   4.326  0.3882  0.1710  0.3745
 4533TIP3    H113563   3.645   1.063   4.294  0.8309  1.1167 -1.5639
 4533TIP3    H213564   3.744   1.024   4.402 -0.9338 -1.9337 -0.9227
 4534TIP3   OH213565   6.306   2.292   2.307 -0.3087  0.0294 -0.0835
 4534TIP3    H113566   6.386   2.244   2.287 -0.1652  0.1669  0.1642
 4534TIP3    H213567   6.241   2.255   2.248  0.6838  2.2195 -2.7620
 4535TIP3   OH213568   4.261   1.344   1.415  0.0531 -0.3330  0.1679
 4535TIP3    H113569   4.174   1.383   1.405  0.7693  0.9304 -1.6740
 4535TIP3    H213570   4.244   1.258   1.453 -1.8851  0.3682  1.0630
 4536TIP3   OH213571   3.546   1.673   1.281 -0.2296  0.1395  0.0601
 4536TIP3    H113572   3.564   1.616   1.356  0.2990 -0.1914 -0.3062
 4536TIP3    H213573   3.630   1.715   1.262 -0.1339 -0.4329 -0.8710
 4537TIP3   OH213574   2.846   2.445   4.864 -0.5411 -0.0398 -0.4382
 4537TIP3    H113575   2.904   2.520   4.851  0.6790 -1.0191 -0.8911
 4537TIP3    H213576   2.837   2.406   4.777  0.3478 -1.4553  0.0700
 4538TIP3   OH213577   1.767   1.305   4.575 -0.5807  0.2515  0.0769
 4538TIP3    H113578   1.821   1.272   4.504 -0.5661  0.7302 -0.1394
 4538TIP3    H213579   1.797   1.395   4.589 -2.5295  1.2103 -1.3247
 4539TIP3   OH213580   4.966   0.253   3.564 -0.0761  0.0752 -1.4617
 4539TIP3    H113581   4.922   0.205   3.494 -1.9470  0.0409 -0.3192
 4539TIP3    H213582   4.924   0.223   3.644  0.2704  1.9489 -0.5196
 4540TIP3   OH213583   0.057   0.978   0.291  0.4284 -0.1011 -0.2358
 4540TIP3    H113584  -0.022   0.930   0.313 -0.0714  0.0821 -1.5471
 4540TIP3    H213585   0.055   0.986   0.195  0.7056  2.1161 -0.1169
 4541TIP3   OH213586   5.820   2.007   2.455  0.5166 -0.4473  0.0777
 4541TIP3    H113587   5.781   2.032   2.371 -1.8897 -2.2585  0.5486
 4541TIP3    H213588   5.901   1.961   2.431  0.1327 -0.4875 -1.2073
 4542TIP3   OH213589   1.478   3.393   5.691 -0.2665  0.3453 -0.5438
 4542TIP3    H113590   1.430   3.344   5.624  2.1040 -1.2296 -1.2181
 4542TIP3    H213591   1.526   3.327   5.740 -0.3049  1.6690  1.3636
 4543TIP3   OH213592   5.890   6.587   4.262 -0.0356  0.2274 -0.2537
 4543TIP3    H113593   5.963   6.526   4.273  0.5458  0.8267 -0.6513
 4543TIP3    H213594   5.930   6.663   4.218 -0.8227  0.7190 -0.1296
 4544TIP3   OH213595   1.670   4.298   4.043 -0.2722  0.3399 -0.4676
 4544TIP3    H113596   1.608   4.363   4.076 -1.2054 -0.4414 -0.6537
 4544TIP3    H213597   1.739   4.351   4.000 -0.8812  1.2095 -0.4014
 4545TIP3   OH213598   2.825   5.168   3.467  0.2013  0.4600  0.4764
 4545TIP3    H113599   2.857   5.257   3.457 -1.3225  0.9377 -0.4834
 4545TIP3    H213600   2.740   5.168   3.423  0.6377 -1.7366 -0.5182
 4546TIP3   OH213601   2.007   1.674   1.403 -0.1116 -0.1078 -0.4393
 4546TIP3    H113602   1.919   1.693   1.371  0.2032  0.5218 -0.9524
 4546TIP3    H213603   2.045   1.615   1.337  0.1305  0.2635 -0.6349
 4547TIP3   OH213604   1.599   3.434   5.005  0.3591  0.5424 -0.0624
 4547TIP3    H113605   1.613   3.388   4.922 -0.1285 -1.4860  0.9070
 4547TIP3    H213606   1.523   3.489   4.989  1.8092  2.2008 -1.6893
 4548TIP3   OH213607   3.491   5.044   5.006 -0.8088 -0.3321 -0.2523
 4548TIP3    H113608   3.566   5.002   5.049 -0.5690 -0.2273 -0.5597
 4548TIP3    H213609   3.527   5.125   4.970 -1.7063  1.1631  2.0532
 4549TIP3   OH213610   3.613   1.691   3.775 -0.1636 -0.0321  0.4357
 4549TIP3    H113611   3.521   1.705   3.757 -0.1038  2.1569  1.5703
 4549TIP3    H213612   3.622   1.703   3.870  1.1625 -1.1069  0.4937
 4550TIP3   OH213613   4.022   4.578   1.329  0.6329  0.1901  0.0906
 4550TIP3    H113614   3.998   4.647   1.390 -0.2744 -0.7261  0.7955
 4550TIP3    H213615   3.990   4.497   1.368  0.1598 -0.4533 -1.5146
 4551TIP3   OH213616   5.593   1.925   2.003 -0.1741 -0.0543 -0.3420
 4551TIP3    H113617   5.628   2.013   1.986  0.8593 -0.0390  1.5618
 4551TIP3    H213618   5.624   1.873   1.929  0.8088  0.7888 -0.5568
 4552TIP3   OH213619   6.238   0.894   0.344  0.6215  0.6108  0.3665
 4552TIP3    H113620   6.326   0.876   0.311  0.5455 -0.4044  0.6634
 4552TIP3    H213621   6.179   0.849   0.283  0.4500 -0.7679  1.4883
 4553TIP3   OH213622   0.562   4.007   1.141  0.5912 -0.2562  0.2886
 4553TIP3    H113623   0.543   4.085   1.089  2.0239  1.2960  1.9705
 4553TIP3    H213624   0.521   4.023   1.225  1.0959 -1.2140  0.7372
 4554TIP3   OH213625   2.640   3.397   2.929  0.2120 -0.1301 -0.1955
 4554TIP3    H113626   2.624   3.368   2.839 -0.1822 -0.5934  0.0200
 4554TIP3    H213627   2.699   3.331   2.965 -1.3897 -1.1931  0.5793
 4555TIP3   OH213628   2.129   5.869   4.077  0.2835 -0.1712  0.5952
 4555TIP3    H113629   2.103   5.955   4.110 -0.8744 -0.2519 -0.0274
 4555TIP3    H213630   2.218   5.881   4.045 -0.7440  1.5365 -1.9179
 4556TIP3   OH213631   0.519   2.396   0.966 -0.5258 -0.4978 -0.4653
 4556TIP3    H113632   0.482   2.406   1.053 -0.1537 -0.1655 -0.3418
 4556TIP3    H213633   0.606   2.358   0.981  0.1794  1.0171 -0.5722
 4557TIP3   OH213634   4.816   1.068   2.453  0.1904 -0.2358  0.0531
 4557TIP3    H113635   4.855   0.982   2.442  1.2459 -0.0796  2.0855
 4557TIP3    H213636   4.799   1.075   2.547  0.3945  1.8573 -0.0100
 4558TIP3   OH213637   1.128   0.796   2.400 -0.2302 -0.9122  0.0960
 4558TIP3    H113638   1.089   0.728   2.455 -0.2871  0.3387  1.6513
 4558TIP3    H213639   1.065   0.868   2.402  1.4364  0.5950  1.4835
 4559TIP3   OH213640   5.196   3.868   4.607 -0.0236  0.3407  0.1120
 4559TIP3    H113641   5.150   3.877   4.523  0.2457 -2.4892 -0.4331
 4559TIP3    H213642   5.289   3.867   4.583  0.0281 -1.7482  0.2030
 4560TIP3   OH213643   4.761   3.080   0.795  0.2519  0.1639  0.3335
 4560TIP3    H113644   4.680   3.093   0.844 -1.3759 -1.7533 -1.6648
 4560TIP3    H213645   4.732   3.059   0.706  2.9034 -1.7046 -0.1817
 4561TIP3   OH213646   2.349   0.606   2.262  0.0218 -0.1629 -0.1622
 4561TIP3    H113647   2.431   0.559   2.274 -0.3092 -0.9102 -0.7180
 4561TIP3    H213648   2.313   0.614   2.350  1.4355  1.6212  0.3203
 4562TIP3   OH213649   4.771   4.321   5.547  0.1821 -0.1668  0.8139
 4562TIP3    H113650   4.779   4.389   5.481 -1.3366 -1.5486 -0.8705
 4562TIP3    H213651   4.833   4.347   5.615  2.4463  0.8906 -1.4848
 4563TIP3   OH213652   2.058   2.138   0.711 -0.8965 -0.5254  0.4610
 4563TIP3    H113653   2.104   2.168   0.790 -0.6850 -0.2216  0.2268
 4563TIP3    H213654   2.026   2.051   0.733 -2.1682  0.1558  1.4121
 4564TIP3   OH213655   6.714   1.121   5.180 -0.2331  0.6270 -0.0432
 4564TIP3    H113656   6.711   1.215   5.195  0.9268  0.6846 -0.0676
 4564TIP3    H213657   6.797   1.093   5.220  0.1824 -0.1355 -1.3816
 4565TIP3   OH213658   2.726   5.638   1.770 -0.8974 -0.6273 -0.0684
 4565TIP3    H113659   2.750   5.680   1.852 -1.4876  0.7651 -0.5694
 4565TIP3    H213660   2.778   5.558   1.767  0.4786  0.1973  0.8121
 4566TIP3   OH213661   5.120   3.708   4.794  0.0351  0.0794  0.5778
 4566TIP3    H113662   5.161   3.780   4.746  1.5065 -1.4904 -0.6566
 4566TIP3    H213663   5.026   3.721   4.784  0.2938  0.5289 -1.6476
 4567TIP3   OH213664   2.615   3.080   1.751 -0.0612 -0.7123  0.2377
 4567TIP3    H113665   2.558   3.024   1.804  0.7971 -1.2309  0.6272
 4567TIP3    H213666   2.700   3.037   1.754  0.4889  0.3483  0.1327
 4568TIP3   OH213667   1.176   1.367   1.097  0.0498  0.0779 -0.4894
 4568TIP3    H113668   1.215   1.404   1.018 -0.9367 -0.6610 -1.3572
 4568TIP3    H213669   1.100   1.423   1.114  1.8590  2.0330  1.6824
 4569TIP3   OH213670   4.154   3.480   2.082  0.3244  0.8155  0.5064
 4569TIP3    H113671   4.245   3.497   2.108  0.2725  0.9762  0.5821
 4569TIP3    H213672   4.128   3.405   2.136 -0.3742  2.2647  2.2880
 4570TIP3   OH213673   2.699   1.666   2.479  0.0654 -0.2653 -0.1095
 4570TIP3    H113674   2.703   1.676   2.384 -1.9232 -1.6387 -0.4136
 4570TIP3    H213675   2.624   1.718   2.505  1.4889  1.3396  0.9845
 4571TIP3   OH213676   0.065   2.025   5.394 -0.1254 -0.1411 -0.1510
 4571TIP3    H113677   0.100   1.940   5.368 -1.1293 -0.2807 -1.1589
 4571TIP3    H213678   0.012   2.007   5.472  0.9436 -0.1487  0.5877
 4572TIP3   OH213679   5.911   5.399   0.050  0.2338 -0.3469 -0.5321
 4572TIP3    H113680   5.908   5.447  -0.033 -0.1340  1.8120  0.6695
 4572TIP3    H213681   5.990   5.431   0.094 -1.0949  0.7315  1.1701
 4573TIP3   OH213682   0.810   1.809   5.176  0.2709  0.6595  0.2259
 4573TIP3    H113683   0.740   1.841   5.234 -2.6673  0.6353 -3.0136
 4573TIP3    H213684   0.840   1.887   5.131  1.1375  0.3948  0.3319
 4574TIP3   OH213685   0.632   5.464   1.610 -0.5830  0.7376  0.3010
 4574TIP3    H113686   0.575   5.540   1.615 -0.0848  1.1365 -0.0460
 4574TIP3    H213687   0.586   5.403   1.552  0.1381  1.7596 -1.3875
 4575TIP3   OH213688   6.166   2.188   3.445 -0.0120 -0.3747 -0.2771
 4575TIP3    H113689   6.131   2.102   3.422 -0.9693 -0.4411  1.3400
 4575TIP3    H213690   6.162   2.192   3.540  0.7822  1.1548 -0.2721
 4576TIP3   OH213691   6.875   2.621   4.575 -0.6730 -0.6402  0.0011
 4576TIP3    H113692   6.896   2.695   4.632 -3.0490  0.1809 -0.1149
 4576TIP3    H213693   6.839   2.555   4.633  1.0950 -1.6375  0.0457
 4577TIP3   OH213694   0.854   6.075   5.062  0.4407  0.2011  0.5278
 4577TIP3    H113695   0.871   6.169   5.070  0.8909  0.1065  0.6967
 4577TIP3    H213696   0.759   6.069   5.050  0.5709  0.7811 -1.0350
 4578TIP3   OH213697   0.315   1.022   0.446  0.4998  0.2068  0.0955
 4578TIP3    H113698   0.233   1.007   0.397  0.6716  0.2763 -0.2188
 4578TIP3    H213699   0.320   0.948   0.507  1.0351 -0.7304 -1.0352
 4579TIP3   OH213700   2.833   3.866   1.992  0.1732 -0.3962 -0.5053
 4579TIP3    H113701   2.776   3.929   2.035  0.4986 -0.1223 -0.4730
 4579TIP3    H213702   2.781   3.786   1.986 -0.8457  0.3386 -2.0453
 4580TIP3   OH213703   0.341   3.404   1.873 -0.0619 -0.5119  0.1927
 4580TIP3    H113704   0.294   3.394   1.790  0.4851 -1.7084  0.0023
 4580TIP3    H213705   0.428   3.432   1.848 -0.3138  0.5612  0.4721
 4581TIP3   OH213706   7.051   0.599   3.520  0.4347 -0.0786  0.0947
 4581TIP3    H113707   7.096   0.515   3.532 -0.7157 -0.7014  0.2011
 4581TIP3    H213708   7.115   0.665   3.549  1.2717 -0.9237  0.2298
 4582TIP3   OH213709   3.860   4.050   2.777 -0.3811 -0.7526  0.8815
 4582TIP3    H113710   3.935   4.005   2.816 -0.4195 -2.4259 -0.8033
 4582TIP3    H213711   3.899   4.110   2.713 -0.4157  0.2580  1.7757
 4583TIP3   OH213712   4.128   2.727   3.293  0.4436  0.0036  0.0328
 4583TIP3    H113713   4.163   2.793   3.353  0.7213 -0.2787  0.1773
 4583TIP3    H213714   4.165   2.644   3.323 -1.2060 -0.4724  0.8887
 4584TIP3   OH213715   2.826   0.204   5.680  0.2569 -0.0448 -0.2334
 4584TIP3    H113716   2.918   0.232   5.677  0.1988  0.1236 -0.4871
 4584TIP3    H213717   2.782   0.263   5.619  0.1078 -0.6105 -0.6772
 4585TIP3   OH213718   6.404   0.407   5.668  0.5891  0.5982 -0.4844
 4585TIP3    H113719   6.390   0.347   5.741  0.0526 -0.2674 -1.2739
 4585TIP3    H213720   6.371   0.491   5.699 -0.4499  0.0416 -0.0316
 4586TIP3   OH213721   0.319   1.760   3.063  0.3318  0.0532  0.1175
 4586TIP3    H113722   0.345   1.851   3.044  1.0055 -0.3549 -1.0305
 4586TIP3    H213723   0.300   1.760   3.157 -1.7221  1.8512 -0.2117
 4587TIP3   OH213724   5.233   3.253   5.838  0.3500 -0.7770  0.4551
 4587TIP3    H113725   5.223   3.182   5.902  1.0876 -0.0047  1.4599
 4587TIP3    H213726   5.144   3.277   5.815  0.0328 -0.4529  1.9233
 4588TIP3   OH213727   6.546   3.324   3.692  0.1454  0.4100  0.1267
 4588TIP3    H113728   6.490   3.246   3.688  1.5498 -0.6184 -0.4741
 4588TIP3    H213729   6.571   3.330   3.784  0.6273 -0.3204  0.0554
 4589TIP3   OH213730   3.426   4.733   1.411  0.2720  0.0837 -0.3606
 4589TIP3    H113731   3.451   4.675   1.339 -2.4990  0.3248 -1.6731
 4589TIP3    H213732   3.497   4.796   1.417  0.0346  0.9151 -3.9285
 4590TIP3   OH213733   4.750   3.044   5.586  0.3601  0.2883 -0.1177
 4590TIP3    H113734   4.700   2.963   5.573  2.1254 -0.5329 -2.8065
 4590TIP3    H213735   4.825   3.035   5.526  1.1856  3.4769  0.2615
 4591TIP3   OH213736   0.756   0.318   3.753 -0.7487 -0.0383 -0.1280
 4591TIP3    H113737   0.687   0.352   3.810 -0.1510  0.9396  0.0410
 4591TIP3    H213738   0.710   0.278   3.680 -1.5057 -0.0271  0.3338
 4592TIP3   OH213739   6.721   0.645   5.245 -0.4468 -0.1830  0.3236
 4592TIP3    H113740   6.781   0.580   5.282 -0.2341 -0.2781 -0.1771
 4592TIP3    H213741   6.766   0.677   5.166 -1.5239 -1.0515 -0.6819
 4593TIP3   OH213742   6.641   4.732   5.538  0.5353 -0.4049  0.1371
 4593TIP3    H113743   6.548   4.712   5.538  0.5744 -0.6599 -0.7557
 4593TIP3    H213744   6.672   4.701   5.452  0.6084  3.4439 -1.3856
 4594TIP3   OH213745   2.278   6.398   1.494 -0.1148  0.4498  0.7304
 4594TIP3    H113746   2.259   6.338   1.566  1.2589 -0.0958  0.6584
 4594TIP3    H213747   2.343   6.353   1.441 -1.1917  0.7881 -0.9531
 4595TIP3   OH213748   4.063   1.761   2.277 -0.3778 -0.1851  0.2137
 4595TIP3    H113749   4.155   1.780   2.260 -0.8087  0.2875 -1.8166
 4595TIP3    H213750   4.018   1.845   2.267 -1.1430 -0.5568  0.4008
 4596TIP3   OH213751   1.863   3.289   5.372  0.0784 -0.4497 -0.1484
 4596TIP3    H113752   1.950   3.271   5.336  0.7906 -1.8118  2.0695
 4596TIP3    H213753   1.824   3.202   5.384 -0.6352  0.0251  1.0681
 4597TIP3   OH213754   4.536   6.351   5.560  0.0547  0.5025 -0.3961
 4597TIP3    H113755   4.563   6.380   5.648 -0.5506  0.5346 -0.2145
 4597TIP3    H213756   4.503   6.430   5.518 -0.1283  0.3857 -0.4732
 4598TIP3   OH213757   6.668   5.385   1.968  0.2978  0.1988 -0.9241
 4598TIP3    H113758   6.718   5.323   1.916 -0.1925 -1.6747  0.7243
 4598TIP3    H213759   6.727   5.413   2.037 -0.6247 -1.4981  0.6265
 4599TIP3   OH213760   2.137   2.369   3.280  0.5349  0.3274  0.4067
 4599TIP3    H113761   2.147   2.357   3.375  0.2791 -0.5995  0.3277
 4599TIP3    H213762   2.045   2.391   3.267 -0.2599 -2.6331  0.1458
 4600TIP3   OH213763   6.097   2.576   0.986 -0.3210  0.1704 -0.4017
 4600TIP3    H113764   6.162   2.573   1.057 -0.8710 -0.6767  0.0893
 4600TIP3    H213765   6.060   2.665   0.991  0.4342  0.4892 -0.3615
 4601TIP3   OH213766   2.336   0.829   4.991  0.2285  0.7453 -0.8351
 4601TIP3    H113767   2.309   0.915   4.959 -0.3156  1.0651  0.4613
 4601TIP3    H213768   2.412   0.847   5.046 -0.3839  0.4901  0.0977
 4602TIP3   OH213769   6.345   5.674   3.218  0.4733  0.7445 -0.0357
 4602TIP3    H113770   6.401   5.596   3.216  1.0824  0.8407  4.2291
 4602TIP3    H213771   6.256   5.639   3.221  0.7092  0.1929  1.0460
 4603TIP3   OH213772   1.049   0.249   3.776 -0.3619  0.1821  0.5532
 4603TIP3    H113773   1.008   0.272   3.692  0.3974  0.0191  0.1343
 4603TIP3    H213774   1.102   0.326   3.798 -0.3178  0.0998  0.7305
 4604TIP3   OH213775   4.283   3.798   0.517  0.2527 -0.4410 -0.6458
 4604TIP3    H113776   4.332   3.724   0.554  1.4896 -0.5743 -2.4234
 4604TIP3    H213777   4.232   3.832   0.590  1.8834 -1.2520  0.9447
 4605TIP3   OH213778   0.627   6.672   5.563 -0.0074 -0.0791 -0.1326
 4605TIP3    H113779   0.688   6.610   5.523 -0.2976  0.0549 -0.7821
 4605TIP3    H213780   0.573   6.619   5.621 -0.1346 -0.4081 -0.5500
 4606TIP3   OH213781   6.215   1.034   5.862 -0.1436 -0.1689  0.0898
 4606TIP3    H113782   6.297   1.017   5.815  0.2679  1.2426  0.2677
 4606TIP3    H213783   6.227   0.991   5.947 -0.3501 -1.5553 -0.5553
 4607TIP3   OH213784   6.835   1.766   3.092  0.8925  0.2347 -0.3299
 4607TIP3    H113785   6.751   1.807   3.071  1.3544  1.9884  1.0185
 4607TIP3    H213786   6.810   1.680   3.128 -0.2535  0.2921 -0.9291
 4608TIP3   OH213787   2.466   6.408   2.575 -0.7145 -0.0972 -0.5918
 4608TIP3    H113788   2.536   6.464   2.542 -0.0038 -1.3591 -1.2997
 4608TIP3    H213789   2.392   6.468   2.589 -0.4443  0.8223 -2.6463
 4609TIP3   OH213790   4.443   5.340   5.480 -0.1167 -0.7820 -0.2467
 4609TIP3    H113791   4.455   5.257   5.524 -1.2354 -0.9260 -0.1720
 4609TIP3    H213792   4.515   5.395   5.511  1.0038 -1.8989 -0.7860
 4610TIP3   OH213793   0.343   4.361   4.331 -0.3774  0.1059 -0.0836
 4610TIP3    H113794   0.400   4.289   4.360 -2.0580 -0.7197  1.4292
 4610TIP3    H213795   0.329   4.344   4.238  0.3682 -0.7348 -0.0599
 4611TIP3   OH213796   0.999   2.606   0.779 -0.3135 -0.4916  0.9117
 4611TIP3    H113797   1.073   2.601   0.840 -0.4305  0.6625  1.1770
 4611TIP3    H213798   0.994   2.699   0.756  2.0200 -1.2290 -3.7416
 4612TIP3   OH213799   2.362   3.119   3.488  0.1402  0.1464 -0.3212
 4612TIP3    H113800   2.391   3.145   3.401 -1.1638  0.5951 -0.6305
 4612TIP3    H213801   2.417   3.043   3.509 -0.0812 -0.4813 -1.8701
 4613TIP3   OH213802   5.394   5.923   1.100 -0.1608  0.2657  0.3943
 4613TIP3    H113803   5.320   5.863   1.111  0.1932  0.0720  1.8501
 4613TIP3    H213804   5.359   6.009   1.124 -0.5196  0.5898 -1.1706
 4614TIP3   OH213805   1.895   3.779   5.537  0.0521  0.1302 -0.4397
 4614TIP3    H113806   1.975   3.735   5.566  0.6552  1.6542  0.3122
 4614TIP3    H213807   1.865   3.727   5.461  0.8193 -1.4166  0.2724
 4615TIP3   OH213808   4.566   1.994   4.448 -0.1482 -0.2614 -0.1596
 4615TIP3    H113809   4.556   2.015   4.355  0.3368  1.4155  0.1299
 4615TIP3    H213810   4.624   1.918   4.450  0.9161  0.4922 -1.2033
 4616TIP3   OH213811   4.831   3.076   1.756 -0.0831  0.3570 -0.0451
 4616TIP3    H113812   4.882   3.143   1.710  0.1830  0.3390  0.2226
 4616TIP3    H213813   4.749   3.071   1.707  0.0648  0.5764 -0.3205
 4617TIP3   OH213814   5.430   3.715   2.135 -0.2738 -0.5409 -0.5276
 4617TIP3    H113815   5.408   3.704   2.228  0.3161 -1.1199 -0.4444
 4617TIP3    H213816   5.480   3.797   2.132 -0.5855 -0.3455 -0.3854
 4618TIP3   OH213817   2.873   3.916   5.345  0.0943 -0.6450  0.5481
 4618TIP3    H113818   2.894   3.824   5.360 -2.6730 -1.5213 -0.3272
 4618TIP3    H213819   2.811   3.938   5.414  0.4994  0.4770  0.5639
 4619TIP3   OH213820   0.927   4.140   0.529  0.0848  0.1614  0.4932
 4619TIP3    H113821   0.982   4.065   0.505 -0.3026  0.0309 -0.0021
 4619TIP3    H213822   0.847   4.100   0.564 -1.4029  0.2341 -2.4924
 4620TIP3   OH213823   0.877   0.616   1.247 -0.0985  0.7361  0.0730
 4620TIP3    H113824   0.955   0.670   1.259  0.4216 -0.1857  0.9936
 4620TIP3    H213825   0.897   0.563   1.169  1.0572 -0.8582  1.3695
 4621TIP3   OH213826   3.151   2.944   5.439 -0.1472 -0.4118  0.7406
 4621TIP3    H113827   3.178   3.022   5.390  1.9046 -0.5277  1.5972
 4621TIP3    H213828   3.202   2.873   5.401 -0.2638 -0.9203  1.5246
 4622TIP3   OH213829   3.881   6.060   0.182 -0.2681 -0.2530 -0.1343
 4622TIP3    H113830   3.886   6.107   0.099 -1.4347  3.4817  1.6913
 4622TIP3    H213831   3.972   6.047   0.207  0.0919 -0.6236 -1.5461
 4623TIP3   OH213832   3.255   4.771   5.797 -0.0756  0.2849 -0.2454
 4623TIP3    H113833   3.234   4.842   5.859  0.9220 -1.5961  2.4170
 4623TIP3    H213834   3.340   4.738   5.826  0.0297 -1.2710 -2.1308
 4624TIP3   OH213835   3.138   6.132   5.065  0.4046 -0.0313 -0.0752
 4624TIP3    H113836   3.148   6.071   5.137  1.8641 -0.2373 -0.4234
 4624TIP3    H213837   3.169   6.216   5.100 -1.4283  0.5315  0.3493
 4625TIP3   OH213838   3.617   5.904   3.775  0.1792  0.6950 -0.5688
 4625TIP3    H113839   3.635   5.959   3.851 -2.3033 -0.3869  0.9514
 4625TIP3    H213840   3.659   5.820   3.796 -1.4435  0.0323  0.2420
 4626TIP3   OH213841   3.204   6.037   5.629  0.0383 -0.1172  0.2033
 4626TIP3    H113842   3.154   5.957   5.647 -1.0394  0.3771 -0.4417
 4626TIP3    H213843   3.292   6.007   5.609 -0.1934 -1.0893  0.6007
 4627TIP3   OH213844   3.190   2.774   4.467 -0.0493 -0.0877 -0.1494
 4627TIP3    H113845   3.222   2.799   4.381 -0.4748  0.7734 -0.0742
 4627TIP3    H213846   3.243   2.825   4.528 -1.1311  0.9245 -0.0042
 4628TIP3   OH213847   2.161   4.950   2.527 -0.2328  0.0829 -0.1725
 4628TIP3    H113848   2.122   4.863   2.541  0.1107 -0.2519 -1.2201
 4628TIP3    H213849   2.087   5.005   2.499 -0.1165 -0.3668 -1.4229
 4629TIP3   OH213850   1.762   1.631   0.425 -0.0938  0.5579  0.1280
 4629TIP3    H113851   1.777   1.539   0.405  0.3221  0.4980  0.6673
 4629TIP3    H213852   1.819   1.648   0.500  1.1269  1.7038 -1.0176
 4630TIP3   OH213853   3.012   3.857   0.021 -0.0055  0.4485  0.4430
 4630TIP3    H113854   2.981   3.769   0.000  0.1682  1.1517 -3.7089
 4630TIP3    H213855   2.934   3.911   0.019  0.2476  0.8040 -0.2702
 4631TIP3   OH213856   0.852   0.561   3.374  0.3210 -0.8524 -0.1020
 4631TIP3    H113857   0.824   0.611   3.297 -1.0708 -0.5126  0.5865
 4631TIP3    H213858   0.913   0.619   3.419 -2.1272  0.8509  1.3040
 4632TIP3   OH213859   1.420   2.725   0.079 -0.1981 -0.1512 -0.3038
 4632TIP3    H113860   1.515   2.729   0.070 -0.1008  1.7197  0.9347
 4632TIP3    H213861   1.388   2.797   0.026 -0.6982  0.8509  1.2709
 4633TIP3   OH213862   3.868   6.750   0.666  0.1299  0.2279 -0.5584
 4633TIP3    H113863   3.823   6.676   0.706 -1.9415  0.3118 -2.5281
 4633TIP3    H213864   3.958   6.744   0.698 -0.2719 -2.3989  0.2840
 4634TIP3   OH213865   6.826   2.050   4.330  0.4241  0.1719 -0.3692
 4634TIP3    H113866   6.810   2.137   4.367  0.1800 -0.5146  1.2249
 4634TIP3    H213867   6.919   2.035   4.346 -0.4618 -1.9906  4.4831
 4635TIP3   OH213868   1.096   5.898   3.795  0.3245 -0.2360 -0.0208
 4635TIP3    H113869   1.168   5.937   3.745  0.2996 -0.6751 -0.4094
 4635TIP3    H213870   1.121   5.909   3.887  0.8475 -0.3062 -0.1515
 4636TIP3   OH213871   7.019   0.303   0.839 -0.2990 -0.1629 -0.0926
 4636TIP3    H113872   6.979   0.387   0.817  0.2456 -0.1301 -1.0408
 4636TIP3    H213873   7.014   0.252   0.758 -1.7270 -1.5214  0.8051
 4637TIP3   OH213874   1.769   1.655   1.857 -0.5194 -0.2505 -0.1422
 4637TIP3    H113875   1.821   1.724   1.898 -0.4705  0.1761 -0.9029
 4637TIP3    H213876   1.750   1.688   1.769 -0.0535 -1.4137 -0.7097
 4638TIP3   OH213877   3.405   1.989   3.955 -0.2284  0.0337  0.4019
 4638TIP3    H113878   3.446   1.991   4.041  1.2501 -0.4460 -0.2546
 4638TIP3    H213879   3.447   2.060   3.906 -2.5465  1.7052  0.6532
 4639TIP3   OH213880   7.133   2.983   3.094  0.0283 -0.2309 -0.7167
 4639TIP3    H113881   7.212   2.994   3.040 -1.2991 -1.6565 -3.1217
 4639TIP3    H213882   7.110   2.891   3.084 -0.1051 -0.6969  2.7272
 4640TIP3   OH213883   3.297   0.733   3.144 -0.2831 -0.2971  0.4473
 4640TIP3    H113884   3.229   0.788   3.182  0.4082 -0.6754  2.3152
 4640TIP3    H213885   3.333   0.684   3.218  1.2371 -0.9615 -0.6726
 4641TIP3   OH213886   1.004   1.564   5.209 -0.0171 -0.5736 -0.3137
 4641TIP3    H113887   0.917   1.602   5.196  0.5718  1.3958  1.1337
 4641TIP3    H213888   0.995   1.511   5.288 -0.1999 -1.5038 -0.9334
 4642TIP3   OH213889   1.426   5.805   2.705 -0.1661  0.5932 -0.1299
 4642TIP3    H113890   1.367   5.781   2.777 -0.4220  1.3367 -0.0866
 4642TIP3    H213891   1.486   5.731   2.698  0.2140  0.7451  1.2256
 4643TIP3   OH213892   5.429   4.793   4.926 -0.0201 -0.0106 -0.5216
 4643TIP3    H113893   5.508   4.785   4.873 -0.1541  0.9357 -0.8869
 4643TIP3    H213894   5.357   4.779   4.864 -0.1571  0.3187 -0.4401
 4644TIP3   OH213895   2.973   1.307   1.420 -0.6410 -0.0080  0.1725
 4644TIP3    H113896   2.977   1.333   1.328  1.1421 -0.5867  0.0468
 4644TIP3    H213897   2.880   1.313   1.443 -0.9509  1.3733 -1.2870
 4645TIP3   OH213898   2.772   6.311   2.903 -0.7830  0.2815 -0.0374
 4645TIP3    H113899   2.750   6.266   2.821  1.5457 -0.8719 -0.1066
 4645TIP3    H213900   2.855   6.354   2.884  0.0905 -0.4830  1.8821
 4646TIP3   OH213901   5.219   0.280   5.548  0.1934 -0.3966 -0.3173
 4646TIP3    H113902   5.195   0.188   5.559  1.2990 -0.6941 -0.2447
 4646TIP3    H213903   5.135   0.327   5.544 -0.4324 -1.5556 -1.7960
 4647TIP3   OH213904   2.237   2.209   3.892 -0.2829 -0.0607 -0.2076
 4647TIP3    H113905   2.311   2.257   3.856 -0.5398 -0.5012 -1.3788
 4647TIP3    H213906   2.276   2.137   3.942  0.0800 -0.5743 -1.2170
 4648TIP3   OH213907   4.185   2.525   4.885 -0.2906 -0.3258 -0.0134
 4648TIP3    H113908   4.213   2.617   4.889 -1.2718  0.0890 -1.6937
 4648TIP3    H213909   4.243   2.485   4.819 -0.6961 -0.5936 -0.2073
 4649TIP3   OH213910   6.662   0.269   3.611  0.2180  0.3876 -0.1216
 4649TIP3    H113911   6.713   0.337   3.655 -0.6713  0.5732  0.6696
 4649TIP3    H213912   6.579   0.312   3.589 -0.4899 -0.5160  0.6967
 4650TIP3   OH213913   7.198   0.601   4.410 -0.0069  0.2084 -0.3827
 4650TIP3    H113914   7.191   0.668   4.343  0.2284  0.3802 -0.2406
 4650TIP3    H213915   7.194   0.518   4.363 -2.4204  0.2622 -0.3625
 4651TIP3   OH213916   0.490   3.646   3.976  0.2459 -0.0697 -0.0554
 4651TIP3    H113917   0.520   3.577   3.917 -1.0930 -0.7625  0.0304
 4651TIP3    H213918   0.397   3.656   3.955 -0.1519 -0.0022  1.5934
 4652TIP3   OH213919   2.971   4.429   1.583 -0.1646  0.6905 -0.0151
 4652TIP3    H113920   2.984   4.345   1.539 -2.4466  0.0047  0.4440
 4652TIP3    H213921   3.026   4.491   1.536  1.0297 -0.9211 -0.8175
 4653TIP3   OH213922   6.027   5.279   2.659 -0.2063 -0.5869  0.2418
 4653TIP3    H113923   5.961   5.240   2.717 -2.3987 -0.1284 -1.7542
 4653TIP3    H213924   6.041   5.213   2.591  1.4883 -0.6824  0.6541
 4654TIP3   OH213925   1.942   4.379   3.360 -0.1799  0.6531  0.0397
 4654TIP3    H113926   1.934   4.380   3.265 -0.6653 -1.3742  0.0274
 4654TIP3    H213927   2.010   4.314   3.378 -1.2436 -0.1991  1.1213
 4655TIP3   OH213928   2.995   0.163   3.562 -0.1050  0.6237 -0.1654
 4655TIP3    H113929   3.009   0.249   3.603 -1.4160 -0.1271  2.0221
 4655TIP3    H213930   2.900   0.154   3.558 -0.0448 -1.3900  1.2857
 4656TIP3   OH213931   5.707   1.429   0.376  0.2011  0.1164 -0.0445
 4656TIP3    H113932   5.654   1.394   0.447 -1.4007 -2.5599 -2.3472
 4656TIP3    H213933   5.645   1.479   0.322  0.8048 -0.0048 -0.8757
 4657TIP3   OH213934   0.957   6.290   3.423  0.0299  0.4695  0.4420
 4657TIP3    H113935   0.982   6.286   3.515 -0.6272 -1.1833  0.5781
 4657TIP3    H213936   0.880   6.233   3.416  1.2426 -1.0807 -1.4936
 4658TIP3   OH213937   1.841   1.164   1.933  0.4213  0.0626 -0.3191
 4658TIP3    H113938   1.919   1.183   1.986  0.8043  0.2527 -0.9407
 4658TIP3    H213939   1.871   1.099   1.869 -0.3881 -1.2384  0.5553
 4659TIP3   OH213940   7.138   3.040   3.358  0.0775  0.0499  0.9825
 4659TIP3    H113941   7.109   3.130   3.345 -0.4719 -0.1767  0.5874
 4659TIP3    H213942   7.161   3.009   3.271 -2.3490 -1.0449  0.6251
 4660TIP3   OH213943   5.247   1.061   0.760  0.3880  0.0645  0.5718
 4660TIP3    H113944   5.230   1.154   0.743  3.0300  0.8199  1.5509
 4660TIP3    H213945   5.191   1.015   0.698 -2.9638  2.1688  1.7556
 4661TIP3   OH213946   6.434   0.918   3.049 -0.2504 -0.4765 -0.5695
 4661TIP3    H113947   6.439   0.822   3.051 -2.7440 -0.6821 -0.7063
 4661TIP3    H213948   6.521   0.946   3.021  0.2529 -2.7527 -1.5244
 4662TIP3   OH213949   0.367   0.746   0.927  0.5290 -0.2119 -0.1877
 4662TIP3    H113950   0.274   0.729   0.939  0.7679 -0.7129  1.0676
 4662TIP3    H213951   0.389   0.811   0.994  1.1705 -0.4240 -0.1857
 4663TIP3   OH213952   2.830   6.347   1.990 -0.4279 -0.6250 -0.1465
 4663TIP3    H113953   2.839   6.443   1.987  0.8272 -0.6716  1.1426
 4663TIP3    H213954   2.879   6.316   1.915 -1.1427 -0.2612 -0.7838
 4664TIP3   OH213955   0.037   5.496   0.068  0.1036  0.1788  0.5097
 4664TIP3    H113956  -0.001   5.451  -0.007 -1.9783  0.1173  1.5368
 4664TIP3    H213957   0.127   5.462   0.073 -0.0995 -0.7260 -1.1950
 4665TIP3   OH213958   6.429   1.167   1.792 -0.5241 -0.3547  0.0944
 4665TIP3    H113959   6.364   1.226   1.831 -1.1613 -0.6368 -0.5200
 4665TIP3    H213960   6.378   1.112   1.732  0.3624 -0.2218 -0.8040
 4666TIP3   OH213961   1.895   6.751   4.605 -0.1203 -0.4308 -0.1852
 4666TIP3    H113962   1.815   6.759   4.658  1.5691 -0.2241  2.5330
 4666TIP3    H213963   1.935   6.838   4.610 -0.4231 -0.0359 -2.9076
 4667TIP3   OH213964   4.230   1.462   5.079 -0.5199 -0.5313 -0.7407
 4667TIP3    H113965   4.194   1.528   5.020 -0.1384  0.4357  0.0802
 4667TIP3    H213966   4.319   1.492   5.097  0.0678 -1.9051 -1.2818
 4668TIP3   OH213967   4.037   1.997   2.909 -0.0416  0.8004 -0.6037
 4668TIP3    H113968   3.963   2.045   2.945 -1.6567 -1.7120 -0.3040
 4668TIP3    H213969   4.057   1.931   2.976 -0.4656 -1.3735 -2.4969
 4669TIP3   OH213970   3.309   3.876   2.022  0.3765  0.0935 -0.4224
 4669TIP3    H113971   3.230   3.927   2.042 -0.7054 -1.5503 -0.2741
 4669TIP3    H213972   3.322   3.887   1.928 -0.1787  0.1786 -0.4921
 4670TIP3   OH213973   6.790   4.573   0.280 -0.2593 -0.1273  0.0788
 4670TIP3    H113974   6.860   4.518   0.245 -0.1296  0.6822 -0.9646
 4670TIP3    H213975   6.741   4.515   0.338  0.4197 -1.0904 -0.2883
 4671TIP3   OH213976   5.581   5.608   5.337  0.0743 -1.3710 -0.0834
 4671TIP3    H113977   5.494   5.593   5.300 -0.1229 -1.3559  0.3745
 4671TIP3    H213978   5.626   5.661   5.271 -0.1345 -1.6893 -0.4910
 4672TIP3   OH213979   0.399   1.321   3.047  0.4217 -0.2736  0.1596
 4672TIP3    H113980   0.340   1.353   3.116  1.0725 -1.0070  1.0725
 4672TIP3    H213981   0.343   1.312   2.970 -0.2023  1.0945  0.4304
 4673TIP3   OH213982   3.290   3.237   4.813  0.2293  0.7834 -0.4810
 4673TIP3    H113983   3.304   3.271   4.724 -0.2983  0.5194 -0.6703
 4673TIP3    H213984   3.232   3.301   4.853  0.3767  0.8425 -0.3609
 4674TIP3   OH213985   7.014   6.586   3.983  0.0663  0.6456  0.0931
 4674TIP3    H113986   6.924   6.556   4.000 -0.3547  1.3005 -0.9012
 4674TIP3    H213987   7.005   6.681   3.970  0.8967  0.7057 -0.0688
 4675TIP3   OH213988   1.428   1.603   0.180 -0.2852  0.0841  0.2435
 4675TIP3    H113989   1.439   1.696   0.198 -0.4946  0.1374  0.1047
 4675TIP3    H213990   1.344   1.598   0.134 -1.0434 -0.3541  1.6300
 4676TIP3   OH213991   3.135   5.594   3.553  0.2115  0.4778  0.1504
 4676TIP3    H113992   3.179   5.586   3.637  0.0389  1.0468  0.2937
 4676TIP3    H213993   3.207   5.595   3.489  0.3209 -0.5241  0.2359
 4677TIP3   OH213994   1.293   4.465   3.422 -0.3411  0.4876  0.2541
 4677TIP3    H113995   1.284   4.560   3.438  0.4928  0.4757  0.8854
 4677TIP3    H213996   1.290   4.427   3.510  0.1385  0.0106  0.0670
 4678TIP3   OH213997   5.799   2.447   0.225  0.4179  0.0234 -0.2166
 4678TIP3    H113998   5.789   2.389   0.150  0.7088  0.9112 -0.9662
 4678TIP3    H213999   5.731   2.514   0.213 -0.3602 -0.5087  0.9944
 4679TIP3   OH214000   1.585   5.679   4.842  0.0103  0.5933  0.1777
 4679TIP3    H114001   1.530   5.741   4.890 -0.5398  0.4959 -0.3109
 4679TIP3    H214002   1.671   5.721   4.837 -0.7694  2.1225 -1.6168
 4680TIP3   OH214003   6.990   5.159   1.589  0.1383  0.2474 -0.2291
 4680TIP3    H114004   7.031   5.073   1.576 -2.2812 -0.6370 -3.0379
 4680TIP3    H214005   7.041   5.219   1.534 -0.1781 -0.0968 -0.9021
 4681TIP3   OH214006   2.751   3.300   1.483 -0.5640 -0.1866  0.0341
 4681TIP3    H114007   2.768   3.253   1.401  0.0385  0.3236 -0.1430
 4681TIP3    H214008   2.733   3.390   1.457  0.5365  0.1906  0.5024
 4682TIP3   OH214009   3.964   4.519   5.152 -0.0710  0.9191 -0.4994
 4682TIP3    H114010   3.971   4.436   5.200  0.7459  1.0869 -0.3136
 4682TIP3    H214011   4.007   4.583   5.208 -1.4672  1.6680 -0.2363
 4683TIP3   OH214012   5.876   5.077   4.244  0.0648  0.4298  0.6814
 4683TIP3    H114013   5.937   5.147   4.267  0.6155  1.0449 -2.2576
 4683TIP3    H214014   5.789   5.116   4.255  0.3045  0.8630  1.0551
 4684TIP3   OH214015   0.512   4.704   1.200 -0.1189 -0.0080 -0.4430
 4684TIP3    H114016   0.589   4.695   1.256 -0.3854  1.9068  0.3003
 4684TIP3    H214017   0.527   4.642   1.129  1.6694 -0.3312  0.1655
 4685TIP3   OH214018   3.565   3.844   0.114 -0.6352 -0.8553  0.2887
 4685TIP3    H114019   3.574   3.763   0.065 -1.2156 -1.3836  1.0280
 4685TIP3    H214020   3.597   3.912   0.055 -0.8339 -1.5307 -0.6181
 4686TIP3   OH214021   4.863   0.613   2.040  0.3073 -0.1678  0.1676
 4686TIP3    H114022   4.818   0.561   1.974 -0.9982  1.1445 -0.0448
 4686TIP3    H214023   4.955   0.609   2.016  0.2108 -2.1262  0.0261
 4687TIP3   OH214024   3.952   5.140   3.643  0.2392 -0.0401  0.3792
 4687TIP3    H114025   3.978   5.072   3.582  0.9516  0.5960 -0.0323
 4687TIP3    H214026   4.009   5.128   3.719  2.2583  1.7269 -0.7611
 4688TIP3   OH214027   6.378   0.683   4.688 -0.3508 -0.3339 -0.4571
 4688TIP3    H114028   6.320   0.619   4.730 -1.8077  0.1643 -1.6096
 4688TIP3    H214029   6.387   0.753   4.752  0.9104 -1.4642  0.6502
 4689TIP3   OH214030   3.490   2.259   1.548 -0.0689 -0.0916 -0.3196
 4689TIP3    H114031   3.543   2.279   1.625  1.0934  1.0071 -1.3547
 4689TIP3    H214032   3.450   2.343   1.524 -2.1359 -0.8388  0.2858
 4690TIP3   OH214033   3.896   5.566   2.924  0.3980 -0.4976  0.0766
 4690TIP3    H114034   3.817   5.553   2.872  0.7491 -0.1313 -0.5511
 4690TIP3    H214035   3.885   5.653   2.963  0.6339 -0.3040 -0.2775
 4691TIP3   OH214036   1.856   4.933   2.243  0.0441  0.0952  0.1828
 4691TIP3    H114037   1.943   4.897   2.225  1.1892  1.8345  1.8240
 4691TIP3    H214038   1.833   4.981   2.164  0.0270 -1.3266 -0.7065
 4692TIP3   OH214039   5.566   3.964   1.732 -0.4401  0.6002  0.6495
 4692TIP3    H114040   5.515   4.044   1.746  1.4878  1.8750  0.8908
 4692TIP3    H214041   5.657   3.993   1.736  0.3331 -1.5708  0.3415
 4693TIP3   OH214042   0.859   4.585   1.623  0.1461  0.6167 -0.5285
 4693TIP3    H114043   0.873   4.664   1.674 -0.4984  0.1086  0.4624
 4693TIP3    H214044   0.790   4.538   1.669  2.4077 -1.9129  0.5466
 4694TIP3   OH214045   6.279   1.115   2.938 -0.0607 -0.0726 -0.1972
 4694TIP3    H114046   6.252   1.186   2.997 -0.4208  0.6244 -1.1734
 4694TIP3    H214047   6.307   1.045   2.997 -0.1988  0.6779  0.8014
 4695TIP3   OH214048   2.744   3.980   2.597 -0.2945 -0.1657  0.0136
 4695TIP3    H114049   2.712   3.930   2.522  0.7149 -0.8330  0.0137
 4695TIP3    H214050   2.779   3.913   2.657  0.2617  0.4732  0.4088
 4696TIP3   OH214051   3.659   2.904   2.619  0.4954 -0.6129 -0.2218
 4696TIP3    H114052   3.746   2.890   2.582  0.7570  1.2546 -0.4211
 4696TIP3    H214053   3.610   2.946   2.548 -0.8416 -2.3279 -0.3828
 4697TIP3   OH214054   2.936   5.879   2.980  0.4583  0.3572  0.0515
 4697TIP3    H114055   3.007   5.936   2.950 -0.3446  2.2823  1.6025
 4697TIP3    H214056   2.865   5.939   3.002 -1.2072 -1.4332 -0.2154
 4698TIP3   OH214057   0.498   4.933   3.050 -0.1631  0.2415  0.2857
 4698TIP3    H114058   0.479   4.939   2.956 -0.4351  1.5106  0.4018
 4698TIP3    H214059   0.580   4.884   3.055 -0.2252  0.0253 -0.5996
 4699TIP3   OH214060   0.658   5.742   1.468 -0.0249 -0.2701  0.6207
 4699TIP3    H114061   0.564   5.753   1.454  0.0562 -0.7358 -0.3970
 4699TIP3    H214062   0.672   5.647   1.468  0.5299 -0.1939  0.1124
 4700TIP3   OH214063   5.809   3.020   3.830 -0.3471  0.0796  0.0584
 4700TIP3    H114064   5.754   2.943   3.847  0.9595 -1.0636 -0.7424
 4700TIP3    H214065   5.878   2.988   3.772 -0.1515  2.0250 -0.8423
 4701TIP3   OH214066   6.143   4.045   2.687 -0.2279  0.2426 -0.2342
 4701TIP3    H114067   6.184   3.974   2.736  1.9964  0.7601 -1.2236
 4701TIP3    H214068   6.085   4.002   2.625 -0.2985 -0.5936  0.4045
 4702TIP3   OH214069   1.676   6.226   2.761  0.2779 -0.3253 -0.3557
 4702TIP3    H114070   1.598   6.279   2.743  0.2082 -0.7182 -1.2695
 4702TIP3    H214071   1.649   6.136   2.742  0.4339 -0.6885  1.0586
 4703TIP3   OH214072   1.288   3.610   2.910  0.2642 -0.1039  0.0933
 4703TIP3    H114073   1.241   3.545   2.961 -1.8201  0.4186 -1.0642
 4703TIP3    H214074   1.320   3.562   2.834 -0.3077 -0.0130 -0.2070
 4704TIP3   OH214075   5.307   3.281   3.509 -0.3046  0.2848  0.3798
 4704TIP3    H114076   5.350   3.229   3.441  0.2365  0.5448  0.5245
 4704TIP3    H214077   5.339   3.370   3.495  0.3796  0.2147  1.4272
 4705TIP3   OH214078   3.259   0.205   3.080 -0.1238  0.0110 -0.0897
 4705TIP3    H114079   3.319   0.276   3.058 -1.3314  0.8027 -1.0326
 4705TIP3    H214080   3.217   0.234   3.161 -0.3466  0.2154 -0.2740
 4706TIP3   OH214081   3.696   1.131   0.947  0.2303  0.7957 -0.0335
 4706TIP3    H114082   3.785   1.163   0.934  0.3531  1.2075  1.5766
 4706TIP3    H214083   3.667   1.102   0.860  1.9287  0.6404 -0.5769
 4707TIP3   OH214084   2.590   2.828   4.783  0.1502 -0.8076  0.5009
 4707TIP3    H114085   2.663   2.890   4.780 -1.3477  0.9987 -1.1041
 4707TIP3    H214086   2.626   2.747   4.748  1.4109  0.0218 -0.1903
 4708TIP3   OH214087   1.591   3.589   5.853  0.0585 -0.7478  0.2568
 4708TIP3    H114088   1.642   3.650   5.801  1.3732 -0.6043  1.6420
 4708TIP3    H214089   1.540   3.539   5.789 -1.2726  1.9151 -0.9228
 4709TIP3   OH214090   3.692   3.301   1.450 -0.2508  0.6284 -0.2267
 4709TIP3    H114091   3.748   3.237   1.407  0.4615  0.7408  0.5094
 4709TIP3    H214092   3.701   3.282   1.544 -0.8966  1.0976 -0.0587
 4710TIP3   OH214093   4.297   5.078   5.329 -0.1803 -0.5772 -0.5759
 4710TIP3    H114094   4.390   5.099   5.323 -0.4197  0.7062 -0.0984
 4710TIP3    H214095   4.286   5.039   5.416 -0.5188  1.8769  0.5698
 4711TIP3   OH214096   5.614   1.743   0.681  0.5330  0.3280 -0.4501
 4711TIP3    H114097   5.671   1.673   0.710  0.6106 -0.0677 -1.4933
 4711TIP3    H214098   5.555   1.759   0.755  2.7643  1.6515  1.1589
 4712TIP3   OH214099   1.946   3.173   4.990  0.7018 -0.1946 -0.0931
 4712TIP3    H114100   1.851   3.165   4.998  0.4969 -1.6109 -2.8875
 4712TIP3    H214101   1.974   3.208   5.075 -2.2562  0.0723  0.8915
 4713TIP3   OH214102   5.951   3.569   3.754  0.2512 -0.5046 -0.2111
 4713TIP3    H114103   5.910   3.590   3.670  0.0044  0.6863  0.1816
 4713TIP3    H214104   6.044   3.578   3.738  0.2090 -0.4020 -0.4037
 4714TIP3   OH214105   4.875   3.485   5.092 -0.0495  0.2575  1.0696
 4714TIP3    H114106   4.919   3.568   5.076  1.1623 -0.4053  0.8139
 4714TIP3    H214107   4.935   3.437   5.150 -0.6513 -0.5076  1.0831
 4715TIP3   OH214108   5.879   1.344   3.949 -0.1226 -0.8557 -0.7380
 4715TIP3    H114109   5.835   1.355   4.033 -1.3923  2.0282 -1.6616
 4715TIP3    H214110   5.947   1.279   3.966 -2.3507 -2.7510  1.6716
 4716TIP3   OH214111   3.566   6.749   4.818  0.1460  0.3558  0.2870
 4716TIP3    H114112   3.623   6.703   4.879 -1.1105 -0.1992  1.0966
 4716TIP3    H214113   3.523   6.680   4.768  0.7366  0.7917 -0.8440
 4717TIP3   OH214114   3.818   6.063   1.895 -0.3901  0.5197 -0.0094
 4717TIP3    H114115   3.829   6.067   1.800  0.2656 -0.8985 -0.0232
 4717TIP3    H214116   3.886   6.003   1.924 -2.3191 -1.2899  1.0269
 4718TIP3   OH214117   4.348   1.743   5.756  0.4122  0.1666 -0.1995
 4718TIP3    H114118   4.424   1.693   5.727 -0.6806 -1.3051 -0.6713
 4718TIP3    H214119   4.351   1.823   5.705 -0.0281 -1.2207 -2.5491
 4719TIP3   OH214120   5.670   6.444   3.078 -0.1438  0.3913  0.5701
 4719TIP3    H114121   5.668   6.361   3.030 -1.7214 -0.3087  1.7476
 4719TIP3    H214122   5.675   6.511   3.010 -0.2792 -0.6135 -0.4640
 4720TIP3   OH214123   4.726   2.833   3.301 -0.3165  0.1388 -0.4769
 4720TIP3    H114124   4.760   2.873   3.221  1.7824 -1.1294 -0.3039
 4720TIP3    H214125   4.713   2.741   3.278  0.5756 -0.3008  0.6973
 4721TIP3   OH214126   0.018   1.871   4.599 -0.2039  0.1950  0.3950
 4721TIP3    H114127  -0.023   1.819   4.669  1.0150 -0.7649  0.4199
 4721TIP3    H214128   0.091   1.915   4.642 -0.0202  0.3404 -0.0645
 4722TIP3   OH214129   5.896   6.705   0.637 -0.0950 -0.3319  0.7799
 4722TIP3    H114130   5.987   6.687   0.611 -0.2133 -0.9164  0.7430
 4722TIP3    H214131   5.870   6.628   0.687 -1.0090 -0.8006 -0.3635
 4723TIP3   OH214132   3.694   6.459   0.587 -0.3972 -0.0592  0.3792
 4723TIP3    H114133   3.662   6.369   0.589 -1.7935  0.3846 -0.3106
 4723TIP3    H214134   3.789   6.451   0.579 -0.4557 -1.4578  0.8932
 4724TIP3   OH214135   5.870   1.889   3.366 -0.4509  0.0018 -0.4710
 4724TIP3    H114136   5.927   1.894   3.443 -0.8203  0.3625 -0.2136
 4724TIP3    H214137   5.908   1.949   3.303 -1.7409  1.9610  0.5131
 4725TIP3   OH214138   4.038   6.403   1.469  0.1011  1.1558  0.3607
 4725TIP3    H114139   4.110   6.350   1.434 -0.8373  0.5476 -0.7097
 4725TIP3    H214140   4.041   6.388   1.563  0.2420 -0.3311  0.1376
 4726TIP3   OH214141   1.190   6.329   4.004  0.0916  0.2689 -0.2073
 4726TIP3    H114142   1.103   6.369   4.013  0.6447  1.4635 -0.0104
 4726TIP3    H214143   1.172   6.235   3.999 -1.1370  0.4032  0.9833
 4727TIP3   OH214144   5.189   3.115   5.549  0.2230  0.1592  0.0223
 4727TIP3    H114145   5.164   3.207   5.537  0.7153  0.5152  1.5400
 4727TIP3    H214146   5.260   3.117   5.613 -0.1730 -1.3274  0.5582
 4728TIP3   OH214147   6.067   2.314   2.761  0.4233 -0.7550 -0.3496
 4728TIP3    H114148   6.103   2.372   2.828  0.6730 -2.1263  0.7453
 4728TIP3    H214149   6.005   2.369   2.712  2.0475  0.9534 -0.6228
 4729TIP3   OH214150   1.477   5.198   5.003  0.1941 -0.1525  0.3770
 4729TIP3    H114151   1.552   5.191   4.944  1.9505  0.3939  2.4200
 4729TIP3    H214152   1.457   5.292   5.006 -0.6086 -0.2971 -0.1734
 4730TIP3   OH214153   6.744   1.502   1.777  0.0845 -0.6398  0.1014
 4730TIP3    H114154   6.694   1.428   1.812  0.7432 -0.7805  0.7824
 4730TIP3    H214155   6.785   1.542   1.854 -0.7728  0.8362 -0.1707
 4731TIP3   OH214156   3.815   6.427   4.030 -0.2586  0.5636 -0.1204
 4731TIP3    H114157   3.743   6.433   3.968  0.0084  1.7183 -0.3329
 4731TIP3    H214158   3.860   6.511   4.024  1.8039 -0.4933 -0.8525
 4732TIP3   OH214159   3.226   5.295   1.948  0.2275 -0.2861 -0.4874
 4732TIP3    H114160   3.296   5.288   2.013 -0.2231 -0.8989 -0.0576
 4732TIP3    H214161   3.272   5.304   1.864  0.8128  0.3853 -0.1096
 4733TIP3   OH214162   1.434   0.202   5.123  0.4109  0.0147 -0.3731
 4733TIP3    H114163   1.525   0.173   5.131  1.1392  2.5642  4.2721
 4733TIP3    H214164   1.437   0.277   5.065  1.8985  1.6460  1.6694
 4734TIP3   OH214165   0.782   2.827   5.833  0.4987  0.3059 -0.1778
 4734TIP3    H114166   0.731   2.746   5.832  1.0393 -0.0347 -0.4733
 4734TIP3    H214167   0.735   2.884   5.895 -0.5610  0.2154 -0.8775
 4735TIP3   OH214168   2.974   0.471   2.365 -0.1777 -0.4474  0.6570
 4735TIP3    H114169   2.907   0.409   2.393 -0.3425 -0.1093  1.0278
 4735TIP3    H214170   2.989   0.451   2.272 -1.3611 -0.0201  0.3598
 4736TIP3   OH214171   4.410   0.170   2.999 -0.0936  0.2292 -0.3264
 4736TIP3    H114172   4.439   0.081   2.981 -1.9494 -0.0563 -2.2410
 4736TIP3    H214173   4.320   0.161   3.031 -0.7100  1.4234 -1.5919
 4737TIP3   OH214174   5.375   0.058   3.063  0.2399  0.1526  0.3334
 4737TIP3    H114175   5.460   0.040   3.023  1.1523  0.7794  1.9201
 4737TIP3    H214176   5.369  -0.003   3.136 -1.0259 -0.3918 -0.2027
 4738TIP3   OH214177   5.107   3.187   2.774 -0.2610  0.1054  0.0816
 4738TIP3    H114178   5.140   3.251   2.712  1.0005 -2.5753 -2.2365
 4738TIP3    H214179   5.017   3.170   2.745 -0.0382 -0.3527 -0.3518
 4739TIP3   OH214180   0.707   6.547   3.540 -0.1596  0.1746 -0.0086
 4739TIP3    H114181   0.700   6.458   3.575 -1.0220 -0.3937 -1.5434
 4739TIP3    H214182   0.801   6.558   3.523  0.3499  0.5659  2.5469
 4740TIP3   OH214183   5.402   2.759   0.170 -0.0419 -0.4773  0.3820
 4740TIP3    H114184   5.387   2.669   0.199 -1.5115  0.5467  3.1276
 4740TIP3    H214185   5.379   2.758   0.077  1.1154 -3.1407  0.0235
 4741TIP3   OH214186   3.937   1.320   2.729  0.0007  0.0292 -0.2315
 4741TIP3    H114187   3.902   1.265   2.799  0.4612 -2.5408 -1.8838
 4741TIP3    H214188   3.862   1.368   2.696 -0.1375  1.7616  2.2889
 4742TIP3   OH214189   5.720   6.476   3.702  0.5207  0.1550 -0.3090
 4742TIP3    H114190   5.795   6.434   3.660  0.8725 -0.0201  0.4608
 4742TIP3    H214191   5.730   6.455   3.795 -1.4040 -1.3161 -0.3721
 4743TIP3   OH214192   0.143   6.471   5.763  0.0948 -0.2646 -0.4797
 4743TIP3    H114193   0.218   6.450   5.818 -0.0994 -0.1258 -0.1641
 4743TIP3    H214194   0.074   6.412   5.793 -0.3022  0.4737  0.0790
 4744TIP3   OH214195   4.089   2.233   4.616 -0.3461  0.3796  0.1932
 4744TIP3    H114196   4.066   2.326   4.614  0.6533  0.6970  1.9352
 4744TIP3    H214197   4.132   2.218   4.532 -3.3178  0.6755 -1.5065
 4745TIP3   OH214198   6.937   2.911   2.004 -0.6005 -0.0382  0.1813
 4745TIP3    H114199   6.951   2.936   1.913 -1.9391 -1.6734 -0.5229
 4745TIP3    H214200   6.848   2.940   2.023 -0.4744 -0.0743  0.8423
 4746TIP3   OH214201   6.362   5.139   2.697  0.6012  0.1796  0.6238
 4746TIP3    H114202   6.456   5.141   2.678  0.7205 -2.1760  0.5549
 4746TIP3    H214203   6.321   5.181   2.621  1.5411 -0.4856 -0.2834
 4747TIP3   OH214204   1.322   6.368   3.328  0.1650 -0.0819  0.1631
 4747TIP3    H114205   1.229   6.392   3.334  0.3388  0.2494  2.2436
 4747TIP3    H214206   1.359   6.394   3.412  1.8434 -1.5725 -0.0540
 4748TIP3   OH214207   6.966   5.007   4.697 -0.1984 -0.0083  0.0543
 4748TIP3    H114208   6.922   5.004   4.782 -0.2507 -1.9024  0.0235
 4748TIP3    H214209   7.025   4.931   4.699  1.3460  1.1156 -0.8094
 4749TIP3   OH214210   1.709   1.704   1.584 -0.5016  0.3763  0.1799
 4749TIP3    H114211   1.693   1.725   1.492 -0.7033 -1.1610 -0.1739
 4749TIP3    H214212   1.707   1.608   1.587 -0.7040  0.4059  1.8306
 4750TIP3   OH214213   4.823   5.113   1.490  0.2264 -0.1645  0.1076
 4750TIP3    H114214   4.796   5.046   1.553 -2.0146 -0.8111 -1.4159
 4750TIP3    H214215   4.850   5.187   1.544  1.8505 -1.8915  1.8492
 4751TIP3   OH214216   5.130   0.034   5.790 -0.1908 -0.0155  0.3060
 4751TIP3    H114217   5.213   0.075   5.767 -0.1433  0.2713  0.9617
 4751TIP3    H214218   5.142   0.003   5.880 -0.6884 -0.2419  0.2998
 4752TIP3   OH214219   5.237   2.909   1.126  0.0052 -0.2511  0.0157
 4752TIP3    H114220   5.221   2.829   1.078 -0.8213 -1.2767  1.8708
 4752TIP3    H214221   5.330   2.926   1.116  0.4531 -2.1526  0.5805
 4753TIP3   OH214222   1.674   2.195   0.036 -0.1191 -0.2560 -0.0516
 4753TIP3    H114223   1.620   2.273   0.029 -1.3030 -0.9657  0.8787
 4753TIP3    H214224   1.762   2.228   0.056 -0.7129  0.8068  0.8711
 4754TIP3   OH214225   3.857   2.284   5.206 -0.5779 -0.1223 -0.5294
 4754TIP3    H114226   3.891   2.316   5.123 -1.3264  1.0981 -0.4003
 4754TIP3    H214227   3.773   2.244   5.184 -0.1326 -1.0780 -0.5390
 4755TIP3   OH214228   1.586   5.068   0.190  0.5564  0.4552 -0.0978
 4755TIP3    H114229   1.553   5.036   0.274 -1.6912  2.2868 -0.1714
 4755TIP3    H214230   1.673   5.104   0.211  0.3531  0.2224  1.2846
 4756TIP3   OH214231   4.432   5.337   5.190  0.4737  0.0846  0.1409
 4756TIP3    H114232   4.337   5.345   5.189  0.5727  1.8154 -1.3550
 4756TIP3    H214233   4.453   5.305   5.277 -1.4259  0.5125  0.7894
 4757TIP3   OH214234   6.142   6.379   5.004  0.3954 -0.1849 -0.7380
 4757TIP3    H114235   6.218   6.407   4.952  0.3604 -0.3655 -0.8879
 4757TIP3    H214236   6.148   6.283   5.004 -0.4466 -0.2561 -1.6889
 4758TIP3   OH214237   2.058   5.489   2.086  0.3383  0.1158  0.0448
 4758TIP3    H114238   2.129   5.487   2.022 -0.1751 -0.2772 -0.5189
 4758TIP3    H214239   1.980   5.465   2.036 -0.1853  0.4977  0.6665
 4759TIP3   OH214240   2.546   4.953   0.029 -0.0369  0.5047 -0.0591
 4759TIP3    H114241   2.511   5.024  -0.024  0.0024  1.4890  1.1845
 4759TIP3    H214242   2.540   4.984   0.119 -0.1378 -1.1258  0.5420
 4760TIP3   OH214243   1.163   2.360   3.137  0.0486 -0.0510  0.1725
 4760TIP3    H114244   1.206   2.275   3.144  0.1591 -0.0661 -0.5327
 4760TIP3    H214245   1.231   2.424   3.158  0.1274 -0.1178  0.1199
 4761TIP3   OH214246   5.711   1.283   3.441  0.5071 -0.1933 -0.0775
 4761TIP3    H114247   5.761   1.357   3.406  0.6944 -0.6600 -0.8029
 4761TIP3    H214248   5.740   1.208   3.390 -0.7134 -0.5266 -0.2932
 4762TIP3   OH214249   5.649   0.811   0.732  0.3639 -0.2621  0.3927
 4762TIP3    H114250   5.606   0.740   0.684 -0.5231  0.4180  0.1340
 4762TIP3    H214251   5.742   0.803   0.710  0.0527 -0.3012 -1.0287
 4763TIP3   OH214252   5.131   5.518   5.387 -0.0009  0.0619 -0.3870
 4763TIP3    H114253   5.072   5.577   5.435  0.2530 -0.5579  0.7123
 4763TIP3    H214254   5.085   5.500   5.305 -0.9929  0.1989  0.1224
 4764TIP3   OH214255   3.055   6.347   2.835 -0.0582 -0.3098 -0.0116
 4764TIP3    H114256   3.087   6.393   2.757 -0.7422 -0.1151 -0.1843
 4764TIP3    H214257   3.127   6.351   2.897 -0.1991  1.2605  0.0859
 4765TIP3   OH214258   3.013   5.235   3.203 -0.1140 -0.4885  0.1835
 4765TIP3    H114259   3.095   5.276   3.231  0.8043 -0.4126 -2.3430
 4765TIP3    H214260   2.959   5.308   3.174 -0.0674 -0.7329 -0.5281
 4766TIP3   OH214261   6.022   1.961   0.653 -0.5201  0.3689 -0.2102
 4766TIP3    H114262   6.048   2.031   0.593  1.4440  0.0107  0.1739
 4766TIP3    H214263   6.022   2.001   0.740  0.2472 -0.0130 -0.0315
 4767TIP3   OH214264   1.924   0.114   1.337 -0.0776 -0.2146 -0.4735
 4767TIP3    H114265   1.990   0.047   1.356 -0.4395 -0.5082 -0.2381
 4767TIP3    H214266   1.842   0.077   1.370  0.1763  1.6437  2.6497
 4768TIP3   OH214267   6.387   3.818   2.207 -0.0003  0.3418 -0.8920
 4768TIP3    H114268   6.475   3.826   2.168  0.5848 -0.1962  0.2687
 4768TIP3    H214269   6.368   3.906   2.239  1.0523  0.0374  0.7188
 4769TIP3   OH214270   1.158   5.883   5.559  0.0732 -0.1840 -0.0888
 4769TIP3    H114271   1.100   5.958   5.572 -0.2517 -0.3584 -0.4918
 4769TIP3    H214272   1.241   5.909   5.599  0.5573  1.1439 -1.8465
 4770TIP3   OH214273   3.063   6.667   0.645 -0.9119  0.1065 -0.0272
 4770TIP3    H114274   3.042   6.681   0.553 -2.1160 -0.8072  0.0827
 4770TIP3    H214275   3.158   6.653   0.647 -0.7853  0.7889 -1.0364
 4771TIP3   OH214276   6.348   0.974   2.079  0.0548  0.1009  0.2125
 4771TIP3    H114277   6.426   0.987   2.025  0.0241  0.4901  0.2640
 4771TIP3    H214278   6.336   1.056   2.126 -0.0197 -0.1746  0.6882
 4772TIP3   OH214279   1.161   5.460   0.428  0.2537  0.0903  0.2780
 4772TIP3    H114280   1.183   5.550   0.450 -1.8066  0.2746  1.9528
 4772TIP3    H214281   1.153   5.416   0.513 -1.1086 -1.0460 -0.3921
 4773TIP3   OH214282   6.632   1.417   2.475 -0.6503  0.0034  0.2252
 4773TIP3    H114283   6.552   1.456   2.439 -1.0098  0.2026  1.2288
 4773TIP3    H214284   6.626   1.432   2.569  1.5546  1.8934  0.1530
 4774TIP3   OH214285   0.064   5.369   2.948 -0.5940 -0.3896 -0.4728
 4774TIP3    H114286   0.154   5.339   2.932  0.3053  1.2039  1.2182
 4774TIP3    H214287   0.073   5.463   2.965 -2.8060  0.1310 -1.7647
 4775TIP3   OH214288   5.619   2.197   0.145 -0.1533 -0.7918 -0.4801
 4775TIP3    H114289   5.633   2.209   0.051 -1.6658 -1.0361 -0.7534
 4775TIP3    H214290   5.704   2.166   0.177  0.6864  0.2323 -1.5771
 4776TIP3   OH214291   0.617   1.969   4.363  0.2119 -0.1374  0.4116
 4776TIP3    H114292   0.556   1.897   4.378  0.7471 -0.3985  1.4196
 4776TIP3    H214293   0.663   1.946   4.283 -0.5541 -0.2563 -0.0025
 4777TIP3   OH214294   5.272   2.336   5.568  0.3681 -0.2215 -0.1276
 4777TIP3    H114295   5.294   2.349   5.476  0.5357 -2.2662 -0.4302
 4777TIP3    H214296   5.229   2.250   5.571 -1.5534  0.7160  1.4172
 4778TIP3   OH214297   5.002   0.563   4.353 -0.1540 -0.4220 -0.1781
 4778TIP3    H114298   4.954   0.644   4.336 -1.9350 -0.8239  2.3284
 4778TIP3    H214299   5.008   0.558   4.448  1.3268 -2.4674 -0.3020
 4779TIP3   OH214300   0.466   4.030   1.408  0.2305  0.4334 -0.3055
 4779TIP3    H114301   0.390   3.994   1.455  1.3237 -0.2773  0.9613
 4779TIP3    H214302   0.472   4.120   1.438 -1.0339  0.9860 -1.6119
 4780TIP3   OH214303   6.829   3.299   1.256 -0.5851 -0.4543  0.5030
 4780TIP3    H114304   6.783   3.299   1.172 -0.6093  1.4401  0.4770
 4780TIP3    H214305   6.770   3.253   1.316 -0.8965 -1.1700 -0.3315
 4781TIP3   OH214306   4.772   1.812   4.391  0.5156 -0.1823  0.8033
 4781TIP3    H114307   4.863   1.808   4.422  0.7523  0.2618  0.2075
 4781TIP3    H214308   4.743   1.721   4.389  0.7619 -0.2839  1.5192
 4782TIP3   OH214309   5.613   5.260   5.733  0.2288 -0.0945 -0.2003
 4782TIP3    H114310   5.526   5.267   5.774  0.5874 -0.0049  0.5734
 4782TIP3    H214311   5.603   5.302   5.648 -0.6112 -0.5206 -0.3274
 4783TIP3   OH214312   6.625   1.132   3.045 -0.0803  0.2411 -0.2096
 4783TIP3    H114313   6.572   1.189   3.102  0.7328  0.4548  0.3460
 4783TIP3    H214314   6.651   1.189   2.973  0.7594  0.5993  0.3615
 4784TIP3   OH214315   0.683   2.758   1.005  0.2552 -0.1209  0.4776
 4784TIP3    H114316   0.650   2.820   0.940  1.2665 -0.0265  0.0401
 4784TIP3    H214317   0.605   2.729   1.051 -0.9091 -2.2958 -2.5428
 4785TIP3   OH214318   3.294   0.026   2.006  0.2127 -0.3345 -0.3044
 4785TIP3    H114319   3.357   0.094   2.031  0.0340 -0.0714 -0.5682
 4785TIP3    H214320   3.295   0.027   1.910  0.3597 -0.8450 -0.3143
 4786TIP3   OH214321   1.822   1.686   3.624  0.2104  0.0188 -0.1462
 4786TIP3    H114322   1.749   1.726   3.578  1.4856  1.9409 -0.6074
 4786TIP3    H214323   1.781   1.640   3.698 -1.5062  0.3045 -0.8722
 4787TIP3   OH214324   4.117   5.293   1.810  0.3492  0.2676  0.1295
 4787TIP3    H114325   4.036   5.251   1.840  1.3899  0.2042  3.1844
 4787TIP3    H214326   4.130   5.260   1.721 -2.8479  0.1509 -0.4075
 4788TIP3   OH214327   0.123   3.865   1.583 -0.0623 -0.1133  0.0515
 4788TIP3    H114328   0.086   3.845   1.498 -0.3353  1.5432 -0.2663
 4788TIP3    H214329   0.050   3.857   1.644 -0.7522  1.9589 -0.4004
 4789TIP3   OH214330   3.500   4.127   4.789 -0.6871 -0.2721  0.1335
 4789TIP3    H114331   3.504   4.208   4.738 -0.4167 -0.4688 -0.1629
 4789TIP3    H214332   3.513   4.058   4.724  1.1856 -0.4823  0.6699
 4790TIP3   OH214333   3.273   1.500   5.457 -0.2662 -0.5370 -0.3888
 4790TIP3    H114334   3.200   1.561   5.444 -0.7272 -0.5786  1.7065
 4790TIP3    H214335   3.273   1.447   5.377 -1.0881  0.9071 -1.4054
 4791TIP3   OH214336   2.036   0.007   0.394  0.4652  0.6076  0.0981
 4791TIP3    H114337   2.130   0.007   0.412  0.0141  2.0217  3.1043
 4791TIP3    H214338   1.995   0.019   0.480 -2.4941 -0.0807 -1.0928
 4792TIP3   OH214339   6.566   2.403   2.083 -0.1670  0.0395  0.1671
 4792TIP3    H114340   6.516   2.391   2.002  0.8469 -0.6671 -0.3815
 4792TIP3    H214341   6.565   2.317   2.125  0.5927  0.0038  0.1310
 4793TIP3   OH214342   6.364   1.442   1.156  0.4803 -0.0299 -0.3965
 4793TIP3    H114343   6.428   1.374   1.176 -0.1308 -0.6729 -0.5824
 4793TIP3    H214344   6.306   1.402   1.092  0.2958  0.7827 -0.7517
 4794TIP3   OH214345   4.149   6.072   0.976  0.2177 -0.8272  0.0616
 4794TIP3    H114346   4.194   6.151   1.005  0.4671 -1.8826  2.8639
 4794TIP3    H214347   4.072   6.065   1.034 -0.4883 -1.9844 -0.9578
 4795TIP3   OH214348   5.871   3.540   4.030 -0.0116 -0.9336 -0.4136
 4795TIP3    H114349   5.908   3.557   3.943 -1.4264 -0.4477 -0.9605
 4795TIP3    H214350   5.875   3.445   4.039  0.8624 -0.9332 -0.6648
 4796TIP3   OH214351   3.967   3.688   1.954 -0.2645 -0.2095  0.5792
 4796TIP3    H114352   4.025   3.628   2.000  1.2233  0.7882  0.0943
 4796TIP3    H214353   3.912   3.726   2.022  0.2630 -0.5331  1.1893
 4797TIP3   OH214354   5.996   1.130   4.081 -0.2086  0.2301 -0.8852
 4797TIP3    H114355   5.925   1.089   4.030 -0.9803  0.0855  0.2686
 4797TIP3    H214356   6.055   1.057   4.100 -0.3870  0.1036 -0.8036
 4798TIP3   OH214357   2.740   5.478   2.083 -0.0599  0.2543 -0.0842
 4798TIP3    H114358   2.709   5.450   1.997  0.1498 -0.4205  0.0529
 4798TIP3    H214359   2.835   5.465   2.079 -0.1597 -0.8825  0.6253
 4799TIP3   OH214360   2.169   2.031   3.582 -0.1375  0.5825 -0.2485
 4799TIP3    H114361   2.146   1.961   3.643 -1.6103 -0.9195 -2.3788
 4799TIP3    H214362   2.149   2.111   3.629  1.2421 -0.3446  2.1443
 4800TIP3   OH214363   4.275   1.775   0.764 -0.1749  0.0391 -0.0608
 4800TIP3    H114364   4.346   1.728   0.808 -0.6478 -1.5189 -0.8847
 4800TIP3    H214365   4.197   1.758   0.817 -0.0694  1.3205  0.5554
 4801TIP3   OH214366   2.715   2.102   0.853  0.2806  0.5161  0.6812
 4801TIP3    H114367   2.624   2.119   0.831  0.4692  0.2365 -0.3788
 4801TIP3    H214368   2.763   2.116   0.771  1.1411  0.2732  1.1244
 4802TIP3   OH214369   3.070   6.260   2.474 -0.1073  0.9143 -0.2474
 4802TIP3    H114370   3.073   6.353   2.454  0.4545  1.1382  0.8074
 4802TIP3    H214371   2.991   6.250   2.527 -1.0650  0.4894 -1.6963
 4803TIP3   OH214372   6.566   6.777   0.041 -0.0416 -0.4047  0.2146
 4803TIP3    H114373   6.634   6.843   0.021 -1.3701  1.1269  0.5552
 4803TIP3    H214374   6.556   6.729  -0.041  2.7197 -1.9556  0.6428
 4804TIP3   OH214375   0.058   1.885   1.985  0.4344  0.0486  0.2428
 4804TIP3    H114376   0.115   1.808   1.986 -1.2062 -1.1960  1.7333
 4804TIP3    H214377  -0.003   1.869   1.913 -1.5576 -1.3806  2.1393
 4805TIP3   OH214378   2.065   6.745   5.550  0.1710 -0.0803  0.6015
 4805TIP3    H114379   2.154   6.710   5.557  0.3144  0.3706  1.0648
 4805TIP3    H214380   2.051   6.792   5.632 -0.0908  0.7933  0.0723
 4806TIP3   OH214381   0.332   6.219   0.117  0.3289  0.1859 -0.2980
 4806TIP3    H114382   0.238   6.202   0.128 -0.6075  3.2768 -2.0992
 4806TIP3    H214383   0.347   6.207   0.023  1.9796 -1.0943  0.0955
 4807TIP3   OH214384   4.328   2.957   1.080  0.4262 -0.1940  0.5542
 4807TIP3    H114385   4.332   3.008   0.999  1.1225  1.4972  1.6103
 4807TIP3    H214386   4.353   2.868   1.054  0.8064  0.3568 -1.0449
 4808TIP3   OH214387   6.171   5.257   1.575 -0.4424 -0.3315 -0.2108
 4808TIP3    H114388   6.131   5.281   1.659 -0.1594 -1.0090  0.1245
 4808TIP3    H214389   6.160   5.162   1.570  2.6669 -0.8259  0.7112
 4809TIP3   OH214390   1.452   6.180   2.046  0.2869 -0.0676 -0.2879
 4809TIP3    H114391   1.443   6.171   1.952  1.7251 -2.2972 -0.2984
 4809TIP3    H214392   1.413   6.101   2.082 -1.6403  1.4462  1.1532
 4810TIP3   OH214393   4.850   1.384   0.848 -0.3234  0.0227  0.4094
 4810TIP3    H114394   4.779   1.319   0.846 -1.8728  1.6015 -2.2916
 4810TIP3    H214395   4.819   1.451   0.908 -0.0347 -0.3621  0.9968
 4811TIP3   OH214396   0.765   2.621   5.307  0.3854 -0.5424  0.7968
 4811TIP3    H114397   0.838   2.682   5.320  0.8108 -1.2595  1.8819
 4811TIP3    H214398   0.802   2.535   5.328 -1.0704 -0.7874  2.5264
 4812TIP3   OH214399   1.875   4.742   5.417 -0.3340 -0.6270 -0.7691
 4812TIP3    H114400   1.817   4.813   5.390 -0.0333 -0.1109 -0.0684
 4812TIP3    H214401   1.962   4.768   5.386  0.0514  0.0595  0.8082
 4813TIP3   OH214402   2.356   5.913   0.907 -0.3615  0.0851 -0.5108
 4813TIP3    H114403   2.401   5.856   0.845 -0.2332 -0.6985  0.2853
 4813TIP3    H214404   2.366   6.001   0.870  2.1539  0.0110 -0.1831
 4814TIP3   OH214405   4.348   0.998   4.004  0.2151 -0.5055  0.5344
 4814TIP3    H114406   4.402   1.077   4.013  0.0070 -0.4371  1.1963
 4814TIP3    H214407   4.337   0.987   3.909  0.1316  0.3377  0.4408
 4815TIP3   OH214408   6.126   4.956   1.978 -0.2803  0.0140  0.1764
 4815TIP3    H114409   6.064   4.952   1.906 -0.5213 -1.8702  0.4460
 4815TIP3    H214410   6.117   4.872   2.023  1.5824  0.1725  0.9607
 4816TIP3   OH214411   1.919   5.801   1.621 -0.0471  0.0489  0.4850
 4816TIP3    H114412   1.944   5.709   1.623 -1.6586 -0.4545 -0.6962
 4816TIP3    H214413   1.828   5.802   1.649 -0.3392  1.1585 -0.4262
 4817TIP3   OH214414   1.162   0.960   1.534  0.6004 -0.0892 -0.3197
 4817TIP3    H114415   1.177   0.891   1.599  0.9473 -2.1930 -2.5335
 4817TIP3    H214416   1.068   0.958   1.519  0.3620  1.1181  0.7955
 4818TIP3   OH214417   3.323   0.421   2.457  0.4903 -0.1869  0.1089
 4818TIP3    H114418   3.341   0.350   2.519 -0.2894 -0.8752 -0.4331
 4818TIP3    H214419   3.255   0.473   2.498  0.1348 -0.5114 -0.0668
 4819TIP3   OH214420   3.278   3.878   5.358  0.4593  0.0111  0.0873
 4819TIP3    H114421   3.360   3.846   5.395 -0.6147  0.1944  2.8223
 4819TIP3    H214422   3.217   3.805   5.368  0.3181 -0.2757 -2.3052
 4820TIP3   OH214423   2.151   0.551   5.251  0.2396  0.1752  0.3041
 4820TIP3    H114424   2.133   0.580   5.161  0.5761 -1.6270 -0.3743
 4820TIP3    H214425   2.171   0.633   5.298  1.3179  1.0641 -1.5591
 4821TIP3   OH214426   5.602   5.319   2.153 -0.6016 -0.2072 -0.4894
 4821TIP3    H114427   5.622   5.297   2.062 -0.4293  0.2697 -0.5665
 4821TIP3    H214428   5.643   5.249   2.204 -0.9975 -0.6711 -0.7920
 4822TIP3   OH214429   5.398   6.426   1.824 -0.1156 -0.0823  0.6232
 4822TIP3    H114430   5.444   6.472   1.754  0.4601 -0.9980  0.3954
 4822TIP3    H214431   5.434   6.463   1.905  1.1906 -0.9378  0.4512
 4823TIP3   OH214432   0.240   3.741   2.818  0.4234 -0.2672  0.3215
 4823TIP3    H114433   0.183   3.808   2.855 -1.1693 -1.9284  1.0320
 4823TIP3    H214434   0.202   3.722   2.732 -1.0539 -2.3279  1.3275
 4824TIP3   OH214435   5.265   0.544   4.944  0.3048 -0.6861 -0.2649
 4824TIP3    H114436   5.276   0.457   4.905 -2.7149 -0.2729 -2.4520
 4824TIP3    H214437   5.198   0.532   5.011  0.7175 -0.2153  0.2436
 4825TIP3   OH214438   5.892   3.810   3.261 -0.4447  0.1810  1.1508
 4825TIP3    H114439   5.968   3.866   3.246 -1.9060  1.7357 -1.2198
 4825TIP3    H214440   5.912   3.729   3.214 -0.6753  1.0748 -0.5905
 4826TIP3   OH214441   1.073   5.399   4.226  0.1004  0.0615 -0.0428
 4826TIP3    H114442   1.134   5.352   4.170  2.4423  1.7050  0.9846
 4826TIP3    H214443   1.098   5.375   4.316  0.0134  1.6390  0.4357
 4827TIP3   OH214444   1.873   5.764   0.136 -0.1841 -0.2336  0.6081
 4827TIP3    H114445   1.807   5.709   0.093  1.9878 -2.0626 -0.5708
 4827TIP3    H214446   1.828   5.798   0.214 -1.9504 -2.9791  0.9322
 4828TIP3   OH214447   2.939   4.164   3.057 -0.0963  0.6555 -0.0050
 4828TIP3    H114448   2.910   4.074   3.076  0.3120  0.4915 -0.1619
 4828TIP3    H214449   2.937   4.170   2.962 -1.3385  1.2184  0.0356
 4829TIP3   OH214450   3.944   4.695   4.894  0.0760 -0.0246  0.0036
 4829TIP3    H114451   4.016   4.743   4.853 -0.6475  1.1352  0.0485
 4829TIP3    H214452   3.985   4.649   4.968  0.9432 -0.2017 -0.5650
 4830TIP3   OH214453   2.950   3.264   2.617 -0.1612  0.3359  0.1273
 4830TIP3    H114454   3.018   3.210   2.658 -1.5120  0.6508  3.0175
 4830TIP3    H214455   2.878   3.204   2.601 -0.9224  0.8469  1.4985
 4831TIP3   OH214456   5.834   2.533   5.568  0.4479  0.3110  0.2430
 4831TIP3    H114457   5.917   2.569   5.534  0.7579  1.3723  2.0283
 4831TIP3    H214458   5.816   2.584   5.646 -1.2179 -0.8190  0.6376
 4832TIP3   OH214459   1.078   3.719   2.173 -0.1036  0.2253 -0.1768
 4832TIP3    H114460   1.144   3.650   2.184  0.6575  0.8633 -0.6106
 4832TIP3    H214461   1.126   3.792   2.133 -1.2202  0.4864 -1.0973
 4833TIP3   OH214462   2.221   3.090   2.643  0.2053 -0.3581  0.4294
 4833TIP3    H114463   2.262   3.010   2.610 -0.1277 -0.6651  0.7507
 4833TIP3    H214464   2.141   3.060   2.686 -0.0015  0.1660  0.4169
 4834TIP3   OH214465   1.062   4.724   1.330 -0.6373 -0.3199  0.5805
 4834TIP3    H114466   0.988   4.766   1.373 -1.9813 -1.4873 -0.4951
 4834TIP3    H214467   1.026   4.643   1.295  1.3579 -1.3184  0.7283
 4835TIP3   OH214468   4.595   4.945   4.491 -0.0467 -0.1496  0.5921
 4835TIP3    H114469   4.600   4.911   4.402 -0.9184  1.1452  0.0107
 4835TIP3    H214470   4.521   5.005   4.489  1.0965  1.3883  1.6588
 4836TIP3   OH214471   6.676   5.199   3.390  0.0196 -0.5354  0.1884
 4836TIP3    H114472   6.612   5.198   3.319 -1.3287  0.1912  1.3553
 4836TIP3    H214473   6.750   5.248   3.353 -1.0378  0.6676 -0.4203
 4837TIP3   OH214474   6.491   6.063   1.115  0.2612  0.3077  0.0759
 4837TIP3    H114475   6.448   6.146   1.137  0.5347  0.3155  0.5951
 4837TIP3    H214476   6.562   6.088   1.056 -0.0096  0.3725 -0.2291
 4838TIP3   OH214477   5.845   0.958   3.906  0.8041  0.3265  0.0841
 4838TIP3    H114478   5.928   0.912   3.899  1.1557  0.9709 -0.1200
 4838TIP3    H214479   5.802   0.941   3.822  1.5906  1.5783 -0.6111
 4839TIP3   OH214480   0.299   2.231   4.814 -0.1008 -0.1864 -0.4113
 4839TIP3    H114481   0.357   2.196   4.881  1.4144 -0.0438 -1.5859
 4839TIP3    H214482   0.308   2.326   4.821 -3.1852  0.0798  1.8882
 4840TIP3   OH214483   0.080   3.098   5.507 -0.4895  0.3599 -0.4194
 4840TIP3    H114484   0.053   3.099   5.415 -0.6260  1.3901 -0.3893
 4840TIP3    H214485   0.000   3.120   5.556 -0.0707  1.4161 -0.1811
 4841TIP3   OH214486   2.792   1.066   5.314 -0.1845 -0.1349 -0.5750
 4841TIP3    H114487   2.862   1.129   5.334  0.5237 -0.9339 -0.4985
 4841TIP3    H214488   2.782   1.071   5.219  0.5062 -0.5699 -0.6706
 4842TIP3   OH214489   6.578   2.490   4.694  0.0970 -0.0138  0.3341
 4842TIP3    H114490   6.550   2.537   4.615  0.0109 -0.2204  0.2401
 4842TIP3    H214491   6.543   2.401   4.683  1.4702 -0.5279 -0.1726
 4843TIP3   OH214492   0.838   0.891   0.241  0.7914  0.1100  0.4368
 4843TIP3    H114493   0.878   0.915   0.157  0.6536  1.3088  0.6992
 4843TIP3    H214494   0.764   0.835   0.217  0.9240  0.2043 -0.2190
 4844TIP3   OH214495   0.889   6.370   5.122 -0.0399  0.1516  0.8891
 4844TIP3    H114496   0.984   6.366   5.132  0.2946  0.5191 -1.5646
 4844TIP3    H214497   0.866   6.460   5.147  0.4992  0.5540 -0.0065
 4845TIP3   OH214498   4.890   1.048   0.684 -0.6415 -0.1067  0.0907
 4845TIP3    H114499   4.841   1.079   0.608  1.7566  1.1840 -1.0480
 4845TIP3    H214500   4.972   1.015   0.648  0.8266  1.1124  2.1071
 4846TIP3   OH214501   6.301   5.586   4.878  0.0441 -0.0430  0.2790
 4846TIP3    H114502   6.284   5.529   4.953 -0.2894  0.3794  0.5270
 4846TIP3    H214503   6.382   5.553   4.841 -0.0761 -0.5967  0.5025
 4847TIP3   OH214504   2.301   1.309   4.885 -0.3562 -0.3319  0.1027
 4847TIP3    H114505   2.257   1.368   4.947 -1.2622 -1.3031  0.4036
 4847TIP3    H214506   2.273   1.340   4.798 -0.5883 -0.1366  0.2466
 4848TIP3   OH214507   5.862   6.687   3.451 -0.2970 -0.4493 -0.0497
 4848TIP3    H114508   5.902   6.600   3.460  0.2959 -0.0669  1.2157
 4848TIP3    H214509   5.928   6.748   3.483 -0.5812  0.5224 -1.2347
 4849TIP3   OH214510   3.533   5.843   5.856 -0.1024 -0.0840 -0.0779
 4849TIP3    H114511   3.544   5.775   5.789  2.0269  0.0620  0.0601
 4849TIP3    H214512   3.608   5.831   5.915 -1.4916  0.2889  1.8784
 4850TIP3   OH214513   3.166   4.048   5.678 -0.2033 -0.1686 -0.3199
 4850TIP3    H114514   3.209   4.051   5.593  0.2967  0.4494 -0.0576
 4850TIP3    H214515   3.192   4.130   5.721 -1.4643  0.1131 -0.0607
 4851TIP3   OH214516   3.205   4.842   1.922  0.4892  0.2574 -0.2127
 4851TIP3    H114517   3.258   4.805   1.852  0.3904 -0.1082 -0.0946
 4851TIP3    H214518   3.232   4.795   2.001  0.1590  0.2329 -0.1124
 4852TIP3   OH214519   3.535   3.821   1.544  0.1659  0.6891  0.1930
 4852TIP3    H114520   3.554   3.759   1.615  2.6097  2.0146  0.8306
 4852TIP3    H214521   3.529   3.766   1.465 -2.7701 -0.8336  1.3167
 4853TIP3   OH214522   2.084   2.711   0.847 -0.4734  0.7502 -0.0310
 4853TIP3    H114523   2.066   2.719   0.754 -1.1849 -0.6329 -0.0405
 4853TIP3    H214524   2.133   2.791   0.869  1.0939  0.3792 -1.8965
 4854TIP3   OH214525   5.771   1.925   4.168 -0.2436 -0.3816 -0.1131
 4854TIP3    H114526   5.755   1.838   4.132 -1.3124 -0.7009  1.0533
 4854TIP3    H214527   5.791   1.910   4.261  0.6796  0.5293 -0.1477
 4855TIP3   OH214528   0.448   5.973   0.278 -0.2326 -0.2839 -0.4192
 4855TIP3    H114529   0.477   5.931   0.359 -0.6031 -0.1495 -0.2111
 4855TIP3    H214530   0.394   6.047   0.307 -0.0030  0.0340 -0.7850
 4856TIP3   OH214531   4.198   1.547   3.119  0.3457  0.3601  0.4539
 4856TIP3    H114532   4.180   1.453   3.116  0.9357  0.2553  0.1257
 4856TIP3    H214533   4.285   1.553   3.160  0.2530  0.7682  0.5904
 4857TIP3   OH214534   4.906   0.554   1.647  0.0394 -0.1580  0.0781
 4857TIP3    H114535   4.834   0.547   1.710 -0.0071 -0.7819 -0.0370
 4857TIP3    H214536   4.956   0.474   1.658  1.3280  0.7277  0.8710
 4858TIP3   OH214537   4.024   6.379   2.788  0.6398 -0.2946  0.0916
 4858TIP3    H114538   3.981   6.464   2.801  1.6700  0.0089  1.8906
 4858TIP3    H214539   4.116   6.401   2.772  0.9421 -1.0564  0.7206
 4859TIP3   OH214540   5.315   1.254   2.339  0.3286  0.4444 -0.2683
 4859TIP3    H114541   5.389   1.282   2.392 -0.5000  0.4573  0.9076
 4859TIP3    H214542   5.260   1.332   2.331  0.4157  0.4302 -1.1182
 4860TIP3   OH214543   6.867   4.894   4.980 -0.0979  0.4537 -0.4246
 4860TIP3    H114544   6.854   4.800   4.994 -0.5906  0.4536 -0.8065
 4860TIP3    H214545   6.800   4.917   4.915  0.6231  0.8809 -1.0308
 4861TIP3   OH214546   1.091   4.345   1.564  0.6968  0.0666  0.1785
 4861TIP3    H114547   0.998   4.360   1.582  0.8211 -0.3919  1.3265
 4861TIP3    H214548   1.126   4.431   1.542 -0.4252 -0.0709 -2.5755
 4862TIP3   OH214549   1.130   1.205   5.605 -0.1217 -0.7810  0.2797
 4862TIP3    H114550   1.159   1.215   5.696  2.2612 -0.9595 -0.3683
 4862TIP3    H214551   1.043   1.167   5.611 -0.4882  0.2549  2.4866
 4863TIP3   OH214552   4.252   2.971   2.418  0.2295  0.0011 -1.1306
 4863TIP3    H114553   4.277   2.914   2.346  1.7333 -1.1683  0.2533
 4863TIP3    H214554   4.165   3.003   2.394  0.1586 -1.3420 -2.8470
 4864TIP3   OH214555   3.893   0.715   4.773 -0.5638  0.0379  0.0389
 4864TIP3    H114556   3.924   0.677   4.855  0.2124 -0.0761 -0.2960
 4864TIP3    H214557   3.940   0.667   4.705 -1.2319  0.0971 -0.4773
 4865TIP3   OH214558   2.019   5.704   3.274 -0.0639  0.1909  0.0190
 4865TIP3    H114559   2.019   5.786   3.325  0.6998  0.4523 -0.3877
 4865TIP3    H214560   2.073   5.644   3.326  0.9386  0.5418 -0.6016
 4866TIP3   OH214561   0.086   3.256   1.032 -0.3163 -0.3126  0.5080
 4866TIP3    H114562   0.040   3.317   0.975  3.3611  3.1931  0.9112
 4866TIP3    H214563   0.071   3.291   1.120  1.6390 -0.0571  0.7730
 4867TIP3   OH214564   4.200   1.272   2.351  0.2509  0.3619  0.2958
 4867TIP3    H114565   4.107   1.271   2.330  0.4990  0.2783 -0.8373
 4867TIP3    H214566   4.236   1.342   2.298  0.9201  0.0847  0.3735
 4868TIP3   OH214567   6.863   6.229   3.734 -0.2103 -0.1446  0.4337
 4868TIP3    H114568   6.842   6.173   3.659  2.1364 -0.1640 -0.2787
 4868TIP3    H214569   6.889   6.168   3.803 -0.9488 -0.0533  0.8055
 4869TIP3   OH214570   4.499   0.604   4.371  0.2226  0.5928  0.0241
 4869TIP3    H114571   4.572   0.569   4.321  0.4358 -0.6433  1.1508
 4869TIP3    H214572   4.471   0.681   4.322 -0.3140 -1.1687 -2.5806
 4870TIP3   OH214573   3.634   1.370   3.598  0.3933  0.1371 -0.0589
 4870TIP3    H114574   3.638   1.334   3.509  1.4423  0.0310  0.0158
 4870TIP3    H214575   3.657   1.463   3.586  0.5723  0.1130  0.1135
 4871TIP3   OH214576   1.408   6.187   5.183 -0.5334  0.2177  0.1624
 4871TIP3    H114577   1.376   6.146   5.102 -0.8176 -0.9954  0.8459
 4871TIP3    H214578   1.501   6.202   5.168 -0.9315  1.6467 -1.0213
 4872TIP3   OH214579   0.065   1.444   2.167 -0.0252 -0.1950 -0.2332
 4872TIP3    H114580   0.094   1.500   2.094  0.1219 -0.2161 -0.1914
 4872TIP3    H214581   0.146   1.421   2.212 -0.0749 -0.5411 -0.3212
 4873TIP3   OH214582   6.200   3.897   4.719  0.3291 -0.0307 -0.2232
 4873TIP3    H114583   6.182   3.972   4.774 -0.4048  0.0561 -0.5765
 4873TIP3    H214584   6.284   3.864   4.750  0.8620  1.1740 -0.3337
 4874TIP3   OH214585   2.931   0.798   1.948  0.2975 -0.0770 -0.1123
 4874TIP3    H114586   2.892   0.885   1.962  0.3096 -0.0577 -0.1989
 4874TIP3    H214587   2.959   0.799   1.857  3.3635  1.0576  0.7261
 4875TIP3   OH214588   6.457   4.286   0.128 -0.1800 -0.3252 -0.6120
 4875TIP3    H114589   6.455   4.191   0.141 -0.6521 -0.4168 -1.3101
 4875TIP3    H214590   6.550   4.308   0.128 -0.0849 -0.4767  1.6666
 4876TIP3   OH214591   6.987   4.113   1.664  0.2541  0.4328 -0.4609
 4876TIP3    H114592   7.014   4.056   1.592 -1.0380 -2.3268  1.0877
 4876TIP3    H214593   6.892   4.103   1.668  0.2623  0.7080  1.4595
 4877TIP3   OH214594   6.165   3.201   4.495 -0.5496 -0.5495  0.0292
 4877TIP3    H114595   6.089   3.148   4.519 -0.4315 -0.1587  1.3064
 4877TIP3    H214596   6.131   3.263   4.431 -0.9018 -1.5183 -0.7584
 4878TIP3   OH214597   5.822   6.570   0.843  0.2782  0.5624 -0.4035
 4878TIP3    H114598   5.727   6.561   0.834  0.5170 -1.8179 -1.3340
 4878TIP3    H214599   5.840   6.543   0.933  0.0576  1.1748 -0.1747
 4879TIP3   OH214600   5.196   5.053   3.044 -0.3294  0.0961 -0.1876
 4879TIP3    H114601   5.207   5.042   2.950  0.6535  0.7863 -0.1687
 4879TIP3    H214602   5.108   5.021   3.062 -0.5211 -0.0546 -1.3356
 4880TIP3   OH214603   6.268   3.189   2.516 -0.3017  0.0252 -0.4592
 4880TIP3    H114604   6.258   3.146   2.431  0.8621 -0.4956 -0.3602
 4880TIP3    H214605   6.303   3.276   2.495 -0.8389  0.2210 -0.5541
 4881TIP3   OH214606   1.097   4.946   2.158 -0.5668  1.2992  0.2901
 4881TIP3    H114607   1.007   4.923   2.134  0.3520 -1.4159 -0.9463
 4881TIP3    H214608   1.132   4.868   2.201  1.1479  2.3486  0.9130
 4882TIP3   OH214609   1.162   4.608   2.767 -0.1671 -0.1656  0.1420
 4882TIP3    H114610   1.197   4.598   2.679 -0.8414 -1.0284 -0.0452
 4882TIP3    H214611   1.194   4.693   2.796  0.7337 -0.2203 -0.6197
 4883TIP3   OH214612   6.202   6.572   5.884 -0.5954  0.0280 -0.0780
 4883TIP3    H114613   6.160   6.489   5.858 -1.1793  0.0741  0.6854
 4883TIP3    H214614   6.199   6.626   5.805 -0.5221 -0.5592 -0.4871
 4884TIP3   OH214615   3.267   5.469   0.813 -0.4796  0.1946  0.0040
 4884TIP3    H114616   3.235   5.550   0.851 -0.3554  0.4664 -0.4563
 4884TIP3    H214617   3.297   5.494   0.725  2.7177  0.3630  1.0043
 4885TIP3   OH214618   0.863   2.906   0.354 -0.2792  0.1488 -0.0484
 4885TIP3    H114619   0.854   2.969   0.282 -0.7815  0.2414  0.0876
 4885TIP3    H214620   0.954   2.915   0.382 -0.7181  1.9384  0.9734
 4886TIP3   OH214621   5.404   2.067   0.226  0.1998  0.0628 -0.4758
 4886TIP3    H114622   5.410   2.009   0.302 -0.8972  1.2019  0.5291
 4886TIP3    H214623   5.491   2.106   0.219  0.1300  0.4898  0.6796
 4887TIP3   OH214624   4.329   5.783   3.097 -0.1617 -0.4678  0.1337
 4887TIP3    H114625   4.421   5.781   3.072 -0.2779  0.0629 -0.3411
 4887TIP3    H214626   4.284   5.824   3.024 -0.6929 -0.1571  0.6212
 4888TIP3   OH214627   1.199   3.249   3.232 -0.3774  0.4441 -0.0154
 4888TIP3    H114628   1.172   3.157   3.240  0.2672  0.2585  0.0396
 4888TIP3    H214629   1.220   3.275   3.321 -1.5475  0.9604  0.1278
 4889TIP3   OH214630   5.084   2.702   2.832  0.3998 -0.0941 -0.3554
 4889TIP3    H114631   4.990   2.691   2.818  0.4574  1.3474 -2.2416
 4889TIP3    H214632   5.119   2.723   2.746  2.2030  1.0055  0.5859
 4890TIP3   OH214633   5.293   4.230   3.975  0.0389  0.2694 -0.5392
 4890TIP3    H114634   5.363   4.171   4.004  0.5955  1.6572  1.0882
 4890TIP3    H214635   5.220   4.212   4.036 -0.0024  0.8072 -0.4230
 4891TIP3   OH214636   6.206   5.234   5.459  0.0027  1.0484 -0.5531
 4891TIP3    H114637   6.289   5.259   5.418  0.7725  1.6767  1.2718
 4891TIP3    H214638   6.167   5.317   5.486  0.0919  0.6270  0.9690
 4892TIP3   OH214639   3.484   6.410   4.673  0.2112  0.2260  0.4609
 4892TIP3    H114640   3.400   6.366   4.687 -0.3930  1.6683  1.6234
 4892TIP3    H214641   3.477   6.450   4.587 -0.1540  0.0553  0.4101
 4893TIP3   OH214642   2.305   6.729   2.083  0.0705 -0.0768  0.3952
 4893TIP3    H114643   2.244   6.795   2.051  0.9542  0.5738  0.0038
 4893TIP3    H214644   2.298   6.734   2.178  1.2916  1.7499  0.4264
 4894TIP3   OH214645   3.405   3.064   2.134  0.2948  0.2255  0.4356
 4894TIP3    H114646   3.476   3.124   2.111  1.6796 -1.3177  0.4947
 4894TIP3    H214647   3.330   3.097   2.086  0.8397  2.3546  0.9586
 4895TIP3   OH214648   6.685   4.958   4.760  0.0992 -0.2772  0.3535
 4895TIP3    H114649   6.654   4.890   4.700  2.3887 -2.4239  1.4203
 4895TIP3    H214650   6.680   5.039   4.709 -1.8004 -1.3578 -1.3128
 4896TIP3   OH214651   2.619   2.553   5.610  0.4125  0.4187 -0.7213
 4896TIP3    H114652   2.540   2.600   5.636 -0.2324 -0.0991 -1.6869
 4896TIP3    H214653   2.593   2.461   5.610  1.4761  0.0825  0.5294
 4897TIP3   OH214654   1.359   0.970   3.935  0.2778  0.5744 -0.5070
 4897TIP3    H114655   1.455   0.970   3.939  0.2629  0.0907 -0.0958
 4897TIP3    H214656   1.332   0.984   4.026 -0.0401  3.9296 -0.9623
 4898TIP3   OH214657   1.086   4.857   0.042  0.1285 -0.2777  0.0696
 4898TIP3    H114658   1.082   4.916  -0.033  0.7559  0.2791  0.4599
 4898TIP3    H214659   1.148   4.789   0.015  0.7235  0.1842  0.2552
 4899TIP3   OH214660   2.529   0.327   5.727  0.3195  0.3410 -0.2924
 4899TIP3    H114661   2.601   0.337   5.789  0.5197  0.4850 -0.5453
 4899TIP3    H214662   2.567   0.350   5.642 -0.3864  1.8316 -0.2409
 4900TIP3   OH214663   3.578   6.500   3.893 -0.4040 -0.0089 -0.5319
 4900TIP3    H114664   3.614   6.581   3.855  0.6213 -0.2779 -0.1628
 4900TIP3    H214665   3.485   6.504   3.873 -0.2208  0.8399 -1.2961
 4901TIP3   OH214666   2.017   6.300   1.642 -0.1950 -0.1641 -0.1743
 4901TIP3    H114667   2.110   6.291   1.662 -0.0121  2.3322  0.3998
 4901TIP3    H214668   1.995   6.388   1.670 -2.0796  0.3650 -2.9247
 4902TIP3   OH214669   3.340   2.680   3.975 -0.3853 -0.1182 -0.3647
 4902TIP3    H114670   3.394   2.610   3.938 -1.3515 -0.6970 -0.7144
 4902TIP3    H214671   3.250   2.651   3.961 -0.8033  1.0889 -0.2969
 4903TIP3   OH214672   6.345   0.880   4.908  0.4182 -0.7371  0.5542
 4903TIP3    H114673   6.423   0.936   4.907 -0.0380 -0.0973 -0.7853
 4903TIP3    H214674   6.361   0.818   4.980  1.6583  0.0771  1.0077
 4904TIP3   OH214675   3.547   1.104   5.180  0.1733 -0.4404  0.0983
 4904TIP3    H114676   3.525   1.198   5.185  1.2680 -0.1870  0.2853
 4904TIP3    H214677   3.531   1.081   5.089 -1.8763 -0.5362  0.4316
 4905TIP3   OH214678   0.169   0.460   4.725 -0.0234  0.1863 -0.3328
 4905TIP3    H114679   0.092   0.406   4.708  0.7387 -1.1800  0.4631
 4905TIP3    H214680   0.242   0.413   4.686  0.5164  1.1772 -0.5671
 4906TIP3   OH214681   7.106   1.621   5.579 -0.3148  0.5362 -0.7143
 4906TIP3    H114682   7.077   1.542   5.626 -0.5244  0.5256 -0.8592
 4906TIP3    H214683   7.058   1.618   5.497  0.6264  0.1592 -1.2626
 4907TIP3   OH214684   6.282   4.731   0.429 -0.4693  0.4794  0.3554
 4907TIP3    H114685   6.194   4.700   0.406 -0.8865  2.8035 -1.6640
 4907TIP3    H214686   6.339   4.687   0.367 -0.6903  1.4767 -0.5874
 4908TIP3   OH214687   3.559   3.999   1.031  0.0488  0.4896  0.3733
 4908TIP3    H114688   3.503   4.067   0.992  0.4465  0.1056 -0.9112
 4908TIP3    H214689   3.622   3.978   0.962  1.0862  0.1265  1.4169
 4909TIP3   OH214690   6.739   0.083   2.267 -0.0561 -0.4591 -0.3037
 4909TIP3    H114691   6.811   0.073   2.205  0.6973  2.5877 -0.0676
 4909TIP3    H214692   6.679   0.144   2.225 -0.6915 -0.1339  1.0206
 4910TIP3   OH214693   7.036   6.474   0.235 -0.0452 -0.5824 -0.0129
 4910TIP3    H114694   6.977   6.500   0.164 -0.1116  1.6173  0.7579
 4910TIP3    H214695   7.118   6.452   0.192 -0.4830 -0.5732 -0.8700
 4911TIP3   OH214696   4.412   6.205   4.953  0.2234  0.0436  0.3681
 4911TIP3    H114697   4.457   6.290   4.956  0.2931 -0.0161  2.2347
 4911TIP3    H214698   4.385   6.195   4.862 -2.5292  3.5065  0.5952
 4912TIP3   OH214699   3.002   5.421   1.050  0.2065  0.1244 -0.0925
 4912TIP3    H114700   3.081   5.462   1.085  0.3814  0.8494 -1.2829
 4912TIP3    H214701   3.033   5.364   0.980 -0.1638 -1.0754  0.6860
 4913TIP3   OH214702   6.130   6.147   4.379 -0.3162 -0.5570  0.1635
 4913TIP3    H114703   6.098   6.228   4.418 -1.8523 -2.0492  2.3152
 4913TIP3    H214704   6.056   6.112   4.330  0.6803 -0.1729 -1.6952
 4914TIP3   OH214705   0.310   0.161   1.884 -0.2102  0.3404  0.2563
 4914TIP3    H114706   0.358   0.090   1.925 -1.0599  0.3607  1.3343
 4914TIP3    H214707   0.376   0.227   1.864  0.1836  0.5287  2.0559
 4915TIP3   OH214708   5.651   5.955   3.776  0.1050  0.9577 -0.0543
 4915TIP3    H114709   5.698   5.937   3.694  1.7437 -0.2819  1.0974
 4915TIP3    H214710   5.627   5.868   3.809 -1.9409  1.5011  0.0550
 4916TIP3   OH214711   1.013   2.921   5.143 -0.4579 -0.3224  0.5231
 4916TIP3    H114712   1.105   2.926   5.170 -0.5787  0.9183  0.7527
 4916TIP3    H214713   0.967   2.889   5.220 -0.2687 -0.7004  0.4869
 4917TIP3   OH214714   5.079   2.007   3.531 -0.0585 -0.4010 -0.2451
 4917TIP3    H114715   5.053   2.004   3.623  0.7186  0.4033  0.0089
 4917TIP3    H214716   5.004   2.046   3.486 -0.9088 -1.8496 -0.1464
 4918TIP3   OH214717   4.407   1.582   5.412  0.1530 -0.1926 -0.0525
 4918TIP3    H114718   4.454   1.580   5.495  0.1119  2.4277  0.1137
 4918TIP3    H214719   4.316   1.567   5.436  0.3599 -1.1983  0.1372
 4919TIP3   OH214720   4.778   0.464   0.414  0.4758  0.6268 -0.2039
 4919TIP3    H114721   4.831   0.411   0.354 -1.9403  0.3881 -2.2965
 4919TIP3    H214722   4.808   0.554   0.399  1.3453  0.3480 -0.1816
 4920TIP3   OH214723   0.352   2.951   4.757 -0.5482  0.1109 -0.4864
 4920TIP3    H114724   0.372   2.974   4.848  1.4427  1.0289 -1.1051
 4920TIP3    H214725   0.308   2.866   4.763  1.5764 -0.9723  1.2233
 4921TIP3   OH214726   5.220   4.308   3.302  0.0057 -0.2663 -0.1986
 4921TIP3    H114727   5.291   4.365   3.272 -1.4022  0.6335 -2.0938
 4921TIP3    H214728   5.239   4.223   3.262  0.5449 -0.3090  0.1442
 4922TIP3   OH214729   7.060   6.141   0.872 -0.4016 -0.0665 -0.0571
 4922TIP3    H114730   7.114   6.132   0.951 -1.7410 -0.3680  0.8520
 4922TIP3    H214731   7.010   6.222   0.886 -0.4080  0.0549 -0.7513
 4923TIP3   OH214732   1.467   5.400   3.133 -0.0706 -0.2664  0.4918
 4923TIP3    H114733   1.454   5.310   3.163  1.2217 -0.7855 -0.4110
 4923TIP3    H214734   1.535   5.435   3.191  0.2234 -0.2554  0.1455
 4924TIP3   OH214735   1.126   6.417   3.643 -0.0984  0.9392  0.2898
 4924TIP3    H114736   1.106   6.375   3.727  1.7304  2.4973  1.6054
 4924TIP3    H214737   1.066   6.491   3.639 -0.1604  0.8869  0.2585
 4925TIP3   OH214738   4.380   6.266   0.627  0.4111 -0.2446 -0.6268
 4925TIP3    H114739   4.398   6.188   0.680  3.1795  0.7652  0.0927
 4925TIP3    H214740   4.406   6.242   0.538  1.7277 -0.0419 -0.3163
 4926TIP3   OH214741   4.644   0.402   0.113 -0.2528 -0.0207  0.3239
 4926TIP3    H114742   4.621   0.330   0.053 -0.1496 -0.1316  0.4161
 4926TIP3    H214743   4.561   0.443   0.134 -0.3090 -0.0900  0.2408
 4927TIP3   OH214744   5.752   4.403   2.786  0.2541  0.0793  0.3329
 4927TIP3    H114745   5.756   4.485   2.737  0.9527 -0.2828 -0.2370
 4927TIP3    H214746   5.666   4.367   2.766  0.6591 -0.2310 -0.9289
 4928TIP3   OH214747   3.890   6.494   4.391 -0.1055 -0.3769 -1.0164
 4928TIP3    H114748   3.957   6.528   4.332 -1.3031  0.0565 -2.1661
 4928TIP3    H214749   3.852   6.572   4.432  1.9991 -0.7295  1.8779
 4929TIP3   OH214750   0.681   1.230   1.396 -0.1502  0.0845 -0.1990
 4929TIP3    H114751   0.596   1.193   1.371 -0.1856 -0.8365  1.1546
 4929TIP3    H214752   0.693   1.305   1.338 -1.0682 -0.8155 -1.6054
 4930TIP3   OH214753   6.748   3.718   5.787  0.0169  0.0642  0.2349
 4930TIP3    H114754   6.756   3.632   5.829 -0.7107 -0.3852 -0.5019
 4930TIP3    H214755   6.740   3.698   5.694  0.1949  0.9598  0.0183
 4931TIP3   OH214756   6.822   5.703   1.042 -0.2995  0.0289  0.0524
 4931TIP3    H114757   6.841   5.615   1.009 -0.8386  1.1080 -3.5669
 4931TIP3    H214758   6.749   5.690   1.102 -0.6019 -1.9570 -0.6514
 4932TIP3   OH214759   4.197   2.957   3.777  0.4505 -0.5945 -0.0472
 4932TIP3    H114760   4.273   2.913   3.816  0.5096 -0.3840  0.0787
 4932TIP3    H214761   4.121   2.913   3.815  0.5079 -0.9446 -0.3302
 4933TIP3   OH214762   2.830   1.371   5.301  0.1744  0.3534  0.4599
 4933TIP3    H114763   2.872   1.416   5.228  0.6168 -0.5498  0.1466
 4933TIP3    H214764   2.842   1.430   5.375 -0.5686  1.4342 -0.2478
 4934TIP3   OH214765   3.252   2.020   5.111 -0.1344  0.3276 -0.2285
 4934TIP3    H114766   3.243   2.028   5.016 -1.9845 -2.6636 -0.4639
 4934TIP3    H214767   3.166   2.047   5.145 -0.6277 -1.6730  0.2327
 4935TIP3   OH214768   2.355   0.096   5.329  0.2422 -0.3606  0.1921
 4935TIP3    H114769   2.334   0.181   5.291 -1.9297 -0.7290  0.4735
 4935TIP3    H214770   2.312   0.032   5.273 -0.1005 -1.1182  1.2708
 4936TIP3   OH214771   5.872   4.612   3.619 -0.1624  0.2190  1.0775
 4936TIP3    H114772   5.951   4.588   3.571  0.1396  1.7826  0.7296
 4936TIP3    H214773   5.835   4.685   3.570 -1.5214 -0.1085  1.5618
 4937TIP3   OH214774   3.992   1.749   4.533 -0.0550 -0.0143  0.0826
 4937TIP3    H114775   3.928   1.754   4.462  0.2852  0.7255 -0.1888
 4937TIP3    H214776   3.940   1.745   4.613 -0.4385 -0.2094 -0.1744
 4938TIP3   OH214777   2.644   6.563   5.678 -0.0676 -0.0152  0.1574
 4938TIP3    H114778   2.693   6.572   5.760 -1.7086 -0.8291  1.2880
 4938TIP3    H214779   2.573   6.502   5.699 -1.4694  0.9637 -1.4313
 4939TIP3   OH214780   5.624   1.938   5.427 -0.3129 -0.5133  0.4138
 4939TIP3    H114781   5.673   1.872   5.476  0.6305 -1.7953 -2.0444
 4939TIP3    H214782   5.690   1.982   5.373 -1.3685  0.2591 -0.2942
 4940TIP3   OH214783   2.622   1.494   4.288  0.4226  0.0891  0.2366
 4940TIP3    H114784   2.615   1.460   4.199  0.8881 -0.2776  0.3354
 4940TIP3    H214785   2.612   1.589   4.278 -1.2842 -0.0856  0.0027
 4941TIP3   OH214786   4.895   5.042   2.008  0.0753 -0.1245 -0.1998
 4941TIP3    H114787   4.834   4.973   1.981  0.3019 -0.6143  0.5191
 4941TIP3    H214788   4.969   4.995   2.045 -0.0740  0.5117  0.9612
 4942TIP3   OH214789   2.971   3.923   4.242  0.7315 -0.3125  0.0498
 4942TIP3    H114790   3.002   3.940   4.153  0.0234  0.3021 -0.0982
 4942TIP3    H214791   2.876   3.913   4.233  0.5716  0.3406  0.8021
 4943TIP3   OH214792   0.100   2.995   5.109 -0.3754  0.4226  0.0105
 4943TIP3    H114793   0.094   2.899   5.109 -1.5488  0.4791  0.2216
 4943TIP3    H214794   0.090   3.019   5.201  1.4776  0.6900  0.1744
 4944TIP3   OH214795   1.201   3.146   2.938 -0.0490 -0.3739 -0.7549
 4944TIP3    H114796   1.226   3.182   3.023 -1.5871 -0.7341 -0.1234
 4944TIP3    H214797   1.122   3.194   2.914 -0.0153 -0.7515 -1.6644
 4945TIP3   OH214798   0.943   6.633   0.519 -0.1934 -0.1802 -0.0390
 4945TIP3    H114799   0.887   6.693   0.471 -0.3605 -0.1527  0.1926
 4945TIP3    H214800   0.979   6.685   0.590 -2.2966 -0.9553  1.7002
 4946TIP3   OH214801   1.537   1.575   2.093 -0.2119 -0.2057  0.2766
 4946TIP3    H114802   1.455   1.604   2.132  0.2765  0.6897  0.6633
 4946TIP3    H214803   1.601   1.580   2.164  0.6549  1.3010 -0.5509
 4947TIP3   OH214804   4.899   6.575   0.086 -0.0644 -0.1749 -0.1878
 4947TIP3    H114805   4.981   6.616   0.058  1.3618 -1.6414  1.5958
 4947TIP3    H214806   4.903   6.487   0.050 -0.6189 -0.4313  0.3726
 4948TIP3   OH214807   0.372   3.918   4.195  0.0715  0.2139 -0.0295
 4948TIP3    H114808   0.304   3.854   4.211 -1.0833  0.7708 -2.2583
 4948TIP3    H214809   0.330   3.985   4.141  1.4056  2.5294  1.6149
 4949TIP3   OH214810   3.394   5.285   4.328  0.0469 -0.3105 -0.3506
 4949TIP3    H114811   3.317   5.331   4.294  1.2234  0.9892 -1.3273
 4949TIP3    H214812   3.419   5.224   4.259  0.8856  0.4705 -0.7466
 4950TIP3   OH214813   3.052   2.548   3.132 -0.4431  0.0732 -0.2451
 4950TIP3    H114814   3.111   2.528   3.204  0.4251 -0.8734 -1.1796
 4950TIP3    H214815   3.044   2.643   3.132  1.6601  0.2823 -0.5314
 4951TIP3   OH214816   6.580   6.559   3.215 -0.0520  0.5773  0.3535
 4951TIP3    H114817   6.525   6.480   3.210 -1.1384  1.2412  1.4585
 4951TIP3    H214818   6.621   6.564   3.129  0.3681 -1.4236  0.3951
 4952TIP3   OH214819   0.134   2.206   5.652  0.0465  0.1826  0.2286
 4952TIP3    H114820   0.145   2.301   5.662  2.8949  0.6308 -4.3529
 4952TIP3    H214821   0.045   2.195   5.619  0.0766  1.4269 -0.3279
 4953TIP3   OH214822   3.517   3.716   1.097 -0.3467 -0.3909  0.3341
 4953TIP3    H114823   3.520   3.808   1.071 -0.2038 -0.7522 -1.0378
 4953TIP3    H214824   3.434   3.707   1.145 -0.2795  0.4750  0.6269
 4954TIP3   OH214825   6.579   5.847   1.423  0.2691 -0.1067 -0.4471
 4954TIP3    H114826   6.641   5.887   1.483 -1.9382  1.6332  0.8573
 4954TIP3    H214827   6.591   5.893   1.341  1.6366 -0.7867 -0.6440
 4955TIP3   OH214828   2.412   3.806   1.110 -0.0189 -0.4191 -0.2496
 4955TIP3    H114829   2.425   3.850   1.027 -0.7357 -0.2746 -0.2976
 4955TIP3    H214830   2.452   3.720   1.099  0.9279  0.0285 -0.3317
 4956TIP3   OH214831   1.700   0.178   5.072  0.1187 -0.5839 -0.1704
 4956TIP3    H114832   1.710   0.257   5.018  0.3668 -0.8552 -0.5303
 4956TIP3    H214833   1.719   0.106   5.012  0.8950 -0.8704  0.3974
 4957TIP3   OH214834   4.368   1.061   2.737  0.1901 -0.1620 -0.2004
 4957TIP3    H114835   4.371   0.972   2.699  0.5982  0.0437 -0.6679
 4957TIP3    H214836   4.283   1.095   2.709 -0.5584 -0.8807  1.1060
 4958TIP3   OH214837   6.560   3.061   4.248 -0.5003  0.4878 -0.2841
 4958TIP3    H114838   6.490   3.124   4.266 -0.6718 -0.0579  1.1532
 4958TIP3    H214839   6.637   3.100   4.289  0.0222  0.9932 -1.6942
 4959TIP3   OH214840   0.233   3.488   5.314 -0.1865 -0.1146 -0.1454
 4959TIP3    H114841   0.318   3.455   5.285 -0.6642  0.0497 -1.8328
 4959TIP3    H214842   0.171   3.419   5.290 -0.8603  0.8903 -1.4272
 4960TIP3   OH214843   5.980   4.897   0.981 -0.1939  0.0464  0.0841
 4960TIP3    H114844   6.071   4.926   0.971  0.0244 -0.2408  1.1458
 4960TIP3    H214845   5.935   4.972   1.019 -0.5208  0.3649 -0.9179
 4961TIP3   OH214846   5.855   2.487   1.159 -0.0038 -0.1616 -0.3635
 4961TIP3    H114847   5.846   2.440   1.076  1.5314 -0.9870 -0.1024
 4961TIP3    H214848   5.949   2.488   1.176 -0.3592 -1.3041  2.0796
 4962TIP3   OH214849   1.413   6.513   5.397 -0.2270 -0.1080  0.1835
 4962TIP3    H114850   1.507   6.509   5.382  0.2155  0.3819  2.3761
 4962TIP3    H214851   1.398   6.450   5.467 -1.5973 -0.4016 -0.3514
 4963TIP3   OH214852   6.277   0.456   3.131  0.8328 -0.4230  0.3202
 4963TIP3    H114853   6.215   0.398   3.176  0.9999  0.5427  1.8536
 4963TIP3    H214854   6.354   0.401   3.115  0.3089 -1.1089  0.1148
 4964TIP3   OH214855   3.395   2.295   1.116  0.3005 -0.2709 -0.3171
 4964TIP3    H114856   3.342   2.217   1.132  0.5365 -0.6826 -1.4633
 4964TIP3    H214857   3.332   2.363   1.092  0.2250 -0.5955 -1.0666
 4965TIP3   OH214858   6.905   3.584   3.438 -0.3072  0.2154 -0.7933
 4965TIP3    H114859   7.000   3.591   3.443 -0.2355 -0.3698 -1.2059
 4965TIP3    H214860   6.884   3.609   3.349 -0.5042  0.0267 -0.8010
 4966TIP3   OH214861   5.897   2.418   3.033 -0.0263  0.1917  0.4556
 4966TIP3    H114862   5.961   2.477   2.992  1.5397 -1.1567  0.8752
 4966TIP3    H214863   5.945   2.375   3.103 -1.5127 -0.6135  1.0199
 4967TIP3   OH214864   6.443   2.168   3.468 -0.3080 -0.0006  0.2588
 4967TIP3    H114865   6.440   2.073   3.460 -0.8609  0.0417 -0.0977
 4967TIP3    H214866   6.353   2.196   3.451 -0.0870  0.6046  0.0546
 4968TIP3   OH214867   0.634   0.517   2.563  0.4505 -0.5029  0.2553
 4968TIP3    H114868   0.562   0.454   2.564  0.1149 -0.1558 -0.6327
 4968TIP3    H214869   0.692   0.489   2.634 -0.3955 -0.9777  0.7719
 4969TIP3   OH214870   4.634   5.977   3.954 -0.3560 -0.2636  0.2031
 4969TIP3    H114871   4.638   6.031   4.033 -0.3854  0.2820 -0.1640
 4969TIP3    H214872   4.686   6.025   3.890  0.2689 -1.0613  0.0949
 4970TIP3   OH214873   4.028   1.567   3.851  0.1136 -0.1213  0.5181
 4970TIP3    H114874   3.989   1.546   3.766 -0.1007  2.2835 -0.0548
 4970TIP3    H214875   4.081   1.490   3.873  2.0950  0.0674 -2.9089
 4971TIP3   OH214876   5.222   3.239   1.140 -0.2118 -0.0541  0.6297
 4971TIP3    H114877   5.169   3.276   1.209  0.5924 -1.0411  1.8271
 4971TIP3    H214878   5.223   3.145   1.158 -1.1624 -0.5525 -1.5692
 4972TIP3   OH214879   3.259   5.708   5.443  0.0941  0.3211  0.1872
 4972TIP3    H114880   3.237   5.732   5.534  3.4837  1.2441  0.9065
 4972TIP3    H214881   3.355   5.710   5.440  0.1271  0.1568 -3.4039
 4973TIP3   OH214882   5.067   5.137   1.228  0.4209  0.4527 -0.1494
 4973TIP3    H114883   5.024   5.053   1.215  1.6387 -0.0867 -0.7735
 4973TIP3    H214884   5.099   5.134   1.318 -0.0855  0.5171  0.0382
 4974TIP3   OH214885   3.055   4.361   1.236  0.2329 -0.3422  0.2309
 4974TIP3    H114886   3.011   4.425   1.293  1.1472  0.7852 -0.2829
 4974TIP3    H214887   3.148   4.372   1.257  0.6411  0.4560 -1.8006
 4975TIP3   OH214888   6.817   2.401   4.297  0.2066  0.4806  0.0979
 4975TIP3    H114889   6.879   2.382   4.226 -0.7671 -1.1537 -0.3788
 4975TIP3    H214890   6.748   2.452   4.256 -1.5449 -2.3928 -0.8236
 4976TIP3   OH214891   4.571   4.309   4.554 -0.2912 -0.3008  0.2094
 4976TIP3    H114892   4.647   4.355   4.589 -0.7588 -1.1780  2.5203
 4976TIP3    H214893   4.558   4.348   4.467  2.0968  0.6308  0.1917
 4977TIP3   OH214894   6.680   1.205   0.120 -0.2337  0.0657 -0.4022
 4977TIP3    H114895   6.719   1.181   0.203 -2.4144 -1.1401  0.3572
 4977TIP3    H214896   6.694   1.299   0.113 -0.8770  0.3929  1.8690
 4978TIP3   OH214897   4.998   3.182   0.698 -0.0388 -0.0992  0.2623
 4978TIP3    H114898   5.057   3.172   0.774  0.1851 -1.7754 -0.1024
 4978TIP3    H214899   4.912   3.158   0.731  0.1395 -1.3096 -0.1022
 4979TIP3   OH214900   3.521   3.655   1.759  0.1561  0.7630  0.7863
 4979TIP3    H114901   3.561   3.614   1.836  0.0934 -2.1115 -0.5996
 4979TIP3    H214902   3.434   3.615   1.753  0.3663  0.5339 -1.0620
 4980TIP3   OH214903   0.926   0.247   1.593  0.0539  0.1165 -0.3962
 4980TIP3    H114904   0.835   0.217   1.594 -0.3353  1.2227 -1.0335
 4980TIP3    H214905   0.923   0.331   1.547  1.5433 -0.2808 -1.2721
 4981TIP3   OH214906   4.824   5.588   0.730 -0.4039  0.0736  0.3543
 4981TIP3    H114907   4.742   5.537   0.727  0.3046 -1.1252  0.6007
 4981TIP3    H214908   4.796   5.677   0.750 -1.5210 -0.6539  2.3639
 4982TIP3   OH214909   5.630   3.245   5.209  0.0825 -0.1903  0.0331
 4982TIP3    H114910   5.669   3.237   5.122  0.7335 -1.7001  0.4295
 4982TIP3    H214911   5.704   3.262   5.267 -0.2584  0.1058  0.3823
 4983TIP3   OH214912   1.933   5.595   2.776 -0.1792  0.1958  0.0021
 4983TIP3    H114913   1.911   5.676   2.731 -0.4738 -0.2394 -0.6593
 4983TIP3    H214914   2.028   5.599   2.789 -0.3671  1.2692  1.2446
 4984TIP3   OH214915   6.918   1.330   1.653  0.2892 -0.1301 -0.1797
 4984TIP3    H114916   6.878   1.405   1.696 -0.5371 -0.3452 -0.5395
 4984TIP3    H214917   6.965   1.284   1.722 -0.0063  0.1916  0.2381
 4985TIP3   OH214918   4.801   6.720   3.623  0.5615  0.5139 -0.3998
 4985TIP3    H114919   4.705   6.725   3.627  0.5974  0.9390  0.1662
 4985TIP3    H214920   4.819   6.674   3.542 -0.0951  2.0731 -1.4898
 4986TIP3   OH214921   2.627   5.212   0.703 -0.5087  0.3207  0.0738
 4986TIP3    H114922   2.629   5.117   0.703 -0.1970  0.3199  0.9464
 4986TIP3    H214923   2.599   5.236   0.614 -1.7037 -0.6042  0.1792
 4987TIP3   OH214924   2.383   6.462   3.943  0.1393 -0.2621  0.0613
 4987TIP3    H114925   2.339   6.483   3.861  1.1586  1.3160 -0.1172
 4987TIP3    H214926   2.312   6.452   4.007 -0.6026 -0.4258 -0.7797
 4988TIP3   OH214927   6.363   5.045   0.802  0.0419 -0.5025  0.4560
 4988TIP3    H114928   6.328   5.006   0.882  1.8916 -0.9391  1.0913
 4988TIP3    H214929   6.317   4.999   0.731 -0.7677 -0.9366  1.2442
 4989TIP3   OH214930   5.111   5.083   2.310 -0.6580  0.3068 -0.2451
 4989TIP3    H114931   5.025   5.115   2.284 -0.5598  1.2686  0.5420
 4989TIP3    H214932   5.111   4.990   2.287 -1.5823  0.4890 -1.0368
 4990TIP3   OH214933   4.608   5.207   5.781 -0.0668  0.1764  0.1103
 4990TIP3    H114934   4.647   5.244   5.703  1.1459  0.3826  0.7875
 4990TIP3    H214935   4.514   5.208   5.764  0.1590  0.4612 -1.2208
 4991TIP3   OH214936   1.824   1.423   1.252  0.0906 -0.7967 -0.3995
 4991TIP3    H114937   1.766   1.496   1.273  1.5828  0.0578  0.9858
 4991TIP3    H214938   1.819   1.416   1.156 -1.1004  0.2304 -0.4423
 4992TIP3   OH214939   0.811   2.612   3.000 -0.3790 -0.2060 -0.1076
 4992TIP3    H114940   0.745   2.554   3.037 -0.0214 -0.0769  0.7667
 4992TIP3    H214941   0.764   2.664   2.934 -1.0232 -0.4720  0.1337
 4993TIP3   OH214942   6.915   3.586   0.085 -0.0375 -0.4821  0.1223
 4993TIP3    H114943   6.977   3.623   0.023 -0.0345 -0.6971 -0.0040
 4993TIP3    H214944   6.841   3.558   0.031 -1.0330  1.3767  0.4479
 4994TIP3   OH214945   2.090   5.362   4.207  0.2490 -0.0379 -0.0974
 4994TIP3    H114946   2.154   5.333   4.272 -0.1668  1.1927  0.9119
 4994TIP3    H214947   2.127   5.443   4.172 -1.2425  1.3942  1.4040
 4995TIP3   OH214948   1.183   1.685   4.147 -0.0813 -0.0331  0.0218
 4995TIP3    H114949   1.274   1.676   4.120 -0.0225  1.2742 -0.3179
 4995TIP3    H214950   1.141   1.729   4.074 -0.8171  0.0409  0.4789
 4996TIP3   OH214951   5.537   6.509   4.865 -0.3661 -0.3669  0.3732
 4996TIP3    H114952   5.473   6.494   4.796  0.5823  1.3680 -0.9782
 4996TIP3    H214953   5.618   6.528   4.819  0.6042 -0.3591  2.0034
 4997TIP3   OH214954   2.205   0.491   0.373 -0.3845  0.6128 -0.2567
 4997TIP3    H114955   2.136   0.557   0.368 -0.1795  0.9405  0.9261
 4997TIP3    H214956   2.236   0.495   0.463  0.5106 -0.2192 -0.5044
 4998TIP3   OH214957   0.206   2.710   4.190 -0.6351  0.5520  0.2243
 4998TIP3    H114958   0.149   2.668   4.255 -1.2182 -0.8318 -1.1301
 4998TIP3    H214959   0.187   2.804   4.198 -1.2454  0.3346  1.5129
 4999TIP3   OH214960   6.998   5.830   3.708 -0.3683  0.0658  0.3425
 4999TIP3    H114961   7.022   5.760   3.769 -0.5615  1.2310  1.7954
 4999TIP3    H214962   6.995   5.786   3.623  0.5857 -1.4633  1.0433
 5000TIP3   OH214963   4.421   5.409   4.618 -0.0207  0.1249 -0.2597
 5000TIP3    H114964   4.504   5.364   4.605  0.3515  1.2070 -1.8275
 5000TIP3    H214965   4.443   5.488   4.666 -0.3461 -0.1743  0.4062
 5001TIP3   OH214966   7.200   3.094   1.912  0.0274  0.1310 -0.2752
 5001TIP3    H114967   7.176   3.183   1.940 -3.1263 -1.2160  1.9441
 5001TIP3    H214968   7.133   3.071   1.848  1.0607 -0.5543 -1.1306
 5002TIP3   OH214969   2.586   0.003   5.433  0.3144 -0.2915 -0.0124
 5002TIP3    H114970   2.505   0.053   5.426  0.1962 -0.6725 -2.8828
 5002TIP3    H214971   2.655   0.064   5.405  0.5742 -0.8540 -0.6344
 5003TIP3   OH214972   5.314   2.728   4.842 -0.4701  0.7251 -0.0507
 5003TIP3    H114973   5.317   2.811   4.889 -0.5280 -0.1864  1.6305
 5003TIP3    H214974   5.220   2.711   4.829 -0.7996 -1.1110  3.5333
 5004TIP3   OH214975   3.868   3.556   4.702  0.1631 -0.0118  0.1760
 5004TIP3    H114976   3.870   3.531   4.609  0.6577 -2.3593  0.7415
 5004TIP3    H214977   3.942   3.617   4.711 -0.0227  0.4206 -0.9964
 5005TIP3   OH214978   6.388   1.991   5.475 -0.8321 -0.1448  0.3475
 5005TIP3    H114979   6.468   1.955   5.437 -0.7501  1.1825 -0.7856
 5005TIP3    H214980   6.419   2.055   5.540 -0.9062  1.5631 -1.2227
 5006TIP3   OH214981   2.153   1.112   1.170  0.0106 -0.5525  0.6178
 5006TIP3    H114982   2.110   1.173   1.108  1.0008 -3.0237 -2.7977
 5006TIP3    H214983   2.083   1.051   1.195  0.1124 -0.9194  0.0282
 5007TIP3   OH214984   2.435   2.287   4.235 -0.0888 -0.6965  0.7073
 5007TIP3    H114985   2.383   2.265   4.312 -0.1190 -0.7895  0.6613
 5007TIP3    H214986   2.522   2.307   4.269  0.2844 -2.1041  0.6373
 5008TIP3   OH214987   5.896   6.370   0.619  0.0592  0.1766  0.2961
 5008TIP3    H114988   5.976   6.338   0.660  0.9907  0.1547 -1.4000
 5008TIP3    H214989   5.919   6.377   0.526 -0.9847  2.9420  0.1361
 5009TIP3   OH214990   0.915   6.191   5.563  0.7037  0.0425  0.3338
 5009TIP3    H114991   0.828   6.179   5.525  0.3799  0.7300  0.8222
 5009TIP3    H214992   0.898   6.236   5.647  1.5890  1.0764 -0.0193
 5010TIP3   OH214993   4.757   0.814   0.709 -0.2750  0.3748  0.5791
 5010TIP3    H114994   4.839   0.797   0.756  0.1030  0.0779 -0.1737
 5010TIP3    H214995   4.782   0.813   0.617 -1.1138  0.3956  0.3493
 5011TIP3   OH214996   5.121   0.909   0.582  0.3198 -0.0800 -0.2484
 5011TIP3    H114997   5.097   0.903   0.489  0.1389 -0.8358 -0.1613
 5011TIP3    H214998   5.137   0.818   0.608 -0.6333  0.0088  0.7225
 5012TIP3   OH214999   3.090   1.103   5.901 -0.6663 -0.1402  0.4170
 5012TIP3    H115000   2.997   1.082   5.896 -1.0259  1.1899  1.0003
 5012TIP3    H215001   3.105   1.162   5.826 -0.4996  0.3007  0.7901
 5013TIP3   OH215002   1.627   3.117   2.082 -0.3788 -0.1661 -0.2431
 5013TIP3    H115003   1.585   3.203   2.072 -0.3162 -0.1980 -0.8478
 5013TIP3    H215004   1.555   3.055   2.088 -0.4244 -0.0720  0.2198
 5014TIP3   OH215005   6.335   5.719   5.437 -0.2548 -0.5797 -0.2320
 5014TIP3    H115006   6.402   5.774   5.475 -0.1964  0.3074 -1.5538
 5014TIP3    H215007   6.265   5.780   5.412 -1.1786 -1.3793  0.3052
 5015TIP3   OH215008   6.669   6.092   2.368 -0.6161 -0.1216  0.4629
 5015TIP3    H115009   6.743   6.149   2.346 -0.4591 -0.3745  0.3319
 5015TIP3    H215010   6.705   6.028   2.430 -1.0212  0.4870  1.3362
 5016TIP3   OH215011   6.897   0.087   4.695  0.6126  0.0744  0.2052
 5016TIP3    H115012   6.876   0.175   4.665  1.3066  0.3974  0.6461
 5016TIP3    H215013   6.925   0.040   4.616  0.5541  0.3431  0.0259
 5017TIP3   OH215014   3.609   0.145   0.533 -0.4355  0.4880  0.5177
 5017TIP3    H115015   3.703   0.126   0.542 -0.3941  0.2970 -0.2150
 5017TIP3    H215016   3.578   0.080   0.469 -0.7838  1.4071 -0.2798
 5018TIP3   OH215017   1.783   0.369   3.073 -0.1925  0.4409 -0.7201
 5018TIP3    H115018   1.847   0.415   3.126  1.6713 -0.2090 -2.3146
 5018TIP3    H215019   1.790   0.277   3.099 -0.1345  0.2957 -1.2285
 5019TIP3   OH215020   3.400   1.225   5.858 -0.3767 -0.7823  0.2633
 5019TIP3    H115021   3.321   1.264   5.820  1.1934  2.0771 -0.3850
 5019TIP3    H215022   3.448   1.190   5.782  0.5418  0.6697  0.1218
 5020TIP3   OH215023   0.600   6.143   4.971  0.3835 -0.1024  0.6096
 5020TIP3    H115024   0.596   6.160   4.877 -0.1169 -0.0531  0.6403
 5020TIP3    H215025   0.558   6.058   4.981 -0.0284  0.1302  0.8515
 5021TIP3   OH215026   2.038   4.704   4.667 -0.2235 -0.1492  0.5323
 5021TIP3    H115027   1.983   4.676   4.740 -0.4085 -0.0379  0.4385
 5021TIP3    H215028   2.007   4.652   4.593 -1.4523  1.1941  0.0526
 5022TIP3   OH215029   5.973   4.940   3.395 -0.3033  0.0262  0.1472
 5022TIP3    H115030   5.962   5.036   3.394 -1.7470 -0.0969  1.0903
 5022TIP3    H215031   5.888   4.907   3.367 -0.1663 -1.0059  0.9240
 5023TIP3   OH215032   6.992   5.407   2.817  0.2724  0.6460 -0.3691
 5023TIP3    H115033   6.996   5.448   2.904 -1.6684  0.0976  0.0322
 5023TIP3    H215034   6.922   5.342   2.825 -0.1200  0.7660 -2.4208
 5024TIP3   OH215035   5.948   3.980   0.175  0.2714 -0.3039 -0.3035
 5024TIP3    H115036   6.009   3.940   0.113  0.6748 -0.4094  0.1572
 5024TIP3    H215037   6.004   4.032   0.234 -0.2036  0.6873 -0.6950
 5025TIP3   OH215038   4.285   6.652   1.732 -0.3525 -0.7050  0.1558
 5025TIP3    H115039   4.302   6.562   1.758 -0.5928 -0.3672  1.5764
 5025TIP3    H215040   4.372   6.688   1.711 -0.1499 -1.0351  0.4174
 5026TIP3   OH215041   4.393   4.268   0.783 -0.2088 -0.2581 -0.0504
 5026TIP3    H115042   4.315   4.295   0.830  0.1465  1.2456 -0.2610
 5026TIP3    H215043   4.360   4.228   0.702 -0.7758 -1.4833  0.7557
 5027TIP3   OH215044   1.020   2.386   1.131 -0.3006  0.4127 -0.2067
 5027TIP3    H115045   1.103   2.414   1.170 -0.4031  0.5649 -0.0931
 5027TIP3    H215046   0.959   2.382   1.205 -0.5069  0.7450 -0.3561
 5028TIP3   OH215047   6.406   2.795   2.085  0.2406 -0.1226  0.3263
 5028TIP3    H115048   6.422   2.874   2.136 -1.5462 -0.3529  1.3386
 5028TIP3    H215049   6.313   2.800   2.062  0.1047 -1.8564  0.3414
 5029TIP3   OH215050   1.146   4.509   3.880  0.2709  0.3396 -0.2895
 5029TIP3    H115051   1.191   4.588   3.911  2.1058 -0.5958 -0.4431
 5029TIP3    H215052   1.059   4.515   3.919  0.6574  1.9789  0.4348
 5030TIP3   OH215053   0.873   1.351   1.191  0.7403  0.1252  0.3853
 5030TIP3    H115054   0.869   1.415   1.120  2.8105  1.0311  1.0273
 5030TIP3    H215055   0.862   1.266   1.147  0.3034  0.7476 -0.7721
 5031TIP3   OH215056   6.140   1.299   1.401 -0.0575  0.0591 -0.1187
 5031TIP3    H115057   6.211   1.345   1.447 -0.5526  1.4364 -0.6870
 5031TIP3    H215058   6.087   1.369   1.364 -2.1723 -0.9063  0.9434
 5032TIP3   OH215059   4.311   0.992   3.741 -0.1432  0.3549  0.0837
 5032TIP3    H115060   4.303   0.935   3.664  1.1845  0.5961 -0.2568
 5032TIP3    H215061   4.320   1.080   3.705  0.4579  0.4737  0.5174
 5033TIP3   OH215062   4.994   2.942   4.985  0.3959  0.0840  0.1734
 5033TIP3    H115063   4.944   2.866   5.015 -0.8955  1.2366  1.0855
 5033TIP3    H215064   4.953   2.968   4.903  1.3739 -0.6674 -0.5820
 5034TIP3   OH215065   0.306   1.678   2.534 -0.1041 -0.3177  0.0523
 5034TIP3    H115066   0.399   1.686   2.554 -0.0767 -0.4813 -0.0110
 5034TIP3    H215067   0.299   1.600   2.478 -0.1847  0.1114 -0.5491
 5035TIP3   OH215068   0.511   4.304   1.193 -0.3296 -0.1583 -0.1961
 5035TIP3    H115069   0.544   4.366   1.128 -0.3618  1.2307  1.0561
 5035TIP3    H215070   0.508   4.354   1.275 -0.5993 -1.7533  0.8174
 5036TIP3   OH215071   2.905   2.998   0.389  0.4704 -0.7489  0.3580
 5036TIP3    H115072   2.886   2.992   0.483 -0.9112 -1.1673  0.0758
 5036TIP3    H215073   2.819   2.996   0.347  1.0355  0.0833 -0.8972
 5037TIP3   OH215074   4.600   6.462   3.780  0.1347 -0.0982 -0.0064
 5037TIP3    H115075   4.557   6.386   3.744 -0.6739  0.0918  0.5312
 5037TIP3    H215076   4.685   6.465   3.737 -0.8639  0.2603 -2.0571
 5038TIP3   OH215077   3.367   3.346   3.693 -0.0591 -0.3645  0.2860
 5038TIP3    H115078   3.373   3.440   3.679  1.3722 -0.5386 -0.4135
 5038TIP3    H215079   3.351   3.309   3.606  2.2149 -0.9517  0.0588
 5039TIP3   OH215080   6.600   1.972   5.824 -0.5245 -0.0871 -0.0485
 5039TIP3    H115081   6.665   1.933   5.883 -1.0312  1.8820  1.9085
 5039TIP3    H215082   6.650   1.995   5.746  0.8426  0.0795  0.8414
 5040TIP3   OH215083   0.420   0.887   2.861 -0.3518  0.3295 -0.1056
 5040TIP3    H115084   0.392   0.913   2.948 -1.7484  0.0153 -0.4301
 5040TIP3    H215085   0.459   0.800   2.873 -0.2356  0.4316  0.2538
 5041TIP3   OH215086   3.279   0.358   0.401  0.1828  0.4770 -0.6320
 5041TIP3    H115087   3.275   0.343   0.496  1.2438 -0.1447 -0.6683
 5041TIP3    H215088   3.373   0.364   0.382  0.0331 -0.5121 -1.7988
 5042TIP3   OH215089   0.602   4.557   5.586 -0.1331  0.1916  0.1970
 5042TIP3    H115090   0.614   4.646   5.617  0.2299  0.0420  0.4940
 5042TIP3    H215091   0.550   4.514   5.654 -3.2224  1.0448 -1.4245
 5043TIP3   OH215092   1.872   1.939   4.835 -0.4427  0.0094 -0.4606
 5043TIP3    H115093   1.908   2.026   4.821 -0.2570 -0.3036 -2.1038
 5043TIP3    H215094   1.888   1.892   4.753  1.3295 -2.2360  1.0103
 5044TIP3   OH215095   2.012   2.071   1.898 -0.4052  0.1375 -0.1648
 5044TIP3    H115096   1.925   2.111   1.893 -1.0952 -1.4236 -1.8830
 5044TIP3    H215097   2.051   2.086   1.812 -0.4785 -2.2918 -0.7026
 5045TIP3   OH215098   3.360   2.230   5.778  0.0343 -0.2140  0.5832
 5045TIP3    H115099   3.395   2.275   5.855  0.6168  2.1090 -0.9365
 5045TIP3    H215100   3.325   2.301   5.724 -3.1888 -2.0382  0.0635
 5046TIP3   OH215101   5.445   1.770   3.088  0.3197  0.3068  0.5948
 5046TIP3    H115102   5.357   1.802   3.071  0.4893  0.0837 -0.8113
 5046TIP3    H215103   5.457   1.780   3.183 -0.6268  1.7981  0.5802
 5047TIP3   OH215104   4.089   1.475   3.453  0.1685  0.3886  0.2629
 5047TIP3    H115105   4.024   1.442   3.514  0.8886  2.6184  2.3993
 5047TIP3    H215106   4.039   1.497   3.374 -0.6957 -3.0835 -0.3390
 5048TIP3   OH215107   1.273   4.811   5.354  0.8864  0.2984 -0.2550
 5048TIP3    H115108   1.203   4.773   5.301 -0.5330  0.1085  1.6735
 5048TIP3    H215109   1.290   4.896   5.314 -0.0288  0.1006 -1.1034
 5049TIP3   OH215110   3.561   0.241   4.632 -0.6121  0.2214  0.1148
 5049TIP3    H115111   3.571   0.276   4.544  0.8886 -1.2382 -0.3604
 5049TIP3    H215112   3.620   0.294   4.686 -2.6868  2.1339  0.6134
 5050TIP3   OH215113   0.360   5.905  -0.003  0.3828  0.1315  0.1615
 5050TIP3    H115114   0.411   5.899   0.078 -0.6894 -1.1956  0.7777
 5050TIP3    H215115   0.285   5.847   0.012  0.6904 -0.9765 -2.1700
 5051TIP3   OH215116   1.725   6.380   4.090  0.3991 -0.7363 -0.1309
 5051TIP3    H115117   1.806   6.335   4.068  0.0284 -1.0501 -0.8669
 5051TIP3    H215118   1.656   6.328   4.050 -0.0992  0.0283 -0.2960
 5052TIP3   OH215119   1.220   3.180   0.549  0.1118  0.2548  0.1979
 5052TIP3    H115120   1.282   3.220   0.609 -1.1633  0.5154  1.4080
 5052TIP3    H215121   1.207   3.245   0.480  2.2239 -0.3808 -0.8959
 5053TIP3   OH215122   1.267   0.260   0.799  0.4824 -0.1549  0.1734
 5053TIP3    H115123   1.297   0.345   0.833  1.4748 -0.3739 -0.1341
 5053TIP3    H215124   1.211   0.283   0.725  0.9909  0.2377 -0.1019
 5054TIP3   OH215125   5.006   1.982   1.579  0.1538  0.0486  0.4776
 5054TIP3    H115126   5.087   2.033   1.578  0.6478 -0.7396  0.2076
 5054TIP3    H215127   5.028   1.901   1.624 -1.2659  1.0686  3.2537
 5055TIP3   OH215128   7.129   5.995   0.650 -0.1063 -0.0443  0.2229
 5055TIP3    H115129   7.206   5.945   0.680  0.2741  0.5991  0.3325
 5055TIP3    H215130   7.093   6.033   0.730 -0.6890 -0.5336  0.2033
 5056TIP3   OH215131   3.159   3.206   3.892 -0.5756  0.0993  0.1886
 5056TIP3    H115132   3.191   3.117   3.874 -0.0636  0.3138 -0.0069
 5056TIP3    H215133   3.226   3.263   3.854  0.5401  0.5890  2.6967
 5057TIP3   OH215134   3.095   4.072   2.678 -0.0537  0.4224 -0.5520
 5057TIP3    H115135   3.148   4.147   2.650  1.1959 -0.3650 -0.3623
 5057TIP3    H215136   3.028   4.110   2.734  2.3688  1.1730  2.1099
 5058TIP3   OH215137   4.944   5.706   5.580 -0.1253  0.3429  0.0024
 5058TIP3    H115138   4.859   5.739   5.550  0.1977  0.0820 -1.3004
 5058TIP3    H215139   4.924   5.653   5.657 -0.8647  2.0662  1.0524
 5059TIP3   OH215140   5.418   6.023   0.228 -0.1644 -0.3497 -0.2707
 5059TIP3    H115141   5.399   6.089   0.161 -0.1394 -0.1222 -0.0528
 5059TIP3    H215142   5.338   6.020   0.281 -0.2132 -0.5862 -0.3569
 5060TIP3   OH215143   4.408   3.360   0.202 -0.0761 -0.3671  0.2610
 5060TIP3    H115144   4.450   3.288   0.155 -1.8164 -0.9545 -0.4671
 5060TIP3    H215145   4.351   3.318   0.266 -0.2371  0.3842  0.6301
 5061TIP3   OH215146   7.200   4.795   4.523 -0.1565 -0.9242  0.5547
 5061TIP3    H115147   7.235   4.839   4.601  0.6765 -2.1431  0.9175
 5061TIP3    H215148   7.133   4.736   4.558 -2.1957  0.9281 -0.0692
 5062TIP3   OH215149   5.153   1.306   0.717 -0.1289  0.3250 -0.7871
 5062TIP3    H115150   5.158   1.356   0.636 -1.4101  0.8466 -0.5762
 5062TIP3    H215151   5.065   1.324   0.751  0.0720 -0.5612  0.2790
 5063TIP3   OH215152   7.087   2.249   3.859 -0.1043  0.2992  0.4668
 5063TIP3    H115153   7.152   2.285   3.920  1.6253 -2.3010  0.3422
 5063TIP3    H215154   7.138   2.225   3.781 -1.2401 -1.5079  0.2157
 5064TIP3   OH215155   1.104   0.070   4.927 -0.6220  0.4353  0.0056
 5064TIP3    H115156   1.143  -0.013   4.955 -0.5915  0.2665 -0.5177
 5064TIP3    H215157   1.171   0.111   4.873 -0.2906  1.2286  0.9916
 5065TIP3   OH215158   0.117   0.947   3.747 -0.1037 -0.1311 -0.3278
 5065TIP3    H115159   0.037   0.899   3.726  0.6299 -1.4064 -0.2961
 5065TIP3    H215160   0.163   0.954   3.663  0.0151  0.1296 -0.2439
 5066TIP3   OH215161   3.707   1.092   3.983  0.4010  0.4060 -0.2665
 5066TIP3    H115162   3.689   1.039   4.061 -1.3454  0.1076 -0.8161
 5066TIP3    H215163   3.640   1.065   3.920  1.0925  1.4216 -1.4924
 5067TIP3   OH215164   5.045   3.987   0.056 -0.0869  0.3563 -0.4447
 5067TIP3    H115165   5.023   3.929   0.129  1.3614  1.1191  0.6623
 5067TIP3    H215166   5.139   3.976   0.045 -0.2089  0.6200 -1.8939
 5068TIP3   OH215167   2.310   0.105   1.072  0.1433 -0.5607  0.3230
 5068TIP3    H115168   2.366   0.164   1.021  0.8483  0.2436  1.9148
 5068TIP3    H215169   2.356   0.021   1.072  1.9484  0.3163  2.3486
 5069TIP3   OH215170   6.799   6.169   1.364  0.2331 -0.2243 -0.1342
 5069TIP3    H115171   6.744   6.138   1.436  1.9465 -1.2978  0.7566
 5069TIP3    H215172   6.832   6.090   1.322  2.9145  0.2858  0.8017
 5070TIP3   OH215173   2.242   4.089   5.585 -0.2834 -0.3717  0.3637
 5070TIP3    H115174   2.223   4.105   5.678 -1.0676  1.1418 -0.0405
 5070TIP3    H215175   2.158   4.102   5.541  0.5474  1.2658 -0.8336
 5071TIP3   OH215176   6.206   5.334   2.065 -0.2836 -0.3505  0.0909
 5071TIP3    H115177   6.150   5.407   2.091  0.0578 -0.2411  0.5487
 5071TIP3    H215178   6.269   5.326   2.137  0.6952 -0.0528 -0.7122
 5072TIP3   OH215179   5.744   0.930   1.643  0.2952  0.2071 -0.1868
 5072TIP3    H115180   5.777   0.958   1.557 -1.7427  2.6264 -0.2915
 5072TIP3    H215181   5.823   0.908   1.693  1.6174  0.0355 -2.2252
 5073TIP3   OH215182   5.137   3.014   4.736 -0.1323  0.4817  0.2936
 5073TIP3    H115183   5.067   3.021   4.671  0.0453  1.9083  0.2283
 5073TIP3    H215184   5.104   2.951   4.801 -0.9631  0.2391 -0.3488
 5074TIP3   OH215185   5.669   1.127   5.801  0.3439  0.2468  0.2515
 5074TIP3    H115186   5.764   1.115   5.796  0.5734 -1.0658  4.0672
 5074TIP3    H215187   5.657   1.221   5.817  1.2041  0.1873  1.4024
 5075TIP3   OH215188   6.414   5.723   4.328  0.8195  0.2196  0.8125
 5075TIP3    H115189   6.405   5.791   4.395  0.8267  0.9428  0.1014
 5075TIP3    H215190   6.505   5.728   4.301  0.7636  0.0782  0.5987
 5076TIP3   OH215191   6.680   3.768   0.050  0.3216  0.6953 -0.0251
 5076TIP3    H115192   6.747   3.768  -0.018  1.5096 -1.7374  0.9992
 5076TIP3    H215193   6.728   3.785   0.131  0.3344 -3.4257  1.0656
 5077TIP3   OH215194   1.814   0.133   2.758  0.1438  0.1509 -0.2396
 5077TIP3    H115195   1.812   0.222   2.724  1.7285  0.4079  0.2654
 5077TIP3    H215196   1.899   0.126   2.802 -0.0188 -1.5525 -0.1348
 5078TIP3   OH215197   7.025   1.727   2.163 -0.3516  0.3176  0.2276
 5078TIP3    H115198   7.116   1.736   2.191 -0.9360  2.2601  1.6887
 5078TIP3    H215199   7.007   1.808   2.114 -1.1183 -0.3494 -0.6340
 5079TIP3   OH215200   0.577   2.172   0.731 -0.1527 -0.7680 -0.2660
 5079TIP3    H115201   0.524   2.096   0.705  1.1592 -2.4228  1.5497
 5079TIP3    H215202   0.525   2.214   0.800 -0.2350 -0.8952 -0.2479
 5080TIP3   OH215203   6.681   4.024   3.639  0.6796  0.6695  0.0740
 5080TIP3    H115204   6.605   3.974   3.610  1.9473 -1.9142  0.9036
 5080TIP3    H215205   6.666   4.038   3.733  0.3093  1.9816 -0.1591
 5081TIP3   OH215206   2.940   2.224   5.028  0.0479 -0.0904  0.6057
 5081TIP3    H115207   2.884   2.297   4.999  0.3352  0.3012  1.0276
 5081TIP3    H215208   3.021   2.266   5.056  0.5080 -0.6388  0.1441
 5082TIP3   OH215209   3.131   6.085   2.885 -0.7170 -0.1151  0.5506
 5082TIP3    H115210   3.083   6.168   2.878  0.4251  0.6143  0.9993
 5082TIP3    H215211   3.224   6.111   2.886 -0.2802 -1.4888 -0.5060
 5083TIP3   OH215212   3.524   4.967   4.236 -0.6335 -0.5617 -0.5081
 5083TIP3    H115213   3.433   4.991   4.252 -0.3900  0.2963 -0.3638
 5083TIP3    H215214   3.519   4.886   4.186 -1.4751 -0.5528 -0.4514
 5084TIP3   OH215215   1.988   5.016   5.330 -0.3579  0.1548  0.2157
 5084TIP3    H115216   2.058   4.965   5.290  1.1331  1.9464  0.4009
 5084TIP3    H215217   1.958   5.075   5.261 -1.7543 -0.6061  0.1303
 5085TIP3   OH215218   5.803   3.162   1.439  0.1250 -0.8314 -0.0047
 5085TIP3    H115219   5.829   3.093   1.500  1.6954 -1.0000 -0.8166
 5085TIP3    H215220   5.744   3.217   1.489 -1.4865 -2.9469  0.5707
 5086TIP3   OH215221   5.452   4.660   1.351 -0.6023  0.2905  0.0340
 5086TIP3    H115222   5.513   4.721   1.394  0.2737 -0.8912  0.5171
 5086TIP3    H215223   5.389   4.717   1.308  1.1987  1.5965 -1.0369
 5087TIP3   OH215224   0.846   2.230   2.948 -0.2474 -0.1626  1.0324
 5087TIP3    H115225   0.904   2.303   2.929  1.3267 -1.5963  0.0861
 5087TIP3    H215226   0.809   2.250   3.034 -0.5158  2.1215  0.4435
 5088TIP3   OH215227   2.440   5.957   2.914 -0.2771 -0.1451  0.1227
 5088TIP3    H115228   2.421   6.037   2.866 -0.8772 -0.3578  0.0015
 5088TIP3    H215229   2.354   5.917   2.930 -0.1174  0.0735  1.6287
 5089TIP3   OH215230   4.350   5.222   4.268  0.5948  0.0243  0.1062
 5089TIP3    H115231   4.410   5.297   4.267  1.3165 -0.5392 -0.2362
 5089TIP3    H215232   4.277   5.250   4.323  0.5515  1.2015 -0.5270
 5090TIP3   OH215233   3.153   5.394   4.217  0.5418 -0.2898  0.1010
 5090TIP3    H115234   3.205   5.411   4.139  0.0153  0.7570 -0.0459
 5090TIP3    H215235   3.068   5.365   4.184  0.2062  0.4803  0.2540
 5091TIP3   OH215236   0.311   6.160   0.424  0.2978  0.0464 -0.7003
 5091TIP3    H115237   0.392   6.148   0.473 -0.5629  0.0319  0.7836
 5091TIP3    H215238   0.310   6.253   0.402 -1.0868  1.0055  2.7644
 5092TIP3   OH215239   5.865   3.555   2.799  0.0825  0.2077 -0.0886
 5092TIP3    H115240   5.882   3.628   2.740 -0.1305  1.1160  0.9343
 5092TIP3    H215241   5.933   3.491   2.779 -0.3830  0.1844 -1.7682
 5093TIP3   OH215242   0.515   5.180   1.162  0.2631  0.3379 -0.5899
 5093TIP3    H115243   0.539   5.141   1.078 -1.8133 -0.7039 -0.7605
 5093TIP3    H215244   0.483   5.268   1.139 -0.3265  0.0441 -0.9062
 5094TIP3   OH215245   2.532   2.231   2.281 -0.5299 -0.4304  0.3387
 5094TIP3    H115246   2.589   2.237   2.204 -0.3911  0.3633  0.4901
 5094TIP3    H215247   2.467   2.300   2.267 -0.7835 -0.5934  0.7084
 5095TIP3   OH215248   5.425   3.061   3.994 -0.1901  0.3725  0.1972
 5095TIP3    H115249   5.456   3.145   3.960  2.2440 -0.1337  1.0014
 5095TIP3    H215250   5.460   2.996   3.934 -0.4598 -0.1968  0.6443
 5096TIP3   OH215251   3.040   4.426   4.437 -0.7455  0.2485  0.4658
 5096TIP3    H115252   3.126   4.466   4.426 -0.7117  1.2291  3.5115
 5096TIP3    H215253   3.039   4.355   4.373  2.0558  0.6150 -0.1154
 5097TIP3   OH215254  -0.008   1.467   1.310  0.1394 -0.4617  0.1295
 5097TIP3    H115255   0.054   1.532   1.344 -0.0817 -0.8059  1.2312
 5097TIP3    H215256  -0.006   1.396   1.375  0.1321 -1.4141 -0.8884
 5098TIP3   OH215257   0.562   3.375   3.816  0.6163  0.3446 -0.5761
 5098TIP3    H115258   0.565   3.405   3.725  0.6279 -1.8571 -1.3602
 5098TIP3    H215259   0.469   3.360   3.833  0.7244 -0.4514 -0.6622
 5099TIP3   OH215260   1.321   2.932   1.145  0.3179 -0.7856 -0.3316
 5099TIP3    H115261   1.360   2.916   1.059 -0.4410  1.1602 -1.0853
 5099TIP3    H215262   1.394   2.960   1.200  0.7110 -1.5307 -0.4522
 5100TIP3   OH215263   4.537   4.371   1.649 -0.0774  0.0352  0.4992
 5100TIP3    H115264   4.498   4.289   1.620  0.3044  0.2577 -0.6993
 5100TIP3    H215265   4.465   4.419   1.691 -0.3903 -0.7412  0.8635
 5101TIP3   OH215266   3.980   5.632   2.628 -0.4184 -0.4032 -0.0024
 5101TIP3    H115267   3.940   5.545   2.625  0.2737 -0.7121 -0.3957
 5101TIP3    H215268   4.074   5.615   2.638 -0.3421  0.3115  0.6143
 5102TIP3   OH215269   6.622   3.916   5.357  0.2607 -0.3467 -0.1710
 5102TIP3    H115270   6.577   3.999   5.343 -0.9592 -0.6611  1.5107
 5102TIP3    H215271   6.702   3.940   5.403  0.0836 -0.0643 -0.0057
 5103TIP3   OH215272   1.304   5.533   3.914 -0.0310 -0.1000 -0.5883
 5103TIP3    H115273   1.333   5.442   3.906 -0.1195 -0.0080 -2.2985
 5103TIP3    H215274   1.216   5.533   3.876 -1.2755  0.1535  2.0598
 5104TIP3   OH215275   3.998   0.006   4.945  0.4195  0.0999 -0.0881
 5104TIP3    H115276   3.934  -0.038   5.002 -0.9928  0.7728 -1.1087
 5104TIP3    H215277   3.957   0.089   4.921  2.0252  0.9190 -0.1538
 5105TIP3   OH215278   1.248   2.925   2.477 -0.6364 -0.3047 -0.1884
 5105TIP3    H115279   1.204   2.971   2.548 -0.0063 -0.7820  0.5288
 5105TIP3    H215280   1.228   2.833   2.492  0.5287 -0.5180  0.1013
 5106TIP3   OH215281   5.959   4.409   2.544 -0.1142  0.5455 -0.2585
 5106TIP3    H115282   5.967   4.504   2.534  1.0579  0.3222 -1.7177
 5106TIP3    H215283   6.021   4.387   2.613 -0.5832  0.8557  0.2739
 5107TIP3   OH215284   5.497   1.744   0.424 -0.0506  0.3922  0.1880
 5107TIP3    H115285   5.408   1.766   0.453 -0.0306  0.9509 -0.1508
 5107TIP3    H215286   5.547   1.737   0.505 -0.0632  1.6338  0.3223
 5108TIP3   OH215287   2.884   4.468   3.532  0.1515 -0.1382 -0.2767
 5108TIP3    H115288   2.893   4.461   3.627 -1.3673  0.8025 -0.0228
 5108TIP3    H215289   2.808   4.524   3.520  0.6898  0.2555 -2.0676
 5109TIP3   OH215290   2.347   4.851   4.970  0.1105  0.4310 -0.5016
 5109TIP3    H115291   2.373   4.799   5.046  1.0639 -0.2297 -1.2593
 5109TIP3    H215292   2.258   4.822   4.950  0.2856 -0.2303 -0.3440
 5110TIP3   OH215293   2.692   6.735   4.141  0.2350  0.1804  0.0679
 5110TIP3    H115294   2.703   6.645   4.109  4.5580  0.4071  0.2543
 5110TIP3    H215295   2.683   6.788   4.062 -0.4627 -0.2265 -0.1340
 5111TIP3   OH215296   2.999   4.782   1.635  0.1296 -0.7665  0.0610
 5111TIP3    H115297   2.956   4.857   1.676  0.1214 -0.2405 -0.8902
 5111TIP3    H215298   2.960   4.776   1.548 -0.8437 -2.7220  0.5891
 5112TIP3   OH215299   1.656   5.020   4.493  0.3219 -0.3305 -0.1444
 5112TIP3    H115300   1.751   5.031   4.503  0.4102 -1.1207 -0.0798
 5112TIP3    H215301   1.632   4.958   4.561  0.0694 -1.6616 -1.4090
 5113TIP3   OH215302   3.187   0.681   3.874 -0.1946 -0.3796 -0.6870
 5113TIP3    H115303   3.119   0.714   3.815 -0.5492 -2.8333 -1.8037
 5113TIP3    H215304   3.138   0.635   3.942  0.2719  1.2821  0.8472
 5114TIP3   OH215305   6.271   2.982   3.131  0.1777 -0.2379  0.0071
 5114TIP3    H115306   6.243   3.050   3.069 -2.8463 -0.9282  0.4486
 5114TIP3    H215307   6.367   2.989   3.133  0.1162  2.5564 -1.5710
 5115TIP3   OH215308   0.361   1.889   5.431  0.0178 -0.0605 -0.1269
 5115TIP3    H115309   0.294   1.824   5.454 -0.4538  0.8800  1.3020
 5115TIP3    H215310   0.408   1.905   5.512 -0.4136  1.9785 -0.2305
 5116TIP3   OH215311   5.519   0.303   0.297  0.3746  0.0432  0.1927
 5116TIP3    H115312   5.555   0.215   0.284 -2.6529 -1.2205 -0.5519
 5116TIP3    H215313   5.497   0.333   0.208 -0.4782  0.6555  0.5957
 5117TIP3   OH215314   1.275   3.597   1.241  0.4988  0.3787  0.0887
 5117TIP3    H115315   1.369   3.590   1.252  0.4867 -2.0584 -0.6588
 5117TIP3    H215316   1.249   3.671   1.296  2.8090  1.0796  0.3388
 5118TIP3   OH215317   3.399   6.031   5.307 -0.1206 -0.0215  0.0465
 5118TIP3    H115318   3.331   5.984   5.258 -0.1784  0.9065 -0.8007
 5118TIP3    H215319   3.463   6.056   5.240 -0.8783  2.4743  0.1523
 5119TIP3   OH215320   5.135   3.181   2.148 -0.3003 -0.6346 -0.3333
 5119TIP3    H115321   5.182   3.250   2.101  0.5055 -1.2524 -0.4706
 5119TIP3    H215322   5.194   3.105   2.143 -2.0575 -1.9848 -2.0478
 5120TIP3   OH215323   2.899   4.775   1.375  0.1656 -0.0676 -0.1082
 5120TIP3    H115324   2.987   4.791   1.343  0.4678 -0.3062  0.5907
 5120TIP3    H215325   2.842   4.807   1.305  0.7428  2.5299  0.5246
 5121TIP3   OH215326   3.641   3.808   5.631  0.3389 -0.2879 -0.1020
 5121TIP3    H115327   3.586   3.867   5.579  1.2969 -0.8786 -1.9026
 5121TIP3    H215328   3.726   3.852   5.633  0.3722 -0.3918  0.7853
 5122TIP3   OH215329   2.551   3.087   1.470 -0.0548  0.7362 -0.1556
 5122TIP3    H115330   2.576   3.101   1.561  1.2607  1.7474 -0.6492
 5122TIP3    H215331   2.494   3.161   1.449 -0.2418  0.5791 -0.2174
 5123TIP3   OH215332   4.049   0.802   3.789  0.2183 -0.1589 -0.0191
 5123TIP3    H115333   4.128   0.823   3.739 -1.6335  1.4113 -2.5390
 5123TIP3    H215334   4.008   0.887   3.805 -2.5341 -1.0319 -1.6799
 5124TIP3   OH215335   0.802   6.474   5.489 -0.1831  0.5043  0.1287
 5124TIP3    H115336   0.735   6.405   5.497  0.4041  0.0706  1.8048
 5124TIP3    H215337   0.885   6.427   5.497  0.2092  1.4544  2.0831
 5125TIP3   OH215338   1.047   0.796   0.404  0.1475 -0.5726  0.2009
 5125TIP3    H115339   1.106   0.867   0.378  0.1973 -1.2276 -1.6044
 5125TIP3    H215340   0.961   0.826   0.376 -0.0740 -0.5377  0.9061
 5126TIP3   OH215341   5.147   3.731   3.820 -0.3966  0.2702 -0.2555
 5126TIP3    H115342   5.188   3.668   3.879 -0.6554  1.0520  0.8044
 5126TIP3    H215343   5.070   3.685   3.785  0.1744 -0.4597 -0.5620
 5127TIP3   OH215344   2.109   5.659   3.718  0.4564 -0.1177  0.3032
 5127TIP3    H115345   2.125   5.582   3.663  0.3998  1.1010 -1.5006
 5127TIP3    H215346   2.188   5.667   3.772  0.5793 -1.2722  0.3150
 5128TIP3   OH215347   4.619   1.462   3.348  0.4169  0.3637 -0.0454
 5128TIP3    H115348   4.606   1.423   3.435  1.6433 -3.2771 -1.3177
 5128TIP3    H215349   4.536   1.504   3.328 -0.8495 -1.0796  1.8148
 5129TIP3   OH215350   0.844   0.390   2.088  0.1863  0.6523  0.0381
 5129TIP3    H115351   0.925   0.402   2.038  0.5481 -0.0528  0.4410
 5129TIP3    H215352   0.820   0.478   2.118  1.6077  0.6976  1.1444
 5130TIP3   OH215353   3.180   0.907   4.778 -0.8550  0.2266  0.3041
 5130TIP3    H115354   3.216   0.918   4.866 -0.4997 -1.0525  0.3353
 5130TIP3    H215355   3.104   0.966   4.775  0.4206  1.9727  0.6837
 5131TIP3   OH215356   6.127   2.619   3.358  0.0782 -0.4378 -0.5113
 5131TIP3    H115357   6.062   2.550   3.367 -0.5504  0.1037 -0.8019
 5131TIP3    H215358   6.199   2.592   3.416 -0.4030 -1.0371 -0.1775
 5132TIP3   OH215359   0.168   3.789   5.503  0.1173 -0.4527  0.4156
 5132TIP3    H115360   0.250   3.815   5.543 -1.0370  0.7085  2.1850
 5132TIP3    H215361   0.161   3.844   5.425  1.1380 -0.7789  0.0868
 5133TIP3   OH215362   4.440   3.506   3.643  0.9364  0.1088 -0.5855
 5133TIP3    H115363   4.427   3.586   3.592 -0.8681  0.3377  0.1516
 5133TIP3    H215364   4.379   3.443   3.603  0.2129  0.0014  0.6435
 5134TIP3   OH215365   2.176   0.554   2.474 -0.2922  0.0763 -0.1864
 5134TIP3    H115366   2.129   0.472   2.490 -0.9585  0.5140  0.1627
 5134TIP3    H215367   2.174   0.599   2.558  1.6143 -0.3081  0.0976
 5135TIP3   OH215368   7.063   3.520   5.360  0.1063  0.1115 -0.0386
 5135TIP3    H115369   7.042   3.582   5.429 -2.0225 -0.0152 -0.4862
 5135TIP3    H215370   6.993   3.455   5.364  0.8741 -0.8355 -1.2185
 5136TIP3   OH215371   2.515   0.096   4.062 -0.2251  0.7337 -0.1521
 5136TIP3    H115372   2.546   0.006   4.064  3.0295  1.7167 -0.6947
 5136TIP3    H215373   2.462   0.102   3.983  1.2858 -0.2100 -1.2672
 5137TIP3   OH215374   1.528   3.831   4.667  0.1533 -0.3725 -0.3086
 5137TIP3    H115375   1.508   3.740   4.648 -4.6533  0.5055 -0.8541
 5137TIP3    H215376   1.525   3.875   4.582  1.3541  0.4891  0.0629
 5138TIP3   OH215377   4.139   6.759   0.745  0.5728  0.2413 -0.0915
 5138TIP3    H115378   4.169   6.719   0.663  0.1653 -0.5080  0.1166
 5138TIP3    H215379   4.206   6.824   0.766  1.5484 -0.7224 -0.1466
 5139TIP3   OH215380   3.170   5.456   0.188 -0.2557 -0.2818  0.2906
 5139TIP3    H115381   3.155   5.402   0.110  1.4679 -1.4418  0.7040
 5139TIP3    H215382   3.223   5.529   0.157 -0.4986 -0.1541  0.1766
 5140TIP3   OH215383   5.052   3.788   5.840  0.2183 -0.4976  0.1936
 5140TIP3    H115384   5.038   3.695   5.826  0.0301 -0.2731 -1.3225
 5140TIP3    H215385   4.970   3.829   5.812  0.6161  0.1739 -0.0064
 5141TIP3   OH215386   5.630   1.738   4.026  0.8313  0.4347 -0.3224
 5141TIP3    H115387   5.566   1.752   4.096 -0.2555  0.1598 -1.2379
 5141TIP3    H215388   5.577   1.721   3.948  2.0045  1.1917 -1.3228
 5142TIP3   OH215389   6.681   5.582   3.485  0.1975 -0.0685 -0.1670
 5142TIP3    H115390   6.597   5.539   3.500  0.1693  0.3000  0.8181
 5142TIP3    H215391   6.680   5.607   3.392 -1.8895  2.2234  0.3694
 5143TIP3   OH215392   3.985   2.559   2.242  0.3462  0.0443 -0.4746
 5143TIP3    H115393   3.928   2.624   2.284  0.9510  0.6727 -0.6017
 5143TIP3    H215394   3.972   2.479   2.293 -2.1278 -0.4025 -1.6933
 5144TIP3   OH215395   2.817   6.120   0.849 -0.0047  0.0668  0.5994
 5144TIP3    H115396   2.882   6.132   0.918 -0.9695  2.3790  1.2120
 5144TIP3    H215397   2.864   6.137   0.768  0.7562 -0.9852  0.8115
 5145TIP3   OH215398   3.910   0.328   5.150  0.3429  0.2549 -0.8508
 5145TIP3    H115399   3.975   0.396   5.133  0.4156  0.3345 -0.2826
 5145TIP3    H215400   3.835   0.376   5.186  0.7538 -0.0551  0.4794
 5146TIP3   OH215401   0.135   4.414   0.847 -0.9653 -0.3625 -0.0733
 5146TIP3    H115402   0.116   4.359   0.771  0.8069 -0.7769 -0.2599
 5146TIP3    H215403   0.050   4.452   0.871 -1.6648 -0.6577 -1.9019
 5147TIP3   OH215404   3.760   5.909   4.258 -0.0948  0.2756  0.1457
 5147TIP3    H115405   3.688   5.919   4.320 -0.9005  0.8206 -0.8384
 5147TIP3    H215406   3.807   5.992   4.262  1.0772 -0.4007  1.4557
 5148TIP3   OH215407   7.006   6.484   3.630  0.1631  0.0360  0.0694
 5148TIP3    H115408   6.951   6.409   3.652 -0.5208 -0.1060 -1.9103
 5148TIP3    H215409   7.081   6.446   3.584 -0.1376  0.5307 -0.8538
 5149TIP3   OH215410   1.011   0.678   2.145 -0.2553 -0.1395 -0.1375
 5149TIP3    H115411   1.075   0.703   2.212  0.1129  0.3583 -0.6612
 5149TIP3    H215412   1.064   0.654   2.069 -0.6887  0.9107 -0.7944
 5150TIP3   OH215413   1.069   3.832   0.021 -0.3881 -0.2575 -0.3160
 5150TIP3    H115414   0.999   3.873  -0.029 -0.0869 -0.3117 -0.7848
 5150TIP3    H215415   1.119   3.906   0.057 -1.9138 -0.1703  1.8201
 5151TIP3   OH215416   0.819   5.130   5.651  0.2388 -0.2119 -0.1775
 5151TIP3    H115417   0.911   5.112   5.631  0.5654 -0.7352  1.5903
 5151TIP3    H215418   0.774   5.048   5.632  0.1219  0.0519 -1.0666
 5152TIP3   OH215419   0.393   0.778   5.667  0.4718 -0.8794 -0.2413
 5152TIP3    H115420   0.432   0.857   5.702  0.5838 -0.6083 -0.9607
 5152TIP3    H215421   0.301   0.782   5.694 -0.0566  0.5926 -2.0742
 5153TIP3   OH215422   2.664   5.754   5.469  0.2089  0.6972  0.0119
 5153TIP3    H115423   2.630   5.774   5.383 -0.7929  0.1828  0.2655
 5153TIP3    H215424   2.737   5.694   5.453  0.1351  0.7418 -0.4907
 5154TIP3   OH215425   1.136   0.935   0.146 -0.0489 -0.3485 -0.5631
 5154TIP3    H115426   1.145   0.980   0.061 -1.3535  0.3793 -0.3579
 5154TIP3    H215427   1.158   0.844   0.127  0.2684 -0.0846 -1.5528
 5155TIP3   OH215428   3.678   1.732   2.009 -0.0205 -0.2881  0.5665
 5155TIP3    H115429   3.615   1.693   2.069 -2.4662  1.0699 -0.9991
 5155TIP3    H215430   3.695   1.819   2.044  0.8975 -0.5606  0.8552
 5156TIP3   OH215431   5.747   6.205   4.394  0.1976  0.4210  0.4891
 5156TIP3    H115432   5.757   6.153   4.314  0.5126  0.7673  0.3009
 5156TIP3    H215433   5.679   6.159   4.444 -0.4553  0.5409 -0.2542
 5157TIP3   OH215434   4.379   0.881   4.746  0.3407 -0.2497  0.4135
 5157TIP3    H115435   4.438   0.949   4.779  1.4505 -1.1163  0.2720
 5157TIP3    H215436   4.437   0.812   4.715 -0.7365 -0.5696 -0.9655
 5158TIP3   OH215437   2.832   2.915   1.720  0.3739  0.0808 -0.1077
 5158TIP3    H115438   2.924   2.930   1.699  0.6390 -1.4217 -0.1391
 5158TIP3    H215439   2.829   2.825   1.753 -1.4153 -0.8349 -2.4161
 5159TIP3   OH215440   1.296   3.269   5.280 -0.1384 -0.1372  0.0957
 5159TIP3    H115441   1.355   3.258   5.354 -0.9581 -0.3480  0.7348
 5159TIP3    H215442   1.210   3.283   5.320 -0.4728  0.4707 -0.8102
 5160TIP3   OH215443   1.047   1.908   3.917  0.1844 -0.3727  0.2759
 5160TIP3    H115444   1.035   1.829   3.865  1.6821  0.4226 -1.3634
 5160TIP3    H215445   0.959   1.945   3.924 -0.5724 -2.2105  1.2099
 5161TIP3   OH215446   2.480   5.418   1.555  0.1411 -0.1202  0.1442
 5161TIP3    H115447   2.518   5.344   1.507 -0.6190 -0.6114  0.2874
 5161TIP3    H215448   2.433   5.467   1.488 -1.0908 -0.9173  0.3940
 5162TIP3   OH215449   3.440   3.601   2.258 -0.5315  0.0435  0.6017
 5162TIP3    H115450   3.461   3.675   2.314  1.2827 -1.1941  1.6639
 5162TIP3    H215451   3.383   3.546   2.311 -2.1180  0.7492 -0.2888
 5163TIP3   OH215452   3.583   3.236   3.260 -0.2365  0.5198 -0.3566
 5163TIP3    H115453   3.519   3.305   3.282 -1.1552 -0.9674  2.0131
 5163TIP3    H215454   3.666   3.268   3.295 -0.0703  1.4773 -1.5173
 5164TIP3   OH215455   4.527   1.215   1.754 -0.2257  0.2748  0.3475
 5164TIP3    H115456   4.604   1.170   1.789 -0.3091  1.4381  2.1254
 5164TIP3    H215457   4.561   1.300   1.725 -0.8077  0.7446  1.0291
 5165TIP3   OH215458   4.493   1.406   0.092 -0.3256  0.0864 -0.4347
 5165TIP3    H115459   4.430   1.467   0.131 -0.1954  1.8124 -2.7556
 5165TIP3    H215460   4.470   1.321   0.130 -1.7931  1.2154  1.4030
 5166TIP3   OH215461   3.849   5.212   1.812 -0.1206 -0.5432  0.1380
 5166TIP3    H115462   3.827   5.250   1.727 -0.5439 -2.3153 -0.5845
 5166TIP3    H215463   3.765   5.201   1.857 -0.0481 -0.9902  0.1694
 5167TIP3   OH215464   5.691   3.083   0.973 -0.0645 -0.2824  0.1838
 5167TIP3    H115465   5.764   3.036   0.933  2.6627  1.5619  2.6607
 5167TIP3    H215466   5.677   3.159   0.916  1.2279  0.3194  0.6386
 5168TIP3   OH215467   3.758   0.826   1.249 -0.0425 -0.1743  0.3413
 5168TIP3    H115468   3.700   0.867   1.185  0.6982  2.2738  1.0921
 5168TIP3    H215469   3.754   0.885   1.325 -0.1867 -2.4674  2.2142
 5169TIP3   OH215470   5.410   3.394   5.258 -0.1327 -0.2019  0.6781
 5169TIP3    H115471   5.469   3.466   5.282 -1.2869  0.6599  1.0281
 5169TIP3    H215472   5.468   3.323   5.230  1.0211  1.4002 -1.2568
 5170TIP3   OH215473   3.986   0.581   4.282 -0.0161  0.0200 -0.0026
 5170TIP3    H115474   4.079   0.559   4.289 -0.2332 -0.6321  1.2021
 5170TIP3    H215475   3.982   0.652   4.218  1.6203  1.9530  1.8747
 5171TIP3   OH215476   2.121   5.895   5.078  0.0770  0.2108  0.1885
 5171TIP3    H115477   2.173   5.871   5.001  0.8660 -1.5451  1.2065
 5171TIP3    H215478   2.178   5.878   5.152 -0.8424  1.3908  1.2076
 5172TIP3   OH215479   5.452   0.094   4.488 -0.2505  0.0414 -0.6485
 5172TIP3    H115480   5.378   0.082   4.429 -0.9872 -0.8220  0.4034
 5172TIP3    H215481   5.420   0.064   4.573  0.3055  2.5372  0.5430
 5173TIP3   OH215482   5.954   4.160   3.381  0.0295 -0.1008 -0.3824
 5173TIP3    H115483   5.922   4.249   3.394  0.8112 -0.0287  1.3672
 5173TIP3    H215484   5.933   4.115   3.464  1.0617 -1.0857 -0.6276
 5174TIP3   OH215485   2.331   3.952   4.134 -0.4898  0.2239  0.1886
 5174TIP3    H115486   2.360   3.867   4.099  0.3734  0.8956 -0.7697
 5174TIP3    H215487   2.239   3.959   4.107 -0.3961 -0.1410 -0.2439
 5175TIP3   OH215488   4.643   1.110   4.801 -0.4759 -0.2155  0.5368
 5175TIP3    H115489   4.561   1.149   4.831  0.5052  2.4142  0.0945
 5175TIP3    H215490   4.699   1.110   4.879  0.5727  2.4194 -0.0913
 5176TIP3   OH215491   2.453   4.114   4.556  0.4881 -0.5572 -0.1402
 5176TIP3    H115492   2.449   4.095   4.650  0.8286 -1.0522 -0.2255
 5176TIP3    H215493   2.525   4.176   4.547 -0.4242  0.5796  0.0964
 5177TIP3   OH215494   1.893   4.504   0.413 -0.2209  0.4743  0.1603
 5177TIP3    H115495   1.808   4.505   0.456 -1.3168 -1.4320 -1.7707
 5177TIP3    H215496   1.929   4.418   0.433  1.0641  1.0780  0.5472
 5178TIP3   OH215497   1.613   5.123   5.400 -0.3356 -0.1927  0.5678
 5178TIP3    H115498   1.582   5.213   5.401  1.3077  0.4072  0.2675
 5178TIP3    H215499   1.683   5.121   5.465  1.4152 -0.5591 -1.2318
 5179TIP3   OH215500   6.800   5.854   2.492  0.4729 -0.2456 -0.5474
 5179TIP3    H115501   6.866   5.823   2.429  1.3305 -1.4136  0.8710
 5179TIP3    H215502   6.809   5.796   2.567 -0.8441  0.8241  0.4908
 5180TIP3   OH215503   0.977   4.900   5.082  0.8451 -0.0172 -0.0548
 5180TIP3    H115504   0.943   4.974   5.032  0.7928  0.1451  0.2222
 5180TIP3    H215505   0.991   4.832   5.016  2.0125  0.6248 -0.4946
 5181TIP3   OH215506   3.961   6.083   3.698  0.5900 -0.0610  0.7030
 5181TIP3    H115507   3.946   6.004   3.750 -1.3501 -0.5354 -0.4942
 5181TIP3    H215508   4.045   6.067   3.655 -0.4479 -2.2300 -0.7172
 5182TIP3   OH215509   2.896   2.699   0.362  0.2925  0.0114 -0.0038
 5182TIP3    H115510   2.921   2.648   0.439  0.1217 -0.5660 -0.3214
 5182TIP3    H215511   2.974   2.749   0.340 -0.0463  1.1476  1.2820
 5183TIP3   OH215512   6.634   2.910   0.746 -0.1580  0.2745  0.0272
 5183TIP3    H115513   6.724   2.890   0.768  0.7462  0.7129 -2.8936
 5183TIP3    H215514   6.602   2.832   0.701 -0.9324  0.4782  0.2087
 5184TIP3   OH215515   6.539   5.333   0.576 -0.4610  0.3166 -0.2532
 5184TIP3    H115516   6.595   5.383   0.636 -0.6531  0.3420 -0.0915
 5184TIP3    H215517   6.600   5.286   0.519  0.0170 -3.4862  2.9040
 5185TIP3   OH215518   5.478   1.605   3.812 -0.1498  0.0565 -0.2959
 5185TIP3    H115519   5.480   1.509   3.803 -0.7455  0.2046 -2.3201
 5185TIP3    H215520   5.489   1.638   3.723  1.2289  1.9181  0.5040
 5186TIP3   OH215521   3.287   3.647   4.432 -0.1239 -0.3299 -0.5083
 5186TIP3    H115522   3.296   3.588   4.357  0.5572 -0.2877 -0.4668
 5186TIP3    H215523   3.288   3.735   4.394  0.9253 -0.2802 -0.4087
 5187TIP3   OH215524   6.651   0.377   1.861 -0.3452 -0.1790  0.4808
 5187TIP3    H115525   6.736   0.415   1.844 -0.9768  0.3583 -1.8749
 5187TIP3    H215526   6.643   0.306   1.796 -1.1503 -1.1216  1.5653
 5188TIP3   OH215527   4.702   4.948   5.778  0.4099  0.3335 -0.3212
 5188TIP3    H115528   4.640   5.013   5.809 -0.1182 -0.4022  0.2020
 5188TIP3    H215529   4.773   4.999   5.740  0.0282  1.2126  0.1143
 5189TIP3   OH215530   6.970   6.144   4.263  0.2920  0.3872  0.6672
 5189TIP3    H115531   6.900   6.084   4.238  1.9921 -1.2637 -0.4151
 5189TIP3    H215532   7.042   6.123   4.204  1.6051  2.2446  1.5117
 5190TIP3   OH215533   0.314   4.414   5.210  0.0484 -0.2162  0.6583
 5190TIP3    H115534   0.298   4.478   5.279  0.7032 -0.2151  0.8114
 5190TIP3    H215535   0.307   4.464   5.128 -2.0728 -0.4789  0.6310
 5191TIP3   OH215536   1.215   5.785   4.355  0.1519  0.2886  0.4722
 5191TIP3    H115537   1.213   5.751   4.445  1.6059 -0.6241  0.2002
 5191TIP3    H215538   1.280   5.730   4.311 -0.2563  0.9841 -1.0394
 5192TIP3   OH215539   3.824   2.131   1.233 -0.5036 -0.5883 -0.0387
 5192TIP3    H115540   3.844   2.173   1.317 -0.0033  0.1478 -0.5093
 5192TIP3    H215541   3.731   2.110   1.238 -0.3324 -1.1623  0.9560
 5193TIP3   OH215542   2.883   4.935   4.193 -0.1764  0.5323  0.1256
 5193TIP3    H115543   2.904   5.029   4.191 -0.7997  0.7137  1.5046
 5193TIP3    H215544   2.947   4.896   4.133  1.7165  1.5439  1.3592
 5194TIP3   OH215545   3.597   3.942   4.596  0.2003 -0.1252 -0.4191
 5194TIP3    H115546   3.689   3.939   4.623  0.8686 -1.7509 -2.6506
 5194TIP3    H215547   3.598   3.983   4.510 -1.1217 -0.5855 -0.6729
 5195TIP3   OH215548   5.420   5.671   3.264 -0.4293 -0.4469 -0.7351
 5195TIP3    H115549   5.347   5.627   3.220 -2.0798 -0.3328  1.6805
 5195TIP3    H215550   5.409   5.648   3.357  1.8394  0.6957 -0.1244
 5196TIP3   OH215551   3.205   4.998   2.500  0.3206  0.1890 -0.0685
 5196TIP3    H115552   3.129   4.951   2.467  0.5992  0.3493 -0.9494
 5196TIP3    H215553   3.276   4.974   2.442  0.2844  2.3698 -1.1184
 5197TIP3   OH215554   5.569   1.486   1.815  0.4759 -0.1581  0.5520
 5197TIP3    H115555   5.490   1.498   1.761  1.4527 -1.3535 -1.2276
 5197TIP3    H215556   5.535   1.454   1.899 -0.9122 -1.5002 -0.4577
 5198TIP3   OH215557   0.877   0.171   0.256  0.7650 -0.1838 -0.2062
 5198TIP3    H115558   0.916   0.106   0.314  1.6042  0.9627  0.5779
 5198TIP3    H215559   0.817   0.122   0.200  2.4320 -1.8530 -0.6318
 5199TIP3   OH215560   4.475   6.081   3.125  0.3324 -0.0781  0.6173
 5199TIP3    H115561   4.485   6.161   3.073  1.2282 -1.3610 -1.3231
 5199TIP3    H215562   4.405   6.032   3.080 -0.4124 -0.2990  1.9448
 5200TIP3   OH215563   4.320   5.027   4.515  0.1520  0.1726  0.0664
 5200TIP3    H115564   4.235   4.987   4.497  0.4800 -0.9209  0.8340
 5200TIP3    H215565   4.303   5.121   4.516 -0.3010  0.3039 -3.8162
 5201TIP3   OH215566   4.575   2.045   4.184 -0.2591  0.2330  0.2273
 5201TIP3    H115567   4.665   2.041   4.153 -0.5723  1.3189 -0.9125
 5201TIP3    H215568   4.523   2.062   4.105 -1.4476 -0.2179  0.8829
 5202TIP3   OH215569   2.711   6.666   3.135 -0.3474  0.7355 -0.6801
 5202TIP3    H115570   2.745   6.702   3.217  1.7829  0.4545 -1.3987
 5202TIP3    H215571   2.636   6.723   3.114 -0.6882  1.0744  1.2088
 5203TIP3   OH215572   0.438   4.490   2.336  0.1122  0.6554  0.0222
 5203TIP3    H115573   0.500   4.425   2.370 -0.2915  0.4106  0.3179
 5203TIP3    H215574   0.405   4.452   2.255  0.1236  0.6390  0.0252
 5204TIP3   OH215575   5.457   0.862   0.381  0.1830 -0.2178  0.0912
 5204TIP3    H115576   5.466   0.863   0.476 -0.6073  1.7894  0.2018
 5204TIP3    H215577   5.532   0.813   0.350  2.2856  1.7838  1.6407
 5205TIP3   OH215578   0.059   0.592   2.998 -0.1674 -0.0049 -0.1370
 5205TIP3    H115579   0.080   0.559   3.086 -1.6490  0.6357  0.4912
 5205TIP3    H215580   0.028   0.681   3.013  2.7624  1.4309 -1.6957
 5206TIP3   OH215581   0.349   6.250   4.129  0.2366 -0.3093 -0.5690
 5206TIP3    H115582   0.323   6.196   4.055  0.7261 -1.2363 -0.0973
 5206TIP3    H215583   0.329   6.195   4.206  0.0301  0.5014 -0.0362
 5207TIP3   OH215584   4.929   3.836   2.201 -0.4920  0.6860 -1.1888
 5207TIP3    H115585   4.876   3.805   2.275  2.1891  0.2312  0.6794
 5207TIP3    H215586   4.916   3.931   2.202 -0.8907  0.6376 -0.4545
 5208TIP3   OH215587   1.156   2.014   0.532  0.0311 -0.4778 -0.4185
 5208TIP3    H115588   1.154   1.972   0.618  0.8883 -0.4634 -0.3833
 5208TIP3    H215589   1.238   2.063   0.531 -0.6220  0.6676 -0.7159
 5209TIP3   OH215590   4.363   4.926   1.909  0.0573 -0.2823 -0.6135
 5209TIP3    H115591   4.285   4.945   1.961 -0.0083  0.1209 -0.8564
 5209TIP3    H215592   4.398   4.846   1.947 -0.3007 -0.2933 -0.3019
 5210TIP3   OH215593   4.564   5.775   2.729  0.1757 -0.0911  1.0127
 5210TIP3    H115594   4.627   5.846   2.717 -0.1075 -0.0465 -0.3952
 5210TIP3    H215595   4.480   5.813   2.701 -0.2079 -0.5944  1.4666
 5211TIP3   OH215596   2.827   2.919   3.631  0.4319 -0.3348  0.2997
 5211TIP3    H115597   2.861   2.908   3.720 -0.7103  0.1217  0.7972
 5211TIP3    H215598   2.734   2.935   3.642 -0.0571 -1.9270 -1.0702
 5212TIP3   OH215599   1.619   2.602   3.864  0.2770 -0.4908  0.3540
 5212TIP3    H115600   1.659   2.654   3.934 -2.4000  1.1952  0.7735
 5212TIP3    H215601   1.693   2.567   3.814  2.2736 -0.5908  3.1437
 5213TIP3   OH215602   6.535   2.173   2.219  0.2356  0.3505  0.2058
 5213TIP3    H115603   6.624   2.203   2.239  0.7023 -0.4012 -0.6639
 5213TIP3    H215604   6.547   2.085   2.184 -0.5214  1.3022 -2.7399
 5214TIP3   OH215605   4.855   0.907   1.356  0.1903  0.0070  0.1393
 5214TIP3    H115606   4.847   0.920   1.262 -0.1881  1.2646  0.3282
 5214TIP3    H215607   4.767   0.920   1.390  0.4706  0.3894  0.7503
 5215TIP3   OH215608   5.281   3.845   5.489  0.7818  0.5568 -0.6013
 5215TIP3    H115609   5.338   3.916   5.516 -0.8757  1.7785 -0.1545
 5215TIP3    H215610   5.195   3.885   5.480 -0.1602 -1.3415 -0.5931
 5216TIP3   OH215611   6.243   3.297   4.077  0.0851  0.3262  0.5153
 5216TIP3    H115612   6.222   3.322   3.987  1.1448  1.4455  0.5524
 5216TIP3    H215613   6.245   3.201   4.075 -1.2459  0.2871 -0.3225
 5217TIP3   OH215614   7.050   0.306   4.898 -0.1071 -0.0684 -0.2052
 5217TIP3    H115615   6.998   0.314   4.818 -0.1509 -0.5664 -0.2269
 5217TIP3    H215616   6.985   0.307   4.968 -0.0204  1.2341 -0.1102
 5218TIP3   OH215617   6.617   1.855   4.327  0.0446  0.9085 -0.7718
 5218TIP3    H115618   6.660   1.799   4.391 -0.5587  1.9663  0.6101
 5218TIP3    H215619   6.679   1.927   4.313  0.2315  0.6164 -1.5022
 5219TIP3   OH215620   0.813   6.622   1.140  0.2066  0.0142 -0.3079
 5219TIP3    H115621   0.858   6.652   1.062 -0.0779 -0.1302 -0.5283
 5219TIP3    H215622   0.870   6.554   1.177 -0.1311 -0.6160 -0.9327
 5220TIP3   OH215623   6.145   2.738   3.112 -0.4440 -0.2800  0.0690
 5220TIP3    H115624   6.209   2.808   3.126 -0.7852  0.1789 -0.6280
 5220TIP3    H215625   6.132   2.700   3.199 -0.0875  0.3720  0.4190
 5221TIP3   OH215626   0.384   3.182   2.263 -0.4135 -0.1711  0.0673
 5221TIP3    H115627   0.358   3.230   2.342  0.1094 -2.4999  1.7535
 5221TIP3    H215628   0.341   3.229   2.192 -1.2458  1.7934  1.7419
 5222TIP3   OH215629   2.340   6.201   2.026 -0.2360 -0.0694 -0.5062
 5222TIP3    H115630   2.435   6.204   2.033 -0.0858 -0.1573 -2.1488
 5222TIP3    H215631   2.318   6.110   2.048 -0.1964  0.4581  2.0200
 5223TIP3   OH215632   2.375   6.682   5.594  0.2699  0.5000 -0.1810
 5223TIP3    H115633   2.348   6.710   5.682 -0.3444  0.5884 -0.3920
 5223TIP3    H215634   2.444   6.618   5.610  1.3273  1.7164  0.3260
 5224TIP3   OH215635   3.211   5.656   0.579  0.8173 -0.3014  0.3698
 5224TIP3    H115636   3.201   5.677   0.672 -0.1985  0.5477  0.0930
 5224TIP3    H215637   3.218   5.742   0.536 -0.2273 -0.6166 -0.4769
 5225TIP3   OH215638   5.877   5.708   4.665  0.1653  0.0158  1.0792
 5225TIP3    H115639   5.920   5.705   4.580 -0.2836  0.0203  0.8533
 5225TIP3    H215640   5.879   5.801   4.690 -0.0291  0.0640  0.9105
 5226TIP3   OH215641   2.612   3.510   4.543  0.2898 -0.2853  0.1538
 5226TIP3    H115642   2.672   3.567   4.496 -0.4860 -0.2419 -0.8050
 5226TIP3    H215643   2.644   3.512   4.633  0.8192  0.9263 -0.0361
 5227TIP3   OH215644   2.973   5.408   3.969 -0.7942 -0.1887 -0.1088
 5227TIP3    H115645   2.928   5.484   4.006 -1.1472 -0.3278 -0.2450
 5227TIP3    H215646   2.931   5.395   3.884 -0.7468 -0.5444 -0.0797
 5228TIP3   OH215647   2.306   3.106   5.295 -0.4273  0.0228  0.4489
 5228TIP3    H115648   2.391   3.085   5.334 -0.7926 -3.5976 -0.3964
 5228TIP3    H215649   2.278   3.025   5.253 -3.8852  1.3599 -0.1421
 5229TIP3   OH215650   5.420   2.409   4.091  0.9254  0.2337 -0.8160
 5229TIP3    H115651   5.335   2.435   4.128  1.1654 -0.1014 -0.0149
 5229TIP3    H215652   5.479   2.480   4.115  1.6291 -1.0203  1.5430
 5230TIP3   OH215653   2.461   3.502   1.892  0.2299 -0.0042 -0.3044
 5230TIP3    H115654   2.438   3.437   1.958  0.9078  1.5202  1.5335
 5230TIP3    H215655   2.535   3.464   1.844 -1.1940 -1.7494 -1.2510
 5231TIP3   OH215656   1.883   1.053   3.549  0.4152  0.3808  0.0890
 5231TIP3    H115657   1.883   1.012   3.462  0.3919  1.7079 -0.5668
 5231TIP3    H215658   1.792   1.045   3.579  0.6102 -0.8956  0.4249
 5232TIP3   OH215659   4.198   2.149   1.053 -0.1011 -0.1995  0.1094
 5232TIP3    H115660   4.198   2.232   1.005 -1.3570 -1.5765 -2.5095
 5232TIP3    H215661   4.291   2.128   1.064  0.2311  1.2474  0.3173
 5233TIP3   OH215662   0.972   1.451   0.822  0.4229  0.7178 -0.3411
 5233TIP3    H115663   0.963   1.506   0.744  1.1630  0.6390 -0.4919
 5233TIP3    H215664   1.022   1.375   0.792 -1.3558 -0.5002 -0.3472
 5234TIP3   OH215665   2.518   0.640   3.248  0.0875 -0.3890 -0.0060
 5234TIP3    H115666   2.531   0.557   3.202  0.8403  0.4046 -1.2618
 5234TIP3    H215667   2.525   0.707   3.181  1.7548  0.8505  1.3268
 5235TIP3   OH215668   2.398   5.103   2.244  0.3071 -0.1110  0.6190
 5235TIP3    H115669   2.321   5.158   2.228 -0.7949 -2.0224 -0.9505
 5235TIP3    H215670   2.391   5.079   2.336  0.4785  1.7801  1.1789
 5236TIP3   OH215671   2.063   2.665   5.353 -0.8121 -0.3633  0.8108
 5236TIP3    H115672   2.078   2.747   5.400  1.4973 -0.3709  0.2199
 5236TIP3    H215673   2.073   2.597   5.420 -1.4103 -0.2249  1.0446
 5237TIP3   OH215674   7.057   0.911   1.748  0.7624  0.1258  0.3762
 5237TIP3    H115675   6.976   0.865   1.726  1.0759 -0.2098 -0.0960
 5237TIP3    H215676   7.127   0.849   1.727  1.2637  1.2171 -1.4921
 5238TIP3   OH215677   2.682   4.213   3.684  0.8979  0.1273  0.3167
 5238TIP3    H115678   2.637   4.220   3.767  1.2619 -0.7486  0.5999
 5238TIP3    H215679   2.641   4.279   3.628  1.6832  1.8282  1.6400
 5239TIP3   OH215680   6.688   5.606   3.754 -0.5433 -0.4561 -0.3566
 5239TIP3    H115681   6.776   5.570   3.768  0.4655  1.8356 -0.3815
 5239TIP3    H215682   6.679   5.609   3.659  0.7458  2.2615 -0.4801
 5240TIP3   OH215683   6.338   5.970   4.417  0.3115 -0.1461  0.8198
 5240TIP3    H115684   6.296   6.054   4.401 -0.8021 -0.7002  0.7107
 5240TIP3    H215685   6.286   5.930   4.487 -0.6938 -1.7466 -0.7603
 5241TIP3   OH215686   1.636   4.758   4.991  0.7339 -0.4212  0.3842
 5241TIP3    H115687   1.683   4.797   5.065  0.4877 -0.2225  0.4336
 5241TIP3    H215688   1.544   4.762   5.016  0.6809 -0.7351  0.2466
 5242TIP3   OH215689   2.342   3.532   2.290  0.2413 -0.0868 -0.4832
 5242TIP3    H115690   2.420   3.569   2.250 -0.3187  0.4455 -1.1088
 5242TIP3    H215691   2.321   3.592   2.362  0.7439 -0.5642  0.0781
 5243TIP3   OH215692   0.759   2.673   0.251  0.2571 -0.7398 -0.2179
 5243TIP3    H115693   0.781   2.750   0.304 -1.2358  0.0508 -0.7105
 5243TIP3    H215694   0.833   2.665   0.190 -0.0167  0.9008 -0.8097
 5244TIP3   OH215695   5.322   1.529   0.799 -0.2583 -0.3226  0.0695
 5244TIP3    H115696   5.395   1.482   0.759 -0.4878 -1.0374  0.4782
 5244TIP3    H215697   5.274   1.463   0.848 -0.5997  0.3358  0.6485
 5245TIP3   OH215698   6.212   2.375   0.449  0.1837  0.9748  0.0552
 5245TIP3    H115699   6.281   2.399   0.387 -0.2776  0.1441 -0.8032
 5245TIP3    H215700   6.206   2.451   0.508  2.0704  0.9191  0.3925
 5246TIP3   OH215701   2.836   5.457   2.998 -0.5201 -0.2066 -0.0370
 5246TIP3    H115702   2.787   5.531   3.034  0.3942  0.9249 -1.0396
 5246TIP3    H215703   2.926   5.490   2.989 -0.4317 -0.8697 -2.0716
 5247TIP3   OH215704   5.836   2.677   3.727  0.1960  0.4065 -0.5308
 5247TIP3    H115705   5.761   2.624   3.753 -1.4472  3.0395  0.5566
 5247TIP3    H215706   5.895   2.675   3.802  0.5377 -0.4659 -0.8081
 5248TIP3   OH215707   1.538   2.487   0.386 -0.3606  0.7789  0.6348
 5248TIP3    H115708   1.475   2.428   0.344  0.3530  0.4487  0.0025
 5248TIP3    H215709   1.524   2.474   0.480 -0.8366  0.2736  0.4996
 5249TIP3   OH215710   7.162   4.786   0.888 -0.5789  0.4481 -0.4895
 5249TIP3    H115711   7.250   4.748   0.890 -0.7632  0.0160 -0.4658
 5249TIP3    H215712   7.128   4.763   0.802 -0.9706 -0.0878 -0.1976
 5250TIP3   OH215713   2.338   0.592   2.974  0.2851 -0.1194 -0.0551
 5250TIP3    H115714   2.411   0.652   2.993  1.5132 -1.7969  0.8358
 5250TIP3    H215715   2.376   0.526   2.917 -1.6254  1.0531 -2.8925
 5251TIP3   OH215716   4.541   0.273   1.265  0.0658 -0.0115  0.6630
 5251TIP3    H115717   4.458   0.238   1.296 -0.6000 -0.3078 -1.3380
 5251TIP3    H215718   4.520   0.360   1.231 -0.1543 -1.2685 -2.7662
 5252TIP3   OH215719   2.080   2.877   1.440 -0.0935  0.0086 -0.6832
 5252TIP3    H115720   2.166   2.902   1.474 -1.0268  2.2146  0.3033
 5252TIP3    H215721   2.036   2.961   1.425 -2.2562 -1.0704 -0.6613
 5253TIP3   OH215722   0.132   1.595   2.732  0.2728  0.2541 -0.0989
 5253TIP3    H115723   0.195   1.632   2.670  1.3679 -1.0154  0.2059
 5253TIP3    H215724   0.124   1.503   2.705  0.1435 -0.1079  1.1441
 5254TIP3   OH215725   2.354   4.534   2.546  0.5007  0.2703 -0.3942
 5254TIP3    H115726   2.383   4.597   2.612  0.7288 -0.4039  0.1562
 5254TIP3    H215727   2.399   4.562   2.466 -0.2129  1.4254 -0.4161
 5255TIP3   OH215728   3.645   1.690   4.045  0.4210  0.0545  0.0670
 5255TIP3    H115729   3.640   1.622   4.112  0.1787 -0.6273 -0.6243
 5255TIP3    H215730   3.629   1.772   4.092  0.6065 -0.3783  0.8903
 5256TIP3   OH215731   1.040   3.083   0.987  0.4982  0.3150  0.0850
 5256TIP3    H115732   1.108   3.098   1.052  0.8888 -0.2465 -0.1827
 5256TIP3    H215733   1.029   2.987   0.986 -2.1869  0.4680  2.0613
 5257TIP3   OH215734   2.153   3.271   3.314  0.7343  0.4778  0.0810
 5257TIP3    H115735   2.160   3.175   3.309  0.7240  0.4809 -0.0015
 5257TIP3    H215736   2.059   3.287   3.328  1.0200  0.3921  2.3596
 5258TIP3   OH215737   2.341   1.499   2.783 -0.1966  0.2744  0.1961
 5258TIP3    H115738   2.289   1.496   2.863 -2.7176  1.0324 -1.2650
 5258TIP3    H215739   2.334   1.590   2.753  0.1936 -0.1026 -1.1471
 5259TIP3   OH215740   2.772   3.830   1.321  0.6720 -0.0388  0.4883
 5259TIP3    H115741   2.794   3.782   1.241  1.5442 -0.5844  1.0281
 5259TIP3    H215742   2.820   3.912   1.314  0.7175 -0.0703  0.4325
 5260TIP3   OH215743   6.489   5.363   5.269 -0.0861  0.0719  0.2742
 5260TIP3    H115744   6.423   5.368   5.200  0.9833 -1.7785 -0.9863
 5260TIP3    H215745   6.501   5.269   5.283  1.0158  0.3981  1.7158
 5261TIP3   OH215746   5.872   4.901   2.507 -0.4925 -0.4672  0.2623
 5261TIP3    H115747   5.814   4.978   2.503  0.3543  0.4875  3.2970
 5261TIP3    H215748   5.920   4.903   2.424 -1.1361  1.7822 -0.1370
 5262TIP3   OH215749   6.089   4.991   3.097  0.1838  0.0599  1.1008
 5262TIP3    H115750   6.148   5.059   3.064 -0.3117  0.0992  0.2462
 5262TIP3    H215751   6.079   5.010   3.190  1.1553  0.3192  1.1572
 5263TIP3   OH215752   3.699   5.452   2.077  0.1240  0.3110  0.0168
 5263TIP3    H115753   3.734   5.400   2.150 -0.0172  0.8046  0.4370
 5263TIP3    H215754   3.651   5.524   2.119 -0.8075  0.0431 -0.5489
 5264TIP3   OH215755   0.219   4.185   3.306  0.8222 -0.3875 -0.1937
 5264TIP3    H115756   0.172   4.109   3.273  0.0025  0.6431 -1.4966
 5264TIP3    H215757   0.152   4.251   3.322  1.7011  0.9986 -1.7733
 5265TIP3   OH215758   1.826   6.017   4.146  0.0263 -0.2537 -0.6192
 5265TIP3    H115759   1.822   6.092   4.206 -2.6209 -0.2463 -0.7152
 5265TIP3    H215760   1.848   6.056   4.061  1.0082  0.0758 -0.2360
 5266TIP3   OH215761   5.779   0.471   0.195  0.5647  0.1333 -0.4000
 5266TIP3    H115762   5.838   0.484   0.121  0.5864 -0.7283 -0.5418
 5266TIP3    H215763   5.805   0.386   0.232 -0.1899  0.0255 -0.0949
 5267TIP3   OH215764   3.961   1.492   1.108 -0.1544  0.1949  0.1514
 5267TIP3    H115765   3.878   1.451   1.085 -0.2823 -0.2514  1.3275
 5267TIP3    H215766   3.954   1.507   1.202  1.0482  0.2616  0.2376
 5268TIP3   OH215767   2.009   3.076   3.086 -0.2927 -0.2378  0.5612
 5268TIP3    H115768   1.953   3.006   3.053 -0.3755 -0.0558  0.3087
 5268TIP3    H215769   2.048   3.041   3.166  0.7712 -1.0919 -0.3003
 5269TIP3   OH215770   6.954   6.188   0.500 -0.6468  0.4470  0.1953
 5269TIP3    H115771   6.990   6.178   0.412 -0.7797  0.2239  0.1652
 5269TIP3    H215772   7.001   6.124   0.553 -1.7294 -0.5964 -0.0671
 5270TIP3   OH215773   5.618   2.228   5.515  0.1634  0.4651  0.4953
 5270TIP3    H115774   5.605   2.141   5.478  1.0853  0.3013  0.5224
 5270TIP3    H215775   5.713   2.234   5.528 -0.0863  0.4953  2.8375
 5271TIP3   OH215776   6.114   5.218   5.713 -0.0319  0.2046 -0.0656
 5271TIP3    H115777   6.059   5.244   5.640 -0.4957 -0.9950 -0.1623
 5271TIP3    H215778   6.199   5.199   5.674 -0.0980  0.1896 -0.2016
 5272TIP3   OH215779   6.368   4.256   0.593  0.1899  0.3817 -0.5939
 5272TIP3    H115780   6.275   4.276   0.601 -0.1432 -1.4146  0.3380
 5272TIP3    H215781   6.411   4.324   0.645 -0.7160  0.2718  0.3406
 5273TIP3   OH215782   0.563   6.011   3.243 -0.3294 -0.7675 -0.0332
 5273TIP3    H115783   0.513   5.933   3.266  0.5619 -1.0979  0.8661
 5273TIP3    H215784   0.620   5.983   3.171 -0.5864 -0.7146 -0.2596
 5274TIP3   OH215785   1.646   2.995   5.613  0.7429 -0.5241 -0.3888
 5274TIP3    H115786   1.689   3.028   5.693  0.5979 -1.3411  0.0421
 5274TIP3    H215787   1.585   2.928   5.645 -3.3986  2.7969 -0.5709
 5275TIP3   OH215788   5.772   0.500   1.122 -0.2549 -0.2985 -0.5635
 5275TIP3    H115789   5.862   0.503   1.153  0.1297 -2.1679 -1.3851
 5275TIP3    H215790   5.719   0.494   1.202  0.4693 -1.1208 -0.1378
 5276TIP3   OH215791   5.417   5.620   1.086  0.0156  0.7659  0.5405
 5276TIP3    H115792   5.328   5.614   1.052 -0.3815  2.2540  1.2644
 5276TIP3    H215793   5.441   5.712   1.079  0.8363  0.7049  1.9522
 5277TIP3   OH215794   6.194   5.419   4.432 -0.1591  0.0360 -0.1428
 5277TIP3    H115795   6.177   5.396   4.524 -0.3761  1.1084  0.0893
 5277TIP3    H215796   6.289   5.421   4.425 -0.1385  0.7320  0.2666
 5278TIP3   OH215797   5.082   2.868   5.710  0.2863  0.1064 -0.4040
 5278TIP3    H115798   5.011   2.807   5.696 -0.5877  0.8970  0.4644
 5278TIP3    H215799   5.130   2.868   5.627 -0.6296 -0.5441 -0.9490
 5279TIP3   OH215800   1.467   0.912   4.373  0.3051 -0.1215  0.2913
 5279TIP3    H115801   1.422   0.963   4.305 -0.1300 -0.7729  0.0754
 5279TIP3    H215802   1.449   0.959   4.454  1.2498  0.9446 -0.0967
 5280TIP3   OH215803   6.844   1.797   1.820 -0.2681  0.3608  0.0458
 5280TIP3    H115804   6.809   1.797   1.731  1.3232  0.6751 -0.6122
 5280TIP3    H215805   6.909   1.727   1.820 -0.8826 -0.2421  1.2525
 5281TIP3   OH215806   1.583   5.943   4.317  0.1135  0.0676  0.0161
 5281TIP3    H115807   1.580   5.925   4.411  0.1982  1.2903  0.2638
 5281TIP3    H215808   1.540   6.028   4.307  2.3824  1.1995 -0.7178
 5282TIP3   OH215809   5.544   3.482   0.050  0.4941  0.4176  0.3013
 5282TIP3    H115810   5.605   3.500   0.122  1.7698 -1.6740 -0.1910
 5282TIP3    H215811   5.599   3.471  -0.027 -0.5877 -0.5938 -0.3606
 5283TIP3   OH215812   3.684  -0.001   3.433 -0.9749  0.1196  0.5717
 5283TIP3    H115813   3.672   0.093   3.438  0.1262  0.2341  1.5009
 5283TIP3    H215814   3.690  -0.030   3.525  0.4099 -0.5901  0.2962
 5284TIP3   OH215815   6.800   1.610   5.574 -0.1171  0.0339 -0.3991
 5284TIP3    H115816   6.824   1.584   5.663  1.5048  0.2116 -0.7565
 5284TIP3    H215817   6.709   1.637   5.581  0.7478  2.9376  1.8606
 5285TIP3   OH215818   7.146   3.027   4.381  0.1397  0.2316 -0.4134
 5285TIP3    H115819   7.204   2.957   4.412 -0.5874 -0.0945  0.2405
 5285TIP3    H215820   7.118   2.998   4.293  0.4982  0.1064 -0.4874
 5286TIP3   OH215821   4.030   1.961   1.151 -0.3802 -0.8843 -0.2299
 5286TIP3    H115822   3.965   2.030   1.168 -1.3493 -1.6592 -0.6983
 5286TIP3    H215823   4.100   2.006   1.105 -0.0162  0.2155  1.3124
 5287TIP3   OH215824   0.878   4.531   5.016  0.0871  0.4592 -0.0513
 5287TIP3    H115825   0.826   4.597   4.972 -0.0025  1.1255  1.0247
 5287TIP3    H215826   0.823   4.501   5.089  0.9507  0.7336  0.7324
 5288TIP3   OH215827   4.711   2.579   3.258  0.3188 -0.1798 -0.2452
 5288TIP3    H115828   4.804   2.567   3.244  0.0996 -0.0951 -1.9591
 5288TIP3    H215829   4.673   2.585   3.170 -0.9269  2.6859  0.3449
 5289TIP3   OH215830   5.899   3.636   0.060 -0.0813  0.3553  0.0956
 5289TIP3    H115831   5.988   3.650   0.091  0.4306 -0.0582 -1.1123
 5289TIP3    H215832   5.893   3.687  -0.020 -1.1612  0.8982  0.5004
 5290TIP3   OH215833   1.804   6.063   3.231 -0.5035  0.2192 -0.0029
 5290TIP3    H115834   1.845   6.096   3.311  0.2087 -1.8691  0.5724
 5290TIP3    H215835   1.860   5.991   3.204 -2.2883 -0.9457 -0.7629
 5291TIP3   OH215836   7.194   6.593   4.713  0.1154  0.0134  0.5775
 5291TIP3    H115837   7.226   6.533   4.646 -1.1013 -0.5111  0.4437
 5291TIP3    H215838   7.105   6.613   4.687  0.5789  2.1669  0.4468
 5292TIP3   OH215839   6.216   4.561   5.337 -0.0498  0.0082  0.5039
 5292TIP3    H115840   6.308   4.586   5.327  0.5776 -2.1475  0.4938
 5292TIP3    H215841   6.168   4.627   5.287  1.6967 -0.3692 -1.8368
 5293TIP3   OH215842   4.987   5.432   0.574  0.0126 -0.7532  0.5434
 5293TIP3    H115843   4.952   5.488   0.644  0.8381  1.4525 -0.6922
 5293TIP3    H215844   4.957   5.474   0.493 -0.2436 -2.7812 -0.4727
 5294TIP3   OH215845   7.155   4.415   0.041 -0.1281  0.4239 -0.0340
 5294TIP3    H115846   7.085   4.389   0.100 -1.6301  0.7433 -1.6023
 5294TIP3    H215847   7.164   4.509   0.053 -0.5981  0.5279 -0.4570
 5295TIP3   OH215848   4.192   5.120   3.481 -0.1697  0.5243  0.0460
 5295TIP3    H115849   4.282   5.152   3.475 -0.2608  0.6633 -0.6177
 5295TIP3    H215850   4.141   5.197   3.508  0.0349  0.2262  1.3601
 5296TIP3   OH215851   5.207   5.477   3.111 -0.2002  0.3466 -0.2188
 5296TIP3    H115852   5.165   5.434   3.185 -0.2110 -1.2002 -1.0851
 5296TIP3    H215853   5.137   5.490   3.048  0.0902  0.2446 -0.5688
 5297TIP3   OH215854   1.177   3.835   4.063 -0.2446 -0.4551  0.3646
 5297TIP3    H115855   1.189   3.926   4.034 -0.7531 -1.0849 -2.0979
 5297TIP3    H215856   1.123   3.841   4.141  0.1658  1.3780  0.5442
 5298TIP3   OH215857   0.643   2.431   4.196 -0.3860 -0.6372  0.1034
 5298TIP3    H115858   0.689   2.513   4.215 -0.8773 -0.3098 -0.0828
 5298TIP3    H215859   0.552   2.458   4.182 -0.2661 -0.9954 -1.5304
 5299TIP3   OH215860   2.526   5.527   3.911 -0.5470 -0.0355 -0.2384
 5299TIP3    H115861   2.563   5.454   3.960  0.0056  1.0039  0.9645
 5299TIP3    H215862   2.602   5.573   3.876 -0.8813  0.0165 -0.9065
 5300TIP3   OH215863   6.061   3.080   2.286 -0.6351 -0.1444 -0.4176
 5300TIP3    H115864   6.023   2.996   2.262 -0.7470 -0.5721  1.1743
 5300TIP3    H215865   5.998   3.119   2.347  0.5288 -0.0197  0.7585
 5301TIP3   OH215866   6.056   6.695   4.087 -0.2432 -0.5702 -0.0922
 5301TIP3    H115867   6.050   6.789   4.074  0.3159 -0.4389  0.5126
 5301TIP3    H215868   6.063   6.658   3.999 -0.4670 -0.0496 -0.3302
 5302TIP3   OH215869   3.285   6.700   2.184 -0.1781 -0.1013 -0.6116
 5302TIP3    H115870   3.322   6.760   2.120  2.0517  2.1439  2.5077
 5302TIP3    H215871   3.353   6.634   2.197  0.6686  1.0796  1.3703
 5303TIP3   OH215872   3.375   3.540  -0.001  0.0683 -0.0761 -0.2210
 5303TIP3    H115873   3.326   3.560   0.078 -0.1991  0.5245 -0.5265
 5303TIP3    H215874   3.307   3.527  -0.068  0.3063  0.9150 -0.6814
 5304TIP3   OH215875   1.715   0.240   0.608 -0.1493 -0.3859  0.4644
 5304TIP3    H115876   1.715   0.220   0.701 -0.1016  3.1587  1.3636
 5304TIP3    H215877   1.642   0.301   0.596  0.0879 -0.4348 -1.7596
 5305TIP3   OH215878   3.674   4.255   2.394  0.4705 -0.4315  0.2823
 5305TIP3    H115879   3.627   4.239   2.312  0.7015  0.1891  0.0221
 5305TIP3    H215880   3.766   4.243   2.372  0.5428 -0.1371  0.4126
 5306TIP3   OH215881   5.788   2.630   3.200 -0.2973  0.2320  0.0040
 5306TIP3    H115882   5.818   2.569   3.133 -1.7965 -1.6647  0.9713
 5306TIP3    H215883   5.865   2.646   3.254  0.7261  1.1671 -1.6307
 5307TIP3   OH215884   1.420   4.496   2.622  0.2878  0.5384  0.0814
 5307TIP3    H115885   1.497   4.441   2.635  0.2642 -0.1335 -2.2181
 5307TIP3    H215886   1.358   4.441   2.574 -0.8794  1.6743  0.2319
 5308TIP3   OH215887   4.121   1.534   5.620  0.4951  0.2103  0.0296
 5308TIP3    H115888   4.099   1.517   5.712  0.4621  0.4117  0.0593
 5308TIP3    H215889   4.135   1.629   5.616  0.1472  0.2508 -0.2483
 5309TIP3   OH215890   2.736   4.264   1.646  0.1403 -0.4193  0.2241
 5309TIP3    H115891   2.655   4.305   1.675 -0.1374 -0.1407 -0.9170
 5309TIP3    H215892   2.805   4.322   1.678 -0.0418 -0.9579  1.7078
 5310TIP3   OH215893   7.040   1.055   4.569 -0.2788  0.2804 -0.5438
 5310TIP3    H115894   6.987   1.119   4.615 -0.0667  0.0049  0.0950
 5310TIP3    H215895   7.123   1.099   4.552 -0.2593  0.2908 -0.4190
 5311TIP3   OH215896   5.308   0.999   3.228  0.0665  0.4773 -0.6295
 5311TIP3    H115897   5.381   0.964   3.279  0.7806  1.7686 -0.7215
 5311TIP3    H215898   5.238   0.935   3.240  1.7952 -1.8688 -2.1570
 5312TIP3   OH215899   4.420   1.670   4.530  0.4582 -0.3153 -0.1947
 5312TIP3    H115900   4.338   1.637   4.567  0.9616 -0.1612  1.1360
 5312TIP3    H215901   4.408   1.765   4.525  0.6188 -0.2690  0.2119
 5313TIP3   OH215902   5.076   4.408   2.130 -0.2109  0.3046 -0.4142
 5313TIP3    H115903   4.995   4.455   2.111 -0.4774 -0.2230 -0.5910
 5313TIP3    H215904   5.083   4.342   2.061  1.1098  1.2532 -1.2316
 5314TIP3   OH215905   5.426   4.699   3.561  0.4237 -0.2880  0.2916
 5314TIP3    H115906   5.345   4.658   3.591  0.0812  0.2829  0.1641
 5314TIP3    H215907   5.491   4.629   3.565 -0.1350 -0.8270  0.1188
 5315TIP3   OH215908   6.735   3.603   2.708 -0.2391  0.5519  0.7028
 5315TIP3    H115909   6.762   3.695   2.709  1.8802 -0.0358  0.8727
 5315TIP3    H215910   6.711   3.585   2.799 -0.4443  0.8722  0.7150
 5316TIP3   OH215911   5.489   6.049   3.049 -0.1480  0.1145 -0.0024
 5316TIP3    H115912   5.551   5.977   3.064  0.1483  0.1694 -0.9246
 5316TIP3    H215913   5.417   6.009   3.000  0.0192  0.4395 -0.5224
 5317TIP3   OH215914   5.842   4.032   1.747  0.6240 -0.0963  0.1711
 5317TIP3    H115915   5.858   4.031   1.653  0.5497  0.7828  0.1471
 5317TIP3    H215916   5.899   4.100   1.781  1.7041 -1.3495  0.9788
 5318TIP3   OH215917   5.552   2.755   3.053 -0.0078  0.0241 -0.1347
 5318TIP3    H115918   5.511   2.825   3.105 -1.5934 -0.3077 -0.8771
 5318TIP3    H215919   5.605   2.707   3.116  1.1805  1.8981  0.3926
 5319TIP3   OH215920   5.744   5.460   3.934 -0.5497 -0.0558 -0.5187
 5319TIP3    H115921   5.772   5.387   3.988 -1.1656 -0.0140 -0.1337
 5319TIP3    H215922   5.781   5.537   3.976  0.8187 -0.1985 -1.3998
 5320TIP3   OH215923   3.410   5.219   1.709 -0.4925  0.0688  0.4258
 5320TIP3    H115924   3.447   5.136   1.739 -0.7285  0.2416  1.2130
 5320TIP3    H215925   3.318   5.199   1.691 -0.2064 -0.1950 -0.8671
 5321TIP3   OH215926   0.997   3.311   3.738  0.9416 -0.3275  0.0512
 5321TIP3    H115927   1.050   3.355   3.805  0.8841 -0.0914 -0.0568
 5321TIP3    H215928   0.934   3.259   3.788  0.4398  0.3943  0.1951
 5322TIP3   OH215929   6.219   0.005   1.202  0.0300  0.5570  0.3350
 5322TIP3    H115930   6.261   0.014   1.288  0.2146 -1.9500  0.5743
 5322TIP3    H215931   6.292  -0.006   1.141 -0.1232 -2.2151  0.5369
 5323TIP3   OH215932   7.221   3.319   5.272 -0.0590  0.0280  0.3380
 5323TIP3    H115933   7.175   3.389   5.317 -0.7510 -0.4719  0.4200
 5323TIP3    H215934   7.171   3.240   5.292 -1.7295  0.0501 -3.0300
 5324TIP3   OH215935   5.174   1.597   4.724  0.3701 -0.1151 -0.2798
 5324TIP3    H115936   5.183   1.509   4.759 -0.1277 -0.7560 -1.6789
 5324TIP3    H215937   5.141   1.584   4.634 -0.4462  1.5105 -0.2560
 5325TIP3   OH215938   0.828   1.880   4.149  0.3518  0.3107 -0.3246
 5325TIP3    H115939   0.829   1.789   4.179  1.5214  0.8843  1.5544
 5325TIP3    H215940   0.811   1.874   4.055 -0.8982 -1.7590 -0.0278
 5326TIP3   OH215941   5.837   2.298   0.902  0.2157  0.1963 -0.2847
 5326TIP3    H115942   5.823   2.204   0.892  0.5850  0.1033  0.0564
 5326TIP3    H215943   5.750   2.336   0.894 -0.5425 -0.4953  3.2435
 5327TIP3   OH215944   3.809   6.811   2.511  0.4702  0.3653 -1.1454
 5327TIP3    H115945   3.781   6.825   2.420 -1.7609  1.2903 -0.3758
 5327TIP3    H215946   3.818   6.716   2.519  0.7626  0.2727 -2.3325
 5328TIP3   OH215947   6.041   6.228   2.603 -0.1653  0.2452 -0.0698
 5328TIP3    H115948   6.027   6.282   2.681  1.3712  0.0246  0.3935
 5328TIP3    H215949   6.077   6.289   2.539 -3.5415  0.9853 -1.5135
 5329TIP3   OH215950   1.551   0.540   2.331  0.2855 -0.1776  0.4510
 5329TIP3    H115951   1.615   0.583   2.275 -0.8683  0.7978 -0.1723
 5329TIP3    H215952   1.485   0.608   2.347 -1.3042 -1.5390 -0.0888
 5330TIP3   OH215953   4.692   5.396   5.566  0.3904 -0.6360  0.3008
 5330TIP3    H115954   4.727   5.386   5.477 -0.1163 -0.6396  0.0964
 5330TIP3    H215955   4.768   5.415   5.620  0.4780  1.3843 -0.4539
 5331TIP3   OH215956   3.085   3.029   4.224 -0.1270  0.5971 -0.0783
 5331TIP3    H115957   2.994   2.999   4.224  0.4285 -1.3509 -2.3154
 5331TIP3    H215958   3.136   2.951   4.205  2.3060  1.1699  3.1488
 5332TIP3   OH215959   6.814   1.344   3.243  0.4782 -0.0100  0.1066
 5332TIP3    H115960   6.846   1.316   3.329  2.0788 -1.3570 -0.8762
 5332TIP3    H215961   6.770   1.428   3.260  4.3882  1.9839  1.6318
 5333TIP3   OH215962   6.723   2.334   2.582  0.4308  0.1483  0.1731
 5333TIP3    H115963   6.747   2.370   2.668  0.7863  0.1862  0.0584
 5333TIP3    H215964   6.657   2.395   2.549 -0.0791 -0.1451  0.6355
 5334TIP3   OH215965   3.306   1.803   1.230 -0.0416 -0.4269 -0.2301
 5334TIP3    H115966   3.258   1.739   1.283 -1.0458  0.6994  0.2679
 5334TIP3    H215967   3.392   1.762   1.216 -0.7362 -1.9999 -0.1740
 5335TIP3   OH215968   2.150   5.356   5.307 -0.5883 -0.1714 -0.0826
 5335TIP3    H115969   2.218   5.404   5.355 -1.7177  3.5558 -1.8262
 5335TIP3    H215970   2.183   5.350   5.218 -2.1750  1.0668 -0.7945
 5336TIP3   OH215971   2.642   2.828   0.254  0.2967 -0.1035 -0.2925
 5336TIP3    H115972   2.618   2.899   0.314  0.5000 -0.3936  0.1313
 5336TIP3    H215973   2.626   2.748   0.303  0.8500 -0.3311 -0.4771
 5337TIP3   OH215974   4.867   3.344   1.142 -0.3068 -0.1066 -0.6771
 5337TIP3    H115975   4.946   3.396   1.158 -0.6046  0.1628 -0.0648
 5337TIP3    H215976   4.874   3.270   1.202 -0.8078  0.2370 -0.1865
 5338TIP3   OH215977   0.788   4.933   0.459  0.0856 -0.4024 -0.2528
 5338TIP3    H115978   0.832   4.993   0.519  0.9331  0.5615 -1.8110
 5338TIP3    H215979   0.837   4.851   0.467  0.8498  0.0338 -0.4067
 5339TIP3   OH215980   4.907   5.056   5.622 -0.3062  0.5116  0.1702
 5339TIP3    H115981   4.967   5.128   5.637  0.3784  0.1993 -0.9112
 5339TIP3    H215982   4.905   5.046   5.526  0.5793 -1.6802  0.3236
 5340TIP3   OH215983   6.534   6.353   2.305  0.1529 -0.5354 -0.5657
 5340TIP3    H115984   6.546   6.375   2.397  1.3889  1.0917 -1.0655
 5340TIP3    H215985   6.621   6.326   2.275 -0.0451 -0.2286 -1.4435
 5341TIP3   OH215986   2.920   1.269   2.259 -0.0363 -0.1622  0.0549
 5341TIP3    H115987   2.835   1.296   2.225  0.6821 -0.4216 -2.0636
 5341TIP3    H215988   2.910   1.176   2.279 -0.4356 -0.0286  0.5003
 5342TIP3   OH215989   4.398   3.692   2.891  0.0002  0.1423  0.2969
 5342TIP3    H115990   4.416   3.600   2.910  1.2390 -0.0697 -1.6520
 5342TIP3    H215991   4.325   3.715   2.948  0.0944 -1.8578  1.2822
 5343TIP3   OH215992   6.948   0.542   2.943  0.0979  0.1562 -0.1377
 5343TIP3    H115993   6.916   0.486   2.872  0.4095  1.5313 -1.4133
 5343TIP3    H215994   7.008   0.486   2.993 -1.2380 -1.2697 -0.0481
 5344TIP3   OH215995   1.578   1.960   2.426  0.0993 -0.1721  0.2119
 5344TIP3    H115996   1.609   1.879   2.465  1.8596  0.9559  1.3074
 5344TIP3    H215997   1.544   2.011   2.500 -1.3239 -0.0283 -0.5075
 5345TIP3   OH215998   1.955   3.029   1.706 -0.4071  0.2773  0.0214
 5345TIP3    H115999   1.972   2.937   1.725 -0.8776  0.2760  0.4799
 5345TIP3    H216000   1.949   3.070   1.793  0.0939  0.7957 -0.1851
 5346TIP3   OH216001   1.803   1.141   0.599  0.1555  0.0896 -0.2015
 5346TIP3    H116002   1.821   1.059   0.553  1.7387 -0.3853  1.2047
 5346TIP3    H216003   1.790   1.116   0.690  0.2348  1.3504  0.1817
 5347TIP3   OH216004   5.264   5.752   0.775 -0.1403  0.0339  0.2493
 5347TIP3    H116005   5.205   5.731   0.704 -0.1421  1.0602 -0.0691
 5347TIP3    H216006   5.212   5.742   0.855 -0.5043  0.1496  0.0235
 5348TIP3   OH216007   6.253   5.992   5.253  0.2084  0.2018 -0.1771
 5348TIP3    H116008   6.188   5.951   5.309 -0.4606  0.3992 -0.7883
 5348TIP3    H216009   6.287   6.065   5.304  1.6749 -1.2625  1.0641
 5349TIP3   OH216010   4.179   1.199   4.729 -0.6312  0.3031 -0.0125
 5349TIP3    H116011   4.169   1.217   4.635  0.8674  1.3291 -0.0064
 5349TIP3    H216012   4.104   1.243   4.770 -0.2627  1.4949 -0.5712
 5350TIP3   OH216013   0.303   4.478   4.887 -0.3806 -0.0902  0.4417
 5350TIP3    H116014   0.265   4.393   4.910  0.5580 -0.4391  0.7388
 5350TIP3    H216015   0.305   4.479   4.791 -2.5699  0.5968  0.3396
 5351TIP3   OH216016   5.468   0.023   3.375 -0.1925  0.4751  0.0088
 5351TIP3    H116017   5.537  -0.038   3.350  1.4275  2.1093  0.2735
 5351TIP3    H216018   5.496   0.059   3.459 -0.8786  1.8691 -0.3159
 5352TIP3   OH216019   6.416   0.346   3.886 -0.6138 -0.0861 -0.3243
 5352TIP3    H116020   6.443   0.418   3.943 -1.1098  0.4768 -0.7810
 5352TIP3    H216021   6.430   0.379   3.797 -3.4595  0.5692 -0.6269
 5353TIP3   OH216022   6.782   4.230   0.558 -0.8140 -0.5537 -0.0939
 5353TIP3    H116023   6.843   4.253   0.488 -0.9941  2.1821  0.5600
 5353TIP3    H216024   6.810   4.143   0.586  2.7761  0.5118  0.1304
 5354TIP3   OH216025   2.153   6.430   2.798 -0.2328 -0.2106  0.1886
 5354TIP3    H116026   2.147   6.478   2.881  0.7313 -0.7925  0.6123
 5354TIP3    H216027   2.062   6.406   2.778 -0.4252 -0.4853  1.3264
 5355TIP3   OH216028   3.617   6.584   1.701 -0.3523  0.4359 -0.0762
 5355TIP3    H116029   3.590   6.526   1.630  1.4099  1.2379 -1.4856
 5355TIP3    H216030   3.538   6.598   1.753 -1.8952  0.3771 -2.2956
 5356TIP3   OH216031   3.546   5.384   2.575  0.0840  0.4730 -0.0528
 5356TIP3    H116032   3.510   5.297   2.589 -0.0854  0.8832  2.6874
 5356TIP3    H216033   3.474   5.434   2.537 -0.7881  0.1244  1.0956
 5357TIP3   OH216034   6.812   3.802   5.133 -0.4320 -0.2108 -0.0602
 5357TIP3    H116035   6.775   3.800   5.221  0.5824  0.3637  0.3972
 5357TIP3    H216036   6.881   3.735   5.135  0.0490  0.2670 -0.1855
 5358TIP3   OH216037   3.993   6.144   2.627 -0.2049 -0.4063  0.2703
 5358TIP3    H116038   3.992   6.205   2.701  0.6784 -1.5177  1.2463
 5358TIP3    H216039   3.988   6.058   2.668  2.8461 -1.1988 -0.7730
 5359TIP3   OH216040   3.742   6.696   3.735  0.4138 -0.0900 -0.0517
 5359TIP3    H116041   3.687   6.750   3.677  0.9310  0.0204 -0.4486
 5359TIP3    H216042   3.804   6.654   3.676 -0.0443 -1.2163  0.2477
 5360TIP3   OH216043   2.100   5.621   0.261 -0.2503 -0.0511  0.1148
 5360TIP3    H116044   2.161   5.677   0.308 -1.4222  1.5786 -0.2133
 5360TIP3    H216045   2.043   5.681   0.213  0.0105 -1.5837 -2.3216
 5361TIP3   OH216046   5.495   1.480   2.781 -0.3823 -0.2666  0.2474
 5361TIP3    H116047   5.471   1.567   2.812  0.9362  0.1233  0.2072
 5361TIP3    H216048   5.411   1.439   2.759 -0.9587  1.3714 -0.7700
 5362TIP3   OH216049   6.070   4.400   2.269  0.5242  0.0216 -0.0206
 5362TIP3    H116050   6.024   4.403   2.353 -0.6284 -1.6671 -0.5193
 5362TIP3    H216051   6.141   4.337   2.283 -0.0005 -0.6793 -0.4285
 5363TIP3   OH216052   6.060   6.693   0.948 -0.4493 -0.1523  0.0135
 5363TIP3    H116053   6.127   6.742   0.901 -0.1874  0.1468  0.6783
 5363TIP3    H216054   6.017   6.639   0.881  1.1370 -1.1274 -0.2499
 5364TIP3   OH216055   6.539   2.195   1.153 -0.3191 -0.2101  0.3007
 5364TIP3    H116056   6.494   2.111   1.149 -0.6115 -0.0472  0.1565
 5364TIP3    H216057   6.580   2.205   1.068 -2.1775  0.8347 -0.5232
 5365TIP3   OH216058   0.668   0.757   2.701  0.0170 -0.1414  0.2848
 5365TIP3    H116059   0.658   0.691   2.632  0.7459 -0.8711  0.8627
 5365TIP3    H216060   0.701   0.708   2.776  0.8432  0.9417  0.6431
 5366TIP3   OH216061   4.584   0.201   4.444  0.1879  0.3306  0.1543
 5366TIP3    H116062   4.569   0.256   4.521  0.3522  0.0461  0.3936
 5366TIP3    H216063   4.616   0.118   4.480  1.7936  0.7141 -0.2889
 5367TIP3   OH216064   3.122   2.976   1.644  0.1864 -0.3160 -0.4182
 5367TIP3    H116065   3.089   3.064   1.623 -0.9073 -0.5226  0.3420
 5367TIP3    H216066   3.122   2.930   1.560 -3.1964 -0.8421 -0.2505
 5368TIP3   OH216067   0.881   1.006   3.550  0.2489  0.7444  0.3778
 5368TIP3    H116068   0.860   1.065   3.478 -0.0889 -2.2003 -2.1621
 5368TIP3    H216069   0.976   1.016   3.563  0.1613  1.9593  0.1682
 5369TIP3   OH216070   4.822   0.996   5.515  0.3758  0.1475 -0.0448
 5369TIP3    H116071   4.734   1.034   5.520  0.6330  0.6865  0.4734
 5369TIP3    H216072   4.881   1.071   5.518  0.8518 -0.1949 -0.6820
 5370TIP3   OH216073   0.710   5.959   0.191 -0.1873  0.3919  0.7468
 5370TIP3    H116074   0.724   6.020   0.264 -2.0066  1.2940  0.4078
 5370TIP3    H216075   0.615   5.962   0.176 -0.0836 -1.2315 -0.4161
 5371TIP3   OH216076   1.848   5.614   1.428  0.6837  0.1413  0.2631
 5371TIP3    H116077   1.789   5.690   1.432 -1.2939 -1.2875 -0.0595
 5371TIP3    H216078   1.922   5.644   1.375 -1.4055  1.0029 -2.3857
 5372TIP3   OH216079   4.463   0.845   4.216  0.0114  0.2708 -0.1242
 5372TIP3    H116080   4.411   0.864   4.137  0.6334 -0.8044 -0.8130
 5372TIP3    H216081   4.467   0.929   4.262  0.3501  1.1620 -1.6745
 5373TIP3   OH216082   4.307   0.446   2.809  0.3233  0.1366  0.0537
 5373TIP3    H116083   4.398   0.418   2.802  0.6340  1.2762 -0.9455
 5373TIP3    H216084   4.260   0.387   2.750  0.5897  0.1893 -0.2198
 5374TIP3   OH216085   5.728   3.233   0.544 -0.0471 -0.0064 -0.6713
 5374TIP3    H116086   5.644   3.191   0.556 -0.1641 -0.0119 -1.4236
 5374TIP3    H216087   5.792   3.163   0.555 -0.0948  0.1331  0.5736
 5375TIP3   OH216088   7.141   5.477   5.364 -0.1188  0.7516 -0.5258
 5375TIP3    H116089   7.112   5.550   5.309 -0.2933  0.3296 -0.9979
 5375TIP3    H216090   7.061   5.433   5.390  0.0477  0.0213 -1.2247
 5376TIP3   OH216091   3.352   4.955   0.455 -0.9985  0.3002  0.4275
 5376TIP3    H116092   3.413   4.883   0.471 -0.6705  0.6346  0.7094
 5376TIP3    H216093   3.357   4.971   0.361  0.7595  1.5474  0.6800
 5377TIP3   OH216094   1.700   5.405   3.291 -0.1241  0.5174  0.0547
 5377TIP3    H116095   1.699   5.404   3.387  0.0119 -0.1047  0.0573
 5377TIP3    H216096   1.784   5.367   3.268  0.5978  2.2702 -0.3146
 5378TIP3   OH216097   6.550   1.350   0.742 -0.4480  0.1472 -0.4675
 5378TIP3    H116098   6.492   1.389   0.676 -0.7536 -0.3838 -0.5203
 5378TIP3    H216099   6.602   1.423   0.774 -2.3033  0.9947  0.8086
 5379TIP3   OH216100   3.089   4.421   0.841  0.3638  0.3481  0.3020
 5379TIP3    H116101   3.174   4.455   0.871  2.0232 -2.2108 -1.1055
 5379TIP3    H216102   3.070   4.348   0.899 -0.9483  0.9303  0.6400
 5380TIP3   OH216103   2.486   5.888   5.623  0.2555  0.3749  0.0015
 5380TIP3    H116104   2.410   5.898   5.565 -1.3635 -1.4942  1.6647
 5380TIP3    H216105   2.536   5.816   5.584  0.4594  0.6966 -0.3416
 5381TIP3   OH216106   4.998   5.950   1.464 -0.8074 -0.8014  0.4934
 5381TIP3    H116107   5.048   5.936   1.545 -2.5219  0.1135  1.7853
 5381TIP3    H216108   4.990   6.046   1.457 -0.5220 -0.8553 -0.9016
 5382TIP3   OH216109   6.969   1.840   3.355 -0.7933 -0.2444  0.7114
 5382TIP3    H116110   6.873   1.836   3.353 -0.9202 -0.1993  3.3062
 5382TIP3    H216111   6.990   1.920   3.307 -2.0268 -0.3354 -0.0428
 5383TIP3   OH216112   5.629   5.508   3.163  0.3002 -0.4103  0.6562
 5383TIP3    H116113   5.561   5.481   3.101  0.1780  0.9225  0.1718
 5383TIP3    H216114   5.591   5.583   3.209  0.5296 -1.1718  2.1250
 5384TIP3   OH216115   6.133   5.508   5.859  0.4625  0.2133 -0.2651
 5384TIP3    H116116   6.058   5.484   5.914 -0.5650  2.2832 -0.6724
 5384TIP3    H216117   6.108   5.479   5.771  0.9354 -0.6716 -0.1207
 5385TIP3   OH216118   6.640   1.733   1.982 -0.0465 -0.5195 -0.0031
 5385TIP3    H116119   6.696   1.748   1.906 -3.0089  0.5455 -2.1456
 5385TIP3    H216120   6.622   1.821   2.016 -0.8826 -0.7860  0.2714
 5386TIP3   OH216121   4.401   0.259   0.250 -0.1186  0.1669  0.0409
 5386TIP3    H116122   4.384   0.165   0.237 -0.9372  0.2892  0.1677
 5386TIP3    H216123   4.474   0.262   0.312 -0.2719 -0.3834  0.2531
 5387TIP3   OH216124   5.626   0.621   2.395  0.3758 -0.2437  0.1741
 5387TIP3    H116125   5.600   0.549   2.337 -0.9831  1.1009 -0.9605
 5387TIP3    H216126   5.579   0.697   2.362  1.6916  1.1748  1.4111
 5388TIP3   OH216127   3.334   4.155   3.025 -0.8552  0.5083  0.1869
 5388TIP3    H116128   3.392   4.214   2.978  0.1571  0.3977  1.2338
 5388TIP3    H216129   3.304   4.092   2.960  0.2543  0.5385 -0.3654
 5389TIP3   OH216130   1.065   2.120   3.732 -0.1233 -0.7805  0.4492
 5389TIP3    H116131   1.084   2.040   3.781  0.9999 -1.6411 -1.2670
 5389TIP3    H216132   1.135   2.180   3.756 -1.3683  0.0162  2.2959
 5390TIP3   OH216133   6.569   2.028   3.807 -0.1704 -0.1333  0.2940
 5390TIP3    H116134   6.590   2.080   3.730 -1.8744  0.2474  0.0439
 5390TIP3    H216135   6.650   1.980   3.826  1.2301  2.0079  0.0998
 5391TIP3   OH216136   2.968   5.450   2.449  0.3368  0.0484 -0.4932
 5391TIP3    H116137   3.008   5.368   2.421  0.5763 -0.1108  0.2884
 5391TIP3    H216138   3.008   5.469   2.533 -0.1278  0.6802 -0.4033
 5392TIP3   OH216139   0.267   2.464   2.669 -0.4233  0.1687 -0.0894
 5392TIP3    H116140   0.269   2.435   2.578  0.3567  1.0040 -0.3559
 5392TIP3    H216141   0.265   2.560   2.663  0.1788  0.2457  0.7681
 5393TIP3   OH216142   6.454   2.501   2.908  0.0179 -0.2984  0.3331
 5393TIP3    H116143   6.361   2.481   2.911  0.0217 -0.9210 -1.8465
 5393TIP3    H216144   6.458   2.597   2.910 -0.9600 -0.0869 -2.7751
 5394TIP3   OH216145   6.155   5.473   0.144 -0.1656  0.2294  0.3896
 5394TIP3    H116146   6.245   5.481   0.113  0.0563  1.0770  1.2152
 5394TIP3    H216147   6.163   5.432   0.230 -0.3831  1.9517  1.2818
 5395TIP3   OH216148   5.093   6.343   4.126 -0.3853  0.0384  0.0321
 5395TIP3    H116149   5.123   6.416   4.071 -0.4656  0.2938  0.3244
 5395TIP3    H216150   5.086   6.269   4.065 -1.5793  0.6001 -0.5559
 5396TIP3   OH216151   3.310   2.811   1.838 -0.0727  0.0818  0.5065
 5396TIP3    H116152   3.282   2.903   1.836 -1.9125 -0.3712  1.6625
 5396TIP3    H216153   3.310   2.783   1.747 -3.1295  0.3093  0.3281
 5397TIP3   OH216154   4.837   2.839   1.231 -0.1376  0.8788 -0.0684
 5397TIP3    H116155   4.900   2.815   1.298 -1.6515  1.4449  1.6530
 5397TIP3    H216156   4.798   2.756   1.203  0.9619  0.5792 -0.7727
 5398TIP3   OH216157   1.255   1.328   4.070 -0.0313  0.4482  0.3939
 5398TIP3    H116158   1.257   1.381   4.149 -4.0345 -0.4503  1.3217
 5398TIP3    H216159   1.205   1.250   4.094 -0.8928 -0.1484 -2.8159
 5399TIP3   OH216160   0.389   0.708   3.203  0.7075 -0.1926  0.0274
 5399TIP3    H116161   0.416   0.623   3.237 -1.8831 -0.8758  0.6258
 5399TIP3    H216162   0.300   0.720   3.236  0.3224  1.9293 -1.5377
 5400TIP3   OH216163   4.700   1.136   5.072 -0.3051 -0.3100 -0.1681
 5400TIP3    H116164   4.711   1.078   5.147  0.6831 -0.2914 -0.2801
 5400TIP3    H216165   4.625   1.190   5.094  0.6961  0.5353  1.3794
 5401TIP3   OH216166   2.898   4.632   0.457  0.1542  0.6447 -0.0266
 5401TIP3    H116167   2.964   4.672   0.514 -1.2777  1.4749  1.1329
 5401TIP3    H216168   2.933   4.641   0.369  2.6677 -1.0595  0.6809
 5402TIP3   OH216169   2.414   6.542   3.674  0.6449 -0.2633 -0.1354
 5402TIP3    H116170   2.498   6.570   3.637  1.1038 -2.3773 -0.8119
 5402TIP3    H216171   2.351   6.554   3.603  0.0154  2.5478  0.7563
 5403TIP3   OH216172   2.284   4.530   1.076  0.2824 -0.2133 -0.7299
 5403TIP3    H116173   2.262   4.444   1.112 -0.1234  0.5267  0.9222
 5403TIP3    H216174   2.203   4.561   1.036 -0.1345  0.1488  0.3418
 5404TIP3   OH216175   1.367   5.109   3.607 -0.5457  0.1169 -0.1027
 5404TIP3    H116176   1.315   5.050   3.663 -0.5675 -1.9179 -2.1381
 5404TIP3    H216177   1.417   5.050   3.551  0.8919  2.0852 -0.9812
 5405TIP3   OH216178   6.029   6.576   0.289 -0.5131  0.0227  0.4062
 5405TIP3    H116179   5.979   6.496   0.306 -2.7906  1.5400  1.4249
 5405TIP3    H216180   5.965   6.646   0.299  1.5683  2.0440  0.3276
 5406TIP3   OH216181   1.198   3.575   3.485  0.1713 -0.1524  0.1717
 5406TIP3    H116182   1.210   3.626   3.565 -0.7403 -0.4904  0.5313
 5406TIP3    H216183   1.287   3.554   3.456  0.5210  0.5250  0.7322
 5407TIP3   OH216184   0.765   0.483   0.278  0.6828  0.0132 -0.0235
 5407TIP3    H116185   0.715   0.527   0.209  2.2045  0.9262 -0.5882
 5407TIP3    H216186   0.831   0.432   0.231 -1.4542 -3.6183  0.5555
 5408TIP3   OH216187   2.352   1.915   5.669 -0.8073 -0.0240 -0.0564
 5408TIP3    H116188   2.326   1.996   5.712 -1.9209  0.0774 -0.8835
 5408TIP3    H216189   2.275   1.887   5.620  0.5991  0.2774 -2.6273
 5409TIP3   OH216190   3.407   0.889   4.587  0.8556  0.3018  0.3557
 5409TIP3    H116191   3.327   0.868   4.636  0.6945  0.6244  0.2317
 5409TIP3    H216192   3.470   0.823   4.616  0.3184 -0.4539 -0.1186
 5410TIP3   OH216193   1.566   3.184   0.043  0.0240 -0.2074  0.2079
 5410TIP3    H116194   1.607   3.258  -0.001 -0.6624 -0.3618 -0.7369
 5410TIP3    H216195   1.474   3.210   0.054 -0.0679 -0.6403  0.5100
 5411TIP3   OH216196   1.978   6.538   2.404  0.2138 -0.3491  0.6049
 5411TIP3    H116197   1.992   6.485   2.482  1.4821 -1.4723 -0.3306
 5411TIP3    H216198   2.001   6.480   2.331  0.1461  1.0044 -0.5399
 5412TIP3   OH216199   4.242   2.936   5.163  0.5012 -0.5748  0.2038
 5412TIP3    H116200   4.261   3.029   5.176  0.3392 -0.6193  0.7923
 5412TIP3    H216201   4.322   2.900   5.123 -0.1276  0.1842 -1.8101
 5413TIP3   OH216202   1.460   3.311   2.236 -0.5521  0.3842  0.1845
 5413TIP3    H116203   1.519   3.370   2.282 -0.3181  0.8518 -0.7008
 5413TIP3    H216204   1.430   3.250   2.303  2.1246 -0.8347  0.4024
 5414TIP3   OH216205   5.357   2.921   1.640 -0.0269 -0.2634  0.0663
 5414TIP3    H116206   5.350   2.972   1.721 -1.7772  0.3005 -0.3970
 5414TIP3    H216207   5.273   2.877   1.632  0.5778 -1.3024 -0.8227
 5415TIP3   OH216208   3.172   5.637   3.241  0.0160 -0.4344  0.0331
 5415TIP3    H116209   3.232   5.569   3.211  0.6943 -0.9348  2.3441
 5415TIP3    H216210   3.229   5.711   3.264 -0.5775  0.3333 -0.8719
 5416TIP3   OH216211   5.607   5.845   1.386 -0.4448 -0.3706 -1.1397
 5416TIP3    H116212   5.602   5.875   1.295 -0.2178  1.5120 -0.5578
 5416TIP3    H216213   5.687   5.885   1.420 -0.5612 -1.0080 -0.0875
 5417TIP3   OH216214   3.676   2.069   0.495  0.1610  0.0398 -0.2171
 5417TIP3    H116215   3.596   2.117   0.472 -1.5931 -1.4460  2.2605
 5417TIP3    H216216   3.747   2.124   0.463 -1.7620  2.7741 -0.1762
 5418TIP3   OH216217   3.405   0.790   2.271 -0.4624 -0.6329 -0.2237
 5418TIP3    H116218   3.332   0.800   2.210 -1.5940  0.8578  1.2850
 5418TIP3    H216219   3.366   0.803   2.357  1.3842 -1.0573  0.7221
 5419TIP3   OH216220   2.558   0.066   1.864 -0.0874  0.2980  0.3611
 5419TIP3    H116221   2.589  -0.001   1.803 -0.9418 -0.4269  0.7069
 5419TIP3    H216222   2.617   0.140   1.849  0.2648 -0.1710 -0.7212
 5420TIP3   OH216223   5.318   4.186   0.285  0.2554 -0.3052  0.1365
 5420TIP3    H116224   5.339   4.132   0.209 -1.9109  0.7078 -1.3097
 5420TIP3    H216225   5.226   4.165   0.304  0.8254 -0.7639  2.7265
 5421TIP3   OH216226   2.540   4.141   4.109  0.4255  0.3604  0.0755
 5421TIP3    H116227   2.458   4.092   4.117 -0.5649  1.6705 -1.2881
 5421TIP3    H216228   2.540   4.200   4.184 -1.3790  2.3255 -1.3415
 5422TIP3   OH216229   4.796   2.961   0.497  0.2350  0.1774  0.8621
 5422TIP3    H116230   4.823   2.882   0.544  1.0367  0.3404  0.7057
 5422TIP3    H216231   4.830   2.948   0.408 -2.7540 -0.9139 -0.2171
 5423TIP3   OH216232   2.351   1.091   4.142 -0.3664  0.5818 -0.7267
 5423TIP3    H116233   2.358   1.147   4.219  0.3799 -0.9042  0.3232
 5423TIP3    H216234   2.430   1.108   4.092  2.3988 -2.8338  1.9675
 5424TIP3   OH216235   5.261   6.650   0.264  0.3026  0.5016 -0.3287
 5424TIP3    H116236   5.216   6.721   0.309 -1.1417  0.1878 -1.2311
 5424TIP3    H216237   5.205   6.628   0.191  0.7541 -1.5291 -0.1260
 5425TIP3   OH216238   5.319   6.177   1.181  0.8087  0.2231 -0.1437
 5425TIP3    H116239   5.226   6.178   1.201  0.5742 -0.8493 -1.0971
 5425TIP3    H216240   5.353   6.256   1.223 -0.4655  0.4851  0.4562
 5426TIP3   OH216241   3.199   6.290   3.078 -0.0489 -0.4146 -0.1021
 5426TIP3    H116242   3.127   6.292   3.141 -0.8731 -0.0911 -1.0219
 5426TIP3    H216243   3.248   6.211   3.099  0.2058  0.1402  1.4866
 5427TIP3   OH216244   5.187   4.813   1.884 -0.5946  0.0872  0.5079
 5427TIP3    H116245   5.215   4.893   1.840 -1.4969  0.3435  0.3713
 5427TIP3    H216246   5.230   4.743   1.835 -0.7109  0.4314 -0.1020
 5428TIP3   OH216247   5.383   1.562   3.460  0.5715 -0.6965 -0.1576
 5428TIP3    H116248   5.366   1.656   3.464 -0.1076 -0.8086 -0.2985
 5428TIP3    H216249   5.459   1.549   3.518 -0.0245 -0.2250  0.7486
 5429TIP3   OH216250   5.014   6.063   3.536 -0.2240 -0.3323 -0.1488
 5429TIP3    H116251   4.966   6.142   3.511 -1.4040 -0.9446  0.1029
 5429TIP3    H216252   5.051   6.084   3.622 -0.0895  0.1234 -0.3132
 5430TIP3   OH216253   6.732   4.041   3.957  0.3359  0.0228  0.0944
 5430TIP3    H116254   6.791   4.111   3.986 -1.5465  0.7658  2.5229
 5430TIP3    H216255   6.773   3.961   3.988  1.9115  0.0745 -1.6545
 5431TIP3   OH216256   4.655   4.287   0.676  0.1236 -0.2526  0.3581
 5431TIP3    H116257   4.579   4.272   0.733  0.1747 -1.0594  0.2355
 5431TIP3    H216258   4.679   4.378   0.690 -0.2214 -0.2833  1.2004
 5432TIP3   OH216259   4.014   6.068   4.794  0.3346  0.7188 -0.4679
 5432TIP3    H116260   3.971   6.044   4.712  1.2717  1.0023 -1.0599
 5432TIP3    H216261   3.957   6.134   4.833 -0.3420  0.2637 -0.6679
 5433TIP3   OH216262   1.179   6.009   1.561 -0.1298  0.3476 -0.1631
 5433TIP3    H116263   1.121   5.972   1.627  1.5884 -1.8685  0.2346
 5433TIP3    H216264   1.233   6.072   1.609 -0.2303  0.2406  0.0905
 5434TIP3   OH216265   1.477   3.835   1.427 -0.0005  0.4495  0.0379
 5434TIP3    H116266   1.553   3.894   1.426  1.5235 -1.3871 -1.6416
 5434TIP3    H216267   1.435   3.848   1.342  0.2161 -0.6549 -0.2581
 5435TIP3   OH216268   6.584   6.157   0.022  0.3656 -0.3235 -0.3313
 5435TIP3    H116269   6.567   6.124   0.110  1.4478  0.7013  0.3024
 5435TIP3    H216270   6.498   6.178  -0.013  0.0220  1.6264  1.4778
 5436TIP3   OH216271   1.505   1.806   0.840 -0.1679  0.0618 -0.6213
 5436TIP3    H116272   1.543   1.719   0.826 -0.0181  0.1411 -0.7155
 5436TIP3    H216273   1.538   1.858   0.767 -0.5949  0.0896 -0.8001
 5437TIP3   OH216274   4.118   4.359   3.118  0.3213  0.2262 -0.0753
 5437TIP3    H116275   4.049   4.373   3.183 -1.0296 -1.3724 -1.0798
 5437TIP3    H216276   4.074   4.370   3.033  1.6836  0.7312 -0.7466
 5438TIP3   OH216277   6.597   4.420   1.174 -0.0944 -0.2775 -0.4853
 5438TIP3    H116278   6.636   4.342   1.135 -0.6216 -0.7482 -0.0765
 5438TIP3    H216279   6.574   4.395   1.263 -1.0234  0.0848 -0.6093
 5439TIP3   OH216280   6.328   2.396   3.872 -0.5855 -0.6432  0.3672
 5439TIP3    H116281   6.307   2.303   3.885 -2.3299 -0.3095  0.2579
 5439TIP3    H216282   6.404   2.396   3.815 -2.4249 -2.0449 -2.3283
 5440TIP3   OH216283   5.339   5.707   2.685 -0.2603  0.4766 -0.5366
 5440TIP3    H116284   5.396   5.747   2.619  1.1306 -0.4758  0.0464
 5440TIP3    H216285   5.365   5.748   2.768 -0.1212 -0.2818 -0.1992
 5441TIP3   OH216286   6.528   3.462   5.200 -0.3093  0.1099  0.0412
 5441TIP3    H116287   6.442   3.492   5.227 -0.7049 -0.1510 -0.8772
 5441TIP3    H216288   6.589   3.522   5.241 -0.9740  0.8046  0.0246
 5442TIP3   OH216289   7.096   4.578   0.346 -0.5485 -0.6122 -0.0315
 5442TIP3    H116290   7.176   4.563   0.395  1.8641 -2.1706 -3.9431
 5442TIP3    H216291   7.056   4.491   0.338 -1.5731 -0.1810  0.1917
 5443TIP3   OH216292   2.964   3.399   1.076  0.3413  0.0218 -0.2922
 5443TIP3    H116293   2.876   3.416   1.044 -0.5843 -1.6071  1.2309
 5443TIP3    H216294   2.993   3.322   1.027  0.8057  0.3629 -0.5638
 5444TIP3   OH216295   5.762   2.444   4.097  0.3947  0.0263 -0.0685
 5444TIP3    H116296   5.715   2.361   4.096 -0.8777  0.6816 -2.4355
 5444TIP3    H216297   5.709   2.501   4.154  0.6023 -0.4129  0.5731
 5445TIP3   OH216298   4.052   0.893   3.059  0.0097  0.2238  0.0037
 5445TIP3    H116299   4.003   0.964   3.019  1.5620  0.6572 -1.2201
 5445TIP3    H216300   4.097   0.850   2.986  1.9313  0.2463  1.1085
 5446TIP3   OH216301   1.231   1.932   1.788 -0.0548  0.5337  0.2933
 5446TIP3    H116302   1.303   1.938   1.852 -0.8949  1.2785  1.2021
 5446TIP3    H216303   1.162   1.884   1.834 -0.0716 -0.3781 -0.6554
 5447TIP3   OH216304   4.185   0.305   2.623 -0.4438 -0.0858 -0.3671
 5447TIP3    H116305   4.096   0.334   2.604 -2.0477 -2.4887  2.5813
 5447TIP3    H216306   4.191   0.218   2.584  0.7226  0.1156 -0.6827
 5448TIP3   OH216307   0.602   2.968   3.085 -0.5739  0.2616  0.0874
 5448TIP3    H116308   0.534   3.027   3.052  0.6147  0.4329 -2.2331
 5448TIP3    H216309   0.591   2.889   3.032  1.3084  0.4720 -0.6762
 5449TIP3   OH216310   6.282   3.829   3.107 -0.1522  0.0058 -0.5973
 5449TIP3    H116311   6.256   3.920   3.088  0.0832  0.2785  0.3396
 5449TIP3    H216312   6.325   3.799   3.027  0.7594  1.0941 -0.5304
 5450TIP3   OH216313   3.873   2.566   0.600  0.7045  0.4619 -0.6182
 5450TIP3    H116314   3.855   2.532   0.512  1.2410 -1.5145 -0.0013
 5450TIP3    H216315   3.966   2.550   0.614  0.2185 -1.2563  1.0872
 5451TIP3   OH216316   5.642   0.803   1.889 -0.1127 -0.3668 -0.2396
 5451TIP3    H116317   5.570   0.740   1.885  1.6262 -2.4170 -3.0478
 5451TIP3    H216318   5.653   0.832   1.799  1.3412  1.4192  0.4539
 5452TIP3   OH216319   4.764   1.498   0.048  0.1144  0.3702  0.5125
 5452TIP3    H116320   4.678   1.460   0.068  0.2295  0.2136  0.7154
 5452TIP3    H216321   4.791   1.453  -0.032 -0.2198  0.7907  0.1612
 5453TIP3   OH216322   4.917   5.181   5.371  0.3371 -0.0546 -1.3461
 5453TIP3    H116323   4.843   5.231   5.336  0.4375  0.4028 -0.9134
 5453TIP3    H216324   4.992   5.207   5.317  0.8490  1.8988  0.1696
 5454TIP3   OH216325   1.823   5.655   4.641  0.3799 -0.3256 -0.0493
 5454TIP3    H116326   1.760   5.724   4.618  0.8712  0.4271  0.8048
 5454TIP3    H216327   1.793   5.579   4.592 -0.6333  0.2836 -0.4187
 5455TIP3   OH216328   1.283   4.911   2.891 -0.3252  0.3354  0.0222
 5455TIP3    H116329   1.338   4.987   2.909 -1.4195  0.9260  1.0249
 5455TIP3    H216330   1.198   4.947   2.868 -0.2350 -0.5576 -1.9023
 5456TIP3   OH216331   4.075   4.962   4.385  0.2995  0.2806 -0.4662
 5456TIP3    H116332   4.024   4.884   4.363  1.8826 -0.3981 -1.9661
 5456TIP3    H216333   4.068   5.018   4.307  1.8995  0.1128 -0.7695
 5457TIP3   OH216334   1.395   5.885   0.146  0.5354  0.2248  0.2144
 5457TIP3    H116335   1.302   5.899   0.167 -0.4193 -2.0231 -1.9272
 5457TIP3    H216336   1.430   5.837   0.221 -0.6671 -0.8326  0.1329
 5458TIP3   OH216337   0.529   3.634   1.050  0.0761 -0.5526 -0.6113
 5458TIP3    H116338   0.621   3.625   1.027  0.4394  0.9303  0.1508
 5458TIP3    H216339   0.496   3.701   0.990  0.0054  0.3554  0.4243
 5459TIP3   OH216340   4.820   6.741   1.330 -0.6293 -0.3889 -0.2061
 5459TIP3    H116341   4.793   6.658   1.291  1.2328 -0.8478 -0.6080
 5459TIP3    H216342   4.897   6.719   1.383 -0.4992  0.9690  0.2050
 5460TIP3   OH216343   5.598   3.988   2.868  0.0059 -0.4305  0.3267
 5460TIP3    H116344   5.557   3.982   2.954  0.2825  0.1471  0.5057
 5460TIP3    H216345   5.687   4.018   2.886 -0.2251  0.6391 -0.2252
 5461TIP3   OH216346   0.142   0.564   0.420  0.0444 -0.1704 -0.5652
 5461TIP3    H116347   0.215   0.613   0.382  0.3916 -0.9011 -0.8663
 5461TIP3    H216348   0.140   0.591   0.512 -0.1088  0.7951 -0.8398
 5462TIP3   OH216349   4.963   4.670   3.006 -0.2320 -0.1884  0.4027
 5462TIP3    H116350   4.972   4.756   3.048  0.7819  0.1798 -0.5325
 5462TIP3    H216351   4.873   4.644   3.025 -0.9262  1.5827 -0.2089
 5463TIP3   OH216352   6.382   4.002   0.956  0.6343  0.3795  0.1116
 5463TIP3    H116353   6.325   4.022   1.030 -0.6817  0.8575 -0.9854
 5463TIP3    H216354   6.323   4.001   0.880  2.0763  0.7865 -1.0622
 5464TIP3   OH216355   0.335   2.735   0.812  0.1038 -0.5617  0.2379
 5464TIP3    H116356   0.363   2.785   0.736  1.3369 -0.8835  0.4564
 5464TIP3    H216357   0.309   2.650   0.776  1.4835 -1.0043  0.2487
 5465TIP3   OH216358   3.277   4.081   4.967  0.3434  0.7895  0.5857
 5465TIP3    H116359   3.202   4.140   4.956  0.5691  0.8354 -0.8356
 5465TIP3    H216360   3.341   4.111   4.903  0.8532 -0.4052  0.5144
 5466TIP3   OH216361   5.074   1.941   0.210 -0.2951  0.6924 -0.5356
 5466TIP3    H116362   5.140   1.920   0.144  0.4898 -0.1494  0.4692
 5466TIP3    H216363   5.025   1.859   0.221  1.8588 -0.3506  2.4037
 5467TIP3   OH216364   5.235   4.557   3.675 -0.3687 -0.1618 -0.6347
 5467TIP3    H116365   5.223   4.465   3.653 -0.8202 -0.1462 -0.4662
 5467TIP3    H216366   5.146   4.592   3.683 -0.2296 -0.0592  0.7343
 5468TIP3   OH216367   4.917   1.172   3.887  0.1260 -0.4143  0.3649
 5468TIP3    H116368   4.957   1.100   3.936  0.9668  1.1052  1.9870
 5468TIP3    H216369   4.829   1.179   3.923  0.4845  0.1989  1.1459
 5469TIP3   OH216370   3.560   5.339   2.971  0.0907 -0.2498 -0.2268
 5469TIP3    H116371   3.616   5.413   2.949 -0.3320 -0.4831 -2.1970
 5469TIP3    H216372   3.603   5.264   2.930 -0.8072 -0.6835 -0.3754
 5470TIP3   OH216373   0.943   6.124   0.112 -0.5842  0.5511  0.2544
 5470TIP3    H116374   0.954   6.200   0.169  0.6692  0.4274  0.2076
 5470TIP3    H216375   0.850   6.123   0.090 -0.4922  2.5635 -0.4290
 5471TIP3   OH216376   4.685   6.650   0.227 -0.1014 -0.1701 -0.4699
 5471TIP3    H116377   4.749   6.597   0.180 -1.5092 -1.8683 -0.5430
 5471TIP3    H216378   4.728   6.736   0.236  3.6690 -2.0699  2.5818
 5472TIP3   OH216379   0.020   2.523   0.689  0.5165 -0.1568  0.4058
 5472TIP3    H116380   0.087   2.553   0.628  1.3273 -2.5058  0.0671
 5472TIP3    H216381  -0.058   2.509   0.635  0.7618 -0.6802  0.1817
 5473TIP3   OH216382   3.379   5.997   0.684  0.0391 -0.6350 -0.5167
 5473TIP3    H116383   3.400   6.063   0.750 -1.1867 -0.1937 -0.5434
 5473TIP3    H216384   3.439   5.924   0.703 -0.7796 -0.8486  1.5877
 5474TIP3   OH216385   2.083   4.271   5.331  0.7047 -0.0913  0.3674
 5474TIP3    H116386   2.037   4.205   5.382 -0.0012  0.0469 -0.0772
 5474TIP3    H216387   2.109   4.226   5.251 -1.5123  0.6223 -0.8387
 5475TIP3   OH216388   1.706   0.105   0.355 -0.1210 -0.0914 -0.3670
 5475TIP3    H116389   1.624   0.056   0.361  0.4159 -0.9362  0.3701
 5475TIP3    H216390   1.720   0.140   0.443  0.9773 -1.1218 -0.0984
 5476TIP3   OH216391   4.897   2.267   2.195  0.5803  0.2441 -0.4276
 5476TIP3    H116392   4.902   2.342   2.136 -0.8085  0.1111 -0.7607
 5476TIP3    H216393   4.829   2.290   2.258  1.3177 -0.0536  0.4978
 5477TIP3   OH216394   2.267   6.189   2.465  0.4652 -0.0446  0.0097
 5477TIP3    H116395   2.250   6.246   2.390  2.3659 -0.6813 -0.9642
 5477TIP3    H216396   2.342   6.229   2.509 -1.7021  1.3233  2.6996
 5478TIP3   OH216397   1.501   1.442   2.548  0.3152 -0.0939  0.0455
 5478TIP3    H116398   1.530   1.409   2.633 -0.9396 -1.2866  0.0508
 5478TIP3    H216399   1.419   1.394   2.530  0.0022  0.8908 -1.3484
 5479TIP3   OH216400   0.387   1.144   2.415  0.0732 -0.6473 -0.0104
 5479TIP3    H116401   0.414   1.100   2.334  0.9097 -0.7401  0.3097
 5479TIP3    H216402   0.376   1.073   2.478 -1.1803 -0.6322 -0.1931
 5480TIP3   OH216403   3.330   4.813   3.686 -0.3160 -0.5462 -0.3448
 5480TIP3    H116404   3.424   4.796   3.687  0.1403  1.5589 -1.0874
 5480TIP3    H216405   3.312   4.852   3.772 -0.1120  0.7212 -0.8545
 5481TIP3   OH216406   5.657   6.287   1.893 -0.2809 -0.0848  0.1980
 5481TIP3    H116407   5.721   6.268   1.962 -0.1730 -0.2544  0.0525
 5481TIP3    H216408   5.711   6.298   1.814 -0.3255  0.8850  0.2842
 5482TIP3   OH216409   5.620   5.163   4.371  0.6373  0.1078  0.0446
 5482TIP3    H116410   5.589   5.226   4.437 -0.3662 -0.6934  0.3506
 5482TIP3    H216411   5.620   5.079   4.416  2.9822 -0.0163 -0.0326
 5483TIP3   OH216412   4.852   6.259   3.422 -0.2455  0.0223  0.6236
 5483TIP3    H116413   4.893   6.300   3.346 -1.9014  0.7286  0.0566
 5483TIP3    H216414   4.805   6.184   3.387 -0.1646 -0.2659  1.1208
 5484TIP3   OH216415   1.392   4.354   3.135 -0.6380 -0.2499  0.1296
 5484TIP3    H116416   1.325   4.369   3.068  0.4827  1.2793 -0.7298
 5484TIP3    H216417   1.408   4.441   3.172 -1.0198 -1.0185  2.2269
 5485TIP3   OH216418   5.857   5.581   3.693  0.2929 -0.0942 -0.8786
 5485TIP3    H116419   5.807   5.578   3.775 -1.0896  0.2306 -1.6705
 5485TIP3    H216420   5.880   5.490   3.675 -1.1003 -0.4357 -1.0947
 5486TIP3   OH216421   4.156   2.289   3.752  0.3818  0.4683 -0.2441
 5486TIP3    H116422   4.214   2.264   3.680 -0.2321  1.1858 -1.0047
 5486TIP3    H216423   4.107   2.210   3.773  0.6506  0.2253 -0.5209
 5487TIP3   OH216424   4.665   3.770   2.899 -0.3290  0.2073 -0.4183
 5487TIP3    H116425   4.569   3.770   2.891 -0.2469  1.6475 -1.9522
 5487TIP3    H216426   4.691   3.679   2.884 -1.4274 -0.1172 -0.4288
 5488TIP3   OH216427   2.686   0.060   0.423  0.2877 -0.2820 -0.0045
 5488TIP3    H116428   2.685   0.061   0.519  2.0797  0.3172  0.0419
 5488TIP3    H216429   2.771   0.096   0.400  0.8178 -2.4818 -1.8011
 5489TIP3   OH216430   1.602   4.000   4.338  0.0475 -0.2389 -0.3216
 5489TIP3    H116431   1.644   4.081   4.310 -0.7008  0.2402 -0.0874
 5489TIP3    H216432   1.602   4.005   4.434  0.0455 -0.5459 -0.3045
 5490TIP3   OH216433   2.387   2.164   5.096 -0.7386  0.6818  0.3837
 5490TIP3    H116434   2.320   2.107   5.059  1.4093 -1.2705 -0.7674
 5490TIP3    H216435   2.390   2.141   5.189  0.2684 -1.4007 -0.1006
 5491TIP3   OH216436   1.661   1.004   2.408 -0.1103  0.2006 -0.5665
 5491TIP3    H116437   1.731   1.069   2.403  0.7615 -0.6023  0.5146
 5491TIP3    H216438   1.583   1.049   2.378  0.5812  1.5807 -0.3484
 5492TIP3   OH216439   3.822   1.546   2.908 -0.1245  0.3403  0.0174
 5492TIP3    H116440   3.795   1.481   2.843  0.0308 -0.3088  0.5809
 5492TIP3    H216441   3.910   1.572   2.882  0.4582 -0.8892  0.6770
 5493TIP3   OH216442   4.303   0.442   3.346 -0.0201 -0.1791 -0.1190
 5493TIP3    H116443   4.209   0.421   3.345  0.4718 -2.5814 -0.5344
 5493TIP3    H216444   4.331   0.422   3.435  0.0816  0.7495  0.0674
 5494TIP3   OH216445   5.019   6.608   2.813 -0.3360  0.2745  0.3344
 5494TIP3    H116446   4.949   6.602   2.878 -0.6552 -1.1803 -0.1212
 5494TIP3    H216447   5.058   6.520   2.812  0.2482  0.5341 -0.8038
 5495TIP3   OH216448   6.593   2.408   1.321  0.3886 -0.0231 -0.2663
 5495TIP3    H116449   6.560   2.352   1.252 -0.9337  0.2345  0.1324
 5495TIP3    H216450   6.561   2.368   1.402  2.1522 -0.4841  0.2513
 5496TIP3   OH216451   5.402   0.112   5.786  0.3715 -0.0689 -0.0560
 5496TIP3    H116452   5.408   0.202   5.752  0.7662  0.1102  0.4717
 5496TIP3    H216453   5.393   0.123   5.880 -3.0681 -0.4945 -0.2135
 5497TIP3   OH216454   7.055   3.782   2.239 -0.0725 -0.2753  0.1074
 5497TIP3    H116455   7.064   3.760   2.332 -0.3180  1.3610  0.5519
 5497TIP3    H216456   7.141   3.815   2.214 -0.5114  1.0967  0.3012
 5498TIP3   OH216457   2.412   5.299   3.053  0.5115 -0.3369  0.0929
 5498TIP3    H116458   2.376   5.233   2.994  1.5041 -2.3831  1.6429
 5498TIP3    H216459   2.499   5.319   3.018  0.6634 -0.7288  0.2422
 5499TIP3   OH216460   5.572   3.772   3.735  0.0907  0.1519 -0.5376
 5499TIP3    H116461   5.646   3.743   3.682  1.1061  0.3118  0.7612
 5499TIP3    H216462   5.590   3.739   3.822 -1.0867  0.7036 -0.0616
 5500TIP3   OH216463   6.799   0.065   0.726 -0.5762  0.7446  0.1546
 5500TIP3    H116464   6.829  -0.010   0.674  0.6370  0.9235  0.5646
 5500TIP3    H216465   6.867   0.076   0.793 -1.1828  1.6705  0.6337
 5501TIP3   OH216466   1.603   0.252   4.282 -0.0698  0.0862 -0.0868
 5501TIP3    H116467   1.517   0.211   4.272  0.0948 -0.2735 -0.0486
 5501TIP3    H216468   1.591   0.340   4.247 -0.7927  0.4867  1.1184
 5502TIP3   OH216469   0.731   2.808   4.587  0.6554  0.4013  0.1377
 5502TIP3    H116470   0.765   2.745   4.651  0.9495  1.3581  0.9569
 5502TIP3    H216471   0.808   2.857   4.559  0.6192 -0.3424 -1.3893
 5503TIP3   OH216472   5.932   4.007   1.492  0.2871 -0.5154  0.0202
 5503TIP3    H116473   5.989   3.942   1.451  2.5892  0.8402  0.8835
 5503TIP3    H216474   5.916   4.072   1.424  1.9031  0.3570  0.4045
 5504TIP3   OH216475   7.030   3.030   1.361 -0.2982  0.5507  0.4686
 5504TIP3    H116476   6.972   3.000   1.291  0.3644 -1.1730  0.6290
 5504TIP3    H216477   6.972   3.077   1.421 -1.4189 -0.5366  0.2851
 5505TIP3   OH216478   3.741   2.604   4.998 -0.3520 -0.2219 -0.1026
 5505TIP3    H116479   3.793   2.524   4.986 -0.0236  0.0233 -0.3048
 5505TIP3    H216480   3.764   2.659   4.924 -1.3236 -0.3340 -0.5030
 5506TIP3   OH216481   6.264   3.036   3.842  0.3249 -0.2355  0.0618
 5506TIP3    H116482   6.342   3.056   3.895  1.3055 -0.0559 -1.4068
 5506TIP3    H216483   6.246   2.944   3.859  0.6074 -0.1775  0.7118
 5507TIP3   OH216484   5.344   6.709   1.139 -0.4528  0.6153 -0.2737
 5507TIP3    H116485   5.351   6.796   1.178  1.9933  0.1485  0.5557
 5507TIP3    H216486   5.356   6.724   1.046 -1.4222  1.2699 -0.3110
 5508TIP3   OH216487   6.865   2.006   1.067 -0.1978  0.3280  0.1413
 5508TIP3    H116488   6.832   2.071   1.006 -2.5806 -0.7009  0.2226
 5508TIP3    H216489   6.793   1.943   1.076  0.8570 -0.6668  2.3863
 5509TIP3   OH216490   4.271   1.733   0.090 -0.1765  0.5190 -0.5856
 5509TIP3    H116491   4.289   1.656   0.144  0.9547  0.4803 -0.9914
 5509TIP3    H216492   4.190   1.712   0.044 -0.2099 -0.1717 -0.2200
 5510TIP3   OH216493   6.420   5.285   0.288  0.5065  0.2297  0.4393
 5510TIP3    H116494   6.435   5.247   0.201 -1.7225 -1.3775  0.6681
 5510TIP3    H216495   6.490   5.249   0.342  1.6572  0.8927 -0.5662
 5511TIP3   OH216496   0.204   2.269   3.433 -0.6762 -0.1625 -0.1595
 5511TIP3    H116497   0.182   2.268   3.340 -1.1169 -1.3993 -0.0554
 5511TIP3    H216498   0.123   2.295   3.477 -0.4171  0.6113 -0.1211
 5512TIP3   OH216499   5.369   3.127   0.075 -0.0361 -0.1717 -0.3792
 5512TIP3    H116500   5.373   3.082   0.159  0.8873 -0.6130 -0.6479
 5512TIP3    H216501   5.452   3.174   0.068 -0.2925  0.2250 -0.8483
 5513TIP3   OH216502   1.496   1.007   1.047 -0.4888 -0.3407  0.5507
 5513TIP3    H116503   1.406   1.036   1.035 -0.8113 -1.3906  0.3779
 5513TIP3    H216504   1.489   0.920   1.087  0.4631  0.0588  1.6627
 5514TIP3   OH216505   3.875   0.939   2.780 -0.2559 -0.4704  0.2078
 5514TIP3    H116506   3.862   1.021   2.828 -0.4144 -0.5764  0.3485
 5514TIP3    H216507   3.791   0.923   2.737 -0.0141 -0.2090 -0.3698
 5515TIP3   OH216508   6.538   2.617   0.026  0.5797  0.0066  0.5034
 5515TIP3    H116509   6.444   2.604   0.040  0.3374  0.8960 -0.1913
 5515TIP3    H216510   6.577   2.603   0.113  0.0253 -1.9560  0.4899
 5516TIP3   OH216511   6.610   4.831   0.751 -0.1898  0.2305  0.6754
 5516TIP3    H116512   6.532   4.877   0.719 -0.8345 -1.9097 -1.0648
 5516TIP3    H216513   6.677   4.900   0.758 -1.7028  1.7899  0.3408
 5517TIP3   OH216514   6.459   1.940   4.130  0.3259 -0.4974 -0.2445
 5517TIP3    H116515   6.520   1.926   4.202 -0.0570  0.5819  0.3173
 5517TIP3    H216516   6.495   2.014   4.081 -0.9909  0.8061  0.6626
 5518TIP3   OH216517   0.670   6.368   0.763 -0.4436 -0.1526  0.2073
 5518TIP3    H116518   0.760   6.403   0.762 -0.9633  1.2846  1.3275
 5518TIP3    H216519   0.649   6.358   0.856 -1.9585  0.9541  0.0246
 5519TIP3   OH216520   3.902   5.044   5.347  0.3511  0.8890  0.0319
 5519TIP3    H116521   3.821   5.000   5.322  0.6208 -0.2820  1.1127
 5519TIP3    H216522   3.950   4.979   5.400  0.4759  2.6421  2.2477
 5520TIP3   OH216523   5.191   5.235   0.853  0.0160 -0.2406 -0.3345
 5520TIP3    H116524   5.232   5.316   0.823  2.2524 -1.8448 -1.9446
 5520TIP3    H216525   5.189   5.179   0.775 -0.1013 -2.2621  1.0468
 5521TIP3   OH216526   3.495   2.117   5.553 -0.0445  0.3727 -0.1636
 5521TIP3    H116527   3.432   2.150   5.617  1.1622 -0.0352  1.2905
 5521TIP3    H216528   3.577   2.108   5.601  0.8262 -0.3305 -1.6745
 5522TIP3   OH216529   5.489   5.318   4.134  0.3322 -0.4150 -0.6659
 5522TIP3    H116530   5.463   5.344   4.046 -0.9156 -1.2358 -0.5644
 5522TIP3    H216531   5.439   5.239   4.152  1.2669 -0.7963  0.4379
 5523TIP3   OH216532   6.296   4.326   5.197  0.1809 -0.4259  0.4160
 5523TIP3    H116533   6.290   4.314   5.102 -0.2174 -2.7897  0.6802
 5523TIP3    H216534   6.287   4.421   5.210  2.0363  0.1853 -2.0131
 5524TIP3   OH216535   1.592   6.015   0.581 -0.4728 -0.2265  0.2897
 5524TIP3    H116536   1.577   5.962   0.660 -0.8106  0.5037  0.7340
 5524TIP3    H216537   1.650   6.086   0.611 -0.4130 -0.0796 -0.1745
 5525TIP3   OH216538   6.533   1.421   4.413  0.2822  0.2426  0.0230
 5525TIP3    H116539   6.468   1.386   4.474 -0.4384 -0.7331 -1.2690
 5525TIP3    H216540   6.487   1.491   4.367  0.3595  0.0196 -0.3989
 5526TIP3   OH216541   6.518   6.377   2.868 -0.0138  0.4217  0.0358
 5526TIP3    H116542   6.433   6.398   2.909  0.0862 -1.6541  1.4852
 5526TIP3    H216543   6.570   6.456   2.878 -1.3780  1.3166  0.2635
 5527TIP3   OH216544   3.928   4.385   3.324 -0.6614 -0.1393  0.2960
 5527TIP3    H116545   3.935   4.291   3.337 -2.2939 -0.3859 -0.2383
 5527TIP3    H216546   3.914   4.421   3.411 -1.5256 -0.5908  0.3584
 5528TIP3   OH216547   1.297   0.538   3.358  0.5430 -0.2575 -0.0395
 5528TIP3    H116548   1.267   0.449   3.380 -0.0908  0.3039  1.5334
 5528TIP3    H216549   1.360   0.560   3.427  1.7957 -0.0038 -1.2290
 5529TIP3   OH216550   0.120   1.044   3.072 -0.0958 -0.5588 -0.3647
 5529TIP3    H116551   0.131   1.027   2.979 -0.6658  1.0909 -0.7579
 5529TIP3    H216552   0.037   1.002   3.094 -1.2240  1.0997 -1.2050
 5530TIP3   OH216553   5.985   1.551   0.399 -0.3085  0.6861  0.0006
 5530TIP3    H116554   5.995   1.641   0.369  0.3019  1.3061  1.9697
 5530TIP3    H216555   5.890   1.536   0.395 -0.5624  1.8992  0.9598
 5531TIP3   OH216556   5.688   4.639   4.249  0.2193 -0.2235  0.1766
 5531TIP3    H116557   5.659   4.730   4.239 -1.1025 -0.5343  0.9434
 5531TIP3    H216558   5.740   4.640   4.329 -2.5763 -0.6904  2.1580
 5532TIP3   OH216559   3.236   6.336   4.794 -0.1676 -0.4091  0.2196
 5532TIP3    H116560   3.276   6.253   4.821 -1.0307 -1.0602 -0.4465
 5532TIP3    H216561   3.142   6.317   4.790 -0.6222  1.1813  2.0703
 5533TIP3   OH216562   1.974   1.837   1.107 -0.0358  0.0172 -0.1871
 5533TIP3    H116563   1.998   1.869   1.020  0.3392  0.7784  0.1841
 5533TIP3    H216564   2.042   1.872   1.165 -0.9265  0.5257  0.5833
 5534TIP3   OH216565   5.681   2.684   4.438  0.1889  0.3113  0.2135
 5534TIP3    H116566   5.608   2.733   4.476  0.2964 -0.3744  1.3341
 5534TIP3    H216567   5.641   2.627   4.372  0.0620  1.8576 -1.1011
 5535TIP3   OH216568   1.370   5.055   5.542  0.5433  0.7920  0.5751
 5535TIP3    H116569   1.313   4.981   5.520 -0.7571  1.6260  1.0314
 5535TIP3    H216570   1.453   5.033   5.501  0.1399 -0.8323  0.5280
 5536TIP3   OH216571   3.048   1.831   2.707  0.0826  0.5934 -0.0823
 5536TIP3    H116572   3.032   1.815   2.800 -1.7596  2.4604  0.0127
 5536TIP3    H216573   2.979   1.892   2.682  2.3698  2.6059 -1.9299
 5537TIP3   OH216574   6.906   4.994   0.129  0.4792  0.7990 -0.2777
 5537TIP3    H116575   6.890   5.087   0.120  4.4579  1.5681 -1.5818
 5537TIP3    H216576   6.873   4.971   0.216 -3.3486  2.5643 -1.0562
 5538TIP3   OH216577   2.210   4.819   3.097  0.1260 -0.7508  0.5327
 5538TIP3    H116578   2.129   4.768   3.088 -2.5447  3.2798 -1.7325
 5538TIP3    H216579   2.248   4.818   3.009  0.1381  0.7816  0.4932
 5539TIP3   OH216580   1.778   1.442   3.393  0.1509  0.2371 -0.0681
 5539TIP3    H116581   1.701   1.466   3.444  2.5942  2.8246  2.7696
 5539TIP3    H216582   1.775   1.501   3.317  0.6282  2.2767  1.4206
 5540TIP3   OH216583   5.752   6.012   1.751 -0.1636 -0.0428 -0.0522
 5540TIP3    H116584   5.832   6.018   1.699 -0.8095  0.5996 -1.0047
 5540TIP3    H216585   5.767   6.072   1.824 -0.3659  1.2537 -1.0537
 5541TIP3   OH216586   0.132   5.657   3.275  0.9150 -0.6598  0.0563
 5541TIP3    H116587   0.092   5.682   3.192 -0.5708 -0.4345  0.8130
 5541TIP3    H216588   0.065   5.673   3.341  2.0415 -0.8691  1.3171
 5542TIP3   OH216589   1.768   6.081   1.288  0.2399 -0.4457 -0.0326
 5542TIP3    H116590   1.696   6.018   1.291 -0.5171  0.4482  1.4524
 5542TIP3    H216591   1.799   6.087   1.378  1.8334 -0.3909 -0.5539
 5543TIP3   OH216592   3.319   0.264   1.201  0.4953 -0.1035 -0.0783
 5543TIP3    H116593   3.287   0.331   1.261  1.0843 -0.3755  0.5562
 5543TIP3    H216594   3.380   0.212   1.254  0.8019 -0.5274 -0.8353
 5544TIP3   OH216595   1.071   2.349   4.922 -0.0751  0.0402 -0.3252
 5544TIP3    H116596   0.998   2.336   4.861 -0.5584  0.3683  0.1719
 5544TIP3    H216597   1.029   2.361   5.007  0.6295 -2.0877  0.3922
 5545TIP3   OH216598   5.364   0.256   3.340  0.0704 -0.3379 -0.2696
 5545TIP3    H116599   5.389   0.164   3.331 -1.6576 -0.7301 -1.8428
 5545TIP3    H216600   5.323   0.262   3.426  0.3951 -0.9888 -0.0640
 5546TIP3   OH216601   4.902   0.968   2.805 -0.0426  0.0354 -0.3461
 5546TIP3    H116602   4.812   0.950   2.833 -0.0356  0.5593  0.0375
 5546TIP3    H216603   4.904   1.062   2.787  0.4547  0.0497 -0.2506
 5547TIP3   OH216604   2.653   5.823   2.327 -0.3531 -0.3873  0.0457
 5547TIP3    H116605   2.592   5.758   2.293 -0.9562  0.1001  0.1745
 5547TIP3    H216606   2.721   5.772   2.370  1.2953 -1.1143 -3.1393
 5548TIP3   OH216607   1.441   4.781   1.103 -0.2291  0.3291 -0.6492
 5548TIP3    H116608   1.513   4.717   1.103  1.3293  1.9452 -2.2726
 5548TIP3    H216609   1.465   4.844   1.171 -0.8274  0.1472 -0.2669
 5549TIP3   OH216610   6.299   0.438   0.742  0.5410  0.3107  0.1622
 5549TIP3    H116611   6.248   0.372   0.788  0.3328  1.4218  1.6029
 5549TIP3    H216612   6.249   0.519   0.753  0.2323  0.5784 -2.4604
 5550TIP3   OH216613   4.698   6.446   4.408  0.0077  0.0323  0.4696
 5550TIP3    H116614   4.761   6.513   4.436 -0.4596  1.3294 -1.3698
 5550TIP3    H216615   4.747   6.391   4.347 -0.3821  0.5449 -0.3261
 5551TIP3   OH216616   2.533   2.528   0.554 -0.2226  0.1289  0.1827
 5551TIP3    H116617   2.440   2.507   0.556 -0.2617  0.2677 -0.1445
 5551TIP3    H216618   2.559   2.516   0.463  0.4932 -1.6503  0.5840
 5552TIP3   OH216619   4.235   0.044   2.500 -0.6796  0.0065 -0.1687
 5552TIP3    H116620   4.159   0.017   2.448 -0.8772  0.7814 -0.2956
 5552TIP3    H216621   4.232  -0.013   2.577 -1.4399  0.0722 -0.1356
 5553TIP3   OH216622   0.993   1.881   0.822 -0.0614  0.8709 -0.8207
 5553TIP3    H116623   0.965   1.967   0.789 -0.5672  1.5999  1.3479
 5553TIP3    H216624   0.915   1.826   0.812 -0.0621  0.9534 -1.2763
 5554TIP3   OH216625   4.884   3.307   4.512  0.1669 -0.1603  0.3276
 5554TIP3    H116626   4.915   3.218   4.497 -0.1730 -0.1920 -0.1883
 5554TIP3    H216627   4.908   3.325   4.603  1.6390 -0.2097 -0.0276
 5555TIP3   OH216628   4.883   4.149   5.138 -0.3924  0.0695  0.1727
 5555TIP3    H116629   4.948   4.079   5.139 -0.6420 -0.1632  0.6695
 5555TIP3    H216630   4.823   4.126   5.209 -0.1226  1.1165  0.7687
 5556TIP3   OH216631   5.019   5.558   0.330 -0.2870  0.2624  0.6058
 5556TIP3    H116632   5.058   5.513   0.255 -2.7489 -0.5518 -0.2946
 5556TIP3    H216633   4.939   5.598   0.295  0.3758  3.0669  2.0153
 5557TIP3   OH216634   6.680   1.968   4.978  0.0098 -0.2059  0.0888
 5557TIP3    H116635   6.681   1.927   5.065 -0.9535 -1.6548 -0.5323
 5557TIP3    H216636   6.587   1.968   4.953  0.2843  0.1144 -0.9789
 5558TIP3   OH216637   0.946   0.874   4.009  0.4407  0.0350 -0.0721
 5558TIP3    H116638   0.899   0.891   3.927 -0.6936 -1.2734  0.2612
 5558TIP3    H216639   0.965   0.960   4.045 -1.4325  0.6193 -0.3990
 5559TIP3   OH216640   3.845   3.442   5.167 -0.0792  0.2159  0.3789
 5559TIP3    H116641   3.778   3.428   5.100 -1.3737  0.1044  1.6434
 5559TIP3    H216642   3.855   3.357   5.209  0.0822  0.4809  0.8887
 5560TIP3   OH216643   4.902   3.609   3.776  0.4165 -0.2741  0.2681
 5560TIP3    H116644   4.822   3.577   3.735  0.2564  0.1374  0.2529
 5560TIP3    H216645   4.902   3.569   3.863  0.5534 -0.8303  0.0160
 5561TIP3   OH216646   6.095   5.769   0.126 -0.1580 -0.0889 -0.0872
 5561TIP3    H116647   6.069   5.677   0.117  0.7829 -0.2381 -1.6384
 5561TIP3    H216648   6.186   5.771   0.096  0.0236  1.2494  0.5245
 5562TIP3   OH216649   1.564   1.137   2.907 -0.0047  0.6079 -0.3935
 5562TIP3    H116650   1.488   1.123   2.963 -0.3672  2.2581 -0.4310
 5562TIP3    H216651   1.566   1.060   2.850 -1.2633  0.2364  0.0305
 5563TIP3   OH216652   1.978   5.083   3.117  0.0097  0.2338 -0.1796
 5563TIP3    H116653   1.943   5.156   3.169 -0.5363 -0.5233  0.5420
 5563TIP3    H216654   1.978   5.009   3.177  0.2507 -0.4427 -0.9998
 5564TIP3   OH216655   3.645   5.331   5.475  0.2921 -0.1196 -0.3226
 5564TIP3    H116656   3.736   5.324   5.505  0.6899  2.3027 -0.7401
 5564TIP3    H216657   3.640   5.274   5.399  1.3954 -0.4650 -0.1480
 5565TIP3   OH216658   4.524   5.884   4.383 -0.0248 -0.2940 -0.2140
 5565TIP3    H116659   4.477   5.938   4.446  0.4947  2.4362 -2.0283
 5565TIP3    H216660   4.456   5.855   4.321  0.1302  1.0027 -1.0303
 5566TIP3   OH216661   2.382   2.371   5.753 -1.0017  0.1848  0.2747
 5566TIP3    H116662   2.328   2.300   5.789 -0.3793 -0.3271  0.2135
 5566TIP3    H216663   2.462   2.327   5.722 -1.8096  0.4792 -2.4580
 5567TIP3   OH216664   4.806   6.146   4.876  0.2390 -0.8168  0.3142
 5567TIP3    H116665   4.736   6.130   4.813  0.7691  0.4411 -0.6227
 5567TIP3    H216666   4.765   6.196   4.946  0.3395  0.6860 -0.6478
 5568TIP3   OH216667   0.461   1.520   5.519  0.3126  0.4509 -0.0151
 5568TIP3    H116668   0.368   1.538   5.510  0.2438  0.2230  0.2348
 5568TIP3    H216669   0.481   1.541   5.610  0.3759 -0.0712  0.0944
 5569TIP3   OH216670   2.424   0.347   0.924  0.0568 -0.0115  0.2764
 5569TIP3    H116671   2.372   0.427   0.925  0.0056  0.0834 -2.4761
 5569TIP3    H216672   2.497   0.367   0.865  1.7177 -1.0450  1.8913
 5570TIP3   OH216673   6.266   6.737   1.323 -0.2356 -0.0803 -1.0205
 5570TIP3    H116674   6.218   6.663   1.285 -0.9924  0.0252 -0.3032
 5570TIP3    H216675   6.230   6.746   1.412  1.8211 -0.6432 -0.0707
 5571TIP3   OH216676   2.240   5.914   5.463  0.3144  0.0574  0.3071
 5571TIP3    H116677   2.267   5.948   5.378 -0.4432 -1.8237 -0.7585
 5571TIP3    H216678   2.147   5.936   5.469 -0.4759 -2.5755 -0.9003
 5572TIP3   OH216679   6.907   6.112   5.548  0.0705  0.1410  0.2292
 5572TIP3    H116680   6.835   6.147   5.600  1.3379 -0.4018  2.5057
 5572TIP3    H216681   6.869   6.037   5.502 -0.6654 -0.7679  2.1866
 5573TIP3   OH216682   0.059   6.170   0.144  0.5457 -0.1713  0.0489
 5573TIP3    H116683   0.024   6.081   0.144  0.7583 -0.2679  1.0542
 5573TIP3    H216684   0.056   6.197   0.236 -0.1324  1.1023 -0.3186
 5574TIP3   OH216685   3.628   4.515   0.744  0.4277 -0.0455 -0.6233
 5574TIP3    H116686   3.627   4.566   0.663  1.0331  0.6692 -0.1915
 5574TIP3    H216687   3.661   4.575   0.810  1.0458 -0.9623 -0.0687
 5575TIP3   OH216688   2.812   3.563   3.876  0.1381 -0.3148 -0.0999
 5575TIP3    H116689   2.791   3.561   3.970  0.3061 -0.0825 -0.0583
 5575TIP3    H216690   2.808   3.655   3.852 -2.0901 -0.5359 -0.8153
 5576TIP3   OH216691   3.418   4.375   4.261 -0.2616 -0.8467 -0.0096
 5576TIP3    H116692   3.353   4.358   4.193 -1.3350  0.0571  0.7497
 5576TIP3    H216693   3.367   4.380   4.342  0.4770  1.5808  0.3908
 5577TIP3   OH216694   2.683   6.512   4.815  0.2484  0.5666  0.1769
 5577TIP3    H116695   2.637   6.430   4.834 -1.6081  1.2885 -0.9448
 5577TIP3    H216696   2.743   6.524   4.889  0.0913 -1.4531  0.6839
 5578TIP3   OH216697   0.451   6.538   4.796  0.3251 -0.3579  0.1489
 5578TIP3    H116698   0.508   6.615   4.789  0.6234 -0.6870 -1.4423
 5578TIP3    H216699   0.447   6.519   4.889  0.7745  1.1991  0.5143
 5579TIP3   OH216700   3.122   5.778   5.678 -0.2512  0.0338  0.2194
 5579TIP3    H116701   3.030   5.755   5.675 -0.2322  0.0468 -0.8027
 5579TIP3    H216702   3.155   5.738   5.758 -0.9559 -0.6905  0.1532
 5580TIP3   OH216703   2.754   3.011   2.025  0.0322 -0.0663  0.4399
 5580TIP3    H116704   2.810   3.000   2.102  3.7889  2.3983 -1.6435
 5580TIP3    H216705   2.760   2.928   1.978  1.4723 -0.1035  0.6367
 5581TIP3   OH216706   5.552   5.507   5.014 -0.0008  1.0164  0.0654
 5581TIP3    H116707   5.530   5.560   4.937  0.3819 -0.6544 -1.2618
 5581TIP3    H216708   5.474   5.511   5.069 -0.8719  1.0521 -1.1196
 5582TIP3   OH216709   3.625   0.266   3.381  0.0838  0.2492  0.0524
 5582TIP3    H116710   3.658   0.254   3.292  0.1111 -2.2970  0.3361
 5582TIP3    H216711   3.533   0.290   3.369 -0.4954 -2.0660 -0.7431
 5583TIP3   OH216712   3.488   3.275   2.510 -0.1426 -0.0824  0.0396
 5583TIP3    H116713   3.475   3.369   2.498 -1.4708 -0.1169  0.9609
 5583TIP3    H216714   3.566   3.268   2.564 -0.1766  0.5068  0.1679
 5584TIP3   OH216715   3.778   3.794   3.065  0.1093 -0.6635  0.5338
 5584TIP3    H116716   3.710   3.842   3.017  1.2471 -0.6648 -1.1545
 5584TIP3    H216717   3.811   3.730   3.002  2.7328  0.3536  0.7732
 5585TIP3   OH216718   1.130   4.671   5.739  0.0204  0.5343  0.1393
 5585TIP3    H116719   1.147   4.610   5.810 -0.6182  0.6173  0.3758
 5585TIP3    H216720   1.158   4.625   5.660  0.1475  0.1934  0.3837
 5586TIP3   OH216721   3.705   6.492   5.115  0.7591 -0.0904  0.0826
 5586TIP3    H116722   3.664   6.477   5.200  2.8321 -0.0611  1.1745
 5586TIP3    H216723   3.787   6.537   5.137  0.2865  2.0634 -2.1331
 5587TIP3   OH216724   2.214   4.934   0.810  0.3072  0.0131 -0.0708
 5587TIP3    H116725   2.226   4.849   0.767  0.9523 -0.0681  0.2562
 5587TIP3    H216726   2.296   4.949   0.857 -0.0135  0.5623  0.3278
 5588TIP3   OH216727   2.083   0.494   2.192 -0.4611 -0.0484 -0.3803
 5588TIP3    H116728   2.175   0.493   2.219 -1.4767 -0.8438  3.8089
 5588TIP3    H216729   2.051   0.407   2.214 -3.2437  1.6116  3.3073
 5589TIP3   OH216730   5.332   5.877   4.705 -0.1821  0.0443  1.1087
 5589TIP3    H116731   5.370   5.798   4.666 -2.4450 -1.3497  1.5660
 5589TIP3    H216732   5.262   5.902   4.645  1.4183  2.6937  0.1612
 5590TIP3   OH216733   4.806   0.730   4.859 -0.3001  0.0980 -0.1260
 5590TIP3    H116734   4.775   0.798   4.799 -0.8672  1.2426  1.3961
 5590TIP3    H216735   4.726   0.685   4.887 -0.1122 -0.0127  0.2456
 5591TIP3   OH216736   3.584   0.904   2.112  0.3396  0.3707 -0.0106
 5591TIP3    H116737   3.573   0.853   2.032 -3.3175  0.2065  0.4215
 5591TIP3    H216738   3.524   0.864   2.174  0.2611  2.8101  1.6160
 5592TIP3   OH216739   3.846   2.604   2.745 -0.1102 -0.1523 -0.5906
 5592TIP3    H116740   3.803   2.679   2.788 -1.4122 -0.3103 -1.5508
 5592TIP3    H216741   3.820   2.529   2.798 -0.3251 -0.1499 -0.6934
 5593TIP3   OH216742   3.625   6.666   4.296 -0.3059 -0.6015 -0.2936
 5593TIP3    H116743   3.612   6.751   4.255 -1.2594 -1.7149 -2.4990
 5593TIP3    H216744   3.680   6.684   4.371 -0.1761  1.9026 -0.8876
 5594TIP3   OH216745   0.704   4.763   2.917  0.2248 -0.0187 -0.3324
 5594TIP3    H116746   0.640   4.785   2.849  0.5438  2.4235  0.0388
 5594TIP3    H216747   0.789   4.774   2.875  0.4374  1.9780  0.4958
 5595TIP3   OH216748   5.548   3.746   5.827  0.2665 -0.5695 -0.1480
 5595TIP3    H116749   5.531   3.744   5.922  1.6225 -0.2765  0.1229
 5595TIP3    H216750   5.463   3.730   5.787 -0.2991 -0.8634  1.1277
 5596TIP3   OH216751   0.003   5.691   0.973  0.6012 -0.2452  0.0505
 5596TIP3    H116752   0.071   5.626   0.992  0.5167 -0.1518  0.7017
 5596TIP3    H216753  -0.072   5.663   1.026  0.1752 -0.2595 -0.5458
 5597TIP3   OH216754   2.277   6.359   1.003  0.2103 -0.3548  0.0115
 5597TIP3    H116755   2.361   6.403   0.992 -0.3656  1.3279  1.7485
 5597TIP3    H216756   2.296   6.286   1.062  0.7531 -1.1016 -1.0573
 5598TIP3   OH216757   5.660   3.289   2.582  0.2584 -0.1338 -0.2334
 5598TIP3    H116758   5.593   3.280   2.514  0.8348 -0.3058 -0.7882
 5598TIP3    H216759   5.649   3.378   2.615 -0.0600 -0.0651 -0.5178
 5599TIP3   OH216760   6.597   1.459   4.753  0.1150  0.0634 -0.6904
 5599TIP3    H116761   6.675   1.469   4.700 -0.5276 -0.7809 -1.8357
 5599TIP3    H216762   6.580   1.365   4.754  1.2832 -0.2358  2.7903
 5600TIP3   OH216763   2.707   6.488   1.593 -0.0653 -0.3756  0.5305
 5600TIP3    H116764   2.787   6.468   1.544  0.4717 -1.9780  1.9511
 5600TIP3    H216765   2.714   6.434   1.672 -0.5826  2.5420  2.7183
 5601TIP3   OH216766   3.534   0.534   2.292  0.2622 -0.0951 -0.3928
 5601TIP3    H116767   3.475   0.610   2.296  1.0854  0.5679 -0.4826
 5601TIP3    H216768   3.484   0.463   2.333 -0.4717  0.5278 -0.1738
 5602TIP3   OH216769   0.264   2.635   2.143  0.0686 -0.1021 -0.0120
 5602TIP3    H116770   0.285   2.717   2.099  0.8272  0.7837  1.9082
 5602TIP3    H216771   0.172   2.620   2.122 -0.0318  1.1346 -0.5512
 5603TIP3   OH216772   1.483   2.114   4.233 -0.4115  0.0561 -0.1414
 5603TIP3    H116773   1.475   2.062   4.313  0.8022  0.6167  0.3558
 5603TIP3    H216774   1.572   2.149   4.235 -0.7309  0.9923 -1.1779
 5604TIP3   OH216775   5.090   1.965   0.683 -0.4396  0.3887  0.3331
 5604TIP3    H116776   5.032   2.003   0.750 -0.9305 -0.3464  0.3355
 5604TIP3    H216777   5.103   1.875   0.712 -0.5177  0.1161 -0.4719
 5605TIP3   OH216778   6.683   0.486   4.612 -0.2080 -0.1594  0.5438
 5605TIP3    H116779   6.698   0.567   4.661 -0.9325  0.2711  0.0788
 5605TIP3    H216780   6.598   0.500   4.569  0.1400 -0.7511 -0.3655
 5606TIP3   OH216781   4.689   2.391   3.477 -0.1358 -0.2900  0.1392
 5606TIP3    H116782   4.681   2.312   3.423  0.0572  0.3972 -0.9432
 5606TIP3    H216783   4.689   2.463   3.413  1.7306  0.4808  0.9441
 5607TIP3   OH216784   7.041   4.482   3.796 -0.2601 -0.3043  0.0896
 5607TIP3    H116785   7.074   4.457   3.882  2.2884 -0.3533 -0.8010
 5607TIP3    H216786   6.994   4.405   3.765 -1.2347 -0.2730  1.4139
 5608TIP3   OH216787   6.873   2.834   0.867  0.0588  0.0111 -0.2218
 5608TIP3    H116788   6.868   2.926   0.894  2.1337  0.8148 -2.1919
 5608TIP3    H216789   6.954   2.829   0.816  0.6961 -3.2586  0.9235
 5609TIP3   OH216790   4.297   5.865   5.769 -0.5251 -0.1652 -0.1872
 5609TIP3    H116791   4.379   5.903   5.737 -0.7443 -0.6508 -1.3767
 5609TIP3    H216792   4.319   5.830   5.856  0.5105 -0.2201 -0.4571
 5610TIP3   OH216793   7.188   0.643   1.690  0.3891 -0.4815  0.0780
 5610TIP3    H116794   7.171   0.609   1.778 -0.4282 -0.2910  0.0024
 5610TIP3    H216795   7.119   0.604   1.636  0.1224  0.3822 -0.2233
 5611TIP3   OH216796   6.696   6.295   0.287 -0.1261 -0.1819 -0.1118
 5611TIP3    H116797   6.678   6.389   0.279 -0.8398 -0.0537  2.2253
 5611TIP3    H216798   6.782   6.284   0.246 -0.8431  1.1127 -2.1074
 5612TIP3   OH216799   4.744   2.732   5.325  0.0851  0.0042  0.1019
 5612TIP3    H116800   4.671   2.751   5.384  0.8520  2.2748  0.3965
 5612TIP3    H216801   4.822   2.756   5.375  1.0738 -2.1352 -0.2998
 5613TIP3   OH216802   1.723   4.562   2.018 -0.2423  0.8826  0.3493
 5613TIP3    H116803   1.681   4.539   1.935  2.0641  0.0218 -0.6346
 5613TIP3    H216804   1.779   4.636   1.997  1.1587  0.0055  0.8684
 5614TIP3   OH216805   6.085   3.008   1.289 -0.5936 -0.3722  0.1482
 5614TIP3    H116806   6.065   2.935   1.230 -1.1523  0.3893 -0.6474
 5614TIP3    H216807   6.085   3.085   1.231 -2.0714  0.5314  1.2720
 5615TIP3   OH216808   3.234   6.534   0.413  0.0743  1.1057  0.1184
 5615TIP3    H116809   3.173   6.527   0.339  2.0262 -0.4278 -1.4880
 5615TIP3    H216810   3.294   6.604   0.388  2.4349 -1.1990 -1.2587
 5616TIP3   OH216811   3.545   1.273   2.858 -0.6808 -0.2046 -0.0308
 5616TIP3    H116812   3.535   1.352   2.911 -0.3661  1.9290 -2.8839
 5616TIP3    H216813   3.457   1.251   2.829 -0.5013  0.9655 -1.6053
 5617TIP3   OH216814   0.633   3.020   1.340  0.0604  0.3497  0.2494
 5617TIP3    H116815   0.554   2.984   1.301  0.7390 -2.8796  1.4480
 5617TIP3    H216816   0.691   3.038   1.266 -1.1181  0.9735 -0.5318
 5618TIP3   OH216817   1.594   0.490   4.137  0.3017  0.1293 -0.2027
 5618TIP3    H116818   1.549   0.452   4.061  0.3537 -0.2141 -0.0641
 5618TIP3    H216819   1.526   0.541   4.182  0.2625  0.3022 -0.4602
 5619TIP3   OH216820   1.804   4.302   2.146 -0.3400  0.0565  0.3248
 5619TIP3    H116821   1.891   4.275   2.176 -0.0592  1.0707  0.4719
 5619TIP3    H216822   1.815   4.394   2.121 -1.2064 -0.0132 -0.3488
 5620TIP3   OH216823   3.391   2.231   2.093 -0.0491 -0.3576  0.6152
 5620TIP3    H116824   3.471   2.241   2.146 -0.9246  0.4152  1.8571
 5620TIP3    H216825   3.321   2.259   2.152 -1.3422 -1.8784 -0.1399
 5621TIP3   OH216826   4.508   0.938   0.471  0.3397  0.1495 -0.2018
 5621TIP3    H116827   4.550   0.999   0.410 -0.7895  0.9707 -0.1881
 5621TIP3    H216828   4.420   0.927   0.436 -0.6760  1.4113  1.7766
 5622TIP3   OH216829   1.039   6.127   5.339  0.2886 -0.2565 -0.3859
 5622TIP3    H116830   1.008   6.171   5.418  1.7368  2.2287 -1.0977
 5622TIP3    H216831   1.113   6.073   5.369 -0.5414 -1.0738  0.2540
 5623TIP3   OH216832   1.698   2.928   0.923  0.5076  0.1324 -0.1200
 5623TIP3    H116833   1.739   3.014   0.920  2.1274 -0.6009 -0.6980
 5623TIP3    H216834   1.722   2.893   1.009 -2.3371  1.1912  1.2287
 5624TIP3   OH216835   2.160   0.179   0.803 -0.4203  0.3090 -0.2756
 5624TIP3    H116836   2.189   0.217   0.886  2.8879 -2.8200  0.2661
 5624TIP3    H216837   2.225   0.210   0.739 -1.2181  0.3245 -1.1013
 5625TIP3   OH216838   0.584   1.665   4.585 -0.8304 -0.2795  0.2898
 5625TIP3    H116839   0.545   1.677   4.499 -0.8956  2.0466  0.5725
 5625TIP3    H216840   0.671   1.629   4.567 -0.4231  1.2100 -0.8447
 5626TIP3   OH216841   3.543   5.944   2.471 -0.1667 -0.5001 -0.0232
 5626TIP3    H116842   3.451   5.926   2.450 -0.2186 -0.6285  0.3139
 5626TIP3    H216843   3.555   5.909   2.559  0.4158 -1.1873 -0.3709
 5627TIP3   OH216844   0.534   4.692   5.343  0.5159  0.5767 -0.4723
 5627TIP3    H116845   0.618   4.702   5.298  0.6556  0.1006 -0.3329
 5627TIP3    H216846   0.554   4.635   5.418 -0.1902 -0.7077 -1.2225
 5628TIP3   OH216847   5.401   3.406   4.305  0.6592  0.3769 -0.3917
 5628TIP3    H116848   5.356   3.324   4.291 -0.4118  0.8368  0.2480
 5628TIP3    H216849   5.443   3.426   4.221 -0.6059  0.1009 -1.1071
 5629TIP3   OH216850   4.006   2.716   1.216 -0.0699  0.1792 -0.5229
 5629TIP3    H116851   4.025   2.632   1.173 -0.7449  0.8205 -2.1558
 5629TIP3    H216852   3.910   2.721   1.216 -0.0789  2.0655 -2.8857
 5630TIP3   OH216853   3.925   3.850   3.271  0.9369 -0.1316 -0.0810
 5630TIP3    H116854   3.975   3.770   3.288  2.3762  0.0690 -2.8018
 5630TIP3    H216855   3.877   3.831   3.191  2.5294  2.1559 -1.7111
 5631TIP3   OH216856   1.946   0.059   1.981 -0.6947 -0.0354 -0.1045
 5631TIP3    H116857   1.868   0.107   2.010  0.0145  0.2831  1.3738
 5631TIP3    H216858   1.985   0.026   2.062  0.6714 -0.2511 -0.8249
 5632TIP3   OH216859   4.200   5.860   4.581  0.1972  0.0212  0.6244
 5632TIP3    H116860   4.187   5.780   4.531 -0.6495 -0.3626  1.4265
 5632TIP3    H216861   4.164   5.929   4.525 -0.4409 -0.3552  0.5650
 5633TIP3   OH216862   6.980   3.285   3.346  0.0605  0.0587 -0.0056
 5633TIP3    H116863   7.022   3.320   3.267 -1.1305  0.3738 -0.5233
 5633TIP3    H216864   6.992   3.354   3.412 -0.5064  0.5921 -0.4430
 5634TIP3   OH216865   5.011   2.746   2.100 -0.3146 -0.2773 -0.3300
 5634TIP3    H116866   4.919   2.762   2.079  0.0536 -1.3005 -3.1873
 5634TIP3    H216867   5.009   2.679   2.169 -1.6363  1.4918  1.4910
 5635TIP3   OH216868   4.883   4.783   5.585  0.1579 -0.4139  0.3589
 5635TIP3    H116869   4.935   4.806   5.508  1.1619  0.2704  1.2189
 5635TIP3    H216870   4.878   4.864   5.636 -1.6975 -0.4727  0.3578
 5636TIP3   OH216871   1.442   6.628   0.439  0.1188  0.7177  1.2152
 5636TIP3    H116872   1.427   6.627   0.345  0.0620  1.1959  1.2193
 5636TIP3    H216873   1.491   6.709   0.455  0.7838  0.2751  1.4936
 5637TIP3   OH216874   4.408   4.692   3.191  0.4745  0.0881  0.0856
 5637TIP3    H116875   4.337   4.752   3.215  0.9615  0.0032  1.8580
 5637TIP3    H216876   4.378   4.606   3.219  0.8262 -0.1238 -0.1700
 5638TIP3   OH216877   2.760   1.656   0.435 -0.0220 -0.6616  0.4582
 5638TIP3    H116878   2.837   1.675   0.489  0.2887 -1.0353  0.1487
 5638TIP3    H216879   2.772   1.710   0.356 -1.3622  1.2896  1.5053
 5639TIP3   OH216880   4.129   5.256   4.509  0.0056 -0.4564 -0.1470
 5639TIP3    H116881   4.049   5.267   4.457 -0.1488  1.7279  0.4958
 5639TIP3    H216882   4.099   5.258   4.600  0.5232 -2.2866  0.1108
 5640TIP3   OH216883   5.929   4.254   1.895  0.4216  0.0856  0.2430
 5640TIP3    H116884   6.022   4.230   1.906  0.3375 -0.0665  0.6432
 5640TIP3    H216885   5.912   4.318   1.964  0.1150 -0.2177  0.4543
 5641TIP3   OH216886   2.274   2.340   2.877  0.3070 -0.7058 -0.1551
 5641TIP3    H116887   2.365   2.369   2.889 -0.2080  0.4741  1.3340
 5641TIP3    H216888   2.273   2.298   2.791  1.6398  1.9108 -1.6026
 5642TIP3   OH216889   5.762   1.698   2.178 -0.1196 -0.1789  0.1537
 5642TIP3    H116890   5.770   1.605   2.156 -0.4515 -0.1258 -0.1931
 5642TIP3    H216891   5.683   1.727   2.134 -0.5519  0.0454  1.0565
 5643TIP3   OH216892   3.498   4.687   0.136 -0.5919 -0.0754 -0.3716
 5643TIP3    H116893   3.408   4.705   0.164 -0.8753 -2.0394  0.1389
 5643TIP3    H216894   3.511   4.594   0.155  1.8110  0.3178  0.2999
 5644TIP3   OH216895   7.062   1.015   3.128  0.6612 -0.0762  0.1223
 5644TIP3    H116896   7.048   1.013   3.033 -0.6729 -1.0393  0.3153
 5644TIP3    H216897   6.975   1.029   3.165  1.4360  2.5083  1.1899
 5645TIP3   OH216898   6.901   0.730   3.295  0.3125  0.1269 -0.1159
 5645TIP3    H116899   6.955   0.735   3.374 -1.3889  0.4688  1.0709
 5645TIP3    H216900   6.890   0.821   3.268  1.4435 -0.0227 -1.1884
 5646TIP3   OH216901   4.917   3.649   1.043  0.3320 -0.0126  0.7734
 5646TIP3    H116902   4.989   3.616   1.096  0.5283 -0.3109  0.3278
 5646TIP3    H216903   4.942   3.739   1.023  1.1035 -0.4423 -0.2668
 5647TIP3   OH216904   2.879   5.427   0.700 -0.0512  0.0206  0.2128
 5647TIP3    H116905   2.947   5.392   0.758 -0.0189 -0.3920 -0.0680
 5647TIP3    H216906   2.852   5.352   0.647 -0.9204  0.1170  0.5036
 5648TIP3   OH216907   6.439   1.103   5.527  0.3688  0.3535  0.3489
 5648TIP3    H116908   6.449   1.036   5.460  0.8960  0.3192  0.4609
 5648TIP3    H216909   6.464   1.060   5.609  0.2038  0.5343  0.4960
 5649TIP3   OH216910   4.616   6.212   2.802 -0.3745  0.1773  0.3207
 5649TIP3    H116911   4.666   6.160   2.864 -0.7347 -0.2497  0.2678
 5649TIP3    H216912   4.547   6.253   2.854 -0.0777  0.6189  0.3654
 5650TIP3   OH216913   6.607   2.689   4.471 -0.2126  0.4766  0.1143
 5650TIP3    H116914   6.612   2.723   4.382  0.9831  0.7400  0.2541
 5650TIP3    H216915   6.694   2.708   4.509 -0.7985  0.6631  1.4337
 5651TIP3   OH216916   2.770   0.694   3.359  0.3041 -0.3262  0.0871
 5651TIP3    H116917   2.683   0.689   3.319 -0.0620  0.2659  0.7922
 5651TIP3    H216918   2.769   0.629   3.428  0.3231 -0.1268  0.2770
 5652TIP3   OH216919   0.306   3.217   5.088 -0.4904  0.2376 -0.1117
 5652TIP3    H116920   0.314   3.262   5.004 -0.3347  0.0426 -0.2020
 5652TIP3    H216921   0.239   3.150   5.073  0.2857 -0.4897 -0.3843
 5653TIP3   OH216922   0.287   2.164   0.839 -0.2170  0.3463  0.3992
 5653TIP3    H116923   0.327   2.084   0.805 -1.1685 -0.4066  0.9753
 5653TIP3    H216924   0.236   2.198   0.766 -3.3640 -2.0055  1.2983
 5654TIP3   OH216925   3.483   3.868   3.376  0.2163 -0.5689  0.5786
 5654TIP3    H116926   3.443   3.947   3.411  1.8963  1.7559 -2.3099
 5654TIP3    H216927   3.577   3.879   3.390  0.8955  0.0032 -3.2835
 5655TIP3   OH216928   6.805   4.883   3.861  0.2050 -0.4102  0.2617
 5655TIP3    H116929   6.783   4.822   3.790  0.6229 -0.5125  0.2161
 5655TIP3    H216930   6.850   4.829   3.926  1.4119  0.0051 -0.1879
 5656TIP3   OH216931   6.113   1.109   2.444 -0.1579  0.1236  0.0894
 5656TIP3    H116932   6.086   1.018   2.433  0.2114 -0.2925  2.1003
 5656TIP3    H216933   6.133   1.116   2.538 -0.5505  2.3805  0.0502
 5657TIP3   OH216934   2.785   1.744   0.788  0.3413  0.2739 -0.1944
 5657TIP3    H116935   2.870   1.775   0.757  0.0997  0.6063 -0.5382
 5657TIP3    H216936   2.792   1.649   0.786 -0.1862  0.2012 -2.9126
 5658TIP3   OH216937   1.070   3.430   1.294  0.2441 -0.0035  0.1441
 5658TIP3    H116938   1.147   3.480   1.268 -0.5552  0.7304 -0.8883
 5658TIP3    H216939   1.021   3.488   1.352 -0.3284  0.1744 -0.4941
 5659TIP3   OH216940   6.010   5.119   2.213 -0.0195  0.1077 -0.5266
 5659TIP3    H116941   5.999   5.162   2.129  0.3740  0.9093 -0.1758
 5659TIP3    H216942   6.104   5.120   2.229 -0.0818 -0.1308 -0.1199
 5660TIP3   OH216943   1.250   5.225   4.859 -0.0470  0.4391  0.3281
 5660TIP3    H116944   1.319   5.158   4.858  0.1482  0.6540 -0.5000
 5660TIP3    H216945   1.297   5.308   4.870 -0.1288  0.6330 -0.7313
 5661TIP3   OH216946   2.896   0.730   0.059 -0.1960  0.2000 -0.0930
 5661TIP3    H116947   2.937   0.816   0.060  1.4391 -0.5309  1.3638
 5661TIP3    H216948   2.862   0.721  -0.030  0.0360  2.1237 -0.4266
 5662TIP3   OH216949   5.428   2.491   0.235  0.1400 -0.0895 -0.0848
 5662TIP3    H116950   5.341   2.453   0.230 -0.5135  1.4459 -1.5000
 5662TIP3    H216951   5.487   2.416   0.240 -1.1257 -1.2682 -1.5406
 5663TIP3   OH216952   5.230   2.053   4.491  0.2265 -0.1037 -0.4592
 5663TIP3    H116953   5.289   1.986   4.526  1.5103  1.0192 -0.3743
 5663TIP3    H216954   5.242   2.048   4.396 -0.4110 -0.6354 -0.5141
 5664TIP3   OH216955   0.470   1.285   0.900  0.1856  0.9182 -0.0738
 5664TIP3    H116956   0.462   1.198   0.862  0.3465  1.5551 -1.6257
 5664TIP3    H216957   0.564   1.303   0.901  0.0616  1.7388 -1.3701
 5665TIP3   OH216958   6.427   0.497   4.510  0.3231 -0.4934  0.0695
 5665TIP3    H116959   6.375   0.421   4.536 -1.5206  0.0552 -1.7665
 5665TIP3    H216960   6.406   0.564   4.575 -1.5533 -0.2069 -0.7595
 5666TIP3   OH216961   3.626   5.557   4.391  0.5374  0.0435  0.0310
 5666TIP3    H116962   3.704   5.582   4.341 -1.9836  0.9503 -3.8568
 5666TIP3    H216963   3.601   5.637   4.437 -0.7443  1.3646 -2.7315
 5667TIP3   OH216964   6.344   2.617   4.467 -0.2416 -0.4159 -0.6098
 5667TIP3    H116965   6.431   2.654   4.454  0.1777 -0.8864  0.7148
 5667TIP3    H216966   6.357   2.522   4.467 -0.6238 -0.4829  0.3138
 5668TIP3   OH216967   2.870   1.404   4.784 -0.1037  0.1390  0.0853
 5668TIP3    H116968   2.841   1.418   4.694 -0.6355  1.2835  0.4016
 5668TIP3    H216969   2.790   1.378   4.830 -0.0278  0.4329  0.3876
 5669TIP3   OH216970   6.825   6.610   0.041  0.2178 -0.0721  0.3581
 5669TIP3    H116971   6.779   6.604  -0.043  0.1041  1.6315  0.2780
 5669TIP3    H216972   6.755   6.613   0.107  0.2837 -0.3280  0.4418
 5670TIP3   OH216973   1.725   6.297   5.640 -0.1919  0.2854  0.2858
 5670TIP3    H116974   1.726   6.236   5.566  2.2594 -0.0227  0.4684
 5670TIP3    H216975   1.638   6.336   5.638 -0.7974 -0.9933 -1.6844
 5671TIP3   OH216976   4.744   0.054   2.712 -0.2708 -0.4507 -0.8927
 5671TIP3    H116977   4.832   0.091   2.719 -0.6069  0.0193  1.6723
 5671TIP3    H216978   4.701   0.110   2.647  0.3988  1.3287  0.1190
 5672TIP3   OH216979   2.105   1.479   3.270 -0.0056 -0.1207 -0.1859
 5672TIP3    H116980   2.049   1.402   3.282  0.2640 -0.3677 -0.4953
 5672TIP3    H216981   2.119   1.512   3.359 -0.2090 -0.3709 -0.0594
 5673TIP3   OH216982   3.679   3.783   3.767  0.0660  0.3010  0.0108
 5673TIP3    H116983   3.705   3.803   3.677 -1.5057  0.2317 -0.4941
 5673TIP3    H216984   3.585   3.803   3.770  0.1859  0.7841  1.7863
 5674TIP3   OH216985   6.457   5.869   3.378  0.2091 -0.2183 -0.1631
 5674TIP3    H116986   6.437   5.849   3.469 -0.5276  0.5444 -0.1377
 5674TIP3    H216987   6.398   5.813   3.328  0.7186 -0.7450 -0.1776
 5675TIP3   OH216988   2.822   6.763   1.589 -0.1429  0.2140  0.1261
 5675TIP3    H116989   2.838   6.782   1.496 -0.6981  1.6950  0.3120
 5675TIP3    H216990   2.729   6.738   1.592 -0.0731 -0.0272  0.2573
 5676TIP3   OH216991   5.610   5.571   1.328 -0.1119 -0.3227  0.0128
 5676TIP3    H116992   5.656   5.539   1.406 -1.3983 -0.1927  0.8411
 5676TIP3    H216993   5.611   5.666   1.338 -1.7809 -0.3580  0.7834
 5677TIP3   OH216994   6.027   4.732   4.139  0.6798 -0.5198  0.2919
 5677TIP3    H116995   6.002   4.767   4.225  0.1321  0.5267 -0.2769
 5677TIP3    H216996   6.024   4.637   4.151 -1.3805 -0.4428  0.9030
 5678TIP3   OH216997   5.337   5.850   1.447  0.3711  0.6004 -0.2090
 5678TIP3    H116998   5.427   5.844   1.415 -0.0395  0.8333 -1.4554
 5678TIP3    H216999   5.322   5.944   1.459 -0.0815  0.6750 -1.2001
 5679TIP3   OH217000   3.680   2.401   3.780 -0.7016 -0.2200  0.2720
 5679TIP3    H117001   3.682   2.497   3.769 -2.7674 -0.1778 -0.0119
 5679TIP3    H217002   3.759   2.371   3.734  0.3377  1.3631  0.9078
 5680TIP3   OH217003   3.120   5.943   5.271 -0.0622 -0.0555 -0.4998
 5680TIP3    H117004   3.070   5.867   5.240  0.9805 -0.5883 -0.9169
 5680TIP3    H217005   3.152   5.918   5.357 -1.7428  0.8757  0.4610
 5681TIP3   OH217006   3.731   0.771   5.579 -0.5090  0.0994  0.1645
 5681TIP3    H117007   3.801   0.787   5.642 -0.4563  0.9046 -0.0846
 5681TIP3    H217008   3.778   0.745   5.499 -0.6211 -2.3766  0.8194
 5682TIP3   OH217009   1.842   4.498   3.780  0.2013 -0.4030  1.0658
 5682TIP3    H117010   1.906   4.426   3.790  2.3450  1.4385  1.4640
 5682TIP3    H217011   1.860   4.534   3.694 -3.6315 -2.7000 -0.9862
 5683TIP3   OH217012   6.401   2.483   3.410 -0.7513 -0.4315 -0.1451
 5683TIP3    H117013   6.446   2.520   3.334 -2.3113  0.1690 -0.8087
 5683TIP3    H217014   6.386   2.391   3.388 -1.2375 -0.2489 -0.5951
 5684TIP3   OH217015   6.744   3.812   3.403  0.2634 -0.6198  0.7476
 5684TIP3    H117016   6.791   3.887   3.366 -0.0663 -0.2883  0.9969
 5684TIP3    H217017   6.716   3.841   3.490 -0.1911 -0.8958  0.6968
 5685TIP3   OH217018   1.190   2.362   5.777 -0.4322  0.2661  0.2120
 5685TIP3    H117019   1.141   2.348   5.858  1.0308  0.1818  1.1070
 5685TIP3    H217020   1.190   2.457   5.765  0.4406  0.3816  1.0261
 5686TIP3   OH217021   1.952   2.228   4.847  0.6247  0.0556  0.2252
 5686TIP3    H117022   1.891   2.292   4.885 -0.0044 -0.4756  0.1305
 5686TIP3    H217023   2.038   2.268   4.858  0.3964  0.2459  1.5717
 5687TIP3   OH217024   5.099   5.097   4.625  0.2579  0.4164 -0.6450
 5687TIP3    H117025   5.037   5.050   4.569  0.8090  0.2637 -1.1456
 5687TIP3    H217026   5.072   5.188   4.622 -0.6454  0.1848  0.0920
 5688TIP3   OH217027   7.007   1.478   5.245  0.2867  0.7576  0.4158
 5688TIP3    H117028   6.914   1.498   5.256  0.0868  0.2023 -0.1943
 5688TIP3    H217029   7.045   1.560   5.211 -0.1751  0.6840 -0.2989
 5689TIP3   OH217030   0.522   0.340   0.720 -0.4001  0.0169 -0.1837
 5689TIP3    H117031   0.613   0.352   0.745 -0.8487  0.3406  1.4134
 5689TIP3    H217032   0.505   0.408   0.655  0.6447 -0.4379 -0.9553
 5690TIP3   OH217033   4.907   0.302   3.094 -0.1397 -0.2190 -0.2821
 5690TIP3    H117034   4.884   0.374   3.153 -2.2098 -2.2142  1.5225
 5690TIP3    H217035   4.999   0.285   3.113 -0.2347  0.4698  0.9068
 5691TIP3   OH217036   5.877   0.859   2.062 -0.0170 -0.1402  0.2165
 5691TIP3    H117037   5.792   0.829   2.030 -0.2582 -1.1522  1.7103
 5691TIP3    H217038   5.883   0.824   2.151  1.0756  1.6679  0.9015
 5692TIP3   OH217039   5.702   5.229   1.309  0.3871  0.3100  0.4363
 5692TIP3    H117040   5.783   5.177   1.308  0.6433  0.7033  0.0254
 5692TIP3    H217041   5.732   5.319   1.323 -0.0347  0.3765  0.9380
 5693TIP3   OH217042   4.126   0.369   0.878  0.7195  0.4550 -0.3082
 5693TIP3    H117043   4.159   0.394   0.791 -0.2276  0.8113 -0.5738
 5693TIP3    H217044   4.035   0.398   0.878  0.6971  0.3979  0.7909
 5694TIP3   OH217045   2.601   6.578   3.468 -0.0810 -0.5324  0.0941
 5694TIP3    H117046   2.581   6.495   3.426  0.3544 -0.3531 -0.4818
 5694TIP3    H217047   2.683   6.606   3.427 -0.9317  0.8673 -0.7352
 5695TIP3   OH217048   2.055   1.785   0.321 -0.7264 -0.1231  0.1218
 5695TIP3    H117049   2.116   1.791   0.247 -1.7511 -1.4378 -0.8700
 5695TIP3    H217050   2.086   1.709   0.371 -1.0738 -0.3174  0.0468
 5696TIP3   OH217051   0.068   0.064   1.620  0.4181  0.1218 -0.1099
 5696TIP3    H117052   0.076   0.150   1.662  0.2878 -0.1494  0.4785
 5696TIP3    H217053  -0.021   0.061   1.587  1.1605  1.2148 -2.3869
 5697TIP3   OH217054   0.754   3.900   5.008  0.0007 -0.2271  0.1752
 5697TIP3    H117055   0.811   3.904   5.085 -0.8012 -0.5924  0.7985
 5697TIP3    H217056   0.772   3.814   4.970  1.2952  0.4288 -0.7698
 5698TIP3   OH217057   1.521   2.556   1.365 -0.2221 -0.5934  0.4767
 5698TIP3    H117058   1.496   2.639   1.404 -1.9952 -0.4673 -0.8329
 5698TIP3    H217059   1.491   2.490   1.428  1.0491 -0.3003  1.4421
 5699TIP3   OH217060   0.716   5.412   3.635 -0.1237 -0.0940  0.4445
 5699TIP3    H117061   0.705   5.498   3.593  1.3517 -0.4770 -0.8396
 5699TIP3    H217062   0.695   5.349   3.566  0.5506 -0.7457  0.8205
 5700TIP3   OH217063   5.557   2.905   2.309  0.1336 -0.2898 -0.3050
 5700TIP3    H117064   5.531   2.995   2.293  0.9201  0.1430  0.7031
 5700TIP3    H217065   5.616   2.910   2.384  1.1398 -1.4957 -0.9656
 5701TIP3   OH217066   6.823   3.866   0.278 -0.0531 -0.2071 -0.1237
 5701TIP3    H117067   6.872   3.834   0.354  1.5720 -0.0424 -1.0532
 5701TIP3    H217068   6.773   3.941   0.311  0.9576  0.1246  0.6971
 5702TIP3   OH217069   5.916   3.112   2.869 -0.0805  0.1780  0.2583
 5702TIP3    H117070   5.859   3.188   2.884  0.4600  0.2051  2.7074
 5702TIP3    H217071   5.860   3.036   2.885 -0.2285  0.0838 -0.6501
 5703TIP3   OH217072   6.256   1.031   1.142  0.4806  0.8206  0.8375
 5703TIP3    H117073   6.177   1.084   1.148 -1.1798 -0.8821 -2.9753
 5703TIP3    H217074   6.248   0.968   1.213 -2.0325  0.2272  0.1147
 5704TIP3   OH217075   5.543   2.401   1.812 -0.4759 -0.9798  0.2298
 5704TIP3    H117076   5.528   2.431   1.901 -0.1559 -0.7377  0.2054
 5704TIP3    H217077   5.483   2.453   1.758  0.8677  0.4636  0.0521
 5705TIP3   OH217078   6.305   5.137   1.896  0.1249 -0.4664  0.1538
 5705TIP3    H117079   6.277   5.202   1.962 -1.3040  0.5541 -1.3586
 5705TIP3    H217080   6.251   5.060   1.914 -0.7454  0.0466 -0.2124
 5706TIP3   OH217081   0.584   4.755   4.469 -0.0953 -0.1160  0.1741
 5706TIP3    H117082   0.626   4.836   4.439 -0.7904 -0.0648 -0.7100
 5706TIP3    H217083   0.579   4.700   4.390  0.3643 -1.0307  0.7540
 5707TIP3   OH217084   3.016   6.548   1.156 -0.5069 -0.5367  0.4113
 5707TIP3    H117085   3.054   6.461   1.145  1.3894  0.3017 -0.1452
 5707TIP3    H217086   3.021   6.587   1.068  0.9984  0.9659  1.0999
 5708TIP3   OH217087   0.857   5.735   0.199 -0.4893  0.3048  0.4513
 5708TIP3    H117088   0.773   5.700   0.167 -1.8469 -0.2421  4.0682
 5708TIP3    H217089   0.839   5.828   0.216  0.7593  1.0382 -1.8814
 5709TIP3   OH217090   7.014   1.077   1.491 -0.7772  0.1205 -0.0041
 5709TIP3    H117091   7.001   1.018   1.566  0.7982  1.1909  1.1834
 5709TIP3    H217092   6.927   1.112   1.473 -1.3899 -1.0377  0.5683
 5710TIP3   OH217093   7.176   6.522   2.486 -0.2497  0.1728 -0.0028
 5710TIP3    H117094   7.272   6.517   2.493 -0.2559 -0.5138 -0.3001
 5710TIP3    H217095   7.150   6.436   2.454 -0.9598  0.4050 -0.0699
 5711TIP3   OH217096   5.878   6.005   0.667  0.4806 -0.0894  0.0260
 5711TIP3    H117097   5.789   6.038   0.657  1.1106  2.5444  1.8764
 5711TIP3    H217098   5.871   5.936   0.733 -0.1091  0.9092  1.0580
 5712TIP3   OH217099   6.342   2.065   1.995 -0.2181  0.4401 -0.3567
 5712TIP3    H117100   6.301   2.000   1.939  0.8581 -1.1807  0.6286
 5712TIP3    H217101   6.303   2.051   2.081  0.1521  0.9695 -0.0937
 5713TIP3   OH217102   0.395   2.938   1.182 -0.3927  0.1263  0.4161
 5713TIP3    H117103   0.357   2.975   1.102 -2.3539 -0.2024  1.1247
 5713TIP3    H217104   0.394   2.844   1.167  0.4560  0.1223  0.3398
 5714TIP3   OH217105   3.602   0.762   3.047 -0.1968  0.3042  0.1912
 5714TIP3    H117106   3.512   0.756   3.080 -0.5657  1.8112 -0.4708
 5714TIP3    H217107   3.595   0.815   2.968  1.1540 -0.3956 -0.4271
 5715TIP3   OH217108   4.715   0.035   4.600 -0.8364  0.0436 -0.1136
 5715TIP3    H117109   4.701  -0.053   4.565 -2.5303  0.9210 -1.8519
 5715TIP3    H217110   4.654   0.041   4.674  0.8758 -0.9381  1.4397
 5716TIP3   OH217111   6.150   0.792   2.031  0.2638 -0.0799 -0.0254
 5716TIP3    H117112   6.060   0.823   2.030  0.0963 -0.5739 -0.3852
 5716TIP3    H217113   6.202   0.869   2.054 -0.2252  0.2618 -0.0628
 5717TIP3   OH217114   3.810   0.682   0.041 -0.2885 -0.2536  0.0529
 5717TIP3    H117115   3.829   0.627  -0.036 -1.1235 -0.6958  0.1573
 5717TIP3    H217116   3.770   0.761   0.004  0.0629 -0.1050 -0.0217
 5718TIP3   OH217117   3.160   3.229   3.205 -0.5545 -0.5462  0.0569
 5718TIP3    H117118   3.205   3.204   3.125 -0.7254  0.6827 -0.4530
 5718TIP3    H217119   3.069   3.242   3.179 -0.4033  0.9439  0.1743
 5719TIP3   OH217120   2.728   3.237   2.339  0.1138  0.8032  0.6430
 5719TIP3    H117121   2.671   3.251   2.415  0.6117  2.4160  0.7526
 5719TIP3    H217122   2.816   3.253   2.372  0.4518  0.3176  0.0005
 5720TIP3   OH217123   6.444   3.713   0.160  0.2861 -0.4260 -0.1638
 5720TIP3    H117124   6.496   3.669   0.228  0.9912  1.4493  0.5754
 5720TIP3    H217125   6.506   3.726   0.088  0.1496 -0.4022 -0.2764
 5721TIP3   OH217126   5.328   5.130   4.992 -0.6754  0.0454 -0.3922
 5721TIP3    H117127   5.315   5.062   4.927  2.1943  1.4377 -2.6407
 5721TIP3    H217128   5.284   5.207   4.956 -0.1104  0.5235 -0.0765
 5722TIP3   OH217129   4.861   5.337   0.109  0.3099  0.1156  0.4086
 5722TIP3    H117130   4.796   5.400   0.080 -0.0506 -1.5718 -2.9739
 5722TIP3    H217131   4.945   5.382   0.101  0.0596  0.2706 -1.9804
 5723TIP3   OH217132   2.259   3.905   1.651 -0.0672 -0.5625  0.1227
 5723TIP3    H117133   2.321   3.942   1.714  0.1676 -0.5684 -0.1003
 5723TIP3    H217134   2.281   3.812   1.647 -0.7132 -0.7460  0.7458
 5724TIP3   OH217135   0.384   5.779   3.279  0.0533  0.3874  0.3079
 5724TIP3    H117136   0.306   5.828   3.252  0.5293  0.8965 -0.1811
 5724TIP3    H217137   0.353   5.718   3.345 -0.3858  2.1019  1.7593
 5725TIP3   OH217138   4.850   0.174   1.137 -0.0877 -0.2686 -0.4335
 5725TIP3    H117139   4.765   0.216   1.152  0.5658  1.0807 -0.3400
 5725TIP3    H217140   4.905   0.207   1.208  0.1968 -2.1468  0.2763
 5726TIP3   OH217141   6.568   3.860   0.632  0.1336  0.1922 -0.1529
 5726TIP3    H117142   6.525   3.904   0.559  0.4835 -1.8667 -1.6944
 5726TIP3    H217143   6.656   3.897   0.635 -0.0846  0.7273 -0.3623
 5727TIP3   OH217144   5.481   6.512   5.539 -0.3632 -0.5011 -0.1022
 5727TIP3    H117145   5.467   6.590   5.485  2.1121  0.0812 -0.0378
 5727TIP3    H217146   5.535   6.455   5.485 -1.2210 -1.7259  0.2830
 5728TIP3   OH217147   0.600   3.734   3.467  0.4436 -0.3176  0.1501
 5728TIP3    H117148   0.645   3.797   3.411  0.4285  0.3560  0.8715
 5728TIP3    H217149   0.582   3.783   3.547  0.8201 -1.3661  0.8985
 5729TIP3   OH217150   3.166   4.306   3.160  0.2858 -0.6495  0.2350
 5729TIP3    H117151   3.091   4.248   3.146 -0.5939 -0.0672  2.1617
 5729TIP3    H217152   3.240   4.259   3.121 -1.2410 -0.6242 -2.9389
 5730TIP3   OH217153   1.459   4.862   0.672 -0.5082 -0.1949 -0.2162
 5730TIP3    H117154   1.484   4.930   0.734 -1.9281  0.1536  0.0116
 5730TIP3    H217155   1.414   4.796   0.725 -1.7774  0.1254 -0.8472
 5731TIP3   OH217156   0.876   2.861   3.784  0.2120 -0.1497 -0.5045
 5731TIP3    H117157   0.893   2.793   3.850  0.3168  0.5520  0.2088
 5731TIP3    H217158   0.927   2.936   3.814 -1.4831  0.9245 -0.1466
 5732TIP3   OH217159   1.532   6.409   0.761  0.7844  0.1367  0.3054
 5732TIP3    H117160   1.504   6.338   0.818 -3.0672 -0.8548 -2.4144
 5732TIP3    H217161   1.571   6.365   0.686 -0.4425  0.8684 -0.8142
 5733TIP3   OH217162   0.923   6.165   0.833 -0.3335  0.0054 -0.2976
 5733TIP3    H117163   0.931   6.247   0.783  0.4250  0.3270  0.3279
 5733TIP3    H217164   0.986   6.175   0.905 -0.2336 -1.1308 -0.2152
 5734TIP3   OH217165   3.164   5.053   0.168 -0.2754  0.1624 -0.2792
 5734TIP3    H117166   3.103   5.031   0.239 -0.9346 -2.0686 -1.4142
 5734TIP3    H217167   3.108   5.086   0.097  0.1162  0.3663 -0.4990
 5735TIP3   OH217168   6.527   4.241   1.370 -0.3905 -0.2564 -0.2333
 5735TIP3    H117169   6.542   4.158   1.324  0.0603 -1.8240  2.4856
 5735TIP3    H217170   6.452   4.223   1.427  0.0049  1.0295  0.7426
 5736TIP3   OH217171   3.753   1.949   4.453  0.4860 -0.2397 -0.2379
 5736TIP3    H117172   3.658   1.962   4.451  0.5787  0.5496  0.3166
 5736TIP3    H217173   3.766   1.865   4.408 -0.4025  0.0441 -1.0691
 5737TIP3   OH217174   4.730   0.340   4.764  0.1225  0.3244  0.0971
 5737TIP3    H117175   4.636   0.326   4.754  0.4090 -1.6874 -0.3078
 5737TIP3    H217176   4.769   0.297   4.688  1.3829  0.9515  0.3639
 5738TIP3   OH217177   5.471   3.330   4.725 -0.7341  0.2946 -0.3488
 5738TIP3    H117178   5.438   3.301   4.810  0.5882 -1.8293 -0.4842
 5738TIP3    H217179   5.483   3.425   4.735 -0.6784  0.1082  1.7935
 5739TIP3   OH217180   3.982   2.885   3.921  0.0415 -0.3922 -0.4249
 5739TIP3    H117181   3.916   2.902   3.854 -0.2537 -0.1176 -0.0681
 5739TIP3    H217182   3.947   2.810   3.970  0.3998 -0.7853 -0.7603
 5740TIP3   OH217183   4.649   5.385   3.865 -0.2784  0.4083  0.0461
 5740TIP3    H117184   4.680   5.448   3.799  1.2106 -0.1788  0.1585
 5740TIP3    H217185   4.620   5.310   3.814 -1.4609  0.9057 -0.0513
 5741TIP3   OH217186   6.834   6.593   5.516  0.0159 -0.0918 -0.1982
 5741TIP3    H117187   6.898   6.542   5.465  0.9588 -0.1487  0.9903
 5741TIP3    H217188   6.887   6.659   5.561 -0.5144 -1.0287  1.9436
 5742TIP3   OH217189   1.412   3.147   2.437 -0.6363 -0.2373 -0.0144
 5742TIP3    H117190   1.347   3.077   2.443 -1.3909  0.4176 -0.4260
 5742TIP3    H217191   1.420   3.178   2.527  0.6660 -1.6829  0.4129
 5743TIP3   OH217192   3.313   2.509   1.566 -0.0907  0.2781  0.3473
 5743TIP3    H117193   3.297   2.497   1.660  2.1159 -0.9927  0.6356
 5743TIP3    H217194   3.399   2.550   1.561 -0.4431  0.8878 -1.1196
 5744TIP3   OH217195   6.761   6.335   3.367 -0.6257  0.1029  0.6349
 5744TIP3    H117196   6.674   6.364   3.343 -0.1231  1.2177  0.1063
 5744TIP3    H217197   6.792   6.400   3.430  0.4153  0.6014 -0.3595
 5745TIP3   OH217198   6.916   1.365   1.340  0.2614 -0.0217  0.0064
 5745TIP3    H117199   6.872   1.449   1.326  1.2087  0.3347 -0.9771
 5745TIP3    H217200   6.944   1.367   1.431 -0.8450  0.1701  0.3569
 5746TIP3   OH217201   1.238   2.285   5.449 -0.2225 -0.1024 -0.5623
 5746TIP3    H117202   1.233   2.379   5.466  0.8242 -0.2268  0.5701
 5746TIP3    H217203   1.316   2.256   5.497 -1.0984 -1.7259 -0.0479
 5747TIP3   OH217204   3.894   5.616   5.185 -0.0532 -0.3904  0.4550
 5747TIP3    H117205   3.805   5.634   5.215  0.5611  1.9555  1.0402
 5747TIP3    H217206   3.882   5.572   5.101 -1.7502 -0.2945  0.6017
 5748TIP3   OH217207   1.954   1.426   4.835 -0.3377 -0.3266 -0.4776
 5748TIP3    H117208   1.903   1.376   4.899  1.4381  0.2272  1.4682
 5748TIP3    H217209   1.902   1.505   4.820 -0.7996 -0.4837  0.2266
 5749TIP3   OH217210   6.833   2.449   0.820 -0.1944  0.4771  0.3424
 5749TIP3    H117211   6.840   2.508   0.745 -0.3990  1.1667  0.8458
 5749TIP3    H217212   6.800   2.505   0.891  0.5713 -0.0230  1.1082
 5750TIP3   OH217213   3.695   2.381   2.840 -0.0894  0.2847  0.2822
 5750TIP3    H117214   3.747   2.308   2.808  0.3294  1.0820 -0.9372
 5750TIP3    H217215   3.619   2.340   2.881 -0.0372 -0.8347 -0.6778
 5751TIP3   OH217216   4.613   4.496   3.069  0.2791 -0.3210 -0.2283
 5751TIP3    H117217   4.560   4.575   3.064  1.3254  0.4359  0.1221
 5751TIP3    H217218   4.576   4.438   3.003 -2.8796 -1.0669  2.0301
 5752TIP3   OH217219   5.199   0.791   2.386  0.3828 -0.2724 -0.5837
 5752TIP3    H117220   5.276   0.848   2.378 -0.3887  0.6746 -1.5186
 5752TIP3    H217221   5.206   0.754   2.474  1.4860  0.4111 -0.3628
 5753TIP3   OH217222   4.908   1.175   3.049 -0.4225  0.4729  0.5473
 5753TIP3    H117223   4.974   1.177   3.118 -1.1693  1.1423  1.2541
 5753TIP3    H217224   4.856   1.097   3.069 -1.6713  1.5743  1.7436
 5754TIP3   OH217225   4.592   4.099   2.023  0.7654  0.1494 -0.3363
 5754TIP3    H117226   4.500   4.109   1.998  0.3174  0.8843  1.4555
 5754TIP3    H217227   4.589   4.060   2.111  1.9966  3.0843  1.1412
 5755TIP3   OH217228   0.686   4.977   1.086  0.2302 -0.1033  0.1025
 5755TIP3    H117229   0.674   4.946   0.997  0.9761 -1.7058  0.5305
 5755TIP3    H217230   0.684   4.898   1.140  3.0547  0.4083  1.1567
 5756TIP3   OH217231   4.741   4.978   2.321  0.3282  0.2691  0.6160
 5756TIP3    H117232   4.650   4.982   2.350 -0.1528 -2.4218 -0.1839
 5756TIP3    H217233   4.741   5.022   2.236 -1.0100 -2.1888 -0.7998
 5757TIP3   OH217234   6.557   3.081   5.311 -0.1467 -0.9214 -0.3841
 5757TIP3    H117235   6.625   3.135   5.272 -0.5085  0.8168  1.2397
 5757TIP3    H217236   6.564   3.098   5.405 -3.5773  0.3313 -0.2090
 5758TIP3   OH217237   3.090   3.257   2.203 -0.4266 -0.3576  0.1048
 5758TIP3    H117238   3.057   3.200   2.133  1.1598  0.1188 -1.0850
 5758TIP3    H217239   3.018   3.316   2.222 -0.7605 -0.2186 -1.4588
 5759TIP3   OH217240   2.760   1.472   3.468 -0.2166 -0.2070 -0.6480
 5759TIP3    H117241   2.815   1.394   3.479  1.0701  0.9215  1.7871
 5759TIP3    H217242   2.671   1.439   3.477  0.2841 -1.4479  0.1065
 5760TIP3   OH217243   5.509   6.743   4.018 -1.0711  0.1380 -0.1602
 5760TIP3    H117244   5.589   6.692   4.032 -1.2716  0.0646  0.8170
 5760TIP3    H217245   5.465   6.700   3.945 -0.8112 -0.5776  0.0942
 5761TIP3   OH217246   2.456   5.335   4.109 -0.2975 -0.5969  0.1139
 5761TIP3    H117247   2.413   5.315   4.192 -0.1768 -3.2393 -0.3762
 5761TIP3    H217248   2.390   5.315   4.042  0.2691 -0.4473 -0.5037
 5762TIP3   OH217249   2.689   3.250   0.129  0.7909 -0.2691 -0.1632
 5762TIP3    H117250   2.771   3.246   0.080  0.4185  0.8752 -0.9251
 5762TIP3    H217251   2.637   3.177   0.095  0.9855 -0.1878 -0.6447
 5763TIP3   OH217252   2.359   0.579   5.488 -0.4253  0.4717  0.0764
 5763TIP3    H117253   2.323   0.493   5.511 -1.3394  0.4196 -1.4483
 5763TIP3    H217254   2.370   0.623   5.572 -1.2124 -0.6368  0.7956
 5764TIP3   OH217255   4.967   1.630   5.117 -0.0340 -0.4354  0.4506
 5764TIP3    H117256   4.891   1.663   5.164 -0.3765 -0.0484 -0.3604
 5764TIP3    H217257   4.965   1.535   5.131 -0.4445 -0.3808  0.7526
 5765TIP3   OH217258   4.611   6.486   5.829  0.1959  0.5845 -0.3194
 5765TIP3    H117259   4.622   6.468   5.922  2.2879  2.5046 -0.0757
 5765TIP3    H217260   4.676   6.555   5.811 -0.5752  0.7114 -3.0601
 5766TIP3   OH217261   3.345   3.292   1.591  0.3811 -0.0045 -0.1847
 5766TIP3    H117262   3.278   3.224   1.591 -0.8292  1.1463 -0.2013
 5766TIP3    H217263   3.323   3.347   1.516 -0.2976  1.9140  1.3182
 5767TIP3   OH217264   1.957   5.393   0.411 -0.4705 -0.4987  0.3629
 5767TIP3    H117265   1.963   5.475   0.362 -1.5562  0.8259  2.3070
 5767TIP3    H217266   1.911   5.333   0.353  0.0059  0.3664 -0.9549
 5768TIP3   OH217267   3.758   0.974   3.114 -0.0265  0.2520  0.1993
 5768TIP3    H117268   3.713   0.894   3.087  1.0891 -0.4655  0.4173
 5768TIP3    H217269   3.717   0.998   3.197 -0.3234 -0.1306  0.1657
 5769TIP3   OH217270   3.730   3.077   0.641 -0.3818  0.6102 -0.0495
 5769TIP3    H117271   3.797   3.082   0.573 -0.2765  0.9518  0.0780
 5769TIP3    H217272   3.647   3.083   0.593 -0.3030  1.2895 -0.1168
 5770TIP3   OH217273   3.437   0.133   2.550  0.1244  0.4625  0.3104
 5770TIP3    H117274   3.410   0.190   2.622 -0.1689 -0.1138  0.6627
 5770TIP3    H217275   3.521   0.096   2.579  0.0620  0.3188  0.3084
 5771TIP3   OH217276   6.358   2.130   0.914  0.3077  0.0030 -0.3299
 5771TIP3    H117277   6.299   2.200   0.944 -0.3487 -0.6893  0.0506
 5771TIP3    H217278   6.403   2.167   0.838 -0.6763  0.5376 -0.6712
 5772TIP3   OH217279   4.903   5.828   4.555 -0.5050 -0.0191  0.3386
 5772TIP3    H117280   4.833   5.775   4.593 -0.0905 -0.6661  0.2183
 5772TIP3    H217281   4.861   5.912   4.534 -0.7941  0.2739  1.9917
 5773TIP3   OH217282   3.292   3.505   5.165  0.5672 -0.4093  0.1635
 5773TIP3    H117283   3.380   3.514   5.127  0.4583 -1.6074 -0.3974
 5773TIP3    H217284   3.308   3.493   5.259  1.0611 -1.5530 -0.0577
 5774TIP3   OH217285   0.111   3.197   0.403 -0.2219 -0.0683  0.1730
 5774TIP3    H117286   0.100   3.291   0.393  0.1731  0.2389  2.2502
 5774TIP3    H217287   0.035   3.159   0.358 -1.2032  1.3027  0.6154
 5775TIP3   OH217288   2.804   3.195   3.052  0.4090 -0.0762 -0.0174
 5775TIP3    H117289   2.820   3.149   3.134  0.5394 -1.3847 -0.7379
 5775TIP3    H217290   2.782   3.125   2.990  1.7041  0.7107 -1.4286
 5776TIP3   OH217291   2.885   1.960   1.424  0.1227 -0.3222 -0.2957
 5776TIP3    H117292   2.949   1.897   1.393  0.9783  1.5890 -2.6865
 5776TIP3    H217293   2.812   1.953   1.362 -0.2129  0.3199  0.0171
 5777TIP3   OH217294   1.086   5.781   3.153 -0.3027  0.6673 -0.5402
 5777TIP3    H117295   1.105   5.690   3.177  0.1569  0.4246 -1.7365
 5777TIP3    H217296   1.032   5.814   3.225 -0.1046 -0.4104  0.1327
 5778TIP3   OH217297   0.969   2.143   1.927 -0.0645 -0.2033 -0.1270
 5778TIP3    H117298   1.033   2.214   1.925  0.9421 -1.1035 -0.5790
 5778TIP3    H217299   0.989   2.091   1.849 -0.5581 -1.1764  0.3918
 5779TIP3   OH217300   7.177   4.179   3.817  0.3105 -0.5246  0.1054
 5779TIP3    H117301   7.108   4.112   3.815 -0.7595  0.3979  2.1770
 5779TIP3    H217302   7.197   4.190   3.910  2.0585  0.4674 -0.3387
 5780TIP3   OH217303   3.513   4.414   0.182  0.4027  0.1174  0.2561
 5780TIP3    H117304   3.589   4.356   0.195  0.0782 -0.2854  0.3614
 5780TIP3    H217305   3.442   4.372   0.230 -0.7586 -1.2370 -2.4174
 5781TIP3   OH217306   5.079   3.758   2.918  0.2323  0.6897 -0.1906
 5781TIP3    H117307   5.097   3.722   3.005 -0.8125  0.1417 -0.1834
 5781TIP3    H217308   5.024   3.834   2.934 -2.6684 -1.1717 -0.4356
 5782TIP3   OH217309   3.131   6.150   2.216 -0.1529  0.0384 -0.0542
 5782TIP3    H117310   3.044   6.175   2.247  0.0169  2.0400 -1.0547
 5782TIP3    H217311   3.173   6.111   2.292 -0.4372  2.9859  1.7389
 5783TIP3   OH217312   1.404   3.015   3.922 -0.0830 -0.6767 -0.0122
 5783TIP3    H117313   1.363   3.070   3.989 -0.8842 -0.6666 -0.4908
 5783TIP3    H217314   1.443   3.077   3.861 -1.0769 -0.6099 -0.6085
 5784TIP3   OH217315   3.748   3.152   2.296  0.2997 -0.2771 -0.1993
 5784TIP3    H117316   3.772   3.219   2.360 -1.1312  0.6981 -0.6369
 5784TIP3    H217317   3.665   3.183   2.260 -0.1206 -2.0370 -0.7985
 5785TIP3   OH217318   5.276   2.430   0.863  0.1641  0.4196 -0.3290
 5785TIP3    H117319   5.325   2.471   0.791 -0.3117  1.0602 -0.2975
 5785TIP3    H217320   5.307   2.476   0.941  1.7940 -1.2918  0.0917
 5786TIP3   OH217321   5.406   2.573   1.041  0.0117 -0.1736 -0.0049
 5786TIP3    H117322   5.468   2.579   1.113 -1.0483 -1.1998  1.0411
 5786TIP3    H217323   5.389   2.663   1.016  0.0656  0.2199  1.3297
 5787TIP3   OH217324   5.519   0.400   2.303 -0.7717  0.4950  0.0798
 5787TIP3    H117325   5.503   0.364   2.216  1.5343 -0.5517  0.0051
 5787TIP3    H217326   5.459   0.352   2.361 -1.2038  0.0600 -0.7194
 5788TIP3   OH217327   5.343   4.046   1.081  0.2410  0.1982 -0.3099
 5788TIP3    H117328   5.328   4.117   1.143  0.7093 -0.8045  1.0107
 5788TIP3    H217329   5.262   4.042   1.028 -1.2723 -0.4920  1.9006
 5789TIP3   OH217330   0.144   1.064   2.167 -0.5955 -0.4215 -0.1347
 5789TIP3    H117331   0.084   1.117   2.219 -0.9151 -1.2682  0.3785
 5789TIP3    H217332   0.171   1.121   2.095  1.8646  1.7310  2.2924
 5790TIP3   OH217333   1.806   4.613   4.176 -0.3371  0.2550  0.4900
 5790TIP3    H117334   1.786   4.705   4.193 -1.4850  0.5266 -1.8441
 5790TIP3    H217335   1.765   4.566   4.249  1.1358  1.5833  2.2683
 5791TIP3   OH217336   4.759   2.106   3.058 -0.5120  0.2277  0.1465
 5791TIP3    H117337   4.724   2.019   3.079 -1.5125  0.5391 -0.1558
 5791TIP3    H217338   4.853   2.093   3.051 -0.4597 -0.4913  1.7601
 5792TIP3   OH217339   5.695   6.476   1.369  0.8461 -0.0404 -0.0983
 5792TIP3    H117340   5.715   6.563   1.336  0.7986  0.2718  0.6807
 5792TIP3    H217341   5.777   6.446   1.410  0.6536 -0.0590  0.2823
 5793TIP3   OH217342   2.807   4.001   1.017  0.3706  0.3261  0.0072
 5793TIP3    H117343   2.888   3.983   1.064  0.0240 -1.9489 -0.1478
 5793TIP3    H217344   2.811   3.945   0.939 -0.4438  1.7322 -1.0948
 5794TIP3   OH217345   1.911   1.927   0.841 -0.2812  0.2843 -0.5022
 5794TIP3    H117346   1.862   2.009   0.847  0.3338  0.6950 -0.9486
 5794TIP3    H217347   1.884   1.889   0.757  0.8936  1.0197 -1.2546
 5795TIP3   OH217348   6.108   6.700   1.562 -0.2811  0.3753  0.6296
 5795TIP3    H117349   6.028   6.751   1.561 -0.8881 -0.5690 -0.6328
 5795TIP3    H217350   6.142   6.710   1.651 -1.6590  0.9905  1.0995
 5796TIP3   OH217351   5.973   3.782   4.973  0.4944  0.3975 -0.0790
 5796TIP3    H117352   5.967   3.719   5.045 -1.0201 -1.3125 -1.5791
 5796TIP3    H217353   5.890   3.829   4.974  0.9541  1.2197  0.0227
 5797TIP3   OH217354   5.560   4.262   1.715 -0.3581  0.6914  0.5775
 5797TIP3    H117355   5.465   4.249   1.708 -0.1357 -2.7005  1.8862
 5797TIP3    H217356   5.592   4.250   1.626 -0.9588 -1.4661  0.5818
 5798TIP3   OH217357   6.996   0.320   1.885  0.1604  0.2519  0.3274
 5798TIP3    H117358   6.968   0.411   1.892 -2.2215 -0.4719  1.2856
 5798TIP3    H217359   7.081   0.324   1.843 -0.4423  2.8380 -0.8300
 5799TIP3   OH217360   6.937   4.995   4.289 -0.2641  0.3402  0.0283
 5799TIP3    H117361   6.893   5.045   4.219  1.0938 -0.3314 -1.3781
 5799TIP3    H217362   7.027   5.026   4.286  0.5120 -1.8535 -0.5919
 5800TIP3   OH217363   4.038   2.043   3.754  0.5539  0.9669  0.1982
 5800TIP3    H117364   4.016   1.991   3.677 -0.6586  0.4314  0.8858
 5800TIP3    H217365   4.052   1.979   3.824 -0.0498  1.5091  0.8311
 5801TIP3   OH217366   5.910   5.225   5.537  0.5326 -0.2767  0.3277
 5801TIP3    H117367   5.855   5.162   5.584 -0.1812  1.1935  1.5742
 5801TIP3    H217368   5.851   5.267   5.475 -0.5729  2.9246  3.2088
 5802TIP3   OH217369   4.919   3.350   3.229 -0.3711  0.0171 -0.0581
 5802TIP3    H117370   4.985   3.419   3.224 -1.0448  0.7124  0.3726
 5802TIP3    H217371   4.880   3.349   3.142 -0.1401 -0.0441 -0.1619
 5803TIP3   OH217372   5.623   0.850   1.023  0.3338  0.2813 -0.0433
 5803TIP3    H117373   5.534   0.883   1.021  0.1981  0.0476  1.1836
 5803TIP3    H217374   5.654   0.859   0.933 -0.6678  1.0448 -0.3346
 5804TIP3   OH217375   1.983   6.012   5.509 -0.1089 -0.1477 -0.0630
 5804TIP3    H117376   1.922   5.939   5.496 -0.6551  0.3587 -0.3574
 5804TIP3    H217377   1.969   6.039   5.600 -0.4566  0.0797 -0.1804
 5805TIP3   OH217378   5.877   1.631   3.861  0.0739 -0.3659  0.3626
 5805TIP3    H117379   5.864   1.551   3.912  0.8380 -0.8593 -0.1966
 5805TIP3    H217380   5.956   1.615   3.810  0.8034  1.1239  0.9442
 5806TIP3   OH217381   5.102   2.275   1.360 -0.0918 -0.0238  0.7788
 5806TIP3    H117382   5.043   2.349   1.346  0.1997 -0.1306 -1.3762
 5806TIP3    H217383   5.114   2.271   1.454 -2.7937  0.5645  1.2236
 5807TIP3   OH217384   7.160   4.565   3.556  0.0783  0.0219 -0.2324
 5807TIP3    H117385   7.146   4.547   3.648  0.7164 -1.2075 -0.3597
 5807TIP3    H217386   7.176   4.660   3.552 -1.6498  0.3796  0.6728
 5808TIP3   OH217387   2.406   5.047   2.541  0.5020 -0.0541 -0.5984
 5808TIP3    H117388   2.405   5.089   2.627 -2.1073  1.7940 -1.4182
 5808TIP3    H217389   2.326   4.994   2.539  0.7656 -0.4442 -1.7233
 5809TIP3   OH217390   4.423   0.164   2.315  0.0524 -0.2229 -0.1586
 5809TIP3    H117391   4.364   0.139   2.386  0.8748 -0.9324  0.2969
 5809TIP3    H217392   4.474   0.085   2.297 -0.6680 -0.3114 -2.0988
 5810TIP3   OH217393   4.109   5.537   3.745  0.0128 -0.1987 -0.2899
 5810TIP3    H117394   4.179   5.532   3.810 -0.1993  0.4645  0.0052
 5810TIP3    H217395   4.029   5.519   3.795 -0.3471  2.0008  0.0301
 5811TIP3   OH217396   7.049   3.766   2.806 -0.1563  0.4257 -0.1844
 5811TIP3    H117397   6.993   3.704   2.853  1.6714 -2.5438 -1.6306
 5811TIP3    H217398   7.095   3.813   2.875 -0.6112 -0.8213  1.0296
 5812TIP3   OH217399   2.584   3.815   2.917  0.3894 -0.0802 -0.0748
 5812TIP3    H117400   2.523   3.801   2.845  0.3226  1.4459 -0.3414
 5812TIP3    H217401   2.670   3.819   2.876  0.2986  1.3760 -0.1886
 5813TIP3   OH217402   2.318   4.700   0.200  0.2723 -0.4677  0.2819
 5813TIP3    H117403   2.359   4.650   0.128 -0.0255  0.8023 -0.8202
 5813TIP3    H217404   2.324   4.643   0.276  1.6277 -1.4160 -0.4988
 5814TIP3   OH217405   6.913   4.230   4.835  0.1525 -0.1361 -0.5378
 5814TIP3    H117406   6.860   4.161   4.874 -0.6021  0.3258 -0.7418
 5814TIP3    H217407   6.881   4.238   4.745  1.2296 -0.5281 -0.9815
 5815TIP3   OH217408   0.541   0.094   5.588 -0.1365 -0.3473 -0.3478
 5815TIP3    H117409   0.517   0.056   5.503 -1.6719  0.7769 -0.4601
 5815TIP3    H217410   0.544   0.188   5.571  0.3951 -0.1766  0.6560
 5816TIP3   OH217411   5.136   5.595   4.547 -0.2871 -0.2396 -0.5182
 5816TIP3    H117412   5.107   5.596   4.456 -2.5167 -0.5957  0.1411
 5816TIP3    H217413   5.087   5.665   4.590  0.5777 -0.2071  0.4617
 5817TIP3   OH217414   0.528   3.630   4.244 -0.4236  0.5390 -0.2162
 5817TIP3    H117415   0.558   3.638   4.153 -1.3395 -1.5278 -0.7652
 5817TIP3    H217416   0.551   3.541   4.269  0.7794  1.4038  2.0107
 5818TIP3   OH217417   1.473   2.475   4.442 -0.5613 -0.2062 -0.2142
 5818TIP3    H117418   1.486   2.474   4.347  1.8348  0.8488  0.0393
 5818TIP3    H217419   1.379   2.461   4.453 -1.0085  0.2559 -2.7592
 5819TIP3   OH217420   0.849   2.325   4.751  0.5673  0.0590  0.2892
 5819TIP3    H117421   0.781   2.303   4.686  1.6928 -0.7664 -0.6594
 5819TIP3    H217422   0.874   2.415   4.730 -0.3608  0.4470  0.7827
 5820TIP3   OH217423   4.722   4.869   1.894 -0.1174  0.2759 -0.1705
 5820TIP3    H117424   4.647   4.813   1.917 -1.4038  0.8060 -2.7001
 5820TIP3    H217425   4.785   4.810   1.853 -0.1147  0.1780 -0.0258
 5821TIP3   OH217426   6.965   4.798   4.067  0.3116  0.2813 -0.0585
 5821TIP3    H117427   6.991   4.860   4.134 -0.2605  1.3303 -0.7688
 5821TIP3    H217428   6.886   4.757   4.101  0.6016  0.0603  0.3473
 5822TIP3   OH217429   1.406   6.435   3.581 -0.0519 -0.3236  0.0109
 5822TIP3    H117430   1.319   6.431   3.620  0.4607  0.5475  1.3072
 5822TIP3    H217431   1.440   6.346   3.589 -0.3964 -0.4122  0.5092
 5823TIP3   OH217432   6.979   2.248   5.608 -0.1827 -0.2099 -0.3058
 5823TIP3    H117433   7.057   2.289   5.572 -0.8322 -0.8812 -2.6685
 5823TIP3    H217434   6.952   2.305   5.680  0.7866  1.6486 -1.3512
 5824TIP3   OH217435   3.970   2.130   4.354  0.1565 -0.0980  0.4275
 5824TIP3    H117436   3.912   2.178   4.294  0.8243 -1.8416 -1.7377
 5824TIP3    H217437   3.912   2.073   4.404 -0.3587  1.0326  1.1611
 5825TIP3   OH217438   4.052   3.645   0.970  0.6524 -0.0513  0.0605
 5825TIP3    H117439   3.970   3.691   0.949  1.0996  0.4775 -0.5550
 5825TIP3    H217440   4.032   3.552   0.955  0.0262  0.0238  0.3875
 5826TIP3   OH217441   4.435   1.635   0.930 -0.0795  0.1601 -0.3096
 5826TIP3    H117442   4.371   1.609   0.996 -1.9101 -0.1166 -2.0918
 5826TIP3    H217443   4.508   1.574   0.943 -1.5015 -1.6269 -0.1759
 5827TIP3   OH217444   6.657   2.710   1.246 -0.0232  0.0453  0.1007
 5827TIP3    H117445   6.660   2.614   1.250  0.7337  0.0840  0.9238
 5827TIP3    H217446   6.589   2.734   1.308  0.3275  0.0641  0.4812
 5828TIP3   OH217447   2.336   3.755   4.777 -0.5087  0.4362  0.3432
 5828TIP3    H117448   2.271   3.825   4.789  0.7918  1.6098  0.8104
 5828TIP3    H217449   2.375   3.773   4.691 -0.3674  0.1044  0.3364
 5829TIP3   OH217450   2.451   4.194   0.609  0.0288  0.2738 -0.4108
 5829TIP3    H117451   2.466   4.269   0.667 -1.2333  0.4078 -0.2178
 5829TIP3    H217452   2.397   4.229   0.538 -0.4008 -0.4011 -0.4262
 5830TIP3   OH217453   2.956   4.614   2.083 -0.0946  0.3480  0.3981
 5830TIP3    H117454   3.019   4.554   2.122  0.1634 -0.2373 -0.8638
 5830TIP3    H217455   2.982   4.620   1.991 -0.7267  1.6126  0.2827
 5831TIP3   OH217456   3.579   0.254   4.127 -0.0453  0.2538  0.4588
 5831TIP3    H117457   3.526   0.254   4.048  1.5420  0.9150 -0.6665
 5831TIP3    H217458   3.665   0.224   4.098  1.3844  3.1562  1.2869
 5832TIP3   OH217459   1.593   6.498   1.142  0.3483  0.6002 -0.5374
 5832TIP3    H117460   1.646   6.460   1.212  0.4871 -0.5950 -1.2685
 5832TIP3    H217461   1.602   6.592   1.154  0.0880  0.4383  1.2604
 5833TIP3   OH217462   3.255   0.040   5.681  0.2521 -0.2632 -0.2573
 5833TIP3    H117463   3.192  -0.016   5.636 -0.4861 -0.0601  0.4903
 5833TIP3    H217464   3.216   0.127   5.678  0.4058 -0.1663  0.3674
 5834TIP3   OH217465   4.556   0.684   4.640  0.1029 -0.2998 -0.3759
 5834TIP3    H117466   4.644   0.719   4.625  0.7330 -2.3513 -2.0445
 5834TIP3    H217467   4.533   0.644   4.556 -1.7122 -1.2978  0.5553
 5835TIP3   OH217468   6.901   0.027   5.681 -0.0620  0.2097 -0.2559
 5835TIP3    H117469   6.975   0.033   5.620  0.2304 -0.2267  0.0455
 5835TIP3    H217470   6.824   0.021   5.625  0.0164  1.7846 -0.5824
 5836TIP3   OH217471   6.860   6.555   2.304  0.3719  0.3890  0.1267
 5836TIP3    H117472   6.836   6.481   2.359  1.2638  1.4604  2.0402
 5836TIP3    H217473   6.951   6.538   2.279  0.6774  0.9589  0.8193
 5837TIP3   OH217474   0.112   3.122   4.680  0.1031 -0.2909 -1.0139
 5837TIP3    H117475   0.090   3.042   4.633  0.7837 -1.9823  1.3451
 5837TIP3    H217476   0.202   3.141   4.656  0.9404 -1.9694  0.5616
 5838TIP3   OH217477   6.936   1.651   4.983  0.3687 -0.4334  0.0405
 5838TIP3    H117478   6.889   1.657   5.066 -1.2657 -1.1161 -0.7897
 5838TIP3    H217479   6.947   1.557   4.969  0.5187 -0.3287 -0.5699
 5839TIP3   OH217480   2.821   3.672   4.131  0.0882  0.1654  0.1912
 5839TIP3    H117481   2.758   3.742   4.143 -0.1275  0.1343 -0.6454
 5839TIP3    H217482   2.800   3.608   4.199 -2.0882 -0.7602 -1.2122
 5840TIP3   OH217483   2.929   5.526   4.649  0.1992 -0.1241  0.5620
 5840TIP3    H117484   3.021   5.507   4.629  0.4763  0.6468  1.0534
 5840TIP3    H217485   2.932   5.602   4.708 -0.8814  1.6285 -1.5153
 5841TIP3   OH217486   3.850   3.103   0.352  0.8590  0.2755  0.0135
 5841TIP3    H117487   3.801   3.184   0.343  0.1304 -0.2801 -1.3027
 5841TIP3    H217488   3.801   3.039   0.300 -0.0361 -1.6894  3.0409
 5842TIP3   OH217489   3.580   1.914   4.179  0.6075 -0.1225 -0.3126
 5842TIP3    H117490   3.544   1.969   4.249  0.5377 -1.0756  0.4250
 5842TIP3    H217491   3.670   1.943   4.169  0.8840 -0.5513  0.8018
 5843TIP3   OH217492   2.266   1.493   5.065  0.2317  0.2515  0.3232
 5843TIP3    H117493   2.229   1.501   5.152 -0.2204 -2.5228  0.4533
 5843TIP3    H217494   2.361   1.494   5.079  0.1654  0.2907  0.7832
 5844TIP3   OH217495   2.945   3.115   1.025 -0.3424 -0.0647 -0.4615
 5844TIP3    H117496   3.029   3.079   1.055  0.7480  1.6110 -1.3194
 5844TIP3    H217497   2.882   3.045   1.039  1.3846 -1.7463 -0.7214
 5845TIP3   OH217498   0.863   5.038   3.453  0.0150 -0.4760 -0.0961
 5845TIP3    H117499   0.895   4.950   3.473 -0.3508 -0.3449  1.1660
 5845TIP3    H217500   0.936   5.080   3.408  0.9273 -0.8030  1.0164
 5846TIP3   OH217501   0.804   4.237   4.164  0.1645  0.3030 -0.0189
 5846TIP3    H117502   0.816   4.142   4.160  1.1865  0.4437 -0.9333
 5846TIP3    H217503   0.835   4.261   4.252  1.1819 -0.0611 -0.2651
 5847TIP3   OH217504   0.765   5.656   4.357 -0.3778  0.4814  0.6229
 5847TIP3    H117505   0.736   5.748   4.354  1.3602  1.0485 -0.0714
 5847TIP3    H217506   0.790   5.642   4.448 -2.5830  0.0210  1.2066
 5848TIP3   OH217507   0.299   0.032   1.402  0.4342  0.1512 -0.4455
 5848TIP3    H117508   0.322   0.100   1.339  1.0676  1.0390  0.7142
 5848TIP3    H217509   0.248   0.077   1.469  1.0709 -0.4631  0.4716
 5849TIP3   OH217510   2.756   0.921   0.792  0.0174 -0.0595 -0.2140
 5849TIP3    H117511   2.674   0.896   0.834  1.5485 -1.9520  1.8820
 5849TIP3    H217512   2.779   0.846   0.736  0.5852  0.2100 -0.3555
 5850TIP3   OH217513   5.323   1.572   2.498  0.1253  0.3973 -0.3117
 5850TIP3    H117514   5.265   1.542   2.569  0.0379 -1.2677 -1.0432
 5850TIP3    H217515   5.268   1.571   2.420 -0.1870  3.6162 -0.2557
 5851TIP3   OH217516   2.865   1.151   0.717  0.3250 -0.4980 -0.6358
 5851TIP3    H117517   2.822   1.066   0.716  0.6304 -0.8410  2.8834
 5851TIP3    H217518   2.873   1.173   0.810  2.1440  2.4230 -1.3442
 5852TIP3   OH217519   0.924   5.237   2.710  0.0543 -0.5552  0.0618
 5852TIP3    H117520   1.007   5.281   2.693  0.0813 -1.0365 -1.1785
 5852TIP3    H217521   0.879   5.293   2.773  1.4713 -0.4779  1.0495
 5853TIP3   OH217522   4.584   0.694   5.031  0.0370 -0.1489  0.5655
 5853TIP3    H117523   4.619   0.643   5.105 -0.5008  0.9241  1.5841
 5853TIP3    H217524   4.508   0.644   5.003  0.7216 -1.0063  0.1690
 5854TIP3   OH217525   3.560   6.756   0.202 -0.2762  0.3585  0.5212
 5854TIP3    H117526   3.493   6.719   0.145 -0.9271  0.0153  1.4979
 5854TIP3    H217527   3.642   6.741   0.154 -0.8890  1.0808 -0.8334
 5855TIP3   OH217528   2.158   2.968   0.204  0.3450  0.6135  0.5766
 5855TIP3    H117529   2.186   2.895   0.260  0.6494 -0.3148 -0.7240
 5855TIP3    H217530   2.113   2.925   0.131 -0.6956  1.8385  0.4799
 5856TIP3   OH217531   6.990   0.885   5.615 -0.0136  0.2032 -0.6178
 5856TIP3    H117532   7.063   0.947   5.620  0.0653  0.0242  1.9676
 5856TIP3    H217533   7.030   0.804   5.583  1.1005 -0.0326  1.2201
 5857TIP3   OH217534   1.411   5.414   1.414 -0.0327  0.1337 -0.4916
 5857TIP3    H117535   1.440   5.327   1.442 -1.1454 -0.1992 -0.3354
 5857TIP3    H217536   1.492   5.462   1.396  0.5989 -1.4658 -2.2214
 5858TIP3   OH217537   7.121   0.428   1.070  0.3787 -0.2413  0.1255
 5858TIP3    H117538   7.142   0.349   1.121 -1.4576 -1.0788 -0.3222
 5858TIP3    H217539   7.093   0.395   0.985  0.4090  0.9753 -0.3812
 5859TIP3   OH217540   3.887   0.716   3.558  0.2092  0.0151  0.3116
 5859TIP3    H117541   3.869   0.623   3.546 -0.3132  0.2013 -0.3759
 5859TIP3    H217542   3.946   0.719   3.633 -0.5831 -0.7906  0.9801
 5860TIP3   OH217543   5.942   5.858   4.939  0.2843 -0.2180 -0.4378
 5860TIP3    H117544   5.959   5.893   4.852  1.7794 -1.2913 -0.6084
 5860TIP3    H217545   6.028   5.832   4.972 -0.0251  1.5279  1.9876
 5861TIP3   OH217546   5.806   5.034   0.104  0.4605  1.1281 -0.1523
 5861TIP3    H117547   5.831   4.942   0.103 -0.4046  0.7409  2.9941
 5861TIP3    H217548   5.870   5.075   0.162 -0.4143  2.0528  0.1932
 5862TIP3   OH217549   4.684   2.731   2.070  0.5286  0.5880 -0.1816
 5862TIP3    H117550   4.592   2.745   2.045  0.0320 -2.4024 -0.4607
 5862TIP3    H217551   4.690   2.637   2.086  3.7938  0.5103 -1.1315
 5863TIP3   OH217552   2.888   2.178   3.692  0.0022 -0.4521  0.0716
 5863TIP3    H117553   2.881   2.210   3.602 -0.0873  0.3403  0.3496
 5863TIP3    H217554   2.887   2.083   3.684  0.4801 -0.3944 -0.8025
 5864TIP3   OH217555   3.216   1.745   1.628 -0.0714  0.3085 -0.4767
 5864TIP3    H117556   3.295   1.786   1.594  0.6573  0.6502  1.4863
 5864TIP3    H217557   3.197   1.674   1.566  2.0324 -0.0755 -0.7587
 5865TIP3   OH217558   6.473   5.914   2.296 -0.3333 -0.4029  0.3569
 5865TIP3    H117559   6.528   5.987   2.326  0.4663 -0.8900  0.1219
 5865TIP3    H217560   6.536   5.848   2.266 -1.0694 -0.3523 -1.4207
 5866TIP3   OH217561   6.154   6.348   0.743  0.3791 -0.2590  0.1288
 5866TIP3    H117562   6.225   6.395   0.788  1.3849  0.7496 -2.3313
 5866TIP3    H217563   6.183   6.344   0.652 -2.2727 -0.7562 -0.7610
 5867TIP3   OH217564   0.337   5.620   2.965  0.2499 -0.0826  0.7676
 5867TIP3    H117565   0.418   5.603   3.011  0.0105 -0.8611  0.9103
 5867TIP3    H217566   0.306   5.703   3.001  0.2989 -0.4489  1.6714
 5868TIP3   OH217567   3.204   1.025   5.077 -0.4401  0.8666 -0.3488
 5868TIP3    H117568   3.260   0.962   5.123  1.2810  0.9199 -2.2252
 5868TIP3    H217569   3.115   0.996   5.096  0.2595 -0.9807  0.4195
 5869TIP3   OH217570   5.510   3.331   1.093  0.1150 -0.1872  0.4526
 5869TIP3    H117571   5.551   3.303   1.011 -0.1491  1.3009 -0.2365
 5869TIP3    H217572   5.417   3.310   1.081  0.2477 -1.0667  0.8864
 5870TIP3   OH217573   6.023   2.654   5.427 -0.5508 -0.3929 -0.3716
 5870TIP3    H117574   6.101   2.611   5.462 -0.1574  0.5751 -0.0337
 5870TIP3    H217575   6.048   2.682   5.339 -1.5662 -2.9024 -1.5650
 5871TIP3   OH217576   0.583   4.590   0.606  0.4012  0.2674 -0.0931
 5871TIP3    H117577   0.676   4.573   0.624  0.0651 -0.3259  1.1718
 5871TIP3    H217578   0.582   4.621   0.515  1.6485 -1.3030 -0.6899
 5872TIP3   OH217579   3.618   4.902   5.803  0.1814 -0.1881 -0.1063
 5872TIP3    H117580   3.697   4.956   5.796 -0.0239  0.0658 -0.4676
 5872TIP3    H217581   3.550   4.953   5.760 -0.4360  0.0860  1.1517
 5873TIP3   OH217582   2.134   1.348   0.169  0.1948 -0.1307  0.4501
 5873TIP3    H117583   2.086   1.270   0.139 -0.7311  0.3160  0.7137
 5873TIP3    H217584   2.091   1.420   0.123  1.2947  0.1921 -0.0821
 5874TIP3   OH217585   1.671   2.012   3.357 -0.1109 -0.1341  0.3502
 5874TIP3    H117586   1.763   2.007   3.385  0.2166 -0.7220 -0.7832
 5874TIP3    H217587   1.636   1.925   3.376 -0.8798  0.5154  2.1583
 5875TIP3   OH217588   5.131   3.432   4.166 -0.0531 -0.0384  0.7596
 5875TIP3    H117589   5.131   3.520   4.205  0.9368 -0.6252  2.1267
 5875TIP3    H217590   5.042   3.400   4.181 -0.3880  0.6664  0.3576
 5876TIP3   OH217591   7.098   3.841   5.611  0.1841 -0.0133  0.1959
 5876TIP3    H117592   7.177   3.805   5.570 -0.0507 -0.2955 -0.0122
 5876TIP3    H217593   7.129   3.919   5.658  0.8691 -1.0164  1.4558
 5877TIP3   OH217594   6.263   0.706   3.501 -0.1539 -0.5487 -0.3423
 5877TIP3    H117595   6.220   0.651   3.437 -0.2129 -0.0576 -0.7318
 5877TIP3    H217596   6.350   0.668   3.512 -0.6660 -1.5321  0.4359
 5878TIP3   OH217597   5.386   1.199   2.728 -0.2874 -0.4924 -0.2401
 5878TIP3    H117598   5.471   1.164   2.753  1.0079  2.2391 -0.4566
 5878TIP3    H217599   5.323   1.135   2.762  1.7878 -2.0889  0.8290
 5879TIP3   OH217600   2.927   0.124   3.191  0.7027  0.2666 -0.4143
 5879TIP3    H117601   2.931   0.220   3.199 -0.2391  0.2783  0.1617
 5879TIP3    H217602   2.833   0.105   3.191  0.8817 -0.7420  0.6943
 5880TIP3   OH217603   5.242   2.736   3.081  0.1994  0.2291  0.2457
 5880TIP3    H117604   5.330   2.714   3.051 -0.4815 -1.5716 -0.5431
 5880TIP3    H217605   5.189   2.737   3.001 -0.6898  0.3217  0.8214
 5881TIP3   OH217606   2.336   4.209   0.355  0.6649 -0.3788 -0.3192
 5881TIP3    H117607   2.380   4.127   0.377  0.6429 -0.5211 -0.7894
 5881TIP3    H217608   2.245   4.183   0.339  1.0749 -0.6354 -2.5872
 5882TIP3   OH217609   2.667   6.420   0.711 -0.3688  0.3041 -0.4860
 5882TIP3    H117610   2.674   6.419   0.806 -0.9225  0.3526 -0.4370
 5882TIP3    H217611   2.572   6.422   0.695 -0.2768  0.3017 -1.0349
 5883TIP3   OH217612   0.868   6.527   1.935  0.5230 -0.0168 -0.4482
 5883TIP3    H117613   0.775   6.539   1.955  0.4110 -0.5870 -0.5979
 5883TIP3    H217614   0.905   6.615   1.940  0.2011  0.0706  0.7182
 5884TIP3   OH217615   0.549   5.492   4.895  0.9749  0.5463  0.2878
 5884TIP3    H117616   0.612   5.481   4.823  0.0291  1.6012 -0.7333
 5884TIP3    H217617   0.525   5.402   4.919  2.3730  0.1450  0.2791
 5885TIP3   OH217618   2.589   1.911   4.720 -0.6532  0.0810  0.2555
 5885TIP3    H117619   2.515   1.910   4.781 -0.0312  1.0405  1.0516
 5885TIP3    H217620   2.648   1.978   4.754  0.0926  0.0793 -0.9635
 5886TIP3   OH217621   0.432   3.825   5.631  0.0089  0.1250 -0.3713
 5886TIP3    H117622   0.485   3.841   5.709  0.2851 -1.7157 -0.1332
 5886TIP3    H217623   0.441   3.731   5.615 -1.7577  0.0837 -1.3718
 5887TIP3   OH217624   2.513   5.083   5.671 -0.3793  0.2393  0.0399
 5887TIP3    H117625   2.443   5.068   5.735 -1.6405 -0.7130 -1.4821
 5887TIP3    H217626   2.579   5.133   5.718 -2.4797  1.9785  1.3007
 5888TIP3   OH217627   1.380   5.490   4.913 -0.0925  0.2670  0.5248
 5888TIP3    H117628   1.298   5.539   4.914  0.4835  1.3079 -0.4721
 5888TIP3    H217629   1.447   5.557   4.903  0.6987 -0.7225 -1.3094
 5889TIP3   OH217630   5.229   6.702   4.468  0.6399 -0.0508  0.4180
 5889TIP3    H117631   5.201   6.785   4.507  0.8140  0.2258 -0.0365
 5889TIP3    H217632   5.243   6.723   4.375 -0.0002 -0.7557  0.1605
 5890TIP3   OH217633   1.044   4.059   2.779  0.0303 -0.5155 -0.2857
 5890TIP3    H117634   1.004   4.004   2.711  2.2042 -1.7359 -0.6541
 5890TIP3    H217635   1.080   4.133   2.731  0.1344 -0.5368 -0.2392
 5891TIP3   OH217636   4.650   1.267   1.163  0.2019 -0.0457  0.1513
 5891TIP3    H117637   4.620   1.302   1.247 -0.7328 -0.4638 -0.0012
 5891TIP3    H217638   4.639   1.172   1.171  2.4118 -0.3283  0.4431
 5892TIP3   OH217639   5.575   1.911   2.624 -0.1024  0.6993 -0.1722
 5892TIP3    H117640   5.595   1.848   2.554  0.7937 -1.7566  2.1027
 5892TIP3    H217641   5.653   1.965   2.630  0.0600  0.5277 -0.6697
 5893TIP3   OH217642   6.155   2.202   5.523 -0.4107  0.3542  0.2355
 5893TIP3    H117643   6.107   2.240   5.450  0.5646  2.0280  0.4302
 5893TIP3    H217644   6.134   2.258   5.598  1.2735  0.7055  0.4732
 5894TIP3   OH217645   5.361   5.614   5.516  0.3781  0.3697  0.1259
 5894TIP3    H117646   5.442   5.624   5.466  0.0711 -0.7359 -0.6480
 5894TIP3    H217647   5.298   5.580   5.452 -0.4947  0.5189  0.8832
 5895TIP3   OH217648   1.770   0.631   2.151  0.7250 -0.4727  0.4280
 5895TIP3    H117649   1.728   0.712   2.123  0.1155 -0.9576 -0.0948
 5895TIP3    H217650   1.781   0.581   2.070  0.7796 -1.0562  0.7954
 5896TIP3   OH217651   6.146   0.281   2.134  0.0633  0.4341  0.0678
 5896TIP3    H117652   6.086   0.354   2.116 -0.2122 -0.0145 -0.8555
 5896TIP3    H217653   6.183   0.259   2.049  1.7815  0.8858  0.6642
 5897TIP3   OH217654   6.438   5.139   3.711 -0.2217  0.4692 -0.4511
 5897TIP3    H117655   6.356   5.165   3.754  0.0889  0.5836  0.0754
 5897TIP3    H217656   6.409   5.097   3.630 -0.8912 -0.7354  0.3575
 5898TIP3   OH217657   1.717   4.275   3.533  0.1728  0.2701 -0.1825
 5898TIP3    H117658   1.756   4.354   3.495  0.4592 -0.4468 -1.4486
 5898TIP3    H217659   1.790   4.231   3.577  0.2651  0.1652 -0.4359
 5899TIP3   OH217660   0.135   5.597   3.925  0.5472 -0.3686  0.4771
 5899TIP3    H117661   0.052   5.583   3.880  1.3482 -0.5928 -1.0269
 5899TIP3    H217662   0.172   5.509   3.935  1.0527 -0.1988  0.1887
 5900TIP3   OH217663   5.384   3.475   2.530 -0.0041  0.1673 -0.5254
 5900TIP3    H117664   5.398   3.382   2.512 -0.5421 -0.6805  2.7475
 5900TIP3    H217665   5.446   3.495   2.600 -0.7962  1.9170 -0.2910
 5901TIP3   OH217666   1.721   2.877   0.021  0.1993 -0.3559  0.4007
 5901TIP3    H117667   1.770   2.829   0.088  0.4547 -0.6649 -0.0061
 5901TIP3    H217668   1.787   2.908  -0.040 -0.0374 -0.0928  0.2759
 5902TIP3   OH217669   4.828   6.564   3.349 -0.6084  0.1511 -0.5136
 5902TIP3    H117670   4.871   6.530   3.270  1.9414 -2.1062  1.6554
 5902TIP3    H217671   4.739   6.529   3.345 -0.1033 -1.0696 -1.7242
 5903TIP3   OH217672   0.654   3.518   0.201  0.3211  0.4993  0.1320
 5903TIP3    H117673   0.717   3.448   0.189  0.3084  0.3369  0.9372
 5903TIP3    H217674   0.652   3.533   0.296 -0.6469  0.6758  0.1006
 5904TIP3   OH217675   6.041   4.638   0.359  0.3252  0.0195  0.3934
 5904TIP3    H117676   6.006   4.694   0.289  2.1112 -0.6495 -1.1354
 5904TIP3    H217677   5.973   4.638   0.426 -1.6113  0.5136 -1.4431
 5905TIP3   OH217678   4.806   4.523   0.720  0.1037 -0.3183 -0.0101
 5905TIP3    H117679   4.792   4.579   0.643  1.2751  0.5721  0.3963
 5905TIP3    H217680   4.900   4.507   0.721  0.1599 -0.0096  1.4362
 5906TIP3   OH217681   4.104   4.832   1.170  0.1016 -0.1335  0.2679
 5906TIP3    H117682   4.196   4.850   1.185  0.1571  0.7418 -1.0049
 5906TIP3    H217683   4.081   4.767   1.237  1.1897  0.8795  1.6889
 5907TIP3   OH217684   3.875   2.774   2.349  0.0421  0.0159  0.1318
 5907TIP3    H117685   3.894   2.822   2.430 -1.3744 -0.6440  0.8891
 5907TIP3    H217686   3.913   2.828   2.280 -0.5795  1.7067  1.0492
 5908TIP3   OH217687   2.996   0.994   0.034  0.1875 -0.0088 -0.3355
 5908TIP3    H117688   2.944   1.074   0.050  0.2757  0.0363 -0.2699
 5908TIP3    H217689   3.086   1.021   0.053  0.5179  0.4669 -2.3908
 5909TIP3   OH217690   0.894   5.565   5.763  0.3547 -0.3049  0.6164
 5909TIP3    H117691   0.864   5.643   5.716 -1.2290 -0.2369  1.6667
 5909TIP3    H217692   0.989   5.564   5.750  0.4506  1.9290  0.7525
 5910TIP3   OH217693   0.085   1.726   2.254  0.1648 -0.1061 -0.3025
 5910TIP3    H117694   0.165   1.748   2.207  0.3013 -2.2696 -1.1772
 5910TIP3    H217695   0.102   1.639   2.290 -1.8286 -0.6551 -0.6050
 5911TIP3   OH217696   3.927   4.553   2.354  0.4571  0.1318 -0.1635
 5911TIP3    H117697   3.961   4.465   2.337 -1.1876 -0.9652  1.7412
 5911TIP3    H217698   3.876   4.544   2.435  2.3825  3.4168  1.6415
 5912TIP3   OH217699   4.837   3.727   5.373 -0.7173  0.1088  1.2734
 5912TIP3    H117700   4.828   3.784   5.450  1.9233  0.3446  1.5031
 5912TIP3    H217701   4.859   3.787   5.302 -3.1098 -0.1120  0.2479
 5913TIP3   OH217702   3.236   3.107   0.635 -0.1410 -0.3685 -0.2134
 5913TIP3    H117703   3.201   3.027   0.674 -2.6227  0.9411  0.4272
 5913TIP3    H217704   3.196   3.178   0.686 -0.1497  1.3255 -2.4550
 5914TIP3   OH217705   0.302   0.124   4.575 -0.3752 -0.1518 -0.2495
 5914TIP3    H117706   0.356   0.117   4.653  0.0716  0.2376 -0.5190
 5914TIP3    H217707   0.222   0.167   4.604  0.2055  0.9279 -0.1957
 5915TIP3   OH217708   0.341   4.569   1.378  0.1128 -0.1301  0.0395
 5915TIP3    H117709   0.310   4.561   1.288  0.0800 -0.5640  0.0873
 5915TIP3    H217710   0.372   4.660   1.385 -1.4722  0.4313  0.0987
 5916TIP3   OH217711   4.371   3.499   5.568  0.0345  0.0270  0.0504
 5916TIP3    H117712   4.414   3.568   5.517 -1.6453  1.1825  0.1139
 5916TIP3    H217713   4.283   3.493   5.531 -0.7080 -0.2106  1.7484
 5917TIP3   OH217714   5.460   0.626   1.476  0.2098 -0.6108  0.1295
 5917TIP3    H117715   5.391   0.562   1.460 -2.0304  1.6127  0.2602
 5917TIP3    H217716   5.444   0.657   1.565  1.0986  0.2623  0.0076
 5918TIP3   OH217717   5.677   0.223   4.220  0.0442 -0.1780 -0.2698
 5918TIP3    H117718   5.592   0.244   4.182  0.4439  1.4118 -0.3551
 5918TIP3    H217719   5.714   0.308   4.245  1.2741 -0.9032  0.4902
 5919TIP3   OH217720   0.230   6.462   3.158 -0.2076  0.0393 -0.6663
 5919TIP3    H117721   0.307   6.516   3.144 -0.3977  0.6239  0.4491
 5919TIP3    H217722   0.262   6.383   3.201 -0.1603  0.0186 -0.7389
 5920TIP3   OH217723   1.171   0.972   4.815  0.2189  0.0715 -0.0559
 5920TIP3    H117724   1.153   0.900   4.754  0.0314  0.6778 -0.7298
 5920TIP3    H217725   1.087   1.017   4.825 -0.0886 -0.8383  1.7608
 5921TIP3   OH217726   5.653   0.526   1.746  0.3574 -0.2793 -0.4432
 5921TIP3    H117727   5.574   0.575   1.768 -0.0232  0.3362 -2.8075
 5921TIP3    H217728   5.624   0.436   1.735  0.3515 -0.3883  0.4261
 5922TIP3   OH217729   2.564   0.908   4.770  0.7950 -0.1983  0.0081
 5922TIP3    H117730   2.487   0.947   4.811  0.4243 -1.5070  0.6056
 5922TIP3    H217731   2.598   0.977   4.713 -0.9432  0.3314 -0.4426
 5923TIP3   OH217732   6.157   1.390   2.117  0.1842 -0.7222 -0.0920
 5923TIP3    H117733   6.078   1.414   2.069 -0.1428 -1.0625  0.2779
 5923TIP3    H217734   6.192   1.474   2.149 -0.1244 -0.5921 -0.0955
 5924TIP3   OH217735   1.770   1.490   3.133 -0.5214  0.4918  0.2910
 5924TIP3    H117736   1.790   1.398   3.118 -0.1712  0.9642 -2.7806
 5924TIP3    H217737   1.676   1.497   3.121 -0.5289  0.5367  0.3774
 5925TIP3   OH217738   3.753   6.063   5.506  0.4769  0.3840  0.2777
 5925TIP3    H117739   3.741   6.151   5.470 -0.5171  0.1613  0.0393
 5925TIP3    H217740   3.721   6.070   5.596  1.4857  0.5439  0.6394
 5926TIP3   OH217741   1.979   6.363   5.040  0.2147  0.1124 -0.2176
 5926TIP3    H117742   1.897   6.372   5.088  0.3008  2.0511 -0.3202
 5926TIP3    H217743   1.964   6.410   4.958  2.2537  3.1793  0.9709
 5927TIP3   OH217744   1.510   2.599   0.925 -0.4794  0.2090 -0.1896
 5927TIP3    H117745   1.467   2.684   0.920  1.2258  1.1324  0.2703
 5927TIP3    H217746   1.597   2.617   0.959  0.0609 -1.6892 -0.4120
 5928TIP3   OH217747   0.185   6.428   4.810 -0.1133 -0.3046  0.8200
 5928TIP3    H117748   0.115   6.492   4.795 -1.2638 -1.8270 -0.6707
 5928TIP3    H217749   0.265   6.475   4.789 -0.9138  0.7193 -0.0829
 5929TIP3   OH217750   1.033   2.872   0.750  0.0580  0.2036 -0.4720
 5929TIP3    H117751   1.125   2.859   0.724 -0.2470  1.4248 -2.3873
 5929TIP3    H217752   1.014   2.962   0.723 -1.4939  0.2237  0.6120
 5930TIP3   OH217753   3.558   1.497   3.054 -1.1260  0.3103 -0.4806
 5930TIP3    H117754   3.561   1.546   3.136  0.1401 -1.6651  0.7172
 5930TIP3    H217755   3.637   1.525   3.007 -0.2467 -0.7636  0.3326
 5931TIP3   OH217756   2.994   1.780   1.236  0.0656  0.2040 -0.7341
 5931TIP3    H117757   3.021   1.827   1.157  0.0553  0.5977 -0.5073
 5931TIP3    H217758   2.935   1.711   1.203 -0.0447  0.4465 -1.0587
 5932TIP3   OH217759   3.974   0.903   1.048  0.1177 -0.2736  0.2624
 5932TIP3    H117760   3.953   0.883   1.139  1.2079 -1.0235  0.3837
 5932TIP3    H217761   3.935   0.988   1.032 -0.2526 -0.2135  1.3813
 5933TIP3   OH217762   5.112   2.683   0.374 -0.1341 -0.4259  0.1122
 5933TIP3    H117763   5.102   2.669   0.468  0.6781  0.2821  0.3137
 5933TIP3    H217764   5.169   2.612   0.344  0.3259 -0.1457  0.3177
 5934TIP3   OH217765   6.983   1.165   1.163 -0.0429  0.2227  0.0229
 5934TIP3    H117766   7.077   1.181   1.160  0.1193 -0.6065  0.1810
 5934TIP3    H217767   6.950   1.228   1.226  0.7757 -0.9560  1.7249
 5935TIP3   OH217768   3.438   6.137   0.913  0.7078  0.1139  0.0407
 5935TIP3    H117769   3.510   6.164   0.969 -0.4514  0.8087  1.2601
 5935TIP3    H217770   3.359   6.158   0.964 -0.4421  1.6991 -2.2576
 5936TIP3   OH217771   3.611   2.953   1.863 -0.1268  0.2896  0.3318
 5936TIP3    H117772   3.667   3.026   1.891 -0.1597  0.6069 -0.4185
 5936TIP3    H217773   3.606   2.897   1.941 -1.3446  1.8319  1.4251
 5937TIP3   OH217774   2.603   5.280   0.974  0.2732 -0.2755  0.0378
 5937TIP3    H117775   2.611   5.255   0.882  1.7691  1.3070 -0.3143
 5937TIP3    H217776   2.539   5.219   1.010  1.1508 -2.2333 -1.5503
 5938TIP3   OH217777   7.222   1.250   1.468 -0.1803 -0.1807 -0.1621
 5938TIP3    H117778   7.140   1.200   1.459 -1.7166  2.1784 -0.0796
 5938TIP3    H217779   7.237   1.254   1.562 -0.0301 -0.5257 -0.1711
 5939TIP3   OH217780   0.290   1.430   3.915  0.4241  0.0897 -0.1398
 5939TIP3    H117781   0.199   1.459   3.919  0.5332  0.7197 -1.4307
 5939TIP3    H217782   0.340   1.509   3.895  1.5257  0.1217  2.4099
 5940TIP3   OH217783   3.029   1.075   1.810 -0.1527 -0.1487  0.1884
 5940TIP3    H117784   3.063   1.155   1.851 -0.0661 -0.9232  1.7385
 5940TIP3    H217785   3.101   1.013   1.818 -0.4366 -0.5605 -0.4440
 5941TIP3   OH217786   4.013   3.554   1.404  0.0776 -0.0566  0.0503
 5941TIP3    H117787   3.924   3.525   1.421  0.1787 -1.0604 -1.0237
 5941TIP3    H217788   4.068   3.488   1.446  0.3074 -0.4585 -0.8627
 5942TIP3   OH217789   3.824   3.338   5.656  0.1834 -0.0027 -0.0482
 5942TIP3    H117790   3.756   3.300   5.600 -0.9465  1.4097  0.3073
 5942TIP3    H217791   3.905   3.293   5.630 -0.8479 -1.6176 -0.5808
 5943TIP3   OH217792   3.425   2.375   3.924 -0.3916 -0.3775  0.2314
 5943TIP3    H117793   3.505   2.389   3.872 -0.9624  2.1022 -0.1377
 5943TIP3    H217794   3.354   2.384   3.861 -1.0289  0.2604  1.0181
 5944TIP3   OH217795   5.200   6.204   4.411 -0.3151  0.0978  0.5036
 5944TIP3    H117796   5.230   6.288   4.378 -0.0771 -0.2009 -0.0390
 5944TIP3    H217797   5.209   6.212   4.506  0.4178  0.4137  0.4131
 5945TIP3   OH217798   0.423   6.156   2.507 -0.3760 -0.1380 -0.2102
 5945TIP3    H117799   0.426   6.081   2.448  0.3262 -0.2905  0.0045
 5945TIP3    H217800   0.513   6.188   2.508 -0.1807 -0.6797  1.4788
 5946TIP3   OH217801   3.805   3.698   2.162 -0.1393 -0.4642 -0.2656
 5946TIP3    H117802   3.804   3.787   2.199 -1.7545  0.1548 -1.6374
 5946TIP3    H217803   3.802   3.640   2.238  2.7093  0.5484  0.7489
 5947TIP3   OH217804   0.782   5.323   5.838 -0.2043  0.4053 -0.0065
 5947TIP3    H117805   0.821   5.405   5.809  1.2747 -0.4132 -0.4783
 5947TIP3    H217806   0.797   5.262   5.766 -0.7533 -0.4275  0.5586
 5948TIP3   OH217807   1.472   2.125   0.840 -0.1413  0.5063  0.3303
 5948TIP3    H117808   1.451   2.200   0.896 -1.7605  0.3388 -0.0118
 5948TIP3    H217809   1.396   2.067   0.847 -0.0214  0.0780 -1.3564
 5949TIP3   OH217810   3.418   6.458   3.012 -0.0593  0.1329  0.1124
 5949TIP3    H117811   3.343   6.405   3.038 -0.5908  0.6151 -0.3845
 5949TIP3    H217812   3.393   6.495   2.927  0.7713  0.2481 -0.0967
 5950TIP3   OH217813   3.131   0.823   0.766 -0.0128  0.0364 -0.0341
 5950TIP3    H117814   3.114   0.817   0.860  0.9259  0.9006  0.2099
 5950TIP3    H217815   3.221   0.792   0.756 -0.5873 -1.4417 -0.8589
 5951TIP3   OH217816   1.209   3.016   1.817  0.2201 -0.4530  0.1490
 5951TIP3    H117817   1.168   2.962   1.749 -2.3653 -1.0227  2.0039
 5951TIP3    H217818   1.194   2.968   1.898  2.5697  0.5569  1.2653
 5952TIP3   OH217819   1.897   4.771   5.705  0.2712  0.4807 -0.1847
 5952TIP3    H117820   1.860   4.851   5.743  1.3456  1.1637 -0.5331
 5952TIP3    H217821   1.884   4.781   5.610  0.6782  0.3936 -0.2540
 5953TIP3   OH217822   4.542   5.962   5.730  0.7969  0.4021  0.1409
 5953TIP3    H117823   4.577   6.049   5.712  1.1462  0.0759 -0.8478
 5953TIP3    H217824   4.607   5.921   5.788  0.9413  0.5788  0.1037
 5954TIP3   OH217825   6.938   0.391   3.345 -0.1811  0.0267  0.0105
 5954TIP3    H117826   6.873   0.392   3.275 -1.4595  1.7342  1.1473
 5954TIP3    H217827   6.938   0.480   3.380  2.6578  0.0378  0.2021
 5955TIP3   OH217828   3.644   4.549   2.041  0.2521 -0.4475 -0.4909
 5955TIP3    H117829   3.555   4.580   2.024  0.3574  0.1884  0.0653
 5955TIP3    H217830   3.645   4.534   2.136  0.5070 -1.1976 -0.6116
 5956TIP3   OH217831   6.742   4.251   1.922 -0.3689  0.4165 -0.1414
 5956TIP3    H117832   6.822   4.290   1.958  4.1811 -5.2061 -2.4873
 5956TIP3    H217833   6.714   4.188   1.988 -0.1662 -0.5965 -0.9911
 5957TIP3   OH217834   5.343   5.290   1.928  0.0034  0.1098  0.2021
 5957TIP3    H117835   5.345   5.241   2.010  1.6409 -0.1300  0.0511
 5957TIP3    H217836   5.376   5.376   1.951  0.4155  0.0596 -0.1917
 5958TIP3   OH217837   4.133   1.259   4.462  0.2844 -0.2282 -0.4517
 5958TIP3    H117838   4.053   1.252   4.409 -1.6625  0.1283  2.1997
 5958TIP3    H217839   4.155   1.352   4.458  0.3583 -0.2592 -0.8785
 5959TIP3   OH217840   0.306   3.356   4.835  0.0317  0.0436 -0.2969
 5959TIP3    H117841   0.373   3.423   4.823  0.5573 -0.7146 -1.7540
 5959TIP3    H217842   0.236   3.381   4.774 -0.8284  0.5535  0.8573
 5960TIP3   OH217843   2.320   3.256   1.470 -0.7992 -0.0924  0.4050
 5960TIP3    H117844   2.350   3.342   1.441  1.2560 -0.8873  0.0077
 5960TIP3    H217845   2.303   3.267   1.563  1.1158  0.3696  0.7378
 5961TIP3   OH217846   6.467   3.268   0.341  0.2960  1.1257  0.3704
 5961TIP3    H117847   6.506   3.235   0.422 -2.2570  0.5595  1.4678
 5961TIP3    H217848   6.488   3.201   0.275  0.2854  0.3174  1.1648
 5962TIP3   OH217849   5.790   3.045   1.757  0.3323 -0.4136  0.1322
 5962TIP3    H117850   5.832   2.984   1.696  0.2118  0.3626 -0.7590
 5962TIP3    H217851   5.824   3.021   1.843  0.1081 -1.8814 -0.1653
 5963TIP3   OH217852   3.977   0.330   0.209 -0.4605  0.2433 -0.2561
 5963TIP3    H117853   3.964   0.424   0.220 -0.5846  0.0892  1.1088
 5963TIP3    H217854   3.971   0.295   0.298  1.5626 -0.8239 -0.5038
 5964TIP3   OH217855   2.531   4.145   3.222  0.3396  0.0389  0.0734
 5964TIP3    H117856   2.523   4.121   3.315  0.3206 -0.2088  0.0089
 5964TIP3    H217857   2.584   4.225   3.222  0.4680 -0.0472  0.2864
 5965TIP3   OH217858   3.460   5.432   4.571  0.5428 -0.0790  0.4934
 5965TIP3    H117859   3.447   5.359   4.512  0.5321  0.3549 -0.0484
 5965TIP3    H217860   3.493   5.503   4.516  1.7635 -0.0548  1.2240
 5966TIP3   OH217861   2.081   1.623   3.521 -0.1242  0.2019  0.2802
 5966TIP3    H117862   2.123   1.566   3.585 -0.7576 -1.3599 -0.6479
 5966TIP3    H217863   1.995   1.643   3.559  0.2550  0.9062  0.7917
 5967TIP3   OH217864   2.249   5.547   3.348  0.2197 -0.3359  0.2213
 5967TIP3    H117865   2.249   5.461   3.306  0.5168 -0.4385  0.4313
 5967TIP3    H217866   2.228   5.529   3.440 -0.0427 -0.1514  0.1984
 5968TIP3   OH217867   5.475   2.489   3.276 -0.4040  0.4408  0.1936
 5968TIP3    H117868   5.568   2.506   3.288 -0.8226  3.1366  0.2180
 5968TIP3    H217869   5.441   2.479   3.365 -0.4476  1.5138  0.3078
 5969TIP3   OH217870   1.356   1.748   2.391 -0.4399 -0.1042 -0.2737
 5969TIP3    H117871   1.428   1.758   2.453 -1.3333 -0.9681  0.9279
 5969TIP3    H217872   1.376   1.811   2.321  2.0026 -1.0253 -0.4913
 5970TIP3   OH217873   5.050   3.657   4.308 -0.1077  0.1478 -0.0976
 5970TIP3    H117874   5.102   3.624   4.382 -1.8405 -0.7689  0.7684
 5970TIP3    H217875   5.020   3.743   4.336  0.4323  0.4313 -0.3642
 5971TIP3   OH217876   7.121   4.406   4.053 -0.4150 -0.2701 -0.0176
 5971TIP3    H117877   7.150   4.473   4.116  2.1805 -1.3081  0.0489
 5971TIP3    H217878   7.155   4.324   4.089 -0.6921 -1.1746 -1.7215
 5972TIP3   OH217879   6.104   5.790   1.660 -0.7999 -0.0816  0.5524
 5972TIP3    H117880   6.078   5.729   1.591  0.7738 -0.5151  0.3164
 5972TIP3    H217881   6.158   5.737   1.719 -1.2750  0.5428  1.5793
 5973TIP3   OH217882   5.153   1.688   1.437 -0.7141 -0.1262 -0.0866
 5973TIP3    H117883   5.215   1.759   1.423  0.1906 -0.8167  0.3400
 5973TIP3    H217884   5.134   1.655   1.350 -0.0358 -0.2842 -0.1768
 5974TIP3   OH217885   0.647   0.048   0.130 -0.5111  0.1205 -0.7514
 5974TIP3    H117886   0.679   0.002   0.052 -1.0369  0.1072 -0.9629
 5974TIP3    H217887   0.579  -0.010   0.165 -0.2172  0.0841 -0.2291
 5975TIP3   OH217888   6.561   3.070   0.147  0.0571 -0.2037  0.4714
 5975TIP3    H117889   6.653   3.045   0.135 -0.3837 -1.0847 -1.5321
 5975TIP3    H217890   6.519   2.989   0.177 -0.8714 -1.3923 -3.3894
 5976TIP3   OH217891   1.128   1.694   4.833 -0.1033  0.2634  0.3791
 5976TIP3    H117892   1.147   1.654   4.748  0.2624  1.4539 -0.1212
 5976TIP3    H217893   1.164   1.632   4.897 -1.9527 -1.5240 -0.2142
 5977TIP3   OH217894   3.919   0.835   5.758 -0.1532 -0.0227 -0.0527
 5977TIP3    H117895   3.901   0.835   5.852 -1.5537 -0.3393 -0.2973
 5977TIP3    H217896   3.997   0.891   5.749 -1.1505  1.6638  1.0821
 5978TIP3   OH217897   6.953   1.515   2.785  0.4473  0.1282  0.0136
 5978TIP3    H117898   6.944   1.610   2.787  0.2009  0.1266 -0.7336
 5978TIP3    H217899   6.997   1.496   2.702  2.2855 -0.2891  1.0293
 5979TIP3   OH217900   5.128   3.035   0.497 -0.2135 -0.0184 -0.4186
 5979TIP3    H117901   5.116   3.114   0.445  1.3188  0.8314  0.4553
 5979TIP3    H217902   5.070   3.046   0.571 -0.7360 -0.1842 -0.7991
 5980TIP3   OH217903   2.521   6.341   2.978 -0.4776 -0.5357 -0.1368
 5980TIP3    H117904   2.613   6.346   2.953 -0.6655 -0.6624 -0.8775
 5980TIP3    H217905   2.490   6.259   2.939 -0.4035 -1.5651  1.8242
 5981TIP3   OH217906   3.926   2.919   5.089  0.0504 -0.0482  0.3190
 5981TIP3    H117907   3.849   2.909   5.145 -0.4273 -0.0171 -0.3292
 5981TIP3    H217908   3.980   2.842   5.109  1.1133  1.2222  2.6972
 5982TIP3   OH217909   2.137   2.681   0.163 -0.5011  0.0713  0.1187
 5982TIP3    H117910   2.202   2.644   0.103 -1.0473 -2.3940  0.9682
 5982TIP3    H217911   2.136   2.623   0.238 -3.1201  0.4676  0.5006
 5983TIP3   OH217912   6.522   5.236   1.528 -0.0352 -0.4581  0.8061
 5983TIP3    H117913   6.597   5.177   1.537 -0.1211 -0.6519  0.3032
 5983TIP3    H217914   6.481   5.236   1.615  1.2919  0.6973  1.4913
 5984TIP3   OH217915   4.753   1.346   2.053 -0.4823  0.2516  0.1064
 5984TIP3    H117916   4.658   1.338   2.045 -0.5884  0.4183  1.0603
 5984TIP3    H217917   4.768   1.363   2.147  0.4210  1.0424 -0.1643
 5985TIP3   OH217918   4.699   1.337   2.340  0.0111  0.5761 -0.6309
 5985TIP3    H117919   4.736   1.402   2.400  0.2300 -0.6911  0.6446
 5985TIP3    H217920   4.609   1.326   2.370 -0.3539  1.0563 -1.5176
 5986TIP3   OH217921   2.796   4.632   0.107  0.2185 -0.6049 -0.5178
 5986TIP3    H117922   2.891   4.631   0.097  0.1382 -1.0500 -1.3300
 5986TIP3    H217923   2.773   4.542   0.132 -0.0396 -0.6730 -0.9688
 5987TIP3   OH217924   3.302   0.687   0.060  0.3510 -0.3282 -0.0210
 5987TIP3    H117925   3.230   0.662   0.117  1.9882 -0.4875  2.0979
 5987TIP3    H217926   3.363   0.613   0.064  2.8462  1.6472  2.1985
 5988TIP3   OH217927   4.115   3.967   2.852 -0.0156  0.7515  0.4113
 5988TIP3    H117928   4.116   3.931   2.763 -0.8872  1.8959 -0.0844
 5988TIP3    H217929   4.205   3.999   2.866 -0.2582  1.9888 -0.6818
 5989TIP3   OH217930   1.107   0.317   5.064 -0.7584  0.0494 -0.0410
 5989TIP3    H117931   1.093   0.297   5.156 -1.4583  1.4244  0.1726
 5989TIP3    H217932   1.107   0.232   5.021 -0.6233 -0.6014  1.1921
 5990TIP3   OH217933   0.133   5.214   0.978  0.4042 -0.3263 -0.2122
 5990TIP3    H117934   0.111   5.130   1.017  0.3618 -0.1971  0.0471
 5990TIP3    H217935   0.197   5.193   0.909 -0.6040 -0.7199 -1.0614
 5991TIP3   OH217936   6.984   3.657   0.823 -0.8839  0.4087  0.0638
 5991TIP3    H117937   6.989   3.696   0.736  0.5049 -1.7738 -0.9353
 5991TIP3    H217938   7.048   3.706   0.875 -0.4570  0.6173 -0.6404
 5992TIP3   OH217939   5.852   1.250   5.269 -0.0571  0.1546  0.1822
 5992TIP3    H117940   5.921   1.216   5.214  0.4935  1.9329 -0.2876
 5992TIP3    H217941   5.885   1.242   5.358 -0.5331 -1.7868  0.2159
 5993TIP3   OH217942   4.298   5.865   0.919  0.0161 -0.3364 -0.1091
 5993TIP3    H117943   4.236   5.930   0.953 -0.6763 -0.4387 -1.0997
 5993TIP3    H217944   4.338   5.826   0.996 -0.3189  0.5543  0.5226
 5994TIP3   OH217945   6.570   0.345   1.222  0.5272  0.1944  0.3089
 5994TIP3    H117946   6.522   0.325   1.141  1.0812  1.2896 -0.3175
 5994TIP3    H217947   6.533   0.286   1.287  0.1858 -0.8479 -0.7843
 5995TIP3   OH217948   6.805   4.139   2.541 -0.0180 -0.0732  0.0008
 5995TIP3    H117949   6.747   4.173   2.472 -0.0046  0.2971  0.1704
 5995TIP3    H217950   6.773   4.180   2.622  0.6892  0.3933  0.0502
 5996TIP3   OH217951   1.974   4.244   0.611 -0.0401  0.2399  0.1530
 5996TIP3    H117952   2.003   4.291   0.690  0.7694  1.5298 -0.8848
 5996TIP3    H217953   1.908   4.183   0.643  0.6718  0.3272  1.9297
 5997TIP3   OH217954   6.517   5.916   5.517 -0.4180  0.2002  0.3174
 5997TIP3    H117955   6.465   5.914   5.597 -2.3276  0.6723 -0.8537
 5997TIP3    H217956   6.491   5.997   5.473  0.3648 -0.1912 -0.9243
 5998TIP3   OH217957   6.096   4.235   0.653 -0.3646  0.2389  0.1080
 5998TIP3    H117958   6.026   4.273   0.600 -0.3564  0.2193  0.0833
 5998TIP3    H217959   6.076   4.264   0.743 -0.6123 -0.0752  0.1549
 5999TIP3   OH217960   5.816   0.332   2.384 -0.2685  0.0362  0.5147
 5999TIP3    H117961   5.817   0.424   2.358 -0.0873  0.8939  3.2488
 5999TIP3    H217962   5.905   0.301   2.367 -0.5408  0.0578 -1.1844
 6000TIP3   OH217963   4.299   6.217   2.804  0.4421 -0.1243  0.4462
 6000TIP3    H117964   4.323   6.258   2.721  0.5364  1.1401  1.0702
 6000TIP3    H217965   4.225   6.268   2.836 -1.1154 -2.0368  0.0642
 6001TIP3   OH217966   5.965   1.793   0.279  0.7185  0.2359  0.0675
 6001TIP3    H117967   5.889   1.776   0.224  1.1645 -0.1559 -0.4474
 6001TIP3    H217968   5.929   1.817   0.364  0.0177  0.5856 -0.3211
 6002TIP3   OH217969   1.117   4.318   4.143 -0.4985  0.3136 -0.3483
 6002TIP3    H117970   1.171   4.306   4.065 -1.7106 -4.0575 -0.8042
 6002TIP3    H217971   1.035   4.355   4.110  0.1407  1.6420 -0.5261
 6003TIP3   OH217972   5.705   3.826   5.442 -0.0562  0.5928 -0.3489
 6003TIP3    H117973   5.780   3.858   5.491  0.5121  2.5884 -2.3598
 6003TIP3    H217974   5.630   3.845   5.498  0.6792  1.5498  0.3280
 6004TIP3   OH217975   1.872   1.154   2.343  0.1677  0.6246  0.2298
 6004TIP3    H117976   1.939   1.106   2.296  0.6736 -0.4448  1.9693
 6004TIP3    H217977   1.859   1.234   2.292  1.6358  0.1327 -0.9620
 6005TIP3   OH217978   4.168   0.945   3.305  0.4730  0.1006  0.7339
 6005TIP3    H117979   4.113   0.922   3.230  0.8988  1.6452 -0.0833
 6005TIP3    H217980   4.244   0.888   3.298  1.4076  1.4827 -1.1259
 6006TIP3   OH217981   2.221   4.398   0.762 -0.0566 -0.2470  0.0937
 6006TIP3    H117982   2.150   4.463   0.761 -1.4086 -1.6366 -1.9575
 6006TIP3    H217983   2.299   4.447   0.737 -0.6682  0.9462  0.4524
 6007TIP3   OH217984   4.200   4.212   3.736  0.5156 -0.3517  0.1450
 6007TIP3    H117985   4.248   4.133   3.760  0.3406 -0.4020  0.3252
 6007TIP3    H217986   4.241   4.240   3.654  0.9038 -0.3540  0.3342
 6008TIP3   OH217987   2.971   0.953   3.064 -0.5825 -0.0672  0.6570
 6008TIP3    H117988   2.906   0.968   3.132  0.5619 -0.6747  1.9434
 6008TIP3    H217989   2.926   0.973   2.982 -0.9882  4.2492  1.7361
 6009TIP3   OH217990   4.707   6.167   1.401 -0.5133  0.0024 -0.2933
 6009TIP3    H117991   4.679   6.114   1.476  0.4917  1.7356  1.3768
 6009TIP3    H217992   4.799   6.187   1.419 -0.0254 -0.1326 -2.3887
 6010TIP3   OH217993   5.330   1.265   1.885 -0.1631  0.1512  0.8850
 6010TIP3    H117994   5.356   1.236   1.972 -0.7826 -0.9098  0.7219
 6010TIP3    H217995   5.235   1.271   1.888 -0.3363 -1.4061 -0.1449
 6011TIP3   OH217996   6.646   0.907   2.734 -0.2601 -0.3539  0.3319
 6011TIP3    H117997   6.597   0.835   2.772 -0.9906  0.6882  1.4228
 6011TIP3    H217998   6.583   0.977   2.723  0.6663  0.5148  0.3581
 6012TIP3   OH217999   0.120   5.030   3.264 -0.0273  0.2189 -0.1577
 6012TIP3    H118000   0.172   5.047   3.186  0.2454  1.0849  0.2035
 6012TIP3    H218001   0.031   5.052   3.240 -0.4314 -2.1089 -1.0611
 6013TIP3   OH218002   0.326   1.795   0.289 -0.5177 -0.0225 -0.3514
 6013TIP3    H118003   0.278   1.866   0.331 -1.0689 -0.6368  0.0702
 6013TIP3    H218004   0.392   1.839   0.236 -0.9238  0.8070 -0.1822
 6014TIP3   OH218005   5.325   2.304   1.233 -0.0828  0.0314  0.2443
 6014TIP3    H118006   5.243   2.281   1.277 -0.5923 -0.2287 -0.8012
 6014TIP3    H218007   5.311   2.394   1.203  0.5247  0.4543  1.1953
 6015TIP3   OH218008   4.714   3.456   3.619  0.3065 -0.2517 -0.4889
 6015TIP3    H118009   4.621   3.473   3.637  0.2181 -0.5166 -0.6842
 6015TIP3    H218010   4.723   3.361   3.632  0.3966 -0.3343 -1.1486
 6016TIP3   OH218011   3.057   3.974   2.337 -0.1197 -0.6357 -0.4851
 6016TIP3    H118012   3.136   3.927   2.365 -0.5431 -1.8695 -1.2490
 6016TIP3    H218013   3.054   3.961   2.243 -0.4612  0.6547 -0.6607
 6017TIP3   OH218014   4.917   1.566   4.573  0.0078 -0.1474  0.3136
 6017TIP3    H118015   4.902   1.548   4.666 -1.6613  0.2754  0.1504
 6017TIP3    H218016   4.830   1.578   4.536  0.7033  1.2135 -1.0012
 6018TIP3   OH218017   3.134   6.486   3.982 -0.2721 -0.2106 -0.1742
 6018TIP3    H118018   3.216   6.511   4.025  0.0791 -2.7611  0.8213
 6018TIP3    H218019   3.156   6.407   3.933 -1.9441 -0.4175 -0.6573
 6019TIP3   OH218020   2.135   0.645   4.902  0.1617  0.5480  0.3321
 6019TIP3    H118021   2.084   0.726   4.898 -0.4253  0.1991  0.6957
 6019TIP3    H218022   2.226   0.675   4.908  0.0786  1.1634 -1.2011
 6020TIP3   OH218023   0.904   5.330   3.895 -0.3711  0.3603  0.1721
 6020TIP3    H118024   0.969   5.399   3.881 -0.5665  0.7077  0.8822
 6020TIP3    H218025   0.838   5.346   3.828 -0.5247  1.0116  0.4630
 6021TIP3   OH218026   3.065   1.409   3.129 -0.4433 -0.4810 -0.2446
 6021TIP3    H118027   3.144   1.458   3.153 -0.2187 -0.8872 -0.1426
 6021TIP3    H218028   3.006   1.475   3.092  0.9408 -0.5575 -2.8397
 6022TIP3   OH218029   5.881   4.991   1.300 -0.1674  0.7690 -0.6824
 6022TIP3    H118030   5.968   5.022   1.274 -0.1856  1.8658  0.4675
 6022TIP3    H218031   5.898   4.926   1.369 -0.2617  1.2614 -0.1892
 6023TIP3   OH218032   3.658   5.562   2.788  0.2067 -0.4157 -0.0947
 6023TIP3    H118033   3.667   5.519   2.703  1.2441  1.0547 -0.7722
 6023TIP3    H218034   3.566   5.548   2.811  0.4322 -2.7718 -0.3371
 6024TIP3   OH218035   2.259   4.777   3.592  0.1300  0.5356 -0.3113
 6024TIP3    H118036   2.303   4.698   3.623  0.8892  1.5578  1.3122
 6024TIP3    H218037   2.326   4.825   3.543 -0.1892  0.4422 -0.8580
 6025TIP3   OH218038   2.318   1.774   1.053  0.1354 -0.5579  0.4729
 6025TIP3    H118039   2.372   1.707   1.013 -0.9372 -1.2277  0.0991
 6025TIP3    H218040   2.318   1.846   0.991  2.5140  0.4687  1.5307
 6026TIP3   OH218041   2.529   1.262   2.378  0.6480  0.7070  0.4413
 6026TIP3    H118042   2.448   1.235   2.336  0.8087 -1.7997  1.4969
 6026TIP3    H218043   2.591   1.274   2.306  0.6900 -2.5844 -0.2611
 6027TIP3   OH218044   2.873   3.020   5.221  0.3114  0.3336  0.9043
 6027TIP3    H118045   2.901   2.969   5.298 -0.3050 -1.5685 -0.0599
 6027TIP3    H218046   2.819   3.090   5.258  0.3138 -0.3216  2.2358
 6028TIP3   OH218047   3.595   2.488   1.225 -0.1436 -0.0937  0.3500
 6028TIP3    H118048   3.646   2.485   1.144 -1.1408  0.4741 -0.3097
 6028TIP3    H218049   3.539   2.411   1.221 -0.5365  0.1984  0.2820
 6029TIP3   OH218050   2.467   3.193   3.223 -0.4577  0.0648  0.2380
 6029TIP3    H118051   2.546   3.140   3.218 -0.4285  0.1644 -0.3714
 6029TIP3    H218052   2.407   3.152   3.161 -0.3645  0.8721 -0.3892
 6030TIP3   OH218053   1.241   1.557   5.019 -0.3138 -0.1777  0.1194
 6030TIP3    H118054   1.309   1.517   5.074 -1.3273 -2.2342 -0.0293
 6030TIP3    H218055   1.182   1.600   5.082 -0.1784 -0.4825  0.4607
 6031TIP3   OH218056   5.381   2.934   5.051  0.1089  0.0478  0.8431
 6031TIP3    H118057   5.396   2.972   5.137  0.9459 -0.6011  0.9970
 6031TIP3    H218058   5.469   2.918   5.016 -0.1465  2.0380 -0.9292
 6032TIP3   OH218059   4.023   6.723   1.684 -0.0004  0.0879 -0.8079
 6032TIP3    H118060   4.118   6.713   1.690 -0.2068 -1.3358  0.5741
 6032TIP3    H218061   3.988   6.660   1.747 -1.8157  1.8293  0.0401
 6033TIP3   OH218062   4.007   1.877   3.552 -0.2194  0.0336 -0.1337
 6033TIP3    H118063   4.045   1.803   3.598 -2.1838 -1.2985 -0.5425
 6033TIP3    H218064   4.044   1.873   3.464  0.7807  0.4581  0.2413
 6034TIP3   OH218065   1.410   0.780   1.238 -0.2225  0.1477 -0.4633
 6034TIP3    H118066   1.448   0.791   1.325 -0.3996  2.3098 -0.6101
 6034TIP3    H218067   1.323   0.744   1.254 -0.4616  1.0462  0.3088
 6035TIP3   OH218068   4.689   6.251   0.950 -0.0128  0.2066  0.2706
 6035TIP3    H118069   4.619   6.308   0.980  0.9559  0.9302  1.2157
 6035TIP3    H218070   4.723   6.293   0.871  1.7245  1.8377  1.8110
 6036TIP3   OH218071   3.697   6.073   2.249  0.1294 -0.3724  0.7154
 6036TIP3    H118072   3.638   6.077   2.174  0.9224 -1.3391  0.0252
 6036TIP3    H218073   3.657   6.008   2.307  1.3830 -2.3853 -0.5692
 6037TIP3   OH218074   6.306   4.248   3.312  0.5785  0.6447 -0.3854
 6037TIP3    H118075   6.366   4.298   3.367 -1.7387  2.5802  0.5413
 6037TIP3    H218076   6.283   4.308   3.241 -0.5076  0.0787 -0.5399
 6038TIP3   OH218077   6.563   1.075   3.506  0.1048  0.3117  0.4806
 6038TIP3    H118078   6.486   1.031   3.541  0.6459 -0.6770  0.4731
 6038TIP3    H218079   6.588   1.022   3.430 -0.0543  1.4459 -0.3877
 6039TIP3   OH218080   4.032   0.364   1.772  0.9677  0.3993 -0.3442
 6039TIP3    H118081   4.043   0.290   1.711  3.2423 -0.5200  1.0490
 6039TIP3    H218082   4.039   0.441   1.716  0.2872 -0.4072 -1.5980
 6040TIP3   OH218083   3.536   2.474   5.468 -0.0817  0.1189 -0.2668
 6040TIP3    H118084   3.502   2.394   5.429 -1.5267  0.6117 -0.0897
 6040TIP3    H218085   3.514   2.467   5.561 -0.2663  0.7274 -0.2588
 6041TIP3   OH218086   2.115   1.818   5.528 -0.4819 -0.1980 -0.3032
 6041TIP3    H118087   2.080   1.768   5.602 -2.8566  0.9425 -0.5657
 6041TIP3    H218088   2.086   1.771   5.450 -0.8683  0.3692 -0.5168
 6042TIP3   OH218089   5.566   4.943   2.039 -0.3433 -0.2219 -0.4076
 6042TIP3    H118090   5.489   5.000   2.046 -1.5204 -1.8883  1.9659
 6042TIP3    H218091   5.636   4.991   2.082 -0.6982  0.3657 -0.4775
 6043TIP3   OH218092   0.788   1.425   1.781  0.1477 -0.0307  0.0261
 6043TIP3    H118093   0.746   1.510   1.794  1.0268  0.6488 -1.2540
 6043TIP3    H218094   0.722   1.372   1.736  0.0771  0.4899 -0.5080
 6044TIP3   OH218095   2.035   6.115   0.997  0.5123  0.1920  0.5328
 6044TIP3    H118096   2.122   6.146   1.022  0.4087  0.3951  0.6498
 6044TIP3    H218097   2.038   6.020   1.008  0.7163  0.2002  0.5434
 6045TIP3   OH218098   1.065   3.775   4.638  0.5768 -0.0026  0.4343
 6045TIP3    H118099   1.067   3.852   4.696  0.3608 -1.0539  1.8917
 6045TIP3    H218100   0.975   3.773   4.604  0.1447 -0.4352  1.5672
 6046TIP3   OH218101   3.333   3.398   4.581 -0.3438  0.0071 -0.2145
 6046TIP3    H118102   3.248   3.439   4.562 -0.9778 -0.1486  2.0423
 6046TIP3    H218103   3.396   3.470   4.576 -0.6405  0.2093 -1.4653
 6047TIP3   OH218104   2.148   0.014   5.158  0.2063 -1.2733 -0.0136
 6047TIP3    H118105   2.088   0.046   5.226 -1.6235 -2.4940 -0.9814
 6047TIP3    H218106   2.105   0.037   5.076  2.0885 -0.3768 -0.7877
 6048TIP3   OH218107   1.882   5.788   4.325  0.3112  0.1585  0.1335
 6048TIP3    H118108   1.925   5.839   4.394  0.2740  1.9789 -1.1174
 6048TIP3    H218109   1.925   5.702   4.329  0.7662  0.4320  1.9596
 6049TIP3   OH218110   2.717   1.705   3.312 -0.3003  0.4234  0.1070
 6049TIP3    H118111   2.780   1.766   3.274 -0.4014  0.7153  0.4086
 6049TIP3    H218112   2.770   1.641   3.359 -0.1584 -0.0730 -0.6993
 6050TIP3   OH218113   0.035   6.426   1.011 -0.1662 -0.7192  0.0162
 6050TIP3    H118114   0.034   6.444   1.105 -0.0853 -1.8318  0.2423
 6050TIP3    H218115   0.054   6.511   0.971  2.6829 -0.7229  1.1528
 6051TIP3   OH218116   0.200   4.772   4.939  0.2631 -0.2902 -0.0136
 6051TIP3    H118117   0.253   4.721   4.878  0.1048 -2.0258  1.2276
 6051TIP3    H218118   0.244   4.761   5.023 -1.3524 -0.7392  0.8091
 6052TIP3   OH218119   6.775   0.938   1.466  0.1911 -0.6266 -0.7449
 6052TIP3    H118120   6.750   0.846   1.475  2.0627 -1.0129  1.4923
 6052TIP3    H218121   6.759   0.976   1.552  1.0515  0.7113 -1.1454
 6053TIP3   OH218122   2.943   6.551   4.499  0.4601  0.2608 -0.2418
 6053TIP3    H118123   2.877   6.483   4.510  1.3467 -0.6865 -0.6627
 6053TIP3    H218124   2.947   6.567   4.405  0.3223  0.8357 -0.1546
 6054TIP3   OH218125   4.354   3.394   4.524 -0.1371  0.4366  0.1714
 6054TIP3    H118126   4.418   3.352   4.581  0.2113  1.1749  0.3336
 6054TIP3    H218127   4.400   3.408   4.441 -0.9200 -1.4985 -0.6654
 6055TIP3   OH218128   1.534   0.865   0.003 -0.0617 -0.0844  0.6403
 6055TIP3    H118129   1.501   0.874   0.092 -0.7633 -1.4710  0.5344
 6055TIP3    H218130   1.587   0.785   0.004  1.5626  0.9235  0.2702
 6056TIP3   OH218131   1.311   3.619   0.726  0.2231  0.8323  0.2144
 6056TIP3    H118132   1.301   3.536   0.681  0.0215  0.5360  0.7983
 6056TIP3    H218133   1.305   3.598   0.819  2.1063  1.2319  0.4666
 6057TIP3   OH218134   2.454   1.174   5.631  0.5907 -0.0120  0.3771
 6057TIP3    H118135   2.415   1.133   5.707  1.5722 -2.5747 -0.4045
 6057TIP3    H218136   2.380   1.200   5.576 -0.0812 -0.7107  0.9374
 6058TIP3   OH218137   4.412   4.148   1.222  0.4323  0.9524 -0.6587
 6058TIP3    H118138   4.384   4.074   1.169 -0.2234 -1.8360  3.1216
 6058TIP3    H218139   4.507   4.143   1.222  0.3936 -0.2321 -0.1551
 6059TIP3   OH218140   1.359   5.940   0.494  0.2957  0.0776  0.2171
 6059TIP3    H118141   1.430   5.997   0.525 -0.2736  0.3604  1.0199
 6059TIP3    H218142   1.308   5.996   0.435  0.6884 -0.1111 -0.3192
 6060TIP3   OH218143   0.926   2.220   0.226 -0.0883 -0.2163  0.2523
 6060TIP3    H118144   0.931   2.305   0.271 -0.1546 -0.0767 -0.0027
 6060TIP3    H218145   0.893   2.160   0.293 -2.1130  0.3945 -0.1230
 6061TIP3   OH218146   3.696   2.438   5.696 -0.0516 -0.4469 -0.0973
 6061TIP3    H118147   3.778   2.425   5.744  0.1485 -0.1649 -0.3538
 6061TIP3    H218148   3.706   2.384   5.617 -0.2922 -0.7476  0.0784
 6062TIP3   OH218149   4.603   2.170   4.902  0.1558  0.8246 -0.1396
 6062TIP3    H118150   4.521   2.197   4.863  0.1564  0.6035 -0.2941
 6062TIP3    H218151   4.623   2.086   4.861  1.0997  1.4579 -1.0446
 6063TIP3   OH218152   6.554   2.423   0.528  0.1667 -0.0101  0.0284
 6063TIP3    H118153   6.532   2.429   0.435  0.2146 -1.9194 -0.1427
 6063TIP3    H218154   6.522   2.505   0.566 -1.1869  0.1586 -1.3918
 6064TIP3   OH218155   0.089   1.258   5.117  0.1309 -0.0199  0.1346
 6064TIP3    H118156   0.006   1.216   5.140  0.1021  0.7786  1.6202
 6064TIP3    H218157   0.086   1.268   5.022 -0.8590 -1.2586  0.0084
 6065TIP3   OH218158   3.429   3.610   3.649  0.2164 -0.5273 -0.3788
 6065TIP3    H118159   3.355   3.643   3.597  0.5333  0.9216  0.0593
 6065TIP3    H218160   3.424   3.658   3.732  0.4489 -1.9133  0.4764
 6066TIP3   OH218161   5.419   6.089   2.255  0.7811 -0.6051 -0.4563
 6066TIP3    H118162   5.330   6.091   2.290  0.7193 -2.5873 -0.4049
 6066TIP3    H218163   5.418   6.156   2.186 -0.7869 -0.6575 -0.5337
 6067TIP3   OH218164   0.958   5.160   4.118  0.0359  0.6430  0.0057
 6067TIP3    H118165   1.038   5.192   4.159 -0.1214  1.3132 -0.1998
 6067TIP3    H218166   0.944   5.218   4.043  0.0170 -0.2157 -0.6742
 6068TIP3   OH218167   4.675   1.849   3.028  0.0240 -0.2798  0.0980
 6068TIP3    H118168   4.707   1.814   2.945 -0.8632 -1.6180  0.2807
 6068TIP3    H218169   4.580   1.846   3.021 -0.1081 -1.8729  1.6832
 6069TIP3   OH218170   2.591   0.272   1.247 -0.3222 -0.0664  0.0097
 6069TIP3    H118171   2.683   0.274   1.274 -0.3977 -0.6641  0.3450
 6069TIP3    H218172   2.554   0.353   1.280  0.8663  1.9568 -3.1376
 6070TIP3   OH218173   1.260   4.841   4.193  0.1153 -0.0774 -0.9618
 6070TIP3    H118174   1.232   4.829   4.102 -0.7560 -1.8233 -0.5128
 6070TIP3    H218175   1.217   4.770   4.240  1.1012  0.3915  0.7091
 6071TIP3   OH218176   5.870   6.001   0.057 -0.0438  0.0470 -0.1015
 6071TIP3    H118177   5.835   6.084   0.089  0.0339  0.7831 -1.8106
 6071TIP3    H218178   5.831   5.990  -0.029  0.1310 -1.5966  0.0030
 6072TIP3   OH218179   7.009   0.977   2.266  0.5459 -0.0461 -0.4084
 6072TIP3    H118180   7.052   1.062   2.273 -2.0660  1.2810  0.8964
 6072TIP3    H218181   6.954   0.984   2.188  0.7715 -0.8020 -0.6485
 6073TIP3   OH218182   3.921   4.293   5.312 -0.0788  0.1026  0.2903
 6073TIP3    H118183   3.865   4.256   5.380 -0.7373  0.0442 -0.2748
 6073TIP3    H218184   4.004   4.310   5.356 -0.2695 -0.5906  0.9366
 6074TIP3   OH218185   0.501   6.237   2.132  0.7121  0.6598 -0.1707
 6074TIP3    H118186   0.595   6.228   2.115  0.7283 -1.1143  0.5396
 6074TIP3    H218187   0.494   6.311   2.193  1.7208  0.4697  0.1958
 6075TIP3   OH218188   0.669   4.382   5.166 -0.4385 -0.1856 -0.2686
 6075TIP3    H118189   0.625   4.329   5.233  2.0379  0.1016  1.7428
 6075TIP3    H218190   0.702   4.318   5.103  1.7345 -1.0937  1.6486
 6076TIP3   OH218191   5.278   3.345   3.771  0.2914 -0.0329  0.0952
 6076TIP3    H118192   5.189   3.327   3.800  0.2560  2.2544  1.6915
 6076TIP3    H218193   5.275   3.336   3.676 -1.1771 -1.7129  0.2517
 6077TIP3   OH218194   3.518   2.175   2.884 -0.2346  0.0281  0.2462
 6077TIP3    H118195   3.540   2.087   2.852  0.6425  0.3629 -0.0960
 6077TIP3    H218196   3.449   2.205   2.825  1.0749  0.4739 -1.1014
 6078TIP3   OH218197   0.187   5.821   5.535 -0.9568 -0.0836 -0.2854
 6078TIP3    H118198   0.189   5.799   5.442 -1.7337  1.2717 -0.6672
 6078TIP3    H218199   0.109   5.876   5.544  0.8670  2.5642  0.4969
 6079TIP3   OH218200   2.266   6.153   1.179 -0.2306  0.6565 -0.0722
 6079TIP3    H118201   2.264   6.156   1.274 -0.9810  1.1299 -0.0962
 6079TIP3    H218202   2.322   6.078   1.158 -1.1307 -0.2704  0.7506
 6080TIP3   OH218203   6.870   5.154   2.929  0.2517 -0.2785  0.3812
 6080TIP3    H118204   6.963   5.152   2.950  0.5658  0.7790 -0.7847
 6080TIP3    H218205   6.843   5.062   2.929  0.9882 -0.5224  1.9437
 6081TIP3   OH218206   4.308   4.201   4.670  0.4366  0.4862  0.0873
 6081TIP3    H118207   4.372   4.266   4.640  0.6194  1.0425  1.6227
 6081TIP3    H218208   4.223   4.236   4.643  0.5885  1.0074  0.2933
 6082TIP3   OH218209   4.452   3.688   2.574  0.2412 -0.4601  0.2253
 6082TIP3    H118210   4.491   3.604   2.552 -1.4799 -1.4579  0.7945
 6082TIP3    H218211   4.399   3.670   2.652  1.2077  1.5487  1.4249
 6083TIP3   OH218212   0.510   2.696   5.826  0.4728  0.1357  0.0960
 6083TIP3    H118213   0.453   2.773   5.819  1.9109  1.4217  1.5741
 6083TIP3    H218214   0.471   2.643   5.896 -1.0760 -1.0738 -1.5797
 6084TIP3   OH218215   1.053   0.742   3.497  0.1893 -0.5021  0.0578
 6084TIP3    H118216   1.085   0.828   3.469  1.1797 -0.7832  0.2890
 6084TIP3    H218217   1.127   0.702   3.542 -0.3360 -1.3886  0.1659
 6085TIP3   OH218218   1.468   3.121   5.134  0.2130  0.2893  0.2549
 6085TIP3    H118219   1.430   3.180   5.199  0.0881 -1.5524  1.9819
 6085TIP3    H218220   1.414   3.042   5.140  1.4857 -0.6780 -0.6159
 6086TIP3   OH218221   2.849   3.982   5.052  0.4540 -0.6384 -0.0702
 6086TIP3    H118222   2.937   3.989   5.088  0.0670 -1.0551  0.9731
 6086TIP3    H218223   2.794   3.957   5.126 -0.7479  0.7843 -0.4182
 6087TIP3   OH218224   0.517   2.963   5.672 -0.2386  0.3392  0.2677
 6087TIP3    H118225   0.598   2.967   5.723 -0.4667  0.5955  0.6136
 6087TIP3    H218226   0.486   3.054   5.671 -0.9658  0.1052  0.8539
 6088TIP3   OH218227   1.222   3.136   4.112 -0.7496  0.2617 -0.3485
 6088TIP3    H118228   1.155   3.202   4.129 -2.1185 -1.4845  1.5892
 6088TIP3    H218229   1.249   3.106   4.199 -1.0826 -2.5305 -1.1091
 6089TIP3   OH218230   4.152   4.210   0.599  0.0106  0.7428  0.3490
 6089TIP3    H118231   4.141   4.245   0.510 -1.2794 -0.4173  0.0240
 6089TIP3    H218232   4.063   4.194   0.630  0.3998  1.8041  2.1670
 6090TIP3   OH218233   4.809   4.518   5.291  0.2167  0.1018  0.0169
 6090TIP3    H118234   4.811   4.612   5.313  0.5278  0.0009  0.4483
 6090TIP3    H218235   4.754   4.513   5.213 -0.7787  0.5093  0.6688
 6091TIP3   OH218236   0.866   1.115   0.701  0.5489  0.1069  0.0852
 6091TIP3    H118237   0.868   1.020   0.689 -0.1116 -0.1030  1.4553
 6091TIP3    H218238   0.958   1.141   0.709  0.6660 -0.8015  2.2663
 6092TIP3   OH218239   5.296   3.710   5.716 -0.4556  0.1268  0.2890
 6092TIP3    H118240   5.209   3.743   5.740 -1.8569 -1.8694 -1.6977
 6092TIP3    H218241   5.314   3.749   5.630  0.0942 -0.4091  0.1560
 6093TIP3   OH218242   5.275   5.185   5.500 -0.1022  0.5187 -0.2110
 6093TIP3    H118243   5.268   5.118   5.431  0.5941  0.0657  0.1494
 6093TIP3    H218244   5.216   5.255   5.472 -0.3417  0.0367 -0.9242
 6094TIP3   OH218245   2.525   2.767   4.414  0.3483 -0.4462 -0.2046
 6094TIP3    H118246   2.570   2.754   4.330 -2.5311 -0.9294 -1.8096
 6094TIP3    H218247   2.526   2.681   4.455 -1.5923 -1.2112 -1.6308
 6095TIP3   OH218248   1.304   4.735   0.851 -0.6133  0.1723 -0.0941
 6095TIP3    H118249   1.350   4.745   0.934 -0.0370 -0.8554 -0.2707
 6095TIP3    H218250   1.263   4.648   0.857 -0.0121 -0.2013 -1.1424
 6096TIP3   OH218251   1.325   4.145   5.087  0.0077 -0.2941  0.3268
 6096TIP3    H118252   1.402   4.174   5.136  0.5810 -0.9350 -0.1577
 6096TIP3    H218253   1.362   4.092   5.016 -0.8500 -0.1115 -0.2685
 6097TIP3   OH218254   3.267   3.568   1.668 -0.0293 -0.5274 -0.0411
 6097TIP3    H118255   3.210   3.602   1.738  0.1214  1.2722 -0.7328
 6097TIP3    H218256   3.209   3.516   1.613 -1.1041  1.3684 -0.8031
 6098TIP3   OH218257   3.009   5.863   2.235 -0.0962  0.2055 -0.5987
 6098TIP3    H118258   2.964   5.903   2.160  0.0585 -0.6223 -1.1554
 6098TIP3    H218259   2.942   5.807   2.275 -0.2039  0.7179 -0.0533
 6099TIP3   OH218260   0.178   4.834   2.829  0.2660  1.0589  0.0731
 6099TIP3    H118261   0.179   4.888   2.750 -1.1998  0.5062 -0.3448
 6099TIP3    H218262   0.222   4.753   2.803 -1.4504  0.3075 -0.6425
 6100TIP3   OH218263   6.739   6.734   1.731  0.6265 -0.0023  0.4581
 6100TIP3    H118264   6.815   6.781   1.698  2.2873 -2.0554  1.1532
 6100TIP3    H218265   6.719   6.776   1.815  1.9165 -0.3390  0.9537
 6101TIP3   OH218266   4.141   0.996   5.720  0.6732  0.3971 -0.1903
 6101TIP3    H118267   4.212   0.973   5.780  0.3206  1.3221  0.6070
 6101TIP3    H218268   4.178   0.982   5.632  1.5884  0.1433  0.2239
 6102TIP3   OH218269   0.662   2.153   3.427  0.2658  0.4149 -0.1295
 6102TIP3    H118270   0.583   2.120   3.472  0.7751  1.6314  1.7751
 6102TIP3    H218271   0.717   2.186   3.498  2.3666 -0.1015 -1.4537
 6103TIP3   OH218272   6.899   3.311   5.373  0.5166  0.1424 -0.2065
 6103TIP3    H118273   6.869   3.279   5.288 -0.9217 -0.5725  0.5390
 6103TIP3    H218274   6.921   3.231   5.422 -0.8654  0.3710  0.8571
 6104TIP3   OH218275   3.518   1.802   0.029 -0.7721 -0.1217  0.2160
 6104TIP3    H118276   3.606   1.786  -0.007 -0.3227 -1.4486  1.7669
 6104TIP3    H218277   3.517   1.895   0.049 -0.3537  0.2618 -1.3628
 6105TIP3   OH218278   6.266   0.726   4.028  0.2183  0.0903  0.0719
 6105TIP3    H118279   6.334   0.776   3.982  0.6339 -0.0690  0.5039
 6105TIP3    H218280   6.314   0.658   4.075 -0.4832 -2.1256 -2.2133
 6106TIP3   OH218281   6.960   2.733   5.605 -0.3166  0.6531 -0.1676
 6106TIP3    H118282   7.005   2.675   5.667 -2.5131 -1.7624 -0.6515
 6106TIP3    H218283   6.920   2.800   5.660  1.3119  1.0995  0.5436
 6107TIP3   OH218284   2.618   5.971   3.447  0.1965  0.1096 -0.5941
 6107TIP3    H118285   2.543   6.003   3.397  0.4795  1.0419 -0.4324
 6107TIP3    H218286   2.693   5.989   3.392  0.4296  0.3954 -0.1873
 6108TIP3   OH218287   6.796   1.293   2.828  0.3228 -0.0969 -0.3291
 6108TIP3    H118288   6.708   1.303   2.792  0.9420 -0.4498 -1.9911
 6108TIP3    H218289   6.845   1.368   2.795  0.5690  0.3082  0.8996
 6109TIP3   OH218290   4.994   4.905   0.778  0.0123  0.5137 -0.6142
 6109TIP3    H118291   4.992   4.950   0.694 -0.9836  0.7545 -0.4717
 6109TIP3    H218292   4.930   4.951   0.831  1.3173  0.9838  0.6159
 6110TIP3   OH218293   1.364   2.459   2.334 -0.8945 -0.1229  0.0133
 6110TIP3    H118294   1.277   2.425   2.355 -0.4781 -0.1571  1.8601
 6110TIP3    H218295   1.415   2.447   2.415  1.4094 -1.8686 -1.5661
 6111TIP3   OH218296   1.439   0.042   3.788 -0.4417  0.2724 -0.2837
 6111TIP3    H118297   1.415   0.133   3.770 -0.0647  0.2068 -1.1644
 6111TIP3    H218298   1.517   0.048   3.843  0.6153  0.5174 -1.7332
 6112TIP3   OH218299   0.054   5.469   5.620  0.4838  0.2135  0.2286
 6112TIP3    H118300   0.027   5.482   5.529 -0.0383 -0.8667  0.2152
 6112TIP3    H218301  -0.022   5.428   5.662  0.7209  0.6803  1.1536
 6113TIP3   OH218302   2.580   3.698   2.560 -0.6427 -0.4482 -0.1564
 6113TIP3    H118303   2.533   3.753   2.497 -0.5302 -0.2612 -0.0772
 6113TIP3    H218304   2.673   3.718   2.545 -0.6381  0.1178  0.5360
 6114TIP3   OH218305   4.424   1.817   1.270 -0.2601  0.3662  0.1662
 6114TIP3    H118306   4.495   1.760   1.300  0.9420  1.4646 -0.5078
 6114TIP3    H218307   4.419   1.886   1.336 -0.7085  0.3042  0.2035
 6115TIP3   OH218308   5.652  -0.014   4.337 -0.2958 -0.0394 -0.2107
 6115TIP3    H118309   5.578   0.022   4.387 -1.0253 -0.8312 -0.6866
 6115TIP3    H218310   5.702   0.063   4.310  1.6767  0.4256  3.9008
 6116TIP3   OH218311   6.175   3.170   2.942  0.5406 -0.2608  0.0965
 6116TIP3    H118312   6.093   3.126   2.918  0.1931 -0.8112  2.1082
 6116TIP3    H218313   6.166   3.258   2.906 -1.2474 -0.0949  0.8186
 6117TIP3   OH218314   1.258   6.073   3.660 -0.8229  0.2674  0.7582
 6117TIP3    H118315   1.324   6.141   3.647 -0.4651 -0.2093  0.0408
 6117TIP3    H218316   1.175   6.118   3.647 -0.6037  0.6345  0.6062
 6118TIP3   OH218317   4.935   5.473   1.651  0.2365 -0.1873  0.5012
 6118TIP3    H118318   4.846   5.475   1.617  1.1753 -2.7933 -2.6092
 6118TIP3    H218319   4.970   5.560   1.634 -1.4339  0.6634  1.1632
 6119TIP3   OH218320   1.810   4.485   5.258  0.4548 -0.2227  0.4795
 6119TIP3    H118321   1.864   4.563   5.271  0.6857 -0.1998 -0.5450
 6119TIP3    H218322   1.864   4.427   5.205 -0.3629 -0.3601 -0.2347
 6120TIP3   OH218323   0.558   5.511   2.150  0.1559 -0.5181 -0.1498
 6120TIP3    H118324   0.594   5.544   2.068  0.1231  2.0635  0.7797
 6120TIP3    H218325   0.464   5.525   2.142  0.1032 -0.6867  0.1479
 6121TIP3   OH218326   1.162   2.834   2.026  0.1622 -0.3998 -0.0709
 6121TIP3    H118327   1.088   2.813   2.084  1.8621  0.3599  2.5781
 6121TIP3    H218328   1.196   2.749   1.999 -1.3095 -0.7597 -0.9131
 6122TIP3   OH218329   7.088   0.707   0.376  0.0011  0.2559 -0.4221
 6122TIP3    H118330   7.156   0.640   0.387  0.7544  0.9691 -0.5816
 6122TIP3    H218331   7.070   0.737   0.465  0.9865  1.0880 -0.4716
 6123TIP3   OH218332   3.407   6.027   2.855 -0.6234  0.0546 -0.1478
 6123TIP3    H118333   3.449   5.945   2.881 -0.8841  0.2227  0.8434
 6123TIP3    H218334   3.479   6.088   2.845 -0.4834 -0.1164 -0.1874
 6124TIP3   OH218335   2.161   0.463   1.336  0.4092 -0.4120  0.0699
 6124TIP3    H118336   2.164   0.424   1.423  0.6594  0.0512  0.2722
 6124TIP3    H218337   2.068   0.464   1.313  0.4321 -1.5426 -0.1356
 6125TIP3   OH218338   2.836   4.466   0.672 -0.4052  0.3489 -0.1516
 6125TIP3    H118339   2.886   4.533   0.626  1.3280 -1.5269 -1.1774
 6125TIP3    H218340   2.828   4.498   0.762 -0.0001  2.0773 -0.7013
 6126TIP3   OH218341   4.212   3.728   4.381  0.3648 -0.4998 -0.5327
 6126TIP3    H118342   4.305   3.731   4.406  0.4796 -0.7808 -0.9296
 6126TIP3    H218343   4.186   3.638   4.397  0.0691 -0.3492 -0.1212
 6127TIP3   OH218344   4.158   6.147   5.039 -0.1363 -0.4163 -0.1238
 6127TIP3    H118345   4.244   6.182   5.017 -0.1483  0.0785  0.5797
 6127TIP3    H218346   4.174   6.060   5.074  0.1198 -0.1788  0.3604
 6128TIP3   OH218347   3.389   5.217   2.162 -0.6131  0.0896  0.4075
 6128TIP3    H118348   3.370   5.156   2.233 -0.7421 -0.3606 -0.0154
 6128TIP3    H218349   3.382   5.304   2.203 -0.7260 -0.1654  0.9325
 6129TIP3   OH218350   3.899   3.054   5.648  0.6121  0.3049  0.0882
 6129TIP3    H118351   3.948   3.051   5.566 -0.4755 -1.8123 -0.5551
 6129TIP3    H218352   3.814   3.091   5.624 -0.1805 -1.5246 -0.0627
 6130TIP3   OH218353   5.653   3.162   0.027  0.1132 -0.3629 -0.1737
 6130TIP3    H118354   5.710   3.126  -0.041 -0.5694  0.6896 -1.3363
 6130TIP3    H218355   5.680   3.254   0.035 -0.4911 -0.2179  0.2546
 6131TIP3   OH218356   5.491   2.439   2.070 -0.3824 -0.3005  0.0194
 6131TIP3    H118357   5.498   2.527   2.106 -0.7834 -0.3055  0.1140
 6131TIP3    H218358   5.547   2.385   2.127 -0.8197 -0.2639  0.4978
 6132TIP3   OH218359   0.045   2.858   4.593 -0.2969  0.1011 -0.0474
 6132TIP3    H118360   0.001   2.845   4.677 -0.8245  0.4664 -0.2664
 6132TIP3    H218361   0.117   2.794   4.594 -1.3504 -1.1298 -0.0512
 6133TIP3   OH218362   3.322   6.587   4.152  0.4635  0.8956  0.3812
 6133TIP3    H118363   3.306   6.649   4.223  0.6080  1.8202 -0.3669
 6133TIP3    H218364   3.401   6.620   4.109 -0.5004  1.2926 -1.1659
 6134TIP3   OH218365   5.207   3.186   0.866 -0.3078 -0.7416  0.4847
 6134TIP3    H118366   5.222   3.215   0.956  3.1994  0.9948 -0.5035
 6134TIP3    H218367   5.275   3.121   0.850  0.8673  0.8765 -1.6183
 6135TIP3   OH218368   1.567   4.350   0.829 -0.1917  0.3599 -0.3691
 6135TIP3    H118369   1.535   4.263   0.855 -0.9896  0.3965 -1.2096
 6135TIP3    H218370   1.561   4.402   0.910  1.7807 -0.7451  0.5670
 6136TIP3   OH218371   6.898   2.676   1.546 -0.2764 -0.4254  0.4580
 6136TIP3    H118372   6.890   2.586   1.516  0.2579 -0.7814  1.3635
 6136TIP3    H218373   6.855   2.728   1.477 -1.1334 -1.4033  0.2300
 6137TIP3   OH218374   3.031   0.076   5.389 -0.2365  0.1853 -0.2683
 6137TIP3    H118375   2.997   0.037   5.309 -0.1969  1.1091 -0.7512
 6137TIP3    H218376   3.019   0.008   5.456 -0.1327 -0.6465 -1.0778
 6138TIP3   OH218377   4.005   2.478   4.514  0.2165  0.0306  0.2635
 6138TIP3    H118378   4.034   2.552   4.567 -0.9879  0.4897  0.2956
 6138TIP3    H218379   4.075   2.467   4.449  0.6090  0.9123  0.5177
 6139TIP3   OH218380   3.882   6.227   5.070  0.8341 -0.6286 -0.1134
 6139TIP3    H118381   3.895   6.297   5.134 -1.7519 -0.8751  0.8024
 6139TIP3    H218382   3.970   6.194   5.052  1.7611  0.0665  2.6558
 6140TIP3   OH218383   5.351   5.808   1.898 -0.0787  0.0638 -0.1076
 6140TIP3    H118384   5.422   5.825   1.836 -0.9502  0.2939 -1.0870
 6140TIP3    H218385   5.293   5.748   1.852 -1.4123  1.2488 -0.0546
 6141TIP3   OH218386   5.598   3.305   0.844  0.8843  0.4611 -0.0221
 6141TIP3    H118387   5.659   3.375   0.823 -1.4820  2.5270 -0.5323
 6141TIP3    H218388   5.544   3.295   0.765  1.2067 -2.0842 -0.0181
 6142TIP3   OH218389   0.746   0.524   5.358 -0.4045  0.2262 -0.2680
 6142TIP3    H118390   0.677   0.479   5.310 -0.4216  1.3538 -1.3444
 6142TIP3    H218391   0.701   0.568   5.429 -0.4317 -1.1301  0.5945
 6143TIP3   OH218392   5.439   3.608   4.830  0.4214  0.6769  0.0713
 6143TIP3    H118393   5.349   3.609   4.864  0.1959  0.8839 -0.5213
 6143TIP3    H218394   5.465   3.700   4.827  0.0546  0.7685 -1.2759
 6144TIP3   OH218395   3.763   6.250   0.368  0.4632  0.8466 -0.3594
 6144TIP3    H118396   3.684   6.216   0.411  0.4812  2.0509  0.6809
 6144TIP3    H218397   3.803   6.173   0.328 -0.3963 -0.0656  0.4655
 6145TIP3   OH218398   1.352   1.474   0.896 -0.7407  0.0743  0.1232
 6145TIP3    H118399   1.383   1.479   0.806 -1.3610 -0.2047 -0.1149
 6145TIP3    H218400   1.416   1.418   0.941 -0.2829  0.4351 -0.0750
 6146TIP3   OH218401   3.253   5.860   0.002 -0.2559  0.0035 -0.2545
 6146TIP3    H118402   3.315   5.916   0.047  0.8589 -0.7464 -0.8015
 6146TIP3    H218403   3.300   5.777  -0.011 -1.0963 -0.3317 -1.3670
 6147TIP3   OH218404   6.973   4.028   0.915 -1.3115  0.7349 -0.8625
 6147TIP3    H118405   7.038   4.034   0.845 -0.3871  0.5352 -0.0419
 6147TIP3    H218406   7.019   3.986   0.987 -2.6186 -0.2596 -0.5629
 6148TIP3   OH218407   6.292   2.567   1.434  0.3166  0.0227  0.0589
 6148TIP3    H118408   6.374   2.583   1.480  0.5432  0.3187 -0.4436
 6148TIP3    H218409   6.275   2.474   1.447 -0.4947  0.3909  2.1704
 6149TIP3   OH218410   4.008   1.961   2.634 -0.0792 -0.4440  0.2897
 6149TIP3    H118411   4.029   1.951   2.727  1.8114 -0.1755 -0.0644
 6149TIP3    H218412   4.063   1.895   2.590 -0.3727 -0.0487 -0.6917
 6150TIP3   OH218413   5.846   5.389   0.519  0.5731  0.2357  0.2431
 6150TIP3    H118414   5.867   5.482   0.514 -2.0968  0.9094 -0.1272
 6150TIP3    H218415   5.828   5.364   0.429 -0.0661 -0.2619  0.5005
 6151TIP3   OH218416   3.573   3.291   2.021  0.9304  0.7595 -0.0657
 6151TIP3    H118417   3.479   3.305   2.016  0.9972  1.2616  0.0335
 6151TIP3    H218418   3.609   3.374   2.052  1.1321 -0.2985  2.8697
 6152TIP3   OH218419   6.537   3.620   3.738  0.5522  0.6793  0.0224
 6152TIP3    H118420   6.628   3.615   3.767  0.6325  1.7371  0.0026
 6152TIP3    H218421   6.530   3.707   3.699 -0.0304 -0.0066 -1.4818
 6153TIP3   OH218422   5.574   0.028   1.935  0.2384  0.5915 -0.3550
 6153TIP3    H118423   5.570  -0.062   1.967  1.2908  0.4940 -0.4618
 6153TIP3    H218424   5.495   0.038   1.882 -0.1610 -0.0927  0.0916
 6154TIP3   OH218425   1.475   6.498   2.329 -0.1356  0.0837 -0.2533
 6154TIP3    H118426   1.548   6.461   2.279 -0.7603  1.1342 -2.0429
 6154TIP3    H218427   1.397   6.475   2.279 -0.6775  2.2737 -0.5201
 6155TIP3   OH218428   0.473   5.054   3.697  0.0299  0.2181 -0.2732
 6155TIP3    H118429   0.553   5.028   3.652 -0.1207  0.0715 -0.4562
 6155TIP3    H218430   0.402   5.018   3.644 -0.1433 -0.2021  0.2329
 6156TIP3   OH218431   5.300   1.306   0.331 -0.0438  0.1499  0.8030
 6156TIP3    H118432   5.240   1.350   0.391 -2.7315  1.5224 -2.6016
 6156TIP3    H218433   5.346   1.377   0.286  1.0899 -0.8007  0.3956
 6157TIP3   OH218434   3.712   0.698   5.201 -0.5512  1.1690 -0.4810
 6157TIP3    H118435   3.726   0.787   5.232 -0.4519  1.5401 -1.5437
 6157TIP3    H218436   3.786   0.681   5.142 -0.7179  0.4816 -0.5100
 6158TIP3   OH218437   3.550   4.972   1.763 -0.5702  0.1429 -0.0092
 6158TIP3    H118438   3.544   5.012   1.850 -3.0039  0.5321 -0.3030
 6158TIP3    H218439   3.617   4.904   1.773  2.0635  2.6750  1.1019
 6159TIP3   OH218440   0.903   0.889   2.606 -0.1364 -0.2671 -0.6536
 6159TIP3    H118441   0.840   0.880   2.678  0.3684 -1.1516 -0.3076
 6159TIP3    H218442   0.864   0.956   2.549 -0.5217  0.4964  0.4588
 6160TIP3   OH218443   5.933   4.383   4.497 -0.2799 -0.6139  0.7305
 6160TIP3    H118444   5.910   4.456   4.554  1.0646 -0.3012  0.9144
 6160TIP3    H218445   5.966   4.316   4.557 -2.4542 -1.8214  0.6738
 6161TIP3   OH218446   5.183   0.809   1.640  0.3933  0.0996  0.3346
 6161TIP3    H118447   5.149   0.758   1.566 -0.9105 -0.4821  1.3053
 6161TIP3    H218448   5.108   0.860   1.670 -0.0373 -1.9851  3.2040
 6162TIP3   OH218449   0.414   6.254   3.255  0.3120  0.6403 -0.3436
 6162TIP3    H118450   0.412   6.285   3.346 -1.7644  0.0077 -0.1315
 6162TIP3    H218451   0.445   6.163   3.262 -1.3203  0.0712 -0.0498
 6163TIP3   OH218452   6.083   6.631   3.817 -0.3912  0.0631 -0.0796
 6163TIP3    H118453   6.052   6.610   3.729 -0.4669 -1.7749  0.3296
 6163TIP3    H218454   6.121   6.718   3.809 -2.4157  0.9000 -1.4108
 6164TIP3   OH218455   1.711   5.160   0.933 -0.8402 -0.0394 -0.2719
 6164TIP3    H118456   1.732   5.074   0.899 -1.2501 -1.1169  1.9849
 6164TIP3    H218457   1.791   5.190   0.976 -0.8913  0.4075 -0.4801
 6165TIP3   OH218458   5.706   1.151   2.132  0.3403  0.4371  0.2798
 6165TIP3    H118459   5.734   1.113   2.215  0.5465  1.0904  0.5189
 6165TIP3    H218460   5.660   1.231   2.157  0.4311  0.6571 -0.2378
 6166TIP3   OH218461   2.204   4.324   1.741  0.5203 -0.4120  0.3560
 6166TIP3    H118462   2.261   4.399   1.758  0.8733 -0.7735  0.7869
 6166TIP3    H218463   2.253   4.271   1.679  0.2145 -0.2290 -0.0489
 6167TIP3   OH218464   4.060   1.154   1.208  0.5665 -0.3916 -0.3960
 6167TIP3    H118465   3.975   1.185   1.238  0.3444 -1.3335 -0.0036
 6167TIP3    H218466   4.080   1.207   1.131  0.0123  0.4027 -0.0063
 6168TIP3   OH218467   1.370   1.438   3.849 -0.3808 -0.2502 -0.2329
 6168TIP3    H118468   1.400   1.518   3.892 -0.3334  0.0887 -0.8699
 6168TIP3    H218469   1.318   1.392   3.915 -1.3468  0.8546 -0.1953
 6169TIP3   OH218470   2.485   5.020   3.974  0.0194  0.0693 -0.2936
 6169TIP3    H118471   2.399   5.041   3.939 -1.0012 -2.3776  0.5374
 6169TIP3    H218472   2.489   4.924   3.973  2.9891  0.1045 -0.8590
 6170TIP3   OH218473   4.732   5.375   5.286 -0.1625  0.0703 -0.1533
 6170TIP3    H118474   4.699   5.456   5.247 -0.0242  0.4721  0.5422
 6170TIP3    H218475   4.687   5.305   5.239  0.7601  0.4988 -1.7230
 6171TIP3   OH218476   1.215   3.098   4.982  0.2572  0.7718  0.5807
 6171TIP3    H118477   1.146   3.161   5.001 -0.3365  0.8204 -1.4782
 6171TIP3    H218478   1.211   3.035   5.054 -1.5839  1.0683  0.7811
 6172TIP3   OH218479   1.340   0.539   0.649  0.4901 -1.5662 -0.4185
 6172TIP3    H118480   1.376   0.512   0.733 -0.2765 -1.6090 -0.0933
 6172TIP3    H218481   1.245   0.544   0.664  0.5575  1.2088 -0.4895
 6173TIP3   OH218482   3.361   1.702   3.658 -0.0131  0.0031  0.3611
 6173TIP3    H118483   3.368   1.687   3.564 -0.3115  0.4640  0.2613
 6173TIP3    H218484   3.305   1.779   3.666  0.3146  0.1906  0.9031
 6174TIP3   OH218485   4.166   1.841   1.373 -0.2801 -0.5035 -0.1469
 6174TIP3    H118486   4.225   1.774   1.339 -0.6641 -0.4865 -0.8632
 6174TIP3    H218487   4.115   1.869   1.297  1.0470  1.8323 -0.2539
 6175TIP3   OH218488   2.060   4.612   4.071 -0.0026  0.5297  0.1183
 6175TIP3    H118489   2.138   4.627   4.125  0.4369  1.9539 -0.8417
 6175TIP3    H218490   1.987   4.614   4.133  0.4313  2.7144  0.6364
 6176TIP3   OH218491   0.431   1.625   5.240 -0.0904  0.1568  0.5216
 6176TIP3    H118492   0.427   1.644   5.334 -1.2817  1.1940  0.2862
 6176TIP3    H218493   0.397   1.536   5.233  1.2393 -0.4390  1.1797
 6177TIP3   OH218494   6.358   4.351   4.663  0.0953 -0.0681  0.5741
 6177TIP3    H118495   6.310   4.365   4.581 -0.5045 -0.4704  0.8575
 6177TIP3    H218496   6.377   4.257   4.664 -0.0631 -0.0949  0.9904
 6178TIP3   OH218497   1.486   1.616   4.053  0.0270  0.0161 -0.7078
 6178TIP3    H118498   1.523   1.703   4.039  0.1089  0.0894 -0.0637
 6178TIP3    H218499   1.521   1.588   4.138 -0.7017 -0.2749 -0.4981
 6179TIP3   OH218500   4.587   3.294   5.291  0.2713 -0.7688 -1.1005
 6179TIP3    H118501   4.602   3.386   5.271 -0.8564 -0.4750 -0.6532
 6179TIP3    H218502   4.626   3.246   5.217  0.7187  0.0626 -1.4122
 6180TIP3   OH218503   3.146   0.552   5.105 -0.2816  0.1507 -0.4016
 6180TIP3    H118504   3.164   0.623   5.167 -0.9148 -1.6731  2.0396
 6180TIP3    H218505   3.064   0.513   5.137  0.1106 -1.7540 -1.5590
 6181TIP3   OH218506   2.240   4.904   1.136  0.4857 -0.1296 -0.0585
 6181TIP3    H118507   2.304   4.901   1.207  2.0542 -2.1656 -1.4376
 6181TIP3    H218508   2.270   4.977   1.081  1.1442 -0.5157 -0.2327
 6182TIP3   OH218509   4.091   5.756   5.290  0.3221  0.2142 -0.1181
 6182TIP3    H118510   4.024   5.722   5.230  0.4695  1.0312 -0.7624
 6182TIP3    H218511   4.041   5.804   5.357  0.1680 -0.5852  0.3634
 6183TIP3   OH218512   0.583   6.350   4.611 -0.0130 -0.5494 -0.0219
 6183TIP3    H118513   0.547   6.421   4.664  0.7132 -1.0343  1.1728
 6183TIP3    H218514   0.556   6.371   4.521  0.6887  1.5493  0.1937
 6184TIP3   OH218515   0.865   3.356   0.114  0.7240  0.3781 -0.4757
 6184TIP3    H118516   0.953   3.365   0.078  1.2543 -0.5979  0.4909
 6184TIP3    H218517   0.873   3.283   0.177 -0.3382  1.4280  0.9330
 6185TIP3   OH218518   5.995   0.259   4.390  0.6995  0.1194  0.6346
 6185TIP3    H118519   5.968   0.215   4.471 -1.8505 -0.3809 -0.4105
 6185TIP3    H218520   6.006   0.188   4.327 -0.6891  0.7340 -0.3302
 6186TIP3   OH218521   7.084   3.105   0.274  0.4043  0.2746  0.0457
 6186TIP3    H118522   7.013   3.077   0.216  0.1033  2.6798 -0.8549
 6186TIP3    H218523   7.044   3.173   0.328  1.7497  0.8670  0.3137
 6187TIP3   OH218524   0.468   2.350   3.376  0.1357 -0.5728 -0.4293
 6187TIP3    H118525   0.531   2.283   3.405  0.5949 -0.8608 -1.9638
 6187TIP3    H218526   0.394   2.340   3.436  0.5681 -1.8557 -0.0551
 6188TIP3   OH218527   3.580   0.386   5.583 -0.2198 -0.2409 -0.0340
 6188TIP3    H118528   3.557   0.301   5.544  1.0840 -0.2984 -0.7340
 6188TIP3    H218529   3.672   0.399   5.559 -0.2698  1.1584  0.4654
 6189TIP3   OH218530   0.408   4.478   1.622 -0.2550  0.0314  0.1606
 6189TIP3    H118531   0.354   4.550   1.657 -0.6464  0.2275 -0.8084
 6189TIP3    H218532   0.398   4.486   1.527  0.5940 -0.6305  0.0135
 6190TIP3   OH218533   2.661   2.036   1.259  0.2290 -0.1021  0.5796
 6190TIP3    H118534   2.682   1.975   1.188 -1.1272 -1.6960  1.4776
 6190TIP3    H218535   2.681   2.123   1.223 -2.2130 -0.6163 -2.4995
 6191TIP3   OH218536   3.419   1.669   4.336 -0.4726  0.0651 -0.6490
 6191TIP3    H118537   3.323   1.673   4.342 -0.4331  0.0828  0.1670
 6191TIP3    H218538   3.448   1.752   4.373 -0.1150 -0.5255  0.4596
 6192TIP3   OH218539   2.113   1.420   3.700 -1.0322  0.4730  0.1578
 6192TIP3    H118540   2.031   1.386   3.665  0.3595 -1.4286 -1.4520
 6192TIP3    H218541   2.131   1.367   3.777  0.3934 -1.6528 -1.5193
 6193TIP3   OH218542   4.850   3.920   2.596 -0.3170  0.2518 -1.0462
 6193TIP3    H118543   4.883   3.997   2.551  1.7132  0.0729  0.0085
 6193TIP3    H218544   4.799   3.955   2.670  1.7641  0.6666  0.2590
 6194TIP3   OH218545   4.040   0.156   3.582 -0.3179 -0.1978 -0.2659
 6194TIP3    H118546   4.129   0.126   3.599  0.1923  1.1044 -0.5422
 6194TIP3    H218547   4.044   0.197   3.496 -2.2085 -4.1107 -2.5204
 6195TIP3   OH218548   3.974   3.438   2.836 -1.0239  0.1563  0.1786
 6195TIP3    H118549   3.987   3.347   2.810 -1.5784 -0.0385  0.5465
 6195TIP3    H218550   3.939   3.432   2.925 -2.1464  0.6772 -0.2010
 6196TIP3   OH218551   3.839   5.898   5.117 -0.0503  0.0678 -0.6141
 6196TIP3    H118552   3.774   5.968   5.118 -1.2186 -0.9472  1.2217
 6196TIP3    H218553   3.902   5.923   5.184  1.0997  0.7166 -1.9193
 6197TIP3   OH218554   2.341   4.908   2.855 -0.6537  0.2101 -0.4426
 6197TIP3    H118555   2.296   4.990   2.875 -0.3245  0.4998 -0.8639
 6197TIP3    H218556   2.273   4.852   2.817 -1.2570 -0.3075  1.3425
 6198TIP3   OH218557   1.695   0.045   1.529 -0.1671  0.3462  0.0518
 6198TIP3    H118558   1.673  -0.048   1.531 -0.2758  0.3393 -0.9562
 6198TIP3    H218559   1.733   0.063   1.615 -0.0808 -0.6424  0.2271
 6199TIP3   OH218560   0.216   5.500   2.721 -0.2312  0.3461  0.7030
 6199TIP3    H118561   0.222   5.545   2.806  1.1822  0.6703  0.4547
 6199TIP3    H218562   0.256   5.561   2.659  1.0456 -0.9047  0.2362
 6200TIP3   OH218563   4.321   3.174   0.418 -0.1554 -0.2081  0.4676
 6200TIP3    H118564   4.404   3.143   0.382 -0.6316 -0.0530 -0.8365
 6200TIP3    H218565   4.258   3.106   0.396 -0.7360  0.5492 -0.2734
 6201TIP3   OH218566   5.379   3.042   4.621 -0.2959 -0.3879  0.0397
 6201TIP3    H118567   5.427   3.118   4.654 -1.0394  0.1913 -0.1591
 6201TIP3    H218568   5.308   3.029   4.684 -0.2387 -0.8435  0.0094
 6202TIP3   OH218569   2.771   4.391   0.270 -0.2362 -0.1366 -0.2710
 6202TIP3    H118570   2.775   4.324   0.202 -0.2170  0.2861 -0.6999
 6202TIP3    H218571   2.826   4.358   0.341  0.1975 -0.3296 -0.6927
 6203TIP3   OH218572   4.515   3.341   1.963 -0.3797  0.0600 -0.2589
 6203TIP3    H118573   4.447   3.391   1.917  0.1781  1.4269  0.3753
 6203TIP3    H218574   4.580   3.406   1.989  2.4837 -1.4666 -2.9795
 6204TIP3   OH218575   5.070   5.375   3.334  0.2082  0.2492 -0.1164
 6204TIP3    H118576   4.975   5.363   3.339 -0.2166  2.9761 -0.1627
 6204TIP3    H218577   5.091   5.427   3.411  1.9038 -1.2656  0.5109
 6205TIP3   OH218578   2.223   0.584   3.234 -0.3802  0.6021  0.5819
 6205TIP3    H118579   2.221   0.679   3.248  0.6660  0.7074  0.0769
 6205TIP3    H218580   2.249   0.574   3.143  0.3061 -0.1788  0.8547
 6206TIP3   OH218581   4.816   4.512   3.836  0.3268  0.9282  1.0864
 6206TIP3    H118582   4.883   4.551   3.780  0.2325  0.6456  0.7736
 6206TIP3    H218583   4.776   4.586   3.881  1.5322  1.0377  2.0469
 6207TIP3   OH218584   3.487   3.693   4.630 -0.2928  0.5599 -0.2417
 6207TIP3    H118585   3.526   3.779   4.616  1.9866 -0.4081 -0.1692
 6207TIP3    H218586   3.441   3.675   4.548  0.8537  1.0415 -1.0197
 6208TIP3   OH218587   6.736   5.341   0.155 -0.2379  0.0096 -0.2120
 6208TIP3    H118588   6.725   5.417   0.098  1.2261  0.3072 -0.1372
 6208TIP3    H218589   6.828   5.316   0.145 -0.1749 -0.4920  1.3071
 6209TIP3   OH218590   0.603   4.302   2.850 -0.0130  0.0856  0.0276
 6209TIP3    H118591   0.645   4.234   2.901  0.4720 -0.0820 -0.5875
 6209TIP3    H218592   0.650   4.303   2.767 -1.1757 -0.0638 -0.6589
 6210TIP3   OH218593   3.846   6.752   0.135  0.8492 -0.2581 -0.3769
 6210TIP3    H118594   3.850   6.764   0.230 -0.9513  0.9619 -0.4211
 6210TIP3    H218595   3.903   6.820   0.099  2.5962 -1.5428 -0.1890
 6211TIP3   OH218596   3.463   0.886   3.332 -0.4324  0.0225  0.4658
 6211TIP3    H118597   3.413   0.918   3.407 -0.7439  0.1513  0.2085
 6211TIP3    H218598   3.466   0.791   3.342  0.5942  0.1211  1.3003
 6212TIP3   OH218599   3.548   3.005   5.919  0.1164 -0.3314 -0.0940
 6212TIP3    H118600   3.552   2.981   5.826  2.0346 -0.6408  0.0229
 6212TIP3    H218601   3.527   3.098   5.919  1.5465  0.0164 -0.9093
 6213TIP3   OH218602   1.130   2.658   2.440 -0.0243 -0.5798 -0.1387
 6213TIP3    H118603   1.148   2.568   2.412 -1.4258 -0.9047 -0.0685
 6213TIP3    H218604   1.089   2.699   2.363 -0.6608 -0.4237  0.2760
 6214TIP3   OH218605   6.476   3.341   0.639  0.0593  0.3616  0.2928
 6214TIP3    H118606   6.500   3.370   0.727 -1.0238  1.8125  0.1410
 6214TIP3    H218607   6.390   3.380   0.623 -0.0598 -0.4181 -1.1613
 6215TIP3   OH218608   2.436   2.729   3.928 -0.0158  0.2010  0.1432
 6215TIP3    H118609   2.476   2.786   3.994 -0.5114 -0.2652  0.8592
 6215TIP3    H218610   2.430   2.643   3.970 -1.6975  0.2398  0.0615
 6216TIP3   OH218611   0.103   3.669   0.589  0.0621 -0.3536 -0.8236
 6216TIP3    H118612   0.108   3.706   0.677  1.9045  1.1497 -1.4732
 6216TIP3    H218613   0.010   3.674   0.566  0.0319  3.4378 -0.5905
 6217TIP3   OH218614   1.853   0.374   1.273  0.0203  0.5277 -0.5475
 6217TIP3    H118615   1.898   0.292   1.294 -1.1381 -0.0055 -0.0847
 6217TIP3    H218616   1.853   0.377   1.177  0.7406  0.3767 -0.5588
 6218TIP3   OH218617   5.073   6.381   2.169  0.3789  0.0673  0.0198
 6218TIP3    H118618   5.101   6.381   2.261 -0.5829  1.2018  0.3464
 6218TIP3    H218619   4.978   6.395   2.173  0.2081 -0.5726 -1.1404
 6219TIP3   OH218620   6.917   1.657   3.535 -0.0430  0.2595  0.2728
 6219TIP3    H118621   6.916   1.694   3.447 -1.4544 -0.2113  0.0606
 6219TIP3    H218622   6.856   1.583   3.531  0.7532 -0.4835  1.3504
 6220TIP3   OH218623   0.601   3.594   5.534  0.0822 -0.7559 -0.5343
 6220TIP3    H118624   0.647   3.670   5.498  1.6304 -2.1540 -1.7017
 6220TIP3    H218625   0.591   3.535   5.459 -2.6610 -1.0200 -0.0471
 6221TIP3   OH218626   6.086   4.182   4.608 -0.2338  0.1215  0.0227
 6221TIP3    H118627   6.115   4.170   4.698 -0.9157  0.8287  0.3469
 6221TIP3    H218628   6.021   4.113   4.594 -1.4013  1.0611  0.6564
 6222TIP3   OH218629   5.952   2.939   1.553 -0.0674  0.1937  0.0746
 6222TIP3    H118630   5.942   2.918   1.461  0.4638  0.0209  0.0587
 6222TIP3    H218631   6.045   2.928   1.572 -0.6079 -3.1565  1.4546
 6223TIP3   OH218632   4.114   0.563   5.780  0.1018  0.0206 -0.2198
 6223TIP3    H118633   4.046   0.569   5.848  0.7296  0.9568  0.3416
 6223TIP3    H218634   4.177   0.500   5.814  0.6681  0.8620  0.2945
 6224TIP3   OH218635   5.757   3.930   4.866 -0.1025 -0.4677 -0.2399
 6224TIP3    H118636   5.712   3.863   4.918 -0.4093  0.0482  0.1652
 6224TIP3    H218637   5.686   3.981   4.827  0.0925  0.9192  1.1285
 6225TIP3   OH218638   0.714   2.625   1.961 -0.2493 -0.1456 -0.6609
 6225TIP3    H118639   0.651   2.603   1.892 -0.1113  0.5247 -1.0082
 6225TIP3    H218640   0.799   2.617   1.919 -0.1713  0.4327 -0.6224
 6226TIP3   OH218641   5.494   3.516   3.502 -0.1099  0.2636  0.2614
 6226TIP3    H118642   5.560   3.477   3.445 -1.1980 -0.1304 -0.7835
 6226TIP3    H218643   5.542   3.580   3.554  0.9781  0.4456 -0.9116
 6227TIP3   OH218644   1.176   0.598   1.942  0.0761 -0.0159  0.3590
 6227TIP3    H118645   1.246   0.541   1.974  0.0007 -0.8478 -0.8761
 6227TIP3    H218646   1.117   0.539   1.896 -1.2318  0.7416  1.0233
 6228TIP3   OH218647   3.607   1.301   3.341  0.3840  0.2735 -0.3909
 6228TIP3    H118648   3.529   1.246   3.333  0.6881 -0.2694  0.2482
 6228TIP3    H218649   3.664   1.272   3.270  0.6850 -0.5030  0.1442
 6229TIP3   OH218650   1.590   1.849   2.795 -0.2308  0.2221  0.1275
 6229TIP3    H118651   1.591   1.942   2.816 -1.4761 -0.2590  2.7320
 6229TIP3    H218652   1.644   1.808   2.862  0.6668 -0.9462 -1.2351
 6230TIP3   OH218653   0.580   1.577   0.384 -0.4368  0.3429  0.7712
 6230TIP3    H118654   0.498   1.593   0.338 -0.0376 -1.5096 -0.7488
 6230TIP3    H218655   0.631   1.656   0.370 -0.7789  0.2876 -1.0673
 6231TIP3   OH218656   3.370   1.732   2.909 -0.0550  0.6972 -0.3640
 6231TIP3    H118657   3.457   1.723   2.949 -0.9213  0.7608  1.6492
 6231TIP3    H218658   3.334   1.644   2.910  0.0533  0.6226 -1.4454
 6232TIP3   OH218659   0.990   2.823   2.907  0.3379  0.1988 -0.5384
 6232TIP3    H118660   0.919   2.783   2.857  0.3132 -1.5907  0.8266
 6232TIP3    H218661   0.945   2.875   2.974  0.2905 -0.6044  0.0690
 6233TIP3   OH218662   7.062   5.586   2.212 -0.4873  0.0617 -0.4325
 6233TIP3    H118663   7.111   5.530   2.272 -0.6353 -1.3423 -1.5703
 6233TIP3    H218664   6.985   5.534   2.189  0.5198 -0.3009 -3.3283
 6234TIP3   OH218665   2.379   3.410   4.601  0.1213  0.6117 -0.0549
 6234TIP3    H118666   2.457   3.458   4.575 -0.3896  0.7520 -1.3623
 6234TIP3    H218667   2.307   3.454   4.557 -0.6182  0.0025  0.5088
 6235TIP3   OH218668   1.242   0.200   5.851  0.0951  0.7753  0.4536
 6235TIP3    H118669   1.267   0.126   5.796  0.5964  0.6174  0.8837
 6235TIP3    H218670   1.150   0.184   5.873  0.8873 -1.1526  2.7480
 6236TIP3   OH218671   7.003   0.589   1.884  0.7411 -0.1744 -0.2470
 6236TIP3    H118672   6.959   0.610   1.966  0.1368 -0.8604 -0.3839
 6236TIP3    H218673   6.954   0.637   1.817  1.1360  0.2595 -0.2277
 6237TIP3   OH218674   3.701   4.551   2.874 -0.1848  0.3743 -0.3076
 6237TIP3    H118675   3.717   4.529   2.966 -3.3614  1.9291  0.7644
 6237TIP3    H218676   3.707   4.646   2.870  0.9352  0.2881 -2.0286
 6238TIP3   OH218677   3.787   1.608   5.364  0.0697  0.3714 -0.1383
 6238TIP3    H118678   3.807   1.519   5.393 -0.8577 -0.0700 -0.8118
 6238TIP3    H218679   3.868   1.638   5.323  0.3992 -0.1527  0.1150
 6239TIP3   OH218680   2.668   4.974   2.558  0.1811 -0.2716 -0.6215
 6239TIP3    H118681   2.572   4.974   2.564  0.2347 -0.3066  0.4266
 6239TIP3    H218682   2.688   5.049   2.502 -0.4398  0.3099 -0.0969
 6240TIP3   OH218683   2.813   1.705   0.113  0.4313  0.2141  0.0985
 6240TIP3    H118684   2.728   1.663   0.097  1.0841 -0.9712 -0.3839
 6240TIP3    H218685   2.878   1.639   0.089  1.5082  1.1875  0.2125
 6241TIP3   OH218686   4.057   4.271   4.245 -0.2716 -1.0406  0.0751
 6241TIP3    H118687   4.036   4.362   4.224  1.2298 -0.8610 -0.7128
 6241TIP3    H218688   3.993   4.219   4.195 -0.1716 -0.4584 -0.6641
 6242TIP3   OH218689   0.735   2.040   1.987  0.5461  0.1011  0.1182
 6242TIP3    H118690   0.825   2.074   1.988 -0.1680  2.0802  1.0777
 6242TIP3    H218691   0.681   2.114   1.960 -0.8955 -0.8449  0.2734
 6243TIP3   OH218692   2.424   3.512   0.435  0.0480 -0.5275  0.2528
 6243TIP3    H118693   2.385   3.574   0.374  0.9501  0.3613  0.5442
 6243TIP3    H218694   2.371   3.520   0.514 -1.2467 -1.8291 -0.4455
 6244TIP3   OH218695   1.311   4.401   1.264  0.6619 -0.1063  0.2841
 6244TIP3    H118696   1.236   4.383   1.207  1.2711 -0.5541 -0.3979
 6244TIP3    H218697   1.316   4.326   1.323  2.0542 -1.3516 -1.3135
 6245TIP3   OH218698   4.375   6.255   3.345 -0.4131 -0.4094  0.4134
 6245TIP3    H118699   4.429   6.199   3.290 -0.7761  0.3427 -0.7452
 6245TIP3    H218700   4.294   6.267   3.295 -0.1322  1.5793  0.3846
 6246TIP3   OH218701   7.122   2.468   2.988  0.5220 -0.5154  0.4594
 6246TIP3    H118702   7.051   2.407   2.969  2.5454 -2.9314  0.1148
 6246TIP3    H218703   7.201   2.425   2.954  2.5229  0.8644  2.9775
 6247TIP3   OH218704   5.336   6.567   2.144 -0.1408 -0.5598 -0.0863
 6247TIP3    H118705   5.306   6.476   2.148 -1.1635 -0.2739 -0.8383
 6247TIP3    H218706   5.426   6.561   2.112  0.3476 -1.3895  1.3439
 6248TIP3   OH218707   4.894   0.603   2.687  0.1881 -0.6839 -0.2746
 6248TIP3    H118708   4.874   0.524   2.736  0.7107 -0.7934 -0.2388
 6248TIP3    H218709   4.830   0.667   2.718  1.4008 -0.3081  1.6287
 6249TIP3   OH218710   0.259   4.168   5.398  0.2101 -0.3682 -0.0310
 6249TIP3    H118711   0.225   4.084   5.368 -1.3461  0.0621  0.4147
 6249TIP3    H218712   0.248   4.227   5.324 -1.7987  0.2151  0.6801
 6250TIP3   OH218713   3.000   2.677   4.850 -0.0472 -0.0043 -0.2864
 6250TIP3    H118714   3.032   2.699   4.762 -0.9661 -0.5005 -0.7687
 6250TIP3    H218715   2.944   2.751   4.874  1.7117  1.0674  0.7356
 6251TIP3   OH218716   3.564   5.105   1.994 -0.8815  0.3153  0.3726
 6251TIP3    H118717   3.510   5.163   2.048 -0.8553  1.0542 -0.3690
 6251TIP3    H218718   3.633   5.074   2.052 -0.1109  2.1018  0.4501
 6252TIP3   OH218719   6.419   5.393   1.824 -0.5927  0.1611  0.3794
 6252TIP3    H118720   6.510   5.409   1.849 -0.9532  0.6336  1.4922
 6252TIP3    H218721   6.402   5.304   1.855  0.0267 -0.6649 -1.5455
 6253TIP3   OH218722   3.723   6.337   5.431  0.2246  0.3287  0.1022
 6253TIP3    H118723   3.649   6.277   5.424  0.2440  0.3549 -0.3424
 6253TIP3    H218724   3.687   6.422   5.409  0.6986  0.1151 -1.6018
 6254TIP3   OH218725   1.688   6.657   0.637  0.4464 -0.0964  0.1520
 6254TIP3    H118726   1.707   6.619   0.551 -2.4669  3.5686 -2.4022
 6254TIP3    H218727   1.634   6.591   0.681 -0.4309 -0.9177 -2.0580
 6255TIP3   OH218728   0.390   2.545   5.061  0.5632  0.4653 -0.2628
 6255TIP3    H118729   0.398   2.640   5.063 -0.4037  0.5538  0.0359
 6255TIP3    H218730   0.329   2.525   5.132  1.5287 -0.4676  0.3249
 6256TIP3   OH218731   5.363   4.665   0.505  0.5980 -0.0010 -0.1686
 6256TIP3    H118732   5.308   4.742   0.493  0.2243 -0.1935  0.2685
 6256TIP3    H218733   5.305   4.600   0.546  0.9508 -0.4553 -0.3776
 6257TIP3   OH218734   4.704   1.831   5.090  0.4361  0.0801 -0.3943
 6257TIP3    H118735   4.638   1.862   5.028 -0.9568 -0.6270  0.6861
 6257TIP3    H218736   4.772   1.898   5.088 -1.4008  2.0593  0.1911
 6258TIP3   OH218737   6.731   6.612   3.550 -0.2722  0.0776 -0.4686
 6258TIP3    H118738   6.685   6.531   3.569  0.8073 -0.4843 -0.1494
 6258TIP3    H218739   6.742   6.653   3.636  2.3151 -1.1991 -0.1007
 6259TIP3   OH218740   2.186   2.803   1.186 -0.4120 -0.1157  0.2886
 6259TIP3    H118741   2.252   2.872   1.182 -0.5161  0.0427  1.1107
 6259TIP3    H218742   2.143   2.816   1.271 -1.1330 -0.5500 -0.0016
 6260TIP3   OH218743   2.716   5.965   0.135  0.3523 -0.3118  0.1370
 6260TIP3    H118744   2.694   6.048   0.177  2.6608 -0.0412  0.9698
 6260TIP3    H218745   2.747   5.909   0.207 -1.6180 -2.1170 -0.3193
 6261TIP3   OH218746   6.061   1.687   4.751 -0.2194 -0.2862  0.2669
 6261TIP3    H118747   6.076   1.777   4.781  2.2581 -0.0668 -1.3319
 6261TIP3    H218748   6.013   1.697   4.669 -0.5596 -0.4800  0.4396
 6262TIP3   OH218749   1.622   4.354   0.427  0.1175 -0.0216 -0.5912
 6262TIP3    H118750   1.614   4.270   0.472  1.2558  0.4975  0.6422
 6262TIP3    H218751   1.589   4.418   0.490 -0.1175  0.5354 -1.2608
 6263TIP3   OH218752   6.243   1.729   2.074  0.4614 -0.0545  0.0163
 6263TIP3    H118753   6.233   1.685   2.158  0.2649  1.1898  0.6774
 6263TIP3    H218754   6.153   1.749   2.047  0.3986 -2.0345 -1.4035
 6264TIP3   OH218755   0.822   3.145   2.674 -0.5990  0.1759 -0.1364
 6264TIP3    H118756   0.762   3.180   2.607 -0.5505  0.0539 -0.2446
 6264TIP3    H218757   0.883   3.091   2.625  0.2944  1.1945 -0.1678
 6265TIP3   OH218758   1.215   4.396   2.935 -0.2138 -0.3062  0.3207
 6265TIP3    H118759   1.206   4.477   2.884 -0.6834 -1.0113 -0.7651
 6265TIP3    H218760   1.259   4.335   2.875  0.3057 -0.7979  1.1876
 6266TIP3   OH218761   0.829   3.914   0.212  0.6869 -0.0634 -0.2287
 6266TIP3    H118762   0.769   3.982   0.180 -0.8900 -1.6444 -0.8055
 6266TIP3    H218763   0.915   3.943   0.184  0.1233  1.9431  0.0033
 6267TIP3   OH218764   1.218   1.519   4.634  0.1675 -0.4577 -0.5594
 6267TIP3    H118765   1.228   1.435   4.680  0.1581 -0.7393 -1.0704
 6267TIP3    H218766   1.208   1.495   4.542 -0.8933  0.0502 -0.5887
 6268TIP3   OH218767   6.490   5.983   4.079  0.5234 -0.2960 -0.0690
 6268TIP3    H118768   6.545   6.061   4.088 -0.4991  0.4962 -0.5071
 6268TIP3    H218769   6.451   5.971   4.166 -0.1551  0.3440 -0.2702
 6269TIP3   OH218770   4.324   5.013   3.078  0.0202  0.2034 -0.4764
 6269TIP3    H118771   4.259   4.978   3.140  0.6458  0.2623  0.2220
 6269TIP3    H218772   4.366   5.085   3.125  2.8862 -1.8758  0.4092
 6270TIP3   OH218773   4.877   2.528   1.199  0.5283  0.1164 -0.1954
 6270TIP3    H118774   4.853   2.452   1.251 -1.3387 -0.5704 -1.9293
 6270TIP3    H218775   4.953   2.500   1.149  0.8483 -0.0437  0.3794
 6271TIP3   OH218776   4.670   0.548   5.781  0.1724  0.1473  0.0363
 6271TIP3    H118777   4.598   0.491   5.754  0.9505 -0.3763 -0.9782
 6271TIP3    H218778   4.644   0.579   5.868 -0.4698 -1.4114  0.4394
 6272TIP3   OH218779   3.999   2.068   5.854 -0.2527 -0.4123  0.8458
 6272TIP3    H118780   4.070   2.131   5.860  0.6909 -0.7819 -3.3912
 6272TIP3    H218781   4.032   1.989   5.898  0.9244  0.2108  1.0995
 6273TIP3   OH218782   3.033   2.362   2.592 -0.0915 -0.0382  0.9708
 6273TIP3    H118783   2.954   2.348   2.539  0.7589  0.7280 -0.5957
 6273TIP3    H218784   3.017   2.446   2.635 -0.5451 -0.3808  1.4889
 6274TIP3   OH218785   0.011   5.326   2.364 -0.7643  0.3066  0.2795
 6274TIP3    H118786   0.005   5.298   2.455 -0.1170 -2.0214 -0.2998
 6274TIP3    H218787   0.102   5.306   2.339 -0.9229  0.9096 -0.8683
 6275TIP3   OH218788   4.935   3.448   2.224  0.4908 -0.2872 -0.0369
 6275TIP3    H118789   4.990   3.375   2.196  0.8017 -0.0962  0.0684
 6275TIP3    H218790   4.996   3.521   2.237  0.2197 -0.0858  0.1273
 6276TIP3   OH218791   5.861   3.175   0.270  0.2042 -0.2507  0.3899
 6276TIP3    H118792   5.799   3.131   0.327  0.2156 -0.0674  0.5456
 6276TIP3    H218793   5.819   3.175   0.184  2.1946 -4.9357 -0.8712
 6277TIP3   OH218794   1.294   1.906   3.530 -0.8197  0.4739 -0.5556
 6277TIP3    H118795   1.346   1.986   3.523  0.7852 -0.6262 -1.8849
 6277TIP3    H218796   1.303   1.880   3.622 -0.1591  1.0168 -0.4610
 6278TIP3   OH218797   1.426   2.853   0.879  0.9230  0.4132  0.5270
 6278TIP3    H118798   1.517   2.882   0.868  2.8160 -5.0377 -3.0264
 6278TIP3    H218799   1.379   2.894   0.807  1.2785  1.1371  0.6996
 6279TIP3   OH218800   3.979   5.146   0.197  0.6520 -0.0217 -0.9104
 6279TIP3    H118801   3.959   5.210   0.128 -0.9188 -1.0212 -1.4369
 6279TIP3    H218802   4.030   5.195   0.261  0.3677  1.4866 -1.7908
 6280TIP3   OH218803   5.242   5.455   5.723 -0.0462  0.1669  0.1738
 6280TIP3    H118804   5.305   5.507   5.673 -1.4249  0.3805 -1.4460
 6280TIP3    H218805   5.167   5.513   5.734 -1.7530 -1.4495 -1.9424
 6281TIP3   OH218806   4.380   5.512   3.949  0.3044 -0.1102  0.1845
 6281TIP3    H118807   4.470   5.504   3.916  0.5888  0.1836  0.8658
 6281TIP3    H218808   4.376   5.601   3.984  0.2822 -0.6600  1.6709
 6282TIP3   OH218809   0.851   5.507   4.862 -0.1053  0.1924  0.0474
 6282TIP3    H118810   0.887   5.543   4.944  0.7230  0.5897 -0.4799
 6282TIP3    H218811   0.882   5.567   4.794 -0.7589 -0.1583 -0.5665
 6283TIP3   OH218812   5.684   2.363   2.719 -0.4715  0.2721  0.4721
 6283TIP3    H118813   5.764   2.413   2.702  0.4651 -1.2059  0.3398
 6283TIP3    H218814   5.657   2.390   2.807 -0.3284  1.4305  0.1699
 6284TIP3   OH218815   0.803   0.805   1.954 -0.1974  0.1614  0.0924
 6284TIP3    H118816   0.719   0.835   1.990 -0.4118 -1.0819  0.6602
 6284TIP3    H218817   0.833   0.738   2.015  0.8084  0.0007 -0.5609
 6285TIP3   OH218818   1.629   0.547   2.580  0.1053 -0.1476  0.1566
 6285TIP3    H118819   1.596   0.544   2.490  1.4443 -0.8290 -0.3267
 6285TIP3    H218820   1.638   0.641   2.599  1.6164 -0.0054 -1.1197
 6286TIP3   OH218821   4.681   4.212   4.823 -0.0999  0.0866 -0.0751
 6286TIP3    H118822   4.748   4.164   4.775 -0.3433  0.3795 -0.7162
 6286TIP3    H218823   4.653   4.151   4.892  1.0030  0.0646  0.3738
 6287TIP3   OH218824   2.156   2.556   1.676 -0.1612 -0.0147  0.4826
 6287TIP3    H118825   2.177   2.470   1.713  0.7194 -0.3451 -0.7034
 6287TIP3    H218826   2.238   2.585   1.636 -1.0147  0.3853 -1.0498
 6288TIP3   OH218827   1.226   2.426   4.530  0.0542  0.2446 -0.0869
 6288TIP3    H118828   1.227   2.451   4.622  0.7891  0.2235 -0.0871
 6288TIP3    H218829   1.221   2.330   4.531  2.4362  0.0698 -0.0243
 6289TIP3   OH218830   2.016   4.904   0.396  0.1210  0.0303 -0.4611
 6289TIP3    H118831   1.983   4.850   0.468 -1.0137  2.0232  0.6267
 6289TIP3    H218832   2.024   4.844   0.322  0.7154 -1.9707  1.1454
 6290TIP3   OH218833   0.106   1.483   4.215  0.1189  0.9257  0.6390
 6290TIP3    H118834   0.031   1.468   4.156 -0.9834  1.9711  1.7247
 6290TIP3    H218835   0.122   1.577   4.210  0.0818  1.0131  1.8915
 6291TIP3   OH218836   6.042   6.341   5.798 -0.8564  0.1667  0.2761
 6291TIP3    H118837   5.953   6.361   5.770 -0.9218  0.5591  0.7531
 6291TIP3    H218838   6.070   6.270   5.740 -1.9129 -0.7947  0.9145
 6292TIP3   OH218839   5.195   0.486   1.502  0.0669 -0.3638  0.0487
 6292TIP3    H118840   5.146   0.554   1.457  0.7104 -0.5412 -0.9419
 6292TIP3    H218841   5.156   0.404   1.471  1.5340 -0.5432 -1.4543
 6293TIP3   OH218842   2.935   5.190   1.667  0.1090  0.1902  0.4858
 6293TIP3    H118843   2.954   5.146   1.584 -0.8775  2.2051 -0.8967
 6293TIP3    H218844   2.852   5.151   1.696  0.3541 -0.3791  0.4371
 6294TIP3   OH218845   5.865   5.981   4.650  0.4141 -0.1042  0.2055
 6294TIP3    H118846   5.941   6.030   4.682  0.9972 -0.6088 -0.3724
 6294TIP3    H218847   5.789   6.027   4.687  1.0343 -0.3227  1.8186
 6295TIP3   OH218848   4.269   2.530   2.223 -0.2221 -0.3616 -0.3533
 6295TIP3    H118849   4.175   2.548   2.228  0.0619  0.9078  1.4448
 6295TIP3    H218850   4.288   2.487   2.307  0.7942 -0.6315 -0.7177
 6296TIP3   OH218851   3.029   5.148   5.766  0.0868 -0.8321  0.3535
 6296TIP3    H118852   3.066   5.235   5.777 -0.0808 -0.9712  2.5075
 6296TIP3    H218853   2.970   5.156   5.691  0.2649  0.8348  0.3584
 6297TIP3   OH218854   0.818   6.764   4.916 -0.3429  0.3401  0.0410
 6297TIP3    H118855   0.851   6.790   5.002  0.5849 -0.6019 -0.0111
 6297TIP3    H218856   0.874   6.811   4.854  0.2635 -0.4687 -0.0431
 6298TIP3   OH218857   5.932   5.286   3.731  0.0624 -0.1770 -0.1957
 6298TIP3    H118858   5.924   5.261   3.824  1.0004  0.0883 -0.0255
 6298TIP3    H218859   5.867   5.233   3.686 -0.9623  0.2742  0.7175
 6299TIP3   OH218860   6.206   1.931   5.303  0.8274  0.6824  0.3510
 6299TIP3    H118861   6.253   1.962   5.381  3.8887 -0.3622 -0.9123
 6299TIP3    H218862   6.209   1.835   5.311  0.8516  0.5724 -0.8391
 6300TIP3   OH218863   6.132   0.555   1.691  0.0867  0.4006 -0.7722
 6300TIP3    H118864   6.069   0.542   1.621 -1.1183 -0.6529  0.4485
 6300TIP3    H218865   6.078   0.566   1.770  1.4115  0.0972  0.2124
 6301TIP3   OH218866   0.559   4.356   3.214  0.0103 -0.2176  0.1138
 6301TIP3    H118867   0.522   4.432   3.169 -1.4267  0.1956  1.9160
 6301TIP3    H218868   0.529   4.281   3.162  0.8906  0.3661 -1.2994
 6302TIP3   OH218869   4.221   1.112   0.710 -0.2761 -0.3650 -0.4161
 6302TIP3    H118870   4.215   1.047   0.640  0.2337  0.3263 -1.1219
 6302TIP3    H218871   4.162   1.182   0.682 -0.3482 -0.2464  0.0294
 6303TIP3   OH218872   1.358   4.165   1.434  0.2867 -0.4973 -0.5794
 6303TIP3    H118873   1.349   4.154   1.529  0.5059  1.6177 -0.2583
 6303TIP3    H218874   1.453   4.172   1.420  0.1760  2.3021 -0.4656
 6304TIP3   OH218875   5.172   2.419   0.268 -0.0565 -0.1545  0.0172
 6304TIP3    H118876   5.117   2.369   0.328 -0.6229  0.3657 -0.0490
 6304TIP3    H218877   5.157   2.378   0.182 -0.5760  0.1642 -0.0499
 6305TIP3   OH218878   6.387   4.699   0.096  0.7047 -0.1485  0.2415
 6305TIP3    H118879   6.417   4.639   0.164  0.7464 -0.7612 -0.3070
 6305TIP3    H218880   6.291   4.689   0.096  0.7107 -0.2122  0.1594
 6306TIP3   OH218881   7.172   2.423   5.485  0.6572  0.2120 -0.6294
 6306TIP3    H118882   7.138   2.511   5.465 -0.0676  0.2394  0.6032
 6306TIP3    H218883   7.219   2.397   5.406  0.5703  1.5608 -1.1530
 6307TIP3   OH218884   6.396  -0.011   3.465  0.1549  0.4035  0.5786
 6307TIP3    H118885   6.322   0.047   3.479 -0.6410 -0.2318 -0.7966
 6307TIP3    H218886   6.471   0.048   3.453 -0.5230  1.1346 -0.1757
 6308TIP3   OH218887   0.152   3.517   5.568 -0.4279 -0.0517  0.2844
 6308TIP3    H118888   0.164   3.596   5.515  0.3762  0.8521  1.7441
 6308TIP3    H218889   0.181   3.446   5.511  0.3394  0.8692 -0.5246
 6309TIP3   OH218890   0.878   2.113   0.712  0.0676 -0.3754 -0.0789
 6309TIP3    H118891   0.800   2.109   0.767  0.0188  1.5922  0.0630
 6309TIP3    H218892   0.898   2.207   0.705  3.0362 -0.8313  0.7832
 6310TIP3   OH218893   7.140   1.873   1.761 -0.1150 -0.0130  0.1085
 6310TIP3    H118894   7.126   1.824   1.680 -1.3194  0.0825  0.2450
 6310TIP3    H218895   7.086   1.951   1.752 -0.2170  0.0283  0.9667
 6311TIP3   OH218896   4.669   0.573   0.829  0.2738 -0.3519  0.3663
 6311TIP3    H118897   4.629   0.538   0.749  1.3744  0.3041 -0.5148
 6311TIP3    H218898   4.632   0.661   0.837  0.2168 -0.3920  0.5397
 6312TIP3   OH218899   4.416   2.890   2.621 -0.6512 -0.0102 -0.2675
 6312TIP3    H118900   4.488   2.916   2.563  0.1039  1.0584  1.0951
 6312TIP3    H218901   4.337   2.924   2.577 -0.1645  0.2355 -0.9777
 6313TIP3   OH218902   4.381   3.660   4.752 -0.5860 -0.1534 -0.5430
 6313TIP3    H118903   4.351   3.722   4.818 -2.5895 -0.4931 -1.0450
 6313TIP3    H218904   4.319   3.671   4.680 -0.1353 -1.7380 -1.2189
 6314TIP3   OH218905   6.358   1.619   2.865  0.5161  0.2423  0.1746
 6314TIP3    H118906   6.313   1.698   2.834 -0.7076 -0.2146  0.7172
 6314TIP3    H218907   6.304   1.588   2.938  1.1208 -0.9533  0.1370
 6315TIP3   OH218908   4.929   4.098   4.144  0.5830  0.4244  0.4135
 6315TIP3    H118909   4.946   4.033   4.076  1.5630  2.1649 -1.1165
 6315TIP3    H218910   4.928   4.182   4.097  0.2747  1.6115  2.4172
 6316TIP3   OH218911   4.804   5.285   3.388  0.3258  0.2582 -0.1774
 6316TIP3    H118912   4.793   5.341   3.311  1.0627  1.2755  0.4213
 6316TIP3    H218913   4.783   5.197   3.357 -1.3359  0.9182 -1.0324
 6317TIP3   OH218914   0.068   4.875   0.321  0.4247 -1.0082  0.2618
 6317TIP3    H118915   0.086   4.821   0.398 -3.1535 -1.0739  1.2568
 6317TIP3    H218916   0.142   4.860   0.262  1.8198 -3.3158  2.4192
 6318TIP3   OH218917   3.141   6.428   2.222  0.6255  0.5790 -0.4038
 6318TIP3    H118918   3.206   6.430   2.292  0.8289 -0.2918 -0.5561
 6318TIP3    H218919   3.127   6.335   2.204  0.8072  0.7790 -1.7318
 6319TIP3   OH218920   7.038   2.231   2.427  0.0192  0.4359 -0.5357
 6319TIP3    H118921   7.081   2.312   2.401 -0.4469  0.4361 -1.3413
 6319TIP3    H218922   7.101   2.162   2.406 -0.1817  0.4732 -1.3116
 6320TIP3   OH218923   0.631   3.480   3.565  0.3836  0.2363 -0.1924
 6320TIP3    H118924   0.724   3.498   3.573  0.1041  1.6824  0.1131
 6320TIP3    H218925   0.594   3.560   3.528 -1.0879  0.7218  2.1018
 6321TIP3   OH218926   3.783   5.790   0.192 -0.0834 -0.7719  0.2856
 6321TIP3    H118927   3.828   5.872   0.173 -0.1232 -0.7492  0.2924
 6321TIP3    H218928   3.835   5.724   0.146 -0.3607 -0.6787 -0.1678
 6322TIP3   OH218929   3.548   2.809   3.854 -0.3060 -0.7141 -0.3656
 6322TIP3    H118930   3.530   2.810   3.760 -0.5245 -0.8450 -0.3265
 6322TIP3    H218931   3.467   2.775   3.893 -1.8602  3.1400  0.2402
 6323TIP3   OH218932   6.141   1.561   3.047  0.1582 -0.1721 -0.1443
 6323TIP3    H118933   6.136   1.495   3.116 -0.2639 -0.8850 -0.8512
 6323TIP3    H218934   6.050   1.571   3.016  0.4226 -0.2427 -0.9577
 6324TIP3   OH218935   2.930   6.615   4.930 -0.2964 -0.6073  0.0594
 6324TIP3    H118936   2.911   6.684   4.992 -0.2511 -0.5158 -0.0290
 6324TIP3    H218937   2.947   6.538   4.984  2.1642  0.0136  0.3010
 6325TIP3   OH218938   1.540   5.378   4.096 -0.0493 -0.7000 -0.4023
 6325TIP3    H118939   1.550   5.286   4.119  0.6246 -0.7151 -0.7221
 6325TIP3    H218940   1.602   5.423   4.153  0.7772 -0.6171 -1.3369
 6326TIP3   OH218941   5.694   3.875   1.366 -0.4754 -0.2289 -0.2647
 6326TIP3    H118942   5.694   3.781   1.384  1.1293 -0.3498 -0.7832
 6326TIP3    H218943   5.689   3.916   1.453 -1.1200 -0.7715 -0.0317
 6327TIP3   OH218944   3.146   3.143   0.385 -0.5718 -1.0499  0.0648
 6327TIP3    H118945   3.155   3.143   0.480  1.0073  0.1729 -0.0417
 6327TIP3    H218946   3.052   3.144   0.370 -1.0862  3.6245  1.7721
 6328TIP3   OH218947   4.862   2.578   3.740 -0.3522 -0.5289 -0.0397
 6328TIP3    H118948   4.916   2.611   3.668 -0.4156 -0.3766 -0.0174
 6328TIP3    H218949   4.855   2.484   3.723  0.9547 -0.7604  0.6419
 6329TIP3   OH218950   6.925   4.353   2.741  0.3389 -0.3506  0.4181
 6329TIP3    H118951   6.913   4.377   2.649  1.5133 -0.4399  0.2175
 6329TIP3    H218952   6.853   4.396   2.787  0.5491  0.8847 -0.3519
 6330TIP3   OH218953   5.571   1.332   1.234 -0.1920  0.9227  0.4120
 6330TIP3    H118954   5.562   1.416   1.189  1.5072  0.3468 -1.1080
 6330TIP3    H218955   5.656   1.337   1.277 -0.0908  0.0070  0.3409
 6331TIP3   OH218956   1.274   4.235   1.711 -0.6801 -0.0335  0.5514
 6331TIP3    H118957   1.208   4.265   1.649 -2.2355 -1.9407  1.1797
 6331TIP3    H218958   1.277   4.303   1.778 -2.6554 -0.2746  0.9436
 6332TIP3   OH218959   5.942   0.870   4.458  0.3749  0.2049  0.1406
 6332TIP3    H118960   5.902   0.878   4.545 -1.2522 -1.3854 -0.4008
 6332TIP3    H218961   6.017   0.812   4.471  0.0866 -0.0952  0.4804
 6333TIP3   OH218962   2.897   6.780   1.314 -0.1215 -0.2596  0.4826
 6333TIP3    H118963   2.807   6.807   1.295  0.1877  1.0477  0.7298
 6333TIP3    H218964   2.904   6.691   1.280 -1.9721 -0.9994  1.8786
 6334TIP3   OH218965   1.581   3.577   4.312  1.1808  0.1731  0.1794
 6334TIP3    H118966   1.602   3.634   4.238 -0.0425  0.1663 -0.1882
 6334TIP3    H218967   1.524   3.509   4.276  0.8588 -0.0343  1.0488
 6335TIP3   OH218968   2.773   0.282   4.881 -0.3439  0.0185  0.5730
 6335TIP3    H118969   2.750   0.198   4.841 -0.8276  0.6753 -0.5989
 6335TIP3    H218970   2.828   0.325   4.816 -0.5184  0.8101  0.9336
 6336TIP3   OH218971   2.622   2.255   5.636  0.4976  0.7281 -0.0554
 6336TIP3    H118972   2.657   2.169   5.659  2.2076  1.4346  0.1187
 6336TIP3    H218973   2.661   2.275   5.551  1.6613  2.1014  0.7468
 6337TIP3   OH218974   6.083   0.535   2.659 -0.0928  0.5298  0.0856
 6337TIP3    H118975   6.056   0.460   2.713  0.1893 -1.1897 -2.0017
 6337TIP3    H218976   6.170   0.558   2.692 -0.4684  0.4217  1.2067
 6338TIP3   OH218977   0.849   2.933   5.573  0.1085  0.6647 -0.5554
 6338TIP3    H118978   0.793   2.896   5.642  1.4449  0.1087  0.2807
 6338TIP3    H218979   0.925   2.966   5.620  1.1098  0.1553 -1.7782
 6339TIP3   OH218980   5.461   4.758   5.360  0.2498  0.0979 -0.3847
 6339TIP3    H118981   5.471   4.690   5.426  0.0886  0.9287  0.5169
 6339TIP3    H218982   5.422   4.831   5.407  1.8956  1.3971 -0.9611
 6340TIP3   OH218983   7.095   1.516   2.533 -0.5100  0.3740  0.2067
 6340TIP3    H118984   7.031   1.494   2.465 -2.7631  0.1274  2.2819
 6340TIP3    H218985   7.104   1.611   2.528  0.5160  0.2359 -1.3477
 6341TIP3   OH218986   1.615   1.136   5.688  0.3040 -0.0720 -0.0565
 6341TIP3    H118987   1.685   1.147   5.624  1.1081 -0.5076  0.7328
 6341TIP3    H218988   1.579   1.224   5.700  0.1662  0.0171 -1.0728
 6342TIP3   OH218989   3.052   1.096   3.544  0.4274  0.6507 -0.0691
 6342TIP3    H118990   3.077   1.163   3.607  0.1817  0.4479  0.2494
 6342TIP3    H218991   3.016   1.144   3.470  0.7047  0.8902 -0.0482
 6343TIP3   OH218992   6.738   2.117   3.543 -0.0061 -0.1426  0.0978
 6343TIP3    H118993   6.686   2.063   3.483  0.8304 -0.8259 -0.0311
 6343TIP3    H218994   6.732   2.205   3.506 -0.8095 -0.2641 -0.0876
 6344TIP3   OH218995   4.161   2.354   2.021 -0.6272  0.2835  0.8407
 6344TIP3    H118996   4.105   2.308   2.083  2.3274 -1.6012  2.3567
 6344TIP3    H218997   4.229   2.394   2.075  0.7369  0.5792 -0.9815
 6345TIP3   OH218998   3.155   2.096   4.856 -0.0340 -0.1296 -0.4049
 6345TIP3    H118999   3.093   2.064   4.790 -1.7485 -2.3434  2.0242
 6345TIP3    H219000   3.145   2.191   4.854 -0.2035 -0.1265 -3.0741
 6346TIP3   OH219001   0.151   6.682   4.383  0.2487  0.8204  0.4472
 6346TIP3    H119002   0.082   6.680   4.317 -0.1965 -0.9532  0.9202
 6346TIP3    H219003   0.128   6.755   4.440 -0.0413  1.5866 -0.6332
 6347TIP3   OH219004   6.878   3.546   1.519  0.2100  0.8204  0.2647
 6347TIP3    H119005   6.801   3.547   1.461  0.8182  1.6586 -0.5479
 6347TIP3    H219006   6.946   3.502   1.468  0.2303 -0.0844  1.0517
 6348TIP3   OH219007   2.742   2.012   5.355  0.2441 -0.0790 -0.5160
 6348TIP3    H119008   2.831   2.039   5.376  0.0557 -1.4593  2.6225
 6348TIP3    H219009   2.751   1.923   5.321 -0.0174 -1.5191  2.8571
 6349TIP3   OH219010   6.363   5.377   5.788 -0.6110  0.1245  0.0701
 6349TIP3    H119011   6.278   5.419   5.797 -0.8855 -0.6895  1.5144
 6349TIP3    H219012   6.425   5.439   5.828 -0.5950  0.4506 -0.4499
 6350TIP3   OH219013   4.105   3.246   0.604  0.6282 -0.0396 -0.4097
 6350TIP3    H119014   4.164   3.184   0.562 -0.3028 -0.5806 -0.9556
 6350TIP3    H219015   4.056   3.193   0.668  0.5188  0.3340 -0.1789
 6351TIP3   OH219016   4.983   4.343   3.971  0.1056  0.0328 -0.0482
 6351TIP3    H119017   5.057   4.403   3.974  1.0955 -1.0582 -1.3832
 6351TIP3    H219018   4.927   4.378   3.901  0.5651 -0.4567 -0.6664
 6352TIP3   OH219019   0.635   1.587   5.067  0.6578 -0.5230 -0.3770
 6352TIP3    H119020   0.715   1.580   5.119  1.6940  1.0782 -1.6515
 6352TIP3    H219021   0.565   1.594   5.131  1.8934  1.4853  0.8571
 6353TIP3   OH219022   1.517   6.005   1.456 -0.2084 -0.2245 -0.6955
 6353TIP3    H119023   1.493   6.043   1.541 -0.5925 -1.2766 -0.3172
 6353TIP3    H219024   1.539   5.914   1.476  5.0706  0.7483 -0.8364
 6354TIP3   OH219025   3.875   5.049   5.718  0.0513 -0.1257  0.2212
 6354TIP3    H119026   3.831   5.133   5.728  1.2046  0.6072 -0.5194
 6354TIP3    H219027   3.940   5.048   5.789  0.1598 -0.2976  0.1194
 6355TIP3   OH219028   1.121   3.502   2.430  0.1111  0.2425 -0.3774
 6355TIP3    H119029   1.126   3.513   2.335  0.5171  2.5682 -0.1425
 6355TIP3    H219030   1.190   3.559   2.464  0.1521 -0.7646  1.3175
 6356TIP3   OH219031   0.840   3.763   4.494  0.1125  0.1489  0.0061
 6356TIP3    H119032   0.799   3.677   4.484  1.6716 -0.5570 -0.6571
 6356TIP3    H219033   0.775   3.824   4.460 -1.7186 -0.5387  2.0141
 6357TIP3   OH219034   0.251   1.034   4.207  0.5274  0.1848  0.6591
 6357TIP3    H119035   0.323   1.046   4.145  0.7104  1.3671  1.0796
 6357TIP3    H219036   0.208   0.953   4.178  1.0597  0.3115 -0.5496
 6358TIP3   OH219037   4.927   3.791   0.223 -0.2832 -0.1020 -0.5007
 6358TIP3    H119038   4.878   3.866   0.255 -0.8719 -0.7817  0.2333
 6358TIP3    H219039   4.965   3.751   0.301  2.0391  0.7637 -1.0827
 6359TIP3   OH219040   4.194   5.349   5.373  0.1897 -0.3242 -0.1573
 6359TIP3    H119041   4.215   5.279   5.311 -0.8108 -2.8511  2.1610
 6359TIP3    H219042   4.279   5.373   5.411  0.4407 -1.0174 -0.2593
 6360TIP3   OH219043   6.009   1.913   5.102 -0.2441  1.0750 -0.0257
 6360TIP3    H119044   6.064   1.939   5.176 -0.6983 -0.5401  0.9373
 6360TIP3    H219045   6.069   1.870   5.042 -0.5608 -2.3357  1.8376
 6361TIP3   OH219046   1.088   5.752   2.136  0.0332  0.4942  0.4634
 6361TIP3    H119047   1.062   5.695   2.209 -2.9077 -1.7428 -2.0630
 6361TIP3    H219048   1.017   5.816   2.130  1.0498  1.6561  0.4692
 6362TIP3   OH219049   2.724   3.575   1.411 -0.6971  0.1276  0.2658
 6362TIP3    H119050   2.718   3.663   1.374 -1.3865 -0.4362 -1.0424
 6362TIP3    H219051   2.716   3.588   1.505  0.9916  1.6126  0.2626
 6363TIP3   OH219052   6.541   5.690   1.674 -0.4732 -0.1411  0.2731
 6363TIP3    H119053   6.523   5.709   1.582 -0.1692  2.0439  0.6074
 6363TIP3    H219054   6.485   5.616   1.695 -2.8981  1.2748 -0.8527
 6364TIP3   OH219055   6.792   0.069   1.432  0.6100  0.5315 -0.6326
 6364TIP3    H119056   6.821   0.013   1.360  1.2971 -0.3379  0.2728
 6364TIP3    H219057   6.698   0.053   1.439  0.7793 -0.4974 -0.4406
 6365TIP3   OH219058   3.150   1.307   3.762  0.1179 -0.0466  0.3218
 6365TIP3    H119059   3.220   1.370   3.744 -1.0834  1.1169 -0.4201
 6365TIP3    H219060   3.072   1.361   3.773 -0.6101 -1.2912  1.5585
 6366TIP3   OH219061   6.778   0.118   1.052 -0.0195  0.1453 -0.8720
 6366TIP3    H119062   6.818   0.179   1.115 -0.0263  0.0355 -0.7618
 6366TIP3    H219063   6.832   0.040   1.057  1.3407  0.8966 -2.6003
 6367TIP3   OH219064   3.035   5.633   2.685  0.1400 -0.0389  0.1729
 6367TIP3    H119065   3.056   5.636   2.779  1.6425 -1.8705 -0.0429
 6367TIP3    H219066   3.059   5.720   2.653  0.6523  0.2542  1.2824
 6368TIP3   OH219067   2.164   0.663   5.724  0.4766 -0.3271  0.2383
 6368TIP3    H119068   2.244   0.637   5.770  0.4851  3.1554  2.5379
 6368TIP3    H219069   2.095   0.612   5.764  1.0307 -0.2452  1.3289
 6369TIP3   OH219070   5.748   5.132   5.290  0.5071 -0.1831  0.3247
 6369TIP3    H119071   5.756   5.188   5.213  0.6547 -0.3864  0.1910
 6369TIP3    H219072   5.803   5.055   5.270 -0.5124 -0.8619  0.0637
 6370TIP3   OH219073   1.612   4.826   5.609 -0.5377 -0.7439  0.0158
 6370TIP3    H119074   1.626   4.743   5.655 -1.5776 -0.1088  1.5392
 6370TIP3    H219075   1.649   4.892   5.667 -0.7271 -0.0160 -0.6755
 6371TIP3   OH219076   0.812   5.801   5.615 -0.1755 -0.2390  0.1585
 6371TIP3    H119077   0.792   5.885   5.574  1.9042 -0.4405 -1.4713
 6371TIP3    H219078   0.788   5.736   5.550 -1.5896 -0.9317  1.3350
 6372TIP3   OH219079   3.988   3.377   3.985  0.0488  0.3534 -0.0860
 6372TIP3    H119080   4.040   3.437   3.932  0.0483  1.2022  0.8416
 6372TIP3    H219081   4.022   3.290   3.964  1.0281  0.7992 -0.3858
 6373TIP3   OH219082   5.422   4.338   3.496 -0.0037 -0.4774  0.6667
 6373TIP3    H119083   5.337   4.332   3.540  0.3691 -0.8981  1.3521
 6373TIP3    H219084   5.442   4.247   3.473 -0.3312 -0.2355 -0.6701
 6374TIP3   OH219085   3.262   0.341   4.497 -0.2844  0.1735  0.2235
 6374TIP3    H119086   3.304   0.298   4.572  2.6109  0.8688 -0.8717
 6374TIP3    H219087   3.315   0.418   4.480 -1.7535  0.8663 -1.6322
 6375TIP3   OH219088   0.579   3.453   1.766 -0.2627  0.3758  0.4048
 6375TIP3    H119089   0.643   3.507   1.813 -0.4652  0.0775  1.0371
 6375TIP3    H219090   0.605   3.459   1.674  2.9194 -2.5699  0.8968
 6376TIP3   OH219091   0.976   0.158   2.237  0.3009 -0.7500  0.0758
 6376TIP3    H119092   1.055   0.212   2.231 -0.8169  0.8863 -0.8917
 6376TIP3    H219093   0.928   0.194   2.312 -1.3989  1.1025 -1.7331
 6377TIP3   OH219094   4.330   1.805   4.079 -0.2434 -0.5261 -0.5726
 6377TIP3    H119095   4.348   1.746   4.153 -1.7037 -0.1610  0.1068
 6377TIP3    H219096   4.305   1.888   4.120  0.3382  0.1237 -1.5025
 6378TIP3   OH219097   6.999   1.530   1.948  0.4897 -0.4012 -0.5444
 6378TIP3    H119098   7.004   1.592   2.020  0.3136  0.9460 -1.6494
 6378TIP3    H219099   6.987   1.445   1.990 -1.2729  0.5350  0.9738
 6379TIP3   OH219100   1.795   0.114   5.566  0.0682  0.5183  0.0346
 6379TIP3    H119101   1.888   0.131   5.581  0.1296 -0.1890  0.4622
 6379TIP3    H219102   1.768   0.060   5.640 -0.1116 -1.3105 -1.2923
 6380TIP3   OH219103   2.376   2.690   2.070  0.1703 -0.4932  0.2982
 6380TIP3    H119104   2.402   2.645   2.151 -0.2949 -3.0479 -0.8601
 6380TIP3    H219105   2.285   2.662   2.056 -0.8145  2.3145  0.3886
 6381TIP3   OH219106   4.876   6.390   4.679  0.3748 -0.6941 -0.0775
 6381TIP3    H119107   4.818   6.362   4.749  1.2386  0.1112  0.9860
 6381TIP3    H219108   4.823   6.381   4.599 -1.4512  0.6317  0.9194
 6382TIP3   OH219109   0.157   2.878   3.556  0.0281  0.2132  0.0147
 6382TIP3    H119110   0.209   2.927   3.492  0.0888  0.0379 -0.0691
 6382TIP3    H219111   0.150   2.790   3.520 -0.7513  0.3655 -0.2227
 6383TIP3   OH219112   4.879   1.519   5.707  0.2705  0.5219  0.4283
 6383TIP3    H119113   4.901   1.593   5.651  1.8925  1.7940  2.5918
 6383TIP3    H219114   4.855   1.558   5.791 -1.8344 -1.3092  0.7765
 6384TIP3   OH219115   5.641   2.086   1.612 -0.0589  0.1898  0.1620
 6384TIP3    H119116   5.595   2.008   1.581  2.3357 -0.2796 -2.6229
 6384TIP3    H219117   5.603   2.158   1.561  1.4503 -0.0490 -1.3737
 6385TIP3   OH219118   3.785   4.452   4.781 -0.2560  0.3741  0.2394
 6385TIP3    H119119   3.751   4.538   4.806 -0.4608  0.2270  0.4749
 6385TIP3    H219120   3.744   4.435   4.696 -0.0803  0.5831  0.1103
 6386TIP3   OH219121   1.970   4.036   5.439 -0.0688 -0.4627  0.2613
 6386TIP3    H119122   2.003   3.949   5.461 -1.4483 -0.8335  0.9967
 6386TIP3    H219123   1.878   4.033   5.465 -0.4146  0.8549 -0.7505
 6387TIP3   OH219124   0.728   5.048   2.708  0.5119 -0.0435  0.3094
 6387TIP3    H119125   0.813   5.090   2.717  0.8698 -0.1877 -1.8334
 6387TIP3    H219126   0.669   5.119   2.684  0.0691 -0.0116  1.4043
 6388TIP3   OH219127   2.005   4.506   5.630 -0.0864  0.0631 -0.0264
 6388TIP3    H119128   1.943   4.578   5.623  1.2704  1.1397 -1.9803
 6388TIP3    H219129   2.076   4.540   5.684 -0.0405 -0.2744  0.1284
 6389TIP3   OH219130   1.431   0.046   4.486 -0.3070 -0.1734 -0.0126
 6389TIP3    H119131   1.483   0.120   4.517  1.3890 -1.4739  0.4062
 6389TIP3    H219132   1.405   0.071   4.397  3.0793 -0.3542 -1.2170
 6390TIP3   OH219133   4.620   0.705   0.063  0.3308  0.1654  0.2500
 6390TIP3    H119134   4.548   0.662   0.108  0.5334  0.5886  0.9877
 6390TIP3    H219135   4.578   0.756  -0.006 -0.2716  1.8152  1.7672
 6391TIP3   OH219136   4.630   4.917   2.736  0.8409  0.1998  0.1065
 6391TIP3    H119137   4.591   4.929   2.823  0.7871 -1.2757  0.3210
 6391TIP3    H219138   4.724   4.929   2.750  0.7796  0.4964  0.2632
 6392TIP3   OH219139   1.438   5.980   4.713 -0.0868 -0.4049  0.1892
 6392TIP3    H119140   1.387   6.056   4.686  1.7672  1.0895  0.7109
 6392TIP3    H219141   1.458   5.996   4.805  4.5555  1.1414 -0.8525
 6393TIP3   OH219142   4.239   5.632   5.646 -0.5547 -0.6150 -0.9313
 6393TIP3    H119143   4.213   5.711   5.694  0.2648 -0.5307 -0.6168
 6393TIP3    H219144   4.220   5.560   5.707  0.1915 -0.5319 -0.5927
 6394TIP3   OH219145   1.580   1.688   2.559  0.0327 -1.1146 -0.5177
 6394TIP3    H119146   1.529   1.614   2.591 -0.9146  0.4388  1.8225
 6394TIP3    H219147   1.599   1.740   2.637  2.3885  0.1109 -1.7879
 6395TIP3   OH219148   3.278   2.651   1.004  0.0085 -0.2201  0.1402
 6395TIP3    H119149   3.330   2.669   1.082 -0.7438  2.0534  0.1958
 6395TIP3    H219150   3.325   2.693   0.933 -1.0644  0.7487 -0.0224
 6396TIP3   OH219151   6.588   1.176   2.253 -0.7683 -0.3399 -0.1115
 6396TIP3    H119152   6.496   1.196   2.269 -0.3337  2.4215 -0.4982
 6396TIP3    H219153   6.636   1.231   2.315  0.6336 -0.3467 -1.1290
 6397TIP3   OH219154   2.870   4.086   5.683  0.2908 -0.3836 -0.1090
 6397TIP3    H119155   2.964   4.076   5.675  0.4058 -0.4822  1.1353
 6397TIP3    H219156   2.848   4.157   5.622  1.1423 -0.4515 -0.5046
 6398TIP3   OH219157   3.723   0.956   3.579  0.7292 -0.6641  0.3782
 6398TIP3    H119158   3.755   0.871   3.547 -0.0191 -0.8731  0.1631
 6398TIP3    H219159   3.742   1.017   3.507 -0.4784 -1.0357 -0.3006
 6399TIP3   OH219160   5.920   1.410   3.314 -0.1115  0.4586  0.3029
 6399TIP3    H119161   5.993   1.362   3.276  0.0305  0.2900  0.7867
 6399TIP3    H219162   5.858   1.421   3.242  0.3612  0.5490 -0.0945
 6400TIP3   OH219163   0.452   2.044   2.976 -0.1771  0.4587  0.2419
 6400TIP3    H119164   0.547   2.027   2.971 -0.2467 -0.0069  0.4509
 6400TIP3    H219165   0.443   2.136   2.952  0.5370  1.0657  2.1438
 6401TIP3   OH219166   3.724   4.670   4.542 -0.1580  0.0979 -0.0108
 6401TIP3    H119167   3.816   4.659   4.565  1.0496  3.1465 -2.7026
 6401TIP3    H219168   3.698   4.751   4.587 -2.0044 -1.3128  1.6619
 6402TIP3   OH219169   5.899   1.950   2.942 -0.5794  0.2834 -0.4507
 6402TIP3    H119170   5.894   2.007   2.866  1.1486 -0.6462 -1.3426
 6402TIP3    H219171   5.880   1.863   2.909 -2.7220  0.2170  0.7975
 6403TIP3   OH219172   6.187   3.477   1.106 -0.1141 -0.2016 -0.3403
 6403TIP3    H119173   6.092   3.484   1.099 -0.1078 -1.0467 -1.8546
 6403TIP3    H219174   6.202   3.399   1.158 -0.2977 -1.1186 -1.6033
 6404TIP3   OH219175   3.193   0.035   2.425 -0.2516 -0.3951  0.0295
 6404TIP3    H119176   3.113   0.053   2.475  0.0498 -1.0313  0.7620
 6404TIP3    H219177   3.262   0.082   2.473 -0.1507  0.0034 -0.4964
 6405TIP3   OH219178   4.974   5.322   4.886 -0.1838  0.2828  0.7094
 6405TIP3    H119179   5.026   5.331   4.806 -1.2623 -1.3511 -0.2277
 6405TIP3    H219180   5.025   5.368   4.953  2.0192 -0.5002 -0.3480
 6406TIP3   OH219181   6.784   5.877   4.953 -0.3037  0.3164 -0.0350
 6406TIP3    H119182   6.775   5.839   5.041  0.3440  0.3466  0.0487
 6406TIP3    H219183   6.742   5.963   4.960  1.2405  1.0607  0.7460
 6407TIP3   OH219184   4.754   0.404   3.935  0.4285  0.5018 -0.8675
 6407TIP3    H119185   4.719   0.353   4.008  1.3943  2.3980  1.0253
 6407TIP3    H219186   4.708   0.488   3.940  1.7614  1.2902 -1.3411
 6408TIP3   OH219187   1.586   2.755   5.816 -0.3561  0.4879  0.0179
 6408TIP3    H119188   1.674   2.795   5.818 -0.1353  0.1494 -1.7091
 6408TIP3    H219189   1.603   2.661   5.810 -0.8210  0.4502 -0.7921
 6409TIP3   OH219190   6.290   3.348   1.378 -0.1837  0.6048  0.1426
 6409TIP3    H119191   6.224   3.416   1.387 -1.4338 -0.5233 -0.1886
 6409TIP3    H219192   6.247   3.268   1.408  0.1403 -0.6488 -2.4494
 6410TIP3   OH219193   3.143   3.921   3.671  0.5195  0.3688 -0.1678
 6410TIP3    H119194   3.166   3.940   3.580  1.9797  2.4737  0.5873
 6410TIP3    H219195   3.059   3.874   3.664  0.1156  1.2668 -2.5413
 6411TIP3   OH219196   6.907   2.370   5.838 -0.4617  0.1134 -0.0714
 6411TIP3    H119197   6.835   2.346   5.897 -2.4112  0.8910 -1.9707
 6411TIP3    H219198   6.902   2.465   5.832  1.6124  0.3083  0.7320
 6412TIP3   OH219199   4.530   5.815   3.501  0.2696 -0.2163  0.5019
 6412TIP3    H119200   4.436   5.802   3.493  0.0585 -0.1000  2.3481
 6412TIP3    H219201   4.569   5.746   3.447 -0.8445  0.6499 -1.4995
 6413TIP3   OH219202   2.006   4.738   2.450  0.5868 -0.1083  0.2441
 6413TIP3    H119203   1.923   4.692   2.466  0.7589 -0.1681  0.9831
 6413TIP3    H219204   1.988   4.794   2.375 -0.6679  1.2432  1.5051
 6414TIP3   OH219205   6.456   0.207   1.425  0.6110  0.0648 -0.5035
 6414TIP3    H119206   6.395   0.197   1.498 -0.8634  0.5874 -1.6003
 6414TIP3    H219207   6.483   0.118   1.403  1.3093 -0.0786  0.8269
 6415TIP3   OH219208   5.838   5.586   1.871 -0.0395  0.0611  0.4278
 6415TIP3    H119209   5.889   5.667   1.873  1.5355 -0.8357 -1.1926
 6415TIP3    H219210   5.775   5.600   1.800  0.3622 -0.1946  0.0171
 6416TIP3   OH219211   1.226   5.803   4.676 -0.5237 -0.1463  0.0862
 6416TIP3    H119212   1.185   5.883   4.708  0.9476  0.9632 -0.6630
 6416TIP3    H219213   1.318   5.812   4.698 -0.3341 -1.6814  0.0430
 6417TIP3   OH219214   1.715   5.025   2.721  0.4094  0.2231  0.2118
 6417TIP3    H119215   1.779   5.065   2.780  1.7511 -0.6082 -0.6290
 6417TIP3    H219216   1.669   5.100   2.682 -0.0031  0.8025  1.7200
 6418TIP3   OH219217   3.285   4.831   4.508  0.0147 -0.3347  0.3313
 6418TIP3    H119218   3.353   4.883   4.551  1.0514 -0.4776 -1.0562
 6418TIP3    H219219   3.275   4.872   4.422  0.4641 -2.0718 -0.5916
 6419TIP3   OH219220   3.581   6.102   5.741 -0.4675 -0.0692  0.4073
 6419TIP3    H119221   3.513   6.118   5.676  0.1939 -1.3763 -0.6465
 6419TIP3    H219222   3.554   6.022   5.785  0.8514 -1.1851 -0.7168
 6420TIP3   OH219223   3.119   3.926   5.138  0.1184 -0.5239 -0.2331
 6420TIP3    H119224   3.173   3.955   5.064  3.3119 -1.7886  1.4481
 6420TIP3    H219225   3.181   3.904   5.207 -2.5571 -2.6136  1.7351
 6421TIP3   OH219226   5.247   6.210   0.453 -0.4542 -0.6751 -0.1291
 6421TIP3    H119227   5.214   6.126   0.485  0.0268 -1.3967 -1.4479
 6421TIP3    H219228   5.235   6.206   0.358 -0.2943  0.6973 -0.2290
 6422TIP3   OH219229   6.814   5.653   2.706 -0.3520  0.3287  0.2828
 6422TIP3    H119230   6.837   5.701   2.785 -2.3531  0.8001  0.6472
 6422TIP3    H219231   6.871   5.576   2.706  1.0676  1.3512  1.0912
 6423TIP3   OH219232   2.679   0.232   3.863 -0.1278  0.1448 -0.2187
 6423TIP3    H119233   2.649   0.211   3.951  0.7082 -1.8006 -0.3499
 6423TIP3    H219234   2.716   0.151   3.830 -0.5870  0.7789 -2.4589
 6424TIP3   OH219235   6.564   0.627   3.483  0.1238  0.0397 -0.3115
 6424TIP3    H119236   6.644   0.590   3.521 -0.3346 -1.3132 -0.5836
 6424TIP3    H219237   6.591   0.710   3.446  1.1546  0.1421  0.6072
 6425TIP3   OH219238   2.658   5.084   1.737  0.1613  0.6040  0.3229
 6425TIP3    H119239   2.571   5.118   1.755  0.1931  0.7538  0.1952
 6425TIP3    H219240   2.644   4.989   1.728 -0.1144  0.7058 -0.4153
 6426TIP3   OH219241   2.168   3.546   5.277  0.1118 -0.0389 -0.0527
 6426TIP3    H119242   2.231   3.599   5.227 -0.8330  0.3306 -0.8905
 6426TIP3    H219243   2.171   3.583   5.365  1.5146 -0.4331  0.0939
 6427TIP3   OH219244   0.191   3.013   4.150  0.3528  0.1541  0.5180
 6427TIP3    H119245   0.150   3.098   4.132 -0.5314 -0.4136 -0.2075
 6427TIP3    H219246   0.208   3.014   4.244 -0.7958  0.6384  0.7353
 6428TIP3   OH219247   5.385   0.672   1.741 -0.1725  0.1699  0.1268
 6428TIP3    H119248   5.361   0.645   1.830 -3.2810  1.9300 -0.0336
 6428TIP3    H219249   5.312   0.728   1.712  1.1348  0.3853 -3.2217
 6429TIP3   OH219250   4.152   6.418   3.677  0.0316  0.5493 -0.4067
 6429TIP3    H119251   4.211   6.358   3.723  0.1176  0.6487 -0.3865
 6429TIP3    H219252   4.080   6.362   3.647  0.4733  0.2889 -1.0304
 6430TIP3   OH219253   1.645   1.306   4.275 -0.0920  0.1830  0.2087
 6430TIP3    H119254   1.732   1.275   4.298  0.0008  1.4043  1.6096
 6430TIP3    H219255   1.593   1.226   4.264  0.4232 -0.5302  2.5979
 6431TIP3   OH219256   1.884   2.749   0.222 -0.3639 -0.2441 -0.3336
 6431TIP3    H119257   1.912   2.769   0.311  0.1179  3.7839 -1.2095
 6431TIP3    H219258   1.962   2.715   0.179  0.7209  2.0360 -0.2999
 6432TIP3   OH219259   1.015   3.923   2.368  0.3363  0.7106  0.0803
 6432TIP3    H119260   1.018   3.863   2.293 -0.4854 -0.4186  0.9005
 6432TIP3    H219261   1.017   4.010   2.329 -0.5958  0.1565 -1.3029
 6433TIP3   OH219262   2.623   6.195   1.036 -0.4855  0.0520  0.2039
 6433TIP3    H119263   2.703   6.191   0.983 -0.5370 -0.3172  0.1489
 6433TIP3    H219264   2.559   6.145   0.985 -0.3153 -0.9887  0.9942
 6434TIP3   OH219265   4.999   5.225   1.730  0.2211 -0.0627 -0.3665
 6434TIP3    H119266   4.937   5.202   1.799 -0.8360 -1.3288 -1.6717
 6434TIP3    H219267   4.979   5.316   1.709  0.6222  0.3705  1.0233
 6435TIP3   OH219268   1.495   0.660   0.224 -0.6509 -0.1908  0.3717
 6435TIP3    H119269   1.445   0.592   0.180  0.4008 -1.0278  0.4311
 6435TIP3    H219270   1.440   0.687   0.298 -2.0934  0.6869 -0.9615
 6436TIP3   OH219271   2.815   6.224   5.359  0.0542 -0.0095  0.3592
 6436TIP3    H119272   2.888   6.285   5.352  0.2136 -0.3608 -1.7791
 6436TIP3    H219273   2.813   6.199   5.451  0.2706  2.8088  1.2099
 6437TIP3   OH219274   2.479   2.510   4.089 -0.4557 -0.2050  0.7726
 6437TIP3    H119275   2.573   2.502   4.106 -0.4655 -2.1902  0.1679
 6437TIP3    H219276   2.440   2.436   4.135 -1.2141 -1.7922 -2.1255
 6438TIP3   OH219277   1.468   6.653   5.138 -0.0934 -0.5222 -0.1877
 6438TIP3    H119278   1.473   6.571   5.187  0.1500 -1.1385 -1.2086
 6438TIP3    H219279   1.505   6.719   5.198 -2.6070 -0.6197  1.6411
 6439TIP3   OH219280   6.885   2.447   4.812 -0.0826  0.0742  0.1788
 6439TIP3    H119281   6.831   2.406   4.744  0.1317  1.1243 -0.6538
 6439TIP3    H219282   6.822   2.473   4.879 -0.6302  1.1651 -0.7215
 6440TIP3   OH219283   2.408   1.233   1.177  0.0426  0.4170  0.3559
 6440TIP3    H119284   2.322   1.193   1.183  0.2298  0.1897  1.9513
 6440TIP3    H219285   2.391   1.325   1.158 -0.4860  0.1133 -0.6933
 6441TIP3   OH219286   1.946   1.819   2.472 -0.0025  0.0263  0.2113
 6441TIP3    H119287   2.012   1.758   2.439  1.0274  0.9120  0.5814
 6441TIP3    H219288   1.928   1.790   2.561 -2.0029 -1.7230 -0.6657
 6442TIP3   OH219289   1.032   4.096   4.433 -0.1932  0.3905 -0.6468
 6442TIP3    H119290   0.971   4.024   4.422  0.6794 -0.5279  0.2839
 6442TIP3    H219291   0.977   4.174   4.435 -1.4951 -0.4746  1.3004
 6443TIP3   OH219292   6.178   3.130   1.514  0.2395 -0.3919  0.3451
 6443TIP3    H119293   6.095   3.167   1.545  0.4171  0.6878 -0.4055
 6443TIP3    H219294   6.154   3.070   1.444  0.1262  0.7365 -0.6240
 6444TIP3   OH219295   0.031   0.146   0.926  0.6316  0.0708 -0.2283
 6444TIP3    H119296   0.096   0.126   0.859 -0.4237 -0.0540 -1.2511
 6444TIP3    H219297  -0.025   0.213   0.887 -0.0633 -0.0693  0.4887
 6445TIP3   OH219298   2.632   5.954   1.664 -0.3403  0.2968  0.2032
 6445TIP3    H119299   2.561   5.923   1.720  1.0905  0.3409  2.1662
 6445TIP3    H219300   2.652   5.880   1.608  0.2169 -0.9147  1.9173
 6446TIP3   OH219301   5.456   1.788   0.907 -0.8629  0.5320 -0.0052
 6446TIP3    H119302   5.506   1.775   0.987  2.2379 -0.1894 -1.9049
 6446TIP3    H219303   5.378   1.733   0.918 -0.5941  0.5621  2.5182
 6447TIP3   OH219304   3.609   0.401   1.757  0.3409 -0.2807  0.7982
 6447TIP3    H119305   3.658   0.327   1.794  1.0388 -0.3270 -0.1963
 6447TIP3    H219306   3.605   0.465   1.829  0.2742 -1.0201  1.4656
 6448TIP3   OH219307   0.304   0.095   3.511  0.2785  0.0700  0.1195
 6448TIP3    H119308   0.325   0.153   3.585  1.2766 -0.2509  0.1045
 6448TIP3    H219309   0.348   0.135   3.436 -1.3092  0.7866 -0.4987
 6449TIP3   OH219310   3.348   0.756   1.346  0.2824  0.6607 -0.1744
 6449TIP3    H119311   3.417   0.720   1.291  0.2088  3.3851 -2.2190
 6449TIP3    H219312   3.390   0.770   1.431  0.9933 -1.5975 -0.0878
 6450TIP3   OH219313   0.693   0.694   1.688  0.1108  0.5121 -0.6535
 6450TIP3    H119314   0.637   0.639   1.634 -1.4677  0.7224  0.6856
 6450TIP3    H219315   0.649   0.697   1.774  3.1451 -0.8637  1.0980
 6451TIP3   OH219316   1.581   3.005   1.265  0.0874 -0.0718 -0.0768
 6451TIP3    H119317   1.658   3.006   1.208 -0.6922 -0.6579 -1.1737
 6451TIP3    H219318   1.616   3.022   1.352  1.3367  0.6621 -0.6911
 6452TIP3   OH219319   2.872   0.573   0.382  0.2208  0.1712 -0.0639
 6452TIP3    H119320   2.878   0.555   0.475  1.1140  1.2074  0.1045
 6452TIP3    H219321   2.780   0.597   0.368 -0.0816 -0.6934  0.4029
 6453TIP3   OH219322   6.746   2.471   2.821 -0.1349 -0.4563  0.0969
 6453TIP3    H119323   6.656   2.493   2.844  0.1125  1.6014 -0.7205
 6453TIP3    H219324   6.791   2.555   2.815  1.4110 -1.3127 -1.2368
 6454TIP3   OH219325   3.755   0.568   2.943 -0.2365  0.6437  0.1517
 6454TIP3    H119326   3.701   0.636   2.985 -2.7240 -1.2137  0.1540
 6454TIP3    H219327   3.796   0.613   2.869 -2.8802  1.8870 -0.6700
 6455TIP3   OH219328   4.867   3.343   4.166  0.3708  0.0536  0.0170
 6455TIP3    H119329   4.869   3.251   4.191  0.8554 -0.3262 -1.3256
 6455TIP3    H219330   4.837   3.343   4.075  0.1945  1.2341  0.0553
 6456TIP3   OH219331   4.658   3.352   3.364  0.0207 -0.0027  0.3588
 6456TIP3    H119332   4.744   3.364   3.323  0.9183  0.4743  2.2891
 6456TIP3    H219333   4.657   3.415   3.436 -2.2906  0.5629 -0.0973
 6457TIP3   OH219334   1.287   5.026   0.198 -0.2163  0.1179 -0.1959
 6457TIP3    H119335   1.219   4.993   0.138 -1.5711 -1.9503  2.2682
 6457TIP3    H219336   1.369   5.006   0.154 -1.1555 -0.3865 -1.8071
 6458TIP3   OH219337   7.010   4.423   3.195 -0.0553  0.3130  0.3230
 6458TIP3    H119338   6.916   4.443   3.196 -0.0048  0.5663  1.1057
 6458TIP3    H219339   7.016   4.333   3.164 -0.4132  0.8994 -1.6050
 6459TIP3   OH219340   1.000   3.451   0.631  0.7568  0.4506  0.4190
 6459TIP3    H119341   0.988   3.420   0.721  0.5283  2.0078  0.9618
 6459TIP3    H219342   0.910   3.464   0.599  0.7721 -1.5867 -0.6345
 6460TIP3   OH219343   1.710   0.572   2.894  0.0830 -0.3557 -0.2213
 6460TIP3    H119344   1.747   0.522   2.967  1.6513  0.6917 -0.2552
 6460TIP3    H219345   1.617   0.581   2.916  0.1564 -1.6341  0.7159
 6461TIP3   OH219346   6.829   3.746   4.255  0.0198 -0.1560 -0.3469
 6461TIP3    H119347   6.827   3.657   4.290 -0.7417 -0.1222 -0.2913
 6461TIP3    H219348   6.737   3.767   4.239  0.2184  0.5281 -0.5993
 6462TIP3   OH219349   2.875   3.998   4.580 -0.4525 -0.3714  0.1619
 6462TIP3    H119350   2.895   3.915   4.623 -1.2258 -0.3128  0.6432
 6462TIP3    H219351   2.853   4.058   4.651  0.1976  0.2850 -0.1747
 6463TIP3   OH219352   5.982   2.901   3.638 -0.3541 -0.2335  0.4029
 6463TIP3    H119353   5.951   2.811   3.647  0.2142 -0.3931  0.8586
 6463TIP3    H219354   6.056   2.895   3.578 -0.0952 -0.1292  0.7077
 6464TIP3   OH219355   2.671   5.349   3.634 -0.1165  0.7436  1.0480
 6464TIP3    H119356   2.704   5.273   3.682  0.8799  1.0216  0.8227
 6464TIP3    H219357   2.750   5.398   3.610 -0.7198  1.6135  0.8038
 6465TIP3   OH219358   1.739   5.425   3.546 -0.0204  0.0892  0.4632
 6465TIP3    H119359   1.670   5.388   3.601 -3.9148  3.3225 -1.7496
 6465TIP3    H219360   1.770   5.501   3.595  1.0295 -0.5011  0.7653
 6466TIP3   OH219361   5.829   1.858   5.588  0.2131 -0.4022 -1.1235
 6466TIP3    H119362   5.920   1.872   5.562 -0.1394  0.8195 -1.7696
 6466TIP3    H219363   5.820   1.908   5.669  0.0917 -0.4723 -1.0936
 6467TIP3   OH219364   2.522   2.360   5.212  0.4429 -0.1053  0.0701
 6467TIP3    H119365   2.497   2.288   5.154  0.8950  0.0536 -0.3275
 6467TIP3    H219366   2.447   2.371   5.270 -0.5374  0.5402 -1.2667
 6468TIP3   OH219367   1.727   0.596   3.907  0.9881 -0.1842  0.0007
 6468TIP3    H119368   1.634   0.602   3.931  0.9006 -0.4926 -0.2520
 6468TIP3    H219369   1.771   0.570   3.988  1.0271  1.1964  0.4411
 6469TIP3   OH219370   0.372   5.376   5.188 -0.0798 -0.3876  0.1901
 6469TIP3    H119371   0.290   5.350   5.231 -0.5474  1.2119  0.3095
 6469TIP3    H219372   0.439   5.322   5.231 -0.8896 -0.7597  1.0243
 6470TIP3   OH219373   2.913   5.076   4.973 -0.3581 -0.5902  0.2615
 6470TIP3    H119374   2.904   5.161   4.928 -1.3483 -0.8892 -0.1196
 6470TIP3    H219375   2.979   5.093   5.041 -0.9213  0.6326  0.5408
 6471TIP3   OH219376   1.319   4.549   5.567 -0.0441 -0.0165 -0.3037
 6471TIP3    H119377   1.393   4.608   5.554  0.8115 -0.5095  1.8662
 6471TIP3    H219378   1.316   4.496   5.487  0.9070  1.1025 -1.1166
 6472TIP3   OH219379   1.207   2.051   2.514  0.1909 -0.3512 -0.0301
 6472TIP3    H119380   1.158   2.040   2.596  0.4887  2.0613  0.5317
 6472TIP3    H219381   1.287   2.096   2.539 -0.3369  1.7360 -1.7778
 6473TIP3   OH219382   5.171   4.710   4.757  0.0422  0.4385 -0.1578
 6473TIP3    H119383   5.158   4.620   4.785 -0.3369  0.8248  0.9684
 6473TIP3    H219384   5.147   4.710   4.664  0.4711 -0.6966 -0.2818
 6474TIP3   OH219385   0.203   1.260   3.572  0.2534  0.0658  1.2109
 6474TIP3    H119386   0.208   1.354   3.587  0.6566  0.1305  0.6904
 6474TIP3    H219387   0.249   1.246   3.489 -0.8486 -0.4361  0.6597
 6475TIP3   OH219388   1.460   5.887   4.972  0.0506  0.1648  0.4920
 6475TIP3    H119389   1.378   5.850   5.005  0.2948 -1.1041 -0.2426
 6475TIP3    H219390   1.526   5.857   5.034  0.5622 -2.5165 -1.1840
 6476TIP3   OH219391   6.976   2.642   0.066  0.5664 -0.7342 -0.1820
 6476TIP3    H119392   7.018   2.716   0.022  0.5620 -0.8891 -0.4495
 6476TIP3    H219393   6.932   2.595  -0.004  2.0335 -1.9998 -0.3174
 6477TIP3   OH219394   0.935   2.062   4.327 -0.7538 -0.1819  1.3895
 6477TIP3    H119395   0.877   2.133   4.354 -0.9627  0.6793 -1.0672
 6477TIP3    H219396   0.880   2.005   4.274  0.2435 -0.1546  0.2807
 6478TIP3   OH219397   3.707   5.357   1.346 -0.0706 -0.1273 -0.0430
 6478TIP3    H119398   3.698   5.445   1.310  0.4524 -0.7019 -1.7055
 6478TIP3    H219399   3.630   5.346   1.402  0.1415  1.5516  0.6332
 6479TIP3   OH219400   5.948   6.138   4.989 -0.3860  0.2236  0.2353
 6479TIP3    H119401   6.042   6.123   4.984 -0.5060 -0.4614 -0.0554
 6479TIP3    H219402   5.912   6.054   5.019 -0.7386  0.9950  2.1120
 6480TIP3   OH219403   3.612   0.925   2.679  0.5697  0.4722 -0.0295
 6480TIP3    H119404   3.570   0.843   2.651 -0.4846  0.9643  0.0369
 6480TIP3    H219405   3.560   0.954   2.754  2.4329 -0.0370  1.5140
 6481TIP3   OH219406   2.804   3.030   2.575 -0.1425 -0.1958  0.4902
 6481TIP3    H119407   2.716   3.048   2.543  0.5333  0.5527 -1.1011
 6481TIP3    H219408   2.810   2.934   2.575 -0.6534 -0.2393 -0.3159
 6482TIP3   OH219409   3.560   4.919   4.539  0.4412 -0.6610 -0.1622
 6482TIP3    H119410   3.536   5.002   4.580  1.1313 -1.0939  1.1974
 6482TIP3    H219411   3.577   4.942   4.448  1.7499  0.9441  0.4178
 6483TIP3   OH219412   2.021   6.675   0.609 -0.2896 -0.2403 -0.2046
 6483TIP3    H119413   1.939   6.723   0.597 -0.1042  0.1033 -0.0895
 6483TIP3    H219414   2.063   6.717   0.684 -0.3900 -0.9409  0.2558
 6484TIP3   OH219415   6.422   2.282   1.513  0.3194  0.5314 -0.2035
 6484TIP3    H119416   6.502   2.302   1.562 -0.5943 -0.1695  1.6660
 6484TIP3    H219417   6.401   2.192   1.536 -1.1261  0.7596 -0.4876
 6485TIP3   OH219418   2.393   1.237   3.710 -0.0505 -0.0726  0.2258
 6485TIP3    H119419   2.335   1.188   3.652 -0.9655  0.6991  0.4709
 6485TIP3    H219420   2.339   1.259   3.786  0.9231 -0.4350  1.0425
 6486TIP3   OH219421   1.938   6.618   4.278  0.2534  0.3907  0.2295
 6486TIP3    H119422   1.927   6.643   4.187  0.0571 -0.5992 -0.0244
 6486TIP3    H219423   1.849   6.612   4.312  0.3214  3.0471  1.1664
 6487TIP3   OH219424   4.104   6.492   5.498 -0.1036 -0.3193 -0.1756
 6487TIP3    H119425   4.189   6.473   5.537  0.7820  0.8371 -1.3966
 6487TIP3    H219426   4.078   6.576   5.536 -1.3267 -1.2550  1.1201
 6488TIP3   OH219427  -0.000   2.744   4.855  0.6592 -0.3087  0.3380
 6488TIP3    H119428   0.066   2.676   4.870  1.5237  0.6017  0.7918
 6488TIP3    H219429  -0.048   2.750   4.938  1.7387  0.8206  0.9152
 6489TIP3   OH219430   4.101   3.168   2.555  0.3484 -0.0180  0.2477
 6489TIP3    H119431   4.106   3.160   2.651 -0.8081 -2.1432  0.1919
 6489TIP3    H219432   4.193   3.167   2.527  0.7021 -2.3137  1.2216
 6490TIP3   OH219433   2.431   0.282   0.386  0.3721 -0.2389 -0.6899
 6490TIP3    H119434   2.507   0.227   0.366  1.1359  0.2930  0.6098
 6490TIP3    H219435   2.422   0.275   0.482 -0.4668  0.6752 -0.6951
 6491TIP3   OH219436   5.494   0.182   1.386  0.0376 -0.3967  0.1068
 6491TIP3    H119437   5.473   0.090   1.372 -0.6669 -0.1114 -0.8312
 6491TIP3    H219438   5.473   0.224   1.303  3.2479  0.1318 -0.5822
 6492TIP3   OH219439   1.655   4.904   1.220  0.6637 -0.7164 -0.0966
 6492TIP3    H119440   1.662   4.821   1.173  1.0424 -0.1135 -1.1325
 6492TIP3    H219441   1.746   4.932   1.233  0.5345  0.2907 -1.1658
 6493TIP3   OH219442   0.267   5.396   1.779  0.1085 -0.0583 -0.2981
 6493TIP3    H119443   0.329   5.323   1.772 -1.3139 -1.3801  0.1657
 6493TIP3    H219444   0.181   5.353   1.788 -0.8451  1.6955 -0.6288
 6494TIP3   OH219445   4.670   4.731   3.924  0.0230  0.2210 -0.5662
 6494TIP3    H119446   4.620   4.736   4.006  1.7397 -0.0623  0.5583
 6494TIP3    H219447   4.608   4.698   3.860 -0.7981 -1.9083  1.1879
 6495TIP3   OH219448   6.019   3.623   1.628  0.5957 -0.1835 -0.1467
 6495TIP3    H119449   6.070   3.631   1.709 -0.0799  0.8123  0.2090
 6495TIP3    H219450   5.983   3.711   1.615  1.2315 -0.1396 -1.9010
 6496TIP3   OH219451   3.056   3.339   5.409 -0.3003 -0.8308  0.5741
 6496TIP3    H119452   3.136   3.389   5.427 -1.6685  1.8156 -0.0403
 6496TIP3    H219453   3.086   3.259   5.366  2.0376 -0.3569  1.2021
 6497TIP3   OH219454   3.189   2.213   2.291  0.5541  0.0281  0.1714
 6497TIP3    H119455   3.184   2.162   2.210 -1.1509  2.6784 -1.5558
 6497TIP3    H219456   3.107   2.194   2.337 -0.4593  1.6502 -0.8608
 6498TIP3   OH219457   6.383   0.114   1.939  0.1529  0.1709  0.4280
 6498TIP3    H119458   6.464   0.123   1.990  1.1750  1.0145 -1.2801
 6498TIP3    H219459   6.409   0.069   1.859 -1.0475  0.5724 -0.2117
 6499TIP3   OH219460   0.469   5.785   5.449 -0.3463 -0.0786 -0.5328
 6499TIP3    H119461   0.374   5.770   5.446 -0.2144 -1.1174  0.0933
 6499TIP3    H219462   0.499   5.732   5.523  0.6080  0.8962 -0.2024
 6500TIP3   OH219463   6.234   3.022   4.192 -0.2376  0.3994 -0.7804
 6500TIP3    H119464   6.292   2.969   4.247 -1.0370 -1.1387 -1.3781
 6500TIP3    H219465   6.146   2.994   4.216 -0.8400  2.9399  0.3624
 6501TIP3   OH219466   5.726   6.139   5.799 -0.0625 -0.2047  0.0984
 6501TIP3    H119467   5.636   6.135   5.833 -0.6604 -0.8656 -1.4397
 6501TIP3    H219468   5.746   6.232   5.794 -0.6867 -0.0466  0.3890
 6502TIP3   OH219469   6.889   2.523   0.295  0.4284 -0.0400  0.4457
 6502TIP3    H119470   6.903   2.430   0.278  1.8700  0.1781  0.3154
 6502TIP3    H219471   6.925   2.568   0.219 -1.6106  0.6069 -0.2052
 6503TIP3   OH219472   3.254   5.996   4.278  0.2615  0.3555 -0.2027
 6503TIP3    H119473   3.193   5.991   4.205 -1.1579 -0.7189  0.9864
 6503TIP3    H219474   3.287   6.086   4.276 -2.5286  1.4717 -0.0066
 6504TIP3   OH219475   5.491   0.829   2.730 -0.6947 -0.9269 -0.0729
 6504TIP3    H119476   5.515   0.889   2.660 -0.3918 -1.8614 -0.7905
 6504TIP3    H219477   5.451   0.885   2.797  1.9764  0.4998  0.4729
 6505TIP3   OH219478   2.053   5.899   0.645  0.1416 -0.3747  0.0144
 6505TIP3    H119479   1.987   5.846   0.690 -1.1586 -0.1116 -1.5271
 6505TIP3    H219480   2.111   5.835   0.604  0.1550 -0.6018  0.3839
 6506TIP3   OH219481   6.790   5.481   1.621 -0.3851  0.0966 -0.4234
 6506TIP3    H119482   6.821   5.455   1.708  0.5995 -0.1929 -0.8505
 6506TIP3    H219483   6.757   5.570   1.633  0.0487  0.1834  0.1776
 6507TIP3   OH219484   4.123   1.168   5.420 -0.4759 -0.1673  0.5338
 6507TIP3    H119485   4.189   1.099   5.420  0.3695  0.6089 -0.3405
 6507TIP3    H219486   4.085   1.166   5.332 -0.8701  0.0900  0.6948
 6508TIP3   OH219487   2.035   2.073   2.828 -0.2644 -0.1542 -0.1864
 6508TIP3    H119488   1.973   2.146   2.825 -0.4333 -0.3244 -1.5336
 6508TIP3    H219489   2.046   2.047   2.736 -0.5114 -2.0624  0.2747
 6509TIP3   OH219490   0.856   5.073   5.277  0.3430 -0.2968 -0.0902
 6509TIP3    H119491   0.887   4.996   5.230 -1.1485 -0.2095 -1.3139
 6509TIP3    H219492   0.930   5.133   5.277  1.4290 -1.5691  0.6147
 6510TIP3   OH219493   5.137   1.493   1.646  0.2400  0.2271  0.0177
 6510TIP3    H119494   5.218   1.441   1.646 -0.0351 -0.2083  0.5465
 6510TIP3    H219495   5.143   1.546   1.567  0.5449 -0.5891 -0.5191
 6511TIP3   OH219496   3.803   3.553   2.391  0.0645  0.5779  0.4742
 6511TIP3    H119497   3.832   3.462   2.386 -0.6257  0.3451  0.5413
 6511TIP3    H219498   3.718   3.548   2.435  0.6283  1.3858  1.6950
 6512TIP3   OH219499   3.248   2.075   3.084 -0.3201 -0.2458 -0.8212
 6512TIP3    H119500   3.325   2.057   3.138 -2.1427  0.8397  2.4381
 6512TIP3    H219501   3.254   2.169   3.063 -1.5475  0.3265  1.0789
 6513TIP3   OH219502   4.545   5.118   1.058 -0.1104 -0.2163 -0.7019
 6513TIP3    H119503   4.474   5.180   1.039 -0.8409  0.2100  2.7242
 6513TIP3    H219504   4.604   5.165   1.116  1.4070 -1.5357 -1.0972
 6514TIP3   OH219505   3.532   6.235   0.515  0.0224 -0.1937  0.2520
 6514TIP3    H119506   3.463   6.300   0.529  0.8438  0.7463  0.0504
 6514TIP3    H219507   3.499   6.180   0.444 -0.7054 -0.0390  0.4614
 6515TIP3   OH219508   1.973   2.857   3.554  0.7941  0.4496 -0.3236
 6515TIP3    H119509   1.892   2.806   3.556  1.2017 -0.2134 -0.5833
 6515TIP3    H219510   1.944   2.947   3.540 -0.0755  0.6034  1.9878
 6516TIP3   OH219511   1.775   2.596   2.514 -0.0056 -0.3369 -0.4531
 6516TIP3    H119512   1.802   2.688   2.510  0.9344 -0.5653  0.0511
 6516TIP3    H219513   1.823   2.554   2.443  0.5639 -0.6550  0.1086
 6517TIP3   OH219514   0.423   0.164   2.953  0.1292  0.2801 -0.5935
 6517TIP3    H119515   0.371   0.124   2.883 -2.6865  0.7665  1.0492
 6517TIP3    H219516   0.470   0.090   2.993 -3.0557 -1.1609  0.8235
 6518TIP3   OH219517   5.882   4.519   3.875 -0.1387 -0.1066 -0.4550
 6518TIP3    H119518   5.811   4.455   3.880  1.4548 -2.1544 -1.8904
 6518TIP3    H219519   5.857   4.577   3.803  0.3535 -1.8617 -2.1164
 6519TIP3   OH219520   5.344   6.445   4.398  0.7788  0.0586  0.6413
 6519TIP3    H119521   5.324   6.527   4.353 -3.1837  0.2503  2.3310
 6519TIP3    H219522   5.367   6.472   4.487  0.5396 -0.6032  0.9062
 6520TIP3   OH219523   0.503   1.227   5.502  0.1956 -0.7646 -0.3647
 6520TIP3    H119524   0.476   1.316   5.479 -1.1311 -1.0439  0.0149
 6520TIP3    H219525   0.551   1.236   5.584 -2.3888 -0.6351  1.2553
 6521TIP3   OH219526   3.663   5.706   5.027  0.1144 -0.0052  0.3940
 6521TIP3    H119527   3.728   5.773   5.005 -1.1832  1.1782  0.0517
 6521TIP3    H219528   3.681   5.635   4.966 -0.4301  1.3089 -1.3580
 6522TIP3   OH219529   0.028   5.104   3.948  0.1288  0.3250 -0.4200
 6522TIP3    H119530  -0.026   5.057   3.884 -1.0995 -0.2763  1.0050
 6522TIP3    H219531   0.085   5.036   3.986 -0.5691  0.2526  0.5396
 6523TIP3   OH219532   0.737   2.529   5.655  0.6063 -0.0081  0.2139
 6523TIP3    H119533   0.764   2.486   5.736 -0.6191  0.4488  0.8949
 6523TIP3    H219534   0.719   2.619   5.681 -0.6087 -0.0567 -0.3796
 6524TIP3   OH219535   4.477   0.405   5.209  0.0260  0.3488 -0.2636
 6524TIP3    H119536   4.457   0.352   5.285  0.0717 -0.0554 -0.5329
 6524TIP3    H219537   4.531   0.349   5.153 -0.2352  0.5438 -0.7225
 6525TIP3   OH219538   5.492   2.748   1.925  0.2367  0.1817  0.4477
 6525TIP3    H119539   5.411   2.734   1.976 -1.5291 -1.1031 -2.4645
 6525TIP3    H219540   5.562   2.743   1.990 -1.7408 -2.5508  2.6134
 6526TIP3   OH219541   3.597   4.766   3.649 -0.5944 -0.3535 -0.2432
 6526TIP3    H119542   3.687   4.778   3.678 -0.6473 -0.9573  0.1793
 6526TIP3    H219543   3.599   4.787   3.556 -0.2341  0.6857 -0.0177
 6527TIP3   OH219544   4.598   2.594   1.138  0.6496 -0.4700 -0.5416
 6527TIP3    H119545   4.557   2.648   1.206 -0.8858 -0.8308 -1.1341
 6527TIP3    H219546   4.659   2.538   1.185  0.5406  0.1656  0.3765
 6528TIP3   OH219547   1.617   2.097   3.774  0.4803  0.1603 -0.3496
 6528TIP3    H119548   1.700   2.080   3.819  1.3068  2.7231 -0.7120
 6528TIP3    H219549   1.630   2.060   3.687  1.0382  0.0359 -0.2210
 6529TIP3   OH219550   4.665   4.259   4.014 -0.8734  0.1199 -0.0183
 6529TIP3    H119551   4.622   4.312   3.946 -1.0202 -0.3337 -0.2798
 6529TIP3    H219552   4.607   4.184   4.027  0.6241 -1.4236 -1.6147
 6530TIP3   OH219553   1.015   0.565   4.777  0.7143  0.2479  0.0186
 6530TIP3    H119554   1.081   0.557   4.846 -0.3506  0.0908  1.0624
 6530TIP3    H219555   1.051   0.629   4.716  1.8105  0.1862  0.5856
 6531TIP3   OH219556   5.571   4.561   5.147  0.2690  0.6606  0.2126
 6531TIP3    H119557   5.526   4.597   5.224 -1.8406  1.4076 -1.2597
 6531TIP3    H219558   5.504   4.508   5.104  1.5779 -0.2023 -0.8308
 6532TIP3   OH219559   2.963   0.124   4.247  0.4606 -0.1579 -0.3958
 6532TIP3    H119560   2.872   0.150   4.264  0.3550  0.4715 -1.7851
 6532TIP3    H219561   3.011   0.151   4.325 -0.6632 -1.1857  0.6850
 6533TIP3   OH219562   3.291   4.659   5.480 -0.2227  0.3707  0.3222
 6533TIP3    H119563   3.206   4.676   5.520 -0.3275  0.9298 -0.1229
 6533TIP3    H219564   3.348   4.634   5.552 -1.2817 -2.0919  0.3897
 6534TIP3   OH219565   4.288   6.501   5.711  0.4334 -0.2981 -0.5712
 6534TIP3    H119566   4.380   6.489   5.736  1.4020  0.4864 -3.3457
 6534TIP3    H219567   4.252   6.559   5.778  2.1805 -0.0418  0.1914
 6535TIP3   OH219568   3.373   3.505   5.800  0.0824 -0.1580 -0.0174
 6535TIP3    H119569   3.378   3.415   5.768  0.0225  0.2175 -1.1160
 6535TIP3    H219570   3.465   3.534   5.804  0.0766 -0.1377 -0.0323
 6536TIP3   OH219571   2.478   3.697   2.117  0.5668  0.5042 -0.1056
 6536TIP3    H119572   2.457   3.654   2.034 -1.2923  0.5595  0.2933
 6536TIP3    H219573   2.424   3.776   2.117  1.0640  0.8619  0.8705
 6537TIP3   OH219574   2.513   4.629   1.407  0.3732  0.0637 -0.1398
 6537TIP3    H119575   2.528   4.542   1.444 -0.7226 -0.0574  0.0730
 6537TIP3    H219576   2.453   4.671   1.469  0.9148  0.9847 -0.2259
 6538TIP3   OH219577   4.080   2.501   5.667  0.0929  0.1564  0.0463
 6538TIP3    H119578   4.174   2.495   5.649  0.3090  0.7558  0.9332
 6538TIP3    H219579   4.041   2.436   5.609  1.0634 -0.1831 -0.2505
 6539TIP3   OH219580   2.824   4.153   4.783  0.1578 -0.0672  0.0827
 6539TIP3    H119581   2.752   4.124   4.840 -0.6069  0.3974 -0.6234
 6539TIP3    H219582   2.873   4.216   4.836 -0.0913 -0.2165  0.4955
 6540TIP3   OH219583   1.680   0.615   3.241  0.6200 -0.4961 -0.2392
 6540TIP3    H119584   1.698   0.526   3.211  1.2607 -0.1042 -1.0703
 6540TIP3    H219585   1.757   0.638   3.295  0.8560 -0.1557 -0.7134
 6541TIP3   OH219586   1.066   4.652   5.237  0.1359  0.2754  0.8086
 6541TIP3    H119587   0.980   4.654   5.280 -0.9925  0.4471 -1.3243
 6541TIP3    H219588   1.050   4.608   5.154  1.6266  2.2478 -0.6295
 6542TIP3   OH219589   3.675   4.920   5.207 -0.5242 -0.3737  0.7303
 6542TIP3    H119590   3.621   4.884   5.278  0.1108 -1.6147  0.6167
 6542TIP3    H219591   3.710   4.843   5.163  0.6961  0.4037  0.3018
 6543TIP3   OH219592   3.456   5.376   1.487 -0.0707 -0.6083  0.6587
 6543TIP3    H119593   3.461   5.380   1.583  0.6248 -2.5272  0.7485
 6543TIP3    H219594   3.376   5.326   1.469  0.2809 -1.0559  0.2918
 6544TIP3   OH219595   2.858   4.963   2.150 -0.0207  0.0121 -0.2956
 6544TIP3    H119596   2.929   5.022   2.126 -0.0877  0.8287  1.3543
 6544TIP3    H219597   2.785   5.021   2.173 -1.5117 -0.8023 -2.6165
 6545TIP3   OH219598   4.788   4.156   3.060  0.1140  0.1369  0.2936
 6545TIP3    H119599   4.709   4.135   3.110  0.5344 -2.2161  0.0993
 6545TIP3    H219600   4.845   4.201   3.122 -0.8255  0.6063  0.8371
 6546TIP3   OH219601   0.010   2.873   2.313 -0.2364 -0.8414 -0.3818
 6546TIP3    H119602   0.005   2.822   2.232  1.9719  1.0868 -1.8889
 6546TIP3    H219603  -0.002   2.964   2.284  1.3303 -0.0340  1.2999
 6547TIP3   OH219604   5.084   0.833   3.225  0.1507 -0.2721 -0.0862
 6547TIP3    H119605   5.064   0.760   3.166  0.7636 -1.6707  1.3530
 6547TIP3    H219606   4.999   0.871   3.246 -0.0458  0.6335 -2.2546
 6548TIP3   OH219607   2.826   5.297   1.233  0.1550  0.2041 -0.2191
 6548TIP3    H119608   2.804   5.215   1.189 -0.1480  0.9772 -1.5502
 6548TIP3    H219609   2.884   5.343   1.172  0.8393  0.7115  0.7798
 6549TIP3   OH219610   1.591   5.386   3.783  0.5563 -0.2641 -0.0804
 6549TIP3    H119611   1.540   5.324   3.835 -2.0013  0.1502 -1.9417
 6549TIP3    H219612   1.663   5.411   3.841 -0.3848 -2.1528  2.0727
 6550TIP3   OH219613   6.505   6.780   3.028  0.2468  0.7288  0.4306
 6550TIP3    H119614   6.482   6.787   3.121  1.6792 -2.4806  1.1916
 6550TIP3    H219615   6.425   6.750   2.986  0.3270 -0.7265  1.2395
 6551TIP3   OH219616   0.035   4.410   1.979  1.0669  0.0186  0.1399
 6551TIP3    H119617  -0.011   4.327   1.964  0.2342  0.5810 -0.5158
 6551TIP3    H219618   0.083   4.396   2.060 -0.4219 -0.5473  0.9735
 6552TIP3   OH219619   6.717   3.310   0.973  0.2523  0.0996  0.3669
 6552TIP3    H119620   6.743   3.368   0.902 -1.3434 -0.5688 -0.8406
 6552TIP3    H219621   6.629   3.338   0.997 -0.0375 -0.9823  0.6607
 6553TIP3   OH219622   0.556   5.963   1.195 -0.0605  0.5855 -0.1830
 6553TIP3    H119623   0.556   6.041   1.250  0.5501 -0.6078  1.6139
 6553TIP3    H219624   0.607   5.987   1.117  2.3556  1.2434  1.4901
 6554TIP3   OH219625   3.122   3.000   2.727  0.3619 -0.1212  0.2898
 6554TIP3    H119626   3.091   2.969   2.642  0.0978  0.7517  0.0482
 6554TIP3    H219627   3.142   2.921   2.777  1.2368 -0.6347 -0.8516
 6555TIP3   OH219628   5.686   5.065   0.868 -0.1249  0.2847  0.3598
 6555TIP3    H119629   5.756   5.096   0.924  1.9606  0.8447 -2.3538
 6555TIP3    H219630   5.649   5.144   0.828 -0.0425 -0.2122 -0.7312
 6556TIP3   OH219631   3.682   0.673   4.285  0.0490  0.6193  0.5108
 6556TIP3    H119632   3.776   0.688   4.289  0.0338  0.6570  0.7251
 6556TIP3    H219633   3.673   0.586   4.244  0.1372  1.1784 -0.7569
 6557TIP3   OH219634   5.330   1.478   4.187  0.2340  0.2151 -0.3223
 6557TIP3    H119635   5.320   1.461   4.281 -1.7015 -2.3191 -0.8732
 6557TIP3    H219636   5.413   1.437   4.164  0.8639  1.1082  0.3047
 6558TIP3   OH219637   0.172   5.474   0.974 -0.1828  0.2354  0.3704
 6558TIP3    H119638   0.203   5.494   0.886  1.2605  0.0875  0.8219
 6558TIP3    H219639   0.161   5.379   0.975  1.8965 -0.0504  0.9502
 6559TIP3   OH219640   2.292   6.769   5.842 -0.1797  0.0292 -0.2982
 6559TIP3    H119641   2.296   6.757   5.937 -2.0919  0.8287 -0.0667
 6559TIP3    H219642   2.294   6.864   5.830 -0.2561 -0.0557 -1.0441
 6560TIP3   OH219643   4.558   5.068   3.970 -0.8300 -0.8045 -0.0533
 6560TIP3    H119644   4.483   5.124   3.990  0.4409  0.7222  0.6307
 6560TIP3    H219645   4.604   5.060   4.054  0.4003 -0.7628 -0.7113
 6561TIP3   OH219646   6.235   4.582   0.897 -0.2570  0.5855  0.1965
 6561TIP3    H119647   6.325   4.613   0.900  0.4119 -1.2862  0.6181
 6561TIP3    H219648   6.194   4.635   0.829  0.8448  2.2136  0.7520
 6562TIP3   OH219649   5.392   5.907   3.625  0.4072 -0.1386  0.1554
 6562TIP3    H119650   5.422   5.993   3.656 -0.7070 -0.8113  3.4741
 6562TIP3    H219651   5.460   5.847   3.655  0.3463 -0.6443 -0.6891
 6563TIP3   OH219652   4.893   2.436   0.523 -0.0121  0.2962 -0.2141
 6563TIP3    H119653   4.980   2.397   0.525 -0.2140 -0.1332  1.2876
 6563TIP3    H219654   4.840   2.380   0.580 -1.4290  0.2336 -1.5055
 6564TIP3   OH219655   4.289   3.231   5.200  0.6632  0.2018  0.2113
 6564TIP3    H119656   4.278   3.326   5.201  0.7644  0.2178 -0.0718
 6564TIP3    H219657   4.319   3.211   5.112  0.1768 -0.1474  0.1150
 6565TIP3   OH219658   6.883   4.782   2.862  0.0076  0.7292 -0.0919
 6565TIP3    H119659   6.826   4.823   2.796  1.6972  1.2912 -1.2922
 6565TIP3    H219660   6.865   4.830   2.943 -2.4516 -0.2806  0.0250
 6566TIP3   OH219661   4.415   0.743   0.934 -0.2117  0.1554  0.0981
 6566TIP3    H119662   4.351   0.814   0.931  0.1704  0.5875  1.2612
 6566TIP3    H219663   4.422   0.711   0.844 -1.6041  0.4986 -0.1452
 6567TIP3   OH219664   6.750   5.169   3.670 -0.0034  0.6808 -0.0232
 6567TIP3    H119665   6.661   5.157   3.703  0.1937  3.0023  1.6423
 6567TIP3    H219666   6.739   5.187   3.577 -1.3499  1.5999  0.2808
 6568TIP3   OH219667   5.196   0.109   1.010  0.0369 -0.1748 -0.2561
 6568TIP3    H119668   5.157   0.024   1.032 -0.5831 -0.1747 -1.2729
 6568TIP3    H219669   5.195   0.111   0.914  0.3944  0.8254 -0.2449
 6569TIP3   OH219670   1.877   2.111   1.269  0.3383 -0.0585 -0.1315
 6569TIP3    H119671   1.961   2.101   1.314  0.7598  0.0633 -0.8807
 6569TIP3    H219672   1.864   2.029   1.222  0.3374  0.1565 -0.5123
 6570TIP3   OH219673   1.262   1.868   0.309 -0.2432  0.0939  0.3763
 6570TIP3    H119674   1.330   1.920   0.266  1.0152 -1.9932 -0.3395
 6570TIP3    H219675   1.252   1.908   0.395  2.0581  0.4142  0.5790
 6571TIP3   OH219676   7.031   1.661   0.360  0.3343 -0.0021  0.1770
 6571TIP3    H119677   7.120   1.666   0.325  0.6941  0.7145  1.1489
 6571TIP3    H219678   6.977   1.705   0.294  0.8231  0.3134 -0.0189
 6572TIP3   OH219679   7.118   5.984   3.124 -0.4941 -0.9331 -0.4524
 6572TIP3    H119680   7.070   5.987   3.207  2.3521 -1.1975  1.3847
 6572TIP3    H219681   7.137   6.076   3.104  0.7099 -0.9381  0.4973
 6573TIP3   OH219682   5.248   1.140   4.338  0.2523 -0.1787  0.8083
 6573TIP3    H119683   5.177   1.075   4.336  0.1620 -0.0609 -0.3404
 6573TIP3    H219684   5.216   1.209   4.397 -0.9910  0.3176 -0.4074
 6574TIP3   OH219685   2.913   2.068   1.933 -0.5485  0.0900  0.0733
 6574TIP3    H119686   2.909   1.973   1.924 -2.2105  0.1293  0.1018
 6574TIP3    H219687   2.824   2.098   1.912 -0.3323  1.5400  1.0609
 6575TIP3   OH219688   2.239   4.103   3.124  0.0252 -0.1884  0.0842
 6575TIP3    H119689   2.321   4.150   3.108 -0.3154  0.8531  1.1666
 6575TIP3    H219690   2.266   4.016   3.153  0.8374  0.5463  1.7018
 6576TIP3   OH219691   5.927   5.214   3.356 -0.4266  0.1360 -0.0016
 6576TIP3    H119692   5.992   5.283   3.365  0.3015 -0.2920 -1.7307
 6576TIP3    H219693   5.856   5.255   3.306 -0.6735  0.0611  0.2841
 6577TIP3   OH219694   0.830   1.008   3.132  0.0219 -0.2179  0.0737
 6577TIP3    H119695   0.758   1.060   3.096 -0.3886 -1.7499 -1.4356
 6577TIP3    H219696   0.797   0.976   3.216 -0.9365 -0.5875 -0.4282
 6578TIP3   OH219697   5.738   5.593   0.325 -0.1232  0.2991 -0.4015
 6578TIP3    H119698   5.695   5.678   0.315 -0.6844 -0.1550 -2.2017
 6578TIP3    H219699   5.829   5.615   0.346 -0.4641  1.3229  0.0748
 6579TIP3   OH219700   0.548   3.053   5.156 -0.4146 -0.7091  0.0190
 6579TIP3    H119701   0.477   3.108   5.187  0.0280 -0.0673 -0.0820
 6579TIP3    H219702   0.585   3.014   5.235  1.6701  2.0849  0.5559
 6580TIP3   OH219703   4.864   4.976   4.531 -0.9656 -0.0327 -0.6129
 6580TIP3    H119704   4.892   4.928   4.609 -2.0713  0.6588  0.2462
 6580TIP3    H219705   4.774   4.947   4.516 -1.4966  1.3951 -0.3505
 6581TIP3   OH219706   1.060   3.470   3.964 -0.1554  0.0882  0.2588
 6581TIP3    H119707   1.082   3.432   4.049  0.2425  0.1991  0.2093
 6581TIP3    H219708   0.965   3.481   3.966 -0.2393 -0.6084  0.3936
 6582TIP3   OH219709   6.901   2.714   2.192  0.5874 -0.0629  0.0620
 6582TIP3    H119710   6.811   2.687   2.207  1.2136 -2.2667  0.1700
 6582TIP3    H219711   6.897   2.769   2.114 -0.9332  0.5366  0.5367
 6583TIP3   OH219712   0.687   2.723   4.945 -0.0126  0.2317  0.0273
 6583TIP3    H119713   0.722   2.684   4.865 -1.1481 -0.8326  0.0156
 6583TIP3    H219714   0.741   2.687   5.016  1.9112  2.2570 -0.3071
 6584TIP3   OH219715   6.517   5.200   0.043 -0.4548  0.0476  0.4156
 6584TIP3    H119716   6.520   5.115  -0.000  0.0173  0.4844 -0.4375
 6584TIP3    H219717   6.607   5.214   0.074  0.3510  1.6522 -2.3176
 6585TIP3   OH219718   0.894   6.779   2.805 -0.0720 -0.3979  0.1943
 6585TIP3    H119719   0.974   6.738   2.770  0.1147 -0.5049  0.7254
 6585TIP3    H219720   0.921   6.867   2.829  0.5899 -1.2037  2.7411
 6586TIP3   OH219721   1.418   5.621   0.714  0.4062 -0.3013 -0.1837
 6586TIP3    H119722   1.456   5.567   0.643 -0.5843  1.4759 -2.1655
 6586TIP3    H219723   1.332   5.647   0.681  0.2389  1.2468  1.3559
 6587TIP3   OH219724   0.283   5.371   0.210 -0.1086 -0.7468 -0.3440
 6587TIP3    H119725   0.315   5.395   0.123 -1.8730  0.2959 -0.7492
 6587TIP3    H219726   0.232   5.292   0.196 -2.8255  0.9749 -0.8560
 6588TIP3   OH219727   7.166   5.787   2.474 -0.1938  0.8000 -0.2374
 6588TIP3    H119728   7.229   5.719   2.450 -1.7561 -1.6275  2.0102
 6588TIP3    H219729   7.130   5.818   2.391  1.7294  0.0529 -1.3887
 6589TIP3   OH219730   4.305   5.477   4.397 -0.0987  0.0561 -0.0253
 6589TIP3    H119731   4.369   5.483   4.468 -0.0550  0.7488 -0.1138
 6589TIP3    H219732   4.248   5.404   4.422  0.0612  0.1371  0.5987
 6590TIP3   OH219733   2.364   0.615   0.604  0.0715 -0.0568 -0.2894
 6590TIP3    H119734   2.389   0.695   0.557  1.6301 -0.8663 -0.8982
 6590TIP3    H219735   2.396   0.630   0.694  1.9833 -0.6569 -0.8149
 6591TIP3   OH219736   4.408   4.731   5.680 -0.2518  0.5538 -0.1821
 6591TIP3    H119737   4.447   4.668   5.740  0.0537  0.4472 -0.4868
 6591TIP3    H219738   4.348   4.679   5.627 -1.8536  0.9434  1.1703
 6592TIP3   OH219739   4.937   4.897   3.138  0.5738  0.2134  0.6996
 6592TIP3    H119740   4.853   4.853   3.144  0.8075 -0.5552 -1.1482
 6592TIP3    H219741   4.931   4.969   3.201 -0.9321 -0.6479  1.5820
 6593TIP3   OH219742   4.342   4.499   4.170  0.1991  0.4321 -0.6114
 6593TIP3    H119743   4.250   4.524   4.178  0.6030  1.7267  0.4001
 6593TIP3    H219744   4.343   4.432   4.102 -1.4811  0.4067 -0.6576
 6594TIP3   OH219745   5.465   1.807   1.277  0.0772 -0.9325  0.8086
 6594TIP3    H119746   5.559   1.824   1.270  0.5273 -2.6155  2.1137
 6594TIP3    H219747   5.428   1.892   1.299  1.4220 -0.4026  1.1577
 6595TIP3   OH219748   2.370   4.637   3.279  0.2657 -0.0978 -0.0731
 6595TIP3    H119749   2.396   4.607   3.192 -2.6058 -3.2672 -0.0664
 6595TIP3    H219750   2.335   4.725   3.265 -1.5399 -1.0764 -2.5390
 6596TIP3   OH219751   4.407   4.704   4.850  0.3831 -0.2293 -0.0241
 6596TIP3    H119752   4.422   4.609   4.852  1.0694 -0.1370  2.1714
 6596TIP3    H219753   4.368   4.723   4.936 -2.0491  1.1721 -1.3234
 6597TIP3   OH219754   3.809   4.976   3.960 -0.2849  0.3036  0.2428
 6597TIP3    H119755   3.764   4.908   4.011  0.5209 -1.1636 -0.9162
 6597TIP3    H219756   3.895   4.984   4.001  1.0797 -2.2253 -1.8395
 6598TIP3   OH219757   5.620   2.496   3.867 -0.1616 -0.4157  0.1404
 6598TIP3    H119758   5.620   2.415   3.815 -0.8552 -0.8730  0.8232
 6598TIP3    H219759   5.672   2.473   3.944 -0.9309 -0.4366  0.6600
 6599TIP3   OH219760   7.043   4.393   1.349 -0.6297  0.0382 -0.0700
 6599TIP3    H119761   7.056   4.385   1.255 -0.1117  0.8475 -0.0831
 6599TIP3    H219762   6.956   4.358   1.365 -0.4270 -0.7968 -0.7408
 6600TIP3   OH219763   3.752   3.936   0.836  0.0906  0.1056 -0.8260
 6600TIP3    H119764   3.823   3.983   0.879  0.1496 -2.3119  1.9944
 6600TIP3    H219765   3.795   3.863   0.792 -0.5237 -0.6777 -0.1399
 6601TIP3   OH219766   7.052   0.309   3.032  0.2321  0.2015  0.0602
 6601TIP3    H119767   7.124   0.247   3.021  0.3459  0.3439 -0.0081
 6601TIP3    H219768   6.996   0.269   3.099  0.4864  0.1903  0.2698
 6602TIP3   OH219769   3.036   6.596   1.661  0.0156  0.0109  0.6714
 6602TIP3    H119770   3.106   6.628   1.604 -0.6017  1.5155  0.7134
 6602TIP3    H219771   2.962   6.654   1.642 -1.7290 -2.4036 -0.4177
 6603TIP3   OH219772   7.125   5.868   5.454  0.0560  0.5028 -0.4024
 6603TIP3    H119773   7.041   5.823   5.449  0.5874 -0.4279 -1.5190
 6603TIP3    H219774   7.155   5.873   5.363  1.9568 -0.7071  0.0933
 6604TIP3   OH219775   1.323   3.922   3.530  0.0032  0.4777  0.1656
 6604TIP3    H119776   1.413   3.937   3.501 -0.3855  1.1927 -0.7187
 6604TIP3    H219777   1.280   3.882   3.455 -0.7757  1.4375  0.0892
 6605TIP3   OH219778   0.142   6.457   2.180  0.0980  0.6106 -0.5667
 6605TIP3    H119779   0.192   6.393   2.129  0.6795 -0.5505  1.3626
 6605TIP3    H219780   0.163   6.541   2.141  0.1441 -0.2568 -2.5126
 6606TIP3   OH219781   6.172   2.040   1.351 -0.2384  0.6650  0.0086
 6606TIP3    H119782   6.244   2.016   1.409 -1.7799 -1.0155  1.3396
 6606TIP3    H219783   6.206   2.023   1.263  0.7594 -0.8427  0.6398
 6607TIP3   OH219784   2.354   4.211   0.931  0.3021  0.0438  0.1498
 6607TIP3    H119785   2.347   4.241   1.022 -1.8959  0.8147 -0.2181
 6607TIP3    H219786   2.317   4.283   0.879  2.0922 -0.1200 -1.4384
 6608TIP3   OH219787   3.257   3.792   1.532 -0.1728  0.5316 -0.4080
 6608TIP3    H119788   3.348   3.819   1.519 -0.0456 -0.3930 -1.6321
 6608TIP3    H219789   3.263   3.707   1.574 -0.5108  0.9248  0.4625
 6609TIP3   OH219790   7.036   0.545   1.471 -0.0456  0.2640 -0.4206
 6609TIP3    H119791   6.961   0.497   1.438 -0.1315  0.5950 -0.7082
 6609TIP3    H219792   7.112   0.491   1.446 -0.1757 -0.0298 -0.1968
 6610TIP3   OH219793   5.724   3.711   3.010 -0.7246  0.1194 -0.9752
 6610TIP3    H119794   5.755   3.801   3.008  2.1219 -0.6803  1.2699
 6610TIP3    H219795   5.751   3.674   2.925 -1.5829  1.2112 -1.7538
 6611TIP3   OH219796   0.518   5.957   0.796  0.6549 -0.2330 -0.1865
 6611TIP3    H119797   0.495   5.884   0.854 -0.3764  2.0182  2.4588
 6611TIP3    H219798   0.599   5.992   0.834  1.9759 -0.8018 -2.3167
 6612TIP3   OH219799   0.609   6.413   2.923  0.0422 -0.0633  0.4794
 6612TIP3    H119800   0.663   6.422   2.845 -1.5385 -1.5312 -0.8713
 6612TIP3    H219801   0.658   6.355   2.981  1.0642  0.7643  0.4811
 6613TIP3   OH219802   3.720   6.499   2.829 -0.1557 -0.2681  0.2290
 6613TIP3    H119803   3.664   6.569   2.795  0.0381  0.6274  1.6667
 6613TIP3    H219804   3.660   6.443   2.878  0.2446  1.1860  2.5388
 6614TIP3   OH219805   5.984   2.281   5.315 -0.4780 -0.1096  0.1825
 6614TIP3    H119806   5.931   2.213   5.272 -0.2276 -0.3321  0.2236
 6614TIP3    H219807   5.957   2.362   5.273 -1.2977 -0.1441  0.6291
 6615TIP3   OH219808   0.467   5.203   4.604  0.1403 -0.1982  0.3910
 6615TIP3    H119809   0.538   5.140   4.597 -0.4992 -0.7786 -2.1276
 6615TIP3    H219810   0.488   5.270   4.538 -1.3425 -0.0978 -0.0251
 6616TIP3   OH219811   5.618   6.425   2.295  0.1154 -0.0346  0.3356
 6616TIP3    H119812   5.657   6.491   2.237  1.7740 -0.9246  0.3975
 6616TIP3    H219813   5.682   6.412   2.365  0.3495 -2.4370 -0.2253
 6617TIP3   OH219814   0.036   3.112   2.745  0.5247 -0.8494 -0.3822
 6617TIP3    H119815   0.084   3.085   2.823 -1.0513 -0.2000  0.8792
 6617TIP3    H219816   0.008   3.030   2.704 -2.5817 -1.3245  2.3398
 6618TIP3   OH219817   4.942   3.033   3.615 -0.2517  0.1482 -0.2587
 6618TIP3    H119818   4.969   3.017   3.705 -0.1369  2.1573  0.1119
 6618TIP3    H219819   5.003   2.982   3.562 -0.2605 -0.9763  0.7723
 6619TIP3   OH219820   4.135   2.794   1.452 -0.3394 -0.2557  0.3895
 6619TIP3    H119821   4.193   2.723   1.481 -0.0201 -0.2039 -0.1180
 6619TIP3    H219822   4.101   2.765   1.368 -2.0203 -0.8330  1.2244
 6620TIP3   OH219823   0.765   3.197   4.391 -0.1620 -0.0295 -0.0929
 6620TIP3    H119824   0.850   3.176   4.430 -0.0144  1.3366  0.3658
 6620TIP3    H219825   0.701   3.159   4.451  0.1038 -0.7296 -0.2388
 6621TIP3   OH219826   1.441   0.694   5.076 -0.0898  0.3612  0.0182
 6621TIP3    H119827   1.355   0.654   5.087 -0.2075  0.8267  0.8551
 6621TIP3    H219828   1.498   0.644   5.134 -0.0906  0.9440  0.5256
 6622TIP3   OH219829   3.349   3.484   2.689  0.5289  0.7412  0.0728
 6622TIP3    H119830   3.304   3.406   2.723  1.3297 -0.9075 -2.4049
 6622TIP3    H219831   3.327   3.553   2.752 -1.6906 -1.0307  1.4109
 6623TIP3   OH219832   6.637   2.578   2.497  0.0895  0.6069  0.4333
 6623TIP3    H119833   6.565   2.619   2.546 -0.8189 -0.4477  0.0394
 6623TIP3    H219834   6.617   2.597   2.406  1.3423  1.8892  0.4049
 6624TIP3   OH219835   0.109   1.756   4.148 -0.5332 -0.3453  0.2471
 6624TIP3    H119836   0.029   1.795   4.113  0.4926 -0.7792 -2.9155
 6624TIP3    H219837   0.154   1.827   4.193 -0.5749  1.1826 -1.9699
 6625TIP3   OH219838   4.891   1.902   1.327 -0.7264  0.2663  0.1269
 6625TIP3    H119839   4.927   1.950   1.402  0.3702 -0.7582  0.2828
 6625TIP3    H219840   4.841   1.831   1.367  1.2007 -1.2733 -0.0460
 6626TIP3   OH219841   3.663   4.119   4.373 -0.0105 -0.3310 -0.2313
 6626TIP3    H119842   3.651   4.103   4.280 -1.8480  1.5443 -0.3880
 6626TIP3    H219843   3.623   4.205   4.388  1.0865 -0.1564  2.1126
 6627TIP3   OH219844   6.438   0.361   0.993  0.0941  0.0659 -0.2283
 6627TIP3    H119845   6.365   0.309   0.961  0.7367 -0.5394 -0.7512
 6627TIP3    H219846   6.404   0.450   0.998 -1.3319 -0.5397  1.6612
 6628TIP3   OH219847   0.890   4.917   3.778 -0.3238 -0.3759 -0.4694
 6628TIP3    H119848   0.823   4.945   3.840 -0.0642 -0.1381 -0.2929
 6628TIP3    H219849   0.846   4.852   3.723 -0.3492 -1.1514  0.4427
 6629TIP3   OH219850   1.137   3.411   0.405 -0.1289  0.1753 -0.2744
 6629TIP3    H119851   1.124   3.475   0.336  0.3302 -0.4357 -0.9378
 6629TIP3    H219852   1.103   3.453   0.484  1.8818  2.0243 -0.2861
 6630TIP3   OH219853   3.888   5.236   1.161  0.5325 -0.4990  0.3689
 6630TIP3    H119854   3.917   5.322   1.133  1.3817 -0.9559 -0.1879
 6630TIP3    H219855   3.824   5.254   1.230  1.7920  0.5529  1.3188
 6631TIP3   OH219856   2.012   3.447   3.887 -0.5683  0.3903  0.0495
 6631TIP3    H119857   1.975   3.359   3.895 -4.1160  1.7391  0.6357
 6631TIP3    H219858   1.938   3.505   3.904  1.8884  3.5303  1.0193
 6632TIP3   OH219859   3.370   0.757   0.353 -0.6561  0.7838  0.2314
 6632TIP3    H119860   3.317   0.682   0.380  0.1374  0.6904  1.6192
 6632TIP3    H219861   3.452   0.718   0.321 -0.8299  0.9975 -0.4955
 6633TIP3   OH219862   3.540   0.959   1.103  0.0914 -0.1433 -0.0940
 6633TIP3    H119863   3.583   1.018   1.040  0.3705 -0.6594 -0.3924
 6633TIP3    H219864   3.472   1.013   1.143 -1.2831 -0.2779 -2.1132
 6634TIP3   OH219865   5.514   2.470   2.981  0.0194  0.4442 -0.0510
 6634TIP3    H119866   5.505   2.379   3.011  1.0427  0.7045  1.0962
 6634TIP3    H219867   5.496   2.523   3.059 -0.1882  1.2298 -0.6239
 6635TIP3   OH219868   5.829   1.250   2.458  0.0356 -0.3216 -0.1433
 6635TIP3    H119869   5.914   1.240   2.416  0.4549 -0.2316  0.6637
 6635TIP3    H219870   5.823   1.176   2.519 -0.3225 -0.1476  0.0366
 6636TIP3   OH219871   6.659   1.607   0.492 -0.1285 -0.7263 -0.2084
 6636TIP3    H119872   6.698   1.694   0.497  0.0921 -0.8676  0.6882
 6636TIP3    H219873   6.732   1.548   0.472 -0.4130 -0.6212 -1.6821
 6637TIP3   OH219874   4.427   2.875   2.211  0.3938 -0.4627  0.1842
 6637TIP3    H119875   4.466   2.810   2.270 -0.7841 -2.6281 -1.2955
 6637TIP3    H219876   4.412   2.827   2.129  2.7602  2.5854 -2.2851
 6638TIP3   OH219877   6.131   3.974   5.165  0.7882  0.3046 -0.0854
 6638TIP3    H119878   6.077   3.937   5.095  0.7464  1.3418 -0.6058
 6638TIP3    H219879   6.113   3.917   5.240 -0.7880  0.4275 -0.3362
 6639TIP3   OH219880   3.922   5.406   3.908 -0.5436 -0.6694 -0.4166
 6639TIP3    H119881   3.892   5.360   3.830 -1.9351  0.1662 -0.4026
 6639TIP3    H219882   3.844   5.414   3.963  0.3593 -1.0267  0.9644
 6640TIP3   OH219883   2.857   5.641   4.034 -0.0274  0.2268  0.2446
 6640TIP3    H119884   2.778   5.669   4.078  0.6289  2.0668  0.3259
 6640TIP3    H219885   2.900   5.722   4.005  0.5641 -0.7961 -2.0481
 6641TIP3   OH219886   2.195   6.506   0.471  0.0752  0.2796  0.4692
 6641TIP3    H119887   2.223   6.571   0.406 -0.1723  1.6611  1.6961
 6641TIP3    H219888   2.116   6.544   0.510 -0.1765 -0.8501  1.1113
 6642TIP3   OH219889   2.592   5.334   2.630  0.2563  0.1805 -0.1444
 6642TIP3    H119890   2.627   5.275   2.564  1.4953  0.0794  0.5780
 6642TIP3    H219891   2.657   5.403   2.639  0.9414 -0.6595  2.0959
 6643TIP3   OH219892   6.808   2.639   0.594 -0.2954  0.0334 -0.5624
 6643TIP3    H119893   6.821   2.648   0.500  0.9198  0.2604 -0.3970
 6643TIP3    H219894   6.714   2.626   0.605 -0.4756  0.2212 -1.7849
 6644TIP3   OH219895   2.459   2.789   0.695  0.3105  0.1766 -0.2194
 6644TIP3    H119896   2.503   2.744   0.767 -0.7049 -0.4880  0.0141
 6644TIP3    H219897   2.462   2.727   0.622 -0.6653 -0.1017 -0.0428
 6645TIP3   OH219898   1.143   1.133   0.339  0.3779  0.2489 -0.0604
 6645TIP3    H119899   1.120   1.062   0.278  2.8476  0.1046 -0.9376
 6645TIP3    H219900   1.059   1.173   0.362 -1.0128 -2.2995 -0.3277
 6646TIP3   OH219901   2.405   2.346   0.293 -0.6629  0.2375  0.4562
 6646TIP3    H119902   2.471   2.279   0.312 -0.3927  0.7375  1.3347
 6646TIP3    H219903   2.456   2.423   0.269 -0.9248  0.6192  1.1160
 6647TIP3   OH219904   4.138   3.413   5.429 -0.0286  0.2069 -0.1413
 6647TIP3    H119905   4.108   3.499   5.401 -1.5215 -0.0478  0.6386
 6647TIP3    H219906   4.127   3.358   5.351 -1.2923  0.1900  0.0431
 6648TIP3   OH219907   0.881   2.406   5.419 -0.0937 -0.2151 -0.0826
 6648TIP3    H119908   0.840   2.459   5.487 -0.9634 -0.3108 -0.5149
 6648TIP3    H219909   0.914   2.329   5.465  1.1963  0.6814  0.5527
 6649TIP3   OH219910   6.095   3.215   5.606 -0.0588  0.4220  0.0534
 6649TIP3    H119911   6.117   3.297   5.562 -0.4767  0.2923 -0.4064
 6649TIP3    H219912   6.109   3.148   5.540 -0.2385  0.1754  0.2639
 6650TIP3   OH219913   0.669   0.882   2.286 -0.1509  0.1731  0.0379
 6650TIP3    H119914   0.621   0.834   2.354  1.8101 -0.2929  1.1623
 6650TIP3    H219915   0.602   0.933   2.242 -1.4300  1.3241  3.0319
 6651TIP3   OH219916   5.922   0.227   2.965 -0.2440 -0.7664  0.1507
 6651TIP3    H119917   5.947   0.318   2.948 -0.5497 -0.7992 -0.5000
 6651TIP3    H219918   5.906   0.224   3.059  1.9870 -0.6981  0.5826
 6652TIP3   OH219919   6.727   0.714   1.314  0.1702  0.1173  0.1896
 6652TIP3    H119920   6.734   0.624   1.281 -2.6400  0.3877 -1.4858
 6652TIP3    H219921   6.766   0.768   1.246  2.3279  0.2086  1.4294
 6653TIP3   OH219922   1.511   2.487   2.567 -0.1079  0.3865  0.3744
 6653TIP3    H119923   1.453   2.524   2.634  0.5373  1.2525  0.4824
 6653TIP3    H219924   1.599   2.500   2.602  0.4413  3.2701 -1.7061
 6654TIP3   OH219925   0.467   3.585   3.254 -0.7286 -0.1183  0.4553
 6654TIP3    H119926   0.474   3.659   3.194  0.3489  0.2649  1.0148
 6654TIP3    H219927   0.502   3.618   3.337  1.1422 -1.6279  0.3391
 6655TIP3   OH219928   7.172   2.328   4.475 -0.0072 -0.1124  0.0552
 6655TIP3    H119929   7.170   2.251   4.419  1.2879 -0.2637  0.1866
 6655TIP3    H219930   7.120   2.303   4.552 -2.8858  0.5351 -1.5386
 6656TIP3   OH219931   6.964   6.433   5.190 -0.0812 -0.3432  0.1365
 6656TIP3    H119932   6.986   6.476   5.272  2.0712  0.8913 -1.0134
 6656TIP3    H219933   6.997   6.343   5.201 -1.8065 -0.8972  1.3694
 6657TIP3   OH219934   5.401   3.462   5.706 -0.4868 -0.0149 -0.4072
 6657TIP3    H119935   5.364   3.546   5.733 -1.4201 -0.7753  0.7698
 6657TIP3    H219936   5.336   3.398   5.734 -0.6726 -1.0176 -2.9218
 6658TIP3   OH219937   4.874   1.365   5.111 -0.1671 -0.0627  0.0949
 6658TIP3    H119938   4.809   1.303   5.079  0.8738  0.0523 -2.5030
 6658TIP3    H219939   4.956   1.315   5.111  0.4093  0.8579 -0.4999
 6659TIP3   OH219940   1.692   6.800   5.759  0.2510  0.4835 -0.2275
 6659TIP3    H119941   1.608   6.754   5.768  1.1428 -1.3989 -0.9164
 6659TIP3    H219942   1.726   6.805   5.848 -0.6067  1.3346  0.0694
 6660TIP3   OH219943   4.009   3.391   0.385  0.3698 -0.2979 -0.1316
 6660TIP3    H119944   3.913   3.394   0.387  0.4126  1.3800  0.9999
 6660TIP3    H219945   4.032   3.320   0.445 -0.1392 -0.0912  0.3070
 6661TIP3   OH219946   1.577   0.240   4.588 -0.2565  0.4920 -0.1632
 6661TIP3    H119947   1.607   0.200   4.670 -2.0150  0.0161  0.3046
 6661TIP3    H219948   1.649   0.296   4.561  0.7154 -0.0008  1.2659
 6662TIP3   OH219949   5.215   5.961   3.393 -0.4809  0.1536 -0.0990
 6662TIP3    H119950   5.256   5.916   3.467 -0.7217 -0.3753 -0.2828
 6662TIP3    H219951   5.148   6.016   3.433  0.9406  1.6954  0.2935
 6663TIP3   OH219952   4.619   0.999   2.884  0.5889 -0.2582  0.1362
 6663TIP3    H119953   4.665   1.078   2.857  0.6702 -0.1676  0.5313
 6663TIP3    H219954   4.526   1.024   2.881  0.6498  0.1091  1.0406
 6664TIP3   OH219955   5.898   3.502   1.148  0.1780 -0.1449  0.6811
 6664TIP3    H119956   5.906   3.408   1.135 -0.8295 -0.2634  0.8220
 6664TIP3    H219957   5.828   3.528   1.088  0.5620  0.5390  0.5258
 6665TIP3   OH219958   3.566   2.671   5.243  0.6328 -0.1265 -0.2610
 6665TIP3    H119959   3.610   2.647   5.162  0.9192 -0.8949  0.1082
 6665TIP3    H219960   3.604   2.613   5.309  1.4026  1.3983  0.7008
 6666TIP3   OH219961   4.397   1.483   2.262 -0.0396  0.0810 -0.3966
 6666TIP3    H119962   4.335   1.510   2.194 -1.8778  1.1763  1.5982
 6666TIP3    H219963   4.413   1.390   2.244 -1.9011 -0.1171 -1.2681
 6667TIP3   OH219964   3.160   3.362   0.142  0.4897 -0.0871  0.0333
 6667TIP3    H119965   3.075   3.355   0.185 -0.1398  1.8390 -0.7930
 6667TIP3    H219966   3.170   3.281   0.092 -2.2321  0.8252 -2.2189
 6668TIP3   OH219967   5.004   5.544   4.282 -0.1274 -0.1308 -0.0706
 6668TIP3    H119968   4.912   5.549   4.308  0.2264  1.3934  1.0009
 6668TIP3    H219969   5.018   5.451   4.261 -1.3810 -0.7951  1.7844
 6669TIP3   OH219970   6.162   2.449   4.835 -0.3011 -0.0290  0.3732
 6669TIP3    H119971   6.067   2.455   4.840 -0.1518  1.3784  2.5735
 6669TIP3    H219972   6.193   2.539   4.841  1.1772 -0.3962 -1.0450
 6670TIP3   OH219973   6.194   4.307   3.680  0.2978 -0.3504  0.7798
 6670TIP3    H119974   6.242   4.233   3.642  0.7386 -0.1859  1.0021
 6670TIP3    H219975   6.233   4.318   3.767  2.0069  1.7080 -0.1499
 6671TIP3   OH219976   1.098   5.047   4.640 -0.5354  0.3186  0.2676
 6671TIP3    H119977   1.134   5.093   4.716  0.2243  1.9865 -1.0656
 6671TIP3    H219978   1.160   4.976   4.624 -1.0760 -0.5145  1.5845
 6672TIP3   OH219979   6.640   1.415   5.304  0.6637  0.7772  0.6001
 6672TIP3    H119980   6.708   1.374   5.358  1.3622  1.9255  0.6144
 6672TIP3    H219981   6.612   1.491   5.354 -0.6860  0.3114  0.6045
 6673TIP3   OH219982   4.417   5.154   1.754  0.4745  0.0738 -0.8705
 6673TIP3    H119983   4.407   5.064   1.785  0.2599 -0.2972 -1.9548
 6673TIP3    H219984   4.366   5.157   1.673  0.1094  1.2997 -0.6224
 6674TIP3   OH219985   0.661   6.318   1.073  0.0325  0.8947  0.1080
 6674TIP3    H119986   0.741   6.282   1.111  0.1520  0.4326 -0.5701
 6674TIP3    H219987   0.610   6.347   1.148 -0.8775 -2.2629  0.8465
 6675TIP3   OH219988   5.608   6.174   1.418  0.1301 -0.1035 -0.2214
 6675TIP3    H119989   5.649   6.224   1.489  0.1537 -2.3865  1.4888
 6675TIP3    H219990   5.519   6.156   1.451 -0.0407 -0.7443 -1.0100
 6676TIP3   OH219991   2.293   6.073   5.692 -0.4435  0.1318  0.0999
 6676TIP3    H119992   2.243   6.014   5.635 -0.1101 -0.2124  0.1621
 6676TIP3    H219993   2.383   6.040   5.687 -0.4788 -0.1311  1.1303
 6677TIP3   OH219994   5.939   1.748   2.749  0.7060  0.2322 -0.0098
 6677TIP3    H119995   5.859   1.709   2.714  0.1543  1.2244  0.1004
 6677TIP3    H219996   5.969   1.807   2.680  0.5530  0.9130  0.4896
 6678TIP3   OH219997   5.990   2.833   2.194  0.5940  0.1491  0.6127
 6678TIP3    H119998   5.932   2.757   2.202  0.5469  0.1499  0.2803
 6678TIP3    H219999   6.057   2.807   2.131  0.2739  0.5703  0.0916
 6679TIP3   OH220000   2.986   1.994   5.173  0.4780  0.2498 -0.5213
 6679TIP3    H120001   2.949   2.066   5.122 -1.1870  0.8116  1.3058
 6679TIP3    H220002   2.972   1.916   5.120  0.0579  0.9701 -1.4883
 6680TIP3   OH220003   4.132   5.112   4.857  0.3905  0.3194  0.6374
 6680TIP3    H120004   4.087   5.166   4.922  1.2798  0.1155  1.4381
 6680TIP3    H220005   4.224   5.138   4.862  0.8466 -1.2959  1.0899
 6681TIP3   OH220006   0.445   1.511   5.789 -0.3106  0.3240  0.0421
 6681TIP3    H120007   0.383   1.454   5.835 -0.0307  0.0197  0.0534
 6681TIP3    H220008   0.394   1.587   5.762 -0.7620 -0.0743 -0.2336
 6682TIP3   OH220009   3.747   2.749   1.997  0.6314 -0.0749 -0.0237
 6682TIP3    H120010   3.663   2.743   2.041  0.9126  1.8811  0.8820
 6682TIP3    H220011   3.775   2.658   1.987 -0.7885 -0.6971  1.2230
 6683TIP3   OH220012   3.193   2.475   2.411 -0.0184 -0.2553  0.0181
 6683TIP3    H120013   3.121   2.427   2.451 -1.7428  1.0229 -1.4248
 6683TIP3    H220014   3.228   2.529   2.481  0.2477 -1.6170  0.9862
 6684TIP3   OH220015   6.536   5.570   2.469  0.3714 -0.1013  0.0969
 6684TIP3    H120016   6.573   5.486   2.442  3.4056  0.3970  2.1748
 6684TIP3    H220017   6.525   5.562   2.564 -2.5534  0.7933 -0.0531
 6685TIP3   OH220018   4.576   5.704   0.668  0.4837 -0.8063 -0.4889
 6685TIP3    H120019   4.548   5.715   0.577 -2.3079  1.4457  0.4793
 6685TIP3    H220020   4.643   5.771   0.682  0.5376 -0.8071 -0.7555
 6686TIP3   OH220021   0.466   1.514   4.195  0.1268 -0.0834  0.5764
 6686TIP3    H120022   0.437   1.494   4.284  1.8919 -0.7056  1.0703
 6686TIP3    H220023   0.498   1.430   4.162 -1.3120 -0.0484 -0.9963
 6687TIP3   OH220024   1.615   1.825   0.535 -0.4125 -0.6195  0.4840
 6687TIP3    H120025   1.645   1.741   0.501 -0.7903 -0.6033  0.1007
 6687TIP3    H220026   1.555   1.858   0.469  0.6363  0.5158  0.0626
 6688TIP3   OH220027   0.724   3.264   0.744  0.3842 -0.3922 -0.0879
 6688TIP3    H120028   0.677   3.183   0.763 -0.9235  0.2265 -0.5911
 6688TIP3    H220029   0.812   3.249   0.779 -0.1174 -1.6532  0.7042
 6689TIP3   OH220030   4.847   6.674   4.725 -0.3879  0.5893 -0.2866
 6689TIP3    H120031   4.877   6.590   4.692 -0.3996  0.0831  0.9510
 6689TIP3    H220032   4.782   6.704   4.660  1.2538  0.7584 -1.9383
 6690TIP3   OH220033   1.789   5.624   3.144  0.1036 -0.3321 -0.2549
 6690TIP3    H120034   1.877   5.657   3.159 -0.5885  1.6071 -0.0751
 6690TIP3    H220035   1.779   5.551   3.205  0.5444  1.4127  2.0283
 6691TIP3   OH220036   7.119   1.106   3.539 -0.1640  0.1395 -0.0393
 6691TIP3    H120037   7.183   1.162   3.496  1.1323 -0.5472  0.9295
 6691TIP3    H220038   7.098   1.152   3.621 -0.8838  0.3253 -0.3148
 6692TIP3   OH220039   0.490   5.894   4.973 -0.2563 -1.2401 -0.2157
 6692TIP3    H120040   0.482   5.851   5.058  0.0510  0.0910  0.5160
 6692TIP3    H220041   0.401   5.916   4.948 -0.2999 -1.1205  0.0419
 6693TIP3   OH220042   5.252   0.289   4.837 -0.7517 -0.3823 -0.4966
 6693TIP3    H120043   5.167   0.334   4.836 -0.3157  0.5152  0.3791
 6693TIP3    H220044   5.285   0.298   4.748 -1.6282 -0.8573 -0.8789
 6694TIP3   OH220045   2.832   5.830   5.689 -0.6143  0.0636  0.1656
 6694TIP3    H120046   2.771   5.804   5.619 -0.9294  1.7688 -0.2419
 6694TIP3    H220047   2.861   5.918   5.664 -1.2260  1.0014  2.5154
 6695TIP3   OH220048   3.150   0.485   3.066 -0.1882  0.1575 -0.4364
 6695TIP3    H120049   3.122   0.569   3.103  0.6639  0.2210  0.0900
 6695TIP3    H220050   3.234   0.504   3.024  0.3903 -0.5967  0.3616
 6696TIP3   OH220051   4.852   4.327   3.507 -0.1666 -0.1088 -0.1120
 6696TIP3    H120052   4.767   4.301   3.470  0.0313 -1.4637  0.3034
 6696TIP3    H220053   4.840   4.317   3.601  1.2622 -3.3103 -0.1137
 6697TIP3   OH220054   7.014   0.027   1.594  0.8107 -0.0757 -0.1784
 6697TIP3    H120055   6.952   0.054   1.527  2.1408 -1.3048 -1.9993
 6697TIP3    H220056   6.971   0.049   1.677 -1.6679 -0.1199 -1.3642
 6698TIP3   OH220057   7.030   0.638   5.491 -0.0238  0.3191 -0.2149
 6698TIP3    H120058   7.111   0.611   5.448  1.2006  0.9120  1.5813
 6698TIP3    H220059   6.964   0.577   5.459  1.2524 -0.5363 -1.3082
 6699TIP3   OH220060   0.263   4.337   0.568 -0.2549  0.7974  0.5107
 6699TIP3    H120061   0.341   4.323   0.514 -0.7474  0.9557 -0.2624
 6699TIP3    H220062   0.203   4.387   0.512 -1.4040 -0.3792  0.6316
 6700TIP3   OH220063   4.713   2.208   1.130  0.7538  0.2987  0.0215
 6700TIP3    H120064   4.662   2.279   1.092  1.1780  0.8064  0.3785
 6700TIP3    H220065   4.737   2.240   1.217 -0.1894 -0.8411  0.7189
 6701TIP3   OH220066   4.833   5.645   5.046 -0.6200  0.0970  0.3985
 6701TIP3    H120067   4.845   5.723   4.992 -1.5289  0.4901  0.7391
 6701TIP3    H220068   4.761   5.668   5.105 -2.0545 -1.5920 -0.6120
 6702TIP3   OH220069   6.261   0.872   5.428  0.1137  0.3302  0.0004
 6702TIP3    H120070   6.251   0.952   5.479 -0.1689 -0.3508  1.0489
 6702TIP3    H220071   6.314   0.898   5.353  0.8256  1.3013  0.8048
 6703TIP3   OH220072   1.536   4.184   2.999 -0.1951 -0.2887 -0.3917
 6703TIP3    H120073   1.475   4.246   3.039  0.5006 -0.0165  0.2831
 6703TIP3    H220074   1.590   4.153   3.071  1.1071  0.2244 -1.1021
 6704TIP3   OH220075   5.629   0.784   3.224  0.2800 -0.1279 -0.7221
 6704TIP3    H120076   5.588   0.706   3.187  1.5682 -1.1551 -0.0503
 6704TIP3    H220077   5.557   0.830   3.268 -0.5066 -0.8935 -1.1633
 6705TIP3   OH220078   3.247   0.041   4.256 -0.1007  0.4495 -0.1809
 6705TIP3    H120079   3.162   0.083   4.241 -0.0026  0.3743 -0.9551
 6705TIP3    H220080   3.226  -0.052   4.268 -0.3239  0.6957  1.5876
 6706TIP3   OH220081   2.227   2.089   4.760  0.6261 -0.1241 -0.7011
 6706TIP3    H120082   2.169   2.104   4.834  2.4628 -1.4622  1.1075
 6706TIP3    H220083   2.228   1.994   4.749  2.0662 -0.0949 -1.0111
 6707TIP3   OH220084   0.371   3.881   2.117 -0.2371  0.1718  0.1509
 6707TIP3    H120085   0.420   3.846   2.043 -0.4217 -0.2345  0.2226
 6707TIP3    H220086   0.353   3.972   2.093  2.4975  1.0699  1.0588
 6708TIP3   OH220087   4.128   6.262   2.405  0.6936 -0.5581 -0.0656
 6708TIP3    H120088   4.069   6.337   2.408 -0.0486 -1.0649 -1.3653
 6708TIP3    H220089   4.101   6.207   2.479  0.0779 -0.3899 -0.1617
 6709TIP3   OH220090   1.311   2.952   3.436  0.1111 -0.1349  0.7459
 6709TIP3    H120091   1.257   2.989   3.365  1.7816  0.8290 -0.0858
 6709TIP3    H220092   1.267   2.980   3.516  0.1708  1.9764  0.1033
 6710TIP3   OH220093   2.199   5.513   0.647  0.1478 -0.2244 -0.4089
 6710TIP3    H120094   2.115   5.546   0.679  0.8561  0.0496  1.2247
 6710TIP3    H220095   2.212   5.559   0.564 -0.5880  0.8729  0.0640
 6711TIP3   OH220096   7.006   5.699   4.276  0.1271 -0.4375 -0.1457
 6711TIP3    H120097   6.948   5.638   4.231  0.2698 -2.4113  2.1461
 6711TIP3    H220098   6.968   5.708   4.363  0.6732  2.0532 -0.0879
 6712TIP3   OH220099   0.710   4.701   1.912 -0.0851  0.3019  0.1438
 6712TIP3    H120100   0.757   4.684   1.994 -1.0113 -0.9768  0.4534
 6712TIP3    H220101   0.623   4.729   1.940 -1.4313 -2.9672 -0.2424
 6713TIP3   OH220102   6.110   4.946   5.481  0.2527  0.3580  0.0761
 6713TIP3    H120103   6.075   4.892   5.552  2.1126  0.3816  1.0682
 6713TIP3    H220104   6.103   5.035   5.514  0.7107  0.4020  0.0606
 6714TIP3   OH220105   1.493   4.692   5.407 -0.0360  0.0912  0.0315
 6714TIP3    H120106   1.535   4.758   5.462 -0.9565 -0.4875  1.5055
 6714TIP3    H220107   1.411   4.733   5.380  0.8577  0.7570 -1.8212
 6715TIP3   OH220108   6.721   6.166   5.011  0.1058 -0.5425 -0.3137
 6715TIP3    H120109   6.651   6.218   5.049  0.4159 -2.4977  3.4003
 6715TIP3    H220110   6.801   6.206   5.044  0.3916 -2.3731  1.3733
 6716TIP3   OH220111   4.009   0.798   5.404 -0.5727  0.5240  0.0444
 6716TIP3    H120112   3.994   0.839   5.319 -1.9613  0.5275  0.2568
 6716TIP3    H220113   4.090   0.836   5.436 -0.4866  1.1655 -0.9045
 6717TIP3   OH220114   3.166   4.194   0.549 -0.3528 -0.4148  0.3370
 6717TIP3    H120115   3.257   4.203   0.578  0.4047 -1.3960 -1.6000
 6717TIP3    H220116   3.150   4.100   0.547 -0.3385 -0.4454 -2.2429
 6718TIP3   OH220117   2.642   6.660   4.466  0.2562  0.0990 -0.2487
 6718TIP3    H120118   2.575   6.661   4.535 -0.9590 -1.4739 -1.3123
 6718TIP3    H220119   2.601   6.704   4.392  1.4807  1.6083 -0.0736
 6719TIP3   OH220120   0.241   3.851   0.452  0.3141 -0.5885 -0.2299
 6719TIP3    H120121   0.165   3.880   0.401 -0.3594 -0.0627  1.0301
 6719TIP3    H220122   0.218   3.762   0.479 -0.6546  0.1578  1.5694
 6720TIP3   OH220123   6.140   0.925   4.177  0.1712 -0.1427 -0.2884
 6720TIP3    H120124   6.189   0.858   4.129 -0.8936  0.0206 -1.6669
 6720TIP3    H220125   6.064   0.879   4.213 -0.3257  0.2116 -0.8576
 6721TIP3   OH220126   0.898   4.945   1.441 -0.4242 -0.2486  0.1544
 6721TIP3    H120127   0.951   5.016   1.477 -0.8081  0.5337 -0.7796
 6721TIP3    H220128   0.817   4.987   1.414 -1.0172 -1.2104  0.4061
 6722TIP3   OH220129   4.679   6.503   1.279 -0.2721 -0.6170  0.1074
 6722TIP3    H120130   4.692   6.412   1.252 -0.6589 -0.9168  0.9074
 6722TIP3    H220131   4.664   6.498   1.373  1.6947  0.4718  0.5235
 6723TIP3   OH220132   5.791   2.005   4.901 -0.5898 -0.1287  0.3248
 6723TIP3    H120133   5.793   1.964   4.814  0.3318  1.2868 -0.3472
 6723TIP3    H220134   5.862   1.962   4.949 -0.5242 -0.2952  0.0822
 6724TIP3   OH220135   0.736   4.149   0.089  0.2231 -0.0649  0.7361
 6724TIP3    H120136   0.711   4.242   0.093 -0.3259 -0.1637 -0.0740
 6724TIP3    H220137   0.730   4.127  -0.004  2.9226 -0.2442  0.5469
 6725TIP3   OH220138   0.970   1.758   0.016  0.0142  0.6066 -0.2557
 6725TIP3    H120139   0.992   1.851   0.023 -1.3413  0.8649  1.0532
 6725TIP3    H220140   0.878   1.753   0.039 -0.9109 -0.6742 -3.5566
 6726TIP3   OH220141   2.046   3.321   2.945  0.2283  0.2144 -0.0116
 6726TIP3    H120142   2.061   3.276   3.028 -0.8618  0.3334  0.2618
 6726TIP3    H220143   2.003   3.255   2.890  0.3881  0.3231 -0.2672
 6727TIP3   OH220144   3.261   1.589   3.188 -0.2453 -0.4187  0.4523
 6727TIP3    H120145   3.346   1.557   3.218 -0.3755  0.4581  1.8370
 6727TIP3    H220146   3.270   1.593   3.093  2.2625  2.2097  0.6426
 6728TIP3   OH220147   2.109   5.049   5.871  0.9041  0.5225 -0.2426
 6728TIP3    H120148   2.191   5.010   5.901  0.4265 -0.4548 -0.1972
 6728TIP3    H220149   2.100   5.021   5.781  0.5620  0.5451 -0.2159
 6729TIP3   OH220150   1.657   6.035   0.117  0.2726 -0.2164  0.1341
 6729TIP3    H120151   1.703   6.005   0.196  1.4291 -1.8701 -1.1165
 6729TIP3    H220152   1.573   5.990   0.120 -0.0551  0.3995  0.8213
 6730TIP3   OH220153   0.559   5.354   0.598 -0.3687  0.0176 -0.0872
 6730TIP3    H120154   0.493   5.287   0.615 -1.0168  1.1174  2.0900
 6730TIP3    H220155   0.532   5.394   0.515 -2.6897  0.6807  0.9146
 6731TIP3   OH220156   5.453   2.316   2.563  0.2093  0.2504  0.2348
 6731TIP3    H120157   5.392   2.357   2.624 -0.1314 -0.2625  0.2447
 6731TIP3    H220158   5.531   2.298   2.616 -0.0663 -0.1485  0.5096
 6732TIP3   OH220159   0.460   1.914   5.178 -0.7520  0.0637 -0.1700
 6732TIP3    H120160   0.477   1.829   5.137 -1.8570  0.0422 -0.6277
 6732TIP3    H220161   0.407   1.893   5.255 -0.5122  0.2861  0.0553
 6733TIP3   OH220162   4.955   4.741   1.773 -0.1263 -0.0862 -0.1354
 6733TIP3    H120163   4.995   4.656   1.755 -2.1547 -1.5259  1.6358
 6733TIP3    H220164   5.026   4.795   1.805  1.1672 -1.1900 -1.0165
 6734TIP3   OH220165   3.781   3.597   5.459 -0.1428  0.1834 -0.0895
 6734TIP3    H120166   3.821   3.646   5.387 -1.7266  2.5987  0.5539
 6734TIP3    H220167   3.819   3.637   5.538 -2.0092  0.9366  0.4684
 6735TIP3   OH220168   3.332   5.744   2.563 -0.3894 -0.0265  0.0701
 6735TIP3    H120169   3.315   5.688   2.640  1.4953  0.4174  0.8689
 6735TIP3    H220170   3.261   5.808   2.565 -0.0762  0.3386  1.8348
 6736TIP3   OH220171   5.599   2.422   0.853  0.7408 -0.4838  0.1076
 6736TIP3    H120172   5.552   2.482   0.911  2.1996  0.9902 -0.1531
 6736TIP3    H220173   5.550   2.426   0.771  1.3893  1.2254 -0.2393
 6737TIP3   OH220174   5.937   3.911   4.643 -0.0335 -0.4085  0.4269
 6737TIP3    H120175   5.891   3.878   4.720 -0.3938  0.1788  0.4693
 6737TIP3    H220176   6.029   3.889   4.658 -0.2502 -1.2949  0.4992
 6738TIP3   OH220177   0.660   0.833   3.282  0.1933 -0.5465  0.8374
 6738TIP3    H120178   0.632   0.764   3.341  0.2169  0.3534  1.9380
 6738TIP3    H220179   0.643   0.799   3.195 -1.4247 -1.2399  1.3969
 6739TIP3   OH220180   3.865   6.695   4.720  0.2472 -0.3576 -0.4845
 6739TIP3    H120181   3.835   6.605   4.737  1.6507 -0.6896  0.3570
 6739TIP3    H220182   3.882   6.731   4.807 -0.8231  0.9411 -0.7746
 6740TIP3   OH220183   1.236   1.111   3.538  0.3907 -0.5142  0.2261
 6740TIP3    H120184   1.256   1.019   3.517  1.3873 -0.3271  0.3012
 6740TIP3    H220185   1.309   1.139   3.593  1.2803  0.9619 -1.5924
 6741TIP3   OH220186   4.214   4.587   5.581 -0.3552  0.1789 -0.0389
 6741TIP3    H120187   4.198   4.519   5.515 -0.7065 -1.0482  1.2604
 6741TIP3    H220188   4.128   4.603   5.620 -0.6172  2.5741 -1.3744
 6742TIP3   OH220189   1.224   3.215   1.197 -0.7733  0.3223 -0.5421
 6742TIP3    H120190   1.244   3.158   1.272 -0.7797  0.8309 -0.1523
 6742TIP3    H220191   1.152   3.270   1.228 -0.7429  0.5684 -0.9111
 6743TIP3   OH220192   6.802   0.092   0.369  0.0686 -0.0442  0.2271
 6743TIP3    H120193   6.743   0.083   0.295  1.7874 -0.5286 -1.1555
 6743TIP3    H220194   6.801   0.007   0.413 -1.1864  0.3392  0.9726
 6744TIP3   OH220195   0.707   0.964   5.527  0.1189  0.1213 -0.2389
 6744TIP3    H120196   0.735   1.042   5.575 -1.7669  0.1419  0.9005
 6744TIP3    H220197   0.674   0.997   5.444  0.0875  0.4547 -0.0947
 6745TIP3   OH220198   4.305   0.077   3.550  0.1116  0.9148 -0.4390
 6745TIP3    H120199   4.325   0.059   3.459 -1.4647 -0.2980 -0.5785
 6745TIP3    H220200   4.391   0.086   3.592  0.9619 -1.6848 -1.4307
 6746TIP3   OH220201   5.889   5.542   3.139 -0.2729 -0.1333 -0.1448
 6746TIP3    H120202   5.919   5.546   3.230 -0.7042 -0.8429  0.0365
 6746TIP3    H220203   5.794   5.549   3.144 -0.3834 -1.2353 -0.4490
 6747TIP3   OH220204   6.604   4.702   1.186 -0.0780 -0.7779 -0.4892
 6747TIP3    H120205   6.511   4.703   1.209 -0.1127 -1.2862 -0.6126
 6747TIP3    H220206   6.627   4.610   1.181  1.1440 -0.7213  2.3519
 6748TIP3   OH220207   1.967   5.083   3.825  0.3733  0.2605  0.0552
 6748TIP3    H120208   1.883   5.067   3.783 -0.6930 -0.0545  2.1972
 6748TIP3    H220209   1.987   5.001   3.871  0.8362  1.0090  1.2195
 6749TIP3   OH220210   3.192   2.081   0.738 -0.1901  0.0547 -0.0817
 6749TIP3    H120211   3.142   2.095   0.658 -0.0262  2.2757  0.1378
 6749TIP3    H220212   3.283   2.092   0.712 -0.1761  1.5673  0.5028
 6750TIP3   OH220213   4.968   6.228   1.468 -0.8577 -0.0369 -0.5677
 6750TIP3    H120214   4.976   6.297   1.534  0.2878  0.1349 -0.8600
 6750TIP3    H220215   5.012   6.263   1.391 -1.4521 -0.5650 -1.1627
 6751TIP3   OH220216   0.422   0.861   1.168  0.2346 -0.2026 -0.1897
 6751TIP3    H120217   0.344   0.876   1.221  0.5207  1.9804 -0.3188
 6751TIP3    H220218   0.489   0.916   1.208  1.7006 -1.8669 -0.2200
 6752TIP3   OH220219   1.958   0.289   2.275 -0.0713  0.0880  0.7519
 6752TIP3    H120220   1.959   0.291   2.371  0.6085  0.8776  0.7376
 6752TIP3    H220221   1.959   0.196   2.253  2.3752 -0.1132  1.4968
 6753TIP3   OH220222   2.472   6.638   1.713 -0.2342 -0.1536 -0.1626
 6753TIP3    H120223   2.559   6.599   1.706  0.0220  0.1721  1.0113
 6753TIP3    H220224   2.412   6.564   1.704  0.1577 -0.4020 -0.8179
 6754TIP3   OH220225   0.757   2.268   4.398 -0.1052  0.0569 -0.1741
 6754TIP3    H120226   0.721   2.329   4.334 -0.8595 -1.6721 -1.4747
 6754TIP3    H220227   0.682   2.239   4.450  0.0593 -0.4874 -0.2251
 6755TIP3   OH220228   2.100   3.155   1.284  0.5825 -0.5516 -0.0648
 6755TIP3    H120229   2.183   3.111   1.299  0.0737 -1.2845  0.6963
 6755TIP3    H220230   2.078   3.194   1.369 -0.8525 -2.1517  0.3706
 6756TIP3   OH220231   0.990   1.396   3.178  0.0417  0.0311 -0.0501
 6756TIP3    H120232   0.925   1.434   3.237 -0.6575 -0.5102 -0.4458
 6756TIP3    H220233   0.944   1.388   3.094  0.2079 -1.4849 -0.0221
 6757TIP3   OH220234   4.231   3.987   4.826  0.6013  0.4254  0.2491
 6757TIP3    H120235   4.274   4.043   4.762  0.3642  2.3646  1.6886
 6757TIP3    H220236   4.303   3.949   4.877  0.7897 -1.1216 -1.0801
 6758TIP3   OH220237   0.098   1.856   0.014  0.4866 -0.3159 -0.2981
 6758TIP3    H120238   0.166   1.916   0.047  1.0914 -0.7808 -0.6770
 6758TIP3    H220239   0.107   1.778   0.069  0.8172 -0.7001 -0.8938
 6759TIP3   OH220240   6.604   5.544   5.901 -0.5131 -0.4299 -0.2914
 6759TIP3    H120241   6.696   5.543   5.929 -0.5774  1.2028  0.1139
 6759TIP3    H220242   6.609   5.559   5.807 -0.3669 -1.4753 -0.4648
 6760TIP3   OH220243   0.256   1.381   2.338 -0.3570  0.0376 -0.3856
 6760TIP3    H120244   0.318   1.311   2.319  1.0070  0.9909  0.3931
 6760TIP3    H220245   0.237   1.371   2.431 -0.1482  0.7105 -0.2718
 6761TIP3   OH220246   5.374   2.048   1.350  0.2967  0.4858  0.3433
 6761TIP3    H120247   5.395   2.114   1.283  0.6631 -0.2716 -0.2955
 6761TIP3    H220248   5.355   2.100   1.428  1.4160  1.3324  0.0849
 6762TIP3   OH220249   2.607   5.659   3.470 -0.0643 -0.1013 -0.3501
 6762TIP3    H120250   2.538   5.670   3.535  0.1333  1.5002 -0.3895
 6762TIP3    H220251   2.622   5.746   3.435  1.4557 -0.5443 -0.8942
 6763TIP3   OH220252   4.532   4.683   1.952 -0.1045 -0.5026  0.4509
 6763TIP3    H120253   4.487   4.669   2.036 -1.5722  0.9766 -0.0490
 6763TIP3    H220254   4.490   4.621   1.892  1.0228 -1.6417  0.7812
 6764TIP3   OH220255   0.382   6.664   2.542 -0.2962 -0.3830  0.8217
 6764TIP3    H120256   0.435   6.648   2.620 -0.0540 -0.4416  0.6479
 6764TIP3    H220257   0.295   6.686   2.576  0.1137  0.7921  1.1409
 6765TIP3   OH220258   5.358   5.275   3.865  0.0548  0.8219 -0.2689
 6765TIP3    H120259   5.413   5.308   3.793  0.5937  1.6409  0.4986
 6765TIP3    H220260   5.271   5.267   3.826  0.7690 -0.9734 -1.6368
 6766TIP3   OH220261   6.842   4.867   5.621  0.3745 -0.0241 -0.0132
 6766TIP3    H120262   6.775   4.803   5.597  1.5625 -1.8802  1.3003
 6766TIP3    H220263   6.900   4.819   5.680  1.6758  2.1353  0.5639
 6767TIP3   OH220264   5.017   4.009   3.000  0.3060  0.0433  0.6679
 6767TIP3    H120265   4.928   4.038   3.022 -0.4007 -1.4059 -0.1180
 6767TIP3    H220266   5.042   4.063   2.925  0.2850  0.7731  1.1788
 6768TIP3   OH220267   0.990   5.019   3.131  0.2134 -1.0412 -0.4065
 6768TIP3    H120268   0.965   4.961   3.203 -1.6069  1.3512  1.0471
 6768TIP3    H220269   1.077   5.051   3.155 -0.6301  0.2275  1.1613
 6769TIP3   OH220270   6.597   4.114   0.851 -0.2110  0.4450  0.1287
 6769TIP3    H120271   6.541   4.047   0.892  0.9983 -0.3943  0.4866
 6769TIP3    H220272   6.607   4.085   0.761  2.7749 -1.6743  0.9793
 6770TIP3   OH220273   0.830   3.831   2.876  0.4106  0.0296 -0.3847
 6770TIP3    H120274   0.852   3.826   2.783  1.0259  2.9571 -0.5005
 6770TIP3    H220275   0.911   3.805   2.921  0.4541 -0.3382 -0.6713
 6771TIP3   OH220276   0.047   6.772   4.998 -0.1427  0.0972  0.0084
 6771TIP3    H120277   0.047   6.678   5.013 -0.4829  0.4608  2.5816
 6771TIP3    H220278  -0.045   6.797   4.996 -0.0347  0.5351  0.4257
 6772TIP3   OH220279   2.482   4.575   4.598 -1.0261 -0.1934 -0.1674
 6772TIP3    H120280   2.455   4.667   4.606 -1.5346 -0.3777  0.3690
 6772TIP3    H220281   2.575   4.579   4.577 -1.4088  0.4626 -1.8507
 6773TIP3   OH220282   1.612   2.393   3.488  0.4213  0.7379  0.3439
 6773TIP3    H120283   1.610   2.335   3.564  0.9785 -1.4022 -1.1585
 6773TIP3    H220284   1.573   2.475   3.518 -1.0983 -0.6578  2.3916
 6774TIP3   OH220285   6.206   0.261   4.040  0.4554  0.0639 -0.4415
 6774TIP3    H120286   6.293   0.272   4.002  0.4685  0.0972 -0.4012
 6774TIP3    H220287   6.159   0.340   4.016  0.6898  0.4137  0.2231
 6775TIP3   OH220288   5.595   0.885   0.082  0.2647  0.0460  0.2004
 6775TIP3    H120289   5.659   0.933   0.029 -0.7105 -0.9559 -2.0450
 6775TIP3    H220290   5.629   0.795   0.084 -1.8213 -0.9645 -2.6432
 6776TIP3   OH220291   4.756   5.350   2.485 -0.4132 -0.2440  0.3864
 6776TIP3    H120292   4.790   5.426   2.438 -0.5211 -0.0443  0.6235
 6776TIP3    H220293   4.729   5.289   2.417  0.2950 -0.3514  0.1969
 6777TIP3   OH220294   0.990   6.669   0.926 -0.2823  0.0894 -0.5828
 6777TIP3    H120295   0.985   6.723   0.848 -0.6444  0.8722 -0.0309
 6777TIP3    H220296   1.052   6.599   0.903  1.5708  1.6874 -0.7691
 6778TIP3   OH220297   2.625   5.016   4.591  0.1594  0.3528  0.1195
 6778TIP3    H120298   2.590   4.953   4.654 -1.6344 -0.6274 -1.7511
 6778TIP3    H220299   2.715   4.988   4.577  0.9461  1.1743  2.8853
 6779TIP3   OH220300   5.123   5.849   3.152 -0.6550  0.0181  0.5943
 6779TIP3    H120301   5.162   5.875   3.235 -1.3764 -0.4112  1.0734
 6779TIP3    H220302   5.082   5.764   3.169  0.2729 -0.6775 -0.5318
 6780TIP3   OH220303   4.543   3.954   2.571 -0.7323 -0.2772  0.1752
 6780TIP3    H120304   4.546   3.866   2.534  0.0589 -0.7559  1.3249
 6780TIP3    H220305   4.568   3.942   2.662  1.5689  1.4395 -0.1578
 6781TIP3   OH220306   3.311   4.247   1.993 -0.8390  0.2262  0.2323
 6781TIP3    H120307   3.335   4.184   1.925 -1.9187 -0.7819  0.7497
 6781TIP3    H220308   3.220   4.269   1.975 -0.6055  1.3059  0.3251
 6782TIP3   OH220309   6.116   0.210   4.774  0.6454 -0.6684 -0.7235
 6782TIP3    H120310   6.112   0.187   4.867 -1.9883  1.5276 -0.1535
 6782TIP3    H220311   6.044   0.161   4.734  0.9563 -0.6059 -1.3813
 6783TIP3   OH220312   2.541   0.315   2.270  0.1508 -0.1382  0.1547
 6783TIP3    H120313   2.552   0.377   2.198 -1.3432 -1.8274 -1.6359
 6783TIP3    H220314   2.471   0.256   2.241  0.6769 -1.9515  2.2692
 6784TIP3   OH220315   6.328   4.696   1.213  0.1509  0.3298 -0.0904
 6784TIP3    H120316   6.299   4.718   1.301 -1.4446  1.5054 -0.8471
 6784TIP3    H220317   6.290   4.610   1.196 -2.9562  1.7013 -0.9460
 6785TIP3   OH220318   0.449   6.089   4.713  0.4496 -0.2079  0.5004
 6785TIP3    H120319   0.367   6.129   4.743  0.2287 -0.4027  0.1625
 6785TIP3    H220320   0.469   6.133   4.631  0.4784 -0.4238  0.3900
 6786TIP3   OH220321   2.941   0.396   4.687 -0.4448 -0.3726  0.1599
 6786TIP3    H120322   2.880   0.432   4.622  1.6971 -0.1013 -1.8183
 6786TIP3    H220323   3.012   0.460   4.692  0.2726 -1.2232  1.5374
 6787TIP3   OH220324   0.766   3.174   3.813  0.3854 -0.0577 -0.2390
 6787TIP3    H120325   0.695   3.238   3.808  0.9075  0.4642 -1.0815
 6787TIP3    H220326   0.759   3.137   3.901  0.0971  1.1807  0.2718
 6788TIP3   OH220327   3.056   5.424   5.790 -0.2695  0.1921 -0.4544
 6788TIP3    H120328   3.070   5.416   5.696  2.1854  0.0788 -0.1613
 6788TIP3    H220329   3.112   5.497   5.816 -1.8407  1.0248  0.7698
 6789TIP3   OH220330   0.831   4.630   2.156  0.2628 -0.0476  0.3135
 6789TIP3    H120331   0.775   4.570   2.205 -1.0185 -0.7413 -1.8713
 6789TIP3    H220332   0.920   4.607   2.183 -0.2790 -1.9148  0.6482
 6790TIP3   OH220333   2.586   4.534   3.776 -0.5136  0.2955  0.1896
 6790TIP3    H120334   2.590   4.442   3.804  0.8907  0.0724 -0.6468
 6790TIP3    H220335   2.510   4.538   3.717 -0.8548 -0.2154  0.5810
 6791TIP3   OH220336   3.762   5.047   4.834 -0.3015 -0.0745 -0.7495
 6791TIP3    H120337   3.679   5.064   4.789 -0.4616 -2.2508 -1.4330
 6791TIP3    H220338   3.820   5.017   4.764 -0.0559 -1.9879  0.2090
 6792TIP3   OH220339   0.313   5.235   2.836  0.4190  0.5309  0.2027
 6792TIP3    H120340   0.266   5.224   2.754 -0.4491  0.2647  0.7273
 6792TIP3    H220341   0.386   5.293   2.814 -0.3817  1.2784 -0.5439
 6793TIP3   OH220342   1.192   5.779   5.087  0.2237  0.6168  0.3982
 6793TIP3    H120343   1.106   5.749   5.057  1.0154 -1.1037 -0.2789
 6793TIP3    H220344   1.205   5.735   5.171  0.9953 -0.2185 -0.1420
 6794TIP3   OH220345   1.661   3.480   2.355 -0.0461 -0.4447 -0.1055
 6794TIP3    H120346   1.702   3.545   2.411 -0.8492  0.4224 -0.5042
 6794TIP3    H220347   1.712   3.481   2.274  0.5288 -1.0158  0.2398
 6795TIP3   OH220348   3.176   1.471   4.317 -0.2914  0.0541  0.2912
 6795TIP3    H120349   3.252   1.452   4.262  0.2133 -0.6874  1.2085
 6795TIP3    H220350   3.118   1.522   4.261  2.5025  4.0975  0.6069
 6796TIP3   OH220351   5.203   3.314   1.435  0.0237  0.0041  0.2458
 6796TIP3    H120352   5.288   3.270   1.436 -0.0400 -0.1177  0.4498
 6796TIP3    H220353   5.217   3.393   1.383  0.6571  0.7862  1.5593
 6797TIP3   OH220354   5.432   2.345   4.504  0.1953  0.3065 -0.2595
 6797TIP3    H120355   5.496   2.286   4.466  1.3133  1.0413  0.4271
 6797TIP3    H220356   5.405   2.402   4.431  0.5566  0.2009 -0.4772
 6798TIP3   OH220357   4.958   0.107   5.604  0.4928 -0.3955 -0.4488
 6798TIP3    H120358   4.881   0.051   5.613 -0.3012  0.6462 -0.5015
 6798TIP3    H220359   5.014   0.083   5.678  0.4151 -1.5904 -0.7516
 6799TIP3   OH220360   1.899   6.354   2.679  0.6411 -0.0217 -0.1899
 6799TIP3    H120361   1.845   6.295   2.732 -0.4287  0.2137 -0.9941
 6799TIP3    H220362   1.867   6.343   2.590  0.6481  1.5265 -0.4109
 6800TIP3   OH220363   4.416   2.087   3.315 -0.0335  0.3241  0.1853
 6800TIP3    H120364   4.492   2.034   3.292 -0.9899 -0.6254 -0.9121
 6800TIP3    H220365   4.443   2.177   3.299  1.4590  0.1803  1.6063
 6801TIP3   OH220366   2.712   3.042   4.289 -0.2034  0.1686  0.1554
 6801TIP3    H120367   2.779   3.007   4.347 -1.1919 -0.5563  0.8884
 6801TIP3    H220368   2.655   3.094   4.345 -0.4442  0.5165 -0.3966
 6802TIP3   OH220369   5.068   2.798   1.363 -0.3827  0.1556 -0.6443
 6802TIP3    H120370   5.081   2.880   1.411 -1.1454  0.5245 -1.0684
 6802TIP3    H220371   5.140   2.797   1.300  1.6216 -1.0929  1.4651
 6803TIP3   OH220372   3.518   3.938   2.186  0.1049 -0.6219 -0.3148
 6803TIP3    H120373   3.440   3.909   2.139 -0.5871  0.5845  0.0560
 6803TIP3    H220374   3.525   4.031   2.164  1.0994 -0.5818  0.1412
 6804TIP3   OH220375   3.455   3.077   5.158  0.1783  0.3236  0.8340
 6804TIP3    H120376   3.497   3.120   5.083 -0.2705  1.1325  1.0313
 6804TIP3    H220377   3.526   3.031   5.202  0.9778  2.0156  1.4072
 6805TIP3   OH220378   3.144   5.717   0.841 -0.5337 -0.4245  0.1664
 6805TIP3    H120379   3.049   5.723   0.843 -0.6204 -1.1716 -0.8539
 6805TIP3    H220380   3.174   5.795   0.887 -1.6278  1.7289 -2.4715
 6806TIP3   OH220381   4.084   5.067   2.282 -0.0416  0.2029  0.5997
 6806TIP3    H120382   4.096   5.162   2.277  1.2143 -0.0004 -1.2199
 6806TIP3    H220383   4.102   5.045   2.373  1.0058  1.5688  0.7512
 6807TIP3   OH220384   3.110   6.322   3.354 -0.4047  0.1085 -0.4480
 6807TIP3    H120385   3.023   6.303   3.389 -0.6643 -1.5993 -1.8795
 6807TIP3    H220386   3.163   6.247   3.381 -0.2210 -0.4557 -2.2558
 6808TIP3   OH220387   6.676   6.662   4.257 -0.1016 -0.2782 -0.4740
 6808TIP3    H120388   6.581   6.659   4.269  0.0307 -0.3121  0.7399
 6808TIP3    H220389   6.699   6.753   4.279  0.2581 -0.5488  0.3130
 6809TIP3   OH220390   3.674   5.558   0.915 -0.3237 -0.2144 -0.2340
 6809TIP3    H120391   3.603   5.493   0.921 -1.7475  1.2838 -0.0662
 6809TIP3    H220392   3.735   5.521   0.851 -0.1641 -2.5177  1.1355
 6810TIP3   OH220393   6.053   1.502   0.676  0.8798 -0.2191 -0.2772
 6810TIP3    H120394   6.062   1.531   0.585 -0.3291  0.4659 -0.2004
 6810TIP3    H220395   6.007   1.418   0.670  2.2827 -1.0127 -0.3670
 6811TIP3   OH220396   4.926   5.665   3.295 -0.7314 -0.5826  0.7538
 6811TIP3    H120397   4.885   5.579   3.300 -2.0616  0.0369  0.7832
 6811TIP3    H220398   4.924   5.698   3.385  2.6088 -1.7447  1.3934
 6812TIP3   OH220399   7.092   0.115   2.474  0.0191 -0.0596  0.0306
 6812TIP3    H120400   7.131   0.065   2.402  1.1521  1.1387 -0.2451
 6812TIP3    H220401   7.080   0.052   2.544  0.2118 -0.9686 -0.7331
 6813TIP3   OH220402   5.127   4.556   5.608 -0.7473  0.1959 -0.6242
 6813TIP3    H120403   5.210   4.516   5.580 -1.3436 -1.6226  0.0353
 6813TIP3    H220404   5.126   4.641   5.565  1.9291  0.7238  0.1609
 6814TIP3   OH220405   1.077   4.725   4.391  0.5071 -0.3543  0.1749
 6814TIP3    H120406   1.016   4.766   4.331  0.5189 -0.8754 -0.2025
 6814TIP3    H220407   1.036   4.640   4.412  0.5919 -0.2608  0.7524
 6815TIP3   OH220408   4.650   0.615   4.095  0.3463  0.0061  0.4765
 6815TIP3    H120409   4.691   0.701   4.104 -1.1961  0.8610 -0.2329
 6815TIP3    H220410   4.560   0.634   4.072  0.8622 -1.7457 -4.0382
 6816TIP3   OH220411   0.190   6.553   0.710 -0.0287 -0.1332 -0.0172
 6816TIP3    H120412   0.215   6.640   0.679  0.5580 -0.7210 -1.2795
 6816TIP3    H220413   0.135   6.517   0.640  0.0176 -0.8983  0.3283
 6817TIP3   OH220414   4.296   0.636   1.741  0.3195 -0.1147  0.1557
 6817TIP3    H120415   4.284   0.716   1.791  0.6027 -0.7827  1.3462
 6817TIP3    H220416   4.321   0.665   1.654  1.2594  1.0989  0.7959
 6818TIP3   OH220417   0.284   4.151   5.814 -0.7594 -0.2792  0.3856
 6818TIP3    H120418   0.269   4.058   5.829 -1.3485 -0.5222 -1.4868
 6818TIP3    H220419   0.331   4.181   5.892 -1.4051 -1.9169  1.4483
 6819TIP3   OH220420   4.197   0.860   0.110  0.7750  0.5348  0.0165
 6819TIP3    H120421   4.179   0.874   0.204  1.7293 -0.4280  0.3548
 6819TIP3    H220422   4.206   0.766   0.101  1.0568  0.6489 -0.9986
 6820TIP3   OH220423   5.343   5.134   2.146 -0.1086  0.2564 -0.6119
 6820TIP3    H120424   5.315   5.206   2.202 -0.6869 -0.7343  0.4236
 6820TIP3    H220425   5.268   5.074   2.145  0.8007 -0.9366 -0.3799
 6821TIP3   OH220426   1.627   6.288   3.218  0.9700  0.0659  0.1785
 6821TIP3    H120427   1.660   6.371   3.251  0.6749 -0.1738  1.1030
 6821TIP3    H220428   1.698   6.226   3.234  0.4883 -0.2390  1.2313
 6822TIP3   OH220429   1.134   5.361   2.594  0.1989 -0.6168  0.0079
 6822TIP3    H120430   1.205   5.425   2.597  0.4431 -0.9279  1.0932
 6822TIP3    H220431   1.146   5.317   2.509  1.4717 -0.8469  0.2814
 6823TIP3   OH220432   6.918   0.180   2.751 -0.3059 -0.3122 -0.1360
 6823TIP3    H120433   7.013   0.183   2.757 -0.3086 -1.6830  1.3366
 6823TIP3    H220434   6.888   0.257   2.799  0.0363  0.2135 -0.7470
 6824TIP3   OH220435   4.687   3.519   2.323 -0.0899  0.0793 -0.3022
 6824TIP3    H120436   4.757   3.480   2.270 -0.4048 -0.7092 -0.1544
 6824TIP3    H220437   4.693   3.474   2.407  0.5140  1.4413  0.4029
 6825TIP3   OH220438   5.988   5.025   5.075  0.4912 -0.2680 -0.1456
 6825TIP3    H120439   5.972   4.967   5.000  0.5872 -0.0846 -0.3080
 6825TIP3    H220440   5.941   5.106   5.053  1.5075  0.2238 -0.5582
 6826TIP3   OH220441   1.163   6.032   3.005  0.5415 -0.2326  0.5340
 6826TIP3    H120442   1.171   5.948   3.050  0.4104 -1.0613 -0.9323
 6826TIP3    H220443   1.090   6.076   3.048 -0.0082 -1.2763  0.6838
 6827TIP3   OH220444   1.940   5.054   4.368  0.2865 -0.2718 -0.2460
 6827TIP3    H120445   1.996   5.123   4.334 -0.3453 -0.4762 -1.7701
 6827TIP3    H220446   1.975   4.973   4.330  1.1641 -0.8700  1.7048
 6828TIP3   OH220447   2.716   0.769   4.463  0.2680 -0.7605 -0.3623
 6828TIP3    H120448   2.781   0.806   4.404  2.6208 -0.7736  2.0258
 6828TIP3    H220449   2.711   0.676   4.439  0.7351 -0.6401 -0.9375
 6829TIP3   OH220450   0.708   6.193   3.485 -0.3661 -0.6072  0.0087
 6829TIP3    H120451   0.635   6.248   3.512  0.3450  1.5573 -2.0928
 6829TIP3    H220452   0.672   6.105   3.481 -2.4380  0.1704  0.4728
 6830TIP3   OH220453   3.819   6.754   1.520 -0.3098 -0.2119  0.1030
 6830TIP3    H120454   3.743   6.728   1.572 -0.2154 -1.2292 -0.2465
 6830TIP3    H220455   3.895   6.720   1.568 -0.2070 -0.9502 -0.5715
 6831TIP3   OH220456   5.290   5.359   0.383 -0.0754 -1.1582  0.5876
 6831TIP3    H120457   5.245   5.388   0.463 -2.1959 -1.8137 -0.3052
 6831TIP3    H220458   5.266   5.267   0.374  1.8327 -1.6690  0.2655
 6832TIP3   OH220459   1.889   1.902   0.533  0.0055 -0.0563  0.4710
 6832TIP3    H120460   1.939   1.873   0.457  2.7642 -1.7468  2.7461
 6832TIP3    H220461   1.810   1.847   0.532  1.5422 -2.3825  0.5329
 6833TIP3   OH220462   1.451   6.768   5.477  0.0064 -0.3117 -0.0115
 6833TIP3    H120463   1.428   6.680   5.448  0.5003 -0.5079  0.1878
 6833TIP3    H220464   1.388   6.788   5.546 -0.0407 -0.5488  0.0143
 6834TIP3   OH220465   2.673   6.571   5.380 -0.2424 -0.1585  0.3196
 6834TIP3    H120466   2.674   6.663   5.354  0.8940 -0.5546 -1.1896
 6834TIP3    H220467   2.676   6.573   5.475 -2.5709  1.3699  0.4336
 6835TIP3   OH220468   6.305   1.606   0.738 -0.0744  0.0897 -0.3840
 6835TIP3    H120469   6.328   1.556   0.660  1.1484  1.1664 -0.7518
 6835TIP3    H220470   6.213   1.585   0.755 -0.5845  0.4037 -2.5547
 6836TIP3   OH220471   5.176   2.123   5.135  1.0302  0.2578  0.2537
 6836TIP3    H120472   5.145   2.181   5.066  1.7840  1.0890  0.6069
 6836TIP3    H220473   5.191   2.179   5.210  0.1291 -0.6520  1.1510
 6837TIP3   OH220474   3.718   5.791   3.391 -0.2430 -1.5686 -0.5418
 6837TIP3    H120475   3.742   5.882   3.373 -0.8185 -1.1958  0.4895
 6837TIP3    H220476   3.767   5.768   3.470 -1.5522 -1.5041  0.3283
 6838TIP3   OH220477   6.806   0.452   2.712  0.4510 -0.2146  0.1627
 6838TIP3    H120478   6.873   0.418   2.652  0.0964 -1.1918  0.3065
 6838TIP3    H220479   6.724   0.414   2.680  0.4033 -1.7695  1.9785
 6839TIP3   OH220480   4.615   4.602   0.432 -0.4298  0.1114 -0.1411
 6839TIP3    H120481   4.551   4.609   0.503 -0.3418 -0.9223  0.0472
 6839TIP3    H220482   4.564   4.614   0.352 -1.5609 -3.9803 -0.2361
 6840TIP3   OH220483   1.970   6.100   1.985 -0.0362 -0.5304 -0.2863
 6840TIP3    H120484   1.886   6.078   2.023  0.5487 -0.0901  1.3329
 6840TIP3    H220485   1.955   6.182   1.938 -0.5602 -0.5822 -0.2065
 6841TIP3   OH220486   6.160   4.935   3.599  0.1947 -0.5372 -0.4905
 6841TIP3    H120487   6.077   4.934   3.550 -0.3764 -0.0196  0.4407
 6841TIP3    H220488   6.151   4.866   3.664 -0.5286  1.0939  1.2137
 6842TIP3   OH220489   5.052   5.961   5.708 -0.3337 -0.1916 -0.6618
 6842TIP3    H120490   4.988   5.960   5.779  0.3126 -1.2593 -0.0614
 6842TIP3    H220491   5.134   5.988   5.750 -0.1925  0.3108 -1.2416
 6843TIP3   OH220492   1.582   1.095   3.342  0.4687 -0.3700  0.0583
 6843TIP3    H120493   1.547   1.184   3.346  1.0122 -0.1507  0.1376
 6843TIP3    H220494   1.593   1.069   3.434  1.3305 -0.0934  0.0460
 6844TIP3   OH220495   7.025   4.925   0.433  0.0587 -0.1234 -0.5530
 6844TIP3    H120496   6.965   4.878   0.376 -0.9997  0.6963 -0.1411
 6844TIP3    H220497   7.112   4.900   0.402 -0.4014 -2.9271  0.1186
 6845TIP3   OH220498   1.737   5.954   2.041 -0.2005 -0.0159  0.5810
 6845TIP3    H120499   1.750   5.925   2.132  0.0114 -1.0519  0.2261
 6845TIP3    H220500   1.795   5.899   1.989 -0.6895  0.2335 -0.2496
 6846TIP3   OH220501   2.823   2.621   3.321  0.1193 -0.2307 -0.7971
 6846TIP3    H120502   2.832   2.533   3.284  1.7078  0.5695 -2.4383
 6846TIP3    H220503   2.745   2.615   3.377 -0.3564 -2.4194 -1.5873
 6847TIP3   OH220504   4.965   3.259   5.791 -0.0582  0.0855 -0.5619
 6847TIP3    H120505   4.892   3.271   5.730 -1.3883  1.3665  1.1715
 6847TIP3    H220506   4.938   3.185   5.846 -0.5288  1.1055  0.6457
 6848TIP3   OH220507   1.968   3.160   3.872 -0.1496  0.4984 -0.2823
 6848TIP3    H120508   2.000   3.199   3.790  0.5982 -1.5888 -1.0597
 6848TIP3    H220509   1.898   3.101   3.845 -1.0531  1.0304  0.8131
 6849TIP3   OH220510   0.277   2.970   0.929 -0.0286  0.0348 -0.1707
 6849TIP3    H120511   0.299   2.880   0.902 -2.0046 -0.7978  0.7937
 6849TIP3    H220512   0.239   3.010   0.851  1.0097  0.1257 -0.6534
 6850TIP3   OH220513   4.315   4.644   5.220  0.8472  0.2530  0.4065
 6850TIP3    H120514   4.258   4.577   5.256  0.7185  0.6331  0.9266
 6850TIP3    H220515   4.387   4.596   5.180  0.1674 -0.2307 -0.2626
 6851TIP3   OH220516   4.083   3.208   3.726  0.4126 -0.6126 -0.0547
 6851TIP3    H120517   4.146   3.277   3.704  0.5360 -0.8279 -0.3797
 6851TIP3    H220518   4.138   3.131   3.744  0.3910 -0.2428  1.8626
 6852TIP3   OH220519   6.625   6.375   0.782 -0.1615 -0.1827 -0.3087
 6852TIP3    H120520   6.660   6.459   0.755 -0.5222 -0.2568 -1.0340
 6852TIP3    H220521   6.636   6.318   0.706 -1.4686 -0.3127 -0.4263
 6853TIP3   OH220522   1.504   5.602   0.968 -0.3090 -0.0931 -0.3516
 6853TIP3    H120523   1.465   5.624   0.883  0.0652 -2.6871 -1.2800
 6853TIP3    H220524   1.446   5.535   1.005  0.1831  0.1481  0.9060
 6854TIP3   OH220525   4.751   5.585   3.668  0.0563 -0.0969  0.2849
 6854TIP3    H120526   4.716   5.644   3.735  0.1971 -1.6246  1.7687
 6854TIP3    H220527   4.824   5.633   3.629 -0.8436  1.3364  0.2836
 6855TIP3   OH220528   3.761   6.174   4.855 -0.7408  0.2128  0.4080
 6855TIP3    H120529   3.796   6.202   4.940 -1.1191  0.4959  0.4748
 6855TIP3    H220530   3.672   6.143   4.874 -0.9156  0.5007  0.0836
 6856TIP3   OH220531   0.750   0.336   1.183 -0.1841  0.4627 -0.6752
 6856TIP3    H120532   0.842   0.318   1.165 -0.5176 -1.4120 -0.7170
 6856TIP3    H220533   0.713   0.359   1.098 -0.0219 -0.1502 -0.9212
 6857TIP3   OH220534   0.622   6.732   3.713 -0.0122  0.4562 -0.0460
 6857TIP3    H120535   0.604   6.799   3.648 -0.0576 -1.1303 -1.7376
 6857TIP3    H220536   0.648   6.655   3.663 -2.0612 -1.4913  1.6616
 6858TIP3   OH220537   6.935   3.488   2.192  0.1756 -0.3191  0.2238
 6858TIP3    H120538   6.996   3.560   2.210  0.5831 -0.9720  1.5947
 6858TIP3    H220539   6.849   3.531   2.184  0.4939  0.3842  0.4902
 6859TIP3   OH220540   3.697   6.335   4.458  0.2620 -0.5417  0.1662
 6859TIP3    H120541   3.641   6.360   4.384  0.7648  1.6369  0.4742
 6859TIP3    H220542   3.784   6.367   4.434  0.6881 -0.9124  1.1655
 6860TIP3   OH220543   6.678   5.204   0.381 -0.0481 -1.0033  0.4884
 6860TIP3    H120544   6.685   5.265   0.307 -0.7560  0.5953  1.6561
 6860TIP3    H220545   6.766   5.168   0.391  0.5177  0.1749  0.0186
 6861TIP3   OH220546   0.394   1.898   4.869 -0.9110  0.4021 -0.3886
 6861TIP3    H120547   0.407   1.813   4.911  2.9739  1.2074  0.3957
 6861TIP3    H220548   0.356   1.954   4.937 -0.8310  0.0244 -0.0308
 6862TIP3   OH220549   4.114   6.078   4.429  0.5032 -0.5624  0.2128
 6862TIP3    H120550   4.020   6.097   4.438  0.0352 -2.5995  0.1347
 6862TIP3    H220551   4.125   6.058   4.336  1.3017  0.8286 -0.0274
 6863TIP3   OH220552   3.664   5.788   1.864  0.7032 -0.0591  0.8983
 6863TIP3    H120553   3.641   5.851   1.931 -0.2488  0.2250  0.3365
 6863TIP3    H220554   3.581   5.743   1.845  1.1013 -0.5916  0.3969
 6864TIP3   OH220555   2.714   4.314   1.314  0.3144  0.4204  0.1317
 6864TIP3    H120556   2.686   4.233   1.271  0.9424  0.2330  0.0686
 6864TIP3    H220557   2.719   4.292   1.407 -2.4347  1.2065  0.5515
 6865TIP3   OH220558   4.299   1.615   0.463  0.4908 -0.1790  0.3377
 6865TIP3    H120559   4.245   1.672   0.518  1.1953  0.6808  0.1570
 6865TIP3    H220560   4.322   1.542   0.520  2.1901  1.2680  1.5965
 6866TIP3   OH220561   3.114   4.289   4.145  0.0889 -0.4809 -0.5074
 6866TIP3    H120562   3.114   4.233   4.068  0.4068 -1.2089  0.0178
 6866TIP3    H220563   3.118   4.378   4.109 -0.1549 -0.7939 -1.3351
 6867TIP3   OH220564   6.254   6.194   3.652 -0.2905 -0.8162 -0.1357
 6867TIP3    H120565   6.258   6.274   3.704 -0.5908 -0.8173 -0.1097
 6867TIP3    H220566   6.271   6.124   3.715  2.7797 -0.6465 -0.6000
 6868TIP3   OH220567   2.196   1.156   3.349  0.1114  0.4485 -0.4810
 6868TIP3    H120568   2.104   1.133   3.334 -0.1049  1.7307 -1.2390
 6868TIP3    H220569   2.217   1.116   3.433 -1.0846 -0.0015 -0.3730
 6869TIP3   OH220570   2.499   3.570   3.855  0.1572  0.0639  0.0547
 6869TIP3    H120571   2.515   3.523   3.773  0.1130 -1.2656  0.7682
 6869TIP3    H220572   2.537   3.513   3.922 -2.1194 -0.2229  1.2134
 6870TIP3   OH220573   4.657   4.234   1.113  0.0617  0.4019  0.0117
 6870TIP3    H120574   4.673   4.323   1.080 -3.6144  1.8016  1.5332
 6870TIP3    H220575   4.637   4.183   1.034  0.8587  1.2108 -0.7521
 6871TIP3   OH220576   0.253   4.937   1.819  0.3037 -0.9287  0.0683
 6871TIP3    H120577   0.288   5.010   1.768  1.1582 -1.0075  0.5376
 6871TIP3    H220578   0.330   4.889   1.849 -0.1078 -0.1999  2.4618
 6872TIP3   OH220579   4.372   6.544   4.716 -0.0588  0.3441 -0.1813
 6872TIP3    H120580   4.386   6.536   4.810 -0.7499  1.8244  0.0801
 6872TIP3    H220581   4.400   6.460   4.680 -2.3789 -1.3135  1.6333
 6873TIP3   OH220582   6.973   6.699   2.555  0.9021 -0.2177  0.0590
 6873TIP3    H120583   7.019   6.637   2.499  0.2588  1.1401 -2.0816
 6873TIP3    H220584   7.009   6.785   2.532 -0.1575  0.5045  0.9519
 6874TIP3   OH220585   4.936   4.636   4.995  0.2075  0.0630 -0.1406
 6874TIP3    H120586   4.895   4.684   5.067 -0.4017 -1.8481  0.8421
 6874TIP3    H220587   4.889   4.553   4.991  1.7179 -0.7947 -1.2812
 6875TIP3   OH220588   2.928   1.689   1.636 -0.6822 -0.0177 -0.2891
 6875TIP3    H120589   2.854   1.713   1.579 -1.0106  1.1500  0.5951
 6875TIP3    H220590   3.005   1.719   1.588 -0.6510 -2.0695 -1.6537
 6876TIP3   OH220591   4.966   4.276   3.215 -0.1391 -0.0369 -0.0085
 6876TIP3    H120592   5.052   4.282   3.258  0.2059 -0.1574 -0.6724
 6876TIP3    H220593   4.903   4.273   3.287  0.5639 -2.9701  0.6105
 6877TIP3   OH220594   6.596   1.376   1.460  0.4624 -0.0962 -0.4876
 6877TIP3    H120595   6.691   1.378   1.458  0.5454  0.7594  1.6148
 6877TIP3    H220596   6.574   1.284   1.474  1.1340  0.0087  1.5632
 6878TIP3   OH220597   5.274   1.657   1.097 -0.2577  0.1795  0.0179
 6878TIP3    H120598   5.354   1.686   1.140  0.1827 -0.5814 -0.2691
 6878TIP3    H220599   5.206   1.716   1.129  0.2202  0.1762  1.0704
 6879TIP3   OH220600   6.556   5.149   4.920 -0.0464  0.1841  0.3676
 6879TIP3    H120601   6.609   5.176   4.995 -0.2533 -1.1819  1.0423
 6879TIP3    H220602   6.589   5.062   4.898 -0.3932  0.3266 -0.7627
 6880TIP3   OH220603   6.704   2.871   4.684 -0.3359 -0.5507 -0.3418
 6880TIP3    H120604   6.738   2.844   4.769 -0.3976 -0.9547 -0.4407
 6880TIP3    H220605   6.782   2.885   4.630 -0.2907 -2.4698 -0.8750
 6881TIP3   OH220606   2.833   2.818   5.020  0.0591 -0.4842 -0.0707
 6881TIP3    H120607   2.739   2.825   5.036  0.2652  0.7338  0.8102
 6881TIP3    H220608   2.872   2.883   5.079  1.3726 -0.1542 -1.2489
 6882TIP3   OH220609   0.484   3.973   0.383 -0.2584 -0.6642  0.1062
 6882TIP3    H120610   0.491   3.978   0.287  0.8466 -0.7955  0.1697
 6882TIP3    H220611   0.407   3.917   0.397 -2.1755  1.6063 -0.6521
 6883TIP3   OH220612   0.061   3.487   4.728 -0.4310 -0.2229 -0.8305
 6883TIP3    H120613  -0.017   3.529   4.765 -1.3942 -2.5612 -0.0210
 6883TIP3    H220614   0.027   3.430   4.659  0.8976  0.6924 -2.3170
 6884TIP3   OH220615   2.977   6.134   1.086  0.4261 -0.1204 -0.0816
 6884TIP3    H120616   3.056   6.179   1.115  1.5090 -1.5907 -0.6114
 6884TIP3    H220617   2.952   6.079   1.160  0.4279 -0.3321 -0.2377
 6885TIP3   OH220618   3.261   2.343   3.030 -0.4782  0.4551 -0.7249
 6885TIP3    H120619   3.284   2.428   2.992 -0.8382  0.5068 -0.8268
 6885TIP3    H220620   3.191   2.362   3.092 -0.8773  0.1703 -1.0838
 6886TIP3   OH220621   5.649   5.081   2.501  0.6622  0.4788 -0.4258
 6886TIP3    H120622   5.564   5.061   2.462  0.3029  0.1718  0.4735
 6886TIP3    H220623   5.633   5.154   2.560  0.4207 -1.1480  1.6740
 6887TIP3   OH220624   5.767   2.061   3.627  0.5626  0.3463  0.0531
 6887TIP3    H120625   5.761   1.992   3.693  3.1919 -0.2980 -0.2656
 6887TIP3    H220626   5.746   2.017   3.545  0.5258  0.3465  0.0624
 6888TIP3   OH220627   0.532   5.698   0.885 -0.2629  0.2828  0.4277
 6888TIP3    H120628   0.543   5.634   0.955  0.0232 -0.3135 -0.1528
 6888TIP3    H220629   0.472   5.655   0.824  1.5966 -0.3384 -1.0343
 6889TIP3   OH220630   4.511   6.713   1.166 -0.2875 -0.1703 -0.4916
 6889TIP3    H120631   4.436   6.665   1.202 -0.0745  0.4786  0.9044
 6889TIP3    H220632   4.586   6.657   1.183 -0.3812 -0.5629 -1.3650
 6890TIP3   OH220633   4.479   3.789   4.426  0.0619  0.3483  1.0041
 6890TIP3    H120634   4.521   3.844   4.491  0.0391  0.3167  1.0457
 6890TIP3    H220635   4.477   3.842   4.346  1.9014 -0.3197  0.4633
 6891TIP3   OH220636   3.133   6.104   0.725  0.1169 -0.1153  0.0314
 6891TIP3    H120637   3.214   6.058   0.701 -0.7766 -1.6854 -0.1358
 6891TIP3    H220638   3.151   6.196   0.706  1.4517 -0.5831 -1.1647
 6892TIP3   OH220639   6.783   1.514   4.564 -0.0551  0.5652  0.3434
 6892TIP3    H120640   6.711   1.512   4.501  0.7592 -0.8695 -0.5872
 6892TIP3    H220641   6.840   1.585   4.533 -0.2550  0.6536  0.1774
 6893TIP3   OH220642   0.842   5.600   3.114 -0.2536 -0.2275 -0.1293
 6893TIP3    H120643   0.852   5.517   3.161  0.2293  0.0952  0.3561
 6893TIP3    H220644   0.749   5.622   3.123 -0.1086  0.0171  1.0335
 6894TIP3   OH220645   5.332   1.992   0.543 -0.4621  0.4723 -0.1677
 6894TIP3    H120646   5.252   2.027   0.583 -1.1561  0.1480 -1.2286
 6894TIP3    H220647   5.315   1.898   0.535 -0.1173  0.4543 -0.7226
 6895TIP3   OH220648   3.574   1.060   1.666  0.2925  0.3221 -0.0235
 6895TIP3    H120649   3.486   1.093   1.646  0.5020  0.9403  0.0515
 6895TIP3    H220650   3.627   1.139   1.677  1.1621 -0.0430 -1.3520
 6896TIP3   OH220651   4.397   2.998   4.324 -0.1366  0.4047 -0.0735
 6896TIP3    H120652   4.453   3.040   4.260  0.2341  2.6824  1.6362
 6896TIP3    H220653   4.457   2.947   4.379 -0.4932 -1.8530 -1.6333
 6897TIP3   OH220654   2.517   2.987   0.440  0.5978  0.0616 -0.2887
 6897TIP3    H120655   2.501   3.079   0.417  0.3143  0.5183  1.5925
 6897TIP3    H220656   2.552   2.990   0.529 -0.4626 -1.7282  0.2386
 6898TIP3   OH220657   3.633   0.762   4.748  0.7968  0.0452  0.2249
 6898TIP3    H120658   3.721   0.726   4.754  0.0356 -2.2912 -1.2428
 6898TIP3    H220659   3.585   0.722   4.820  0.2175 -1.1349 -0.7735
 6899TIP3   OH220660   5.994   1.963   4.369  0.1878  0.6325  0.0486
 6899TIP3    H120661   6.035   1.939   4.286  0.8149 -0.8202  0.7359
 6899TIP3    H220662   5.966   2.054   4.358  1.2805  0.8189 -1.3377
 6900TIP3   OH220663   2.537   4.472   2.307  0.3666 -0.7056 -0.3002
 6900TIP3    H120664   2.452   4.450   2.270 -0.9949  1.3870  1.3406
 6900TIP3    H220665   2.588   4.505   2.233 -1.9567  2.5224 -0.6756
 6901TIP3   OH220666   0.973   6.700   3.491 -0.1338  0.3951  0.2137
 6901TIP3    H120667   0.935   6.776   3.535 -2.3155 -0.7622  0.4664
 6901TIP3    H220668   1.067   6.711   3.502 -0.4236  2.5457  1.0800
 6902TIP3   OH220669   1.897   0.117   3.194 -0.1896 -0.6369  0.5801
 6902TIP3    H120670   1.991   0.133   3.208  0.1573 -2.0761  0.0531
 6902TIP3    H220671   1.894   0.037   3.141 -1.7120 -0.3946  0.2566
 6903TIP3   OH220672   0.355   4.193   2.849  0.2760  0.1529  0.7617
 6903TIP3    H120673   0.370   4.281   2.815 -2.3552 -0.4359 -2.4629
 6903TIP3    H220674   0.403   4.136   2.790  0.9559 -0.6981  2.0852
 6904TIP3   OH220675   1.937   0.347   4.072 -0.5434 -0.4065  0.2287
 6904TIP3    H120676   2.025   0.382   4.059 -1.2785  0.9205 -1.4866
 6904TIP3    H220677   1.901   0.397   4.145 -0.0718 -0.5844  0.5844
 6905TIP3   OH220678   1.304   3.148   0.068  0.0355  0.4322 -0.2228
 6905TIP3    H120679   1.284   3.094   0.144 -2.2992  1.4085 -0.0644
 6905TIP3    H220680   1.253   3.109  -0.003  1.0770  0.3811 -0.9725
 6906TIP3   OH220681   6.703   1.117   1.656 -0.3757 -0.2113  0.1227
 6906TIP3    H120682   6.631   1.116   1.592  1.3857 -0.9598 -1.9475
 6906TIP3    H220683   6.712   1.210   1.680 -0.8311  0.1373 -1.0009
 6907TIP3   OH220684   0.225   6.771   5.711  0.1568 -0.2517 -0.0132
 6907TIP3    H120685   0.153   6.781   5.648  0.0774 -1.3900 -0.1219
 6907TIP3    H220686   0.217   6.680   5.742  0.9017 -0.0598  0.7748
 6908TIP3   OH220687   3.015   6.530   4.216  0.6107 -0.6552  0.6086
 6908TIP3    H120688   3.031   6.440   4.243  0.5284 -0.7896  0.2171
 6908TIP3    H220689   3.053   6.536   4.128  1.1715 -0.1334  0.8820
 6909TIP3   OH220690   5.037   0.577   3.574  0.1574 -0.0547  0.4042
 6909TIP3    H120691   4.989   0.494   3.565 -0.6498  0.5718 -1.8389
 6909TIP3    H220692   5.027   0.601   3.666  0.5804 -2.5093  1.1689
 6910TIP3   OH220693   4.400   5.564   1.294 -0.2776 -0.1796  0.0274
 6910TIP3    H120694   4.425   5.646   1.253 -0.7240 -1.1763 -2.4337
 6910TIP3    H220695   4.305   5.570   1.306 -0.1011  0.2544  1.3428
 6911TIP3   OH220696   0.739   6.688   3.965 -0.2998 -0.1498 -0.5853
 6911TIP3    H120697   0.816   6.740   3.943 -0.0341 -0.0386  0.5432
 6911TIP3    H220698   0.680   6.698   3.890  0.4417  0.4247 -1.0970
 6912TIP3   OH220699   6.898   2.620   2.553  0.2084  0.6229  0.1676
 6912TIP3    H120700   6.813   2.610   2.511 -0.4969  1.6374  1.2821
 6912TIP3    H220701   6.938   2.533   2.548 -0.6642  0.2663 -0.8322
 6913TIP3   OH220702   6.430   6.555   1.590  0.4929 -0.3819  0.1538
 6913TIP3    H120703   6.496   6.518   1.648  1.7633 -1.5203 -1.8928
 6913TIP3    H220704   6.383   6.479   1.555  0.6222  0.1551 -1.2674
 6914TIP3   OH220705   6.426   0.701   5.088 -0.3859 -0.0533  0.2251
 6914TIP3    H120706   6.364   0.663   5.150 -0.1564  1.4414  1.4314
 6914TIP3    H220707   6.511   0.667   5.115 -0.3614  0.0477  0.2720
 6915TIP3   OH220708   2.503   5.526   4.781 -0.9885 -0.0616  0.1363
 6915TIP3    H120709   2.586   5.552   4.739 -0.1236 -2.5743  0.0950
 6915TIP3    H220710   2.525   5.446   4.829 -3.8776 -2.4571 -2.0820
 6916TIP3   OH220711   2.351   6.710   5.307 -0.6429  0.1238 -0.3542
 6916TIP3    H120712   2.356   6.686   5.400  1.0436 -0.6931 -0.6175
 6916TIP3    H220713   2.432   6.757   5.290 -2.0848  2.6403 -0.8507
 6917TIP3   OH220714   5.011   2.210   4.164  0.4222 -0.2934 -0.0358
 6917TIP3    H120715   5.066   2.192   4.088  0.2166  0.5297 -0.3855
 6917TIP3    H220716   4.954   2.133   4.172  0.4762 -0.3996 -0.6744
 6918TIP3   OH220717   6.296   3.414   2.405  0.3781 -0.9726 -0.2989
 6918TIP3    H120718   6.351   3.423   2.327  0.5027 -0.9419 -0.2067
 6918TIP3    H220719   6.271   3.503   2.428  1.4580 -0.8661  0.5013
 6919TIP3   OH220720   6.591   4.999   1.137 -0.1544  0.0322  0.5927
 6919TIP3    H120721   6.667   5.037   1.182  0.3269  1.6119 -1.4321
 6919TIP3    H220722   6.622   4.913   1.109  0.6732  0.3792  0.3885
 6920TIP3   OH220723   0.649   3.616   2.111 -0.1181  0.3967  0.0980
 6920TIP3    H120724   0.704   3.598   2.187  0.8476  0.1436 -0.6473
 6920TIP3    H220725   0.701   3.586   2.036 -1.7391 -0.9960 -0.5405
 6921TIP3   OH220726   5.243   0.526   3.768  0.2899  0.2062 -0.5849
 6921TIP3    H120727   5.217   0.618   3.765 -0.3246  0.0150 -1.1891
 6921TIP3    H220728   5.199   0.491   3.846 -1.3296 -0.1256 -1.6204
 6922TIP3   OH220729   5.152   6.328   1.894  0.2754 -0.4178  0.3322
 6922TIP3    H120730   5.121   6.344   1.983  0.6443  0.9820  0.2250
 6922TIP3    H220731   5.237   6.371   1.890 -1.5271  3.4193 -1.9448
 6923TIP3   OH220732   6.180   6.655   3.390 -0.3083  0.2885  0.7645
 6923TIP3    H120733   6.265   6.627   3.425  0.0213 -2.2050 -1.6857
 6923TIP3    H220734   6.130   6.574   3.381 -2.5899  1.5884  1.1139
 6924TIP3   OH220735   5.563   2.878   5.497 -0.1620  0.1167  0.5769
 6924TIP3    H120736   5.539   2.860   5.406  1.3156  1.6302 -0.1581
 6924TIP3    H220737   5.485   2.852   5.547 -2.3550  2.3486 -1.3937
 6925TIP3   OH220738   5.551   0.545   5.255  0.0072  0.3530  0.3060
 6925TIP3    H120739   5.592   0.604   5.318  1.1891 -0.9974  0.8529
 6925TIP3    H220740   5.470   0.517   5.297  0.5594 -0.1687  1.0558
 6926TIP3   OH220741   6.290   4.510   3.136 -0.7150 -0.2351  0.6028
 6926TIP3    H120742   6.379   4.545   3.139 -1.3218  1.4044  0.2070
 6926TIP3    H220743   6.236   4.576   3.179 -2.0803 -0.1003 -1.2358
 6927TIP3   OH220744   7.176   1.395   3.264 -0.2725 -0.7397  0.4893
 6927TIP3    H120745   7.124   1.436   3.195 -0.0044 -1.3225 -0.0809
 6927TIP3    H220746   7.114   1.376   3.334 -0.3252  1.0046  0.9565
 6928TIP3   OH220747   3.692   3.972   4.975  0.6790 -0.2344  0.3986
 6928TIP3    H120748   3.691   4.059   4.935  1.3784  0.7959  2.4426
 6928TIP3    H220749   3.783   3.943   4.968  0.5285 -0.6344  0.0754
 6929TIP3   OH220750   0.761   1.746   0.784  0.4541 -0.1893  0.1519
 6929TIP3    H120751   0.724   1.751   0.872 -0.2163 -0.3650 -0.1140
 6929TIP3    H220752   0.692   1.707   0.730  0.9058 -0.2191 -0.4263
 6930TIP3   OH220753   4.311   4.977   3.831 -0.6320  0.3054  0.2780
 6930TIP3    H120754   4.231   5.030   3.825  0.0002  1.3090  0.4366
 6930TIP3    H220755   4.353   5.007   3.912 -0.6856 -1.0709  0.8363
 6931TIP3   OH220756   5.661   4.341   4.409  0.1797 -0.6714  0.4244
 6931TIP3    H120757   5.752   4.347   4.438 -0.2287 -0.6750  1.7477
 6931TIP3    H220758   5.610   4.382   4.479 -0.9776 -2.1916  0.5212
 6932TIP3   OH220759   1.223   3.695   3.743  0.5367 -0.5916  0.5040
 6932TIP3    H120760   1.173   3.750   3.804  0.8924  0.2441  0.0634
 6932TIP3    H220761   1.315   3.714   3.765  0.6746  0.2122 -0.7111
 6933TIP3   OH220762   0.354   2.850   1.948 -0.0199  0.1181  0.4029
 6933TIP3    H120763   0.269   2.847   1.905  0.4108 -0.4696 -0.4231
 6933TIP3    H220764   0.407   2.907   1.893  0.8928 -1.5699 -0.5462
 6934TIP3   OH220765   0.435   5.093   1.670 -0.8379 -0.1960 -0.4453
 6934TIP3    H120766   0.475   5.152   1.734 -0.8812 -0.7564  0.1074
 6934TIP3    H220767   0.417   5.148   1.594  2.9909 -0.3301 -1.6268
 6935TIP3   OH220768   6.364   0.609   1.038 -0.0189  0.5742 -0.1517
 6935TIP3    H120769   6.351   0.636   1.129  2.9748 -0.3110  0.6505
 6935TIP3    H220770   6.374   0.690   0.989  1.5638  1.0646  0.9242
 6936TIP3   OH220771   5.984   3.398   2.305  0.0330 -1.1913  0.0343
 6936TIP3    H120772   6.010   3.327   2.364 -1.1051 -1.8337 -0.2244
 6936TIP3    H220773   6.057   3.406   2.244  0.7431 -1.2534  0.8520
 6937TIP3   OH220774   1.730   4.578   0.676  0.5269  0.3918  0.3306
 6937TIP3    H120775   1.635   4.586   0.671  0.2006 -1.4622  2.1951
 6937TIP3    H220776   1.762   4.668   0.676 -1.0156  1.0570 -2.2536
 6938TIP3   OH220777   5.713   1.669   4.317 -0.5124  0.3367  0.3846
 6938TIP3    H120778   5.681   1.583   4.344 -0.0552 -0.2378 -0.8417
 6938TIP3    H220779   5.692   1.726   4.391 -1.4040 -0.6853  0.9525
 6939TIP3   OH220780   1.205   5.361   0.138 -0.4106 -0.9944 -0.6091
 6939TIP3    H120781   1.227   5.269   0.150 -2.9661 -1.4666  1.5431
 6939TIP3    H220782   1.169   5.388   0.223 -2.2803  1.1618 -1.9685
 6940TIP3   OH220783   1.117   3.814   4.970 -0.2868 -0.7323  0.4091
 6940TIP3    H120784   1.176   3.878   5.011 -0.4465 -0.9914  1.0526
 6940TIP3    H220785   1.068   3.866   4.906 -0.4133 -0.2045  0.9223
 6941TIP3   OH220786   1.392   0.315   3.709  0.2542  0.5026  0.0128
 6941TIP3    H120787   1.323   0.378   3.729 -1.3792 -1.3966  0.6244
 6941TIP3    H220788   1.420   0.338   3.620 -2.5390  0.1634 -1.0410
 6942TIP3   OH220789   2.534   2.898   5.156 -0.2754  0.1742  0.1923
 6942TIP3    H120790   2.517   2.810   5.191 -0.1056  0.7591  1.8193
 6942TIP3    H220791   2.454   2.920   5.108 -0.8379 -0.3620  0.8588
 6943TIP3   OH220792   6.346  -0.012   0.389 -0.4252  0.4070 -0.3443
 6943TIP3    H120793   6.364   0.082   0.388  0.1506  0.3126  0.3197
 6943TIP3    H220794   6.326  -0.032   0.480  1.3910 -0.4474 -0.0827
 6944TIP3   OH220795   1.209   0.779   3.236 -0.2868 -0.1290 -0.3543
 6944TIP3    H120796   1.205   0.688   3.267 -0.2129 -0.0993 -0.2561
 6944TIP3    H220797   1.298   0.807   3.258 -0.7957  0.4794  1.0735
 6945TIP3   OH220798   3.204   3.264   0.907 -0.5005 -0.3938 -0.9044
 6945TIP3    H120799   3.279   3.298   0.860 -0.3991 -0.0295 -0.4830
 6945TIP3    H220800   3.230   3.177   0.936  0.2823  0.2392  0.4131
 6946TIP3   OH220801   0.615   5.610   5.629 -0.2735 -0.1455  0.3451
 6946TIP3    H120802   0.677   5.603   5.556  0.6146 -0.7334  1.1313
 6946TIP3    H220803   0.598   5.520   5.656  1.8553  0.0539  2.8180
 6947TIP3   OH220804   5.208   2.933   2.114  0.3640 -0.4687 -0.1435
 6947TIP3    H120805   5.255   2.871   2.169 -0.1222  0.2383  1.1164
 6947TIP3    H220806   5.118   2.899   2.112 -0.4378  1.2026  2.3023
 6948TIP3   OH220807   1.517   3.866   0.956 -0.1324 -0.3101 -0.0742
 6948TIP3    H120808   1.606   3.900   0.965  0.4271 -1.9277  0.8165
 6948TIP3    H220809   1.527   3.773   0.938 -1.6286 -0.7479  1.0688
 6949TIP3   OH220810   6.644   5.281   2.373  0.0468 -0.5587 -0.0051
 6949TIP3    H120811   6.612   5.263   2.461  2.0925  2.0362  1.4385
 6949TIP3    H220812   6.680   5.197   2.343 -1.1435 -1.6238  1.4024
 6950TIP3   OH220813   2.987   5.070   1.446 -0.2664  0.3740 -0.1300
 6950TIP3    H120814   3.060   5.009   1.453  0.0309  0.8189  0.7770
 6950TIP3    H220815   2.983   5.092   1.352  1.6993  1.4470 -0.0239
 6951TIP3   OH220816   1.348   5.373   1.115  0.0210  0.3841 -0.2510
 6951TIP3    H120817   1.394   5.289   1.109 -0.1153  0.3515 -0.9525
 6951TIP3    H220818   1.360   5.401   1.205  1.1241  0.1957 -0.3247
 6952TIP3   OH220819   6.213   4.580   4.587 -0.3400  0.2792 -0.4153
 6952TIP3    H120820   6.180   4.510   4.530  1.6004 -1.2069  0.2045
 6952TIP3    H220821   6.247   4.646   4.526 -0.3422 -0.2503 -0.9957
 6953TIP3   OH220822   0.827   0.315   0.817  0.0855  0.8410 -0.0297
 6953TIP3    H120823   0.839   0.300   0.723 -1.2211  1.5494 -0.3366
 6953TIP3    H220824   0.894   0.261   0.859 -0.1841 -0.5298 -1.3050
 6954TIP3   OH220825   1.649   2.902   5.256  0.3920  0.0862  0.6427
 6954TIP3    H120826   1.588   2.975   5.262 -0.1963 -0.4685  1.6755
 6954TIP3    H220827   1.729   2.934   5.297  0.5164  0.5256  0.0644
 6955TIP3   OH220828   2.016   3.262   4.539 -0.3589  0.3612 -0.2863
 6955TIP3    H120829   2.034   3.229   4.452 -2.4697 -0.4713 -0.4564
 6955TIP3    H220830   2.038   3.189   4.598 -2.9650 -0.7050 -0.5035
 6956TIP3   OH220831   5.252   4.310   4.654  0.5170  0.2781 -0.2127
 6956TIP3    H120832   5.180   4.372   4.666  1.8043  1.9347 -0.5822
 6956TIP3    H220833   5.235   4.270   4.569  1.8237  3.3990 -2.1638
 6957TIP3   OH220834   2.998   0.393   3.718  0.5907  0.1701  0.0540
 6957TIP3    H120835   2.918   0.349   3.748  0.9675 -0.1644  0.5694
 6957TIP3    H220836   2.983   0.486   3.737 -0.0265  0.2213 -0.6391
 6958TIP3   OH220837   0.288   1.410   1.465 -0.1913 -0.3743  0.0222
 6958TIP3    H120838   0.280   1.404   1.370  0.9073 -2.3456  0.0044
 6958TIP3    H220839   0.200   1.391   1.498 -0.4557 -0.2290 -0.5922
 6959TIP3   OH220840   0.922   3.586   2.602 -0.2252 -0.2639  0.1835
 6959TIP3    H120841   1.001   3.548   2.565  0.4507  0.8005  0.5034
 6959TIP3    H220842   0.895   3.523   2.669 -0.5376 -1.3885 -0.9459
 6960TIP3   OH220843   3.358   5.569   2.841 -0.4939 -0.3641  0.4868
 6960TIP3    H120844   3.281   5.576   2.898 -0.3627  0.0715  0.6109
 6960TIP3    H220845   3.333   5.503   2.777 -0.2550 -1.6263  1.6560
 6961TIP3   OH220846   4.052   1.604   2.785 -0.1045 -0.0111  0.2122
 6961TIP3    H120847   4.071   1.528   2.731 -0.5713 -0.7851  1.1168
 6961TIP3    H220848   4.134   1.623   2.830  0.7502  1.5844 -1.8513
 6962TIP3   OH220849   0.794   5.449   2.832 -0.4963  0.2304  0.4781
 6962TIP3    H120850   0.786   5.496   2.915  1.4509  1.5195 -0.0153
 6962TIP3    H220851   0.830   5.512   2.771  1.5416 -1.6549 -0.4118
 6963TIP3   OH220852   0.267   4.560   2.785 -0.0525 -0.0432  0.4122
 6963TIP3    H120853   0.334   4.551   2.854 -0.8787  0.0255  1.2398
 6963TIP3    H220854   0.204   4.490   2.803 -0.3825  0.0950 -0.1693
 6964TIP3   OH220855   1.247   1.775   3.280 -0.0325 -0.4318 -0.5073
 6964TIP3    H120856   1.259   1.820   3.363 -0.9512 -1.4187  0.1891
 6964TIP3    H220857   1.162   1.805   3.248  0.0178 -0.5513 -0.7581
 6965TIP3   OH220858   5.336   4.615   3.307 -0.1555 -0.0739 -0.2694
 6965TIP3    H120859   5.361   4.648   3.221 -0.1098  0.4511 -0.0548
 6965TIP3    H220860   5.419   4.601   3.353 -0.0189 -2.6792 -1.1362
 6966TIP3   OH220861   0.006   6.135   4.060 -0.0661 -0.1380 -0.8214
 6966TIP3    H120862  -0.031   6.075   3.996 -1.8632  1.2691 -1.2003
 6966TIP3    H220863   0.085   6.169   4.018 -0.1504 -0.6995 -1.4562
 6967TIP3   OH220864   0.218   5.174   5.561  0.3673  0.3174 -0.3425
 6967TIP3    H120865   0.200   5.241   5.495 -0.0277  0.9637  0.4020
 6967TIP3    H220866   0.135   5.164   5.607 -0.1770 -2.1226 -1.6824
 6968TIP3   OH220867  -0.029   4.047   2.710 -0.1509  0.1752  0.1471
 6968TIP3    H120868   0.031   4.120   2.698  0.1542 -0.4359 -2.6491
 6968TIP3    H220869   0.027   3.970   2.721 -0.4316 -0.0992 -0.3046
 6969TIP3   OH220870   4.424   1.178   5.237 -0.2274 -0.2681 -0.5404
 6969TIP3    H120871   4.390   1.099   5.195  1.9389 -1.9319  0.5731
 6969TIP3    H220872   4.449   1.149   5.325  0.7836  1.6156 -0.1559
 6970TIP3   OH220873   3.301   3.443   5.491  0.1374  0.3063 -0.0945
 6970TIP3    H120874   3.326   3.382   5.560  0.3889 -0.4894 -0.8655
 6970TIP3    H220875   3.377   3.500   5.480  0.4116 -0.0972 -0.2852
 6971TIP3   OH220876   1.913   1.729   2.715  0.2581  0.2370 -0.2259
 6971TIP3    H120877   1.967   1.656   2.747  0.8659  1.0903  0.7469
 6971TIP3    H220878   1.836   1.730   2.772 -1.3194 -1.5205 -2.1398
 6972TIP3   OH220879   5.873   2.188   3.870 -0.2345 -0.4979 -0.0898
 6972TIP3    H120880   5.829   2.142   3.799 -0.3140 -1.2952  0.4605
 6972TIP3    H220881   5.883   2.123   3.939 -2.7512  0.9391  1.8050
 6973TIP3   OH220882   2.050   6.166  -0.005 -0.2840  0.3921 -0.6378
 6973TIP3    H120883   2.088   6.253  -0.004 -1.2043  0.8123  0.4690
 6973TIP3    H220884   2.096   6.119   0.065 -1.7801  0.9249  0.7534
 6974TIP3   OH220885   1.453   5.943   1.175 -0.0414 -0.5261 -0.1393
 6974TIP3    H120886   1.485   6.021   1.130  2.5014 -0.6580  1.2253
 6974TIP3    H220887   1.383   5.909   1.119 -1.0628  2.5335 -0.8858
 6975TIP3   OH220888   0.312   4.480   4.582  0.2597 -0.0320  0.0169
 6975TIP3    H120889   0.324   4.431   4.500 -0.4212 -1.2477  0.6173
 6975TIP3    H220890   0.321   4.572   4.556  0.5557 -0.4170 -1.3309
 6976TIP3   OH220891   5.723   5.412   4.252  0.3258  0.3102  0.1895
 6976TIP3    H120892   5.651   5.369   4.206  0.5521  0.5466 -0.3965
 6976TIP3    H220893   5.685   5.441   4.335 -0.1129 -0.0334  0.1115
 6977TIP3   OH220894   0.871   6.179   1.855  0.3141 -0.1126  0.2738
 6977TIP3    H120895   0.886   6.273   1.866  0.2100 -0.1293  0.5642
 6977TIP3    H220896   0.953   6.139   1.884  0.3406 -0.1116  0.1980
 6978TIP3   OH220897   3.657   3.160   4.243  0.6739  0.0450 -0.3095
 6978TIP3    H120898   3.562   3.154   4.237  0.5481  0.0964  1.2389
 6978TIP3    H220899   3.675   3.254   4.237  0.5668  0.0907  0.0703
 6979TIP3   OH220900   5.440   4.593   5.575  0.0623 -0.3399 -0.1491
 6979TIP3    H120901   5.439   4.654   5.648  0.8059  0.1286 -0.5146
 6979TIP3    H220902   5.517   4.538   5.591 -0.8708 -1.5132  0.4302
 6980TIP3   OH220903   7.159   4.039   5.065  0.0130  0.4318 -0.2780
 6980TIP3    H120904   7.093   4.043   5.134  0.7345 -1.3151  0.5785
 6980TIP3    H220905   7.118   3.990   4.994 -0.3274  1.2151 -0.6319
 6981TIP3   OH220906   5.421   5.293   2.375  0.8428 -0.7334 -0.4995
 6981TIP3    H120907   5.467   5.293   2.290  0.2691  0.2391 -0.8345
 6981TIP3    H220908   5.421   5.385   2.401 -0.9362 -0.6889 -0.5321
 6982TIP3   OH220909   6.577   3.992   4.327 -0.2733 -0.2686  0.2563
 6982TIP3    H120910   6.546   3.979   4.417 -0.5029  1.2491  0.4292
 6982TIP3    H220911   6.667   4.024   4.337  0.4434 -2.0741 -0.1490
 6983TIP3   OH220912   5.023   5.972   2.660 -0.2430  0.4558  0.3193
 6983TIP3    H120913   5.027   5.894   2.604 -0.2596  0.1035  0.8078
 6983TIP3    H220914   4.940   5.964   2.707 -0.3770  0.9123  0.1657
 6984TIP3   OH220915   4.980   3.554   5.764 -0.3449  0.6995 -0.0300
 6984TIP3    H120916   5.034   3.497   5.709 -0.9815  1.6916 -1.7745
 6984TIP3    H220917   4.949   3.498   5.835  0.5034 -0.6461 -0.6977
 6985TIP3   OH220918   0.069   4.264   0.325 -0.7904  0.7023  0.0889
 6985TIP3    H120919   0.099   4.207   0.254 -0.5464  1.2795 -0.2840
 6985TIP3    H220920  -0.026   4.254   0.326 -0.5954 -2.1685  2.1472
 6986TIP3   OH220921   6.886   5.369   3.280 -0.4599 -0.6777 -0.4204
 6986TIP3    H120922   6.864   5.430   3.350 -1.0953 -1.2997 -0.0568
 6986TIP3    H220923   6.980   5.378   3.268 -0.4487 -0.1023  0.0786
 6987TIP3   OH220924   4.124   4.245   0.913 -0.2240  0.1680  0.3340
 6987TIP3    H120925   4.061   4.307   0.878 -0.4737 -0.6588 -0.7479
 6987TIP3    H220926   4.071   4.177   0.954  0.0069  0.1318  0.5723
 6988TIP3   OH220927   1.338   3.972   3.233  0.0202  0.3879 -0.0188
 6988TIP3    H120928   1.272   3.994   3.167 -0.3867  1.4388  0.6991
 6988TIP3    H220929   1.394   4.050   3.238  2.0453 -0.8823 -1.4111
 6989TIP3   OH220930   1.248   4.009   0.123  0.5098 -0.0051 -0.0951
 6989TIP3    H120931   1.323   3.980   0.175  0.8852 -0.0427 -0.6516
 6989TIP3    H220932   1.198   4.066   0.182  0.1703 -1.1557  0.7788
 6990TIP3   OH220933   1.161   4.649   2.471  0.3131 -0.1721  0.0616
 6990TIP3    H120934   1.182   4.731   2.515  1.0327 -1.2381  1.8197
 6990TIP3    H220935   1.151   4.673   2.379 -1.6399  2.2292  0.7934
 6991TIP3   OH220936   4.555   2.048   0.308  0.0639  0.4906  0.7023
 6991TIP3    H120937   4.650   2.056   0.296 -0.1255 -0.7737 -2.3154
 6991TIP3    H220938   4.538   1.954   0.306 -1.3749  0.7397 -0.2564
 6992TIP3   OH220939   1.377   3.264   0.982 -0.2143 -0.3713  0.5055
 6992TIP3    H120940   1.332   3.232   1.060 -0.2475  3.2266  2.1605
 6992TIP3    H220941   1.466   3.229   0.989 -0.9785 -2.4087  0.5574
 6993TIP3   OH220942   2.154   3.760   3.824  0.2284  0.2762 -0.2510
 6993TIP3    H120943   2.082   3.705   3.854  2.3710 -2.0392  1.1517
 6993TIP3    H220944   2.157   3.747   3.730 -0.0263 -1.1791 -0.0840
 6994TIP3   OH220945   4.615   4.995   3.022  0.4799  0.2371 -0.1031
 6994TIP3    H120946   4.522   5.014   3.034  0.3056 -0.6851  0.0439
 6994TIP3    H220947   4.634   4.928   3.087  0.5390 -1.7223 -2.0187
 6995TIP3   OH220948   3.210   3.144   5.284  0.3088 -0.5480  0.4312
 6995TIP3    H120949   3.260   3.072   5.245 -0.2680 -0.2750 -0.8789
 6995TIP3    H220950   3.193   3.203   5.211 -0.9801 -0.0937  1.0690
 6996TIP3   OH220951   5.156   2.973   0.044  0.3617  0.1762 -0.1543
 6996TIP3    H120952   5.232   3.031   0.042  0.9471 -0.3785  2.4946
 6996TIP3    H220953   5.186   2.895   0.091 -1.7913 -0.0461  0.9893
 6997TIP3   OH220954   1.660   4.999   1.737 -0.2626 -0.1701 -0.4527
 6997TIP3    H120955   1.696   4.954   1.661  0.6874 -0.2144  0.0086
 6997TIP3    H220956   1.589   5.053   1.701 -0.2522 -0.6813 -1.2677
 6998TIP3   OH220957   6.479   1.456   0.272  0.3925 -0.2827 -0.1370
 6998TIP3    H120958   6.508   1.366   0.287  1.5004 -0.0100 -0.5763
 6998TIP3    H220959   6.559   1.508   0.274 -0.1946  0.6431 -0.2713
 6999TIP3   OH220960   2.502   0.969   1.207  0.5518  0.5051 -0.2377
 6999TIP3    H120961   2.439   1.031   1.245  1.1613 -0.3405  2.3197
 6999TIP3    H220962   2.519   1.003   1.119  1.5373  4.5438  1.2947
 7000TIP3   OH220963   4.253   0.353   1.312  0.1586  0.6012 -0.1384
 7000TIP3    H120964   4.299   0.431   1.282  1.1028 -0.0558 -0.4416
 7000TIP3    H220965   4.187   0.337   1.244  1.2196  0.0589 -1.0745
 7001TIP3   OH220966   4.181   2.216   4.034  0.1383  0.1329  0.4069
 7001TIP3    H120967   4.210   2.240   3.946 -0.6161  0.6510  0.2901
 7001TIP3    H220968   4.092   2.252   4.041  0.4128  0.6418  1.6091
 7002TIP3   OH220969   0.193   5.762   0.259 -0.3193  0.3498  0.1374
 7002TIP3    H120970   0.253   5.695   0.224 -1.0101  0.1912 -0.8022
 7002TIP3    H220971   0.248   5.840   0.268  0.0764  0.1677 -0.5553
 7003TIP3   OH220972   6.361   1.620   5.361  0.5089 -0.1888 -0.0527
 7003TIP3    H120973   6.394   1.563   5.429 -0.5352 -0.3353  0.3598
 7003TIP3    H220974   6.297   1.567   5.314  1.1669 -0.0667 -1.1184
 7004TIP3   OH220975   1.503   1.421   3.136  0.3948  0.1937 -0.2865
 7004TIP3    H120976   1.431   1.470   3.176 -0.8388  0.0073 -2.1357
 7004TIP3    H220977   1.471   1.331   3.132  1.5703 -0.2955  0.6591
 7005TIP3   OH220978   4.355   0.092   5.755  0.7019 -0.0011  0.3708
 7005TIP3    H120979   4.356   0.182   5.721  0.0969 -0.3599 -0.6505
 7005TIP3    H220980   4.262   0.072   5.767  0.5434 -1.5914 -2.5638
 7006TIP3   OH220981   4.096   6.780   5.660 -0.6790 -0.4470  0.2735
 7006TIP3    H120982   4.019   6.834   5.678 -1.4615 -1.8238  1.2517
 7006TIP3    H220983   4.144   6.779   5.743 -0.8131 -1.4385  0.3523
 7007TIP3   OH220984   0.159   5.893   3.460  0.9111  0.4972 -0.1778
 7007TIP3    H120985   0.077   5.853   3.432 -0.7675  2.0304  2.1558
 7007TIP3    H220986   0.195   5.932   3.380 -0.9146  0.2370 -1.1773
 7008TIP3   OH220987   0.120   0.940   2.816 -0.2346 -0.6517  0.1588
 7008TIP3    H120988   0.185   0.899   2.758 -0.0513 -0.9452  0.5700
 7008TIP3    H220989   0.051   0.875   2.826 -0.9642 -0.0752 -0.8563
 7009TIP3   OH220990   1.345   4.795   5.035  0.0025  0.3050  0.3312
 7009TIP3    H120991   1.343   4.866   5.099  1.8513 -0.1693  0.9873
 7009TIP3    H220992   1.258   4.796   4.995 -0.6761  1.6220  1.7351
 7010TIP3   OH220993   1.034   1.889   1.347  0.2726 -0.1595  0.7181
 7010TIP3    H120994   0.947   1.897   1.386  0.0515 -1.3055  0.4916
 7010TIP3    H220995   1.018   1.859   1.258  0.8493  1.0313  0.1900
 7011TIP3   OH220996   3.256   6.276   1.538 -0.2804  0.5800 -0.3237
 7011TIP3    H120997   3.207   6.280   1.620 -0.0652  0.1360 -0.1676
 7011TIP3    H220998   3.202   6.222   1.480  0.4208 -0.6777  0.1453
 7012TIP3   OH220999   6.339   3.525   1.590  0.0367 -0.6407  0.2344
 7012TIP3    H121000   6.310   3.462   1.657  1.7918 -1.3055  0.4500
 7012TIP3    H221001   6.341   3.474   1.509  1.1292 -0.8131  0.3457
 7013TIP3   OH221002   0.405   4.130   0.682 -0.0196 -0.0566 -0.5489
 7013TIP3    H121003   0.336   4.172   0.631  0.9679  0.8691 -1.1639
 7013TIP3    H221004   0.373   4.133   0.772 -0.7539  0.4254 -0.8189
 7014TIP3   OH221005   6.397   2.679   3.616  0.4610  0.1563 -0.1668
 7014TIP3    H121006   6.476   2.731   3.633 -0.2048  1.4219 -0.8224
 7014TIP3    H221007   6.419   2.628   3.538  0.6308  0.5099 -0.3525
 7015TIP3   OH221008   6.011   4.874   2.285  0.1010  0.5108  0.1171
 7015TIP3    H121009   6.025   4.959   2.245 -1.1066 -0.2056 -1.9992
 7015TIP3    H221010   6.078   4.818   2.246 -0.9515 -0.1445 -0.8295
 7016TIP3   OH221011   5.440   0.870   2.099  0.6214  0.1515  0.2408
 7016TIP3    H121012   5.396   0.787   2.086 -1.2087  1.1945 -0.6136
 7016TIP3    H221013   5.502   0.877   2.026  1.9956 -1.1458  1.2299
 7017TIP3   OH221014   1.637   1.363   0.256 -0.0081 -0.3690  0.2780
 7017TIP3    H121015   1.728   1.363   0.286 -0.1655  2.4483  1.0908
 7017TIP3    H221016   1.586   1.388   0.333 -1.3965 -1.0280 -0.3795
 7018TIP3   OH221017   5.196   6.166   3.718  0.5375  0.1741 -0.3142
 7018TIP3    H121018   5.291   6.158   3.714  0.4793 -0.9204  0.1051
 7018TIP3    H221019   5.176   6.168   3.811  0.0313 -1.6244 -0.3418
 7019TIP3   OH221020   4.825   6.584   5.625 -0.1552 -0.3868 -0.3561
 7019TIP3    H121021   4.911   6.616   5.596  1.1634 -1.6506  1.9342
 7019TIP3    H221022   4.806   6.510   5.566  0.2597 -0.0353 -0.9420
 7020TIP3   OH221023   2.183   1.501   5.331 -0.2024 -0.3951  0.0665
 7020TIP3    H121024   2.212   1.410   5.339 -1.5660 -0.9303 -0.6971
 7020TIP3    H221025   2.188   1.536   5.421  0.8122 -1.0516  0.2787
 7021TIP3   OH221026   6.890   5.921   0.015  0.0967  0.3219  0.1762
 7021TIP3    H121027   6.860   6.008  -0.010 -0.9343 -0.0975 -0.1031
 7021TIP3    H221028   6.820   5.887   0.071 -0.0800 -0.7554 -0.6580
 7022TIP3   OH221029   5.206   3.945   4.205 -0.1726 -0.4765  0.6979
 7022TIP3    H121030   5.138   3.918   4.144  0.4788  1.1653 -0.8404
 7022TIP3    H221031   5.268   3.872   4.205 -1.3226 -1.4904  1.2415
 7023TIP3   OH221032   6.846   3.448   5.879 -0.4637  0.0407  0.6791
 7023TIP3    H121033   6.898   3.370   5.860 -0.9638  0.0275 -0.7514
 7023TIP3    H221034   6.908   3.521   5.875 -0.0909 -0.2159  1.5405
 7024TIP3   OH221035   6.552   3.830   4.562  0.1531  0.4645 -0.1835
 7024TIP3    H121036   6.646   3.819   4.574  0.0138  0.5585  1.1184
 7024TIP3    H221037   6.512   3.794   4.641 -1.2320 -3.5813 -2.4259
 7025TIP3   OH221038   6.444   5.623   2.734 -0.4357 -0.6958  0.7450
 7025TIP3    H121039   6.427   5.690   2.800 -0.5468  0.3547 -0.3197
 7025TIP3    H221040   6.361   5.578   2.723 -1.2801  1.1039 -0.7962
 7026TIP3   OH221041   2.748   1.615   3.993 -0.4612  0.1691 -0.0984
 7026TIP3    H121042   2.747   1.711   3.997  0.0423  0.1563  0.4119
 7026TIP3    H221043   2.704   1.595   3.911 -1.4831  0.8032  0.2679
 7027TIP3   OH221044   1.188   4.485   0.223  0.6010 -0.3137  0.8593
 7027TIP3    H121045   1.205   4.572   0.259  1.1079 -0.1957  0.3551
 7027TIP3    H221046   1.274   4.446   0.213  0.5422 -0.1243 -0.7272
 7028TIP3   OH221047   0.351   3.898   2.574 -0.2162 -0.0491  0.4756
 7028TIP3    H121048   0.420   3.870   2.634 -1.0565 -1.3719  0.8700
 7028TIP3    H221049   0.319   3.817   2.535 -0.4069  0.6910 -0.9955
 7029TIP3   OH221050   5.464   6.191   5.635  0.2722  0.0336  0.0175
 7029TIP3    H121051   5.485   6.202   5.728 -0.0441  0.0893  0.0848
 7029TIP3    H221052   5.517   6.258   5.591  0.6444 -0.1853  0.1247
 7030TIP3   OH221053   4.285   1.919   4.913 -0.2242 -0.0180 -0.2195
 7030TIP3    H121054   4.238   1.962   4.841  0.1208 -1.2234 -1.1931
 7030TIP3    H221055   4.376   1.917   4.884 -0.1570 -0.9514  0.0306
 7031TIP3   OH221056   4.264   0.063   5.167  0.1505 -0.7412 -0.0106
 7031TIP3    H121057   4.170   0.044   5.169  0.2740 -1.6194 -1.3718
 7031TIP3    H221058   4.284   0.096   5.255 -1.1977 -1.6292  0.6622
 7032TIP3   OH221059   0.987   0.150   1.958 -0.5604  0.2065 -0.0045
 7032TIP3    H121060   0.950   0.160   2.046  0.0839 -1.2411  0.4664
 7032TIP3    H221061   0.927   0.090   1.914  0.8610 -1.8227  0.6256
 7033TIP3   OH221062   3.064   1.248   5.423  0.8178 -0.0488  0.1526
 7033TIP3    H121063   3.061   1.339   5.394  1.3856 -0.0923 -0.0453
 7033TIP3    H221064   3.104   1.201   5.351 -3.0108 -1.1632 -1.5074
 7034TIP3   OH221065   4.631   6.709   2.663  0.3042  0.4908 -0.3019
 7034TIP3    H121066   4.637   6.650   2.738 -0.5612 -0.8255 -1.2376
 7034TIP3    H221067   4.542   6.744   2.666  0.8135  1.8227  0.2599
 7035TIP3   OH221068   3.430   0.931   5.570  0.4067 -0.5453  0.1806
 7035TIP3    H121069   3.474   1.007   5.609  0.4625  0.3118 -1.4508
 7035TIP3    H221070   3.488   0.858   5.590  0.2980 -0.2024  1.8874
 7036TIP3   OH221071   5.022   2.134   0.424 -0.3898 -0.0978 -0.3249
 7036TIP3    H121072   5.076   2.075   0.372  0.1450 -0.8165  0.9860
 7036TIP3    H221073   5.026   2.098   0.513 -0.1326  1.8386  0.4957
 7037TIP3   OH221074   5.110   0.450   2.874  0.0955  0.8985  0.3305
 7037TIP3    H121075   5.109   0.373   2.930  0.1458  2.4759  2.6264
 7037TIP3    H221076   5.143   0.418   2.790  1.1512 -1.3558  1.5223
 7038TIP3   OH221077   4.889   2.523   1.692 -0.1642 -0.1858  0.5738
 7038TIP3    H121078   4.875   2.611   1.727 -0.4332  0.6937 -1.5825
 7038TIP3    H221079   4.814   2.507   1.635  1.2654 -0.5809 -1.3211
 7039TIP3   OH221080   6.286   6.367   5.235 -0.2988  0.1766 -0.1693
 7039TIP3    H121081   6.254   6.358   5.145 -3.1481  0.2304  0.7230
 7039TIP3    H221082   6.263   6.457   5.258 -1.5979 -0.4743  1.2488
 7040TIP3   OH221083   3.071   3.338   5.100 -0.1746 -0.0410 -0.1268
 7040TIP3    H121084   3.135   3.408   5.092  0.7881 -0.8682  0.1317
 7040TIP3    H221085   3.010   3.367   5.167  0.8173  0.1032  0.7209
 7041TIP3   OH221086   6.380   1.786   5.776 -0.3091  0.1314  0.3163
 7041TIP3    H121087   6.321   1.861   5.785 -1.0951 -0.6243  1.8794
 7041TIP3    H221088   6.461   1.814   5.818 -0.8409 -0.1074  1.5459
 7042TIP3   OH221089   0.582   1.668   2.555 -0.0166  0.0335 -0.0516
 7042TIP3    H121090   0.641   1.657   2.481  0.7356  0.1299  0.5271
 7042TIP3    H221091   0.566   1.578   2.586  2.0741  0.1283  1.5135
 7043TIP3   OH221092   6.624   2.049   1.687  0.1241  0.3428 -0.1841
 7043TIP3    H121093   6.653   2.137   1.662  1.3193  0.0038 -0.0553
 7043TIP3    H221094   6.690   1.990   1.650 -0.8634 -0.5479 -0.5959
 7044TIP3   OH221095   1.388   3.435   2.693 -0.2247  0.8745 -0.0237
 7044TIP3    H121096   1.378   3.515   2.642 -1.1818  1.2879  0.7636
 7044TIP3    H221097   1.472   3.444   2.737  0.7166  0.4127 -1.6486
 7045TIP3   OH221098   6.190   4.110   4.852 -0.1190  0.4722  0.0363
 7045TIP3    H121099   6.118   4.158   4.893  0.7687  2.0207 -0.1380
 7045TIP3    H221100   6.256   4.104   4.921  0.0882  0.2092 -0.1850
 7046TIP3   OH221101   2.888   2.293   5.892  0.1039  0.5271  0.1478
 7046TIP3    H121102   2.874   2.256   5.805  0.2671 -1.2258  0.8176
 7046TIP3    H221103   2.898   2.217   5.949  2.7627  1.5886  1.2910
 7047TIP3   OH221104   1.387   0.465   0.907  0.2082 -0.4273 -0.3352
 7047TIP3    H121105   1.355   0.447   0.995  0.3558 -0.0931 -0.2106
 7047TIP3    H221106   1.482   0.464   0.916  0.2474  1.4620 -0.0812
 7048TIP3   OH221107   3.936   4.500   0.311  0.1286 -0.7684  0.4515
 7048TIP3    H121108   3.850   4.502   0.270  0.0711 -0.0819  0.5924
 7048TIP3    H221109   3.925   4.545   0.394  0.6698 -0.4637  0.3665
 7049TIP3   OH221110   5.299   3.401  -0.008 -0.1884  0.8297  0.3988
 7049TIP3    H121111   5.382   3.446   0.005  0.2233  0.8811 -1.9590
 7049TIP3    H221112   5.311   3.316   0.036  1.1948  0.7645 -0.0452
 7050TIP3   OH221113   6.277   3.719   0.715 -0.2456  0.3122  0.1056
 7050TIP3    H121114   6.257   3.810   0.737 -0.0195 -0.0683  2.0779
 7050TIP3    H221115   6.359   3.701   0.761  0.5573 -0.4339 -1.5700
 7051TIP3   OH221116   4.355   4.279   3.466  0.9199 -0.2347 -0.1452
 7051TIP3    H121117   4.437   4.285   3.516  0.3392  0.7773  0.7284
 7051TIP3    H221118   4.374   4.326   3.384  1.2608 -0.1165 -0.0027
 7052TIP3   OH221119   6.100   1.631   1.084 -0.0652  0.4293 -0.1207
 7052TIP3    H121120   6.080   1.696   1.016  0.8463 -0.0298 -0.8426
 7052TIP3    H221121   6.106   1.549   1.037  0.6693  0.1144  0.5132
 7053TIP3   OH221122   2.000   5.944   4.522  0.0253 -0.2794  0.0362
 7053TIP3    H121123   2.070   6.008   4.509  0.2296 -0.5246 -0.1065
 7053TIP3    H221124   1.959   5.968   4.605 -0.2979  0.4026 -0.3171
 7054TIP3   OH221125   5.497   1.667   1.519 -0.4667 -0.2242 -0.1239
 7054TIP3    H121126   5.469   1.691   1.430 -0.2420 -0.3625 -0.2323
 7054TIP3    H221127   5.478   1.745   1.572 -0.6520 -0.1607 -0.2821
 7055TIP3   OH221128   4.432   2.403   3.967 -0.4809 -0.4704 -0.9904
 7055TIP3    H121129   4.503   2.340   3.969 -0.3261 -0.4126 -2.7549
 7055TIP3    H221130   4.445   2.452   3.885 -0.9138  1.4819  0.0285
 7056TIP3   OH221131   7.139   5.076   2.957 -0.6137 -0.6194 -0.2126
 7056TIP3    H121132   7.130   5.007   3.021 -1.3428  0.8807  1.3758
 7056TIP3    H221133   7.219   5.123   2.983 -0.5164 -0.4185 -0.8464
 7057TIP3   OH221134   5.469   0.937   5.746 -0.0005  0.0025 -0.4292
 7057TIP3    H121135   5.531   1.009   5.762 -0.4350  0.1768  0.5935
 7057TIP3    H221136   5.419   0.965   5.669  0.7120  0.1846 -0.8352
 7058TIP3   OH221137   0.684   0.324   3.331  0.2621 -0.7803  0.2542
 7058TIP3    H121138   0.692   0.228   3.331 -0.8760 -0.8971  0.9220
 7058TIP3    H221139   0.763   0.355   3.375  1.1470 -1.3491 -0.8853
 7059TIP3   OH221140   1.073   3.932   5.840 -0.7743  0.1366  0.0292
 7059TIP3    H121141   1.007   3.977   5.788  0.0440 -0.6093 -1.7207
 7059TIP3    H221142   1.134   3.896   5.776  0.1864 -0.9789  1.5044
 7060TIP3   OH221143   4.335   1.979   5.617 -0.6701  0.5474 -0.0277
 7060TIP3    H121144   4.427   1.987   5.591 -0.3127 -0.7694  0.7818
 7060TIP3    H221145   4.314   2.065   5.654  0.6730  0.4189  1.1161
 7061TIP3   OH221146   4.694   3.540   1.162 -0.2446 -0.4275 -0.2554
 7061TIP3    H121147   4.742   3.611   1.120 -3.1676  0.0588 -3.2235
 7061TIP3    H221148   4.750   3.463   1.152  1.0344  0.5837 -1.1883
 7062TIP3   OH221149   1.158   6.356   5.167  0.2483 -0.6900 -0.1623
 7062TIP3    H121150   1.145   6.384   5.257  0.6411 -0.0231 -0.3066
 7062TIP3    H221151   1.230   6.293   5.171 -0.4696 -1.5137  0.1286
 7063TIP3   OH221152   2.399   4.506   3.001 -0.1855  0.1887 -0.0000
 7063TIP3    H121153   2.450   4.428   2.981  0.6789  0.2446  1.8015
 7063TIP3    H221154   2.308   4.476   3.000  0.1465 -0.9313  0.9251
 7064TIP3   OH221155   3.770   3.022   1.041  0.1392 -0.0453 -0.1196
 7064TIP3    H121156   3.712   2.947   1.052 -0.9410  0.8362  0.4419
 7064TIP3    H221157   3.855   2.992   1.071 -0.7055 -0.4858  2.0114
 7065TIP3   OH221158   0.849   0.700   2.901 -0.4563  0.2667 -0.1104
 7065TIP3    H121159   0.775   0.711   2.962  0.1745  1.1432  0.5320
 7065TIP3    H221160   0.926   0.715   2.955  0.1507  0.4180 -1.0019
 7066TIP3   OH221161   6.573   0.331   5.291  0.2842  0.0790  0.1577
 7066TIP3    H121162   6.627   0.362   5.364 -0.2577  0.0438  0.5871
 7066TIP3    H221163   6.483   0.339   5.324  0.0708 -0.6188 -0.2397
 7067TIP3   OH221164   4.814   1.753   4.047 -0.2287  0.5334 -0.1487
 7067TIP3    H121165   4.754   1.678   4.045  1.9420 -1.3057 -0.3145
 7067TIP3    H221166   4.852   1.756   3.959  0.8709  0.8344  0.3163
 7068TIP3   OH221167   0.968   3.974   4.801  0.0864 -0.1946 -0.2072
 7068TIP3    H121168   0.973   4.069   4.798  1.7785 -0.0772  2.3095
 7068TIP3    H221169   0.882   3.955   4.839 -0.3236  0.2994 -0.8732
 7069TIP3   OH221170   1.262   4.125   4.295  0.3190 -0.2564  0.3373
 7069TIP3    H121171   1.212   4.189   4.244  1.3510 -0.0447 -0.4327
 7069TIP3    H221172   1.201   4.095   4.362 -0.4667  0.8650  0.1458
 7070TIP3   OH221173   2.668   1.444   1.051 -0.4154  0.0986 -0.2643
 7070TIP3    H121174   2.637   1.354   1.059  0.6694 -0.2220  0.6853
 7070TIP3    H221175   2.763   1.436   1.037 -0.4242  1.0747 -1.0174
 7071TIP3   OH221176   6.630   2.727   2.982  1.2947  0.4346 -0.3930
 7071TIP3    H121177   6.590   2.793   2.926  1.5960  0.8661 -0.1101
 7071TIP3    H221178   6.632   2.768   3.069  3.2089  0.8358 -0.5803
 7072TIP3   OH221179   1.403   3.948   1.196 -0.7812  0.1091  0.3533
 7072TIP3    H121180   1.449   3.933   1.114 -3.2350 -1.2957 -0.8940
 7072TIP3    H221181   1.404   4.043   1.208  0.4596  0.2614 -0.7610
 7073TIP3   OH221182   2.810   4.832   1.107 -0.2031  0.0041 -0.5986
 7073TIP3    H121183   2.802   4.840   1.012 -1.2324 -0.4234 -0.5553
 7073TIP3    H221184   2.779   4.743   1.126  0.1443  0.0348  0.1195
 7074TIP3   OH221185   1.244   5.889   0.999 -0.3406 -0.0712 -0.3739
 7074TIP3    H121186   1.206   5.802   1.012 -1.3934  0.4291 -0.0674
 7074TIP3    H221187   1.183   5.934   0.941 -0.4548  0.8948  0.4630
 7075TIP3   OH221188   0.322   2.031   4.627 -0.1688  0.2177 -0.1211
 7075TIP3    H121189   0.296   2.103   4.685  1.1482  0.7081 -0.1041
 7075TIP3    H221190   0.334   1.956   4.686  0.1160  0.4378  0.1067
 7076TIP3   OH221191   0.429   6.674   4.258  0.4376  0.4326  0.3399
 7076TIP3    H121192   0.350   6.724   4.274  1.7318  2.0098  2.3568
 7076TIP3    H221193   0.500   6.733   4.284  2.3244 -0.7093 -1.9070
 7077TIP3   OH221194   2.899   3.498   3.546  0.3294 -0.1349 -0.0850
 7077TIP3    H121195   2.835   3.507   3.475  0.4863  2.0697  0.0016
 7077TIP3    H221196   2.940   3.413   3.530  1.4866  0.9251 -3.6203
 7078TIP3   OH221197   6.516   4.578   0.951 -0.4219  0.0298  0.0401
 7078TIP3    H121198   6.550   4.660   0.988  3.0142 -1.0200 -0.4506
 7078TIP3    H221199   6.556   4.509   1.004  0.0530 -1.3813 -2.0366
 7079TIP3   OH221200   1.362   0.285   1.690  0.7145  0.5459 -0.3855
 7079TIP3    H121201   1.362   0.225   1.765 -2.9525 -1.4906 -1.7749
 7079TIP3    H221202   1.439   0.259   1.639 -0.4396 -2.7785 -0.6543
 7080TIP3   OH221203   5.254   5.013   5.287 -0.3889  0.2555 -0.1079
 7080TIP3    H121204   5.327   4.980   5.235 -0.3889  1.0428 -0.6274
 7080TIP3    H221205   5.176   4.999   5.232 -0.9490 -2.2887  1.1713
 7081TIP3   OH221206   5.302   1.086   2.120 -0.0257 -0.1448 -0.8477
 7081TIP3    H121207   5.318   1.140   2.197 -1.1915 -0.8964 -0.0630
 7081TIP3    H221208   5.369   1.018   2.124 -0.6933 -0.7617  0.0543
 7082TIP3   OH221209   4.008   5.871   2.759  0.2335 -0.8122  0.0030
 7082TIP3    H121210   3.980   5.793   2.711 -2.7103 -0.3482  0.8064
 7082TIP3    H221211   3.969   5.861   2.846 -0.9602  1.9115 -0.1296
 7083TIP3   OH221212   4.831   0.040   3.458  0.4235  0.4005  0.3027
 7083TIP3    H121213   4.784  -0.005   3.388 -1.2801  1.0180  0.9919
 7083TIP3    H221214   4.880  -0.029   3.503 -2.4324 -0.9394  1.6039
 7084TIP3   OH221215   3.162   0.071   1.737  0.3528  0.1831 -0.0186
 7084TIP3    H121216   3.234   0.038   1.684  0.5923 -1.7016  1.3978
 7084TIP3    H221217   3.084   0.031   1.700  0.1947  0.9267 -0.5227
 7085TIP3   OH221218   1.314   5.030   5.202 -0.1805 -0.6430 -0.3020
 7085TIP3    H121219   1.254   5.103   5.187 -1.1705 -0.7785  2.4511
 7085TIP3    H221220   1.396   5.057   5.160 -0.7935  1.6493 -0.1517
 7086TIP3   OH221221   5.368   6.378   0.673  0.0477 -0.2751 -0.1594
 7086TIP3    H121222   5.429   6.327   0.726 -0.8532  0.0600  1.2471
 7086TIP3    H221223   5.326   6.313   0.616 -0.3061 -0.9696  0.8499
 7087TIP3   OH221224   4.991   1.831   3.122 -0.1628  0.2479 -0.0360
 7087TIP3    H121225   5.047   1.766   3.080 -1.2472 -1.8649  1.5943
 7087TIP3    H221226   4.902   1.803   3.100 -0.6842  0.3865  1.7523
 7088TIP3   OH221227   4.999   3.120   3.357  0.1982 -0.2505 -0.1940
 7088TIP3    H121228   4.961   3.125   3.445  0.5095 -1.7438  0.0587
 7088TIP3    H221229   4.977   3.203   3.316 -0.6456  0.1495  1.0234
 7089TIP3   OH221230   3.633   6.156   3.112  0.1763 -0.3235  0.1847
 7089TIP3    H121231   3.684   6.109   3.046  0.8712 -0.0097  0.4811
 7089TIP3    H221232   3.643   6.249   3.088 -4.1080 -0.2946 -2.5712
 7090TIP3   OH221233   0.305   6.640   5.239  0.7671  0.1406 -0.5000
 7090TIP3    H121234   0.271   6.722   5.275  2.0906  1.3433 -1.8398
 7090TIP3    H221235   0.229   6.596   5.201  0.2694  1.5161 -1.1536
 7091TIP3   OH221236   5.183   2.677   1.891 -0.0535 -0.3693 -0.2327
 7091TIP3    H121237   5.138   2.723   1.962  0.4630  0.1405 -0.2282
 7091TIP3    H221238   5.210   2.594   1.929  0.7095  0.1305  0.3420
 7092TIP3   OH221239   6.497   4.122   4.077  0.1684 -0.7296  0.1874
 7092TIP3    H121240   6.497   4.091   4.168 -0.5189 -0.7913  0.1676
 7092TIP3    H221241   6.583   4.096   4.043  0.2795 -1.0477  0.6994
 7093TIP3   OH221242   0.916   5.219   1.255  0.0863 -0.0812  0.2372
 7093TIP3    H121243   0.845   5.277   1.230 -0.9852 -0.9397  1.1684
 7093TIP3    H221244   0.874   5.149   1.305  1.7769  0.2481  2.2734
 7094TIP3   OH221245   2.337   2.691   5.464 -0.1464  0.0914  0.4979
 7094TIP3    H121246   2.281   2.732   5.398 -0.6688 -0.1620  0.7834
 7094TIP3    H221247   2.419   2.673   5.417  0.2009  1.6952  0.4350
 7095TIP3   OH221248   0.313   3.018   3.362  0.2206 -0.2352  0.8623
 7095TIP3    H121249   0.275   3.099   3.329 -0.5105  0.3385  2.9660
 7095TIP3    H221250   0.390   3.046   3.412  0.8113 -0.9808  0.3894
 7096TIP3   OH221251   1.864   1.144   4.348  0.1057 -0.4692 -0.5780
 7096TIP3    H121252   1.854   1.053   4.375 -0.2845 -0.1783  0.2926
 7096TIP3    H221253   1.949   1.147   4.305 -0.4261 -1.5096 -1.7898
 7097TIP3   OH221254   2.621   1.980   5.712  0.2135  0.2196 -0.1532
 7097TIP3    H121255   2.687   1.913   5.697  1.2187  0.9701  0.8086
 7097TIP3    H221256   2.537   1.934   5.699  0.8127 -0.1340 -4.0709
 7098TIP3   OH221257   6.104   2.490   4.435 -0.0540 -0.1618 -0.2619
 7098TIP3    H121258   6.023   2.508   4.483 -1.0749 -2.8824 -0.7986
 7098TIP3    H221259   6.154   2.572   4.440 -2.4054  1.2887  0.8891
 7099TIP3   OH221260   5.074   6.701   5.535  0.3963  0.3079 -1.0352
 7099TIP3    H121261   5.087   6.693   5.440  0.3745 -2.3218 -0.8653
 7099TIP3    H221262   5.123   6.629   5.573 -1.8481 -0.3988  0.7566
 7100TIP3   OH221263   4.057   6.706   3.735 -0.5911 -0.2079  0.1007
 7100TIP3    H121264   4.084   6.615   3.734  0.7332  0.1418  0.9409
 7100TIP3    H221265   4.061   6.733   3.643  1.9011 -0.2424  0.1180
 7101TIP3   OH221266   1.099   6.773   1.316 -0.1768 -0.3626 -0.6173
 7101TIP3    H121267   1.143   6.753   1.233  0.8597  0.2214 -0.2187
 7101TIP3    H221268   1.134   6.858   1.342 -1.5618  0.1295 -0.2836
 7102TIP3   OH221269   2.120   3.748   4.506  0.7758 -0.1128  0.5748
 7102TIP3    H121270   2.125   3.654   4.493 -1.2391 -0.0703 -1.2027
 7102TIP3    H221271   2.210   3.778   4.500  1.3256 -1.7928 -0.1388
 7103TIP3   OH221272   4.003   1.509   2.348  0.8849 -0.0551 -0.0488
 7103TIP3    H121273   4.014   1.603   2.336  1.5612 -0.2350 -0.8805
 7103TIP3    H221274   4.015   1.471   2.261 -0.8682 -0.7851 -0.0074
 7104TIP3   OH221275   7.127   6.661   4.267  0.8495  0.2889  0.0880
 7104TIP3    H121276   7.125   6.587   4.328 -0.6882  0.3704  0.1634
 7104TIP3    H221277   7.142   6.620   4.181 -0.3467 -0.1652  0.0799
 7105TIP3   OH221278   0.702   3.933   2.452 -0.4718 -0.4355  0.2871
 7105TIP3    H121279   0.621   3.889   2.426  0.9117 -2.8697 -0.3156
 7105TIP3    H221280   0.766   3.903   2.388  1.2075  0.3254  1.5433
 7106TIP3   OH221281   1.394   5.862   1.983  0.2495  0.1216  0.4740
 7106TIP3    H121282   1.486   5.866   1.958  0.5724 -0.8015  1.4258
 7106TIP3    H221283   1.346   5.888   1.905  1.3011  0.0612 -0.2057
 7107TIP3   OH221284   6.466   1.361   3.182 -0.3798 -0.3665  0.2782
 7107TIP3    H121285   6.481   1.373   3.276 -2.5078  0.4091  0.5677
 7107TIP3    H221286   6.375   1.331   3.176 -0.8930  1.3827 -1.6423
 7108TIP3   OH221287   6.921   1.309   3.488 -0.3937  0.4702  0.2323
 7108TIP3    H121288   6.889   1.342   3.572  1.1300  0.9911  0.6334
 7108TIP3    H221289   6.961   1.224   3.509 -2.6708 -0.8685 -0.4956
 7109TIP3   OH221290   3.683   3.956   5.355 -0.1124  0.0008 -0.3970
 7109TIP3    H121291   3.731   3.892   5.302 -0.7689 -0.8748  0.0541
 7109TIP3    H221292   3.604   3.975   5.305 -0.5389 -0.5215  0.0729
 7110TIP3   OH221293   0.799   2.064   3.215  0.3016  0.1856  0.0934
 7110TIP3    H121294   0.873   2.027   3.264  0.5166  0.3885 -0.0800
 7110TIP3    H221295   0.739   2.095   3.283 -0.3053 -1.2818  0.2768
 7111TIP3   OH221296   3.514   3.106   2.827 -0.0752  0.3871 -0.7448
 7111TIP3    H121297   3.444   3.163   2.795  0.3280  1.1225 -0.3413
 7111TIP3    H221298   3.519   3.035   2.762 -1.5014  0.0584 -0.5361
 7112TIP3   OH221299   2.369   0.967   2.946 -0.2671  0.3022 -0.6111
 7112TIP3    H121300   2.274   0.971   2.953 -0.2923 -1.8701  1.7138
 7112TIP3    H221301   2.398   0.927   3.028  2.7356  1.4556 -0.9679
 7113TIP3   OH221302   3.261   3.760   2.528 -0.0333  0.1461  0.3119
 7113TIP3    H121303   3.348   3.785   2.496  0.2592 -0.7718  0.3565
 7113TIP3    H221304   3.255   3.666   2.510 -1.0715  0.2240  0.1908
 7114TIP3   OH221305   4.577   5.390   4.287  0.4755 -0.0940  0.1681
 7114TIP3    H121306   4.613   5.396   4.199  0.4843 -1.3440  0.0696
 7114TIP3    H221307   4.650   5.414   4.344  0.0932  2.0751 -0.1792
 7115TIP3   OH221308   6.638   4.750   4.582 -0.0433  0.1331 -0.2680
 7115TIP3    H121309   6.616   4.773   4.492  0.1509 -1.1913 -0.6682
 7115TIP3    H221310   6.556   4.722   4.621 -0.0524  0.3372 -0.1331
 7116TIP3   OH221311   5.329   0.515   0.006 -0.2114  0.0613 -0.5146
 7116TIP3    H121312   5.418   0.479   0.013 -0.6255 -0.8218  0.4976
 7116TIP3    H221313   5.307   0.541   0.096 -1.1124 -0.0964 -0.6822
 7117TIP3   OH221314   2.344   3.704   4.038  0.2142  0.0316  0.2745
 7117TIP3    H121315   2.417   3.649   4.009  1.3153  1.1822  0.7850
 7117TIP3    H221316   2.302   3.733   3.957 -0.2656 -1.3825 -0.0045
 7118TIP3   OH221317   1.587   1.184   1.862  0.4167 -0.0250  0.4952
 7118TIP3    H121318   1.542   1.100   1.874 -0.8663  0.4831 -0.4897
 7118TIP3    H221319   1.668   1.175   1.913  0.4290 -1.9344  0.2377
 7119TIP3   OH221320   5.217   1.734   0.489 -0.1346  0.1697  0.6348
 7119TIP3    H121321   5.172   1.700   0.411  2.0140 -1.1871 -0.1124
 7119TIP3    H221322   5.163   1.706   0.562 -1.6963  0.6273 -0.3001
 7120TIP3   OH221323   6.533   6.587   1.285 -0.4785 -0.6079 -0.3582
 7120TIP3    H121324   6.458   6.612   1.339 -0.2573 -0.6449 -0.0274
 7120TIP3    H221325   6.607   6.635   1.323 -0.3830 -0.3454 -0.8598
 7121TIP3   OH221326   4.003   0.793   0.764  0.5652  0.0137 -0.0265
 7121TIP3    H121327   4.008   0.824   0.855 -0.7838  1.1785 -0.3175
 7121TIP3    H221328   3.911   0.802   0.741  0.6480 -1.5435 -1.1026
 7122TIP3   OH221329   4.724   4.453   0.970  0.6931  1.1127 -0.6757
 7122TIP3    H121330   4.724   4.524   1.035 -0.1411  0.7002 -0.2115
 7122TIP3    H221331   4.763   4.493   0.892 -0.3745  2.3128 -0.6444
 7123TIP3   OH221332   1.310   3.661   1.916  0.1161  0.1187  0.0595
 7123TIP3    H121333   1.282   3.580   1.874 -0.4286  0.1061  0.4376
 7123TIP3    H221334   1.331   3.720   1.844  0.2347 -0.2595 -0.2177
 7124TIP3   OH221335   3.544   1.300   4.411 -0.3822 -0.1684 -0.4277
 7124TIP3    H121336   3.583   1.227   4.363 -0.2521 -2.1498  2.4515
 7124TIP3    H221337   3.450   1.289   4.398 -0.3078  0.6624 -1.9434
 7125TIP3   OH221338   0.355   1.703   0.025 -0.9846 -0.4347 -0.1973
 7125TIP3    H121339   0.371   1.736   0.114 -2.2729  1.0075 -0.4697
 7125TIP3    H221340   0.440   1.710  -0.018 -0.7956  0.7547  0.3304
 7126TIP3   OH221341   7.049   0.091   5.270 -0.2519 -0.0938  0.2756
 7126TIP3    H121342   7.006   0.090   5.184 -2.0351 -1.2902  1.1213
 7126TIP3    H221343   7.046  -0.001   5.298  0.3696  0.2736  1.5889
 7127TIP3   OH221344   2.677   0.405   5.529 -0.4791 -0.2403 -0.0104
 7127TIP3    H121345   2.667   0.496   5.502  1.7119  0.4569  1.2494
 7127TIP3    H221346   2.703   0.359   5.449 -0.8506  0.3723 -0.4939
 7128TIP3   OH221347   6.055   0.726   5.141 -0.5947 -0.3930 -0.1022
 7128TIP3    H121348   6.069   0.680   5.058 -0.1668  0.0099 -0.2510
 7128TIP3    H221349   6.048   0.655   5.206  1.9622 -0.6724 -0.0260
 7129TIP3   OH221350   2.017   4.147   0.969 -0.1169  0.3201  0.0052
 7129TIP3    H121351   2.039   4.078   0.906 -0.8767  0.9099 -0.9301
 7129TIP3    H221352   2.035   4.229   0.922 -2.1186  0.7946  0.0007
 7130TIP3   OH221353   5.870   5.877   0.324  0.0271  0.3988  0.1619
 7130TIP3    H121354   5.775   5.884   0.315  0.0075 -0.6082 -0.5400
 7130TIP3    H221355   5.882   5.837   0.411 -0.3472 -2.0131 -0.7952
 7131TIP3   OH221356   0.831   6.772   1.418 -0.2217 -0.0751  0.0071
 7131TIP3    H121357   0.920   6.778   1.384  0.0021  0.1846  0.6326
 7131TIP3    H221358   0.783   6.725   1.350  0.7384 -1.6263  0.3448
 7132TIP3   OH221359   5.699   1.458   5.569  0.0787  0.7055  0.5531
 7132TIP3    H121360   5.760   1.402   5.521  0.3433 -0.2145  1.8992
 7132TIP3    H221361   5.724   1.447   5.661 -1.7021  0.7973  1.0882
 7133TIP3   OH221362   2.978   5.021   0.368  0.3584  0.3437 -0.0495
 7133TIP3    H121363   3.009   4.970   0.443  0.6122  1.0501  0.3420
 7133TIP3    H221364   2.944   5.102   0.407 -1.3163 -0.0905 -0.5375
 7134TIP3   OH221365   2.527   1.515   4.586 -0.0999  0.0821 -0.1566
 7134TIP3    H121366   2.531   1.575   4.660  1.0052 -0.2873  0.0982
 7134TIP3    H221367   2.547   1.429   4.624  0.7324 -0.0713 -0.9163
 7135TIP3   OH221368   2.120   6.091   4.223 -0.0250  0.2923  0.2006
 7135TIP3    H121369   2.044   6.123   4.272  0.6841 -0.7990  2.1286
 7135TIP3    H221370   2.195   6.135   4.264  0.5316 -0.1071 -0.3744
 7136TIP3   OH221371   4.395   2.055   4.637 -0.2838  0.5413 -0.8371
 7136TIP3    H121372   4.320   2.010   4.598 -0.3040  1.7606 -2.3143
 7136TIP3    H221373   4.470   2.026   4.586  0.3242 -0.7426  0.6909
 7137TIP3   OH221374   6.925   5.870   4.720 -0.1416  0.0572  0.5737
 7137TIP3    H121375   6.911   5.945   4.663  0.3451  1.6674  2.4713
 7137TIP3    H221376   6.902   5.901   4.808  0.4188 -1.9015  1.4808
 7138TIP3   OH221377   4.281   0.970   0.927  0.2871  0.0837  0.1016
 7138TIP3    H121378   4.266   1.020   0.846  0.5619  0.4503  0.2734
 7138TIP3    H221379   4.195   0.967   0.969 -0.3865 -2.0393 -1.2610
 7139TIP3   OH221380   2.847   3.741   2.830 -0.4157  0.1319  0.3547
 7139TIP3    H121381   2.802   3.688   2.897  1.1871  0.5606  1.8164
 7139TIP3    H221382   2.908   3.680   2.788 -1.4027 -0.1318 -0.7643
 7140TIP3   OH221383   6.387   2.015   1.563 -0.1064  0.2771 -0.3190
 7140TIP3    H121384   6.473   2.001   1.601  0.0304  1.2595 -0.2503
 7140TIP3    H221385   6.383   1.953   1.490  0.8162  0.4953 -0.5653
 7141TIP3   OH221386   2.453   6.362   5.428  0.3537 -0.4060  0.3989
 7141TIP3    H121387   2.431   6.369   5.521 -2.5912 -0.0618 -0.2484
 7141TIP3    H221388   2.522   6.428   5.415  0.5666 -0.2058  2.2331
 7142TIP3   OH221389   5.580   0.707   3.720  0.0552 -0.1139 -0.1972
 7142TIP3    H121390   5.552   0.632   3.669  0.5535 -1.0101  0.7979
 7142TIP3    H221391   5.499   0.745   3.755 -0.2728  0.4060 -1.4635
 7143TIP3   OH221392   4.414   4.546   5.893  0.3071  0.2715 -0.2819
 7143TIP3    H121393   4.335   4.498   5.869  0.7953 -1.4299  1.3233
 7143TIP3    H221394   4.486   4.492   5.863  0.8860  1.0042 -0.2590
 7144TIP3   OH221395   7.182   2.406   1.525 -0.3787  0.4322 -0.3568
 7144TIP3    H121396   7.203   2.326   1.478 -0.5539 -0.3433  0.8327
 7144TIP3    H221397   7.086   2.405   1.533 -0.2555 -0.5051  1.7087
 7145TIP3   OH221398   4.871   4.451   2.708 -0.9508 -0.5844  0.7304
 7145TIP3    H121399   4.940   4.412   2.761 -1.4524 -0.0168  1.8338
 7145TIP3    H221400   4.795   4.395   2.723 -1.2605 -0.0720  1.1141
 7146TIP3   OH221401   4.788   6.074   1.148 -0.1140  0.1183 -0.0743
 7146TIP3    H121402   4.772   6.113   1.234  0.2330  1.2976 -0.5326
 7146TIP3    H221403   4.743   6.132   1.087  1.8510  0.7787 -0.9382
 7147TIP3   OH221404   3.654   5.591   1.188  0.3595  0.4895 -0.0030
 7147TIP3    H121405   3.679   5.594   1.096  0.6415  0.7627  0.0827
 7147TIP3    H221406   3.676   5.678   1.222  3.1995 -0.5136  1.0673
 7148TIP3   OH221407   1.127   4.270   1.106  0.0330  0.2650 -0.0057
 7148TIP3    H121408   1.040   4.297   1.134  1.3450  2.8290  2.0379
 7148TIP3    H221409   1.140   4.184   1.146 -0.5407  1.1179  2.1253
 7149TIP3   OH221410   3.037   1.912   4.293  0.2783  0.3693  0.3014
 7149TIP3    H121411   3.073   2.001   4.295 -0.6435  0.7649 -0.2514
 7149TIP3    H221412   3.111   1.857   4.266  0.4403  1.1855 -0.9547
 7150TIP3   OH221413   2.103   4.372   4.460  0.4740 -0.2485  0.4019
 7150TIP3    H121414   2.198   4.377   4.450  0.5796  2.5040  1.9683
 7150TIP3    H221415   2.072   4.460   4.440 -1.5879 -0.6659  1.4946
 7151TIP3   OH221416   4.928   2.883   0.256  0.3058  0.2259  0.1841
 7151TIP3    H121417   4.880   2.829   0.193  0.9638  1.5555 -1.5341
 7151TIP3    H221418   5.001   2.827   0.284  0.8268  0.0840 -1.3474
 7152TIP3   OH221419   0.615   2.223   3.786 -0.0756 -0.3412  0.4289
 7152TIP3    H121420   0.578   2.149   3.739  0.3551 -0.0910 -0.3245
 7152TIP3    H221421   0.693   2.247   3.736 -0.3874  0.8187  0.4669
 7153TIP3   OH221422   2.732   6.389   4.570 -0.1597  0.2505 -0.2777
 7153TIP3    H121423   2.748   6.454   4.638  0.4040  0.0731 -0.2351
 7153TIP3    H221424   2.665   6.428   4.514  0.6165  1.1303 -0.6079
 7154TIP3   OH221425   5.980   3.222   1.684  0.3630 -0.3237  0.1304
 7154TIP3    H121426   5.905   3.170   1.712 -0.2646 -0.6807 -2.0586
 7154TIP3    H221427   5.942   3.298   1.641  1.2522 -0.1769 -0.4149
 7155TIP3   OH221428   3.146   1.017   1.005 -0.0885 -0.2654  0.8438
 7155TIP3    H121429   3.166   1.078   0.934 -0.5907 -2.8821 -1.7257
 7155TIP3    H221430   3.053   1.029   1.023  0.1362  0.7091  1.4412
 7156TIP3   OH221431   3.944   2.782   0.355 -0.0350 -0.6036 -0.2472
 7156TIP3    H121432   3.916   2.797   0.264 -1.2466 -1.1313  0.0196
 7156TIP3    H221433   3.923   2.690   0.372  2.0488 -1.0935 -0.0500
 7157TIP3   OH221434   5.533   4.859   5.682  0.1749  0.6722  0.1625
 7157TIP3    H121435   5.532   4.918   5.607 -0.5376  1.1269  0.5168
 7157TIP3    H221436   5.626   4.844   5.700  0.3983 -0.7816 -1.8309
 7158TIP3   OH221437   4.080   5.256   0.456 -0.1902 -0.1031  0.5887
 7158TIP3    H121438   4.148   5.256   0.523  0.6808  0.0327 -0.2726
 7158TIP3    H221439   4.003   5.292   0.500 -0.0066 -1.1577  1.8547
 7159TIP3   OH221440   4.446   2.723   3.417  0.7514  0.5684 -0.3239
 7159TIP3    H121441   4.376   2.780   3.447  0.2242 -1.1306  1.9158
 7159TIP3    H221442   4.527   2.769   3.440  0.3892  1.4928 -0.8352
 7160TIP3   OH221443   2.517   6.411   1.888  0.3802  0.1813 -0.0129
 7160TIP3    H121444   2.530   6.349   1.816 -0.5611 -0.7444  0.5983
 7160TIP3    H221445   2.606   6.431   1.918  0.8554  1.2847 -1.9874
 7161TIP3   OH221446   7.050   6.758   1.680 -0.4037  0.2672  0.2978
 7161TIP3    H121447   7.085   6.816   1.613  0.8011  0.6096  1.1959
 7161TIP3    H221448   7.119   6.694   1.696 -0.2408  0.7906  1.9200
 7162TIP3   OH221449   5.502   2.827   0.600  0.0444 -0.6503  0.4065
 7162TIP3    H121450   5.499   2.917   0.567  2.3473 -0.2685  0.9817
 7162TIP3    H221451   5.591   2.797   0.579  0.7862 -1.2747  3.8409
 7163TIP3   OH221452   0.039   1.515   3.812 -0.8396 -0.2707 -0.3871
 7163TIP3    H121453   0.083   1.534   3.730 -0.3190  2.5841  0.4360
 7163TIP3    H221454  -0.035   1.575   3.815 -0.0831  0.6692  1.7595
 7164TIP3   OH221455   6.965   2.147   4.088 -0.5618 -0.0250 -0.4761
 7164TIP3    H121456   6.878   2.175   4.115  0.2613  1.2973  1.0096
 7164TIP3    H221457   6.983   2.198   4.009 -0.9169  0.1619 -0.4365
 7165TIP3   OH221458   4.736   2.867   4.053  0.2957 -0.4352 -0.3495
 7165TIP3    H121459   4.666   2.802   4.064  1.4373 -1.7376 -0.5577
 7165TIP3    H221460   4.743   2.879   3.958 -0.4390  0.6204 -0.2915
 7166TIP3   OH221461   5.115   2.536   1.498  0.3550  0.0074 -0.0447
 7166TIP3    H121462   5.057   2.552   1.573  2.0516  0.1567  1.3048
 7166TIP3    H221463   5.094   2.605   1.436  1.3854  2.2046  1.8857
 7167TIP3   OH221464   2.194   1.121   0.540 -0.3388  0.1458  0.3030
 7167TIP3    H121465   2.236   1.198   0.502 -2.3361  0.6500 -1.0630
 7167TIP3    H221466   2.262   1.079   0.593  1.3170  1.8186 -0.4155
 7168TIP3   OH221467   5.178   0.686   2.667  0.4531  0.1539 -0.6913
 7168TIP3    H121468   5.095   0.664   2.709  0.4507  1.5768  0.0855
 7168TIP3    H221469   5.230   0.606   2.674  0.6516  0.4333  2.5168
 7169TIP3   OH221470   5.688   4.919   4.513 -0.4450  0.3931  0.1728
 7169TIP3    H121471   5.676   4.901   4.606 -1.2407  2.8623  0.6300
 7169TIP3    H221472   5.629   4.859   4.469  0.3737 -1.2247  1.1880
 7170TIP3   OH221473   5.781   1.900   3.846  0.5627 -0.2301 -0.3369
 7170TIP3    H121474   5.730   1.879   3.925  1.6106 -0.5052  0.2810
 7170TIP3    H221475   5.824   1.818   3.823  0.5066 -0.0681 -1.0279
 7171TIP3   OH221476   0.390   2.079   1.447  0.5004  0.0350  0.1021
 7171TIP3    H121477   0.436   2.162   1.458  0.7656  0.1183 -1.4361
 7171TIP3    H221478   0.298   2.101   1.465  0.7928  0.2201  1.5557
 7172TIP3   OH221479   2.655   5.572   0.722  0.1508  0.2591  0.8954
 7172TIP3    H121480   2.732   5.520   0.699 -0.6542 -0.1304 -1.1747
 7172TIP3    H221481   2.629   5.541   0.808  2.1368  0.2306  1.5300
 7173TIP3   OH221482   3.744   5.930   0.982  0.2074 -0.6213  0.2951
 7173TIP3    H121483   3.753   6.008   1.037  1.2951 -1.3933  1.2376
 7173TIP3    H221484   3.651   5.930   0.957  0.4533  1.7740 -0.9698
 7174TIP3   OH221485   5.605   4.520   0.473 -0.0523 -0.2341  0.2220
 7174TIP3    H121486   5.538   4.575   0.514 -2.0577 -2.0334 -0.4460
 7174TIP3    H221487   5.571   4.431   0.482  1.0615 -1.0052 -2.3516
 7175TIP3   OH221488   5.437   1.884   1.655  0.0636 -0.0013 -0.1416
 7175TIP3    H121489   5.371   1.953   1.652  2.4378  2.4142 -0.1395
 7175TIP3    H221490   5.443   1.860   1.747 -3.0331 -2.7619 -0.4353
 7176TIP3   OH221491   7.105   4.912   1.546  0.3147  0.1596  0.4254
 7176TIP3    H121492   7.025   4.894   1.497  0.0352  0.2194  0.8531
 7176TIP3    H221493   7.170   4.852   1.510 -0.6116 -1.8382  1.8903
 7177TIP3   OH221494   4.216   3.461   2.408  0.0987  0.3337 -0.4458
 7177TIP3    H121495   4.244   3.516   2.335  0.1687  0.9952  0.0659
 7177TIP3    H221496   4.155   3.399   2.370  1.6409 -0.6256 -1.4431
 7178TIP3   OH221497   1.950   1.686   4.229  0.3483 -0.4423  0.1242
 7178TIP3    H121498   1.997   1.603   4.225 -0.6348 -1.0305  0.4166
 7178TIP3    H221499   1.912   1.696   4.142  1.7654  0.5098 -0.4195
 7179TIP3   OH221500   0.420   2.840   3.701 -0.0872 -0.1077  0.1527
 7179TIP3    H121501   0.347   2.893   3.734 -0.6559  0.6299 -2.0797
 7179TIP3    H221502   0.381   2.756   3.678 -0.6100  0.6925 -2.2052
 7180TIP3   OH221503   7.000   2.149   1.778  0.0354 -0.2703 -0.0779
 7180TIP3    H121504   7.011   2.217   1.844  1.7803  0.2186 -0.8061
 7180TIP3    H221505   6.905   2.142   1.766 -0.2174  1.3635  0.7004
 7181TIP3   OH221506   6.141   5.507   5.521  0.9561 -0.0095  0.3176
 7181TIP3    H121507   6.066   5.550   5.479  1.1411  0.5732  0.5842
 7181TIP3    H221508   6.218   5.544   5.477  1.0686 -2.3339 -1.6482
 7182TIP3   OH221509   1.346   6.372   1.164  0.4968  0.0343  0.5444
 7182TIP3    H121510   1.425   6.409   1.124  2.1267 -3.2330  0.4036
 7182TIP3    H221511   1.312   6.311   1.098 -1.3146  0.2482  1.2120
 7183TIP3   OH221512   2.458   0.079   0.106 -0.0997 -0.0855  0.9786
 7183TIP3    H121513   2.501  -0.004   0.124  0.4187 -0.1662 -0.4834
 7183TIP3    H221514   2.369   0.068   0.138 -1.1893 -2.5960 -2.3752
 7184TIP3   OH221515   2.700   4.607   1.828 -0.4494  0.4063  0.2401
 7184TIP3    H121516   2.719   4.552   1.752 -1.6063  0.1509  0.1156
 7184TIP3    H221517   2.694   4.696   1.792  0.4236  0.4883  0.2779
 7185TIP3   OH221518   2.289   2.812   4.550  0.0515 -0.2449 -0.4426
 7185TIP3    H121519   2.276   2.896   4.507 -0.0640  0.2057  0.4319
 7185TIP3    H221520   2.377   2.784   4.523  0.3424  0.4635 -0.2628
 7186TIP3   OH221521   2.709   3.908   4.089  0.1229  0.0810 -0.2377
 7186TIP3    H121522   2.761   3.948   4.019  1.5842  0.7258  1.1514
 7186TIP3    H221523   2.654   3.979   4.122 -0.7775 -0.2943 -0.8967
 7187TIP3   OH221524   2.247   5.549   4.878  0.4869  0.3958  0.3382
 7187TIP3    H121525   2.204   5.606   4.815 -0.5655 -0.8782 -0.1364
 7187TIP3    H221526   2.329   5.524   4.835 -0.6132 -1.1691 -0.9929
 7188TIP3   OH221527   2.397   0.551   5.819  0.3753  0.0730 -0.4170
 7188TIP3    H121528   2.482   0.571   5.858  0.5857 -3.3979  1.2454
 7188TIP3    H221529   2.404   0.460   5.791 -2.5060 -0.0329 -1.1326
 7189TIP3   OH221530   3.632   2.297   1.770  0.4845  0.0398 -0.1234
 7189TIP3    H121531   3.641   2.347   1.852 -1.0835  0.5555 -0.2324
 7189TIP3    H221532   3.711   2.243   1.767 -0.3762 -1.6635  2.8944
 7190TIP3   OH221533   5.600   2.797   1.651  0.1708  0.1414  0.2523
 7190TIP3    H121534   5.585   2.785   1.745 -0.5008 -0.4961  0.0732
 7190TIP3    H221535   5.525   2.848   1.621  0.5068  0.5526  0.1003
 7191TIP3   OH221536   0.316   5.514   2.037  0.0808  0.5291  0.2278
 7191TIP3    H121537   0.272   5.440   2.081  0.5042  1.4314  2.2935
 7191TIP3    H221538   0.324   5.486   1.946 -0.2059 -1.7817  0.8429
 7192TIP3   OH221539   6.654   1.885   3.372 -0.6222  0.2601 -0.0504
 7192TIP3    H121540   6.565   1.911   3.397 -1.3306  0.0419 -2.1509
 7192TIP3    H221541   6.647   1.792   3.352 -0.1322  0.4115 -1.0089
 7193TIP3   OH221542   0.024   0.081   3.094 -0.1222 -0.5607  0.5951
 7193TIP3    H121543  -0.013  -0.006   3.076 -0.7873 -0.1968  0.1741
 7193TIP3    H221544   0.045   0.079   3.187  2.2231 -2.0546  0.1223
 7194TIP3   OH221545   4.254   5.952   2.913 -0.4473 -0.4609 -0.0775
 7194TIP3    H121546   4.271   6.043   2.889 -0.9539 -0.2274  0.4307
 7194TIP3    H221547   4.178   5.927   2.861  0.0798 -0.8011 -0.6932
 7195TIP3   OH221548   1.587   0.374   1.199  0.1855  0.3074  0.6411
 7195TIP3    H121549   1.532   0.298   1.181 -0.4583  0.7260  0.7618
 7195TIP3    H221550   1.637   0.350   1.277  0.3033 -0.1450  0.4302
 7196TIP3   OH221551   7.000   4.563   5.452  0.1437  0.0083 -0.3255
 7196TIP3    H121552   6.904   4.564   5.448  0.1810 -0.8055 -2.7503
 7196TIP3    H221553   7.020   4.508   5.529 -1.3613 -1.3857 -0.8742
 7197TIP3   OH221554   5.862   3.117   4.498 -0.2850  0.3048 -0.3740
 7197TIP3    H121555   5.867   3.173   4.576 -3.6261  1.5867 -0.8865
 7197TIP3    H221556   5.820   3.173   4.432 -0.4066 -1.7302 -2.1112
 7198TIP3   OH221557   2.401   2.362   3.725  0.4443  0.3095 -0.4352
 7198TIP3    H121558   2.444   2.311   3.657  0.7578 -0.0199  0.0035
 7198TIP3    H221559   2.467   2.427   3.751  1.0888 -0.8513  0.9645
 7199TIP3   OH221560   2.767   4.449   2.443 -0.5851 -0.4204  0.1284
 7199TIP3    H121561   2.681   4.465   2.404 -0.5437  1.7053  0.8263
 7199TIP3    H221562   2.817   4.528   2.425  0.9845 -1.3087  0.4275
 7200TIP3   OH221563   5.267   6.740   1.603  0.1909 -0.6694 -0.0522
 7200TIP3    H121564   5.211   6.711   1.675  0.9810  0.2657  0.9757
 7200TIP3    H221565   5.207   6.752   1.530 -1.4575  2.6439  1.6279
 7201TIP3   OH221566   3.191   1.705   4.765 -0.5706 -0.1283  0.3344
 7201TIP3    H121567   3.151   1.632   4.717  0.3487 -0.7122  0.4361
 7201TIP3    H221568   3.250   1.663   4.828  0.6787  0.7211 -0.2379
 7202TIP3   OH221569   4.635   5.676   5.242  0.1216  0.7048 -0.5482
 7202TIP3    H121570   4.579   5.657   5.317 -0.0252 -0.0368 -0.8335
 7202TIP3    H221571   4.708   5.725   5.279  0.3113 -0.0920  0.1669
 7203TIP3   OH221572   0.367   4.935   1.268 -0.2263  0.1206  0.2787
 7203TIP3    H121573   0.389   5.014   1.219 -0.7193  0.3240  0.3778
 7203TIP3    H221574   0.421   4.866   1.228 -0.3006  0.3680 -0.2639
 7204TIP3   OH221575   4.996   4.625   0.923 -0.5496 -0.6260  0.5751
 7204TIP3    H121576   4.908   4.650   0.950 -0.8975 -0.5738 -0.5694
 7204TIP3    H221577   5.027   4.567   0.993 -1.9107 -1.5321  0.4674
 7205TIP3   OH221578   3.976   5.076   1.359 -0.2208  0.5042 -0.1463
 7205TIP3    H121579   4.065   5.046   1.342  0.1897  1.1265  0.8122
 7205TIP3    H221580   3.958   5.140   1.290 -0.0412  0.1597 -0.5154
 7206TIP3   OH221581   0.091   1.868   1.200  0.7611 -1.0974 -0.3745
 7206TIP3    H121582   0.108   1.907   1.114 -0.6486 -0.9205 -0.6010
 7206TIP3    H221583   0.127   1.931   1.263 -0.6357  0.1462 -0.7665
 7207TIP3   OH221584   2.476   3.533   5.824  0.0482 -0.1797  0.1982
 7207TIP3    H121585   2.483   3.609   5.882  0.0620 -1.2427  1.6247
 7207TIP3    H221586   2.549   3.544   5.762  1.2029  0.0353  1.5351
 7208TIP3   OH221587   2.127   0.985   2.370 -0.6571  0.4135 -0.0364
 7208TIP3    H121588   2.116   0.901   2.324 -0.1629  0.4980 -0.3129
 7208TIP3    H221589   2.082   0.972   2.454 -2.1910  0.4924 -0.8163
 7209TIP3   OH221590   1.022   5.585   2.348 -0.1403  0.2112  0.0167
 7209TIP3    H121591   0.942   5.627   2.318 -1.6583 -0.0176  3.3080
 7209TIP3    H221592   0.993   5.502   2.387  1.7153 -0.0413  0.9890
 7210TIP3   OH221593   6.802   0.521   3.644 -0.3871  0.3806 -0.7407
 7210TIP3    H121594   6.829   0.578   3.716 -0.4598  0.0830 -0.4780
 7210TIP3    H221595   6.883   0.493   3.602 -0.3734  1.2402 -1.3100
 7211TIP3   OH221596   2.777   6.079   4.418 -0.5251 -0.2582 -0.2202
 7211TIP3    H121597   2.828   6.024   4.476  0.5949  0.5860 -0.3591
 7211TIP3    H221598   2.768   6.028   4.337 -1.1597 -0.9891  0.2974
 7212TIP3   OH221599   3.114   3.685   5.506  0.0772 -0.2580 -0.0123
 7212TIP3    H121600   3.130   3.724   5.592  0.3372  1.3228 -0.7504
 7212TIP3    H221601   3.183   3.620   5.497  1.5621  1.2386  0.0117
 7213TIP3   OH221602   5.684   2.816   5.228  0.5853  0.3858 -0.4668
 7213TIP3    H121603   5.613   2.765   5.267  0.4495 -0.3595 -1.6455
 7213TIP3    H221604   5.738   2.843   5.303  0.8009 -1.6898  0.2034
 7214TIP3   OH221605   6.520   6.148   3.487 -0.0463  0.0527  0.5819
 7214TIP3    H121606   6.454   6.216   3.499 -0.0793  0.0608  0.3553
 7214TIP3    H221607   6.481   6.088   3.424  0.2321  0.1477  0.3203
 7215TIP3   OH221608   4.615   1.792   3.400  0.1055 -0.0250  0.2913
 7215TIP3    H121609   4.620   1.834   3.486 -0.3716  0.3757  0.1270
 7215TIP3    H221610   4.702   1.754   3.387  0.5868  1.0192  0.3784
 7216TIP3   OH221611   3.088   3.364   5.773 -0.0542 -0.2954  0.3343
 7216TIP3    H121612   3.151   3.393   5.708  0.8760 -0.0749  1.3013
 7216TIP3    H221613   3.003   3.382   5.735  0.4609 -0.5768 -0.9900
 7217TIP3   OH221614   2.085   2.345   5.242 -0.1974 -0.3258  0.0439
 7217TIP3    H121615   2.158   2.386   5.288 -0.9286  0.7917  0.2451
 7217TIP3    H221616   2.064   2.406   5.171  1.4094 -2.3498 -2.3759
 7218TIP3   OH221617   3.563   5.392   0.271 -0.3995 -0.1024  0.0627
 7218TIP3    H121618   3.496   5.341   0.225  0.5807 -1.3178 -0.0730
 7218TIP3    H221619   3.571   5.349   0.356  0.4750 -0.2210 -0.0699
 7219TIP3   OH221620   2.884   5.964   1.979  0.0165  0.4634  0.6796
 7219TIP3    H121621   2.881   6.032   1.912 -0.2902 -1.1020 -0.9928
 7219TIP3    H221622   2.799   5.970   2.023 -0.2440  0.7997  0.1446
 7220TIP3   OH221623   5.749   1.347   1.659 -0.0414 -0.2508  0.1574
 7220TIP3    H121624   5.832   1.379   1.694  0.1507  0.9331 -1.2765
 7220TIP3    H221625   5.686   1.416   1.680  0.0080  0.3099 -1.4356
 7221TIP3   OH221626   5.164   5.954   0.299  0.3679  0.1306  0.3154
 7221TIP3    H121627   5.140   5.974   0.209 -0.7511  3.1873  1.1604
 7221TIP3    H221628   5.083   5.925   0.340  0.7012 -0.4861  0.5641
 7222TIP3   OH221629   1.836   2.996   5.427  0.3830  0.5841 -0.1120
 7222TIP3    H121630   1.777   2.977   5.500 -0.5089  0.1951 -0.9160
 7222TIP3    H221631   1.913   2.943   5.444 -0.2897 -0.4020 -0.0408
 7223TIP3   OH221632   5.842   3.700   4.248  0.2302 -0.3861 -0.2924
 7223TIP3    H121633   5.870   3.633   4.186  0.3973 -0.1543 -0.4644
 7223TIP3    H221634   5.839   3.654   4.332  0.3254 -0.6162 -0.4135
 7224TIP3   OH221635   5.329   0.816   3.980 -0.7069  0.5528  0.0079
 7224TIP3    H121636   5.370   0.903   3.983  0.6981 -0.0679 -0.2708
 7224TIP3    H221637   5.315   0.799   3.887  1.2995 -0.4900 -0.1633
 7225TIP3   OH221638   3.406   0.589   4.408 -0.2616  0.2620  0.2152
 7225TIP3    H121639   3.464   0.660   4.436 -0.7162  0.3136  1.0556
 7225TIP3    H221640   3.466   0.524   4.369  0.3112  0.5010  0.6814
 7226TIP3   OH221641   2.183   4.480   1.419 -0.2842 -0.1868  0.1320
 7226TIP3    H121642   2.139   4.541   1.479 -2.2268 -0.2707 -1.1061
 7226TIP3    H221643   2.192   4.529   1.337 -0.6186 -1.0720 -0.4598
 7227TIP3   OH221644   0.413   5.877   1.458 -0.1734 -0.5390  0.1170
 7227TIP3    H121645   0.330   5.833   1.477 -0.1563 -0.8303 -0.4605
 7227TIP3    H221646   0.388   5.954   1.408 -0.1293 -0.3582  0.3679
 7228TIP3   OH221647   6.501   0.322   3.073 -0.3349  0.0446  0.3169
 7228TIP3    H121648   6.551   0.306   3.153 -1.2184 -0.6153  0.7559
 7228TIP3    H221649   6.524   0.249   3.016  0.3761  0.5720 -0.0798
 7229TIP3   OH221650   2.429   1.246   2.913  0.5306 -0.2256  0.2967
 7229TIP3    H121651   2.422   1.151   2.903 -0.2977 -0.1162 -0.2482
 7229TIP3    H221652   2.399   1.262   3.003 -0.9630 -0.3310 -0.1556
 7230TIP3   OH221653   5.553   3.045   2.711  0.2725  0.2093  0.7944
 7230TIP3    H121654   5.614   3.044   2.784 -1.0343  0.5066  1.9204
 7230TIP3    H221655   5.552   3.135   2.680  1.0075  0.0332  0.2331
 7231TIP3   OH221656   3.053   1.807   0.717 -0.2737  0.5476 -0.1061
 7231TIP3    H121657   3.089   1.791   0.630  0.0977 -1.5054  0.3618
 7231TIP3    H221658   3.068   1.900   0.733  1.1797  0.6115 -1.5588
 7232TIP3   OH221659   5.636   6.642   2.837 -0.0354 -0.4234  0.0426
 7232TIP3    H121660   5.594   6.576   2.782 -0.0729  0.9227 -1.6399
 7232TIP3    H221661   5.703   6.680   2.780  0.7627  0.1886  1.3653
 7233TIP3   OH221662   6.521   6.749   4.901  0.4257 -0.1201 -0.0194
 7233TIP3    H121663   6.574   6.682   4.859  0.0535  0.0900 -0.8304
 7233TIP3    H221664   6.462   6.700   4.959  0.7888 -0.4213  0.0991
 7234TIP3   OH221665   5.592   0.634   4.083  0.1153 -0.7724 -0.0238
 7234TIP3    H121666   5.526   0.691   4.042  0.7018 -1.0903 -1.4844
 7234TIP3    H221667   5.568   0.633   4.175 -1.4571 -0.2451 -0.3833
 7235TIP3   OH221668   3.120   0.903   0.342  0.1908 -0.5282  0.9372
 7235TIP3    H121669   3.154   0.949   0.265 -1.4502  1.7811  1.4841
 7235TIP3    H221670   3.121   0.811   0.317  1.4872 -0.0297 -1.1064
 7236TIP3   OH221671   6.731   2.771   1.742 -0.4161 -0.3306 -0.1756
 7236TIP3    H121672   6.792   2.748   1.672 -0.6995  2.3041 -1.3964
 7236TIP3    H221673   6.746   2.705   1.809  0.9607 -2.0652 -2.0688
 7237TIP3   OH221674   1.937   2.002   0.077  0.4444 -0.1779 -0.2509
 7237TIP3    H121675   1.912   1.964  -0.008 -0.2639 -0.5072  0.0983
 7237TIP3    H221676   1.922   1.933   0.140 -2.1786  1.0245  0.5923
 7238TIP3   OH221677   1.848   5.997   5.174 -0.2475  0.4033 -0.3745
 7238TIP3    H121678   1.914   5.970   5.110 -0.0355  1.5772 -0.6729
 7238TIP3    H221679   1.884   6.076   5.214 -0.2766 -0.4227  1.3897
 7239TIP3   OH221680   4.634   1.284   0.601  0.0163  0.1220  0.4115
 7239TIP3    H121681   4.657   1.238   0.521 -3.3455 -1.7781  0.3781
 7239TIP3    H221682   4.630   1.216   0.668  0.9547  1.3860  1.8460
 7240TIP3   OH221683   4.538   2.370   5.503 -0.6348  0.1020  0.7996
 7240TIP3    H121684   4.478   2.444   5.515 -1.1678 -0.1383 -0.1846
 7240TIP3    H221685   4.494   2.315   5.438  0.8745  0.1713 -0.3514
 7241TIP3   OH221686   2.145   4.633   5.852 -0.8708  0.3672  0.3980
 7241TIP3    H121687   2.058   4.672   5.860 -0.9121  0.0129  2.0278
 7241TIP3    H221688   2.136   4.546   5.890 -0.0095 -0.0110 -0.2405
 7242TIP3   OH221689   6.700   2.743   3.542  0.0107  0.0064 -0.0633
 7242TIP3    H121690   6.737   2.706   3.462 -0.6882  0.1939 -0.4810
 7242TIP3    H221691   6.678   2.833   3.519 -2.4217 -0.6055 -0.4275
 7243TIP3   OH221692   0.825   0.969   1.204  0.1136 -0.0681  0.2421
 7243TIP3    H121693   0.829   0.994   1.297  0.4954 -0.6072  0.3777
 7243TIP3    H221694   0.914   0.945   1.182  0.2669  1.1869 -0.6042
 7244TIP3   OH221695   0.566   5.838   5.805  0.1204  0.0805  0.2400
 7244TIP3    H121696   0.610   5.792   5.733  0.8956  1.8088 -0.4316
 7244TIP3    H221697   0.510   5.771   5.845  0.3565 -1.1491 -1.3927
 7245TIP3   OH221698   0.964   0.894   5.478 -0.6135  0.2320 -0.0888
 7245TIP3    H121699   0.872   0.920   5.475 -1.0401 -1.2483 -1.3069
 7245TIP3    H221700   0.980   0.873   5.570 -1.7760 -0.3721 -0.0085
 7246TIP3   OH221701   5.770   3.408   1.582 -0.1280  0.1652  0.3914
 7246TIP3    H121702   5.676   3.423   1.591 -0.1040 -0.0813  1.1551
 7246TIP3    H221703   5.808   3.496   1.577 -0.5580  0.2886 -2.1515
 7247TIP3   OH221704   1.225   5.342   2.291  0.0556  0.0266  0.1672
 7247TIP3    H121705   1.158   5.408   2.274  0.8078  0.3509 -1.8721
 7247TIP3    H221706   1.308   5.389   2.281  0.6244 -0.6343  1.4514
 7248TIP3   OH221707   1.693   1.668   1.318 -0.0688 -0.0618  0.0780
 7248TIP3    H121708   1.696   1.723   1.240 -0.6081  0.4001  0.3769
 7248TIP3    H221709   1.601   1.647   1.330 -0.1972  1.1826  1.4872
 7249TIP3   OH221710   0.173   5.956   3.190 -0.3050 -0.2320  0.4802
 7249TIP3    H121711   0.177   6.025   3.124 -1.3148  0.1020  0.7502
 7249TIP3    H221712   0.080   5.936   3.198 -0.0434 -1.5214  0.5270
 7250TIP3   OH221713   3.079   2.805   0.010  0.6612 -0.2379  0.3624
 7250TIP3    H121714   3.100   2.802   0.103 -0.8477 -1.2530  0.7128
 7250TIP3    H221715   2.984   2.820   0.007  0.4996 -1.2944 -0.9725
 7251TIP3   OH221716   6.861   2.724   4.127 -0.4242  0.1618  0.0450
 7251TIP3    H121717   6.874   2.736   4.033 -1.8595  0.5999 -0.1285
 7251TIP3    H221718   6.774   2.684   4.134 -0.1159 -0.3463  1.1651
 7252TIP3   OH221719   3.255   6.608   4.775 -0.4334  0.3728  0.1231
 7252TIP3    H121720   3.164   6.633   4.757 -1.7104 -0.7287  4.0068
 7252TIP3    H221721   3.252   6.513   4.785  1.1281  0.3318  0.4770
 7253TIP3   OH221722   2.086   5.852   5.774  0.5244  0.5819 -0.1164
 7253TIP3    H121723   2.030   5.811   5.708 -0.7151  1.5995  0.2795
 7253TIP3    H221724   2.164   5.796   5.776 -0.8173 -1.4046 -0.0416
 7254TIP3   OH221725   4.293   4.631   1.336 -0.5636 -0.2985  0.5831
 7254TIP3    H121726   4.199   4.614   1.322 -0.5798 -0.5158  0.9323
 7254TIP3    H221727   4.337   4.575   1.272 -0.6861  0.1299  0.1269
 7255TIP3   OH221728   2.512   3.871   1.357  0.0172  0.0624  0.7129
 7255TIP3    H121729   2.607   3.876   1.345  0.0057  0.6891  0.8555
 7255TIP3    H221730   2.479   3.834   1.275  0.3555  0.1478  0.5391
 7256TIP3   OH221731   2.742   4.271   0.881 -0.2767  0.3839  0.5047
 7256TIP3    H121732   2.725   4.195   0.937 -0.3455 -0.2348 -0.3360
 7256TIP3    H221733   2.769   4.233   0.797  0.6976  1.3017  0.3799
 7257TIP3   OH221734   2.149   4.275   1.999 -0.2425  0.1953  0.3202
 7257TIP3    H121735   2.112   4.363   2.006 -0.5251  0.0347  0.8587
 7257TIP3    H221736   2.198   4.276   1.916 -0.9013  0.6172 -0.0719
 7258TIP3   OH221737   6.156   1.079   2.711 -0.4454  0.0661 -0.3343
 7258TIP3    H121738   6.214   1.102   2.784 -0.7534  0.5906 -0.2519
 7258TIP3    H221739   6.070   1.066   2.752 -0.5607  0.0931 -0.5672
 7259TIP3   OH221740   3.457   1.008   4.347 -0.2224 -0.3755  0.1426
 7259TIP3    H121741   3.393   1.080   4.349  0.7834  0.5864 -0.5930
 7259TIP3    H221742   3.462   0.977   4.437 -1.9178 -0.6594  0.1605
 7260TIP3   OH221743   4.360   0.167   5.436  0.1798 -0.2980  0.6005
 7260TIP3    H121744   4.367   0.228   5.509 -0.2103  0.4468  0.0226
 7260TIP3    H221745   4.405   0.088   5.466  0.5500  0.2179  1.4098
 7261TIP3   OH221746   6.136   4.280   2.995  0.2669 -0.2109 -0.7165
 7261TIP3    H121747   6.184   4.210   2.952  0.3934  0.0949 -1.0784
 7261TIP3    H221748   6.197   4.354   2.996  1.0146 -0.7780  1.7727
 7262TIP3   OH221749   2.779   1.313   0.496  0.0583 -0.2895  0.0581
 7262TIP3    H121750   2.806   1.285   0.583  0.2798  1.1570  0.4758
 7262TIP3    H221751   2.861   1.325   0.448  0.0661  1.3614  0.4507
 7263TIP3   OH221752   1.815   6.260   1.062 -0.0122  0.3764 -0.0323
 7263TIP3    H121753   1.787   6.215   1.142 -1.4046 -0.6063 -1.0317
 7263TIP3    H221754   1.899   6.221   1.040 -1.4942 -2.4023 -1.2742
 7264TIP3   OH221755   3.531   2.070   0.166  0.0556  0.0884  0.3783
 7264TIP3    H121756   3.471   2.144   0.173  1.1593  0.8671  2.1881
 7264TIP3    H221757   3.512   2.016   0.243  0.6072 -0.4947  0.1174
 7265TIP3   OH221758   1.175   3.792   1.398 -1.0532  0.1197 -0.1267
 7265TIP3    H121759   1.210   3.853   1.332 -0.6602  0.4223  0.3600
 7265TIP3    H221760   1.156   3.848   1.474 -1.7123 -0.1937 -0.0585
 7266TIP3   OH221761   2.594   0.733   0.911  0.9013  0.2646  0.0330
 7266TIP3    H121762   2.593   0.644   0.876 -0.5902 -1.0958  3.0855
 7266TIP3    H221763   2.597   0.720   1.006 -2.4162  3.3549  0.7559
 7267TIP3   OH221764   1.618   2.802   2.881  0.5891 -0.0984  0.2812
 7267TIP3    H121765   1.594   2.839   2.796  2.2103 -0.7755 -0.5269
 7267TIP3    H221766   1.545   2.822   2.938 -0.1248  1.2061 -1.0395
 7268TIP3   OH221767   2.243   1.496   5.613 -0.2371  0.1419 -0.1755
 7268TIP3    H121768   2.218   1.563   5.677 -1.7975  0.5883 -1.1814
 7268TIP3    H221769   2.208   1.414   5.649  0.0243  0.1758  0.1590
 7269TIP3   OH221770   2.816   4.234   5.206 -0.3085 -0.2540  0.0071
 7269TIP3    H121771   2.862   4.215   5.287  0.9854  0.1398 -0.6113
 7269TIP3    H221772   2.844   4.323   5.182 -1.4066  0.0094 -0.3894
 7270TIP3   OH221773   2.586   3.792   0.713 -0.2237 -0.6140  0.7000
 7270TIP3    H121774   2.525   3.859   0.743 -2.6231 -1.6156 -1.5426
 7270TIP3    H221775   2.551   3.710   0.748  0.8793 -1.0388  0.8512
 7271TIP3   OH221776   2.796   4.728   2.515 -0.6766  0.3942 -0.2364
 7271TIP3    H121777   2.845   4.715   2.596  0.9824  0.3786 -1.1976
 7271TIP3    H221778   2.749   4.810   2.528  0.3343  0.8936  0.3876
 7272TIP3   OH221779   5.388   0.000   0.222 -0.5909  1.1198  0.1187
 7272TIP3    H121780   5.457   0.050   0.267 -1.5621  0.7200  2.1894
 7272TIP3    H221781   5.341   0.065   0.171  0.1459  1.7472  0.2172
 7273TIP3   OH221782   0.594   1.270   5.761 -0.0451  0.2080 -0.2236
 7273TIP3    H121783   0.581   1.340   5.825 -2.1407 -0.4117  0.1025
 7273TIP3    H221784   0.660   1.213   5.799  0.8119  1.3655  0.0495
 7274TIP3   OH221785   0.709   0.383   4.118  0.0459  0.5184  0.6978
 7274TIP3    H121786   0.686   0.445   4.187 -1.0571 -0.9198  1.7097
 7274TIP3    H221787   0.709   0.298   4.162  0.5453 -0.3171 -0.8311
 7275TIP3   OH221788   1.452   5.130   2.903  0.1921 -0.1444 -0.7203
 7275TIP3    H121789   1.495   5.131   2.817  0.1274  1.3604 -0.7615
 7275TIP3    H221790   1.523   5.149   2.964  0.6961 -3.3861 -0.1555
 7276TIP3   OH221791   5.634   6.268   0.731  0.2134 -0.0704 -0.3126
 7276TIP3    H121792   5.670   6.205   0.793 -1.0475  0.3928  0.9573
 7276TIP3    H221793   5.699   6.338   0.727  0.8904 -0.7009 -0.5200
 7277TIP3   OH221794   2.559   2.359   1.531  0.5469 -0.7576  0.6053
 7277TIP3    H121795   2.584   2.447   1.559 -1.0345 -0.4240  1.0963
 7277TIP3    H221796   2.642   2.312   1.523  1.2897 -0.0444  3.1144
 7278TIP3   OH221797   5.703   6.547   5.105  0.0384 -0.0835  0.2678
 7278TIP3    H121798   5.652   6.572   5.028  0.0338  1.6350  0.7789
 7278TIP3    H221799   5.703   6.452   5.105 -0.1677 -0.1169 -1.7206
 7279TIP3   OH221800   2.387   0.969   3.234  0.0506  0.1182 -0.4087
 7279TIP3    H121801   2.470   1.011   3.256  0.1929  0.0643 -0.8429
 7279TIP3    H221802   2.322   1.039   3.243 -0.1147 -0.2297  1.6034
 7280TIP3   OH221803   5.047   1.308   5.736 -0.0476  0.5425 -0.0378
 7280TIP3    H121804   5.133   1.347   5.754  0.2953 -0.6676  1.1645
 7280TIP3    H221805   4.986   1.381   5.741  1.0488  1.8202 -2.8516
 7281TIP3   OH221806   7.084   4.494   4.415  0.1203  0.4592  0.0916
 7281TIP3    H121807   7.154   4.516   4.354 -0.1116 -0.6701 -0.6105
 7281TIP3    H221808   7.008   4.542   4.382  0.3175  0.9191  0.2924
 7282TIP3   OH221809   1.592   3.084   0.292  0.1169 -0.0342  0.2258
 7282TIP3    H121810   1.560   3.156   0.347  1.1339  0.2099  0.5267
 7282TIP3    H221811   1.565   3.108   0.204  0.2431  0.6020  0.3540
 7283TIP3   OH221812   0.047   4.590   2.288  0.3713 -0.3181  0.6527
 7283TIP3    H121813   0.091   4.580   2.372  0.1581 -0.6851  0.7256
 7283TIP3    H221814   0.034   4.500   2.257  1.2295 -0.1735 -0.1887
 7284TIP3   OH221815   5.989   0.207   5.814 -0.5977 -0.1909 -0.3644
 7284TIP3    H121816   6.056   0.260   5.770  0.9333 -1.7250  0.0253
 7284TIP3    H221817   5.936   0.271   5.863  1.2147  0.9770  0.1638
 7285TIP3   OH221818   1.332   6.078   5.424 -0.2776 -0.2511 -0.6126
 7285TIP3    H121819   1.356   6.115   5.339 -0.9341 -1.1132 -1.1831
 7285TIP3    H221820   1.337   6.153   5.484 -0.2418  0.4644 -1.4801
 7286TIP3   OH221821   4.414   2.971   5.516  0.2511 -0.3588 -0.1087
 7286TIP3    H121822   4.481   2.950   5.451  0.9421 -0.7730  0.7069
 7286TIP3    H221823   4.424   3.065   5.531  0.0649 -0.2557 -0.6168
 7287TIP3   OH221824   4.580   6.391   4.041 -0.5321 -0.2285  0.2114
 7287TIP3    H121825   4.602   6.425   3.955 -0.6805 -0.3002  0.1462
 7287TIP3    H221826   4.489   6.362   4.034 -0.1685 -1.3830  0.0381
 7288TIP3   OH221827   1.110   2.532   5.175 -0.0060 -0.0722  0.2042
 7288TIP3    H121828   1.076   2.537   5.264 -0.7520 -0.0213 -0.0755
 7288TIP3    H221829   1.189   2.478   5.182 -1.1303 -1.7530  0.5913
 7289TIP3   OH221830   0.860   6.188   1.218 -0.3954 -0.4141 -0.4906
 7289TIP3    H121831   0.902   6.110   1.181 -0.1709 -1.2169  1.3428
 7289TIP3    H221832   0.859   6.172   1.312 -1.2258  1.3904 -0.1529
 7290TIP3   OH221833   1.126   5.668   2.644 -0.1847  0.4804 -0.0833
 7290TIP3    H121834   1.113   5.663   2.739 -0.3961 -0.6985 -0.1677
 7290TIP3    H221835   1.052   5.621   2.607  0.2181  0.4237 -0.8233
 7291TIP3   OH221836   0.117   6.231   0.825  0.2503 -0.0636  0.1901
 7291TIP3    H121837   0.089   6.309   0.873 -0.4075 -0.0339 -0.2351
 7291TIP3    H221838   0.036   6.184   0.806  0.5001 -0.0728 -0.8903
 7292TIP3   OH221839   5.851   6.625   1.797  0.1066 -0.2936 -0.3611
 7292TIP3    H121840   5.919   6.684   1.830  0.2738 -1.2187  1.0735
 7292TIP3    H221841   5.768   6.669   1.819  0.1829  1.0502 -2.5190
 7293TIP3   OH221842   7.150   3.000   0.535  0.3758 -0.5525  0.2826
 7293TIP3    H121843   7.097   2.926   0.566 -1.6302  0.9511  0.6267
 7293TIP3    H221844   7.131   3.006   0.442  0.9081 -0.7465  0.1584
 7294TIP3   OH221845   1.344   3.766   1.659  0.0886  0.1621 -0.3412
 7294TIP3    H121846   1.384   3.807   1.582  0.0871 -0.0581 -0.4605
 7294TIP3    H221847   1.295   3.691   1.623  1.3306 -0.8659  0.0239
 7295TIP3   OH221848   0.915   4.550   1.180  0.1291 -0.1871  0.1509
 7295TIP3    H121849   0.888   4.459   1.169  1.8665 -0.5715 -1.6779
 7295TIP3    H221850   0.844   4.591   1.228 -1.0041 -2.3518  0.4436
 7296TIP3   OH221851   6.774   6.144   3.155 -0.3311  0.2409  0.0538
 7296TIP3    H121852   6.795   6.210   3.221  0.0585 -0.4785  0.6603
 7296TIP3    H221853   6.766   6.193   3.073 -1.1835  1.2008  0.6855
 7297TIP3   OH221854   5.824   5.313   2.871 -0.4583 -0.1662  0.5305
 7297TIP3    H121855   5.733   5.297   2.846 -1.2201  2.1021  1.6320
 7297TIP3    H221856   5.823   5.312   2.967  0.3547  1.4034  0.5777
 7298TIP3   OH221857   5.018   6.335   1.233 -0.6314  0.1466  0.0843
 7298TIP3    H121858   5.022   6.313   1.140 -2.5473  0.0982 -0.0158
 7298TIP3    H221859   5.066   6.418   1.240  0.3579 -0.3321 -0.7614
 7299TIP3   OH221860   4.791   4.137   2.792  0.0702  0.1525 -0.2969
 7299TIP3    H121861   4.886   4.153   2.789  0.2079 -0.6493 -0.4029
 7299TIP3    H221862   4.769   4.143   2.885  0.7105 -2.2332  0.0756
 7300TIP3   OH221863   3.605   1.013   4.907  0.3245 -0.3310  0.5231
 7300TIP3    H121864   3.628   0.953   4.836 -0.2478  0.3903 -0.2934
 7300TIP3    H221865   3.571   1.090   4.863  4.1322  2.0706  1.3623
 7301TIP3   OH221866   5.419   1.847   5.564 -0.4249 -0.2561  0.2108
 7301TIP3    H121867   5.481   1.880   5.499 -1.3739 -0.2962 -0.7580
 7301TIP3    H221868   5.342   1.822   5.512 -0.8612 -1.1707  1.2541
 7302TIP3   OH221869   3.711   2.116   3.269  0.8378 -0.3118  0.5632
 7302TIP3    H121870   3.692   2.133   3.361 -1.9568  0.2448 -0.0437
 7302TIP3    H221871   3.673   2.191   3.222 -0.0171 -1.7729 -1.2042
 7303TIP3   OH221872   6.320   6.651   5.307 -0.3631  0.2948 -0.0568
 7303TIP3    H121873   6.400   6.698   5.331 -0.4804  0.6621 -0.3694
 7303TIP3    H221874   6.249   6.705   5.343 -0.5723  1.1690 -1.6910
 7304TIP3   OH221875   5.208   5.487   2.776 -0.3181 -0.0763  0.2064
 7304TIP3    H121876   5.234   5.572   2.741 -1.2429  0.4715  0.7861
 7304TIP3    H221877   5.231   5.424   2.708 -1.3084  0.8554 -1.0248
 7305TIP3   OH221878   6.400   3.108   2.773 -0.0090 -0.0923  0.0918
 7305TIP3    H121879   6.338   3.102   2.845 -0.1125 -2.0550 -0.1079
 7305TIP3    H221880   6.351   3.076   2.697  1.4206 -2.5036  0.0895
 7306TIP3   OH221881   4.655   5.556   3.234  0.0467  0.4561  0.2368
 7306TIP3    H121882   4.604   5.622   3.186  1.5948  2.0382  0.6437
 7306TIP3    H221883   4.712   5.517   3.167 -0.4255 -0.0378  0.1150
 7307TIP3   OH221884   1.958   3.104   2.767 -0.1790  0.8695  0.4163
 7307TIP3    H121885   1.876   3.089   2.719 -1.1227  0.5234  2.0594
 7307TIP3    H221886   1.991   3.017   2.787  1.0447  0.9951 -0.9024
 7308TIP3   OH221887   4.179   3.469   3.143  0.0504  0.0671  0.8220
 7308TIP3    H121888   4.272   3.450   3.158  0.0377 -1.7803 -1.0881
 7308TIP3    H221889   4.179   3.555   3.102  1.1223 -0.6974 -0.8950
 7309TIP3   OH221890   6.268   2.488   0.033 -0.2247  0.3559 -0.2416
 7309TIP3    H121891   6.215   2.533  -0.032  0.6103  1.6285 -0.0875
 7309TIP3    H221892   6.209   2.474   0.107 -0.2720  2.1474  0.1065
 7310TIP3   OH221893   0.130   2.869   1.799  0.3163 -0.3425 -0.2650
 7310TIP3    H121894   0.054   2.821   1.766  0.0764  0.6814 -1.2534
 7310TIP3    H221895   0.093   2.942   1.848  0.6674 -1.7157  2.2198
 7311TIP3   OH221896   1.421   2.318   4.059 -0.6690  0.8890  0.2398
 7311TIP3    H121897   1.480   2.391   4.081 -1.0688  1.1524  0.4385
 7311TIP3    H221898   1.435   2.254   4.130 -0.4445  0.8405  0.1550
 7312TIP3   OH221899   0.882   3.546   3.642  0.1126  0.1972 -0.0056
 7312TIP3    H121900   0.941   3.480   3.676 -0.5554 -0.1703  0.4704
 7312TIP3    H221901   0.916   3.568   3.556  0.9362 -0.0034  0.2662
 7313TIP3   OH221902   4.702   5.373   4.843  0.2366  0.1802  0.1057
 7313TIP3    H121903   4.659   5.429   4.907  1.5128  3.1894 -1.4676
 7313TIP3    H221904   4.789   5.357   4.880  0.9509  1.8669 -0.7005
 7314TIP3   OH221905   4.600   4.215   2.404  0.5672  0.0883 -0.0818
 7314TIP3    H121906   4.686   4.255   2.394  1.3180 -1.3824  0.3232
 7314TIP3    H221907   4.604   4.136   2.351 -1.1521  0.8584 -1.4733
 7315TIP3   OH221908   6.181   4.286   2.009  0.2583 -0.2124 -0.2719
 7315TIP3    H121909   6.155   4.328   2.091 -1.6084 -1.0219 -0.3947
 7315TIP3    H221910   6.234   4.211   2.036  0.9772  0.4302  0.1059
 7316TIP3   OH221911   4.676   3.392   2.790 -0.4827  0.1528  0.4347
 7316TIP3    H121912   4.638   3.398   2.703  0.9117  4.2494 -0.1061
 7316TIP3    H221913   4.600   3.382   2.848 -1.5126 -1.4712 -1.0561
 7317TIP3   OH221914   4.210   0.716   2.842 -0.2848  1.0339 -0.2913
 7317TIP3    H121915   4.260   0.775   2.786 -1.5237  1.1987 -1.2839
 7317TIP3    H221916   4.271   0.647   2.867  0.6634  1.7099 -0.7005
 7318TIP3   OH221917   3.832   1.074   5.527 -0.2956 -0.4987  0.2281
 7318TIP3    H121918   3.883   1.039   5.600 -0.0143  0.4205  0.4852
 7318TIP3    H221919   3.828   1.002   5.464  1.3487 -0.6025  0.1988
 7319TIP3   OH221920   3.598   4.415   4.507 -0.2216 -0.5233  0.3644
 7319TIP3    H121921   3.638   4.501   4.497 -0.7075 -0.4223 -0.9260
 7319TIP3    H221922   3.511   4.433   4.543  0.0433 -0.5558  1.0212
 7320TIP3   OH221923   5.272   4.683   4.377 -0.1808 -0.4812  0.0669
 7320TIP3    H121924   5.253   4.663   4.286 -1.1920 -0.3195  0.2332
 7320TIP3    H221925   5.186   4.695   4.418  0.2680 -0.1947  0.9573
 7321TIP3   OH221926   4.440   3.595   0.631 -0.1443  0.0383 -0.0964
 7321TIP3    H121927   4.499   3.559   0.565  1.2767  1.4733  0.3182
 7321TIP3    H221928   4.499   3.637   0.694 -1.3499 -2.2947  2.7716
 7322TIP3   OH221929   6.164   3.699   5.617 -0.9411  0.3855  0.1916
 7322TIP3    H121930   6.206   3.656   5.692 -0.0158 -1.0098 -1.0831
 7322TIP3    H221931   6.180   3.793   5.632 -1.6487  0.2352  2.2316
 7323TIP3   OH221932   0.186   4.226   3.656  0.0442  0.3676 -0.4978
 7323TIP3    H121933   0.162   4.201   3.567 -0.2080 -0.0126 -0.3238
 7323TIP3    H221934   0.102   4.235   3.702  0.2043 -0.7402  0.0550
 7324TIP3   OH221935   3.506   6.686   0.462  0.1625  0.1325 -0.0881
 7324TIP3    H121936   3.555   6.629   0.522  0.4035  1.2465  0.8057
 7324TIP3    H221937   3.567   6.702   0.390  0.3126 -0.2695 -0.0498
 7325TIP3   OH221938   1.535   5.196   2.590  0.1924 -0.1615  0.0617
 7325TIP3    H121939   1.484   5.273   2.565  0.9629  0.1405 -0.6297
 7325TIP3    H221940   1.549   5.148   2.509  0.6173 -0.4712  0.3111
 7326TIP3   OH221941   5.489   2.218   3.877 -0.0343  0.5371  0.0954
 7326TIP3    H121942   5.568   2.171   3.903 -1.2580 -0.9850  1.2425
 7326TIP3    H221943   5.472   2.277   3.950 -1.0265 -0.5711  0.7904
 7327TIP3   OH221944   3.066   5.180   4.437 -0.1150 -0.2665  0.2570
 7327TIP3    H121945   3.050   5.198   4.344  1.3876 -1.3559 -0.2450
 7327TIP3    H221946   2.980   5.189   4.478 -0.9388 -0.4421 -1.3570
 7328TIP3   OH221947   0.945   6.405   0.699  0.1762 -0.3717 -0.1459
 7328TIP3    H121948   0.964   6.347   0.625  1.9125  0.9178 -0.7791
 7328TIP3    H221949   1.031   6.430   0.732 -0.4099  2.8699 -0.7652
 7329TIP3   OH221950   4.416   3.466   5.013  0.6168 -0.3379  0.1458
 7329TIP3    H121951   4.393   3.373   5.012 -0.1270 -0.1726  0.9675
 7329TIP3    H221952   4.401   3.495   4.923  0.3829 -0.8935  0.0002
 7330TIP3   OH221953   1.471   1.435   5.751 -0.2866 -0.3011  0.3966
 7330TIP3    H121954   1.513   1.449   5.835 -1.0914  0.2370  0.7170
 7330TIP3    H221955   1.528   1.479   5.688  0.7387 -1.3781  0.5352
 7331TIP3   OH221956   4.681   5.224   1.266  0.0365 -0.0896 -0.7697
 7331TIP3    H121957   4.678   5.319   1.255 -0.9514  0.2727  1.9218
 7331TIP3    H221958   4.755   5.208   1.325 -0.3153 -0.8964 -0.5326
 7332TIP3   OH221959   4.268   0.897   5.495  0.0609  0.1222  0.1372
 7332TIP3    H121960   4.291   0.826   5.556 -0.6260 -0.8927 -0.7439
 7332TIP3    H221961   4.331   0.889   5.424  0.7353  1.1775  0.6009
 7333TIP3   OH221962   2.150   1.744   3.921 -0.5198 -0.3988 -0.2193
 7333TIP3    H121963   2.142   1.652   3.893  1.1111  0.3052 -3.5213
 7333TIP3    H221964   2.103   1.793   3.853 -0.7287  1.2729  1.0880
 7334TIP3   OH221965   5.144   4.353   0.957 -0.0192  0.7989  0.0030
 7334TIP3    H121966   5.171   4.377   1.046 -1.5184  0.1822  0.6619
 7334TIP3    H221967   5.152   4.258   0.955 -1.6145  0.6294  0.0857
 7335TIP3   OH221968   1.701   2.741   0.687  0.3454 -0.0836 -0.0006
 7335TIP3    H121969   1.676   2.820   0.641  0.6852 -0.1632 -0.3234
 7335TIP3    H221970   1.710   2.768   0.778  0.5346  0.2659 -0.1216
 7336TIP3   OH221971   7.016   4.023   0.156 -0.5574  0.1217 -0.0587
 7336TIP3    H121972   6.996   4.101   0.207  0.2515 -0.0566  0.5561
 7336TIP3    H221973   6.960   3.955   0.192  0.6756 -0.2390  1.2692
 7337TIP3   OH221974   4.340   0.400   2.155 -0.1527  0.7216  0.0842
 7337TIP3    H121975   4.340   0.327   2.217  1.2521 -0.5394 -1.3225
 7337TIP3    H221976   4.268   0.381   2.095  0.6110  0.1129 -0.6635
 7338TIP3   OH221977   5.893   0.287   3.911 -0.3221 -0.2588 -0.2364
 7338TIP3    H121978   5.814   0.331   3.882  0.4948  0.4209 -1.5205
 7338TIP3    H221979   5.953   0.358   3.935  0.1821 -0.7342 -0.0559
 7339TIP3   OH221980   0.312   3.047   0.275 -0.1099 -0.0288  0.5921
 7339TIP3    H121981   0.246   3.074   0.211  0.6512  0.8499  0.1614
 7339TIP3    H221982   0.280   3.080   0.359  0.3387  1.4331  0.2136
 7340TIP3   OH221983   4.646   3.836   4.916 -0.8307  0.6090  0.6351
 7340TIP3    H121984   4.580   3.767   4.917 -0.4606  0.1444 -1.4796
 7340TIP3    H221985   4.596   3.918   4.924 -1.5849  0.2280 -0.0315
 7341TIP3   OH221986   3.718   1.372   4.600  0.1926 -0.5796 -0.0632
 7341TIP3    H121987   3.678   1.459   4.608  1.7155  0.2126 -0.5658
 7341TIP3    H221988   3.648   1.316   4.566 -0.1646  1.0519 -2.2716
 7342TIP3   OH221989   6.385   2.956   1.166 -0.1677  0.3374 -0.2923
 7342TIP3    H121990   6.299   2.989   1.193 -0.6312  2.0139 -3.4144
 7342TIP3    H221991   6.381   2.952   1.071  3.1555  0.2071 -0.5468
 7343TIP3   OH221992   4.143   5.701   2.261  0.3002  0.1299  0.1954
 7343TIP3    H121993   4.208   5.704   2.192 -0.5075  0.4382 -0.5776
 7343TIP3    H221994   4.187   5.738   2.338  1.1230  0.0350 -0.2199
 7344TIP3   OH221995   5.642   1.226   4.938 -0.1108 -0.0369  0.1980
 7344TIP3    H121996   5.734   1.202   4.953  0.4516  1.4105 -0.8105
 7344TIP3    H221997   5.635   1.316   4.968 -0.9028  0.2715 -0.8595
 7345TIP3   OH221998   3.888   2.797   0.093  0.3806 -0.0908 -0.0405
 7345TIP3    H121999   3.955   2.849   0.049  0.4742  1.8089  2.1382
 7345TIP3    H222000   3.808   2.815   0.045  0.3837  2.2930  0.7072
 7346TIP3   OH222001   2.461   0.324   3.747 -0.1368  0.2634  0.5799
 7346TIP3    H122002   2.471   0.412   3.711  1.2960 -0.0016  0.2850
 7346TIP3    H222003   2.542   0.309   3.797 -0.3871 -0.8579  0.6742
 7347TIP3   OH222004   3.755   5.023   1.531 -0.5131  0.3748  0.3453
 7347TIP3    H122005   3.835   5.061   1.494  0.1251  0.1653  1.4595
 7347TIP3    H222006   3.753   5.056   1.621 -0.5764 -1.2456  0.9701
 7348TIP3   OH222007   1.209   4.354   3.667  0.1258  0.2397 -0.1770
 7348TIP3    H122008   1.285   4.302   3.694 -0.5542 -1.4103 -1.2712
 7348TIP3    H222009   1.189   4.409   3.742  2.0185  0.2880  0.3582
 7349TIP3   OH222010   1.528   1.545   4.340 -0.1761  0.3082  0.2959
 7349TIP3    H122011   1.571   1.460   4.337  1.0048  0.8531  1.0313
 7349TIP3    H222012   1.551   1.581   4.426 -1.7199  0.8305  0.5134
 7350TIP3   OH222013   3.525   4.552   3.958  0.1743 -0.0311  0.3620
 7350TIP3    H122014   3.517   4.524   3.867  0.5280 -0.0076  0.3219
 7350TIP3    H222015   3.584   4.488   3.998  1.3228  0.8632  0.1682
 7351TIP3   OH222016   1.286   2.692   5.039  0.1084  0.2133 -0.2210
 7351TIP3    H122017   1.230   2.637   5.094  0.5240 -0.5114 -0.5173
 7351TIP3    H222018   1.355   2.634   5.008  0.2142  0.7583 -1.0334
 7352TIP3   OH222019   0.952   3.312   0.859 -0.6356  0.0753  0.7476
 7352TIP3    H122020   0.920   3.371   0.926 -0.8650  0.4062  0.3486
 7352TIP3    H222021   0.982   3.234   0.907 -3.0019 -0.7024  1.0761
 7353TIP3   OH222022   3.478   2.287   0.482 -0.2506 -0.1612 -0.3946
 7353TIP3    H122023   3.550   2.302   0.543 -1.2273  0.0002  0.7351
 7353TIP3    H222024   3.418   2.359   0.497 -0.2161  0.2383 -2.0178
 7354TIP3   OH222025   3.698   3.268   2.711 -0.3352  0.0098  0.6196
 7354TIP3    H122026   3.669   3.219   2.788 -1.0802 -1.5466 -0.6004
 7354TIP3    H222027   3.750   3.340   2.747 -0.4778 -0.7918  2.5613
 7355TIP3   OH222028   0.162   4.296   2.587  0.8548  0.3149  0.0706
 7355TIP3    H122029   0.185   4.388   2.579  1.3778  0.2271  0.5213
 7355TIP3    H222030   0.245   4.249   2.579  0.9153  0.0067  2.0084
 7356TIP3   OH222031   2.660   1.601   2.756  0.9960  0.2798  0.4388
 7356TIP3    H122032   2.662   1.631   2.665 -2.4553  0.1467  0.1865
 7356TIP3    H222033   2.688   1.677   2.807  2.3228  0.5627 -0.6662
 7357TIP3   OH222034   5.248   0.640   3.401 -0.5431 -0.2041  0.1309
 7357TIP3    H122035   5.176   0.627   3.463  0.7402  0.9101  1.9470
 7357TIP3    H222036   5.205   0.664   3.319 -2.3406 -2.6274  0.2556
 7358TIP3   OH222037   1.598   3.933   3.429  0.1995 -0.3539 -0.4504
 7358TIP3    H122038   1.555   4.000   3.377 -0.5441  1.1811  1.9409
 7358TIP3    H222039   1.691   3.953   3.424  0.0252  0.5539 -0.2125
 7359TIP3   OH222040   4.752   1.610   3.148  0.8436 -0.3272  0.2549
 7359TIP3    H122041   4.703   1.688   3.123  0.8369 -0.4505 -0.1125
 7359TIP3    H222042   4.692   1.562   3.206  0.9916  0.1274  0.7950
 7360TIP3   OH222043   0.552   6.157   3.776 -0.2386  0.0992  0.1441
 7360TIP3    H122044   0.473   6.122   3.818 -1.0100  0.0873 -1.2389
 7360TIP3    H222045   0.583   6.084   3.721  1.2598 -0.1938  1.3226
 7361TIP3   OH222046   2.055   4.212   2.258  0.5517 -0.6455  0.9252
 7361TIP3    H122047   2.108   4.225   2.180  1.6132 -3.0098  1.1516
 7361TIP3    H222048   2.070   4.290   2.311  1.0405  0.2818 -0.5383
 7362TIP3   OH222049   5.977   5.571   4.028  0.1366  0.7405 -0.1151
 7362TIP3    H122050   5.930   5.630   4.087 -1.7579 -1.5190  0.7731
 7362TIP3    H222051   6.003   5.498   4.083  1.6358  0.2841 -1.3638
 7363TIP3   OH222052   2.606   4.547   5.036  0.4646 -0.5923  1.1757
 7363TIP3    H122053   2.529   4.583   5.080  0.5384 -0.4477  1.1888
 7363TIP3    H222054   2.597   4.452   5.044 -1.3530 -0.7741 -1.5141
 7364TIP3   OH222055   5.074   4.395   2.987 -0.1174 -0.1528  0.3193
 7364TIP3    H122056   5.041   4.335   3.055 -0.1345  0.0902  0.5270
 7364TIP3    H222057   5.057   4.482   3.022 -1.7470  0.0030 -0.7648
 7365TIP3   OH222058   6.463   1.778   2.327  0.1301 -0.1210  0.2960
 7365TIP3    H122059   6.448   1.774   2.422  0.8225  0.0191  0.4155
 7365TIP3    H222060   6.539   1.834   2.317 -1.2330  1.6859 -0.5017
 7366TIP3   OH222061   5.111   5.683   5.798  0.3603 -0.0500  0.4936
 7366TIP3    H122062   5.066   5.729   5.727 -0.5638 -3.3578 -1.2925
 7366TIP3    H222063   5.044   5.672   5.865  0.9850  2.2940  1.5905
 7367TIP3   OH222064   0.630   5.324   2.568 -0.1639 -0.7842  0.1219
 7367TIP3    H122065   0.583   5.369   2.498 -1.0261 -1.5528  0.1853
 7367TIP3    H222066   0.597   5.364   2.649  2.5156  1.7497  0.1127
 7368TIP3   OH222067   5.337   2.148   4.708  0.3548  0.1096  0.0861
 7368TIP3    H122068   5.279   2.129   4.634  0.6735  1.2267 -0.4848
 7368TIP3    H222069   5.393   2.219   4.676 -0.0516  1.1958  1.6977
 7369TIP3   OH222070   0.102   3.892   4.344 -0.0687  0.1424  0.6395
 7369TIP3    H122071   0.140   3.909   4.430  0.0949 -0.1232  0.6224
 7369TIP3    H222072   0.126   3.801   4.325  2.8521  1.1408 -1.1648
 7370TIP3   OH222073   1.765   5.581   2.515 -0.3230  0.6804  0.4652
 7370TIP3    H122074   1.693   5.598   2.454  0.0425  0.2444 -0.0996
 7370TIP3    H222075   1.833   5.643   2.490 -0.0190  0.2285  0.1635
 7371TIP3   OH222076   0.590   0.004   0.882 -0.4191 -0.0647 -0.2680
 7371TIP3    H122077   0.602   0.095   0.854  1.2590  0.2528  1.2842
 7371TIP3    H222078   0.531  -0.034   0.817 -2.3332  2.5035 -0.1691
 7372TIP3   OH222079   3.980   3.959   0.419 -0.1602  0.0329  0.2485
 7372TIP3    H122080   4.057   3.927   0.466 -0.3943  0.4360  0.9198
 7372TIP3    H222081   3.908   3.948   0.481 -0.3313  1.3590  0.3132
 7373TIP3   OH222082   5.143   3.865   1.198  0.5255  0.1182 -0.6393
 7373TIP3    H122083   5.078   3.811   1.243  2.1448 -0.9527  0.5217
 7373TIP3    H222084   5.198   3.802   1.151  0.8027  0.9813 -1.5003
 7374TIP3   OH222085   2.614   4.736   3.223 -0.0062  0.0895 -0.8579
 7374TIP3    H122086   2.562   4.811   3.251 -0.0293 -0.9763  2.3944
 7374TIP3    H222087   2.615   4.677   3.299  3.5728 -1.2514 -1.7084
 7375TIP3   OH222088   5.636   0.420   2.596 -0.3032  0.1802 -0.3651
 7375TIP3    H122089   5.652   0.509   2.564  1.6530  0.4287  1.0827
 7375TIP3    H222090   5.662   0.363   2.524 -0.9013  0.7560 -1.0537
 7376TIP3   OH222091   7.126   5.634   0.649  0.2366  0.3568 -0.1379
 7376TIP3    H122092   7.079   5.684   0.715  1.0243  0.7339  0.1431
 7376TIP3    H222093   7.141   5.696   0.578 -2.3476 -0.5213 -1.6135
 7377TIP3   OH222094   1.700   1.954   5.110 -1.2501 -0.8760  0.5340
 7377TIP3    H122095   1.733   2.030   5.158 -1.6331 -1.6509  2.0828
 7377TIP3    H222096   1.668   1.990   5.027  2.5283  0.0779 -0.7352
 7378TIP3   OH222097   5.404   0.293   2.807  0.1076 -0.1583 -0.2822
 7378TIP3    H122098   5.386   0.387   2.795  1.1781 -0.2043 -2.7741
 7378TIP3    H222099   5.480   0.291   2.865  1.0418  0.6081 -1.4448
 7379TIP3   OH222100   5.878   0.532   4.600  0.4159 -0.3372  0.6914
 7379TIP3    H122101   5.970   0.560   4.596  0.0157  1.0459 -2.1803
 7379TIP3    H222102   5.859   0.503   4.511 -2.5595  1.8479  0.4619
 7380TIP3   OH222103   4.958   1.259   5.503  0.3928 -0.0415 -1.1200
 7380TIP3    H122104   5.027   1.299   5.450  0.4456 -0.3147 -1.2578
 7380TIP3    H222105   4.988   1.269   5.593  0.6926 -0.3134 -1.1911
 7381TIP3   OH222106   0.087   2.648   3.442  0.1114 -0.0957 -0.4306
 7381TIP3    H122107   0.068   2.663   3.350  2.3064 -0.5960 -1.0340
 7381TIP3    H222108   0.031   2.574   3.467 -2.2188  1.4932 -0.6424
 7382TIP3   OH222109   3.801   1.722   4.331  0.3906 -0.3319  0.9377
 7382TIP3    H122110   3.736   1.651   4.324 -0.2722  0.3793 -0.6960
 7382TIP3    H222111   3.844   1.723   4.246  0.2802  1.3163  0.8702
 7383TIP3   OH222112   3.401   3.209   0.210 -0.0004  0.3292  0.3396
 7383TIP3    H122113   3.316   3.239   0.242 -0.4873  0.5337 -1.0901
 7383TIP3    H222114   3.403   3.233   0.117  1.9021  0.9312  0.4819
 7384TIP3   OH222115   6.086   3.782   3.959 -0.2980  0.1216  0.2626
 7384TIP3    H122116   6.082   3.843   3.886 -1.2669  0.7878  0.8503
 7384TIP3    H222117   6.017   3.812   4.019  0.4534 -0.4171  1.4320
 7385TIP3   OH222118   5.801   3.538   2.450 -0.3454 -0.7182 -0.1599
 7385TIP3    H122119   5.727   3.513   2.395 -0.3834 -0.2876 -0.3045
 7385TIP3    H222120   5.877   3.534   2.390 -0.2606 -1.0917 -0.0294
 7386TIP3   OH222121   1.681   4.758   0.233 -0.6204 -0.3201 -0.2884
 7386TIP3    H122122   1.600   4.709   0.247  0.1260 -1.1744  1.2707
 7386TIP3    H222123   1.676   4.832   0.294  0.1056 -0.8169  0.3864
 7387TIP3   OH222124   2.297   3.656   1.721 -0.0264 -0.1433 -0.2154
 7387TIP3    H122125   2.224   3.605   1.754  0.7330 -0.9221  0.2837
 7387TIP3    H222126   2.375   3.618   1.762  0.6063  1.1357 -0.1532
 7388TIP3   OH222127   1.309   2.876   5.748  0.1228  0.2621 -0.0584
 7388TIP3    H122128   1.275   2.950   5.799  0.0010 -0.0616  0.3359
 7388TIP3    H222129   1.380   2.841   5.802  0.0124 -0.0655 -0.1275
 7389TIP3   OH222130   1.615   4.388   1.122 -0.2382 -0.3314 -0.4357
 7389TIP3    H122131   1.521   4.372   1.128 -0.1323 -0.9369 -0.3725
 7389TIP3    H222132   1.647   4.380   1.212  0.0174 -1.0475 -0.5859
 7390TIP3   OH222133   3.249   0.805   2.027 -0.0981 -0.3047 -0.1092
 7390TIP3    H122134   3.291   0.855   1.958 -0.1886 -0.8225 -0.5456
 7390TIP3    H222135   3.167   0.773   1.988 -0.4116 -0.1513  0.4092
 7391TIP3   OH222136   2.107   5.153   3.518 -0.0260 -0.2078 -0.4846
 7391TIP3    H122137   2.017   5.126   3.537 -0.4822  1.1733 -0.5862
 7391TIP3    H222138   2.137   5.090   3.452 -0.5018 -1.3760  0.3855
 7392TIP3   OH222139   5.312   6.418   3.666  0.1328 -0.4925  0.1964
 7392TIP3    H122140   5.251   6.473   3.618  0.3216 -0.0156  0.4997
 7392TIP3    H222141   5.263   6.338   3.686 -0.0722 -0.5272 -0.4332
 7393TIP3   OH222142   3.584   0.337   4.393  0.0348 -0.2198  0.3469
 7393TIP3    H122143   3.675   0.357   4.418 -0.1620  0.9800  0.1766
 7393TIP3    H222144   3.588   0.323   4.298 -0.0597  0.6190  0.2050
 7394TIP3   OH222145   4.545   4.774   0.005 -0.9053 -0.1554  0.3378
 7394TIP3    H122146   4.506   4.861   0.008  1.1457  0.7922  1.6341
 7394TIP3    H222147   4.516   4.732   0.086  1.0144  0.7342  1.5554
 7395TIP3   OH222148   6.250   3.837   4.264 -0.5796  0.0507 -0.2519
 7395TIP3    H122149   6.243   3.848   4.169 -2.8452 -1.1823 -0.2956
 7395TIP3    H222150   6.173   3.882   4.299  0.6982  1.2696  1.1178
 7396TIP3   OH222151   4.166   5.216   1.539 -0.8720 -0.2366 -0.2965
 7396TIP3    H122152   4.075   5.242   1.529 -1.6258 -2.4653  0.1368
 7396TIP3    H222153   4.172   5.131   1.495  0.7443 -0.6072  0.5371
 7397TIP3   OH222154   5.664   3.857   1.080 -0.0371 -0.7669 -0.3493
 7397TIP3    H122155   5.689   3.879   1.170 -1.3339  0.3306 -0.2163
 7397TIP3    H222156   5.668   3.762   1.076  1.5976 -0.7668  0.3782
 7398TIP3   OH222157   0.217   2.567   1.818  0.0294  0.3632  0.2161
 7398TIP3    H122158   0.216   2.662   1.809  1.5765  0.5227  1.2115
 7398TIP3    H222159   0.287   2.550   1.881  0.0061 -1.4556 -0.1848
 7399TIP3   OH222160   5.179   3.494   4.939  0.0680 -0.5513  0.4402
 7399TIP3    H122161   5.181   3.426   4.871 -0.7402 -0.0505 -0.1089
 7399TIP3    H222162   5.135   3.568   4.897 -0.7002 -0.3242  1.5862
 7400TIP3   OH222163   0.899   4.576   2.804  0.0253  0.1975 -0.4172
 7400TIP3    H122164   0.863   4.512   2.866 -0.9548  0.8762 -0.2766
 7400TIP3    H222165   0.992   4.582   2.828 -0.3637  0.5741  1.1207
 7401TIP3   OH222166   2.415   0.462   2.668  1.0453  0.8688  0.2049
 7401TIP3    H122167   2.415   0.550   2.631  0.7260  0.8679  0.1950
 7401TIP3    H222168   2.324   0.447   2.693  1.4045  1.2353  1.8515
 7402TIP3   OH222169   4.832   4.568   2.179 -0.2961  0.4613 -0.8386
 7402TIP3    H122170   4.776   4.491   2.166  0.2804  0.1188 -1.3852
 7402TIP3    H222171   4.842   4.605   2.091 -1.0728  1.5342 -0.4916
 7403TIP3   OH222172   2.622   3.248   4.458  0.2603  0.2311 -0.1382
 7403TIP3    H122173   2.576   3.191   4.520  1.4489 -0.1948  0.3843
 7403TIP3    H222174   2.597   3.337   4.483  0.9013  0.0823  1.1368
 7404TIP3   OH222175   1.599   0.276   0.162 -0.6464  0.6765 -0.3559
 7404TIP3    H122176   1.635   0.208   0.219  0.8890  1.0406 -0.8230
 7404TIP3    H222177   1.505   0.270   0.173 -0.4499 -0.2310  1.0942
 7405TIP3   OH222178   7.179   5.203   2.110 -0.3903 -0.5973  0.4299
 7405TIP3    H122179   7.176   5.241   2.198 -0.6682  2.2630 -0.7017
 7405TIP3    H222180   7.144   5.115   2.121 -0.8603 -0.1664  3.1046
 7406TIP3   OH222181   6.209   3.359   1.785  0.1212 -0.3499  0.0405
 7406TIP3    H122182   6.245   3.297   1.848  1.7360 -0.1373 -0.6142
 7406TIP3    H222183   6.123   3.325   1.763 -0.0325 -0.9936  1.5496
 7407TIP3   OH222184   0.403   6.238   0.823 -0.0136  0.0494 -0.0103
 7407TIP3    H122185   0.308   6.239   0.832  0.0726 -0.6614  1.2459
 7407TIP3    H222186   0.426   6.145   0.813  0.6807 -0.0091  1.7353
 7408TIP3   OH222187   0.960   2.358   0.840 -0.2779  0.3201 -0.3611
 7408TIP3    H122188   0.970   2.381   0.933  0.0843 -1.4598  0.0871
 7408TIP3    H222189   0.967   2.441   0.794  0.6668  1.1235  1.1319
 7409TIP3   OH222190   5.853   3.346   4.231  0.1503 -0.2495 -0.3425
 7409TIP3    H122191   5.766   3.385   4.228 -0.1356 -0.8770 -0.3649
 7409TIP3    H222192   5.853   3.281   4.161  0.8906  0.2402 -0.8276
 7410TIP3   OH222193   0.828   1.838   4.545 -0.2784 -0.3800 -0.1360
 7410TIP3    H122194   0.889   1.800   4.482 -0.5185  0.8208 -1.1527
 7410TIP3    H222195   0.752   1.862   4.492 -1.1007 -0.7031  0.8910
 7411TIP3   OH222196   4.789   3.985   0.318 -0.6757 -0.1496 -0.0120
 7411TIP3    H122197   4.720   3.923   0.342 -1.5957  0.6694 -0.4659
 7411TIP3    H222198   4.779   4.057   0.380  0.5835 -0.5694  0.7089
 7412TIP3   OH222199   2.036   3.115   0.454  0.4425  0.0420 -0.5608
 7412TIP3    H122200   1.991   3.031   0.449 -0.0080  0.3347 -1.5753
 7412TIP3    H222201   2.111   3.107   0.396 -0.3464  0.7632 -1.7384
 7413TIP3   OH222202   3.407   5.066   5.289  0.0729 -0.1195 -0.4375
 7413TIP3    H122203   3.413   5.042   5.196 -0.0260 -1.4701 -0.1210
 7413TIP3    H222204   3.486   5.117   5.306  1.9760 -2.8712 -0.4630
 7414TIP3   OH222205   5.413   1.392   1.597  0.0150  0.0921 -0.1655
 7414TIP3    H122206   5.377   1.339   1.525 -1.6724 -0.2888  0.9173
 7414TIP3    H222207   5.465   1.459   1.553 -0.8816 -0.1924 -1.7455
 7415TIP3   OH222208   6.248   1.333   3.466  0.5424 -0.4118 -0.2236
 7415TIP3    H122209   6.239   1.298   3.378  1.5009 -0.3118 -0.3715
 7415TIP3    H222210   6.206   1.268   3.522 -1.2492  0.1477 -0.8426
 7416TIP3   OH222211   1.255   1.952   0.843 -0.1852  0.2048  0.5502
 7416TIP3    H122212   1.170   1.907   0.850  0.1653 -1.1834 -2.6191
 7416TIP3    H222213   1.319   1.886   0.870  0.1456 -0.3278 -1.4340
 7417TIP3   OH222214   0.773   3.841   1.164  0.3067 -0.3615  0.1092
 7417TIP3    H122215   0.776   3.791   1.083 -1.4786 -0.8932  0.3330
 7417TIP3    H222216   0.704   3.906   1.150  0.0254 -0.4111  1.1773
 7418TIP3   OH222217   0.785   5.793   1.711 -0.1339 -0.1230  0.1125
 7418TIP3    H122218   0.876   5.775   1.688  0.4549  2.4922  0.0511
 7418TIP3    H222219   0.738   5.791   1.628 -0.6263 -3.4468  0.3442
 7419TIP3   OH222220   3.935   6.387   5.276 -0.0075  0.0508  0.3971
 7419TIP3    H122221   4.001   6.331   5.317  0.2312  0.0415  0.0022
 7419TIP3    H222222   3.853   6.362   5.319  0.1621 -0.3075  0.5220
 7420TIP3   OH222223   5.477   4.320   3.125 -0.0869  0.4440 -0.1466
 7420TIP3    H122224   5.494   4.226   3.119 -1.6678  0.1840 -1.0907
 7420TIP3    H222225   5.557   4.362   3.094 -0.0329 -0.6381 -1.5427
 7421TIP3   OH222226   3.497   3.463   0.289  0.2203  0.0025  0.3663
 7421TIP3    H122227   3.411   3.502   0.273  0.2883 -0.0705 -0.2125
 7421TIP3    H222228   3.485   3.370   0.267 -0.0169 -0.3839  2.0037
 7422TIP3   OH222229   5.950   1.246   2.953  0.1573  0.2108  0.8422
 7422TIP3    H122230   6.015   1.249   3.023 -0.1281 -2.0556  1.2972
 7422TIP3    H222231   5.927   1.337   2.938  4.2590  1.3051 -0.1640
 7423TIP3   OH222232   3.422   6.442   1.063 -0.4251 -0.0085  0.5664
 7423TIP3    H122233   3.475   6.521   1.079 -1.2066  0.5885  0.2849
 7423TIP3    H222234   3.475   6.370   1.097  0.0473  0.7027  1.3652
 7424TIP3   OH222235   2.867   0.805   5.716 -0.1476  0.3417 -0.7224
 7424TIP3    H122236   2.791   0.863   5.719  0.7378  1.5021  2.1877
 7424TIP3    H222237   2.927   0.848   5.654 -1.2278  0.1445 -1.9571
 7425TIP3   OH222238   6.172   4.807   0.688  0.1085  0.2253 -0.2487
 7425TIP3    H122239   6.204   4.762   0.609 -1.5254 -0.3582 -0.6063
 7425TIP3    H222240   6.078   4.814   0.675  0.1836  3.1514  0.1160
 7426TIP3   OH222241   4.931   3.083   1.266 -0.3898 -0.0414 -0.1748
 7426TIP3    H122242   4.889   2.998   1.253 -1.4419  0.1443  1.6160
 7426TIP3    H222243   4.982   3.073   1.346  0.0551  0.8059 -0.3425
 7427TIP3   OH222244   4.072   1.795   3.137  0.2265 -0.6050 -0.0971
 7427TIP3    H122245   4.087   1.701   3.142 -2.1591 -1.0223  0.7023
 7427TIP3    H222246   4.117   1.831   3.213 -0.6908 -1.4321  0.8663
 7428TIP3   OH222247   3.849   2.215   1.478  0.2096  0.2145  0.1328
 7428TIP3    H122248   3.944   2.215   1.479  0.3694  3.0851 -1.6531
 7428TIP3    H222249   3.825   2.308   1.486 -2.6197 -0.6124  3.7852
 7429TIP3   OH222250   1.829   0.552   4.271  0.0070  0.1291  0.7732
 7429TIP3    H122251   1.738   0.582   4.273  1.1112  4.0328  1.7455
 7429TIP3    H222252   1.842   0.507   4.354 -0.5835  1.3740  1.5702
 7430TIP3   OH222253   7.078   5.209   1.073  0.1315 -0.5415 -0.2536
 7430TIP3    H122254   7.065   5.251   0.987  1.4424  0.3839 -0.0454
 7430TIP3    H222255   7.170   5.227   1.093 -0.2465 -0.4631  1.5008
 7431TIP3   OH222256   4.987   4.431   4.556 -0.0377  0.2910  0.4205
 7431TIP3    H122257   5.010   4.404   4.467  0.0744  0.6390  0.3397
 7431TIP3    H222258   4.891   4.430   4.558 -0.1587  2.7020 -0.5056
 7432TIP3   OH222259   5.932   6.546   5.305  0.3225 -0.5902  0.5416
 7432TIP3    H122260   5.938   6.637   5.335 -1.0283 -0.5920  0.8871
 7432TIP3    H222261   5.871   6.549   5.231  0.5098 -1.1792  0.3594
 7433TIP3   OH222262   0.895   4.071   3.789 -0.4384 -0.3510  0.4514
 7433TIP3    H122263   0.983   4.051   3.757 -0.2470  0.3607  0.4960
 7433TIP3    H222264   0.844   3.993   3.769  0.1441 -0.6797  0.1942
 7434TIP3   OH222265   2.610   1.341   4.818  0.4907 -0.3467  0.3338
 7434TIP3    H122266   2.536   1.292   4.854 -0.1824 -0.4283 -1.1063
 7434TIP3    H222267   2.631   1.405   4.886 -1.0447 -0.1775  0.6835
 7435TIP3   OH222268   3.788   3.640   1.567  0.3961 -0.3276  0.3770
 7435TIP3    H122269   3.702   3.597   1.565  1.1386 -1.8403 -0.7591
 7435TIP3    H222270   3.793   3.688   1.485  0.6476 -0.2962  0.4095
 7436TIP3   OH222271   4.105   4.439   4.900 -0.2050  0.2404 -0.4563
 7436TIP3    H122272   4.036   4.469   4.840 -1.0881 -0.6036  0.1020
 7436TIP3    H222273   4.060   4.426   4.984  0.6324 -0.3193 -0.0779
 7437TIP3   OH222274   6.798   4.829   0.335 -0.1202  0.0394 -0.1056
 7437TIP3    H122275   6.751   4.842   0.417 -0.8670 -0.2424 -0.4746
 7437TIP3    H222276   6.777   4.740   0.309 -0.2249  0.2622 -0.8073
 7438TIP3   OH222277   2.226   1.916   4.381 -0.2553 -0.0768  0.1499
 7438TIP3    H122278   2.281   1.877   4.450 -0.7963 -0.4354  0.3842
 7438TIP3    H222279   2.247   1.865   4.303 -1.0164 -0.9193  0.4724
 7439TIP3   OH222280   5.870   3.450   0.559 -0.1464  0.0369  0.2347
 7439TIP3    H122281   5.938   3.443   0.492 -0.8810 -0.2513 -0.4914
 7439TIP3    H222282   5.819   3.369   0.550  0.0553 -0.2564  1.4967
 7440TIP3   OH222283   3.561   6.025   2.012  0.2434  0.1725  0.5809
 7440TIP3    H122284   3.639   6.049   1.963 -0.2260  1.3527  0.3939
 7440TIP3    H222285   3.489   6.034   1.950  0.0195 -1.6965  0.5140
 7441TIP3   OH222286   5.768   4.960   5.544 -0.1372 -0.6911  0.0948
 7441TIP3    H122287   5.833   4.948   5.475  0.9660  3.5909  0.0960
 7441TIP3    H222288   5.688   4.985   5.497 -0.2089 -0.5429  0.2978
 7442TIP3   OH222289   3.619   6.608   5.378  0.7976 -0.6244 -0.2264
 7442TIP3    H122290   3.618   6.704   5.380  0.4013 -0.6233  2.2465
 7442TIP3    H222291   3.528   6.583   5.394  0.9877 -1.4368 -0.3810
 7443TIP3   OH222292   5.006   1.069   0.190 -0.2404 -0.2522 -0.3260
 7443TIP3    H122293   5.071   1.133   0.160 -0.5359  1.8685  2.9459
 7443TIP3    H222294   5.057   1.005   0.240 -0.2670 -0.9198 -1.1409
 7444TIP3   OH222295   6.494   5.460   3.205  0.0186 -0.0026 -0.3284
 7444TIP3    H122296   6.545   5.418   3.136  0.1517  0.0703 -0.2739
 7444TIP3    H222297   6.446   5.388   3.246  0.5397 -0.1583  0.0167
 7445TIP3   OH222298   4.550   2.905   5.210  0.3675  0.1388 -0.0461
 7445TIP3    H122299   4.600   2.982   5.186  0.4474  0.4052  0.9508
 7445TIP3    H222300   4.615   2.836   5.220  0.2465 -0.2095 -1.4533
 7446TIP3   OH222301   3.018   4.721   2.355 -0.1179 -0.0500 -0.1735
 7446TIP3    H122302   2.928   4.732   2.385  0.1344  0.4125  0.4368
 7446TIP3    H222303   3.012   4.724   2.259 -0.5979  1.4025 -0.1302
 7447TIP3   OH222304   1.156   5.684   0.085 -0.2982 -0.3964 -0.1214
 7447TIP3    H122305   1.067   5.668   0.117  0.1462 -0.1056  1.3295
 7447TIP3    H222306   1.175   5.774   0.112  0.1364 -0.1673 -1.1679
 7448TIP3   OH222307   6.679   0.094   4.142  0.2001 -0.0057 -0.3455
 7448TIP3    H122308   6.638   0.158   4.201 -0.8476 -1.7153  0.8462
 7448TIP3    H222309   6.606   0.055   4.094  0.3740 -2.6412  1.3392
 7449TIP3   OH222310   3.554   5.692   0.275 -0.0199 -0.0529  0.4816
 7449TIP3    H122311   3.638   5.735   0.264 -0.0566  0.2127  1.1785
 7449TIP3    H222312   3.573   5.614   0.326 -0.1126 -0.3058  0.1344
 7450TIP3   OH222313   1.475   1.302   4.626 -0.4888  0.2924 -0.3551
 7450TIP3    H122314   1.557   1.338   4.593 -0.6608  0.1153 -1.0161
 7450TIP3    H222315   1.492   1.208   4.634 -0.6746  0.2272 -0.6756
 7451TIP3   OH222316   0.074   1.599   1.916  0.0944 -0.1308 -0.0877
 7451TIP3    H122317  -0.018   1.612   1.938  0.4195 -0.8764  1.9889
 7451TIP3    H222318   0.074   1.576   1.824 -1.8284 -0.4280 -0.0541
 7452TIP3   OH222319   4.018   0.372   1.161  0.0375  0.2643 -0.0795
 7452TIP3    H122320   4.008   0.393   1.068  0.0650 -1.4905 -0.5145
 7452TIP3    H222321   3.985   0.450   1.206 -0.6186  0.8873 -1.5445
 7453TIP3   OH222322   4.841   4.730   0.526  0.1312 -1.1211  0.4276
 7453TIP3    H122323   4.769   4.702   0.470  0.4456 -0.1697 -0.5163
 7453TIP3    H222324   4.840   4.826   0.520  1.4971 -1.0829  0.3304
 7454TIP3   OH222325   4.098   5.743   3.996  0.4992  0.3574 -0.6355
 7454TIP3    H122326   4.040   5.775   3.926  0.2860  1.4897  0.0334
 7454TIP3    H222327   4.055   5.663   4.028 -0.0137  0.4790 -1.0128
 7455TIP3   OH222328   1.256   4.116   4.647 -0.5217 -0.0001  0.3236
 7455TIP3    H122329   1.183   4.108   4.586  0.8939  0.8573 -1.6040
 7455TIP3    H222330   1.296   4.029   4.648 -1.0476 -0.2408  0.6978
 7456TIP3   OH222331   6.388   4.160   2.581 -0.5580  0.5050 -0.5704
 7456TIP3    H122332   6.301   4.122   2.590 -0.9007  0.6411 -2.7277
 7456TIP3    H222333   6.394   4.184   2.488  2.7219 -1.8260 -1.1190
 7457TIP3   OH222334   6.155   2.518   2.941 -0.1437 -0.0263  0.2045
 7457TIP3    H122335   6.152   2.573   2.863  1.9782 -0.1979 -0.0629
 7457TIP3    H222336   6.127   2.575   3.012 -1.9238  0.1836 -0.6315
 7458TIP3   OH222337   1.567   0.278   2.246 -0.3735  0.4738  0.1521
 7458TIP3    H122338   1.603   0.358   2.283  2.2000 -1.1011  1.3313
 7458TIP3    H222339   1.549   0.222   2.322 -0.3488 -0.7293 -0.6957
 7459TIP3   OH222340   4.119   0.222   4.647  0.0271  1.0337  0.1929
 7459TIP3    H122341   4.073   0.228   4.730  0.6589 -0.1275  0.6487
 7459TIP3    H222342   4.212   0.222   4.670  0.2062  0.4146 -0.4735
 7460TIP3   OH222343   3.052   0.181   4.521 -0.2157 -0.4136  0.4629
 7460TIP3    H122344   3.016   0.217   4.602 -0.2999  1.2730 -0.2763
 7460TIP3    H222345   3.134   0.229   4.508 -0.6492 -0.0089 -0.9000
 7461TIP3   OH222346   1.651   3.590   4.592 -0.0720  0.0403 -0.4782
 7461TIP3    H122347   1.734   3.551   4.619 -0.5926 -0.9408 -0.2570
 7461TIP3    H222348   1.650   3.580   4.497  1.1000  2.1860 -0.7947
 7462TIP3   OH222349   4.203   4.395   5.375  0.0362  0.1609 -0.5197
 7462TIP3    H122350   4.208   4.333   5.302  0.4474 -0.1392 -0.2413
 7462TIP3    H222351   4.270   4.365   5.437 -2.1542 -1.2918  1.3251
 7463TIP3   OH222352   1.483   2.764   4.451  0.1940 -0.1493 -0.0361
 7463TIP3    H122353   1.510   2.676   4.426  0.9460 -0.2297  1.0089
 7463TIP3    H222354   1.412   2.750   4.513  0.0915 -0.0077 -0.1218
 7464TIP3   OH222355   6.909   1.990   2.016  0.3931 -0.0665 -0.0858
 7464TIP3    H122356   6.817   2.009   2.037  0.3980  1.6343 -1.4020
 7464TIP3    H222357   6.904   1.930   1.942  0.2890  1.3262 -1.2469
 7465TIP3   OH222358   6.949   5.638   1.811 -0.0420  0.0538  0.4959
 7465TIP3    H122359   6.879   5.685   1.858  0.0557  0.7404 -0.0335
 7465TIP3    H222360   7.028   5.654   1.863  0.3984  2.1705 -0.6988
 7466TIP3   OH222361   2.221   4.460   5.075  0.1872 -0.1420  0.4564
 7466TIP3    H122362   2.126   4.452   5.081  0.2095 -1.4291 -0.4186
 7466TIP3    H222363   2.240   4.452   4.982  1.2645 -1.7497  0.7709
 7467TIP3   OH222364   0.445   4.432   0.780 -0.0221  0.3781 -0.0412
 7467TIP3    H122365   0.367   4.407   0.730  0.3523  2.7042 -1.9719
 7467TIP3    H222366   0.504   4.470   0.715  2.3325 -0.3686  1.5374
 7468TIP3   OH222367   0.161   4.039   2.362  0.1478  0.9256  0.7334
 7468TIP3    H122368   0.079   4.082   2.386  0.2188  0.6567  1.4937
 7468TIP3    H222369   0.174   3.973   2.430  1.0591  1.0453  0.6896
 7469TIP3   OH222370   2.832   1.529   4.486 -0.0195  0.5660  0.1351
 7469TIP3    H122371   2.757   1.521   4.428 -1.6420  0.9864  2.0776
 7469TIP3    H222372   2.823   1.615   4.527  1.0381  0.2724  1.0484
 7470TIP3   OH222373   3.557   5.530   5.653 -0.1230 -0.4814  0.7174
 7470TIP3    H122374   3.580   5.454   5.600 -1.1007 -0.3503  0.0850
 7470TIP3    H222375   3.576   5.605   5.597 -0.3952 -0.3138  0.8479
 7471TIP3   OH222376   1.670   1.110   1.274 -0.0471 -0.3194  0.0182
 7471TIP3    H122377   1.649   1.039   1.214 -1.3292  0.4218 -0.4488
 7471TIP3    H222378   1.719   1.172   1.221 -1.2323  0.3643 -0.3190
 7472TIP3   OH222379   2.733   2.861   5.809  0.0451  0.5939  0.2847
 7472TIP3    H122380   2.749   2.766   5.811 -3.3858 -0.1695 -1.6795
 7472TIP3    H222381   2.798   2.894   5.747  0.1482 -0.7570 -0.3798
 7473TIP3   OH222382   1.014   1.750   1.076 -0.0886  0.0680  0.5351
 7473TIP3    H122383   1.000   1.806   1.000 -2.4763 -1.0340  0.0834
 7473TIP3    H222384   1.109   1.750   1.088  0.2430  1.4020 -1.5698
 7474TIP3   OH222385   3.858   4.810   3.686  0.3590 -0.0862  0.1304
 7474TIP3    H122386   3.910   4.855   3.620  1.7041  0.0579  1.2437
 7474TIP3    H222387   3.883   4.851   3.769 -3.1694  1.5635  0.5775
 7475TIP3   OH222388   6.895   1.449   4.271 -0.1348 -0.0264 -0.5191
 7475TIP3    H122389   6.911   1.531   4.224 -0.2790 -0.7726 -1.9284
 7475TIP3    H222390   6.974   1.435   4.323  0.5664  0.2324 -1.4778
 7476TIP3   OH222391   1.658   4.472   5.495 -0.2209  0.8061 -0.0882
 7476TIP3    H122392   1.584   4.528   5.471 -0.0748  0.9603 -0.1807
 7476TIP3    H222393   1.718   4.479   5.421  0.4135  1.5896  0.4824
 7477TIP3   OH222394   2.965  -0.008   4.778 -0.0330  0.1132 -0.3261
 7477TIP3    H122395   3.044   0.022   4.824 -1.1977  1.3569  0.9688
 7477TIP3    H222396   2.986   0.000   4.685  0.7622  2.1549 -0.0132
 7478TIP3   OH222397   0.860   2.543   2.573  0.9667 -0.2746 -0.1469
 7478TIP3    H122398   0.821   2.602   2.638  2.8565  2.1195 -1.0048
 7478TIP3    H222399   0.914   2.483   2.624  1.4660  0.7968  0.6282
 7479TIP3   OH222400   3.141   1.224   4.727  0.4178 -0.2786  0.1093
 7479TIP3    H122401   3.122   1.299   4.671  0.6258 -0.5873 -0.3806
 7479TIP3    H222402   3.061   1.212   4.778  0.4702  0.4206  0.3652
 7480TIP3   OH222403   5.532   0.834   4.435  0.0603 -0.6933  0.3883
 7480TIP3    H122404   5.520   0.740   4.448 -0.1552 -1.1058 -2.1916
 7480TIP3    H222405   5.615   0.841   4.387 -0.7685  0.2250 -0.9946
 7481TIP3   OH222406   5.122   3.085   2.407 -0.2350  0.2552  0.4898
 7481TIP3    H122407   5.086   3.115   2.323 -1.9046  0.3680  1.1922
 7481TIP3    H222408   5.131   3.165   2.458  0.3043  0.1325  0.5833
 7482TIP3   OH222409   2.923   6.423   1.443 -0.2859 -0.0718 -0.4029
 7482TIP3    H122410   2.935   6.331   1.418  1.1466 -0.8605  2.6527
 7482TIP3    H222411   3.011   6.461   1.434 -0.5949  0.6373 -0.4331
 7483TIP3   OH222412   2.168   0.765   5.447  0.7090 -0.2904 -0.6744
 7483TIP3    H122413   2.153   0.810   5.530 -0.4617  0.3244 -1.1912
 7483TIP3    H222414   2.211   0.683   5.471 -1.0642 -0.8653  0.7163
 7484TIP3   OH222415   6.084   5.887   1.255  0.0780  0.3727 -0.3446
 7484TIP3    H122416   6.089   5.902   1.161  1.1589 -1.5139 -0.6361
 7484TIP3    H222417   6.164   5.925   1.290 -0.4300  1.2763 -0.1231
 7485TIP3   OH222418   6.405   2.332   4.485 -0.2418 -0.0409  0.3356
 7485TIP3    H122419   6.319   2.312   4.520 -0.4871  0.9080  0.3081
 7485TIP3    H222420   6.404   2.298   4.396 -1.1995  1.3878 -0.2470
 7486TIP3   OH222421   7.238   4.399   3.353 -0.2221 -0.2068  0.2959
 7486TIP3    H122422   7.218   4.453   3.430  0.0751  0.4435 -0.0772
 7486TIP3    H222423   7.166   4.418   3.292  1.1473  1.6996 -0.8225
 7487TIP3   OH222424   6.972   2.898   5.153  0.3049 -0.2333 -0.1650
 7487TIP3    H122425   6.934   2.810   5.152 -0.8712  0.2501 -0.6035
 7487TIP3    H222426   6.964   2.929   5.063  0.7042  0.3206 -0.0147
 7488TIP3   OH222427   6.697   6.723   2.582  0.1209 -0.1491  0.4266
 7488TIP3    H122428   6.673   6.797   2.639 -0.0955  0.3258 -0.2588
 7488TIP3    H222429   6.792   6.726   2.578  0.0647  1.1390 -0.9033
 7489TIP3   OH222430   5.181   4.772   1.533 -0.0036  0.8525  0.1251
 7489TIP3    H122431   5.198   4.683   1.565  1.1692 -0.3654 -3.3541
 7489TIP3    H222432   5.267   4.809   1.515 -0.5242  1.8383 -0.4576
 7490TIP3   OH222433   6.633   3.520   1.385 -0.1469 -0.1894 -0.4736
 7490TIP3    H122434   6.662   3.465   1.313  1.6431  2.4851 -1.9618
 7490TIP3    H222435   6.544   3.545   1.361 -0.4366 -1.1810 -0.5035
 7491TIP3   OH222436   2.855   2.716   4.309 -0.1734  0.0479 -0.0705
 7491TIP3    H122437   2.841   2.627   4.278 -0.9884 -0.1929  0.9116
 7491TIP3    H222438   2.875   2.766   4.230  1.6934 -1.2390 -0.4828
 7492TIP3   OH222439   0.415   1.196   4.664  0.2587 -0.6778 -0.4036
 7492TIP3    H122440   0.499   1.207   4.708  0.4455 -0.3984 -0.8299
 7492TIP3    H222441   0.372   1.281   4.671  0.7158 -0.3228 -1.6341
 7493TIP3   OH222442   4.361   3.121   2.151  0.0295 -0.2669 -0.2597
 7493TIP3    H122443   4.442   3.137   2.102  0.1206  0.2477  0.0525
 7493TIP3    H222444   4.366   3.029   2.176  0.8739 -0.0613  0.3944
 7494TIP3   OH222445   6.665   3.617   1.076  0.2289  0.0821 -0.2800
 7494TIP3    H122446   6.749   3.656   1.101 -0.3535  1.4166 -0.2611
 7494TIP3    H222447   6.624   3.683   1.020 -0.8141 -0.5244 -0.2653
 7495TIP3   OH222448   6.832   4.793   5.316 -0.1217 -0.4574  0.6903
 7495TIP3    H122449   6.870   4.724   5.262  0.6796 -0.1287  0.8229
 7495TIP3    H222450   6.883   4.791   5.397 -1.4190 -1.0599  1.5251
 7496TIP3   OH222451   5.756   4.466   4.773 -0.1416  0.4994  0.6134
 7496TIP3    H122452   5.849   4.447   4.786 -0.3255 -0.2016  0.9906
 7496TIP3    H222453   5.719   4.462   4.861 -0.4529  1.2413  0.5230
 7497TIP3   OH222454   4.270   2.726   5.357  0.3612 -0.6567 -0.0776
 7497TIP3    H122455   4.316   2.803   5.323 -0.4827  1.3410  2.9303
 7497TIP3    H222456   4.186   2.727   5.311  0.2006  0.5020  0.1929
 7498TIP3   OH222457   3.469   2.490   3.516  0.2258  0.1692 -0.5487
 7498TIP3    H122458   3.530   2.516   3.446  1.7576 -0.4352  0.5014
 7498TIP3    H222459   3.515   2.420   3.562 -1.2570 -0.2395  0.3492
 7499TIP3   OH222460   5.040   2.122   3.055  0.6273  0.0376 -0.2907
 7499TIP3    H122461   5.035   2.034   3.094  1.3507 -0.1617 -0.6227
 7499TIP3    H222462   5.126   2.124   3.014  1.3316  1.5198  1.1490
 7500TIP3   OH222463   6.806   0.827   0.191  0.1095  0.0775 -0.2569
 7500TIP3    H122464   6.720   0.866   0.175  0.4554  0.7413 -0.5531
 7500TIP3    H222465   6.791   0.765   0.262 -0.4909  0.6391  0.1179
 7501TIP3   OH222466   1.725   3.059   3.748  0.5285  0.0929 -0.1991
 7501TIP3    H122467   1.640   3.101   3.734  0.3268 -0.5158 -0.8533
 7501TIP3    H222468   1.772   3.072   3.665  0.1330 -1.6918 -0.7623
 7502TIP3   OH222469   0.816  -0.011   0.542  0.2387 -0.6636  0.3744
 7502TIP3    H122470   0.828   0.083   0.536 -0.0409 -0.7326 -2.3299
 7502TIP3    H222471   0.889  -0.041   0.596 -0.2916  1.1550  2.2162
 7503TIP3   OH222472   2.135   2.392   2.595 -0.0715  0.6954 -0.0519
 7503TIP3    H122473   2.139   2.302   2.561  0.6996  0.6645  0.0837
 7503TIP3    H222474   2.060   2.393   2.654 -1.6431  0.8318 -1.9596
 7504TIP3   OH222475   4.685   1.056   4.327 -0.2016 -0.8938 -0.0868
 7504TIP3    H122476   4.672   1.113   4.251 -0.8677 -1.9602 -0.8083
 7504TIP3    H222477   4.600   1.053   4.370 -0.1219 -1.1891  0.0555
 7505TIP3   OH222478   1.116   1.236   0.699  0.4607  0.2178 -0.2455
 7505TIP3    H122479   1.133   1.240   0.605 -0.7801 -0.1736 -0.5065
 7505TIP3    H222480   1.189   1.187   0.734  0.7381  0.0186 -1.0678
 7506TIP3   OH222481   5.612   1.743   2.414  0.0181 -0.2049 -0.0381
 7506TIP3    H122482   5.525   1.712   2.389  0.7174 -1.7889 -0.5847
 7506TIP3    H222483   5.667   1.730   2.337  1.1368 -0.8192  0.8238
 7507TIP3   OH222484   6.662   5.631   5.643 -0.2178 -0.4807  0.2183
 7507TIP3    H122485   6.749   5.594   5.660  0.3878  1.3184  1.3289
 7507TIP3    H222486   6.674   5.683   5.563 -0.8875 -2.0466 -0.9405
 7508TIP3   OH222487   2.836   2.019   4.456 -0.8204 -0.0151 -0.0621
 7508TIP3    H122488   2.742   2.027   4.440 -0.7123  1.0436 -0.2278
 7508TIP3    H222489   2.877   2.034   4.371 -0.4629  0.4333  0.1841
 7509TIP3   OH222490   0.178   2.564   1.455  0.3376 -0.4576 -0.2665
 7509TIP3    H122491   0.109   2.498   1.465  1.0266 -1.3591 -1.2872
 7509TIP3    H222492   0.131   2.646   1.443 -0.5724 -1.0457 -0.8790
 7510TIP3   OH222493   0.455   6.457   0.144  0.2829 -0.1810 -0.3201
 7510TIP3    H122494   0.540   6.416   0.161 -0.5568 -0.8293  3.1144
 7510TIP3    H222495   0.391   6.386   0.156 -0.9248  1.0510  0.9676
 7511TIP3   OH222496   2.568   4.042   3.498  0.8075 -0.0581  0.3327
 7511TIP3    H122497   2.521   3.981   3.554 -0.7510  0.8954  0.1079
 7511TIP3    H222498   2.589   4.116   3.554  0.6389  0.2118  0.0414
 7512TIP3   OH222499   5.026   5.793   4.806 -0.0667  0.0523  0.1835
 7512TIP3    H122500   4.942   5.817   4.844  0.6477 -0.5148  2.2927
 7512TIP3    H222501   5.076   5.874   4.805 -0.1632  0.1137  0.3072
 7513TIP3   OH222502   2.862   3.656   5.395 -0.0582 -0.6422  0.4346
 7513TIP3    H122503   2.954   3.659   5.422  0.3968 -0.3783 -1.0535
 7513TIP3    H222504   2.844   3.564   5.381 -0.5973 -0.9026  2.4702
 7514TIP3   OH222505   0.981   3.195   0.324 -0.6361  0.4381 -0.0118
 7514TIP3    H122506   1.058   3.251   0.334  0.8694 -1.2919 -1.1009
 7514TIP3    H222507   0.939   3.196   0.409  2.1055 -0.5960  1.5055
 7515TIP3   OH222508   1.432   3.954   5.713 -0.7976  0.1952  0.2609
 7515TIP3    H122509   1.491   3.882   5.692 -1.1778 -0.3703  1.0625
 7515TIP3    H222510   1.345   3.913   5.720 -1.0832  0.7958  0.3373
 7516TIP3   OH222511   1.226   3.483   5.809 -0.0293  0.1656 -0.2407
 7516TIP3    H122512   1.272   3.556   5.851 -0.8375  1.7933 -2.0297
 7516TIP3    H222513   1.297   3.425   5.777  0.7367  1.3779 -0.8159
 7517TIP3   OH222514   5.352   2.564   1.664 -0.3318 -0.1814 -0.6258
 7517TIP3    H122515   5.296   2.602   1.731  0.0042  0.2483 -0.5825
 7517TIP3    H222516   5.295   2.554   1.588 -1.0202 -1.7516  0.0563
 7518TIP3   OH222517   4.962   1.895   2.012  0.2463  0.4171 -0.9609
 7518TIP3    H122518   4.938   1.804   2.028 -2.1308  1.2966  1.0433
 7518TIP3    H222519   5.013   1.892   1.931  0.1684 -2.6544 -1.0080
 7519TIP3   OH222520   0.124   0.678   3.276 -0.3252  0.2382 -0.5956
 7519TIP3    H122521   0.072   0.599   3.293  0.1167 -0.0472 -0.5495
 7519TIP3    H222522   0.066   0.751   3.298 -1.3327 -0.0171 -2.1935
 7520TIP3   OH222523   1.197   4.342   2.147  0.2155  0.2388  0.0292
 7520TIP3    H122524   1.241   4.258   2.135  0.2230  0.3532 -0.7789
 7520TIP3    H222525   1.235   4.399   2.081 -0.2836  0.6798  0.1145
 7521TIP3   OH222526   1.806   0.704   1.857  0.4155 -0.2627 -0.1596
 7521TIP3    H122527   1.761   0.659   1.785  1.0893  0.6815 -1.2203
 7521TIP3    H222528   1.890   0.658   1.864  0.7529  0.2542 -0.6668
 7522TIP3   OH222529   3.294   0.923   2.619 -0.3828 -0.7280 -0.3374
 7522TIP3    H122530   3.358   0.956   2.555 -0.8859  0.8676 -0.0526
 7522TIP3    H222531   3.329   0.837   2.645  1.3926 -0.1269 -0.5623
 7523TIP3   OH222532   5.669   6.193   4.723 -0.1042  0.2601  0.9841
 7523TIP3    H122533   5.596   6.165   4.779 -1.4793 -0.4192 -1.0226
 7523TIP3    H222534   5.637   6.179   4.634  1.9372  1.4213  0.0020
 7524TIP3   OH222535   2.440   2.089   0.503 -0.5854 -0.5118  0.4192
 7524TIP3    H122536   2.515   2.109   0.446 -0.2379 -1.5730  0.4768
 7524TIP3    H222537   2.365   2.088   0.443 -0.3257 -0.9327  0.0936
 7525TIP3   OH222538   2.216   0.736   2.753 -0.1436 -0.1737  0.6022
 7525TIP3    H122539   2.123   0.714   2.755 -0.3922  0.6830 -0.2887
 7525TIP3    H222540   2.253   0.694   2.830 -1.3847 -0.0423  1.2935
 7526TIP3   OH222541   3.309   2.712   0.556 -0.0881  0.0071  0.4570
 7526TIP3    H122542   3.307   2.741   0.465  0.2494 -2.3680 -0.3769
 7526TIP3    H222543   3.402   2.711   0.579 -0.1436  0.1976  0.6972
 7527TIP3   OH222544   1.006   0.239   1.089 -0.0984 -0.4906  0.1380
 7527TIP3    H122545   1.046   0.198   1.166 -1.7021 -0.7564  0.8849
 7527TIP3    H222546   1.033   0.184   1.016  1.5416 -0.1766  0.4579
 7528TIP3   OH222547   3.470   1.170   4.747  0.0612 -0.1731 -0.0422
 7528TIP3    H122548   3.444   1.108   4.678 -0.8768  0.8294 -0.6191
 7528TIP3    H222549   3.387   1.198   4.786  0.5870 -1.7597  2.4969
 7529TIP3   OH222550   6.755   2.076   0.629  1.0178 -0.4515  0.1150
 7529TIP3    H122551   6.725   2.108   0.544  2.1348  0.6157  0.1028
 7529TIP3    H222552   6.804   1.996   0.608  2.1068  0.3222 -0.3662
 7530TIP3   OH222553   6.732   6.232   5.752  0.5969 -0.1955 -0.2792
 7530TIP3    H122554   6.719   6.159   5.812 -1.1264 -1.6547 -2.2661
 7530TIP3    H222555   6.729   6.310   5.807  1.6850 -1.5539  1.8099
 7531TIP3   OH222556   4.410   3.175   1.257  0.7269 -0.7327  0.5813
 7531TIP3    H122557   4.398   3.163   1.351 -0.2860 -0.7686  0.4567
 7531TIP3    H222558   4.362   3.102   1.218  0.4672 -0.2657  0.0154
 7532TIP3   OH222559   2.177   1.613   2.451 -0.5651  0.8141 -0.4736
 7532TIP3    H122560   2.203   1.675   2.520 -1.6791  1.7706 -0.8723
 7532TIP3    H222561   2.241   1.543   2.456 -2.8527 -1.4282  4.4820
 7533TIP3   OH222562   2.517   0.409   4.629 -0.1599  0.2586  0.2911
 7533TIP3    H122563   2.527   0.482   4.691  1.3468 -0.1417  0.5647
 7533TIP3    H222564   2.481   0.450   4.550  0.4382  1.2791  0.5232
 7534TIP3   OH222565   4.027   2.259   0.640 -0.1694 -0.5459 -0.3223
 7534TIP3    H122566   4.058   2.178   0.600  0.7981 -0.4486  0.1979
 7534TIP3    H222567   4.106   2.314   0.647 -0.0870 -0.8968  2.4851
 7535TIP3   OH222568   5.884   1.218   0.350 -0.3158  0.6334 -0.4151
 7535TIP3    H122569   5.829   1.296   0.350 -0.4839  0.5516  1.5530
 7535TIP3    H222570   5.822   1.145   0.361 -0.0970  0.2496 -1.5711
 7536TIP3   OH222571   4.571   2.604   4.835  0.0066  0.0483  0.4687
 7536TIP3    H122572   4.527   2.653   4.765 -1.6829 -0.2734  1.2428
 7536TIP3    H222573   4.611   2.672   4.890 -0.1274  0.4025  0.1359
 7537TIP3   OH222574   0.857   4.356   2.965 -0.4487  0.2358 -0.0116
 7537TIP3    H122575   0.918   4.333   3.035  0.6993  0.1739 -1.0013
 7537TIP3    H222576   0.778   4.305   2.985  0.3704 -0.8977  0.4391
 7538TIP3   OH222577   5.375   2.048   4.245 -0.5016  0.2434  0.5559
 7538TIP3    H122578   5.432   1.979   4.211 -2.1761 -1.7758  1.6381
 7538TIP3    H222579   5.339   2.091   4.168 -0.5686 -1.0776 -0.1646
 7539TIP3   OH222580   1.980   2.755   1.815 -0.7418 -0.0478 -0.0548
 7539TIP3    H122581   1.899   2.712   1.789 -1.1289  1.0959 -0.8284
 7539TIP3    H222582   2.050   2.696   1.785 -1.2568 -0.1875 -1.0155
 7540TIP3   OH222583   2.580   2.554   1.135 -0.1989  0.3162  0.4494
 7540TIP3    H122584   2.575   2.638   1.089  0.1668 -0.9079 -1.9826
 7540TIP3    H222585   2.494   2.545   1.177 -0.8488  1.2077 -0.6158
 7541TIP3   OH222586   4.838   6.624   1.778  0.2296 -0.4203 -0.4170
 7541TIP3    H122587   4.853   6.712   1.745  2.0071 -1.0578 -1.4841
 7541TIP3    H222588   4.834   6.634   1.873 -1.2959  0.9941 -0.5873
 7542TIP3   OH222589   3.843   0.455   5.598  0.3734  0.1292 -0.0520
 7542TIP3    H122590   3.908   0.389   5.572  0.5364  0.1680  0.2481
 7542TIP3    H222591   3.894   0.535   5.612  0.4718 -0.1767  1.5085
 7543TIP3   OH222592   5.914   6.339   4.764 -0.7899 -0.4201  0.6429
 7543TIP3    H122593   5.943   6.341   4.855 -0.2051 -0.8222  0.4741
 7543TIP3    H222594   5.824   6.305   4.769 -0.8114 -0.3128  1.0767
 7544TIP3   OH222595   4.913   0.703   0.906  0.2718  0.3492 -0.1684
 7544TIP3    H122596   4.830   0.657   0.899 -0.0883  0.7913  1.0040
 7544TIP3    H222597   4.962   0.653   0.971 -0.2294  1.7497  1.3260
 7545TIP3   OH222598   2.011   1.267   5.178  0.3398  0.2929 -0.2180
 7545TIP3    H122599   2.055   1.184   5.161 -0.8877 -0.4768  0.2624
 7545TIP3    H222600   2.004   1.309   5.092  1.4328  0.1693 -0.3884
 7546TIP3   OH222601   1.046   1.850   5.322  0.2626  0.0312 -0.2594
 7546TIP3    H122602   1.118   1.796   5.291  0.6344  1.2098 -1.5664
 7546TIP3    H222603   0.968   1.811   5.282  0.3753 -0.2421 -0.2138
 7547TIP3   OH222604   0.036   4.474   2.996  0.4478  0.3268  0.4088
 7547TIP3    H122605  -0.045   4.522   3.011 -0.8212 -1.3915 -0.5793
 7547TIP3    H222606   0.105   4.535   3.023 -1.0760  2.4077 -0.1212
 7548TIP3   OH222607   5.101   5.044   1.477 -0.6824  0.0143 -0.7465
 7548TIP3    H122608   5.009   5.067   1.485 -0.1170  2.0872  0.5929
 7548TIP3    H222609   5.104   4.949   1.489 -2.5340  0.0371  0.0648
 7549TIP3   OH222610   5.618   5.507   0.794 -0.6479 -0.1699  0.5693
 7549TIP3    H122611   5.620   5.591   0.840  0.0189  0.7765 -1.1327
 7549TIP3    H222612   5.593   5.528   0.705  1.0370 -1.5656 -0.3007
 7550TIP3   OH222613   4.836   3.197   2.658 -0.2944  0.0204  0.2930
 7550TIP3    H122614   4.818   3.190   2.565  0.0375 -0.6045  0.2639
 7550TIP3    H222615   4.802   3.282   2.684  1.3411  1.0688 -0.8098
 7551TIP3   OH222616   5.252   6.196   4.686  0.1351  0.5072  0.0996
 7551TIP3    H122617   5.323   6.200   4.751  0.9055 -0.5623 -0.6383
 7551TIP3    H222618   5.186   6.141   4.727  0.8505 -0.6165 -0.1911
 7552TIP3   OH222619   1.137   2.626   5.747  0.0788 -0.2394  0.6017
 7552TIP3    H122620   1.070   2.626   5.815  0.7137 -1.0047  1.2480
 7552TIP3    H222621   1.183   2.709   5.759 -1.1823  0.6402 -0.3186
 7553TIP3   OH222622   3.907   5.697   3.560  0.1042 -0.6088  0.0057
 7553TIP3    H122623   3.997   5.730   3.553 -0.2322 -0.0399 -3.6612
 7553TIP3    H222624   3.911   5.607   3.529 -0.5058 -0.7525  0.3245
 7554TIP3   OH222625   6.348   0.971   3.619 -0.4775 -0.2317  0.2081
 7554TIP3    H122626   6.316   0.895   3.569 -0.2726 -0.8450  0.9944
 7554TIP3    H222627   6.276   1.033   3.618 -1.4217 -1.2687  1.2705
 7555TIP3   OH222628   5.032   1.748   5.551  0.1390  0.2211 -0.1589
 7555TIP3    H122629   5.072   1.812   5.493  1.3887  0.5259  0.9856
 7555TIP3    H222630   5.087   1.670   5.541  1.8502  1.0079  2.2952
 7556TIP3   OH222631   5.327   1.305   4.597  0.0256  0.1425 -0.1598
 7556TIP3    H122632   5.376   1.223   4.588 -0.9772 -0.5388  0.4092
 7556TIP3    H222633   5.302   1.309   4.689 -1.4730  0.1681 -0.5355
 7557TIP3   OH222634   6.070   3.161   4.799  0.3076 -0.5617  0.0861
 7557TIP3    H122635   5.995   3.211   4.769 -1.2032 -1.6142  1.8774
 7557TIP3    H222636   6.145   3.220   4.786 -1.2120  1.7433  1.0169
 7558TIP3   OH222637   6.708   4.168   1.135 -0.2742 -0.2350  0.3511
 7558TIP3    H122638   6.730   4.107   1.206 -2.9031 -1.7517 -0.0301
 7558TIP3    H222639   6.666   4.114   1.069 -1.3039  1.7620 -0.7185
 7559TIP3   OH222640   4.258   3.629   1.245  0.3705  0.2826 -0.0347
 7559TIP3    H122641   4.176   3.585   1.268 -0.2564  0.3999 -1.8169
 7559TIP3    H222642   4.325   3.561   1.253 -0.2910 -0.4941 -0.8413
 7560TIP3   OH222643   3.553   4.574   0.483  0.0201 -0.5141 -0.2698
 7560TIP3    H122644   3.566   4.667   0.465  2.0654 -0.8033 -0.5955
 7560TIP3    H222645   3.470   4.553   0.441 -0.0789  0.9902 -0.9121
 7561TIP3   OH222646   4.330   5.845   4.189 -0.1047 -0.2526 -0.3472
 7561TIP3    H122647   4.316   5.803   4.103 -0.7477 -0.5563 -0.0991
 7561TIP3    H222648   4.289   5.930   4.181 -0.4960 -0.4283 -0.2187
 7562TIP3   OH222649   5.015   2.847   2.583 -0.0141 -0.1219  0.2082
 7562TIP3    H122650   5.025   2.923   2.641  1.2517 -0.1792  0.1012
 7562TIP3    H222651   5.025   2.883   2.495 -0.3894 -0.2691  0.1055
 7563TIP3   OH222652   6.201   1.634   1.489  0.5022  1.0894  0.0305
 7563TIP3    H122653   6.192   1.728   1.509  0.8124  0.6572  2.4772
 7563TIP3    H222654   6.295   1.621   1.475  0.5263  1.0556  0.2211
 7564TIP3   OH222655   4.202   2.443   1.176 -0.1759 -0.2262 -0.0125
 7564TIP3    H122656   4.257   2.514   1.208 -0.1892 -0.0392 -0.4049
 7564TIP3    H222657   4.242   2.416   1.094  0.7270 -1.7104  0.8658
 7565TIP3   OH222658   6.282   3.841   0.451  0.2525 -0.8989  0.3776
 7565TIP3    H122659   6.252   3.817   0.538  1.9391 -1.8362  0.7493
 7565TIP3    H222660   6.334   3.921   0.465  0.9473 -1.3348  0.3260
 7566TIP3   OH222661   3.634   5.633   3.146  0.1151  0.3074  0.2635
 7566TIP3    H122662   3.636   5.696   3.218 -1.0294  1.0457 -0.3182
 7566TIP3    H222663   3.725   5.605   3.136  0.7778  2.2969  0.1878
 7567TIP3   OH222664   5.663   0.198   4.639  0.1490 -0.3806 -0.6619
 7567TIP3    H122665   5.641   0.291   4.647  1.9610  0.0102  0.3541
 7567TIP3    H222666   5.599   0.164   4.577  0.2307  1.8213 -2.0741
 7568TIP3   OH222667   5.962   0.031   3.591  0.0516 -0.0316  0.0106
 7568TIP3    H122668   5.879   0.052   3.548  1.0257 -0.4226 -2.2141
 7568TIP3    H222669   6.000   0.116   3.614 -0.3806  0.1943 -0.0964
 7569TIP3   OH222670   0.378   5.311   3.550  0.1235 -0.3794 -0.0904
 7569TIP3    H122671   0.434   5.239   3.579  0.2622 -0.0941  0.3578
 7569TIP3    H222672   0.303   5.268   3.509  0.1531 -0.7808  0.2708
 7570TIP3   OH222673   4.808   1.392   0.307 -0.4231 -0.4973  0.0799
 7570TIP3    H122674   4.829   1.428   0.220  0.4042 -0.5370  0.2504
 7570TIP3    H222675   4.752   1.458   0.348 -2.4604 -1.3428 -1.2023
 7571TIP3   OH222676   5.210   2.269   0.039  0.2447  0.2167  0.8542
 7571TIP3    H122677   5.231   2.191   0.092  1.9448  0.5638  0.7588
 7571TIP3    H222678   5.186   2.234  -0.047  2.0587 -0.2109  0.4790
 7572TIP3   OH222679   1.635   1.136   0.838 -0.3344 -0.5093 -0.0716
 7572TIP3    H122680   1.562   1.097   0.886 -0.3067 -1.0465 -0.4666
 7572TIP3    H222681   1.593   1.200   0.780 -0.4054 -0.1704  0.3411
 7573TIP3   OH222682   3.261   3.007   0.983  0.1679  0.3683 -0.4144
 7573TIP3    H122683   3.224   2.920   0.971  0.6770  0.0724  0.0742
 7573TIP3    H222684   3.356   2.993   0.980  0.2983  0.6415  1.2152
 7574TIP3   OH222685   4.269   2.495   1.821  0.0736 -0.6586  0.3255
 7574TIP3    H122686   4.249   2.587   1.837  2.2856 -0.4218  2.3777
 7574TIP3    H222687   4.218   2.447   1.887  0.3805 -0.7200  0.5206
 7575TIP3   OH222688   4.828   2.695   0.065 -0.3263 -0.1573 -0.2169
 7575TIP3    H122689   4.814   2.677  -0.028  1.0979 -0.1521 -0.4589
 7575TIP3    H222690   4.858   2.611   0.101 -2.0802 -0.5130  0.5463
 7576TIP3   OH222691   0.583   3.430   4.968 -0.3742 -0.1490  0.4866
 7576TIP3    H122692   0.593   3.458   4.877  2.8270 -0.3273  0.6668
 7576TIP3    H222693   0.626   3.345   4.971 -1.8594 -0.8914  1.8748
 7577TIP3   OH222694   6.771   0.334   0.035  0.3036 -0.0985 -0.5728
 7577TIP3    H122695   6.831   0.393   0.083 -1.1637  1.9125 -1.0684
 7577TIP3    H222696   6.703   0.392   0.001 -1.2850 -2.1409 -1.0672
 7578TIP3   OH222697   0.716   6.265   2.662  0.3607  0.3012  0.0918
 7578TIP3    H122698   0.741   6.291   2.574  0.3444 -1.5801 -0.5153
 7578TIP3    H222699   0.799   6.252   2.708  0.4046 -0.0145 -0.0705
 7579TIP3   OH222700   0.148   4.226   0.037  0.1791  0.4121  0.4529
 7579TIP3    H122701   0.209   4.287  -0.003 -0.9010  0.6258 -0.9565
 7579TIP3    H222702   0.069   4.279   0.054 -0.3740 -0.3355  0.2421
 7580TIP3   OH222703   2.965   5.454   1.749  0.4407 -0.4276 -0.4343
 7580TIP3    H122704   2.997   5.439   1.838 -0.9822 -2.1592 -0.1645
 7580TIP3    H222705   2.933   5.369   1.720  0.2599  0.2501 -2.3800
 7581TIP3   OH222706   5.133   4.404   1.459  0.0761 -0.7363  0.1910
 7581TIP3    H122707   5.124   4.349   1.382 -0.2693  0.1753 -0.4446
 7581TIP3    H222708   5.225   4.400   1.482  0.4804  0.1245 -1.1659
 7582TIP3   OH222709   0.086   5.908   0.874 -0.6556  0.1066  0.1173
 7582TIP3    H122710   0.160   5.918   0.935 -0.2150  0.5217 -0.4794
 7582TIP3    H222711   0.055   5.819   0.889  1.7185 -1.0896 -1.5686
 7583TIP3   OH222712   4.633   4.715   4.681 -0.4766 -0.2642 -0.4184
 7583TIP3    H122713   4.620   4.761   4.598 -0.2967  0.2593 -0.1597
 7583TIP3    H222714   4.544   4.695   4.711 -0.5485 -0.2508 -0.6208
 7584TIP3   OH222715   2.684   1.643   1.224 -0.1624 -0.1547  0.7590
 7584TIP3    H122716   2.673   1.723   1.172 -0.5415 -1.3713 -1.0888
 7584TIP3    H222717   2.667   1.572   1.164 -0.8771 -1.6540  2.6293
 7585TIP3   OH222718   3.487   3.972   4.193  0.7603 -0.5254  0.2765
 7585TIP3    H122719   3.395   3.966   4.219  0.6776 -2.6381 -0.3177
 7585TIP3    H222720   3.528   3.896   4.233  2.3008  0.4393  0.6012
 7586TIP3   OH222721   6.015   0.106   4.177  0.1237  0.6450 -0.3725
 7586TIP3    H122722   6.096   0.132   4.133  0.7006 -1.0386 -0.3662
 7586TIP3    H222723   5.949   0.110   4.109  0.6561 -0.1258 -0.9514
 7587TIP3   OH222724   2.239   6.652   0.235  0.2281  0.5587  0.1831
 7587TIP3    H122725   2.313   6.627   0.181 -0.7763 -1.3570 -0.3828
 7587TIP3    H222726   2.172   6.586   0.217 -1.2495  1.6361  1.4457
 7588TIP3   OH222727   6.638   0.742   5.879 -0.4971  0.2595  0.4739
 7588TIP3    H122728   6.664   0.834   5.869  1.1495 -0.1660  0.6057
 7588TIP3    H222729   6.674   0.699   5.801  1.7099 -0.8542  2.0153
 7589TIP3   OH222730   4.403   5.352   0.949  0.4012  0.2305 -0.4514
 7589TIP3    H122731   4.484   5.382   0.989  0.3094  0.9556 -0.8021
 7589TIP3    H222732   4.362   5.431   0.914 -0.4758 -0.1151 -0.2530
 7590TIP3   OH222733   7.008   3.896   4.141  0.5024 -0.6018 -0.1707
 7590TIP3    H122734   6.938   3.848   4.183  0.3768 -0.1663  0.1285
 7590TIP3    H222735   7.084   3.883   4.198 -0.2136  1.8382  1.4729
 7591TIP3   OH222736   2.719   0.555   1.643 -0.1651 -0.1728 -0.0165
 7591TIP3    H122737   2.781   0.488   1.614  1.3248  1.6796 -1.2908
 7591TIP3    H222738   2.772   0.618   1.691 -1.0761  1.3113 -0.8758
 7592TIP3   OH222739   0.773   3.441   3.980 -0.2766  0.3968 -0.3142
 7592TIP3    H122740   0.703   3.428   3.916 -0.4172  0.1297 -0.1082
 7592TIP3    H222741   0.729   3.446   4.064 -0.1166  1.0677 -0.2658
 7593TIP3   OH222742   5.019   5.069   3.364 -0.2952 -0.1433 -0.1467
 7593TIP3    H122743   5.096   5.014   3.377 -1.3594 -1.5484  0.5653
 7593TIP3    H222744   5.053   5.158   3.355  1.4678 -0.8608 -0.9732
 7594TIP3   OH222745   6.458   6.741   1.968 -0.3080  0.3497  0.0322
 7594TIP3    H122746   6.492   6.746   2.057 -0.7147 -0.1687  0.2216
 7594TIP3    H222747   6.475   6.651   1.941 -0.5220  0.4014 -0.2802
 7595TIP3   OH222748   2.612   4.539   0.464 -0.0612  0.3833 -0.0126
 7595TIP3    H122749   2.620   4.505   0.375 -0.6937 -0.4983  0.2445
 7595TIP3    H222750   2.702   4.555   0.492  0.4414 -2.5210  0.3436
 7596TIP3   OH222751   1.659   5.864   3.741 -0.6368 -0.2594  0.0027
 7596TIP3    H122752   1.727   5.798   3.726  0.0895  0.6311 -0.6928
 7596TIP3    H222753   1.645   5.904   3.655  0.2139  1.7128  0.7250
 7597TIP3   OH222754   0.737   2.672   4.304  0.7726  0.5550  0.6486
 7597TIP3    H122755   0.692   2.693   4.386  0.4721 -0.2811  0.7055
 7597TIP3    H222756   0.721   2.748   4.248 -0.9113  0.1995  0.5924
 7598TIP3   OH222757   0.701   4.987   4.363  0.2185 -0.5022 -0.4335
 7598TIP3    H122758   0.654   5.028   4.290  0.9509 -0.0986 -0.6917
 7598TIP3    H222759   0.731   5.060   4.416 -0.0616 -0.7869  0.1227
 7599TIP3   OH222760   4.119   3.319   0.976 -0.4009 -0.0451 -0.2855
 7599TIP3    H122761   4.128   3.313   1.071  0.0476 -0.6259 -0.3596
 7599TIP3    H222762   4.037   3.274   0.957 -0.0936 -0.6341 -0.2443
 7600TIP3   OH222763   3.021   2.786   3.836  0.0831 -0.0382 -0.7266
 7600TIP3    H122764   3.039   2.710   3.892 -2.1523  0.2719  0.5091
 7600TIP3    H222765   3.107   2.827   3.823  1.4742 -3.0909 -2.0087
 7601TIP3   OH222766   6.666   0.947   1.866 -0.0396  0.5565  0.3923
 7601TIP3    H122767   6.571   0.944   1.859  0.0097 -0.5522 -0.0093
 7601TIP3    H222768   6.694   0.999   1.791 -0.2481 -0.4915 -0.4269
 7602TIP3   OH222769   0.873   4.271   1.251 -0.1373  0.3525  0.1732
 7602TIP3    H122770   0.865   4.255   1.345 -0.4983  0.2448  0.1212
 7602TIP3    H222771   0.808   4.215   1.210  0.2431  0.1530 -0.1677
 7603TIP3   OH222772   2.136   4.535   5.392  0.2828 -0.2915  0.0707
 7603TIP3    H122773   2.160   4.454   5.345  1.4722 -0.4253  0.8538
 7603TIP3    H222774   2.096   4.504   5.473  3.4663 -0.2681  1.8277
 7604TIP3   OH222775   3.338   1.216   0.286 -0.2116 -0.0664 -0.0429
 7604TIP3    H122776   3.311   1.294   0.239 -1.3115 -0.8291 -0.7236
 7604TIP3    H222777   3.271   1.204   0.354 -0.8428 -1.1586 -0.8167
 7605TIP3   OH222778   2.538   6.449   1.010 -0.0599 -0.6746  0.0007
 7605TIP3    H122779   2.588   6.530   1.004 -0.8042 -0.2395 -0.5392
 7605TIP3    H222780   2.599   6.385   1.045  1.6985 -0.8656 -3.0550
 7606TIP3   OH222781   6.267   6.036   1.391  0.1330  0.4906  0.1640
 7606TIP3    H122782   6.355   6.072   1.379  0.0300  1.2154  1.4599
 7606TIP3    H222783   6.259   6.023   1.485 -0.8707 -0.3135 -0.0186
 7607TIP3   OH222784   6.346   0.190   5.138  0.3101 -0.3279  0.8789
 7607TIP3    H122785   6.258   0.152   5.139 -0.0558  0.3366 -1.0682
 7607TIP3    H222786   6.391   0.143   5.068  1.0156  0.3404  0.8703
 7608TIP3   OH222787   6.517   2.551   1.597  0.0250  0.4289  0.0906
 7608TIP3    H122788   6.566   2.625   1.562 -1.0827  0.7283 -0.8872
 7608TIP3    H222789   6.501   2.573   1.688  0.9948  0.6883  0.2107
 7609TIP3   OH222790   5.595   5.730   3.890 -0.5524 -0.4005 -0.1438
 7609TIP3    H122791   5.543   5.650   3.883  0.6865 -1.2786  0.3925
 7609TIP3    H222792   5.648   5.718   3.968 -0.4974  1.0573  0.0799
 7610TIP3   OH222793   5.952   2.244   4.331  0.2302 -0.8033  0.3094
 7610TIP3    H122794   5.981   2.301   4.260  0.1605 -1.8917 -0.6227
 7610TIP3    H222795   5.976   2.291   4.411  0.0472  0.5857 -0.4223
 7611TIP3   OH222796   1.000   5.148   4.964 -0.3236  0.2648 -0.6325
 7611TIP3    H122797   1.074   5.171   4.908  0.4720 -0.3344  0.1467
 7611TIP3    H222798   1.026   5.178   5.051 -1.6409  1.4102 -0.5871
 7612TIP3   OH222799   5.969   6.180   3.638  0.2749  0.5702 -0.4977
 7612TIP3    H122800   5.907   6.109   3.656  2.2906 -0.7106  1.9502
 7612TIP3    H222801   6.046   6.136   3.602  0.9499  1.7293 -0.4993
 7613TIP3   OH222802   3.853   5.571   5.477 -0.3110 -0.0052 -0.2761
 7613TIP3    H122803   3.903   5.587   5.397 -1.6446 -0.9716 -1.3514
 7613TIP3    H222804   3.898   5.497   5.519  0.2874  0.3885 -0.2122
 7614TIP3   OH222805   6.571   2.792   1.506 -0.5756  0.0555 -0.0823
 7614TIP3    H122806   6.506   2.862   1.501  0.1045  0.8547  1.4831
 7614TIP3    H222807   6.600   2.792   1.598  1.8137 -0.0859 -0.7517
 7615TIP3   OH222808   1.051   5.694   1.592  0.4387  0.4150  0.2439
 7615TIP3    H122809   1.073   5.702   1.499  2.0260 -1.1691  0.4423
 7615TIP3    H222810   1.071   5.603   1.614 -2.1662  0.0680  1.5963
 7616TIP3   OH222811   2.720   4.171   2.387  0.4673  0.0193  0.3586
 7616TIP3    H122812   2.751   4.255   2.419 -0.0498 -0.0506  1.0763
 7616TIP3    H222813   2.767   4.106   2.440  0.6099 -0.1327  0.0470
 7617TIP3   OH222814   1.774   1.580   2.380 -0.6968 -0.5093  1.0759
 7617TIP3    H122815   1.834   1.654   2.376 -0.8826 -0.3867 -2.6798
 7617TIP3    H222816   1.713   1.603   2.450  0.2453  2.0815  1.1640
 7618TIP3   OH222817   6.316   6.637   5.033 -0.5564 -0.1967 -0.6800
 7618TIP3    H122818   6.306   6.635   5.128  1.2299  2.3166 -0.3400
 7618TIP3    H222819   6.232   6.672   5.001 -0.7999 -0.0731  0.0669
 7619TIP3   OH222820   5.827   4.904   4.052 -0.0450 -0.1894 -0.1160
 7619TIP3    H122821   5.904   4.848   4.059 -0.4369 -0.6633  0.6301
 7619TIP3    H222822   5.820   4.947   4.137 -1.7282 -1.7126  0.6001
 7620TIP3   OH222823   6.961   4.704   4.673 -0.2326 -0.3616  0.3747
 7620TIP3    H122824   6.984   4.618   4.707 -1.3229 -0.7493  0.1643
 7620TIP3    H222825   6.870   4.717   4.701 -0.1125  0.6858  0.3293
 7621TIP3   OH222826   2.985   0.686   3.147  0.1367 -0.1705  0.1976
 7621TIP3    H122827   3.001   0.778   3.124 -0.3244 -0.3347 -0.8196
 7621TIP3    H222828   2.923   0.690   3.220 -0.7923  0.3194 -0.5951
 7622TIP3   OH222829   6.728   4.261   0.037  0.2382 -0.0790  0.3489
 7622TIP3    H122830   6.781   4.326   0.084  0.1652  0.0641  0.2333
 7622TIP3    H222831   6.780   4.239  -0.040 -0.5244  1.1680 -0.5529
 7623TIP3   OH222832   5.093   2.292   1.679  0.1605 -0.1641 -0.3290
 7623TIP3    H122833   5.049   2.375   1.701  1.2573 -0.0937  1.9419
 7623TIP3    H222834   5.079   2.237   1.756  1.0635 -1.4033 -1.0136
 7624TIP3   OH222835   0.073   0.087   4.279 -0.4641 -0.3927 -0.0165
 7624TIP3    H122836   0.024   0.112   4.200 -0.1481 -0.8368 -0.3606
 7624TIP3    H222837   0.165   0.102   4.255 -0.4476  0.9302  0.7997
 7625TIP3   OH222838   4.408   4.351   1.971 -0.0406 -0.8099 -0.0979
 7625TIP3    H122839   4.360   4.382   1.894  1.3099 -0.9383 -1.0406
 7625TIP3    H222840   4.392   4.257   1.972  1.4098 -1.1270 -1.3831
 7626TIP3   OH222841   2.313   1.378   0.559 -0.3943  0.0147 -0.1438
 7626TIP3    H122842   2.308   1.409   0.649  1.4307 -0.5277  0.1755
 7626TIP3    H222843   2.389   1.424   0.522 -0.7124 -0.2819 -1.2007
 7627TIP3   OH222844   2.773   5.437   3.327 -0.0389 -0.1862  0.3396
 7627TIP3    H122845   2.824   5.517   3.313  0.5081 -0.7222 -0.8679
 7627TIP3    H222846   2.701   5.464   3.384 -1.3340  1.7902 -2.0480
 7628TIP3   OH222847   0.094   1.861   0.873  0.0333  0.8176 -0.3955
 7628TIP3    H122848   0.156   1.900   0.811 -0.4980  2.7071  0.2003
 7628TIP3    H222849   0.018   1.919   0.870 -2.1793 -1.9079 -1.7688
 7629TIP3   OH222850   6.689   4.960   5.173  0.1473  0.0547  0.5389
 7629TIP3    H122851   6.752   4.972   5.102  0.3832  3.2955  1.1674
 7629TIP3    H222852   6.723   4.885   5.223  2.5557  0.6205 -0.1378
 7630TIP3   OH222853   0.649   0.601   4.290 -0.3686  0.7608  0.5366
 7630TIP3    H122854   0.650   0.628   4.382 -0.1440  0.6285  0.5726
 7630TIP3    H222855   0.618   0.679   4.243 -0.0415  0.9777  0.6748
 7631TIP3   OH222856   3.594   1.349   1.947 -0.0075 -0.1536 -0.1772
 7631TIP3    H122857   3.583   1.352   1.853 -0.2134 -1.0364 -0.1935
 7631TIP3    H222858   3.510   1.318   1.981 -0.2245  1.0021  0.3719
 7632TIP3   OH222859   6.419   1.702   0.999  0.6678  0.5214  0.2706
 7632TIP3    H122860   6.382   1.689   0.911  1.5951 -1.9107  0.1521
 7632TIP3    H222861   6.385   1.628   1.050 -1.2047  2.7751  2.5166
 7633TIP3   OH222862   0.710   1.344   0.295 -0.4828  0.2309  0.1101
 7633TIP3    H122863   0.664   1.320   0.215 -0.8843 -0.8241  0.6373
 7633TIP3    H222864   0.666   1.424   0.324 -1.4671 -0.3063  0.1676
 7634TIP3   OH222865   1.853   1.427   2.806 -0.2066  0.0484  0.3155
 7634TIP3    H122866   1.765   1.423   2.842 -0.3259 -1.4759 -0.0876
 7634TIP3    H222867   1.841   1.411   2.712  0.4900 -0.0140  0.2313
 7635TIP3   OH222868   4.134   4.756   0.260  0.1176  0.1715 -0.2832
 7635TIP3    H122869   4.097   4.732   0.345  1.7735  1.6736  0.9407
 7635TIP3    H222870   4.147   4.673   0.215  0.6028 -0.8039  1.5567
 7636TIP3   OH222871   3.665   3.660   0.372 -0.3942 -0.1671 -0.2362
 7636TIP3    H122872   3.730   3.674   0.303  1.0753 -0.5746  0.9958
 7636TIP3    H222873   3.601   3.601   0.334  0.9322 -1.2000 -0.9492
 7637TIP3   OH222874   4.085   4.370   4.587 -0.1781  0.2088 -0.1055
 7637TIP3    H122875   4.155   4.398   4.527  1.6778 -1.1013  1.3209
 7637TIP3    H222876   4.037   4.303   4.538  0.3632  0.2035 -0.6508
 7638TIP3   OH222877   3.653   3.600   3.495 -0.1462  0.0962 -0.2130
 7638TIP3    H122878   3.633   3.537   3.426  0.7843 -1.0833  0.5647
 7638TIP3    H222879   3.573   3.605   3.547 -0.5153  0.2329 -0.7840
 7639TIP3   OH222880   4.416   6.093   4.533 -0.4288 -0.3827  0.3147
 7639TIP3    H122881   4.347   6.108   4.598 -0.6752 -1.8126  0.4195
 7639TIP3    H222882   4.376   6.119   4.450 -0.8841 -0.6125  0.4569
 7640TIP3   OH222883   5.172   4.674   4.115 -0.2736 -0.0424 -0.4772
 7640TIP3    H122884   5.085   4.648   4.142 -1.1490  2.1747 -0.9850
 7640TIP3    H222885   5.198   4.606   4.052 -0.6850 -1.8883  1.2265
 7641TIP3   OH222886   2.139   2.337   3.633  0.5642 -0.3087 -0.0919
 7641TIP3    H122887   2.113   2.429   3.625 -0.7614 -0.7293 -0.8410
 7641TIP3    H222888   2.218   2.339   3.687  0.5166  1.2635 -0.0489
 7642TIP3   OH222889   5.997   0.761   0.122 -0.2967 -0.0586  0.0138
 7642TIP3    H122890   5.975   0.812   0.044  1.1805 -1.2957 -1.2847
 7642TIP3    H222891   5.968   0.672   0.101 -0.0477 -0.3714  0.9593
 7643TIP3   OH222892   0.281   6.215   4.959 -0.0583  0.1604 -0.4427
 7643TIP3    H122893   0.375   6.230   4.968 -0.1856  0.3170  0.9745
 7643TIP3    H222894   0.247   6.296   4.920  0.2913  0.4457 -0.1563
 7644TIP3   OH222895   2.083   4.708   1.232 -0.0151  0.5662  0.0191
 7644TIP3    H122896   2.055   4.676   1.145  1.3371 -1.3453  0.2187
 7644TIP3    H222897   2.162   4.758   1.215  1.3569 -1.3980  0.2499
 7645TIP3   OH222898   7.214   0.624   3.947  0.7001 -0.4536 -0.0725
 7645TIP3    H122899   7.120   0.628   3.929  0.3530  2.0944  1.6970
 7645TIP3    H222900   7.222   0.559   4.017  0.2671 -0.7960 -0.3387
 7646TIP3   OH222901   3.173   5.085   1.752  0.0722 -0.4561  0.1510
 7646TIP3    H122902   3.166   5.005   1.805  0.4462 -0.9308 -0.4937
 7646TIP3    H222903   3.087   5.125   1.758 -0.8352 -2.0556 -1.2698
 7647TIP3   OH222904   3.444   3.004   5.598 -0.0142  0.0589  0.4737
 7647TIP3    H122905   3.516   2.961   5.551  0.0125  0.0394  0.5322
 7647TIP3    H222906   3.366   2.955   5.572 -0.3773  1.5387 -1.4843
 7648TIP3   OH222907   4.436   2.929   0.668 -0.3818  0.0865  0.2443
 7648TIP3    H122908   4.448   2.977   0.586 -0.4657 -1.4111 -0.6891
 7648TIP3    H222909   4.347   2.953   0.696 -1.5649 -1.6751 -1.7445
 7649TIP3   OH222910   3.064   1.620   0.490 -0.1528 -0.4329 -0.0920
 7649TIP3    H122911   3.148   1.663   0.475  0.3850 -1.3144  0.3214
 7649TIP3    H222912   3.050   1.567   0.411 -0.5366  0.0417 -0.3495
 7650TIP3   OH222913   6.111   5.673   3.684 -0.0326 -0.3583  0.3481
 7650TIP3    H122914   6.020   5.645   3.692 -0.0213 -0.9317 -1.1972
 7650TIP3    H222915   6.158   5.622   3.750 -0.6031 -1.1984  0.1140
 7651TIP3   OH222916   1.134   3.345   4.490 -0.0253  0.1483  0.4489
 7651TIP3    H122917   1.106   3.257   4.464  0.4106  0.1334  0.0015
 7651TIP3    H222918   1.139   3.342   4.585  0.2835 -0.4068  0.4208
 7652TIP3   OH222919   5.886   4.917   3.701 -0.1998  0.1132 -0.1696
 7652TIP3    H122920   5.800   4.914   3.742  0.3974  1.5582  1.3274
 7652TIP3    H222921   5.872   4.964   3.619 -0.8961  0.0655 -0.0826
 7653TIP3   OH222922   2.871   1.077   1.095  0.2957 -0.4266 -0.4188
 7653TIP3    H122923   2.843   0.998   1.141  1.1461 -1.0466 -0.9342
 7653TIP3    H222924   2.821   1.148   1.135 -1.0264 -1.3206 -0.4357
 7654TIP3   OH222925   3.885   5.839   1.694  0.4284 -0.3705  0.0009
 7654TIP3    H122926   3.874   5.933   1.685  1.0508 -0.4290 -1.7240
 7654TIP3    H222927   3.808   5.810   1.743 -0.7367  0.7982 -1.0820
 7655TIP3   OH222928   6.143   5.484   2.327  0.3125  0.7798 -0.6821
 7655TIP3    H122929   6.067   5.503   2.272 -0.1421  0.3544 -0.2192
 7655TIP3    H222930   6.189   5.567   2.333  1.4130  0.4276 -3.2106
 7656TIP3   OH222931   0.786   3.366   3.067  0.2596 -0.0431 -0.1307
 7656TIP3    H122932   0.817   3.455   3.081 -0.1189  0.3728 -1.6861
 7656TIP3    H222933   0.728   3.372   2.991 -1.7388 -1.2168  1.2088
 7657TIP3   OH222934   4.303   2.382   0.934 -0.2041  0.3206  0.1029
 7657TIP3    H122935   4.368   2.450   0.950 -2.6796  2.9777 -0.1135
 7657TIP3    H222936   4.290   2.382   0.839 -0.9620  0.3416  0.1963
 7658TIP3   OH222937   1.385   3.616   4.904 -0.0543  0.6384  0.3034
 7658TIP3    H122938   1.325   3.680   4.942  0.8335  2.3132 -0.9676
 7658TIP3    H222939   1.355   3.605   4.813 -0.2468 -0.8681  0.5144
 7659TIP3   OH222940   6.079   0.280   2.502 -0.0307  0.3316 -0.1956
 7659TIP3    H122941   6.150   0.338   2.476  0.7315 -0.6618 -0.4301
 7659TIP3    H222942   6.119   0.192   2.501 -0.9053 -0.1042  0.9926
 7660TIP3   OH222943   1.219   6.296   2.381  0.2483  0.1285  0.4447
 7660TIP3    H122944   1.222   6.251   2.297  3.6461  1.5324 -0.3582
 7660TIP3    H222945   1.305   6.280   2.421 -0.7809  0.5880  3.0829
 7661TIP3   OH222946   2.123   2.664   0.520  0.2530 -0.0864 -0.1208
 7661TIP3    H122947   2.189   2.717   0.475 -0.0892  1.9302  1.6233
 7661TIP3    H222948   2.167   2.580   0.536  0.6109 -0.6868 -3.4554
 7662TIP3   OH222949   3.224   6.221   3.964 -0.0488 -0.4708 -0.0236
 7662TIP3    H122950   3.310   6.208   4.005 -0.8524 -1.7468  1.3394
 7662TIP3    H222951   3.206   6.137   3.921 -0.8006 -0.3614  0.0764
 7663TIP3   OH222952   6.148   1.333   5.872 -0.2856 -0.2324  0.1749
 7663TIP3    H122953   6.235   1.370   5.859 -0.3519  0.6600  1.9835
 7663TIP3    H222954   6.158   1.240   5.849  1.4126 -0.3786  1.3314
 7664TIP3   OH222955   2.871   6.108   5.614 -0.0052 -0.3563  0.1515
 7664TIP3    H122956   2.955   6.146   5.587  0.0436 -1.6540 -1.6653
 7664TIP3    H222957   2.870   6.118   5.709  1.5608  0.9756  0.0662
 7665TIP3   OH222958   0.447   5.478   3.825 -0.5190 -0.5487  0.3896
 7665TIP3    H122959   0.512   5.417   3.792 -0.9138 -1.6702  1.5796
 7665TIP3    H222960   0.497   5.542   3.876 -0.0236  0.6047 -1.4679
 7666TIP3   OH222961   1.259   4.925   5.786 -0.1771  0.1146  0.2983
 7666TIP3    H122962   1.333   4.919   5.846  0.5973 -1.2361 -0.7453
 7666TIP3    H222963   1.221   4.838   5.785 -0.2064  0.1206 -1.1045
 7667TIP3   OH222964   3.924   4.545   3.561 -0.4537  0.1090 -0.1817
 7667TIP3    H122965   3.992   4.518   3.622 -2.8617 -0.7189  2.3646
 7667TIP3    H222966   3.887   4.624   3.599 -2.3078 -0.6586 -0.2922
 7668TIP3   OH222967   5.614   5.413   1.068  0.3222 -0.1233  0.0575
 7668TIP3    H122968   5.682   5.433   1.003 -0.5123  0.4252 -0.6680
 7668TIP3    H222969   5.554   5.354   1.023 -1.8888  2.5473 -0.7741
 7669TIP3   OH222970   6.039   2.888   4.556 -0.2373 -0.1660 -0.4196
 7669TIP3    H122971   6.123   2.908   4.514 -1.3376  0.7104 -2.3168
 7669TIP3    H222972   5.981   2.960   4.530 -1.7766 -1.1018  0.2691
 7670TIP3   OH222973   4.156   2.013   0.535  0.4644  0.1043  0.1680
 7670TIP3    H122974   4.249   2.004   0.554  0.4555  2.0251  1.4243
 7670TIP3    H222975   4.152   2.045   0.445  1.1324  1.3963  0.5703
 7671TIP3   OH222976   0.766   4.192   5.003 -0.5661 -0.8281 -0.1242
 7671TIP3    H122977   0.743   4.100   5.016 -1.3578 -0.9879 -2.2097
 7671TIP3    H222978   0.815   4.193   4.920  2.0054  0.2863  1.2782
 7672TIP3   OH222979   4.106   3.728   3.028  0.2866 -0.1060 -0.0616
 7672TIP3    H122980   4.059   3.687   2.955  0.2189  1.3440 -0.8548
 7672TIP3    H222981   4.085   3.821   3.022 -0.1784 -0.0000  2.1495
 7673TIP3   OH222982   5.439   6.086   4.854 -1.0858 -0.0271  0.1251
 7673TIP3    H122983   5.416   6.003   4.811  0.2381  0.1957 -1.0788
 7673TIP3    H222984   5.409   6.075   4.944 -0.3173 -2.1139  0.1812
 7674TIP3   OH222985   1.178   1.412   0.461  0.6219 -0.2829 -0.1302
 7674TIP3    H122986   1.151   1.395   0.371  0.3354 -0.3946 -0.0240
 7674TIP3    H222987   1.097   1.422   0.509  0.7788  1.4339 -0.1789
 7675TIP3   OH222988   4.799   2.105   3.455 -0.0461  0.0688 -0.0010
 7675TIP3    H122989   4.853   2.148   3.388  0.1029 -1.5076 -0.9359
 7675TIP3    H222990   4.800   2.012   3.431 -0.8038 -0.3982  1.6434
 7676TIP3   OH222991   0.833   2.234   3.630 -0.4650 -0.0183 -0.1448
 7676TIP3    H122992   0.884   2.169   3.680 -0.4014  0.8868  0.9976
 7676TIP3    H222993   0.898   2.296   3.598 -0.5730 -0.2930 -0.9397
 7677TIP3   OH222994   6.489   3.504   3.488  0.6277 -0.8311 -0.0440
 7677TIP3    H122995   6.515   3.458   3.567  2.8260  1.5981  0.7626
 7677TIP3    H222996   6.430   3.573   3.518 -0.6764 -1.5134 -0.9214
 7678TIP3   OH222997   6.804   5.526   5.012  0.1777 -0.7867  0.3467
 7678TIP3    H122998   6.825   5.539   4.920  0.9191 -3.1939  0.1162
 7678TIP3    H222999   6.875   5.570   5.059  1.4030 -1.9809 -0.3166
 7679TIP3   OH223000   4.297   1.589   4.273 -0.2368  0.2194 -0.1272
 7679TIP3    H123001   4.202   1.595   4.263 -0.3571 -0.6984  0.3684
 7679TIP3    H223002   4.311   1.575   4.367  0.4187  0.7651 -0.1326
 7680TIP3   OH223003   0.084   0.317   1.691  0.0794  0.0377  0.0314
 7680TIP3    H123004   0.168   0.356   1.715 -0.8046  1.3546  1.1060
 7680TIP3    H223005   0.084   0.318   1.595  1.6910 -0.9605 -0.0355
 7681TIP3   OH223006   1.989   0.519   1.911  0.9898 -0.0351 -0.1965
 7681TIP3    H123007   2.027   0.448   1.859  0.6834 -0.8187  0.6075
 7681TIP3    H223008   2.010   0.495   2.002  0.5198  0.6960  0.1111
 7682TIP3   OH223009   4.380   4.332   2.242  0.4149  0.3813 -0.5804
 7682TIP3    H123010   4.467   4.305   2.269 -0.0479 -0.3940  0.1937
 7682TIP3    H223011   4.387   4.344   2.147  0.8241 -1.9226 -0.9120
 7683TIP3   OH223012   0.797   0.941   1.703  0.3132 -0.2254 -0.5101
 7683TIP3    H123013   0.766   0.853   1.683 -0.5176 -0.3866  1.2360
 7683TIP3    H223014   0.824   0.937   1.795  1.1311  1.1132 -0.6592
 7684TIP3   OH223015   1.348   6.781   2.247 -0.2841 -0.3114  0.1453
 7684TIP3    H123016   1.280   6.714   2.245  0.4564 -1.0648  0.0124
 7684TIP3    H223017   1.306   6.856   2.290 -1.2176 -0.7337 -0.0043
 7685TIP3   OH223018   1.868   0.150   4.284  0.2302  0.9822  0.2232
 7685TIP3    H123019   1.777   0.175   4.272 -0.1736 -0.3684  0.3981
 7685TIP3    H223020   1.914   0.193   4.211 -0.6271  1.2028 -0.1976
 7686TIP3   OH223021   4.414   5.797   2.145 -0.8505  0.6542  0.0949
 7686TIP3    H123022   4.454   5.883   2.162  0.1304  0.2674 -0.2248
 7686TIP3    H223023   4.487   5.740   2.123 -1.6071 -0.0324 -0.6946
 7687TIP3   OH223024   6.815   2.151   1.310  0.4929  0.0378  0.1929
 7687TIP3    H123025   6.750   2.193   1.254 -1.0845 -1.8091  0.5468
 7687TIP3    H223026   6.858   2.088   1.252 -0.1673 -0.8856  0.6901
 7688TIP3   OH223027   4.493   4.447   4.815  0.2631 -0.2967  0.0826
 7688TIP3    H123028   4.427   4.391   4.857  0.4620  0.3124  1.2221
 7688TIP3    H223029   4.534   4.390   4.750 -1.2138 -0.7643 -0.4827
 7689TIP3   OH223030   3.402   6.571   4.463  0.2118  0.5112  0.1592
 7689TIP3    H123031   3.476   6.595   4.407  0.1437  0.7731  0.1804
 7689TIP3    H223032   3.364   6.654   4.489  0.9537  0.4372  1.5579
 7690TIP3   OH223033   0.331   5.542   0.756 -0.0063 -0.0978 -0.3282
 7690TIP3    H123034   0.269   5.586   0.698  0.9118  0.9011 -0.5719
 7690TIP3    H223035   0.367   5.470   0.704  0.7065  0.7046 -0.9491
 7691TIP3   OH223036   0.392   2.438   1.251 -0.1951 -0.0988 -0.3815
 7691TIP3    H123037   0.343   2.428   1.332  1.2514  0.9315  0.6671
 7691TIP3    H223038   0.362   2.366   1.196 -3.0416  0.5966  0.0739
 7692TIP3   OH223039   6.699   5.302   3.075 -0.0604 -0.0899 -0.1908
 7692TIP3    H123040   6.736   5.281   2.989  2.4412 -1.3714  1.0647
 7692TIP3    H223041   6.773   5.339   3.123 -0.7039 -1.6159  2.1292
 7693TIP3   OH223042   1.432   1.184   3.754  0.1067 -0.1589 -0.7570
 7693TIP3    H123043   1.404   1.275   3.751  1.6185  0.3278 -1.4393
 7693TIP3    H223044   1.392   1.148   3.833 -0.8605  0.9712 -0.7118
 7694TIP3   OH223045   3.812   2.893   3.713  0.1262  0.3212 -1.0668
 7694TIP3    H123046   3.795   2.987   3.712 -0.7833  0.2067  0.9345
 7694TIP3    H223047   3.775   2.862   3.631 -1.1443  1.4495 -0.9598
 7695TIP3   OH223048   1.226   0.631   5.817  0.3892  0.9115  0.5486
 7695TIP3    H123049   1.319   0.640   5.799  0.1950  1.8204 -0.0218
 7695TIP3    H223050   1.184   0.700   5.767 -0.5473  0.8728  1.2435
 7696TIP3   OH223051   2.766   0.869   1.237  0.6307  0.0218  0.3585
 7696TIP3    H123052   2.740   0.912   1.318  1.4765  1.6225 -0.1729
 7696TIP3    H223053   2.683   0.847   1.194  0.1728 -1.3222  1.8569
 7697TIP3   OH223054   4.385   3.144   2.782  0.4511  0.3350 -0.0769
 7697TIP3    H123055   4.414   3.173   2.695 -2.3372  0.1970 -1.1645
 7697TIP3    H223056   4.406   3.051   2.784 -0.5515  0.0670 -1.1312
 7698TIP3   OH223057   7.220   3.911   0.286 -0.4771 -0.2346 -0.0355
 7698TIP3    H123058   7.169   3.980   0.242  1.0152  0.9648  0.0269
 7698TIP3    H223059   7.156   3.865   0.341 -1.4963  1.2234  0.0623
 7699TIP3   OH223060   1.001   0.415   1.831  0.1051 -0.4822 -0.4602
 7699TIP3    H123061   1.009   0.320   1.836 -0.5479 -0.4954  0.6325
 7699TIP3    H223062   0.926   0.430   1.774  0.3904 -0.6063 -0.8741
 7700TIP3   OH223063   2.683   3.807   3.797 -0.2317  0.3237  0.8094
 7700TIP3    H123064   2.629   3.730   3.813 -0.6083  0.1078 -1.3324
 7700TIP3    H223065   2.624   3.881   3.811 -1.1852  0.0865 -1.6275
 7701TIP3   OH223066   0.079   3.868   2.099 -0.4989 -0.4522  0.2526
 7701TIP3    H123067   0.170   3.851   2.075 -0.8085  0.4066 -1.6702
 7701TIP3    H223068   0.081   3.955   2.139 -0.4660 -0.4888  0.3318
 7702TIP3   OH223069   2.946   4.455   5.822 -0.0264 -0.0809 -0.4223
 7702TIP3    H123070   2.858   4.421   5.839 -0.0185  0.5332  1.0774
 7702TIP3    H223071   2.951   4.462   5.727 -1.6346 -0.0607 -0.5447
 7703TIP3   OH223072   2.935   5.756   5.188 -0.3657 -0.0258 -0.1562
 7703TIP3    H123073   2.927   5.682   5.128 -1.1085  0.2003 -0.3530
 7703TIP3    H223074   2.852   5.803   5.179  0.9404  2.1537 -1.7870
 7704TIP3   OH223075   4.103   3.000   0.415  0.3060 -0.3512 -0.2898
 7704TIP3    H123076   4.017   3.041   0.406  0.8239  1.3014  1.4640
 7704TIP3    H223077   4.086   2.906   0.415 -1.4280 -0.0610 -0.5219
 7705TIP3   OH223078   4.438   5.481   2.433 -0.0071  0.5524  0.7265
 7705TIP3    H123079   4.480   5.565   2.450 -0.1128  0.5495  1.0018
 7705TIP3    H223080   4.483   5.447   2.355  0.9816  0.2331  1.4083
 7706TIP3   OH223081   2.585   1.565   0.026  0.1028 -0.2349 -0.3516
 7706TIP3    H123082   2.595   1.625  -0.048 -0.1406  0.5857  0.2577
 7706TIP3    H223083   2.491   1.558   0.039  0.1575  0.1898  0.3130
 7707TIP3   OH223084   0.666   1.366   4.333  0.1925 -0.7668  0.1637
 7707TIP3    H123085   0.615   1.288   4.312 -0.5956 -0.0272 -0.7294
 7707TIP3    H223086   0.607   1.419   4.387  0.4781 -0.4657  0.1788
 7708TIP3   OH223087   6.551   2.365   5.486 -0.1326 -0.4305 -0.2982
 7708TIP3    H123088   6.520   2.372   5.577 -1.3073  2.1137 -0.8056
 7708TIP3    H223089   6.632   2.417   5.485 -0.7487  0.5358 -0.9344
 7709TIP3   OH223090   3.916   5.762   1.144  0.3797  0.2954  0.5967
 7709TIP3    H123091   3.844   5.810   1.103  0.6144  0.8881  0.8710
 7709TIP3    H223092   3.904   5.776   1.238 -0.6566 -1.7736  0.8148
 7710TIP3   OH223093   6.611   2.644   5.778 -0.4110  0.2584 -0.1045
 7710TIP3    H123094   6.697   2.676   5.808 -0.0586 -0.4940 -0.2963
 7710TIP3    H223095   6.558   2.641   5.858  0.1831 -0.6508  0.2709
 7711TIP3   OH223096   0.886   5.940   2.161  0.2510  0.4514  0.0511
 7711TIP3    H123097   0.824   5.957   2.090 -0.4443  0.0338  0.5563
 7711TIP3    H223098   0.925   6.026   2.180 -0.8527  0.8869  0.3714
 7712TIP3   OH223099   4.953   2.751   3.485  0.2812  0.4980 -0.1860
 7712TIP3    H123100   5.011   2.720   3.415  0.8452 -0.2900  0.5997
 7712TIP3    H223101   4.868   2.764   3.443  0.6513  0.1685 -1.0433
 7713TIP3   OH223102   0.796   5.333   5.441  0.1437 -0.5726 -0.1743
 7713TIP3    H123103   0.783   5.287   5.524  0.3629 -0.7098 -0.2161
 7713TIP3    H223104   0.736   5.289   5.380 -0.9758  0.3609  0.2175
 7714TIP3   OH223105   1.541   4.495   5.163 -0.1910 -0.6851 -0.5512
 7714TIP3    H123106   1.491   4.559   5.214 -0.7180 -1.5653  0.0617
 7714TIP3    H223107   1.632   4.512   5.186 -0.4453 -1.4484  1.1714
 7715TIP3   OH223108   4.806   3.235   2.370  0.1923 -0.2429  0.1759
 7715TIP3    H123109   4.880   3.283   2.332 -0.8777  1.1681 -0.1943
 7715TIP3    H223110   4.757   3.204   2.294  0.1012 -0.7041  0.4229
 7716TIP3   OH223111   5.523   2.731   1.370  0.4017 -0.2099 -0.2161
 7716TIP3    H123112   5.556   2.643   1.350 -0.5027 -0.4745 -0.6063
 7716TIP3    H223113   5.484   2.722   1.457 -0.4112 -0.4069 -0.5939
 7717TIP3   OH223114   2.890   2.092   2.257  0.7100 -0.2168 -0.1035
 7717TIP3    H123115   2.900   2.163   2.193  1.8391  0.3396  0.6527
 7717TIP3    H223116   2.867   2.016   2.205 -0.9570  0.7627 -0.9039
 7718TIP3   OH223117   4.386   1.070   4.391  0.1956 -0.5954  0.2069
 7718TIP3    H123118   4.310   1.095   4.444 -1.8507 -1.8448 -1.9608
 7718TIP3    H223119   4.400   1.145   4.333  1.1816 -0.0511  1.0983
 7719TIP3   OH223120   0.589   5.928   5.245  0.0312  0.1391  0.3136
 7719TIP3    H123121   0.681   5.905   5.236 -0.0364  0.4995 -2.2187
 7719TIP3    H223122   0.555   5.868   5.310  1.8690 -0.5692  0.6810
 7720TIP3   OH223123   2.488   5.837   1.909  0.5696  0.4051 -0.1918
 7720TIP3    H123124   2.546   5.870   1.978  0.3614 -0.3871  0.3666
 7720TIP3    H223125   2.401   5.868   1.935  0.6111  0.8472 -0.5670
 7721TIP3   OH223126   2.742   1.283   1.875  0.4932  0.0024  0.0064
 7721TIP3    H123127   2.820   1.319   1.834  0.0449 -1.0617 -1.8670
 7721TIP3    H223128   2.669   1.317   1.823 -0.1894 -0.2951  0.7448
 7722TIP3   OH223129   4.600   4.307   2.664  0.4771  0.0202 -0.1329
 7722TIP3    H123130   4.646   4.228   2.692  1.1627  0.3641 -0.2373
 7722TIP3    H223131   4.599   4.302   2.568  1.3891  0.5901 -0.1870
 7723TIP3   OH223132   5.696   1.004   3.090 -0.7028  0.7812 -0.0488
 7723TIP3    H123133   5.690   0.917   3.129 -0.5539  0.4276 -0.7935
 7723TIP3    H223134   5.782   1.037   3.117 -0.8463  0.7826  0.4050
 7724TIP3   OH223135   3.585   0.205   2.327 -0.4110  0.5738 -0.0691
 7724TIP3    H123136   3.658   0.239   2.379  1.9941 -3.9120 -0.0357
 7724TIP3    H223137   3.518   0.181   2.391  0.0355  0.4729  0.3579
 7725TIP3   OH223138   2.208   1.520   3.019  0.5938  0.2121 -0.4149
 7725TIP3    H123139   2.155   1.494   3.095  2.7920  0.6510  1.3862
 7725TIP3    H223140   2.227   1.613   3.033  1.8168  0.0705 -0.9706
 7726TIP3   OH223141   7.073   4.142   5.551  0.0447 -0.2365  0.4733
 7726TIP3    H123142   7.164   4.138   5.582  0.7595  0.6970 -1.3054
 7726TIP3    H223143   7.043   4.230   5.576 -0.1121 -0.2798  0.4361
 7727TIP3   OH223144   2.325   2.966   2.258  0.2152 -0.0911 -0.1802
 7727TIP3    H123145   2.350   2.943   2.169 -1.0616  0.2395 -0.6388
 7727TIP3    H223146   2.340   3.060   2.264  1.7709 -0.3477  0.4727
 7728TIP3   OH223147   5.943   5.210   3.990 -0.6734  0.2517  0.0584
 7728TIP3    H123148   5.933   5.120   4.022 -3.0746  0.5541  0.3943
 7728TIP3    H223149   5.970   5.260   4.067  0.8154 -0.1815 -0.1632
 7729TIP3   OH223150   3.693   5.432   4.064 -0.2689 -0.3920 -0.2962
 7729TIP3    H123151   3.673   5.467   4.150 -0.6446 -0.4381 -0.3633
 7729TIP3    H223152   3.634   5.358   4.054 -0.2698 -0.3500 -0.6170
 7730TIP3   OH223153   3.308   0.015   4.533 -0.7771  0.1003 -0.1791
 7730TIP3    H123154   3.329   0.063   4.453 -2.0054 -0.5169 -0.8926
 7730TIP3    H223155   3.220  -0.018   4.519 -1.1089  0.1726  1.5393
 7731TIP3   OH223156   2.198   0.312   3.664  0.2389 -0.2674  0.3995
 7731TIP3    H123157   2.190   0.320   3.568  0.3698  0.5699  0.4466
 7731TIP3    H223158   2.292   0.301   3.679  0.1123 -1.5463  0.3732
 7732TIP3   OH223159   2.545   5.016   3.603  0.4467 -1.1736  0.0613
 7732TIP3    H123160   2.607   5.048   3.669 -1.3222 -1.1022  1.7725
 7732TIP3    H223161   2.460   5.016   3.647 -0.9177 -0.7269 -2.3500
 7733TIP3   OH223162   0.623   3.644   0.717 -0.2566 -0.6899 -0.0977
 7733TIP3    H123163   0.564   3.717   0.699  0.1835  0.2545  1.9447
 7733TIP3    H223164   0.566   3.571   0.740 -0.7022 -0.0484  0.9438
 7734TIP3   OH223165   0.554   2.226   1.877 -0.0903  0.5581 -0.0543
 7734TIP3    H123166   0.530   2.279   1.953  1.0575  1.2010 -0.1332
 7734TIP3    H223167   0.564   2.288   1.806 -0.6750  0.0088 -0.6292
 7735TIP3   OH223168   1.980   0.074   0.652 -0.5124  0.0666  0.5443
 7735TIP3    H123169   2.045   0.093   0.719 -0.7019 -0.1890  0.8033
 7735TIP3    H223170   1.902   0.123   0.679 -1.4369 -2.0727  1.9395
 7736TIP3   OH223171   0.543   2.376   5.456 -0.2709  0.2593 -0.2558
 7736TIP3    H123172   0.498   2.459   5.468 -0.1953  0.8135 -3.0684
 7736TIP3    H223173   0.475   2.310   5.466 -1.0113  0.8778 -0.9963
 7737TIP3   OH223174   0.537   2.660   3.934  0.1465 -0.3426 -0.4619
 7737TIP3    H123175   0.557   2.627   3.846 -1.3744 -0.5213 -0.7555
 7737TIP3    H223176   0.486   2.590   3.975  3.1607 -1.5189  1.6372
 7738TIP3   OH223177   5.416   3.753   4.181  0.4887 -0.4058  0.0563
 7738TIP3    H123178   5.365   3.701   4.118 -1.1873  0.5437  0.5841
 7738TIP3    H223179   5.401   3.711   4.265 -0.2083  0.4180  0.3580
 7739TIP3   OH223180   1.449   0.601   3.871  0.9260  0.3235  0.0270
 7739TIP3    H123181   1.446   0.513   3.834  0.4909  0.1404  0.4803
 7739TIP3    H223182   1.359   0.617   3.901  0.8116  1.2214 -0.7371
 7740TIP3   OH223183   2.919   4.099   0.744 -0.6557  0.2819  0.2180
 7740TIP3    H123184   2.902   4.075   0.654 -0.2438  2.6398 -0.5731
 7740TIP3    H223185   3.000   4.053   0.767 -0.1592  0.5183 -1.0100
 7741TIP3   OH223186   3.154   1.301   5.158  0.4505 -0.5354 -0.6636
 7741TIP3    H123187   3.190   1.219   5.124  2.7418  1.0933 -2.5010
 7741TIP3    H223188   3.107   1.339   5.083 -0.0542  0.1156 -0.0235
 7742TIP3   OH223189   7.056   0.884   3.703  0.3332 -0.1553 -0.0833
 7742TIP3    H123190   6.965   0.894   3.730  0.0665 -0.0879 -0.9709
 7742TIP3    H223191   7.069   0.955   3.639  1.2416  0.3290  0.6212
 7743TIP3   OH223192   1.808   4.371   4.725 -0.3223  0.0660  0.1508
 7743TIP3    H123193   1.766   4.302   4.776 -1.8045  0.7167 -0.1181
 7743TIP3    H223194   1.898   4.341   4.712 -0.5710 -1.1794  1.1548
 7744TIP3   OH223195   6.505   5.035   4.543 -0.0309 -0.4938 -0.3438
 7744TIP3    H123196   6.588   5.081   4.552 -1.0735  1.2883  0.6984
 7744TIP3    H223197   6.497   5.017   4.449  0.4671  1.4460 -0.8004
 7745TIP3   OH223198   4.168   4.595   1.961 -0.4365 -0.5098  0.1921
 7745TIP3    H123199   4.202   4.610   2.049  0.8735 -0.2682 -0.3198
 7745TIP3    H223200   4.247   4.578   1.908 -1.2760 -1.6778 -0.7315
 7746TIP3   OH223201   6.649   6.476   5.846 -0.1595  0.5798  0.1457
 7746TIP3    H123202   6.586   6.534   5.889 -2.2815 -2.5627  1.7024
 7746TIP3    H223203   6.726   6.478   5.903 -1.2651 -0.1665  1.7360
 7747TIP3   OH223204   5.734   6.404   5.807  0.4994 -0.1028  0.1741
 7747TIP3    H123205   5.770   6.492   5.791  1.2304 -0.4443 -0.1102
 7747TIP3    H223206   5.657   6.419   5.862 -0.2299  0.8395 -1.0673
 7748TIP3   OH223207   0.091   5.257   0.692 -0.0120 -0.3866  0.2687
 7748TIP3    H123208   0.093   5.161   0.694  1.2998 -0.3639  1.1443
 7748TIP3    H223209   0.160   5.282   0.631 -1.4682  0.0067 -1.2792
 7749TIP3   OH223210   5.585   1.130   1.674  0.0084 -0.9351 -0.1395
 7749TIP3    H123211   5.650   1.193   1.641 -1.2439  0.5221  0.0683
 7749TIP3    H223212   5.627   1.045   1.663  1.7647 -0.0846 -0.4555
 7750TIP3   OH223213   6.996   1.461   3.069  0.4416 -0.4942  0.2723
 7750TIP3    H123214   6.931   1.406   3.113 -0.1212 -0.3315 -0.3418
 7750TIP3    H223215   6.974   1.454   2.976  0.8087  0.1978  0.1289
 7751TIP3   OH223216   3.197   3.541   1.050 -0.4872  0.7645  0.3227
 7751TIP3    H123217   3.113   3.496   1.044  1.1966 -2.7745  0.8260
 7751TIP3    H223218   3.210   3.581   0.963 -1.9995  0.1016 -0.2283
 7752TIP3   OH223219   3.163   0.104   3.350  0.0344 -0.0402 -0.3092
 7752TIP3    H123220   3.155   0.129   3.442  0.5130  1.2028 -0.5796
 7752TIP3    H223221   3.072   0.102   3.318 -0.4225 -3.4202  0.8578
 7753TIP3   OH223222   1.567   6.271   5.889 -0.2967  0.3642 -0.3175
 7753TIP3    H123223   1.513   6.301   5.816  0.9810  0.4987 -1.2519
 7753TIP3    H223224   1.630   6.211   5.850  0.7377  0.8208  0.5714
 7754TIP3   OH223225   2.111   4.839   2.175 -1.3869 -0.1446 -0.7020
 7754TIP3    H123226   2.199   4.810   2.198 -1.8581 -0.3808  0.9507
 7754TIP3    H223227   2.115   4.858   2.082  0.5730  0.4490 -0.5279
 7755TIP3   OH223228   4.603   5.154   3.718  0.3851  0.0389  0.1982
 7755TIP3    H123229   4.579   5.111   3.800 -1.5376 -0.7448 -0.6996
 7755TIP3    H223230   4.529   5.137   3.660  1.0156  1.8645 -1.2353
 7756TIP3   OH223231   1.884   2.312   2.779 -0.3853 -0.6642  0.9553
 7756TIP3    H123232   1.859   2.301   2.687 -0.1955 -0.5700  0.8921
 7756TIP3    H223233   1.819   2.372   2.815 -1.4372 -1.9351  1.2967
 7757TIP3   OH223234   3.527   5.389   5.042 -0.6954  0.5220  0.0722
 7757TIP3    H123235   3.579   5.437   4.978  0.1438  0.2489  0.5384
 7757TIP3    H223236   3.507   5.453   5.110 -1.3525  0.7410 -0.3224
 7758TIP3   OH223237   2.432   4.287   1.484 -0.0289  0.0645  0.5120
 7758TIP3    H123238   2.463   4.225   1.418 -0.0094 -1.1968  1.6597
 7758TIP3    H223239   2.370   4.343   1.437  0.7997 -0.0886 -0.8149
 7759TIP3   OH223240   3.576   2.104   1.344 -0.2699  0.4423  0.2270
 7759TIP3    H123241   3.502   2.090   1.286 -1.1136  1.1499  1.0889
 7759TIP3    H223242   3.549   2.177   1.401  1.3746  1.2419  0.0698
 7760TIP3   OH223243   2.349   0.963   5.348  0.8843  0.3116  0.2100
 7760TIP3    H123244   2.306   0.896   5.401  2.6862  0.2007  1.6308
 7760TIP3    H223245   2.439   0.965   5.380  2.1739  0.0753 -3.0676
 7761TIP3   OH223246   3.280   2.071   1.180 -0.1335  0.6955  0.7804
 7761TIP3    H123247   3.198   2.118   1.192 -0.1956  0.9769 -0.6320
 7761TIP3    H223248   3.269   1.991   1.232 -1.2122  0.8292  0.7803
 7762TIP3   OH223249   0.860   5.720   4.614 -0.1427 -0.0363 -0.4675
 7762TIP3    H123250   0.903   5.787   4.561 -1.6364  1.3238 -0.0122
 7762TIP3    H223251   0.801   5.768   4.671 -0.5369 -1.6842  0.5753
 7763TIP3   OH223252   5.989   2.680   3.999  0.1135 -0.2168 -0.3918
 7763TIP3    H123253   6.002   2.589   4.026  0.1916 -0.3479 -0.8710
 7763TIP3    H223254   6.077   2.716   3.989  0.0873 -0.2670 -0.8055
 7764TIP3   OH223255   5.347   3.814   5.216  0.4890 -0.1239  0.3241
 7764TIP3    H123256   5.324   3.732   5.259  0.5653 -0.0258  0.5537
 7764TIP3    H223257   5.378   3.870   5.287 -1.1859  0.7016  0.4676
 7765TIP3   OH223258   2.642   0.726   0.431 -0.2422  0.4587  0.1376
 7765TIP3    H123259   2.568   0.776   0.465 -1.0418 -1.3429  1.2069
 7765TIP3    H223260   2.713   0.742   0.493 -0.3836  0.5315  0.2805
 7766TIP3   OH223261   4.404   4.075   2.849  0.2928 -0.1673 -0.0813
 7766TIP3    H123262   4.419   4.072   2.754 -1.0896  0.3079 -0.3528
 7766TIP3    H223263   4.411   4.168   2.871 -1.2604 -0.0176 -0.0935
 7767TIP3   OH223264   5.045   0.490   0.048  0.5774  0.3308  0.1351
 7767TIP3    H123265   5.008   0.446   0.124 -1.8267 -0.4243 -1.3635
 7767TIP3    H223266   5.132   0.451   0.038  0.6180 -0.1352  1.9897
 7768TIP3   OH223267   1.541   0.239   5.742  0.1456 -0.0964 -0.2748
 7768TIP3    H123268   1.545   0.148   5.772  1.6868  0.4820  1.4385
 7768TIP3    H223269   1.624   0.253   5.697  0.6815  0.9204  0.9778
 7769TIP3   OH223270   3.421   2.700   1.227 -0.5697  0.2227  0.8972
 7769TIP3    H123271   3.495   2.638   1.231 -1.0570 -0.3459  1.2387
 7769TIP3    H223272   3.459   2.783   1.255  0.2763  0.2709 -0.2813
 7770TIP3   OH223273   0.898   2.666   4.008  0.5124  0.1890 -0.0268
 7770TIP3    H123274   0.814   2.690   4.047  0.6110 -0.2881  0.4913
 7770TIP3    H223275   0.908   2.573   4.028  0.8267  0.0639 -0.7240
 7771TIP3   OH223276   2.903   5.597   5.413 -0.5088 -0.7228  0.2599
 7771TIP3    H123277   2.935   5.672   5.363  0.2145 -0.7123  0.7193
 7771TIP3    H223278   2.979   5.539   5.421 -0.6201 -0.7428  1.2964
 7772TIP3   OH223279   4.635   6.052   4.700  0.4399  0.1451 -0.2464
 7772TIP3    H123280   4.661   6.060   4.608 -0.8232  0.6417 -0.5820
 7772TIP3    H223281   4.548   6.013   4.697  0.6134 -0.3533  0.7762
 7773TIP3   OH223282   4.209   2.261   3.015  0.2805  0.1528 -0.5891
 7773TIP3    H123283   4.115   2.253   2.996  0.0857  0.6890  0.1160
 7773TIP3    H223284   4.252   2.230   2.935 -0.4898 -0.5539 -0.7523
 7774TIP3   OH223285   3.473   2.767   4.804  0.2318  0.3154 -0.2490
 7774TIP3    H123286   3.452   2.822   4.728  0.7647  1.4750  0.4070
 7774TIP3    H223287   3.391   2.761   4.853 -0.1874 -0.6830 -1.0482
 7775TIP3   OH223288   5.094   5.401   1.977 -0.6007  0.1813  0.1762
 7775TIP3    H123289   5.139   5.443   2.051 -0.6871  1.9245 -0.6943
 7775TIP3    H223290   5.165   5.371   1.920 -0.5234  0.7217 -0.0202
 7776TIP3   OH223291   1.318   0.803   0.896 -0.5075  0.3264 -0.0150
 7776TIP3    H123292   1.251   0.737   0.875  0.3439 -0.0932 -1.5808
 7776TIP3    H223293   1.387   0.788   0.832  0.8365  1.1409  1.1926
 7777TIP3   OH223294   6.054   3.585   0.872 -0.2319 -0.4052 -0.6630
 7777TIP3    H123295   6.081   3.644   0.801  0.8191 -0.9600 -0.7518
 7777TIP3    H223296   6.080   3.630   0.952  0.9084 -0.8874 -0.7449
 7778TIP3   OH223297   2.389   3.979   1.890  0.1388  0.0132  0.1025
 7778TIP3    H123298   2.412   4.007   1.979  1.6369 -0.1355 -0.2138
 7778TIP3    H223299   2.466   4.000   1.837 -0.2954 -0.9331 -0.9540
 7779TIP3   OH223300   7.092   1.060   5.008  0.3088  0.3264  0.2935
 7779TIP3    H123301   7.132   1.012   4.934  0.3408 -0.9163  1.0828
 7779TIP3    H223302   7.002   1.074   4.981  0.7961  1.5941 -0.7719
 7780TIP3   OH223303   3.228   1.857   4.549 -0.3765  0.0405  0.5660
 7780TIP3    H123304   3.150   1.912   4.554 -1.0111 -0.7134 -0.5640
 7780TIP3    H223305   3.222   1.799   4.625 -1.0895 -0.2179  0.3178
 7781TIP3   OH223306   0.057   3.755   2.633 -0.1039  0.2921  0.3306
 7781TIP3    H123307   0.029   3.731   2.544  0.0637  0.5143  0.2176
 7781TIP3    H223308  -0.024   3.756   2.684 -0.0355 -1.2741  0.5226
 7782TIP3   OH223309   5.907   6.398   3.914 -0.4345  0.7447 -0.0905
 7782TIP3    H123310   5.970   6.467   3.896 -0.8832  1.4062  0.7781
 7782TIP3    H223311   5.959   6.324   3.945 -0.1227  1.5495  1.3899
 7783TIP3   OH223312   6.018   1.525   1.317  0.4685 -0.0491  0.4071
 7783TIP3    H123313   6.086   1.552   1.378  0.5585 -0.2982  0.4202
 7783TIP3    H223314   6.028   1.583   1.241  1.2976 -0.6800  0.0104
 7784TIP3   OH223315   3.374   5.623   0.078 -0.6240  0.0439  0.5141
 7784TIP3    H123316   3.414   5.549   0.032 -1.0003 -1.2225  2.1183
 7784TIP3    H223317   3.432   5.639   0.152  0.0474  2.1376 -0.3884
 7785TIP3   OH223318   6.977   5.525   1.434 -0.5773  0.3185 -0.2758
 7785TIP3    H123319   7.053   5.473   1.461 -1.2292 -0.8244 -0.5839
 7785TIP3    H223320   6.914   5.513   1.504  0.4442  3.5303  1.4249
 7786TIP3   OH223321   5.611   0.053   4.913  0.1814 -0.3236  0.4947
 7786TIP3    H123322   5.575   0.083   4.829  0.1724 -0.0720  0.5905
 7786TIP3    H223323   5.653  -0.030   4.891  0.7985  0.0869  0.1000
 7787TIP3   OH223324   5.712   0.937   2.436 -0.2218 -0.1690  0.9212
 7787TIP3    H123325   5.798   0.905   2.406 -0.2673  0.2153  0.3680
 7787TIP3    H223326   5.733   0.994   2.509 -0.0832 -0.8443  1.4193
 7788TIP3   OH223327   2.138   3.490   4.465 -0.7079 -0.3826 -0.3291
 7788TIP3    H123328   2.102   3.491   4.376 -4.0247  1.5638  0.8463
 7788TIP3    H223329   2.098   3.414   4.506  1.2123 -1.5707 -0.5462
 7789TIP3   OH223330   0.813   4.367   0.891  0.3448  0.2358  0.4310
 7789TIP3    H123331   0.791   4.380   0.798  1.4890 -1.1160 -0.0452
 7789TIP3    H223332   0.811   4.273   0.904  0.9517  0.3658  1.6137
 7790TIP3   OH223333   1.650   2.224   2.100 -0.0780 -0.7398 -0.3121
 7790TIP3    H123334   1.617   2.136   2.087 -3.8512  0.7829 -2.7494
 7790TIP3    H223335   1.721   2.233   2.036  1.9098 -2.5063  1.4676
 7791TIP3   OH223336   6.347   4.756   4.054  0.3156  0.1881 -0.2157
 7791TIP3    H123337   6.327   4.671   4.015  1.6483 -1.0789  1.6952
 7791TIP3    H223338   6.391   4.804   3.984 -0.4527 -0.6617 -1.3261
 7792TIP3   OH223339   2.196   1.384   4.638 -0.6014 -0.3298 -0.1617
 7792TIP3    H123340   2.231   1.438   4.566 -1.9577 -1.8476 -2.0777
 7792TIP3    H223341   2.112   1.425   4.659 -0.4351 -0.1792  0.2050
 7793TIP3   OH223342   5.238   5.336   1.683 -0.4146 -0.2985 -0.3647
 7793TIP3    H123343   5.261   5.309   1.771  0.4827  0.8162 -0.2358
 7793TIP3    H223344   5.170   5.274   1.656 -0.1304 -1.1493  0.7896
 7794TIP3   OH223345   6.382   5.946   0.245 -0.0026 -0.7657 -0.0524
 7794TIP3    H123346   6.417   5.981   0.327  0.0543 -2.2850  0.6071
 7794TIP3    H223347   6.300   5.903   0.270 -0.5013 -0.3702 -0.9679
 7795TIP3   OH223348   1.436   1.448   0.439 -0.8296  0.0340 -0.2598
 7795TIP3    H123349   1.446   1.482   0.350  0.2009 -0.6738 -0.4278
 7795TIP3    H223350   1.345   1.470   0.463 -0.3526  2.5860 -0.4662
 7796TIP3   OH223351   0.437   5.370   5.669  0.4578 -0.5067 -0.5429
 7796TIP3    H123352   0.360   5.314   5.662 -0.0857 -0.0464  1.2924
 7796TIP3    H223353   0.403   5.458   5.686  1.3607 -0.3725  0.7688
 7797TIP3   OH223354   3.093   0.631   0.232  0.4000 -0.3034 -0.2060
 7797TIP3    H123355   3.030   0.598   0.296  0.3325  0.7793  0.3062
 7797TIP3    H223356   3.050   0.620   0.147 -0.5429  0.5111  0.1467
 7798TIP3   OH223357   6.806   2.208   2.272 -0.5509 -0.2419  0.1506
 7798TIP3    H123358   6.865   2.204   2.348 -1.3080  0.7915  0.8248
 7798TIP3    H223359   6.853   2.261   2.207 -0.3784 -0.1337  0.3623
 7799TIP3   OH223360   0.872   4.703   0.851 -0.1088  1.1855 -0.1443
 7799TIP3    H123361   0.894   4.755   0.928 -2.8442  2.6828 -0.2452
 7799TIP3    H223362   0.860   4.614   0.885 -0.2020  1.6109  0.9870
 7800TIP3   OH223363   3.722   1.751   2.731 -0.1030  0.0190 -0.1428
 7800TIP3    H123364   3.780   1.701   2.789 -2.0959 -2.4974 -0.1463
 7800TIP3    H223365   3.711   1.695   2.654 -2.1223  0.6017 -0.3303
 7801TIP3   OH223366   3.349   0.264   2.794 -0.4642  0.6911 -0.1795
 7801TIP3    H123367   3.267   0.312   2.782  0.3847  1.6517 -2.6583
 7801TIP3    H223368   3.382   0.294   2.879 -2.0982  1.1441  0.3360
 7802TIP3   OH223369   6.119   3.085   3.362  0.2467  0.0941  0.0103
 7802TIP3    H123370   6.192   3.051   3.311  1.1436  0.4685  1.0179
 7802TIP3    H223371   6.050   3.019   3.351  0.7952 -0.3621 -0.7938
 7803TIP3   OH223372   0.677   3.084   2.009 -0.1252 -0.2620  0.5168
 7803TIP3    H123373   0.591   3.107   1.973  0.7274  3.4848  0.4002
 7803TIP3    H223374   0.680   3.128   2.094  0.8695 -2.3236  1.6129
 7804TIP3   OH223375   6.430   5.665   0.870 -0.5418  0.6226  0.3561
 7804TIP3    H123376   6.514   5.702   0.846 -1.1286  1.5261 -0.3580
 7804TIP3    H223377   6.451   5.577   0.901  0.5311  0.3948 -0.9309
 7805TIP3   OH223378   1.442   5.423   3.553 -0.1287  0.0141  0.4820
 7805TIP3    H123379   1.471   5.428   3.644 -0.8098  1.7531  0.6482
 7805TIP3    H223380   1.523   5.430   3.502  0.2715 -1.1152  0.9348
 7806TIP3   OH223381   3.645   6.065   4.464  0.2332 -0.0317 -0.2372
 7806TIP3    H123382   3.652   6.155   4.433  1.5697 -0.0930 -0.1766
 7806TIP3    H223383   3.640   6.072   4.559  2.8959 -0.0657 -0.0195
 7807TIP3   OH223384   6.302   1.562   2.276  0.0736  0.0872 -0.1901
 7807TIP3    H123385   6.308   1.543   2.369 -0.4838  0.3682 -0.0947
 7807TIP3    H223386   6.375   1.621   2.259 -0.8458  1.4591  0.4449
 7808TIP3   OH223387   0.300   3.027   4.396  0.5916 -0.1553 -0.5931
 7808TIP3    H123388   0.270   2.951   4.446 -2.7128  1.3692 -0.0298
 7808TIP3    H223389   0.353   3.078   4.457 -0.7515  0.0859  0.4035
 7809TIP3   OH223390   3.279   0.544   4.845 -0.3937 -0.0229  0.3775
 7809TIP3    H123391   3.239   0.584   4.922 -1.5506  0.8593 -0.6265
 7809TIP3    H223392   3.206   0.532   4.784  0.6797  0.5796 -1.0950
 7810TIP3   OH223393   6.073   1.408   2.689 -0.5736 -0.2062  0.2228
 7810TIP3    H123394   6.013   1.336   2.668  0.1896 -1.3278  1.6982
 7810TIP3    H223395   6.039   1.443   2.771 -0.5140  0.6453 -0.1132
 7811TIP3   OH223396   1.560   1.885   4.687  0.0517  0.0868 -0.4107
 7811TIP3    H123397   1.500   1.832   4.740  3.4628 -1.8660  1.8081
 7811TIP3    H223398   1.575   1.964   4.739  0.5366 -0.1006 -0.2682
 7812TIP3   OH223399   5.067   4.088   0.359 -0.3281  0.8733 -0.0648
 7812TIP3    H123400   5.056   4.079   0.453 -1.3026 -0.5995 -0.2911
 7812TIP3    H223401   5.005   4.026   0.321  0.6015  0.8596 -1.6621
 7813TIP3   OH223402   1.805   1.079   4.783 -0.5853  0.3068 -0.0201
 7813TIP3    H123403   1.807   1.139   4.709 -0.3415 -0.6222 -0.7885
 7813TIP3    H223404   1.817   1.135   4.860  0.2270  1.1649 -0.7475
 7814TIP3   OH223405   4.377   0.586   1.177 -0.4476  0.2501 -0.2520
 7814TIP3    H123406   4.297   0.627   1.210 -0.8914 -1.2532  0.6462
 7814TIP3    H223407   4.382   0.612   1.085 -0.8706  1.9940  0.1860
 7815TIP3   OH223408   6.056   0.537   2.350  0.3474 -0.1408 -0.4730
 7815TIP3    H123409   6.060   0.535   2.446  2.2243 -0.8402 -0.5260
 7815TIP3    H223410   6.145   0.559   2.323  0.0188 -0.6858 -2.0735
 7816TIP3   OH223411   3.814   5.365   2.562  0.0981 -0.5532  0.5274
 7816TIP3    H123412   3.719   5.364   2.565  0.0669  0.9625  1.0953
 7816TIP3    H223413   3.841   5.282   2.602 -0.9579 -1.3309 -0.3099
 7817TIP3   OH223414   2.386   3.939   0.869 -0.6195  0.5214 -0.6566
 7817TIP3    H123415   2.310   3.923   0.814 -1.2208  0.5715  0.1463
 7817TIP3    H223416   2.375   4.028   0.901 -0.8369  0.1277  0.4024
 7818TIP3   OH223417   5.578   5.814   0.317 -0.6823  0.6151  0.1264
 7818TIP3    H123418   5.495   5.783   0.352 -0.7151  1.0483  0.4376
 7818TIP3    H223419   5.554   5.887   0.259 -0.4643  1.2121  0.7805
 7819TIP3   OH223420   1.040   0.642   2.614  0.2858 -0.3387 -0.3429
 7819TIP3    H123421   0.971   0.709   2.617  2.2888  1.9173 -0.9809
 7819TIP3    H223422   1.077   0.643   2.702 -1.4630 -2.7682  0.5124
 7820TIP3   OH223423   2.948   0.132   0.510 -0.2468  0.2737 -0.1372
 7820TIP3    H123424   3.033   0.122   0.466 -0.8242 -0.3598 -1.1239
 7820TIP3    H223425   2.966   0.107   0.601 -0.1943 -3.8152 -1.0980
 7821TIP3   OH223426   2.060   1.648   5.785  0.0582 -0.3930  0.5465
 7821TIP3    H123427   1.972   1.673   5.757 -0.7799 -2.5075  1.0672
 7821TIP3    H223428   2.100   1.729   5.816 -0.6006  1.2094 -2.3964
 7822TIP3   OH223429   1.339   3.986   1.820 -0.3783 -0.0948 -0.3842
 7822TIP3    H123430   1.314   3.916   1.760 -0.4190  0.5477 -1.1400
 7822TIP3    H223431   1.327   4.066   1.769 -0.2336  0.4550  0.4293
 7823TIP3   OH223432   4.223   6.519   2.715 -0.1509 -0.4871 -0.0331
 7823TIP3    H123433   4.244   6.596   2.663 -1.3753 -0.4764 -0.5538
 7823TIP3    H223434   4.252   6.541   2.804 -1.5130  1.0521  0.0684
 7824TIP3   OH223435   0.915   1.512   5.685  0.0762  0.4240  0.7506
 7824TIP3    H123436   0.869   1.594   5.671  0.8596  1.1039  1.9545
 7824TIP3    H223437   0.962   1.497   5.603 -0.3122  1.0188  0.4127
 7825TIP3   OH223438   5.398   5.113   1.555  0.7714  0.3332 -0.2777
 7825TIP3    H123439   5.381   5.206   1.570  0.7318  0.5574 -1.5516
 7825TIP3    H223440   5.316   5.070   1.575  0.7624  0.5850  0.2348
 7826TIP3   OH223441   5.666   4.981   1.577  0.4653 -1.0100 -0.2102
 7826TIP3    H123442   5.581   5.019   1.599  0.8554 -0.7748  0.9173
 7826TIP3    H223443   5.694   5.029   1.499  1.2093  1.4935  1.4934
 7827TIP3   OH223444   0.903   3.751   0.405 -0.5245 -0.0708 -0.2755
 7827TIP3    H123445   0.965   3.718   0.341  1.3923  1.2773  0.7883
 7827TIP3    H223446   0.872   3.834   0.368  2.5754  2.0742  1.5180
 7828TIP3   OH223447   3.868   3.489   3.096 -0.1468 -0.8052  0.2095
 7828TIP3    H123448   3.799   3.546   3.130  0.0029 -1.5248  1.7792
 7828TIP3    H223449   3.923   3.469   3.172  0.9883 -1.3881 -0.7290
 7829TIP3   OH223450   1.517   4.248   5.247 -0.1651 -0.3466 -0.3568
 7829TIP3    H123451   1.526   4.333   5.205 -0.1030 -0.5828 -0.8313
 7829TIP3    H223452   1.606   4.213   5.250  0.2835  0.7794  2.4060
 7830TIP3   OH223453   3.982   3.941   1.002  0.9711 -0.0146  0.1212
 7830TIP3    H123454   4.076   3.929   1.011  1.2446  1.9723  0.2615
 7830TIP3    H223455   3.945   3.906   1.083  1.7398  0.6295  0.7625
 7831TIP3   OH223456   6.571   0.954   0.711  0.0167  0.8097  0.2980
 7831TIP3    H123457   6.518   0.895   0.657  0.1915  1.4465 -0.5893
 7831TIP3    H223458   6.513   0.978   0.783 -0.2855  0.0899  0.3073
 7832TIP3   OH223459   4.198   1.902   5.333  0.1347 -0.2036  0.4041
 7832TIP3    H123460   4.254   1.909   5.411 -0.2880 -1.1851  0.8116
 7832TIP3    H223461   4.233   1.968   5.273  1.2633 -0.2937  0.9297
 7833TIP3   OH223462   6.840   0.523   0.860  0.2274 -0.3127 -0.7380
 7833TIP3    H123463   6.768   0.465   0.835  0.2100 -0.2340 -0.8684
 7833TIP3    H223464   6.818   0.607   0.820 -0.8193  0.3750  1.1622
 7834TIP3   OH223465   3.831   4.154   3.033 -0.2914 -0.9372  0.1609
 7834TIP3    H123466   3.852   4.115   2.948  1.1181 -0.8752  0.4610
 7834TIP3    H223467   3.915   4.158   3.079 -0.9269 -0.3642  1.3085
 7835TIP3   OH223468   3.980   5.009   1.003 -0.1711  0.5345 -0.1830
 7835TIP3    H123469   4.015   4.933   1.050  1.4018  0.3950 -1.4780
 7835TIP3    H223470   3.978   5.079   1.068  0.7228  0.0134  0.4335
 7836TIP3   OH223471   0.589   3.996   2.731  0.1015  0.3999 -0.2423
 7836TIP3    H123472   0.645   3.975   2.656  0.4965  0.7576 -0.0504
 7836TIP3    H223473   0.650   4.007   2.804 -0.2297  0.6943 -0.0088
 7837TIP3   OH223474   2.335   2.797   0.366 -0.2977  0.4139 -0.3855
 7837TIP3    H123475   2.359   2.795   0.274  1.0855  1.0275 -0.0631
 7837TIP3    H223476   2.395   2.861   0.405 -1.0253  0.3524  0.8912
 7838TIP3   OH223477   6.909   1.523   2.339 -0.3125 -0.1183  0.3648
 7838TIP3    H123478   6.956   1.590   2.290 -1.8925  1.0179  0.3096
 7838TIP3    H223479   6.846   1.487   2.277  2.8537 -4.4303 -0.7923
 7839TIP3   OH223480   2.740   3.794   0.281  0.2273  0.7144  0.2149
 7839TIP3    H123481   2.773   3.880   0.308  0.0579  0.0597  2.7086
 7839TIP3    H223482   2.716   3.751   0.363 -1.4384 -1.0234 -1.1123
 7840TIP3   OH223483   4.433   1.945   0.601  0.6585  0.0125 -0.2241
 7840TIP3    H123484   4.385   1.867   0.628  1.1871 -0.9650 -1.9519
 7840TIP3    H223485   4.481   1.918   0.523  1.3170  1.9181 -0.5369
 7841TIP3   OH223486   2.156   2.653   3.598  0.1575  0.0110 -0.0322
 7841TIP3    H123487   2.070   2.687   3.577 -0.2235 -0.7501  0.2567
 7841TIP3    H223488   2.161   2.655   3.694  0.6851  0.5923 -0.0700
 7842TIP3   OH223489   6.239   4.003   0.735 -0.0951 -0.0270  0.1761
 7842TIP3    H123490   6.144   3.996   0.728 -0.5042  2.0809  2.2310
 7842TIP3    H223491   6.263   4.068   0.668 -0.1481 -0.3156 -0.1233
 7843TIP3   OH223492   2.443   3.161   4.083  0.1672 -0.4522 -0.0388
 7843TIP3    H123493   2.466   3.253   4.086 -1.3137 -0.0415 -0.1491
 7843TIP3    H223494   2.347   3.161   4.072  0.0349 -1.9898  0.8246
 7844TIP3   OH223495   3.540   4.836   5.428 -0.2717  0.1839  0.0238
 7844TIP3    H123496   3.513   4.912   5.480  0.2463 -0.8660  1.9593
 7844TIP3    H223497   3.460   4.784   5.420 -0.3111  0.2606 -0.0842
 7845TIP3   OH223498   6.760   3.729   1.756 -0.6028 -0.2574  0.4926
 7845TIP3    H123499   6.825   3.686   1.811  1.5150 -0.3230 -1.8611
 7845TIP3    H223500   6.761   3.679   1.674  0.8084  3.1351 -1.7929
 7846TIP3   OH223501   1.807   3.785   4.766 -0.5516 -0.1894 -0.1658
 7846TIP3    H123502   1.725   3.788   4.717 -1.3723 -2.5610  0.9285
 7846TIP3    H223503   1.780   3.782   4.857  0.8976  2.0095  0.3990
 7847TIP3   OH223504   1.736   3.822   4.120  0.2358 -0.0820 -0.4470
 7847TIP3    H123505   1.788   3.866   4.187 -0.1155  0.2367 -0.3761
 7847TIP3    H223506   1.660   3.879   4.108  0.0051 -0.4356 -0.6924
 7848TIP3   OH223507   5.296   3.568   3.997  0.4656  0.3426  0.1448
 7848TIP3    H123508   5.313   3.506   3.926 -0.3222  0.5485 -0.2454
 7848TIP3    H223509   5.244   3.518   4.060  2.7370 -0.4080  1.5247
 7849TIP3   OH223510   3.823   1.228   1.348 -0.1026 -0.2071 -0.2777
 7849TIP3    H123511   3.735   1.238   1.311  0.5652  0.6545 -1.7244
 7849TIP3    H223512   3.846   1.315   1.380  0.4191 -0.3107 -0.3665
 7850TIP3   OH223513   4.428   2.712   1.302 -0.2691  0.4600  0.4137
 7850TIP3    H123514   4.427   2.806   1.283  2.1456  0.1810 -1.5262
 7850TIP3    H223515   4.411   2.707   1.397 -2.2500  2.6635  0.2817
 7851TIP3   OH223516   3.392   3.853   3.753  0.1874 -0.2484 -0.5224
 7851TIP3    H123517   3.313   3.878   3.704  1.4050  0.6029 -2.1712
 7851TIP3    H223518   3.418   3.934   3.798  1.3118  0.1355 -1.7840
 7852TIP3   OH223519   4.197   2.013   4.221  0.1502 -0.1130 -0.0402
 7852TIP3    H123520   4.119   2.034   4.271 -0.9327 -2.0271 -0.8446
 7852TIP3    H223521   4.194   2.073   4.146  0.0115  0.4954  0.4395
 7853TIP3   OH223522   5.579   2.846   3.821  0.3512 -0.2902  0.0449
 7853TIP3    H123523   5.632   2.808   3.891 -0.7678 -1.3028  0.3775
 7853TIP3    H223524   5.526   2.773   3.789 -0.6056  0.6216 -0.4855
 7854TIP3   OH223525   2.290   6.713   4.323 -0.2794  0.6271 -0.0410
 7854TIP3    H123526   2.363   6.775   4.317  0.9773 -0.8294 -0.3256
 7854TIP3    H223527   2.247   6.719   4.237 -0.6508  1.6523  0.2058
 7855TIP3   OH223528   3.534   6.197   1.734  0.3475  0.0818  0.2426
 7855TIP3    H123529   3.469   6.134   1.764  0.2157  0.0829 -0.0381
 7855TIP3    H223530   3.486   6.255   1.675  0.8026 -0.4729 -0.6939
 7856TIP3   OH223531   4.978   0.934   4.052  0.8752  0.4608  0.1841
 7856TIP3    H123532   4.964   0.991   4.128 -1.5805 -0.4349  0.4854
 7856TIP3    H223533   5.032   0.862   4.086 -0.6350 -0.2124  1.2905
 7857TIP3   OH223534   1.289   3.342   1.511  0.3124 -0.2144 -0.0024
 7857TIP3    H123535   1.201   3.379   1.511 -0.1544 -1.2775  0.8521
 7857TIP3    H223536   1.279   3.255   1.473  0.6847 -0.9781  1.5757
 7858TIP3   OH223537   6.349   6.165   1.935  0.2396 -0.1284 -0.1312
 7858TIP3    H123538   6.408   6.090   1.933  1.7413  0.9967  0.0178
 7858TIP3    H223539   6.289   6.147   2.008 -0.1244 -1.6467 -0.7706
 7859TIP3   OH223540   1.992   4.338   1.277 -0.0389 -0.1034  0.0817
 7859TIP3    H123541   1.932   4.411   1.264 -0.9479 -0.9121 -0.4439
 7859TIP3    H223542   2.028   4.352   1.365  1.4314  2.0863 -0.7923
 7860TIP3   OH223543   3.953   0.426   2.684 -0.0205  0.1055 -0.1852
 7860TIP3    H123544   3.939   0.511   2.727 -2.4803  0.3397 -1.2962
 7860TIP3    H223545   3.982   0.368   2.754  2.1496  1.9024  0.5339
 7861TIP3   OH223546   2.327   1.906   0.821  0.3122  0.1749  1.1667
 7861TIP3    H123547   2.412   1.873   0.792 -0.2185 -0.0485 -0.1780
 7861TIP3    H223548   2.332   2.001   0.808  0.0575  0.0697  0.2785
 7862TIP3   OH223549   4.114   3.943   0.679 -0.4716  0.0766  0.1657
 7862TIP3    H123550   4.150   3.924   0.766  0.7982  1.6152  0.0194
 7862TIP3    H223551   4.131   4.036   0.666  1.4216 -0.5485 -2.6496
 7863TIP3   OH223552   2.628   6.304   3.254  0.0420 -0.1313 -0.0682
 7863TIP3    H123553   2.545   6.269   3.286 -0.4426 -0.3209 -1.4514
 7863TIP3    H223554   2.613   6.317   3.160  2.0030 -1.4598 -0.6282
 7864TIP3   OH223555   0.329   3.680   1.641 -0.3634  0.2153  0.3750
 7864TIP3    H123556   0.312   3.620   1.568 -2.2962  1.0729  0.0610
 7864TIP3    H223557   0.295   3.764   1.611 -0.4786  0.7681  1.9756
 7865TIP3   OH223558   2.752   4.263   1.992 -0.2420 -0.7652 -0.2964
 7865TIP3    H123559   2.728   4.189   2.047  3.6442 -1.2079  1.1286
 7865TIP3    H223560   2.704   4.337   2.029 -0.8913 -1.8197  1.0452
 7866TIP3   OH223561   3.087   2.550   3.955 -0.1247  0.6447 -0.4809
 7866TIP3    H123562   3.087   2.537   4.050  2.8625 -0.7580 -0.5596
 7866TIP3    H223563   3.058   2.466   3.919 -0.3347  0.8687 -0.8437
 7867TIP3   OH223564   5.778   1.653   5.379 -0.2763 -0.0308  0.1279
 7867TIP3    H123565   5.706   1.614   5.430  1.0531 -1.2791  1.1289
 7867TIP3    H223566   5.856   1.639   5.432  1.2037 -1.4300 -2.2373
 7868TIP3   OH223567   1.464   5.706   0.361 -0.3805 -0.0835 -0.4999
 7868TIP3    H123568   1.478   5.628   0.415 -0.3385 -0.2882 -0.8074
 7868TIP3    H223569   1.466   5.778   0.424  0.1618 -0.2746 -0.2903
 7869TIP3   OH223570   2.299   0.447   1.946 -0.0573  0.0433 -0.0670
 7869TIP3    H123571   2.380   0.486   1.914 -1.1058  1.1204 -1.5436
 7869TIP3    H223572   2.229   0.502   1.910 -1.4404  0.7675  3.3072
 7870TIP3   OH223573   2.545   2.906   4.131  0.1883 -0.0282  0.0948
 7870TIP3    H123574   2.505   2.986   4.096 -1.5744 -0.6920  0.4934
 7870TIP3    H223575   2.603   2.937   4.201  0.0546  0.9428 -0.2066
 7871TIP3   OH223576   2.563   3.113   2.801  0.6334 -0.5641 -0.4679
 7871TIP3    H123577   2.527   3.048   2.861  0.0952 -0.2371 -0.4328
 7871TIP3    H223578   2.494   3.179   2.792  1.0727 -0.1296 -0.7072
 7872TIP3   OH223579   2.398   5.659   5.304  0.6204  0.0368 -0.4162
 7872TIP3    H123580   2.410   5.572   5.342 -1.0559  0.1920  0.5299
 7872TIP3    H223581   2.375   5.715   5.378 -2.2454  0.4522 -1.5075
 7873TIP3   OH223582   2.246   2.367   2.282 -0.5540 -0.0605 -0.0943
 7873TIP3    H123583   2.202   2.299   2.232  0.8023 -1.4592  0.5107
 7873TIP3    H223584   2.207   2.362   2.369 -0.1860 -0.3632  0.0596
 7874TIP3   OH223585   6.942   2.344   3.252 -0.0736  0.2023 -0.2702
 7874TIP3    H123586   6.946   2.340   3.157 -1.9402 -3.1756 -0.3572
 7874TIP3    H223587   6.849   2.362   3.271  0.0535 -0.2836  0.8959
 7875TIP3   OH223588   4.146   5.024   2.554  0.4012  0.5509  0.1016
 7875TIP3    H123589   4.237   5.040   2.579  1.2494 -0.1927 -2.1615
 7875TIP3    H223590   4.141   4.929   2.542 -0.6940  0.5738  0.2693
 7876TIP3   OH223591   4.080   1.985   4.732 -0.1207  0.4224 -0.0783
 7876TIP3    H123592   4.078   2.077   4.704  0.7224  0.5728  0.3261
 7876TIP3    H223593   4.102   1.936   4.653  1.6309  0.7874  0.1291
 7877TIP3   OH223594   5.209   2.641   2.481 -0.6045  0.5983 -0.1098
 7877TIP3    H123595   5.232   2.733   2.472 -2.2683  0.9991 -0.6059
 7877TIP3    H223596   5.149   2.639   2.556 -0.5482 -0.0901 -0.0761
 7878TIP3   OH223597   2.631   2.780   2.204  0.3269  0.2311  0.2373
 7878TIP3    H123598   2.589   2.711   2.255  0.9376  0.3649  0.9490
 7878TIP3    H223599   2.682   2.733   2.138  1.5650 -0.0738  1.3591
 7879TIP3   OH223600   3.187   0.848   5.857 -0.5126 -0.4197 -0.3025
 7879TIP3    H123601   3.283   0.843   5.853 -0.1629  0.1065  3.5348
 7879TIP3    H223602   3.170   0.940   5.880 -1.8270 -0.7919  0.2550
 7880TIP3   OH223603   5.348   2.837   2.804 -0.1804  0.2782 -0.8197
 7880TIP3    H123604   5.392   2.754   2.784  0.3509 -0.1362  1.7270
 7880TIP3    H223605   5.412   2.904   2.778  0.3983 -0.2137 -0.7031
 7881TIP3   OH223606   1.527   6.207   3.635 -0.2802 -0.0377 -0.4182
 7881TIP3    H123607   1.546   6.128   3.585 -0.0031 -0.6516  0.6326
 7881TIP3    H223608   1.572   6.195   3.718  1.0759  1.9054 -0.7894
 7882TIP3   OH223609   1.682   2.399   4.608  0.1268  0.6706  0.2748
 7882TIP3    H123610   1.601   2.404   4.557 -0.2943 -0.1789  0.8380
 7882TIP3    H223611   1.742   2.459   4.564 -0.9729  1.7157  0.1436
 7883TIP3   OH223612   6.360   2.661   2.524  0.8962  0.0413  0.1673
 7883TIP3    H123613   6.302   2.712   2.467  1.2984 -1.7046 -1.8980
 7883TIP3    H223614   6.324   2.573   2.523  1.9619 -0.4314  1.1966
 7884TIP3   OH223615   6.053   6.672   2.139  0.4184  0.4664 -0.2054
 7884TIP3    H123616   6.132   6.698   2.187  0.2273  1.6539 -0.5137
 7884TIP3    H223617   6.077   6.685   2.047 -0.0210  0.4914 -0.3145
 7885TIP3   OH223618   5.014   1.121   1.665  0.0150 -0.6423 -0.4972
 7885TIP3    H123619   4.938   1.135   1.721  0.9061  0.8543  0.4033
 7885TIP3    H223620   4.977   1.108   1.578 -1.2806  1.3576 -0.3219
 7886TIP3   OH223621   6.226   3.625   3.509  0.4917  0.1173 -0.6107
 7886TIP3    H123622   6.151   3.621   3.450 -0.1401  2.0725 -0.0094
 7886TIP3    H223623   6.276   3.702   3.481  2.0166 -0.8297 -0.6554
 7887TIP3   OH223624   4.439   2.756   5.761  0.1892 -0.1305 -0.4252
 7887TIP3    H123625   4.491   2.833   5.784  1.3498 -1.1532  0.5144
 7887TIP3    H223626   4.353   2.772   5.801  0.3729  0.7300 -0.3613
 7888TIP3   OH223627   0.290   0.811   0.633 -0.3582 -0.1947 -0.2975
 7888TIP3    H123628   0.203   0.790   0.665 -0.1571 -1.0375 -0.2913
 7888TIP3    H223629   0.349   0.781   0.702  0.0007 -0.7477 -0.8367
 7889TIP3   OH223630   3.965   1.359   4.760 -0.6379  0.0506 -0.3791
 7889TIP3    H123631   3.944   1.429   4.822 -3.6310 -2.2165  1.4379
 7889TIP3    H223632   3.887   1.351   4.705  0.3606 -0.7164 -1.7526
 7890TIP3   OH223633   3.080   3.577   3.113  0.1318  0.4390  0.2208
 7890TIP3    H123634   2.993   3.600   3.147  0.1277 -0.1477  0.6306
 7890TIP3    H223635   3.086   3.482   3.127  0.2508  0.2209 -1.1582
 7891TIP3   OH223636   4.945   4.423   5.767  0.2721  0.5063 -0.1369
 7891TIP3    H123637   5.016   4.450   5.709  0.4406  2.0989  0.7570
 7891TIP3    H223638   4.894   4.503   5.782 -1.7217 -0.5685 -0.7096
 7892TIP3   OH223639   5.372   5.481   0.159 -0.4683 -0.8491 -0.1234
 7892TIP3    H123640   5.463   5.460   0.138 -1.1744 -2.4865 -1.8088
 7892TIP3    H223641   5.357   5.443   0.245  0.1335 -1.6126 -0.3466
 7893TIP3   OH223642   4.437   4.905   3.592 -0.0596 -0.4893 -0.0915
 7893TIP3    H123643   4.389   4.930   3.671 -0.8409  0.7136 -0.9213
 7893TIP3    H223644   4.380   4.840   3.549 -1.6181  1.7587 -1.6591
 7894TIP3   OH223645   0.549   0.974   3.470 -0.4637 -0.2360 -0.1717
 7894TIP3    H123646   0.585   0.916   3.538 -0.6135  0.2517  0.3320
 7894TIP3    H223647   0.601   0.955   3.392 -0.3968 -0.9253  0.0341
 7895TIP3   OH223648   1.460   3.628   0.319 -0.9611  0.2743 -0.0981
 7895TIP3    H123649   1.432   3.717   0.338 -1.8407 -0.2308  1.0965
 7895TIP3    H223650   1.555   3.629   0.333 -1.0873  0.8266  0.7961
 7896TIP3   OH223651   1.332   5.560   4.238  0.1732  0.3515  0.2157
 7896TIP3    H123652   1.252   5.510   4.254  0.1442  0.6914  1.2616
 7896TIP3    H223653   1.383   5.506   4.179 -0.6775 -0.0327 -0.1874
 7897TIP3   OH223654   4.886   3.433   0.566 -0.1592 -0.0810 -0.2530
 7897TIP3    H123655   4.906   3.416   0.658  0.6656  0.5469 -0.2997
 7897TIP3    H223656   4.826   3.363   0.541 -1.4382  0.4908  1.1071
 7898TIP3   OH223657   0.011   0.423   4.216 -0.3295  0.2051  0.0537
 7898TIP3    H123658   0.105   0.434   4.231 -0.4633  0.3707  0.7954
 7898TIP3    H223659   0.004   0.337   4.174  0.1719  0.2923 -0.2131
 7899TIP3   OH223660   0.813   3.314   5.469 -0.4248 -0.5971 -0.2268
 7899TIP3    H123661   0.823   3.391   5.413 -0.2851 -1.9953 -2.1931
 7899TIP3    H223662   0.719   3.304   5.479 -0.4585 -0.4949 -0.4344
 7900TIP3   OH223663   5.103   3.281   4.773 -0.5756  0.3540 -0.1809
 7900TIP3    H123664   5.013   3.306   4.754 -0.6284 -1.1880 -2.2472
 7900TIP3    H223665   5.114   3.196   4.732  1.3393 -0.3100  1.5107
 7901TIP3   OH223666   4.116   0.971   1.413  0.2448 -0.3458  0.1637
 7901TIP3    H123667   4.041   0.944   1.465  0.3288  0.6824  0.8611
 7901TIP3    H223668   4.082   1.039   1.355  0.5879 -0.0199  0.3399
 7902TIP3   OH223669   3.500   4.076   5.136 -0.0474 -0.2313  0.0384
 7902TIP3    H123670   3.570   4.043   5.079  0.2180  0.5574 -0.1085
 7902TIP3    H223671   3.421   4.072   5.083  0.6697  3.4983 -1.6654
 7903TIP3   OH223672   5.178   4.811   0.097 -0.4022 -0.1640  0.4043
 7903TIP3    H123673   5.117   4.782   0.029 -0.6253  0.6249  0.2629
 7903TIP3    H223674   5.171   4.906   0.096  0.4320 -0.0952  0.7606
 7904TIP3   OH223675   0.693   4.696   3.957 -0.4715 -0.5165 -0.2963
 7904TIP3    H123676   0.634   4.699   3.881 -1.6553 -1.9393  0.5153
 7904TIP3    H223677   0.717   4.787   3.972 -0.6698 -0.1313 -2.0101
 7905TIP3   OH223678   2.591   1.760   4.234 -0.1677  0.0608 -0.0347
 7905TIP3    H123679   2.654   1.797   4.173 -0.3252  0.4903  0.0550
 7905TIP3    H223680   2.506   1.771   4.191 -0.0001 -2.6808 -1.2325
 7906TIP3   OH223681   1.121   5.983   3.348 -0.4181  0.1275 -0.0555
 7906TIP3    H123682   1.053   6.047   3.329 -0.6524  0.1545  0.8245
 7906TIP3    H223683   1.078   5.916   3.402 -0.0231 -0.4463 -0.4315
 7907TIP3   OH223684   0.016   6.599   3.048  0.1583  0.0784  0.1357
 7907TIP3    H123685   0.085   6.544   3.085 -0.8108 -1.8881 -0.8237
 7907TIP3    H223686   0.034   6.600   2.954 -0.8148 -0.0625 -0.0667
 7908TIP3   OH223687   4.230   2.225   5.804  0.5152  0.0005 -0.3649
 7908TIP3    H123688   4.228   2.294   5.871 -0.0880 -1.0931  0.8020
 7908TIP3    H223689   4.322   2.197   5.802  0.2672 -1.1211  1.3238
 7909TIP3   OH223690   6.337   5.750   4.623  0.0826 -0.5058 -0.9843
 7909TIP3    H123691   6.337   5.659   4.593  0.3733 -0.6218 -0.6315
 7909TIP3    H223692   6.404   5.753   4.691  0.4550  0.0965 -1.3664
 7910TIP3   OH223693   3.863   3.682   2.814  0.3687 -0.7919 -0.2520
 7910TIP3    H123694   3.848   3.697   2.720 -0.8189 -1.3258 -0.1657
 7910TIP3    H223695   3.901   3.594   2.818 -0.4498 -1.1496 -0.1778
 7911TIP3   OH223696   0.539   5.008   2.439 -0.1628 -0.2998 -0.1337
 7911TIP3    H123697   0.627   5.005   2.475  0.3005  1.8590 -0.9465
 7911TIP3    H223698   0.526   4.921   2.400  0.6792 -1.4484  1.9891
 7912TIP3   OH223699   0.870   6.514   2.784  0.0162 -0.0339 -0.1827
 7912TIP3    H123700   0.891   6.525   2.692 -2.0989  1.9558 -0.5246
 7912TIP3    H223701   0.847   6.602   2.815 -0.7215 -0.8639  1.8458
 7913TIP3   OH223702   2.497   5.444   2.206 -0.1929 -0.6352  0.0959
 7913TIP3    H123703   2.584   5.465   2.171 -0.6613  1.1247 -0.1208
 7913TIP3    H223704   2.438   5.460   2.132 -0.7815 -0.9512  0.4972
 7914TIP3   OH223705   2.897   2.942   0.657 -0.5530  0.2739 -0.2109
 7914TIP3    H123706   2.833   2.871   0.671  0.8279 -0.9664  0.0328
 7914TIP3    H223707   2.971   2.919   0.713  0.6558  0.9924 -1.4484
 7915TIP3   OH223708   5.536   6.159   1.673  0.5038 -0.7004 -0.1002
 7915TIP3    H123709   5.609   6.098   1.687  0.2371 -0.6784  1.7120
 7915TIP3    H223710   5.537   6.215   1.751 -0.8534 -0.0598 -0.5144
 7916TIP3   OH223711   7.173   0.883   3.353 -0.2219 -0.2384  0.0945
 7916TIP3    H123712   7.147   0.944   3.421 -1.8745 -3.2444  2.4195
 7916TIP3    H223713   7.137   0.920   3.272 -1.4651  1.6288  1.4144
 7917TIP3   OH223714   5.084   3.518   2.778  0.2721  0.2741  0.9598
 7917TIP3    H123715   5.158   3.486   2.829  1.1957  0.2264 -0.3542
 7917TIP3    H223716   5.052   3.594   2.827  0.5539 -0.2905  2.0448
 7918TIP3   OH223717   1.129   3.991   0.430 -0.0797 -0.1680  0.3416
 7918TIP3    H123718   1.217   4.018   0.458 -0.6076  0.7509  1.1801
 7918TIP3    H223719   1.127   3.896   0.445  0.2977  0.0205  1.7015
 7919TIP3   OH223720   3.105   4.782   4.048  0.3993 -0.0005 -0.2440
 7919TIP3    H123721   3.197   4.791   4.071 -0.1360  2.0326  1.3807
 7919TIP3    H223722   3.093   4.689   4.031  2.9461 -0.1770 -1.5160
 7920TIP3   OH223723   3.541   3.456   5.072  0.0485 -0.2270 -0.0219
 7920TIP3    H123724   3.543   3.374   5.024 -1.7343 -0.5849  0.4424
 7920TIP3    H223725   3.553   3.523   5.005 -0.7754 -0.7814 -0.7474
 7921TIP3   OH223726   2.534   4.475   5.313 -0.1321  0.2973  1.0139
 7921TIP3    H123727   2.488   4.395   5.288  0.0169  0.1583  1.1811
 7921TIP3    H223728   2.464   4.538   5.334 -0.2484 -0.0601  1.7321
 7922TIP3   OH223729   0.764   4.227   2.638 -0.0116 -0.3921 -0.5294
 7922TIP3    H123730   0.817   4.216   2.559 -1.1907 -0.7838 -1.2884
 7922TIP3    H223731   0.825   4.214   2.710  1.1196  0.1206 -1.3695
 7923TIP3   OH223732   1.704   3.115   5.859 -0.4191 -0.2675 -0.2817
 7923TIP3    H123733   1.691   3.140   5.950 -0.4484  0.1093 -0.3909
 7923TIP3    H223734   1.791   3.147   5.837  0.5832 -2.3728  0.3081
 7924TIP3   OH223735   3.584   1.091   0.694 -0.0028  0.4594  0.3081
 7924TIP3    H123736   3.660   1.086   0.636  0.1857 -0.7629  0.6298
 7924TIP3    H223737   3.511   1.056   0.642  0.2018 -0.8044  0.8245
 7925TIP3   OH223738   6.231   6.336   2.345  0.4085 -0.2893 -0.4309
 7925TIP3    H123739   6.237   6.406   2.410 -0.1750 -0.4454 -0.2034
 7925TIP3    H223740   6.322   6.319   2.319  0.7893 -1.2004  1.3773
 7926TIP3   OH223741   3.242   3.421   2.373 -0.1711 -0.1007 -0.7728
 7926TIP3    H123742   3.261   3.380   2.457 -0.7118 -0.3490 -0.7689
 7926TIP3    H223743   3.192   3.355   2.324  1.0437 -0.3668 -1.6998
 7927TIP3   OH223744   3.080   5.057   2.915  0.1299 -0.0629 -0.3801
 7927TIP3    H123745   3.040   5.094   2.993  1.0632  2.2014 -0.8906
 7927TIP3    H223746   3.006   5.028   2.861 -0.5935  0.1520  0.4740
 7928TIP3   OH223747   7.070   1.404   0.750  0.4319 -0.0162 -0.0795
 7928TIP3    H123748   7.157   1.374   0.777  0.3680  0.6192  0.8869
 7928TIP3    H223749   7.011   1.333   0.778  0.3238  0.7643  1.8686
 7929TIP3   OH223750   1.181   0.136   1.270 -0.1159  0.0457 -0.0815
 7929TIP3    H123751   1.131   0.056   1.278  1.0211 -0.6613  0.2075
 7929TIP3    H223752   1.269   0.113   1.301  0.5276  1.1029 -1.0253
 7930TIP3   OH223753   5.454   2.189   3.078 -0.2340  0.5689  0.7989
 7930TIP3    H123754   5.545   2.195   3.108 -0.5166  0.6702  1.6595
 7930TIP3    H223755   5.406   2.154   3.153 -0.6409 -1.1034 -0.1800
 7931TIP3   OH223756   0.422   4.116   3.105 -0.0224  0.1735 -0.3005
 7931TIP3    H123757   0.383   4.123   3.018 -0.2577  2.1976 -0.0633
 7931TIP3    H223758   0.372   4.176   3.159  2.5834  1.9587  0.3072
 7932TIP3   OH223759   1.584   4.912   0.458 -0.2600  0.0679 -0.4271
 7932TIP3    H123760   1.614   4.995   0.497 -2.0727  0.6420 -0.1370
 7932TIP3    H223761   1.552   4.861   0.532  1.2621 -1.1348 -0.5442
 7933TIP3   OH223762   2.294   4.021   3.801 -0.0518  0.2198  0.4407
 7933TIP3    H123763   2.254   3.955   3.857  0.2384 -0.1838  0.1808
 7933TIP3    H223764   2.284   3.986   3.712  1.6909 -0.3620  0.4330
 7934TIP3   OH223765   2.161   4.418   0.120 -0.0998  0.2946  0.0938
 7934TIP3    H123766   2.230   4.473   0.083  0.1127  0.6404  0.9980
 7934TIP3    H223767   2.152   4.447   0.210 -2.1088  0.9131 -0.2683
 7935TIP3   OH223768   1.675   3.326   4.762 -0.2356 -0.1369  0.3288
 7935TIP3    H123769   1.751   3.355   4.711 -1.2125 -2.0110 -2.4443
 7935TIP3    H223770   1.599   3.351   4.708 -1.3027 -3.1107  0.2854
 7936TIP3   OH223771   5.824   2.524   5.225 -0.0006  0.0780 -0.1953
 7936TIP3    H123772   5.819   2.572   5.142 -0.7929  0.8314  0.2732
 7936TIP3    H223773   5.876   2.580   5.282  1.0123 -0.6888 -0.3228
 7937TIP3   OH223774   3.965   5.822   4.886 -0.0998  0.0365 -0.2243
 7937TIP3    H123775   3.943   5.842   4.977 -0.7048 -1.8978  0.1160
 7937TIP3    H223776   3.995   5.905   4.849  0.5681  0.7805  1.8555
 7938TIP3   OH223777   0.049   1.750   5.750 -0.2320 -0.0646 -0.0262
 7938TIP3    H123778   0.023   1.842   5.751 -1.2934 -0.3392 -0.6518
 7938TIP3    H223779  -0.018   1.707   5.697 -0.3421 -1.3684  1.1114
 7939TIP3   OH223780   3.318   5.435   2.374  0.1372 -0.4165  0.3183
 7939TIP3    H123781   3.275   5.428   2.459 -0.6293 -0.4970 -0.0644
 7939TIP3    H223782   3.288   5.519   2.339 -1.3844 -1.3889 -0.8334
 7940TIP3   OH223783   5.259   4.622   5.882  0.3665 -0.1196  0.1939
 7940TIP3    H123784   5.197   4.638   5.953  0.8380  1.8209  0.2160
 7940TIP3    H223785   5.205   4.609   5.805 -0.0926  1.1036  0.2967
 7941TIP3   OH223786   4.530   4.346   0.202  0.1019 -0.0419 -0.4630
 7941TIP3    H123787   4.520   4.337   0.108 -0.2009  1.1604 -0.5494
 7941TIP3    H223788   4.484   4.270   0.238 -1.7889  0.7134 -1.1970
 7942TIP3   OH223789   2.232   4.059   4.368 -0.1174 -0.0685 -0.6495
 7942TIP3    H123790   2.301   4.091   4.425 -1.0919 -1.8719  1.7009
 7942TIP3    H223791   2.278   4.027   4.290  1.5056  0.4289  0.0653
 7943TIP3   OH223792   5.458   5.187   1.008  0.0275  0.1964 -0.2350
 7943TIP3    H123793   5.373   5.160   0.974 -0.9510  0.2599  1.9820
 7943TIP3    H223794   5.481   5.119   1.072  2.4944 -0.7370 -1.9634
 7944TIP3   OH223795   5.448   5.383   3.017 -0.3339 -0.0349  0.2599
 7944TIP3    H123796   5.456   5.288   3.019 -0.9447 -0.1032 -0.2871
 7944TIP3    H223797   5.371   5.402   3.070 -0.8951  0.0565 -0.5544
 7945TIP3   OH223798   2.844   6.289   3.408  0.1127  0.2899  0.0713
 7945TIP3    H123799   2.779   6.271   3.340 -0.2477 -0.5063  0.6029
 7945TIP3    H223800   2.794   6.325   3.481  0.1190 -1.0071  0.7603
 7946TIP3   OH223801   3.825   1.195   4.975  0.0545 -0.4804  0.2116
 7946TIP3    H123802   3.788   1.119   4.931 -0.7486  1.1873 -2.2419
 7946TIP3    H223803   3.904   1.216   4.924  0.3889  0.1783  0.9848
 7947TIP3   OH223804   6.055   5.779   2.785  0.3501  0.2663  0.1581
 7947TIP3    H123805   6.123   5.726   2.744 -1.0848 -0.8589 -0.8632
 7947TIP3    H223806   6.102   5.839   2.843  2.3164  0.5081 -1.5838
 7948TIP3   OH223807   0.446   0.321   0.071  0.6327 -0.2435 -0.2559
 7948TIP3    H123808   0.505   0.382   0.027 -1.9841  1.9537 -1.0357
 7948TIP3    H223809   0.451   0.346   0.164 -0.9104  1.7626 -0.6483
 7949TIP3   OH223810   7.101   3.773   1.072 -0.2740  0.0144 -0.2918
 7949TIP3    H123811   7.008   3.784   1.092  0.1795  0.1391  2.0031
 7949TIP3    H223812   7.146   3.831   1.134  1.4520 -2.4309  0.9125
 7950TIP3   OH223813   1.137   3.981   0.744 -0.1589 -0.3308 -0.0282
 7950TIP3    H123814   1.064   3.964   0.685 -0.5358 -0.7927  0.5714
 7950TIP3    H223815   1.137   3.908   0.805 -0.5055  0.7374  1.2899
 7951TIP3   OH223816   2.888   4.686   2.761  0.0108 -0.4885 -0.0498
 7951TIP3    H123817   2.816   4.683   2.824 -0.2713  1.1228 -0.2632
 7951TIP3    H223818   2.962   4.646   2.808 -0.1301  0.8494  1.4029
 7952TIP3   OH223819   2.709   0.198   4.273 -0.2985  0.3753  0.4018
 7952TIP3    H123820   2.669   0.157   4.349  1.1354 -2.9048 -0.4467
 7952TIP3    H223821   2.635   0.218   4.215 -1.2300  1.2024  1.8038
 7953TIP3   OH223822   0.046   0.133   0.277 -0.0145 -0.1536 -0.1377
 7953TIP3    H123823  -0.043   0.168   0.290 -0.0239  0.0599 -0.7132
 7953TIP3    H223824   0.087   0.195   0.216  0.6936  0.0139  0.4931
 7954TIP3   OH223825   6.723   1.044   4.465  0.1423 -0.0025 -0.3607
 7954TIP3    H123826   6.807   1.004   4.445  0.3141 -0.3084  0.8673
 7954TIP3    H223827   6.672   0.974   4.506 -0.1147  0.6065  0.3917
 7955TIP3   OH223828   6.403   0.708   0.544 -0.3559 -0.3441  0.1108
 7955TIP3    H123829   6.432   0.724   0.454  0.1247  0.2271  0.3624
 7955TIP3    H223830   6.451   0.629   0.570 -0.9100 -0.8290 -0.3157
 7956TIP3   OH223831   2.784   5.930   3.833 -0.4927 -0.1439  0.1945
 7956TIP3    H123832   2.701   5.936   3.786 -0.5696 -1.8680  0.0331
 7956TIP3    H223833   2.848   5.904   3.767 -0.3357 -1.2440  0.7456
 7957TIP3   OH223834   6.658   2.912   0.384  0.2853  0.1579 -0.0378
 7957TIP3    H123835   6.737   2.964   0.400  0.1934  1.0226 -2.0300
 7957TIP3    H223836   6.588   2.959   0.428  0.5906  0.4155  0.1786
 7958TIP3   OH223837   6.475   3.885   3.562 -0.1273  0.0504  0.4680
 7958TIP3    H123838   6.389   3.927   3.570 -1.6671 -2.7019 -0.2501
 7958TIP3    H223839   6.472   3.842   3.477  0.9719 -2.1123  1.4527
 7959TIP3   OH223840   3.869   1.341   4.359 -0.0268 -0.3136  0.4835
 7959TIP3    H123841   3.828   1.353   4.445  1.2893 -0.4553  1.1514
 7959TIP3    H223842   3.834   1.258   4.328 -0.1477 -0.4999  1.0958
 7960TIP3   OH223843   2.244   0.533   4.550 -0.1064 -0.8310  0.4074
 7960TIP3    H123844   2.312   0.600   4.565  0.3513 -1.3178  0.5442
 7960TIP3    H223845   2.209   0.514   4.637  0.4914 -1.5137  0.5125
 7961TIP3   OH223846   6.454   3.030   1.563 -0.6823 -0.1001  0.4390
 7961TIP3    H123847   6.379   3.079   1.528 -0.2836 -0.0680 -0.4087
 7961TIP3    H223848   6.474   3.073   1.646 -2.0134 -0.5311  0.9917
 7962TIP3   OH223849   6.010   4.381   4.825 -0.7744 -0.4185 -0.0437
 7962TIP3    H123850   6.093   4.395   4.871 -0.9657  0.3259  0.0856
 7962TIP3    H223851   5.967   4.311   4.874 -1.0232  0.4444  0.9882
 7963TIP3   OH223852   4.243   1.001   2.284 -0.3042  0.3869  0.2012
 7963TIP3    H123853   4.158   0.964   2.264 -0.6657 -0.1887  2.4938
 7963TIP3    H223854   4.228   1.096   2.289 -0.5241  0.3982 -0.5969
 7964TIP3   OH223855   4.939   2.186   2.625  0.2281  0.4523  0.2384
 7964TIP3    H123856   4.891   2.103   2.624  0.7399  0.1349 -1.6418
 7964TIP3    H223857   5.030   2.161   2.614  0.1878  1.3206 -2.7308
 7965TIP3   OH223858   3.806   1.835   3.188  0.3185  0.1410 -0.3482
 7965TIP3    H123859   3.897   1.809   3.172  1.5457  2.5991  1.8007
 7965TIP3    H223860   3.809   1.931   3.188 -1.8721  0.2963  1.7692
 7966TIP3   OH223861   0.112   1.328   0.784  0.1822 -0.3222  0.2569
 7966TIP3    H123862   0.145   1.411   0.751 -1.7569 -0.3567 -2.0176
 7966TIP3    H223863   0.171   1.262   0.749  1.6901  0.0036  2.0176
 7967TIP3   OH223864   4.499   0.438   1.683 -0.4977 -0.5497  0.1040
 7967TIP3    H123865   4.506   0.508   1.619  1.4506 -0.1317  0.7025
 7967TIP3    H223866   4.420   0.457   1.732 -1.1679 -0.0085 -1.1410
 7968TIP3   OH223867   6.544   1.461   4.077 -0.4517 -0.0226  0.1416
 7968TIP3    H123868   6.579   1.383   4.120 -1.6766  0.4877  2.2193
 7968TIP3    H223869   6.449   1.449   4.081 -0.6190  0.2351 -2.1703
 7969TIP3   OH223870   1.853   3.412   2.165 -0.1569 -0.3724  0.5243
 7969TIP3    H123871   1.934   3.405   2.113 -0.2590  1.8905 -0.0592
 7969TIP3    H223872   1.860   3.342   2.229  2.0309 -0.5907  0.1438
 7970TIP3   OH223873   5.161   5.763   3.765 -0.3989  0.4013  0.0085
 7970TIP3    H123874   5.251   5.796   3.773 -0.8845  2.0755 -1.0557
 7970TIP3    H223875   5.124   5.776   3.852 -0.0326  1.0175  0.0793
 7971TIP3   OH223876   2.426   5.711   3.746  0.1322  0.7341  0.4155
 7971TIP3    H123877   2.466   5.784   3.793  0.6752  0.4101  0.4640
 7971TIP3    H223878   2.436   5.636   3.805 -1.4927  0.8540  0.8872
 7972TIP3   OH223879   2.602   0.133   0.982  0.3785  0.3942 -0.8303
 7972TIP3    H123880   2.547   0.201   1.020 -1.4585  0.0252 -2.6598
 7972TIP3    H223881   2.690   0.171   0.981 -0.2408  1.9310  0.0123
 7973TIP3   OH223882   6.267   1.156   0.134  0.1033  0.0318 -0.1890
 7973TIP3    H123883   6.234   1.223   0.194  2.9302 -0.4295  2.1032
 7973TIP3    H223884   6.283   1.080   0.191  2.6253 -0.5530 -1.5668
 7974TIP3   OH223885   6.177   4.108   1.075  0.1649  0.5207  0.2357
 7974TIP3    H123886   6.157   4.185   1.128 -0.3144  0.3053  0.3756
 7974TIP3    H223887   6.094   4.086   1.033  0.3694  0.2580 -0.0364
 7975TIP3   OH223888   6.004   2.731   1.761 -0.2614  0.0830  0.4196
 7975TIP3    H123889   5.977   2.641   1.743  0.9049  0.1834 -2.2791
 7975TIP3    H223890   5.974   2.780   1.685 -0.0638  1.8343  1.4209
 7976TIP3   OH223891   4.934   1.692   2.354  0.6474 -0.1185  0.1416
 7976TIP3    H123892   4.988   1.771   2.360 -0.8018  0.9162  0.1861
 7976TIP3    H223893   4.993   1.625   2.319  2.5244  0.3641  2.1667
 7977TIP3   OH223894   4.662   5.706   4.572 -0.1439  0.6300  0.3131
 7977TIP3    H123895   4.595   5.681   4.635  0.8328 -0.4295  0.9622
 7977TIP3    H223896   4.615   5.759   4.507 -1.3677  0.8815  1.3597
 7978TIP3   OH223897   0.179   6.129   3.616 -0.6484 -0.5995  0.1645
 7978TIP3    H123898   0.185   6.045   3.571 -0.4022 -1.8846  2.4255
 7978TIP3    H223899   0.202   6.194   3.550 -1.0094 -2.2821 -1.7001
 7979TIP3   OH223900   4.868   5.200   3.645  0.0057 -0.1207 -0.4228
 7979TIP3    H123901   4.845   5.231   3.558 -2.4546  1.0074  0.5238
 7979TIP3    H223902   4.785   5.177   3.685  0.8663  0.8562  2.1491
 7980TIP3   OH223903   2.920   6.094   1.712  0.1116 -0.1919 -0.0359
 7980TIP3    H123904   2.825   6.085   1.711  0.1835 -1.3554  1.2104
 7980TIP3    H223905   2.935   6.186   1.731 -0.7616 -0.0359 -0.0647
 7981TIP3   OH223906   0.424   2.159   2.593  0.8646  0.3612 -0.2159
 7981TIP3    H123907   0.382   2.177   2.677  1.0617  0.7100 -0.1888
 7981TIP3    H223908   0.517   2.151   2.614  0.9548  0.7884 -0.4512
 7982TIP3   OH223909   3.261   3.842   4.697  0.3778 -0.5865  1.0007
 7982TIP3    H123910   3.298   3.930   4.687 -0.2783 -0.1506  2.1761
 7982TIP3    H223911   3.315   3.786   4.641 -0.1275  0.8032 -0.9960
 7983TIP3   OH223912   0.435   2.747  -0.015 -0.1088  0.5440 -0.7141
 7983TIP3    H123913   0.520   2.791  -0.016  0.6049 -0.7891 -1.1488
 7983TIP3    H223914   0.433   2.701   0.069  0.4181 -0.9134 -1.4718
 7984TIP3   OH223915   4.713   2.405   5.010 -0.3383 -0.1528  0.1918
 7984TIP3    H123916   4.643   2.462   4.978  0.1472 -0.1998 -1.0084
 7984TIP3    H223917   4.701   2.324   4.960  0.4837 -0.2091  0.0814
 7985TIP3   OH223918   0.462   5.521   3.387 -1.2853  0.5299  0.2752
 7985TIP3    H123919   0.456   5.453   3.454 -2.0283  0.9092  0.6148
 7985TIP3    H223920   0.409   5.489   3.315  1.6685 -1.1513 -1.3505
 7986TIP3   OH223921   2.804   6.348   0.239 -0.2970  0.1362  0.1668
 7986TIP3    H123922   2.779   6.438   0.261  0.9276 -0.1122  2.8883
 7986TIP3    H223923   2.819   6.305   0.323  0.9021 -2.1227 -1.1064
 7987TIP3   OH223924   3.790   2.611   5.409 -0.6433 -0.1374 -0.0256
 7987TIP3    H123925   3.873   2.567   5.390 -1.0307 -1.5742  1.3258
 7987TIP3    H223926   3.745   2.550   5.468 -2.0534  1.2514  0.3805
 7988TIP3   OH223927   7.157   3.642   3.344  0.0954 -1.0308  0.3791
 7988TIP3    H123928   7.138   3.614   3.255  0.8108  2.6209 -1.1097
 7988TIP3    H223929   7.253   3.649   3.348  0.0409 -0.4937  1.1990
 7989TIP3   OH223930   1.347   6.742   4.329 -0.4516  0.2827 -0.1394
 7989TIP3    H123931   1.349   6.804   4.401 -2.3145  0.2649 -0.0215
 7989TIP3    H223932   1.377   6.792   4.253  0.4422  0.6090  0.4201
 7990TIP3   OH223933   2.830   6.296   0.519 -0.1513 -0.0681  0.2390
 7990TIP3    H123934   2.787   6.327   0.599 -0.0240  1.5472 -0.2717
 7990TIP3    H223935   2.850   6.204   0.537 -2.9280 -0.6672  0.8734
 7991TIP3   OH223936   3.793   2.081   4.009 -0.1875  0.5873 -0.1602
 7991TIP3    H123937   3.851   2.005   4.020 -1.2884 -0.1118  1.0260
 7991TIP3    H223938   3.850   2.157   4.024  0.4198 -0.0882  1.0974
 7992TIP3   OH223939   6.207   0.592   1.394 -0.0975  0.5978  0.0611
 7992TIP3    H123940   6.180   0.589   1.486  2.0550  2.3522  0.8615
 7992TIP3    H223941   6.293   0.550   1.394  0.8675  2.4488 -0.6864
 7993TIP3   OH223942   5.635   4.235   1.462 -0.2663  0.0964 -0.0559
 7993TIP3    H123943   5.625   4.229   1.367  1.6870 -0.1608 -0.2984
 7993TIP3    H223944   5.725   4.205   1.478 -0.2161  1.0872  1.7728
 7994TIP3   OH223945   3.198   3.610   3.922 -0.1924  0.0300 -0.1491
 7994TIP3    H123946   3.160   3.697   3.931 -0.0826  0.1135 -0.4840
 7994TIP3    H223947   3.128   3.558   3.882 -0.3735 -0.1207  0.3558
 7995TIP3   OH223948   3.967   3.812   4.311 -0.4312 -0.2345  0.3171
 7995TIP3    H123949   4.059   3.788   4.317 -0.8463 -1.8247  0.7403
 7995TIP3    H223950   3.923   3.755   4.374 -1.7690  0.1290 -0.2501
 7996TIP3   OH223951   5.916   6.427   2.744  0.0520  0.2145 -0.6305
 7996TIP3    H123952   5.880   6.412   2.832  0.3656  0.5422 -0.4467
 7996TIP3    H223953   5.981   6.496   2.755  0.4452 -0.0794 -1.0374
 7997TIP3   OH223954   2.477   1.685   5.752 -0.2893  0.5457  0.1804
 7997TIP3    H123955   2.503   1.637   5.674  0.1701 -0.0849  0.7166
 7997TIP3    H223956   2.418   1.754   5.719  1.3735  1.4855 -0.9583
 7998TIP3   OH223957   7.083   3.080   3.877 -0.1517 -0.1007 -0.1454
 7998TIP3    H123958   7.002   3.128   3.893  0.6369  0.9141  0.9724
 7998TIP3    H223959   7.112   3.109   3.790 -0.1315  0.8234  0.1599
 7999TIP3   OH223960   2.782   6.432   4.114 -0.4677 -0.4187 -0.5680
 7999TIP3    H123961   2.861   6.461   4.158 -1.2560 -0.0815  0.6520
 7999TIP3    H223962   2.814   6.377   4.042  0.8791  0.1366 -0.4161
 8000TIP3   OH223963   2.818   2.145   3.413  0.6135 -0.0807 -0.9243
 8000TIP3    H123964   2.890   2.141   3.349  0.6227  0.3333 -0.9438
 8000TIP3    H223965   2.824   2.062   3.461  0.4232 -0.5242 -1.6531
 8001TIP3   OH223966   3.427   0.620   3.366  0.5700  0.0411  0.5700
 8001TIP3    H123967   3.520   0.616   3.345  0.2390  0.5035 -1.1220
 8001TIP3    H223968   3.401   0.528   3.377  0.8179 -0.2554 -1.0387
 8002TIP3   OH223969   3.284   5.175   0.635 -0.0136  0.1133 -0.1700
 8002TIP3    H123970   3.307   5.099   0.582 -1.3272  0.7562 -1.7590
 8002TIP3    H223971   3.255   5.240   0.572  0.0316  1.5616  1.2403
 8003TIP3   OH223972   5.055   4.972   5.098 -0.7185 -0.1756 -0.8027
 8003TIP3    H123973   5.067   4.951   5.005 -1.5069  0.3849 -1.0428
 8003TIP3    H223974   5.065   5.067   5.102 -0.8815 -0.1777 -0.3401
 8004TIP3   OH223975   3.287   0.435   0.930  0.2431 -0.0275  0.5564
 8004TIP3    H123976   3.335   0.517   0.924  2.2149 -1.1454 -0.1055
 8004TIP3    H223977   3.330   0.386   1.000  0.8189 -1.4995 -0.7667
 8005TIP3   OH223978   5.294   4.575   1.753  0.4042 -0.4452  0.2925
 8005TIP3    H123979   5.239   4.498   1.767 -1.0765  0.3276 -0.9407
 8005TIP3    H223980   5.384   4.543   1.763 -0.2008 -2.1877  0.4349
 8006TIP3   OH223981   2.714   3.253   5.234 -0.0845  0.1968 -0.2954
 8006TIP3    H123982   2.622   3.265   5.209 -0.4628 -2.1162 -0.1911
 8006TIP3    H223983   2.747   3.342   5.246 -1.6202  1.1925 -2.7484
 8007TIP3   OH223984   4.021   1.536   4.203 -0.5799 -0.0168 -0.1248
 8007TIP3    H123985   3.975   1.455   4.225  0.1103 -0.5329 -0.5394
 8007TIP3    H223986   3.970   1.574   4.132 -0.5021 -0.4750 -0.4349
 8008TIP3   OH223987   4.680   6.012   0.753  0.1306 -0.2008  0.3661
 8008TIP3    H123988   4.766   5.971   0.745  1.5321  2.2929  1.2884
 8008TIP3    H223989   4.692   6.080   0.820 -3.4873 -1.8932  3.0420
 8009TIP3   OH223990   6.375   4.060   4.565 -0.1320  0.2289  0.4925
 8009TIP3    H123991   6.280   4.071   4.568 -0.2034 -0.1451 -0.1311
 8009TIP3    H223992   6.388   3.968   4.541  0.3751  0.5001 -0.3180
 8010TIP3   OH223993   6.735   4.216   2.946  0.1310 -0.3697  0.0383
 8010TIP3    H123994   6.699   4.239   2.861 -0.9177 -0.9255  0.3161
 8010TIP3    H223995   6.824   4.185   2.927 -0.4477 -1.4571 -0.9655
 8011TIP3   OH223996   0.386   1.813   1.491  0.3080  0.2621  0.0552
 8011TIP3    H123997   0.433   1.778   1.415 -2.5212 -0.2600 -1.6092
 8011TIP3    H223998   0.384   1.908   1.477  2.3499  0.5230  1.1389
 8012TIP3   OH223999   4.922   6.734   0.500 -0.1469 -0.2496  0.0906
 8012TIP3    H124000   4.906   6.640   0.491 -1.4898 -0.1267  0.9216
 8012TIP3    H224001   4.893   6.771   0.416  0.1727 -0.5511 -0.1536
 8013TIP3   OH224002   5.663   1.748   4.881  0.1121  0.3901  0.2237
 8013TIP3    H124003   5.587   1.762   4.824 -0.3727  0.1590  0.7962
 8013TIP3    H224004   5.676   1.833   4.924  0.2578  0.4669  0.0261
 8014TIP3   OH224005   0.280   1.744   3.889 -0.4745  0.4422 -0.3571
 8014TIP3    H124006   0.207   1.754   3.951 -1.5495  1.8409 -1.7723
 8014TIP3    H224007   0.357   1.736   3.945 -1.6293 -0.6480  1.1878
 8015TIP3   OH224008   3.962   4.566   2.654 -0.3556  0.0558 -0.1526
 8015TIP3    H124009   3.964   4.649   2.701  0.1984 -1.0219  1.8431
 8015TIP3    H224010   3.869   4.548   2.640 -0.5392  0.3186  0.6999
 8016TIP3   OH224011   3.729   1.250   5.875  0.2430 -0.1977 -0.0290
 8016TIP3    H124012   3.715   1.341   5.847 -1.4896  0.0082  1.3379
 8016TIP3    H224013   3.687   1.197   5.808  1.5500 -0.0460 -1.0086
 8017TIP3   OH224014   6.211   0.792   2.910 -0.4332 -0.1510 -0.6042
 8017TIP3    H124015   6.174   0.772   2.996  1.6852  3.0027  1.2506
 8017TIP3    H224016   6.162   0.869   2.880 -0.1368 -0.2983 -1.5193
 8018TIP3   OH224017   3.912   6.326   3.043  0.3060  0.3464 -0.2835
 8018TIP3    H124018   3.832   6.371   3.071  1.0492  0.9021  1.0080
 8018TIP3    H224019   3.909   6.331   2.947 -0.8767  0.9389 -0.2363
 8019TIP3   OH224020   0.593   0.787   3.680  0.0344  0.0054  0.2314
 8019TIP3    H124021   0.501   0.807   3.694 -0.0431  0.6174 -0.9706
 8019TIP3    H224022   0.593   0.729   3.603  0.6396 -0.0691  0.2856
 8020TIP3   OH224023   1.362   2.157   3.845 -0.0865 -0.1707  0.4234
 8020TIP3    H124024   1.454   2.151   3.819 -0.2495  1.2068 -0.6324
 8020TIP3    H224025   1.364   2.206   3.928  0.1363 -0.0677  0.3600
 8021TIP3   OH224026   0.835   4.768   0.056 -0.2477 -0.6548  0.1380
 8021TIP3    H124027   0.773   4.799   0.123 -0.1434  0.0846 -0.0884
 8021TIP3    H224028   0.919   4.807   0.081 -0.0885 -0.8333 -0.1133
 8022TIP3   OH224029   0.179   2.484   5.755 -0.6748  0.6904  0.5584
 8022TIP3    H124030   0.209   2.513   5.841  0.9604  0.5724  0.0532
 8022TIP3    H224031   0.252   2.501   5.696 -0.7697 -1.6436 -0.3463
 8023TIP3   OH224032   2.389   3.311   2.089  0.4209 -0.0282 -0.7579
 8023TIP3    H124033   2.378   3.300   2.183 -1.4040  0.0567 -0.9343
 8023TIP3    H224034   2.476   3.275   2.070 -0.1724 -2.2995  0.5838
 8024TIP3   OH224035   3.761   4.418   3.106  0.0129 -0.0427 -0.4613
 8024TIP3    H124036   3.794   4.355   3.042  0.5926  1.1664 -1.3893
 8024TIP3    H224037   3.818   4.406   3.182  1.3051  0.5844 -1.2978
 8025TIP3   OH224038   0.177   5.142   1.335  0.2112  0.3063  0.1182
 8025TIP3    H124039   0.184   5.056   1.377  1.7497  0.0369 -0.6389
 8025TIP3    H224040   0.163   5.124   1.243  1.6949  0.8375 -0.2340
 8026TIP3   OH224041   3.175   5.666   2.174  0.1586 -0.1465 -0.6327
 8026TIP3    H124042   3.115   5.728   2.215 -0.4302 -1.0095 -0.1542
 8026TIP3    H224043   3.243   5.720   2.135 -1.0124  0.8565 -1.3178
 8027TIP3   OH224044   5.499   6.400   1.049 -0.2166 -0.7947 -0.0152
 8027TIP3    H124045   5.518   6.459   0.976  1.3390 -0.5269  0.5597
 8027TIP3    H224046   5.405   6.384   1.044 -0.4599  0.7619 -0.9145
 8028TIP3   OH224047   1.947   5.907   1.164  0.0394  0.3158  0.0079
 8028TIP3    H124048   1.884   5.836   1.152 -1.0285  1.2009  0.2654
 8028TIP3    H224049   1.899   5.974   1.213  1.7903  0.1917  2.0470
 8029TIP3   OH224050   7.080   4.169   3.137 -0.2446  0.3417 -0.5926
 8029TIP3    H124051   7.039   4.184   3.052  2.2021 -1.3547 -2.2080
 8029TIP3    H224052   7.174   4.161   3.118  0.7801  2.5171  2.6714
 8030TIP3   OH224053   4.883   1.824   3.381  0.1046 -0.4907  0.4408
 8030TIP3    H124054   4.931   1.844   3.301  0.6856  1.8025  1.3038
 8030TIP3    H224055   4.940   1.765   3.430  1.4300  1.0474  0.7972
 8031TIP3   OH224056   2.670   1.353   2.162  0.5467  0.2599  0.6482
 8031TIP3    H124057   2.687   1.349   2.067 -0.9971 -0.3432  0.3675
 8031TIP3    H224058   2.669   1.446   2.182 -0.5450  0.4594 -0.2334
 8032TIP3   OH224059   6.167   3.989   1.680  0.2726  0.2427 -0.4292
 8032TIP3    H124060   6.186   3.895   1.678 -1.1286 -0.0746 -2.3336
 8032TIP3    H224061   6.101   3.999   1.749 -1.0466 -0.5685 -1.4986
 8033TIP3   OH224062   3.564   3.583   2.539 -0.1616  0.2655 -0.0293
 8033TIP3    H124063   3.506   3.550   2.608  0.6833 -3.0057 -0.7306
 8033TIP3    H224064   3.531   3.672   2.521 -2.5551 -0.0555  2.1646
 8034TIP3   OH224065   5.111   1.749   4.370 -0.1483 -0.4809 -0.3144
 8034TIP3    H124066   5.117   1.766   4.276  0.2720 -1.2445 -0.4371
 8034TIP3    H224067   5.134   1.656   4.378  0.8199 -0.1695  0.6435
 8035TIP3   OH224068   3.713   4.374   3.806  0.0244 -0.5357 -0.4652
 8035TIP3    H124069   3.785   4.323   3.843  0.8621 -0.0239 -1.3226
 8035TIP3    H224070   3.698   4.335   3.720 -0.8685 -0.7564 -0.2211
 8036TIP3   OH224071   4.134   5.391   3.504  0.1836 -0.0995  0.0877
 8036TIP3    H124072   4.135   5.435   3.588 -0.8226 -0.9129  0.5497
 8036TIP3    H224073   4.043   5.394   3.475  0.1772 -1.3720 -0.1120
 8037TIP3   OH224074   2.147   3.952   2.295  0.1651 -0.0133  0.4600
 8037TIP3    H124075   2.118   3.869   2.256  1.9624 -0.2741 -0.4646
 8037TIP3    H224076   2.077   4.014   2.275 -0.8085 -1.0959  0.3950
 8038TIP3   OH224077   6.942   0.860   4.420  0.2654  0.6174 -0.7001
 8038TIP3    H124078   6.988   0.835   4.340  1.0987 -0.1491 -0.0069
 8038TIP3    H224079   6.991   0.935   4.453 -0.6206  1.5072 -1.3664
 8039TIP3   OH224080   3.585   5.084   3.595  0.2999  0.0795 -0.1237
 8039TIP3    H124081   3.625   5.029   3.528  0.5718  0.7266 -0.4958
 8039TIP3    H224082   3.491   5.080   3.576  0.0786 -1.8707  1.0676
 8040TIP3   OH224083   5.895   1.267   5.545  0.1220 -0.3620 -0.1984
 8040TIP3    H124084   5.965   1.332   5.537  0.8310 -1.1418 -0.4268
 8040TIP3    H224085   5.933   1.196   5.596 -0.5117 -0.7826 -0.2929
 8041TIP3   OH224086   1.945   4.801   3.911  0.4185 -0.1175 -0.1138
 8041TIP3    H124087   1.950   4.777   3.819  1.0056 -0.0579 -0.0969
 8041TIP3    H224088   1.971   4.722   3.959  0.8376  0.0729 -0.0214
 8042TIP3   OH224089   4.371   4.577   1.741  0.2532  0.4382 -0.0682
 8042TIP3    H124090   4.434   4.639   1.704  1.0983 -0.3641 -0.0104
 8042TIP3    H224091   4.306   4.564   1.672 -0.0706  1.5593  0.0085
 8043TIP3   OH224092   0.221   1.782   0.585  0.4551  0.3722 -0.1497
 8043TIP3    H124093   0.167   1.727   0.641 -1.4926  1.1149 -1.2152
 8043TIP3    H224094   0.253   1.723   0.517  0.6259  0.0175  0.2322
 8044TIP3   OH224095   0.448   6.329   1.846 -0.0404  0.0581 -1.0974
 8044TIP3    H124096   0.460   6.414   1.888  2.6499  0.0656 -1.7018
 8044TIP3    H224097   0.448   6.266   1.919 -1.5990  0.4894 -0.6855
 8045TIP3   OH224098   1.712   1.377   2.231  0.0998 -0.1286 -0.2315
 8045TIP3    H124099   1.759   1.381   2.148  1.3546  0.1245  0.4762
 8045TIP3    H224100   1.767   1.425   2.292 -1.5373  0.9822  0.4230
 8046TIP3   OH224101   0.323   1.741   2.102  0.2459 -0.0601 -0.1176
 8046TIP3    H124102   0.396   1.795   2.132 -0.0727  0.0865  0.4145
 8046TIP3    H224103   0.364   1.674   2.048  0.7924 -0.0619  0.2860
 8047TIP3   OH224104   3.813   1.777   1.348 -0.1392  0.0767 -0.7426
 8047TIP3    H124105   3.861   1.856   1.322  0.2335  0.2256  0.3528
 8047TIP3    H224106   3.882   1.713   1.368 -0.4036 -0.0049 -0.0681
 8048TIP3   OH224107   1.020   1.722   0.344  0.4645  0.1140 -0.2987
 8048TIP3    H124108   1.096   1.774   0.318  1.0921 -0.3955  0.4782
 8048TIP3    H224109   1.025   1.644   0.289  0.3694  0.1862 -0.4105
 8049TIP3   OH224110   1.785   1.856   4.339  0.5811  0.1770  0.0145
 8049TIP3    H124111   1.847   1.795   4.298  2.1127  1.1218  0.8465
 8049TIP3    H224112   1.829   1.942   4.333 -1.5787  1.2765 -1.2855
 8050TIP3   OH224113   2.893   1.108   5.614 -0.3180  0.0585 -0.4936
 8050TIP3    H124114   2.905   1.166   5.539 -0.0549 -0.1411 -0.6063
 8050TIP3    H224115   2.967   1.048   5.611 -0.9851 -0.7799 -0.8187
 8051TIP3   OH224116   1.723   5.193   2.969 -0.1466 -0.1713 -0.4090
 8051TIP3    H124117   1.807   5.165   3.005  1.2571 -0.1799 -3.4172
 8051TIP3    H224118   1.732   5.288   2.960 -0.6479 -0.1132 -0.3073
 8052TIP3   OH224119   5.498   1.004   3.763  0.1302 -0.1775  0.6254
 8052TIP3    H124120   5.517   1.034   3.852 -0.7467 -1.8179  1.4083
 8052TIP3    H224121   5.427   1.061   3.733  0.9180  0.8599  0.6629
 8053TIP3   OH224122   4.468   2.276   2.255 -0.3690  0.0985  0.0902
 8053TIP3    H124123   4.413   2.199   2.274  1.4932 -1.1866  0.5060
 8053TIP3    H224124   4.451   2.336   2.327 -0.5968 -0.6473  0.6734
 8054TIP3   OH224125   3.044   0.499   4.050  0.8760  0.6019  0.3924
 8054TIP3    H124126   3.021   0.406   4.043  1.9799  0.2960  0.5960
 8054TIP3    H224127   3.033   0.519   4.143  0.8094  0.6312  0.3783
 8055TIP3   OH224128   5.345   6.153   0.879 -0.3164 -0.7041 -0.3237
 8055TIP3    H124129   5.424   6.108   0.910 -1.1469 -2.6999 -0.9178
 8055TIP3    H224130   5.293   6.168   0.958  1.1082  1.6948  0.2359
 8056TIP3   OH224131   6.761   5.167   5.583  0.1004 -0.2645  0.1797
 8056TIP3    H124132   6.667   5.188   5.579 -0.1237 -0.7503  2.1690
 8056TIP3    H224133   6.769   5.085   5.535 -0.7781 -1.0695  1.3708
 8057TIP3   OH224134   5.421   4.245   5.130  0.0051  0.3594 -0.2260
 8057TIP3    H124135   5.385   4.224   5.044 -1.3046 -0.7234  0.5494
 8057TIP3    H224136   5.363   4.313   5.165  1.1285  1.5456 -0.5758
 8058TIP3   OH224137   3.331   1.680   3.954 -0.4873  0.0509  0.2340
 8058TIP3    H124138   3.250   1.670   3.903 -2.0033  2.2884  2.0499
 8058TIP3    H224139   3.347   1.774   3.957  0.4931 -0.1237  2.4721
 8059TIP3   OH224140   4.319   1.222   0.350  0.0093 -0.3494 -0.2311
 8059TIP3    H124141   4.252   1.154   0.340 -0.1020 -0.2197 -0.3780
 8059TIP3    H224142   4.394   1.188   0.301  0.0784 -0.5275 -0.0075
 8060TIP3   OH224143   0.606   5.947   3.600  0.0985 -0.0617  0.0402
 8060TIP3    H124144   0.678   5.928   3.660 -0.4936  0.7464  1.0512
 8060TIP3    H224145   0.546   5.872   3.609  1.1982 -1.1722 -1.4739
 8061TIP3   OH224146   1.262   4.405   5.354 -0.3460  0.1770  0.3445
 8061TIP3    H124147   1.288   4.316   5.379 -1.5730 -0.1368  0.6001
 8061TIP3    H224148   1.214   4.393   5.272  1.2460  0.8698 -0.7215
 8062TIP3   OH224149   5.826   0.460   4.282 -0.2334  0.1789  0.1061
 8062TIP3    H124150   5.871   0.488   4.202  0.3189 -1.3135 -0.1334
 8062TIP3    H224151   5.891   0.408   4.329 -1.1106 -0.4177  0.6879
 8063TIP3   OH224152   3.962   1.032   3.912  0.6047 -0.1321 -0.2410
 8063TIP3    H124153   4.007   1.017   3.995  1.7968  2.1949 -0.3845
 8063TIP3    H224154   3.874   1.062   3.937  0.2008 -1.5333  0.1020
 8064TIP3   OH224155   0.416   0.249   4.785 -0.0772 -0.0465 -0.4955
 8064TIP3    H124156   0.419   0.302   4.864  3.5761  0.7935 -1.0228
 8064TIP3    H224157   0.441   0.161   4.813 -2.7528 -0.8072 -0.1906
 8065TIP3   OH224158   0.507   4.612   0.337  0.2038 -0.0685 -0.4439
 8065TIP3    H124159   0.545   4.608   0.249 -1.2358  1.3129 -1.1791
 8065TIP3    H224160   0.477   4.522   0.354 -3.0239  0.2766 -3.0966
 8066TIP3   OH224161   6.106   2.984   2.664  0.0933 -0.4266  0.7538
 8066TIP3    H124162   6.031   2.996   2.723  0.0017 -0.0286  0.5567
 8066TIP3    H224163   6.105   3.062   2.609  1.0920 -0.0600  1.2414
 8067TIP3   OH224164   1.511   4.280   5.735 -0.3857  0.2871 -0.1841
 8067TIP3    H124165   1.527   4.370   5.707 -3.0363  0.3422 -1.7822
 8067TIP3    H224166   1.417   4.275   5.750 -0.3909 -2.3686 -0.6534
 8068TIP3   OH224167   0.358   4.741   0.693 -0.3567  0.3935 -0.4396
 8068TIP3    H124168   0.297   4.729   0.620 -0.9826  0.6079  0.0418
 8068TIP3    H224169   0.430   4.681   0.674 -0.6708  0.2031 -1.0628
 8069TIP3   OH224170   2.061   3.973   3.597 -0.1861 -0.4076  0.0532
 8069TIP3    H124171   1.996   3.992   3.530 -1.7722 -0.4047  1.5065
 8069TIP3    H224172   2.073   3.878   3.592  0.7019 -0.2590 -1.0588
 8070TIP3   OH224173   4.770   1.815   4.737 -0.0977 -0.1421  0.4856
 8070TIP3    H124174   4.838   1.799   4.673 -0.4638 -2.1045  0.5193
 8070TIP3    H224175   4.814   1.861   4.809  0.6321  0.7314 -0.5049
 8071TIP3   OH224176   6.668   0.292   0.881 -0.2385 -0.0190 -0.0883
 8071TIP3    H124177   6.703   0.243   0.956  1.5295  0.9433 -0.2161
 8071TIP3    H224178   6.579   0.317   0.908 -0.5235 -1.7352  0.6836
 8072TIP3   OH224179   5.917   0.060   3.222 -0.6398  0.3707  0.5284
 8072TIP3    H124180   5.883  -0.028   3.205  1.9813 -0.9229  1.4157
 8072TIP3    H224181   5.873   0.087   3.303 -1.2229 -0.2538  0.4251
 8073TIP3   OH224182   4.625   4.979   3.403  0.1363  0.0270  0.4327
 8073TIP3    H124183   4.579   4.936   3.476 -2.6134 -0.8631 -1.6399
 8073TIP3    H224184   4.654   4.907   3.348 -1.2264  0.6655 -1.2113
 8074TIP3   OH224185   5.359   2.179   0.859  0.0302  0.3098  0.5258
 8074TIP3    H124186   5.329   2.257   0.812 -1.8979 -0.6572  0.0571
 8074TIP3    H224187   5.294   2.112   0.840  0.8854 -1.0501  2.0421
 8075TIP3   OH224188   0.999   6.772   5.901  0.1753 -0.6392  0.3313
 8075TIP3    H124189   0.966   6.798   5.815 -0.8840 -0.2508  0.8371
 8075TIP3    H224190   1.077   6.825   5.914  1.1900 -1.7148 -0.9753
 8076TIP3   OH224191   2.521   0.527   5.244 -0.1399  0.2549  0.2341
 8076TIP3    H124192   2.460   0.502   5.174 -1.0773  2.7805  0.0380
 8076TIP3    H224193   2.467   0.530   5.323  0.2439  0.3013  0.4955
 8077TIP3   OH224194   6.971   2.951   4.624 -0.1298  0.0510  0.2406
 8077TIP3    H124195   7.042   2.973   4.564 -0.3526  2.7511  0.8302
 8077TIP3    H224196   7.003   2.977   4.710 -0.4893 -2.1371  1.1011
 8078TIP3   OH224197   5.082   4.132   3.536  0.1704 -0.0035  0.2443
 8078TIP3    H124198   5.008   4.192   3.540  0.3041  0.1547  0.3521
 8078TIP3    H224199   5.140   4.170   3.470  0.4001  0.1498  0.5354
 8079TIP3   OH224200   5.753   0.530   2.031 -0.2358  0.4451  0.2182
 8079TIP3    H124201   5.681   0.566   1.980 -0.3222 -2.1364 -1.6675
 8079TIP3    H224202   5.739   0.435   2.029  2.0984 -0.0024  1.5116
 8080TIP3   OH224203   1.327   0.711   0.439 -0.2577 -0.3403 -0.2011
 8080TIP3    H124204   1.366   0.650   0.502  0.5763  0.1713 -0.2151
 8080TIP3    H224205   1.243   0.671   0.417 -0.5335 -0.5704  1.1729
 8081TIP3   OH224206   1.989   4.618   4.411 -0.0230 -0.3951  0.2230
 8081TIP3    H124207   1.906   4.575   4.388 -0.4515  0.8176 -0.5858
 8081TIP3    H224208   1.992   4.696   4.356  1.2398  0.0623  0.8939
 8082TIP3   OH224209   0.732   1.298   0.832 -0.1653  0.5843 -0.6823
 8082TIP3    H124210   0.769   1.224   0.783  0.2251 -0.7226  1.4513
 8082TIP3    H224211   0.809   1.349   0.858  0.1933 -1.2279  2.3283
 8083TIP3   OH224212   5.100   1.432   0.477  0.1648 -0.2744 -0.0899
 8083TIP3    H124213   5.083   1.525   0.490  3.7513  0.4186  0.6218
 8083TIP3    H224214   5.019   1.398   0.438 -1.5121  2.9423  0.2375
 8084TIP3   OH224215   4.587   0.281   4.158  0.1977 -0.1642  0.6411
 8084TIP3    H124216   4.569   0.190   4.135  0.6904 -0.2471  0.5690
 8084TIP3    H224217   4.609   0.277   4.251  0.1200 -0.1019  0.6627
 8085TIP3   OH224218   3.433   1.823   1.496 -0.1559  0.1337  0.9853
 8085TIP3    H124219   3.430   1.771   1.416  0.6535  1.6466 -0.0590
 8085TIP3    H224220   3.526   1.837   1.513 -0.3280  0.2190  1.9489
 8086TIP3   OH224221   1.193   5.401   5.818  0.2491  0.4436 -0.5790
 8086TIP3    H124222   1.264   5.357   5.865  0.8838  1.1492 -0.8572
 8086TIP3    H224223   1.128   5.332   5.802  0.7685 -0.1625 -0.1311
 8087TIP3   OH224224   0.479   1.434   2.637 -0.1624 -0.6535 -0.4453
 8087TIP3    H124225   0.536   1.360   2.618  1.2271  0.8944 -2.8609
 8087TIP3    H224226   0.415   1.399   2.699  1.1860 -3.4807 -0.4591
 8088TIP3   OH224227   1.125   4.087   5.524  0.4231 -0.0126 -0.0835
 8088TIP3    H124228   1.052   4.132   5.481  1.7244 -0.0066 -2.4520
 8088TIP3    H224229   1.202   4.136   5.497  1.4271 -0.6129  1.5605
 8089TIP3   OH224230   3.892   1.969   5.481  0.5499 -0.1711  0.1243
 8089TIP3    H124231   3.967   1.920   5.515  0.7993  0.0385 -0.1156
 8089TIP3    H224232   3.931   2.033   5.421  0.0907 -0.7974 -0.8690
 8090TIP3   OH224233   5.655   4.213   3.621  0.1343  0.1423 -0.3887
 8090TIP3    H124234   5.748   4.233   3.614 -0.2435  2.1763 -0.2570
 8090TIP3    H224235   5.612   4.276   3.563 -1.2246 -0.0808  0.3225
 8091TIP3   OH224236   2.921   6.038   0.573  0.4495 -0.2363  0.7541
 8091TIP3    H124237   2.922   5.943   0.562 -0.5649 -0.3986  1.8641
 8091TIP3    H224238   3.010   6.058   0.605  0.3852 -0.9545  1.4378
 8092TIP3   OH224239   3.818   3.159   3.688 -0.0753 -0.3050  0.0891
 8092TIP3    H124240   3.772   3.196   3.763  1.1991 -0.0361  0.7588
 8092TIP3    H224241   3.911   3.175   3.705  0.2307  0.2790 -1.8209
 8093TIP3   OH224242   5.409   5.103   3.197 -0.0146  0.4493 -0.0422
 8093TIP3    H124243   5.350   5.079   3.125  1.4298 -1.4287 -0.6485
 8093TIP3    H224244   5.404   5.030   3.258  0.0435  1.2865  0.9979
 8094TIP3   OH224245   3.893   4.795   2.168  0.4724  0.6394  0.2011
 8094TIP3    H124246   3.879   4.703   2.189 -1.2430  0.8234 -0.0047
 8094TIP3    H224247   3.988   4.803   2.159  0.6423 -1.1496  0.0114
 8095TIP3   OH224248   2.893   5.258   0.477  0.6326  0.1853  0.0888
 8095TIP3    H124249   2.801   5.247   0.456  0.0491  0.1792  2.3557
 8095TIP3    H224250   2.914   5.348   0.451 -0.1646  0.3546  0.0231
 8096TIP3   OH224251   6.642   4.294   2.347  0.1810  0.4004 -0.2202
 8096TIP3    H124252   6.567   4.334   2.304 -0.8812 -0.2004  1.0046
 8096TIP3    H224253   6.695   4.367   2.378  0.0885  0.8274 -1.0485
 8097TIP3   OH224254   4.946   6.490   0.784  0.4240  0.4527 -0.5497
 8097TIP3    H124255   4.895   6.569   0.803 -1.9446 -1.1959  0.3208
 8097TIP3    H224256   5.027   6.524   0.745  0.1679  3.3836  1.1237
 8098TIP3   OH224257   2.735   0.507   3.554 -0.1752 -0.1784  0.1735
 8098TIP3    H124258   2.659   0.537   3.604  0.2676 -0.0246  0.7684
 8098TIP3    H224259   2.701   0.437   3.499 -0.8472  0.1971  0.0888
 8099TIP3   OH224260   3.351   0.986   1.857  0.3802  0.1973 -0.3195
 8099TIP3    H124261   3.439   1.004   1.890  0.6348  0.7819 -1.2647
 8099TIP3    H224262   3.335   1.055   1.793 -1.1128  0.5890  0.4385
 8100TIP3   OH224263   6.424   6.315   1.267 -0.2945  0.3296  0.2997
 8100TIP3    H124264   6.462   6.401   1.247 -0.8751  0.6680  0.6167
 8100TIP3    H224265   6.335   6.335   1.296  0.5746 -0.0771  3.5784
 8101TIP3   OH224266   2.264   5.310   3.268 -0.0041  0.4135  0.1962
 8101TIP3    H124267   2.324   5.293   3.196  1.4082 -0.7883  1.5938
 8101TIP3    H224268   2.249   5.225   3.308 -2.3059  0.7541  0.2013
 8102TIP3   OH224269   2.420   3.528   1.395  0.0452 -0.0639  0.0728
 8102TIP3    H124270   2.453   3.467   1.329 -1.5715  0.7133 -1.5396
 8102TIP3    H224271   2.494   3.586   1.413  1.2421 -1.7322  0.7673
 8103TIP3   OH224272   0.881   2.039   4.792 -0.6667  0.1432  0.4373
 8103TIP3    H124273   0.856   2.050   4.884 -0.8572 -1.3575  0.5882
 8103TIP3    H224274   0.890   2.129   4.759 -1.8309  0.7197  1.5756
 8104TIP3   OH224275   4.519   0.879   3.158  0.0294 -0.7551  0.5670
 8104TIP3    H124276   4.516   0.961   3.108  1.2552 -0.1802  1.3818
 8104TIP3    H224277   4.519   0.811   3.091 -0.0008 -0.0622 -0.1633
 8105TIP3   OH224278   5.085   5.097   3.937  0.1702  0.0033  0.8426
 8105TIP3    H124279   5.000   5.054   3.936 -0.3727  1.0203 -0.5913
 8105TIP3    H224280   5.128   5.067   3.857  1.0927 -0.3467  1.4541
 8106TIP3   OH224281   2.415   5.957   4.047 -0.6698 -0.6418 -0.0302
 8106TIP3    H124282   2.405   5.928   4.138  0.2855 -1.5431 -0.1926
 8106TIP3    H224283   2.449   6.046   4.054  1.1410 -1.3305  0.5353
 8107TIP3   OH224284   1.615   1.867   4.119  0.2915  0.0862  0.3450
 8107TIP3    H124285   1.633   1.858   4.213 -0.6527 -0.3506  0.4974
 8107TIP3    H224286   1.549   1.935   4.114  0.0942 -0.1272  0.0302
 8108TIP3   OH224287   4.284   6.458   5.188  0.8030  0.5083 -0.0812
 8108TIP3    H124288   4.341   6.467   5.264  0.5475  1.1757  0.0361
 8108TIP3    H224289   4.199   6.434   5.225  0.6013  1.1342 -0.1231
 8109TIP3   OH224290   2.867   1.160   4.218 -0.3484 -0.0013  0.2817
 8109TIP3    H124291   2.909   1.178   4.134  0.4980 -0.7439  0.5256
 8109TIP3    H224292   2.940   1.156   4.280 -1.0035  1.0305  1.1574
 8110TIP3   OH224293   2.098   4.791   5.239  0.0590 -0.0235  0.0266
 8110TIP3    H124294   2.135   4.709   5.272 -1.4826 -0.1251  1.6552
 8110TIP3    H224295   2.070   4.771   5.150 -1.5451 -1.7187  0.8588
 8111TIP3   OH224296   2.965   0.879   5.055 -0.2202 -0.2791 -0.2317
 8111TIP3    H124297   2.871   0.867   5.063 -0.2154  0.3543  0.9502
 8111TIP3    H224298   3.002   0.828   5.128  0.5167 -2.2253 -1.8645
 8112TIP3   OH224299   0.445   0.995   2.153 -0.1024  0.5430 -0.0626
 8112TIP3    H124300   0.354   0.975   2.132 -0.6330  1.2813  1.3972
 8112TIP3    H224301   0.466   1.072   2.100 -0.3874  0.4769 -0.2730
 8113TIP3   OH224302   1.645   0.867   4.843 -0.0704 -0.3380  0.0077
 8113TIP3    H124303   1.628   0.859   4.937  2.3803 -0.7968  0.5017
 8113TIP3    H224304   1.711   0.936   4.837 -0.4844 -0.0361 -1.4318
 8114TIP3   OH224305   1.946   0.456   0.966  0.5450  0.4948 -0.0346
 8114TIP3    H124306   2.015   0.404   1.006  0.5088  1.3656  1.2272
 8114TIP3    H224307   1.991   0.521   0.913  0.6616  0.5124  0.0873
 8115TIP3   OH224308   7.118   3.070   5.300  0.0014  0.1715 -0.4056
 8115TIP3    H124309   7.076   3.009   5.240  1.0600 -1.2003  0.1754
 8115TIP3    H224310   7.068   3.061   5.382 -1.1284  1.6661 -0.8901
 8116TIP3   OH224311  -0.005   1.023   5.563 -0.4147 -0.2901  0.0058
 8116TIP3    H124312   0.036   1.108   5.547 -2.4811  0.6149 -0.7661
 8116TIP3    H224313   0.063   0.960   5.541  1.0147  1.1313  0.1233
 8117TIP3   OH224314   3.756   3.004   4.843 -0.3518  0.2858  0.1851
 8117TIP3    H124315   3.818   3.062   4.888 -1.1364 -0.1780  1.9795
 8117TIP3    H224316   3.671   3.046   4.855 -1.0329 -1.4000  2.0399
 8118TIP3   OH224317   1.953   0.092   4.939 -0.2011  0.1037  0.5824
 8118TIP3    H124318   1.895   0.021   4.913 -3.2829  2.6053 -0.0359
 8118TIP3    H224319   1.991   0.124   4.857 -0.2511  0.3027  0.6357
 8119TIP3   OH224320   5.987   3.821   1.278 -0.8705  0.6765  0.5557
 8119TIP3    H124321   5.900   3.805   1.315 -2.2039  2.5643 -1.5170
 8119TIP3    H224322   5.975   3.811   1.184  1.3131  0.4620  0.2533
 8120TIP3   OH224323   0.037   6.592   3.787  0.6772  0.3410 -0.3778
 8120TIP3    H124324  -0.049   6.570   3.823  0.0057 -0.1523 -2.1441
 8120TIP3    H224325   0.035   6.688   3.779  1.2965  0.5848  1.8673
 8121TIP3   OH224326   2.443   1.627   1.975  0.3818  0.1501  0.1732
 8121TIP3    H124327   2.374   1.681   1.936  0.0567 -2.2754 -2.9697
 8121TIP3    H224328   2.523   1.658   1.933  0.1718 -1.7430 -1.7855
 8122TIP3   OH224329   4.077   5.112   3.885  0.3461  0.0793  0.4197
 8122TIP3    H124330   4.146   5.175   3.907 -0.7809  0.9354  1.6194
 8122TIP3    H224331   4.037   5.088   3.968 -2.2481  1.3188 -0.3358
 8123TIP3   OH224332   2.306   1.038   4.822 -0.4932  0.4068 -0.2331
 8123TIP3    H124333   2.307   1.133   4.835  1.4383  0.6709 -1.8275
 8123TIP3    H224334   2.256   1.026   4.742 -0.2770  0.1299 -0.3271
 8124TIP3   OH224335   3.521   5.796   0.843 -0.6981  0.4916 -0.5698
 8124TIP3    H124336   3.596   5.738   0.856  0.3058  1.6769 -0.9411
 8124TIP3    H224337   3.453   5.760   0.900 -0.1957 -1.1895 -0.9683
 8125TIP3   OH224338   0.231   1.326   0.234  0.1630  0.2592 -0.9366
 8125TIP3    H124339   0.276   1.317   0.318 -0.9826  0.8561 -0.2266
 8125TIP3    H224340   0.227   1.238   0.199  0.0218 -0.1178 -0.0124
 8126TIP3   OH224341   7.053   3.546   4.139  0.2573 -0.1478  0.4859
 8126TIP3    H124342   7.046   3.622   4.081  0.9778  0.6867  1.4378
 8126TIP3    H224343   6.968   3.542   4.183  0.1874  0.0539  0.3713
 8127TIP3   OH224344   5.374   5.057   4.510 -0.1867 -0.5726  0.2204
 8127TIP3    H124345   5.417   5.029   4.591 -1.0524  0.5363  1.0994
 8127TIP3    H224346   5.287   5.087   4.537 -1.1448 -1.7258 -1.3585
 8128TIP3   OH224347   7.217   1.698   3.274 -0.2014 -0.3961 -0.0192
 8128TIP3    H124348   7.243   1.774   3.223  0.8776 -0.0966  0.9265
 8128TIP3    H224349   7.135   1.724   3.317 -0.4509 -0.1972 -0.6158
 8129TIP3   OH224350   0.767   3.806   5.898  0.0861  0.7329  0.6746
 8129TIP3    H124351   0.773   3.738   5.830 -2.1025  0.2485  0.9007
 8129TIP3    H224352   0.858   3.835   5.910  0.7632 -0.3970 -1.1914
 8130TIP3   OH224353   0.628   3.539   4.739 -0.2826  1.0044 -0.2049
 8130TIP3    H124354   0.589   3.612   4.691 -0.2573  0.4419 -1.1036
 8130TIP3    H224355   0.663   3.481   4.671 -0.6829 -0.0633  0.4701
 8131TIP3   OH224356   3.765   1.448   0.562 -0.2808 -0.6090  0.2036
 8131TIP3    H124357   3.780   1.360   0.596 -2.2938 -0.5014  1.5747
 8131TIP3    H224358   3.816   1.505   0.618 -0.7122 -0.7489  0.7540
 8132TIP3   OH224359   7.159   6.279   3.301  0.1325 -0.3417  0.1192
 8132TIP3    H124360   7.198   6.330   3.372 -2.8508  1.7667  0.4381
 8132TIP3    H224361   7.129   6.198   3.342  1.2145 -0.5545  0.5256
 8133TIP3   OH224362   3.360   1.861   3.360 -0.2557 -0.2516  0.7169
 8133TIP3    H124363   3.431   1.899   3.307  1.5296 -2.0140  1.6910
 8133TIP3    H224364   3.305   1.815   3.297  0.4595 -0.3086  0.1133
 8134TIP3   OH224365   6.582   5.053   3.933  0.5620  0.2459  0.2920
 8134TIP3    H124366   6.530   5.105   3.872 -1.0809 -0.2496  1.2116
 8134TIP3    H224367   6.644   5.005   3.876 -0.1761  0.6235 -0.8711
 8135TIP3   OH224368   6.947   0.346   5.162 -0.0820  0.3943 -0.2529
 8135TIP3    H124369   6.979   0.260   5.191  1.4724  0.4239 -1.7099
 8135TIP3    H224370   6.908   0.385   5.241  0.4314 -1.0770  0.7739
 8136TIP3   OH224371   1.551   1.193   0.049  0.5617 -0.3402 -0.4028
 8136TIP3    H124372   1.530   1.117   0.103 -0.7843  0.3191  0.0442
 8136TIP3    H224373   1.589   1.256   0.110  0.5933 -0.2182 -0.5482
 8137TIP3   OH224374   1.704   2.512   2.192  0.2713  0.9860  0.5315
 8137TIP3    H124375   1.668   2.424   2.201 -0.8741  1.3556 -0.2671
 8137TIP3    H224376   1.638   2.570   2.229  1.6241  1.4458  2.3662
 8138TIP3   OH224377   3.858   3.528   4.405  0.1912  0.2785  0.1920
 8138TIP3    H124378   3.826   3.474   4.332  1.1528 -0.5547  0.3578
 8138TIP3    H224379   3.949   3.501   4.416  0.1403  0.5928  1.5206
 8139TIP3   OH224380   1.708   3.400   1.599  0.4641  0.0298  0.3123
 8139TIP3    H124381   1.707   3.391   1.695 -1.1495  0.7176  0.4110
 8139TIP3    H224382   1.687   3.492   1.584  0.6299 -0.0882 -0.7129
 8140TIP3   OH224383   5.406   0.538   2.705  0.2821  0.5231  0.0594
 8140TIP3    H124384   5.411   0.629   2.677  0.1003  0.2145 -1.0244
 8140TIP3    H224385   5.472   0.493   2.652  0.1142 -0.0446  0.3188
 8141TIP3   OH224386   3.923   2.963   1.972  0.6542 -0.3089  0.0822
 8141TIP3    H124387   3.862   2.892   1.990 -2.3315  1.8297 -0.9157
 8141TIP3    H224388   3.970   2.935   1.893 -1.3037 -0.7503 -1.0002
 8142TIP3   OH224389   2.323   4.492   0.391  0.1511 -0.4803 -0.1409
 8142TIP3    H124390   2.358   4.403   0.394 -0.7336 -0.8779 -1.0335
 8142TIP3    H224391   2.302   4.512   0.482 -1.5243 -1.9808 -0.1309
 8143TIP3   OH224392   1.936   5.097   1.794 -0.2372 -0.3934  0.1181
 8143TIP3    H124393   2.022   5.095   1.752  0.2755 -0.2917  1.1319
 8143TIP3    H224394   1.874   5.086   1.722  0.6486 -1.3670 -0.5332
 8144TIP3   OH224395   4.483   1.260   2.492  0.0949 -0.2168  0.1435
 8144TIP3    H124396   4.402   1.240   2.444 -0.1250 -0.1251  0.4751
 8144TIP3    H224397   4.478   1.206   2.571 -0.1670  0.6056  0.7033
 8145TIP3   OH224398   4.899   2.882   0.943 -0.1696  0.0940 -0.0573
 8145TIP3    H124399   4.860   2.944   0.881 -1.1726  1.1448  1.5515
 8145TIP3    H224400   4.901   2.929   1.026 -0.3248 -1.8025  1.0741
 8146TIP3   OH224401   6.543   6.634   1.022  0.4341  0.2246  0.4728
 8146TIP3    H124402   6.613   6.699   1.017 -0.5979  1.3641  0.5479
 8146TIP3    H224403   6.541   6.609   1.114  0.8742  0.0218  0.4324
 8147TIP3   OH224404   0.054   1.928   3.121  0.8566  0.1849 -0.5566
 8147TIP3    H124405   0.121   1.996   3.130  0.1291  0.9519 -0.7583
 8147TIP3    H224406  -0.026   1.977   3.101  0.5235 -0.8060 -1.7398
 8148TIP3   OH224407   0.376   1.171   3.772  0.1599  0.8233 -0.5502
 8148TIP3    H124408   0.461   1.176   3.728  0.6345  2.2447  0.4659
 8148TIP3    H224409   0.312   1.186   3.703  0.7993  1.0905 -1.0923
 8149TIP3   OH224410   2.749   4.995   3.020 -0.6206  0.3013 -0.2249
 8149TIP3    H124411   2.727   5.074   2.970  0.0612 -0.3273 -1.5617
 8149TIP3    H224412   2.668   4.946   3.024 -0.3426 -0.3685 -2.1010
 8150TIP3   OH224413   2.102   0.078   4.007 -0.2670 -0.2374 -0.2733
 8150TIP3    H124414   2.096   0.163   3.965 -0.4505 -0.3861 -0.5584
 8150TIP3    H224415   2.116   0.097   4.099  1.3494  0.0832 -0.5613
 8151TIP3   OH224416   7.069   3.435   1.332  0.6576  0.4463 -0.6773
 8151TIP3    H124417   6.990   3.395   1.297 -0.1426  1.2404  0.1684
 8151TIP3    H224418   7.135   3.365   1.328 -0.5045 -0.7397  0.0950
 8152TIP3   OH224419   4.865   1.741   0.113 -0.3492  0.1622  0.0354
 8152TIP3    H124420   4.818   1.775   0.037 -0.3182  1.3162  0.5014
 8152TIP3    H224421   4.822   1.658   0.133 -1.7293  0.8340 -0.0039
 8153TIP3   OH224422   5.340   5.822   5.320  0.6391 -0.4400 -0.1578
 8153TIP3    H124423   5.422   5.858   5.355 -0.4139  0.0491  1.9815
 8153TIP3    H224424   5.271   5.870   5.365 -0.8484 -1.5556 -1.1272
 8154TIP3   OH224425   6.259   5.250   2.476 -0.1025 -0.3466  0.4765
 8154TIP3    H124426   6.259   5.192   2.400  2.0450  0.3361 -0.1193
 8154TIP3    H224427   6.233   5.335   2.441 -3.1840 -0.8180  1.3354
 8155TIP3   OH224428   3.501   6.389   4.973 -0.1698 -0.6774 -0.0223
 8155TIP3    H124429   3.570   6.435   5.020 -1.3381  1.9083 -0.6896
 8155TIP3    H224430   3.498   6.431   4.886 -1.8509 -1.4335 -0.3758
 8156TIP3   OH224431   6.843   4.926   1.818 -0.0559 -0.6329  0.4904
 8156TIP3    H124432   6.830   4.832   1.809 -0.5071 -0.5520  0.2914
 8156TIP3    H224433   6.938   4.937   1.825  0.0505 -1.0336 -0.3000
 8157TIP3   OH224434   6.304   6.440   3.805  0.5084  0.2215  0.1209
 8157TIP3    H124435   6.321   6.396   3.889  0.4096  1.0753  0.6001
 8157TIP3    H224436   6.242   6.509   3.826 -0.6910 -0.4832 -0.9395
 8158TIP3   OH224437   4.124   4.503   3.745 -0.2686 -0.0928  0.0566
 8158TIP3    H124438   4.169   4.562   3.805 -3.5445  2.3524  0.3913
 8158TIP3    H224439   4.183   4.428   3.736  2.1578  1.2259  3.1324
 8159TIP3   OH224440   1.819   2.409   3.726 -0.1469  0.2334 -0.1700
 8159TIP3    H124441   1.895   2.403   3.784 -1.2107 -1.0263  1.1478
 8159TIP3    H224442   1.788   2.319   3.718 -3.6601  1.0133  2.3314
 8160TIP3   OH224443   3.622   1.805   5.798  0.0970  0.0700 -0.4715
 8160TIP3    H124444   3.607   1.859   5.875  2.2388  0.3785 -0.2188
 8160TIP3    H224445   3.685   1.854   5.745  1.2741 -1.6542 -0.7699
 8161TIP3   OH224446   5.646   5.422   0.149  0.2568  0.1143 -0.1314
 8161TIP3    H124447   5.651   5.489   0.217  0.8580  0.1318 -0.1902
 8161TIP3    H224448   5.732   5.422   0.108 -0.0005 -0.1203 -0.6846
 8162TIP3   OH224449   3.148   2.918   1.326 -0.1664  0.0067  0.1576
 8162TIP3    H124450   3.169   2.825   1.321 -0.9613 -0.3524  2.3082
 8162TIP3    H224451   3.055   2.920   1.349 -0.5251  1.3873 -1.2540
 8163TIP3   OH224452   4.006   5.370   4.169  0.2084  0.1530 -0.4474
 8163TIP3    H124453   4.013   5.369   4.073 -1.3142  1.7428 -0.6335
 8163TIP3    H224454   3.965   5.454   4.189 -1.8298 -1.1518  1.4155
 8164TIP3   OH224455   1.979   1.809   4.558 -0.1032  0.3760 -0.2794
 8164TIP3    H124456   1.975   1.857   4.476 -0.0323 -1.4235 -1.3769
 8164TIP3    H224457   2.061   1.838   4.599  1.1254 -0.5043 -2.0189
 8165TIP3   OH224458   3.712   2.847   3.457  0.6121  0.2403  0.0766
 8165TIP3    H124459   3.642   2.907   3.434 -0.2775 -0.2576  1.3525
 8165TIP3    H224460   3.686   2.764   3.418  0.4259  0.0293  0.6393
 8166TIP3   OH224461   6.314   0.159   2.897 -0.1437 -0.2362 -0.0233
 8166TIP3    H124462   6.226   0.144   2.862  0.6039 -1.0394 -1.6892
 8166TIP3    H224463   6.321   0.255   2.904 -0.8487 -0.1219 -0.7250
 8167TIP3   OH224464   0.885   3.846   0.653  0.0185 -0.3503  0.2446
 8167TIP3    H124465   0.929   3.808   0.577 -1.1760  0.7867 -1.0842
 8167TIP3    H224466   0.799   3.805   0.655 -0.4317  0.5645  0.1858
 8168TIP3   OH224467   5.798   4.073   2.216  0.4063 -1.0351 -0.8040
 8168TIP3    H124468   5.798   4.159   2.176  0.5444 -0.8787 -0.4717
 8168TIP3    H224469   5.854   4.082   2.293  0.4194 -1.4186 -0.7661
 8169TIP3   OH224470   6.997   3.571   4.637  0.6906 -0.0404 -0.2308
 8169TIP3    H124471   6.985   3.594   4.729 -1.1930  0.3826 -0.5336
 8169TIP3    H224472   7.002   3.475   4.637  1.4660 -0.0119  0.3654
 8170TIP3   OH224473   0.280   3.325   3.836 -0.2123  0.0647 -0.3072
 8170TIP3    H124474   0.240   3.286   3.913 -0.3059  0.3663 -0.2031
 8170TIP3    H224475   0.207   3.353   3.781 -0.1476 -0.3627 -0.6159
 8171TIP3   OH224476   0.398   0.325   2.558  0.5159  0.0764 -0.4945
 8171TIP3    H124477   0.363   0.237   2.547  1.2167 -0.2447 -0.2312
 8171TIP3    H224478   0.367   0.374   2.482  2.7430 -1.2449 -2.3843
 8172TIP3   OH224479   2.164   4.853   1.884 -0.5218 -1.0886 -0.2556
 8172TIP3    H124480   2.171   4.824   1.792  0.8526 -0.5720 -0.3446
 8172TIP3    H224481   2.234   4.918   1.893 -0.9894 -0.7519  1.0262
 8173TIP3   OH224482   3.673   4.255   0.827  0.1581  0.7279  0.1407
 8173TIP3    H124483   3.756   4.266   0.874  0.8196  1.0870 -1.0631
 8173TIP3    H224484   3.652   4.342   0.795 -0.0903  0.4429 -0.5002
 8174TIP3   OH224485   1.421   3.353   4.298  0.0759  0.1470  0.2342
 8174TIP3    H124486   1.341   3.307   4.275  1.2928 -1.2941 -1.4481
 8174TIP3    H224487   1.452   3.311   4.377 -0.6267  0.4847  0.6984
 8175TIP3   OH224488   0.882   1.270   2.936  0.1590 -0.3196  0.4461
 8175TIP3    H124489   0.960   1.224   2.905 -0.3346 -2.0194  1.5944
 8175TIP3    H224490   0.821   1.200   2.960 -1.0571  0.9622  1.2317
 8176TIP3   OH224491   2.940   5.416   3.637 -0.1905 -0.0721 -0.5617
 8176TIP3    H124492   2.992   5.481   3.589 -0.3184 -1.0907 -2.1503
 8176TIP3    H224493   2.982   5.332   3.618 -1.3401 -0.7100 -0.3959
 8177TIP3   OH224494   4.728   0.907   5.229 -0.8550  0.2788  0.1223
 8177TIP3    H124495   4.756   0.893   5.320  1.3362 -0.0917 -0.5512
 8177TIP3    H224496   4.657   0.844   5.216 -0.8334 -0.0402  1.4179
 8178TIP3   OH224497   5.970   2.224   4.602  0.0629  0.2906  0.4678
 8178TIP3    H124498   6.061   2.220   4.632 -0.5306  0.4799  2.4894
 8178TIP3    H224499   5.927   2.284   4.664 -1.8259 -1.2664  0.7728
 8179TIP3   OH224500   3.253   5.421   3.952  0.7824  0.1223  0.7197
 8179TIP3    H124501   3.273   5.474   3.875  2.2831  1.3618  1.8927
 8179TIP3    H224502   3.159   5.405   3.947  0.7465  0.7071 -1.0260
 8180TIP3   OH224503   6.275   1.817   4.577 -0.0286  1.0022  0.5056
 8180TIP3    H124504   6.366   1.799   4.554 -0.0282  1.8010 -0.1743
 8180TIP3    H224505   6.276   1.830   4.672  0.2485 -0.7707  0.7748
 8181TIP3   OH224506   0.039   1.306   4.820  0.2312 -0.0566 -0.0070
 8181TIP3    H124507  -0.043   1.355   4.814  0.7258  0.7474 -0.3813
 8181TIP3    H224508   0.054   1.273   4.732  0.1359 -0.5029  0.1406
 8182TIP3   OH224509   0.079   1.918   3.465 -0.4428  0.3588 -0.3337
 8182TIP3    H124510   0.073   1.864   3.386 -0.0222  0.8082 -0.6833
 8182TIP3    H224511   0.109   2.003   3.433  1.8794 -0.0526  0.5236
 8183TIP3   OH224512   4.717   3.584   5.662 -0.2658  0.3630 -0.2018
 8183TIP3    H124513   4.810   3.585   5.687 -0.4691  1.1964  0.5532
 8183TIP3    H224514   4.687   3.497   5.689 -0.0679  0.6415  0.9766
 8184TIP3   OH224515   4.406   1.203   4.900 -0.4422  0.1126 -0.1459
 8184TIP3    H124516   4.352   1.226   4.976 -1.1058  2.8827 -1.3371
 8184TIP3    H224517   4.354   1.232   4.825  1.6627  0.6519 -1.4682
 8185TIP3   OH224518   1.136   2.859   1.624  0.1859  0.1996  0.1320
 8185TIP3    H124519   1.158   2.774   1.663  1.5407  1.9274  3.5283
 8185TIP3    H224520   1.040   2.860   1.621  0.1237 -1.1332  0.8105
 8186TIP3   OH224521   7.035   0.822   0.619  0.4224  0.2588  0.0945
 8186TIP3    H124522   6.951   0.786   0.648  0.1525  1.0449  0.3105
 8186TIP3    H224523   7.030   0.915   0.640  2.4915 -0.1257  2.7985
 8187TIP3   OH224524   2.139   3.590   2.120  0.1557 -0.3632 -0.4470
 8187TIP3    H124525   2.212   3.598   2.182  1.3737 -0.5924 -1.7989
 8187TIP3    H224526   2.152   3.661   2.058 -1.6007  0.4535  0.0615
 8188TIP3   OH224527   6.680   5.714   2.265  0.2535  0.1821 -0.6355
 8188TIP3    H124528   6.752   5.766   2.301  0.7206 -0.5794 -0.4460
 8188TIP3    H224529   6.655   5.656   2.337 -1.1110  0.9945 -0.4197
 8189TIP3   OH224530   5.408   0.258   2.101  0.0483  0.0189 -0.4131
 8189TIP3    H124531   5.313   0.268   2.097  0.1852  1.6230 -0.3275
 8189TIP3    H224532   5.422   0.164   2.114 -1.5360 -0.1591  0.2298
 8190TIP3   OH224533   1.975   5.976   3.809 -0.2059 -0.3227 -0.2302
 8190TIP3    H124534   1.883   6.003   3.800 -0.7444 -2.3460 -1.6522
 8190TIP3    H224535   1.972   5.905   3.874  0.1656 -1.0335 -0.9680
 8191TIP3   OH224536   5.298   1.169   0.064 -0.5188 -0.1836 -0.2793
 8191TIP3    H124537   5.323   1.217   0.143  0.2524 -1.5376  0.3362
 8191TIP3    H224538   5.258   1.235   0.008  1.1346  1.3463  0.2288
 8192TIP3   OH224539   6.388   2.171   4.263  1.0507 -0.2705  0.0643
 8192TIP3    H124540   6.353   2.097   4.213 -1.9886  1.9859 -1.5760
 8192TIP3    H224541   6.439   2.221   4.199  0.1657  0.7884  0.1542
 8193TIP3   OH224542   4.863   5.067   4.888  0.2396 -0.5178  0.1341
 8193TIP3    H124543   4.900   5.155   4.896 -3.2203  1.2223 -0.9415
 8193TIP3    H224544   4.929   5.018   4.839  2.3548  1.3775  0.8978
 8194TIP3   OH224545   6.692   2.892   4.992 -0.4416 -0.2620  0.5450
 8194TIP3    H124546   6.753   2.965   4.982 -1.4578  0.5791  0.3741
 8194TIP3    H224547   6.742   2.815   4.964  0.7244  0.3149  0.9789
 8195TIP3   OH224548   4.720   2.213   1.811 -0.5073 -0.4253  0.3832
 8195TIP3    H124549   4.709   2.298   1.768 -0.2515 -1.4129 -1.7848
 8195TIP3    H224550   4.654   2.213   1.881 -1.6667  0.9058 -0.6434
 8196TIP3   OH224551   1.850   2.103   3.940 -0.3860  0.0751  0.0440
 8196TIP3    H124552   1.903   2.182   3.925  1.2796 -1.0326 -0.1259
 8196TIP3    H224553   1.886   2.065   4.020 -0.5171 -1.0343 -0.4140
 8197TIP3   OH224554   6.574   0.097   2.884 -0.3879 -0.9055  0.3692
 8197TIP3    H124555   6.479   0.097   2.894 -0.3042 -2.2843  1.4247
 8197TIP3    H224556   6.596   0.006   2.862  0.8045 -0.9406  1.5568
 8198TIP3   OH224557   3.283   6.371   5.159  0.1253 -0.2368 -0.3572
 8198TIP3    H124558   3.353   6.364   5.094 -0.2590 -0.0045 -0.8048
 8198TIP3    H224559   3.321   6.426   5.228 -0.7339  3.0826 -2.2555
 8199TIP3   OH224560   3.939   5.000   4.617  0.5544  0.0387  0.0823
 8199TIP3    H124561   4.012   4.991   4.679  1.3129  0.1963 -0.7554
 8199TIP3    H224562   3.982   5.008   4.532 -0.4711 -0.2200 -0.4669
 8200TIP3   OH224563   1.207   4.362   4.777 -0.1750  0.1462  0.3858
 8200TIP3    H124564   1.258   4.437   4.806  0.1287  0.1439 -0.1409
 8200TIP3    H224565   1.269   4.306   4.730 -0.5972  0.0120 -0.0262
 8201TIP3   OH224566   5.139   3.345   2.520 -0.9174 -0.1542 -0.3049
 8201TIP3    H124567   5.217   3.396   2.497  0.6350 -1.3526  1.9495
 8201TIP3    H224568   5.100   3.394   2.592  0.8352 -2.1802  2.1892
 8202TIP3   OH224569   1.761   0.080   2.413  0.0805 -0.2149 -0.1798
 8202TIP3    H124570   1.680   0.091   2.462 -0.9756 -1.6770 -1.4773
 8202TIP3    H224571   1.804   0.005   2.454  1.2688  1.0743  1.0540
 8203TIP3   OH224572   0.834   5.648   2.652  0.4665 -0.0756 -0.1779
 8203TIP3    H124573   0.741   5.669   2.654  0.5968  0.5149  1.2969
 8203TIP3    H224574   0.877   5.727   2.685  1.4554 -0.4950 -0.4095
 8204TIP3   OH224575   2.771   5.318   4.899  0.0501 -0.1610 -0.4044
 8204TIP3    H124576   2.689   5.296   4.944 -0.4154  1.0878 -0.5926
 8204TIP3    H224577   2.757   5.291   4.808 -0.5657  0.9685 -0.6633
 8205TIP3   OH224578   1.435   4.810   3.961 -0.3938 -0.6599  0.1110
 8205TIP3    H124579   1.519   4.776   3.933  0.2865  1.8234 -1.2108
 8205TIP3    H224580   1.450   4.840   4.051  0.0385 -0.5891  0.0184
 8206TIP3   OH224581   5.969   5.639   0.457  0.4026 -0.0344  0.5231
 8206TIP3    H124582   5.958   5.616   0.549  1.1992 -2.3289  0.1077
 8206TIP3    H224583   6.053   5.684   0.454  0.3586  0.0786  0.9106
 8207TIP3   OH224584   2.738   5.226   2.427  0.1179 -0.1361  0.1008
 8207TIP3    H124585   2.827   5.261   2.420 -0.4870  1.3559 -0.7927
 8207TIP3    H224586   2.719   5.193   2.340  0.4560 -2.2556  0.7906
 8208TIP3   OH224587   2.621   5.102   5.409  0.3381  0.1428  0.1731
 8208TIP3    H124588   2.588   5.066   5.492 -0.5663 -0.7500 -0.5409
 8208TIP3    H224589   2.542   5.118   5.358  0.8539  1.3993 -0.2456
 8209TIP3   OH224590   6.418   3.821   2.853  0.3205  0.2884 -0.7619
 8209TIP3    H124591   6.496   3.777   2.888 -0.8175 -0.5392  0.8608
 8209TIP3    H224592   6.451   3.903   2.817  2.1487 -0.7152 -1.5149
 8210TIP3   OH224593   6.115   6.068   0.249  0.5363 -0.0700 -0.1451
 8210TIP3    H124594   6.146   6.150   0.211 -1.5201  1.1577  0.6037
 8210TIP3    H224595   6.151   6.067   0.337  0.5636  0.0512 -0.1548
 8211TIP3   OH224596   2.218   6.554   3.462  0.2371  0.4528 -0.0107
 8211TIP3    H124597   2.145   6.566   3.523  0.7343 -0.3432  0.7651
 8211TIP3    H224598   2.194   6.477   3.410 -0.6304  1.6808 -1.5257
 8212TIP3   OH224599   1.878   0.408   5.286  0.1335 -0.3166 -0.6107
 8212TIP3    H124600   1.917   0.493   5.304 -1.8004  0.1660  1.9398
 8212TIP3    H224601   1.906   0.387   5.197  2.1567  2.1072 -0.6659
 8213TIP3   OH224602   3.426   2.268   4.184 -0.2805 -0.3471 -0.5043
 8213TIP3    H124603   3.518   2.254   4.206  0.0004  2.3167  0.3873
 8213TIP3    H224604   3.428   2.296   4.092 -0.1234  0.1206 -0.3636
 8214TIP3   OH224605   3.025   1.091   4.461  0.3535  0.4145  0.4340
 8214TIP3    H124606   3.091   1.108   4.528  0.6697  2.2619 -0.2779
 8214TIP3    H224607   2.999   1.000   4.474  2.1986  0.0027  1.4716
 8215TIP3   OH224608   3.357   5.294   3.677  0.1679  0.2926  0.0058
 8215TIP3    H124609   3.414   5.371   3.672  1.3569 -0.5134  0.5151
 8215TIP3    H224610   3.351   5.263   3.587 -1.2993  1.6198 -0.4064
 8216TIP3   OH224611   4.164   3.752   1.683  0.2406  0.5907 -0.4347
 8216TIP3    H124612   4.070   3.742   1.696  0.2836  0.8259  0.0715
 8216TIP3    H224613   4.175   3.753   1.588 -0.4813  2.3478 -0.5529
 8217TIP3   OH224614   2.730   2.626   4.677  0.2937 -0.2460  0.2443
 8217TIP3    H124615   2.673   2.580   4.616 -0.5437 -0.4981  1.2034
 8217TIP3    H224616   2.816   2.624   4.635 -0.3320 -0.0867 -1.0965
 8218TIP3   OH224617   1.224   2.500   1.287 -0.2809 -0.3110 -0.4883
 8218TIP3    H124618   1.197   2.592   1.279 -1.6264 -0.7341 -1.0431
 8218TIP3    H224619   1.316   2.500   1.259 -0.2253  0.8704 -0.3851
 8219TIP3   OH224620   2.030   0.361   0.609 -0.0712  0.0586 -0.2348
 8219TIP3    H124621   2.031   0.268   0.632 -0.0624  0.4127  1.3126
 8219TIP3    H224622   2.027   0.362   0.513 -0.0295 -1.5276 -0.2807
 8220TIP3   OH224623   5.379   4.071   0.709  0.7590  0.2582 -0.1406
 8220TIP3    H124624   5.410   3.995   0.659  0.6632 -0.4519  0.8493
 8220TIP3    H224625   5.449   4.087   0.772 -0.2842 -0.5964  1.3101
 8221TIP3   OH224626   5.725   5.704   4.124 -0.1329  0.2846 -0.2590
 8221TIP3    H124627   5.653   5.658   4.167 -0.7177  1.3970 -0.0071
 8221TIP3    H224628   5.761   5.761   4.192  0.4503  0.3515 -0.6136
 8222TIP3   OH224629   0.684   0.990   5.840  0.2467  0.0748 -0.4632
 8222TIP3    H124630   0.758   0.981   5.781  1.0797  1.7820  0.2492
 8222TIP3    H224631   0.715   0.958   5.924  0.6054  1.8371  0.1168
 8223TIP3   OH224632   3.003   6.132   1.427 -0.8544  0.3292 -0.0589
 8223TIP3    H124633   2.989   6.082   1.508 -0.6052 -0.2117 -0.3446
 8223TIP3    H224634   2.950   6.087   1.361 -1.3344  0.9819 -0.1189
 8224TIP3   OH224635   1.074   4.841   3.985  0.0299  0.4918 -0.0999
 8224TIP3    H124636   1.002   4.863   4.043  2.2412  1.7260  2.4082
 8224TIP3    H224637   1.035   4.841   3.897 -2.6739  2.5840  0.9554
 8225TIP3   OH224638   2.875   1.872   3.128 -0.2273 -0.5627 -0.9900
 8225TIP3    H124639   2.813   1.859   3.057 -2.1801  1.9572  0.1334
 8225TIP3    H224640   2.961   1.855   3.088 -1.4044 -1.6622 -3.2386
 8226TIP3   OH224641   3.274   5.002   3.222 -0.0925 -0.0191 -0.4943
 8226TIP3    H124642   3.227   4.924   3.254 -0.8665  0.0353 -1.4332
 8226TIP3    H224643   3.274   4.991   3.127 -0.3645  1.2217 -0.6459
 8227TIP3   OH224644   1.318   5.260   3.843 -0.3552  0.7948 -0.2592
 8227TIP3    H124645   1.224   5.250   3.830 -0.1717  0.9767 -1.8721
 8227TIP3    H224646   1.357   5.235   3.759  0.9317  2.3379 -0.1632
 8228TIP3   OH224647   4.643   3.833   5.570 -0.0655  0.1592 -0.2549
 8228TIP3    H124648   4.656   3.741   5.592  1.9436  0.0546 -1.6155
 8228TIP3    H224649   4.587   3.832   5.492  0.0782  0.0943 -0.3560
 8229TIP3   OH224650   6.858   5.102   2.524 -0.3710 -0.6086  0.3450
 8229TIP3    H124651   6.941   5.093   2.572 -0.1743  1.1125  0.3773
 8229TIP3    H224652   6.856   5.025   2.467  2.4576  0.4339 -1.4004
 8230TIP3   OH224653   7.126   4.369   1.607  0.3798 -0.8003  0.4569
 8230TIP3    H124654   7.094   4.280   1.621 -1.7174 -0.3903 -1.2708
 8230TIP3    H224655   7.104   4.389   1.516 -0.0087  1.7858  1.0371
 8231TIP3   OH224656   5.124   2.926   5.215 -0.1267 -0.3573  0.9009
 8231TIP3    H124657   5.071   2.912   5.137 -0.6486 -0.8976  1.3447
 8231TIP3    H224658   5.188   2.993   5.189 -1.1770  0.4950  0.4318
 8232TIP3   OH224659   6.807   5.226   1.781  0.1284  0.2075 -0.4677
 8232TIP3    H124660   6.792   5.133   1.799  0.6472  0.4932  1.6242
 8232TIP3    H224661   6.870   5.227   1.709  0.8828 -1.0881  0.1409
 8233TIP3   OH224662   0.012   2.472   2.360 -0.2684  0.2427 -0.1147
 8233TIP3    H124663   0.023   2.560   2.396 -2.1159  0.6846 -0.5073
 8233TIP3    H224664   0.095   2.428   2.379 -0.7191  0.7275  3.7832
 8234TIP3   OH224665   1.273   4.699   3.580  0.0514 -0.2858 -0.3226
 8234TIP3    H124666   1.281   4.790   3.608 -1.8633  0.3921 -1.7445
 8234TIP3    H224667   1.307   4.648   3.654  2.5221  1.5717 -0.0657
 8235TIP3   OH224668   3.532   0.537   1.289  0.4435 -0.0392  0.3306
 8235TIP3    H124669   3.587   0.570   1.217 -0.8696  1.1260 -0.1871
 8235TIP3    H224670   3.593   0.524   1.361  1.5995  0.0343 -0.5942
 8236TIP3   OH224671   4.367   5.834   1.625 -0.7224  0.1993 -0.4242
 8236TIP3    H124672   4.388   5.795   1.710 -2.4155  0.3988  0.1242
 8236TIP3    H224673   4.449   5.831   1.577  0.1089 -0.5752  0.9598
 8237TIP3   OH224674   3.536   0.815   1.553  0.2903 -0.0134  0.1575
 8237TIP3    H124675   3.546   0.755   1.627 -1.0569  2.3114  2.4014
 8237TIP3    H224676   3.561   0.900   1.588 -0.6841  1.2374 -2.0096
 8238TIP3   OH224677   1.062   3.984   1.110 -0.2766  0.5019  0.0460
 8238TIP3    H124678   1.118   3.939   1.047 -0.0717  0.9226 -0.0729
 8238TIP3    H224679   0.974   3.948   1.094  0.0185 -0.4750  0.5242
 8239TIP3   OH224680   6.786   4.932   3.064  0.4193 -0.1125  0.6124
 8239TIP3    H124681   6.691   4.920   3.065  0.3979 -0.2536  2.5656
 8239TIP3    H224682   6.814   4.898   3.150  2.3759 -1.1176 -0.3696
 8240TIP3   OH224683   1.832   5.641   3.734 -0.3659 -0.3404  0.2438
 8240TIP3    H124684   1.824   5.591   3.814  1.6440  0.6558  1.1409
 8240TIP3    H224685   1.925   5.662   3.727 -0.1679 -1.6898 -3.1811
 8241TIP3   OH224686   2.828   2.533   0.176  0.2485  0.0630  0.0996
 8241TIP3    H124687   2.853   2.611   0.226 -1.0473  0.3867  0.2667
 8241TIP3    H224688   2.907   2.510   0.127  1.7678 -0.5964  2.6928
 8242TIP3   OH224689   5.404   3.831   1.566  0.3530  0.9870  0.1085
 8242TIP3    H124690   5.458   3.885   1.624  1.3852  0.4565 -0.3527
 8242TIP3    H224691   5.417   3.868   1.479  1.3013 -0.1519 -0.2629
 8243TIP3   OH224692   3.625   1.119   0.311  0.0829 -0.5120 -0.0581
 8243TIP3    H124693   3.530   1.131   0.321 -0.0320  0.5490 -2.0082
 8243TIP3    H224694   3.633   1.043   0.253  0.4221 -0.2020 -0.4112
 8244TIP3   OH224695   6.053   3.772   5.350  0.3913  0.4556  0.5331
 8244TIP3    H124696   6.014   3.695   5.310  1.0240  1.5591 -2.4730
 8244TIP3    H224697   6.143   3.746   5.371  0.2765  0.0661  0.5474
 8245TIP3   OH224698   0.942   1.091   5.122  0.1858 -0.4298 -0.2448
 8245TIP3    H124699   0.862   1.115   5.170  1.0283  1.1077  0.4615
 8245TIP3    H224700   0.978   1.174   5.092  1.1870 -1.1544 -1.1148
 8246TIP3   OH224701   2.217   6.547   4.801  0.3786 -0.2146  0.1682
 8246TIP3    H124702   2.191   6.589   4.883 -0.8173  0.1984 -0.3936
 8246TIP3    H224703   2.221   6.454   4.822 -1.6718 -0.3132  0.2982
 8247TIP3   OH224704   2.308   6.392   4.480  0.2546  0.1578  1.1833
 8247TIP3    H124705   2.370   6.436   4.537  0.7715  1.9347 -0.6145
 8247TIP3    H224706   2.223   6.429   4.503  0.2702 -0.0921  1.6505
 8248TIP3   OH224707   2.960   0.399   3.244 -0.2787 -0.6186  0.2938
 8248TIP3    H124708   3.016   0.417   3.168 -0.3625  0.3212  0.4418
 8248TIP3    H224709   3.012   0.428   3.319 -0.8104 -0.1040  0.4649
 8249TIP3   OH224710   4.335   5.186   5.722 -0.3325 -0.4759 -0.6033
 8249TIP3    H124711   4.263   5.248   5.732 -0.5873 -1.1474  2.8735
 8249TIP3    H224712   4.304   5.123   5.657 -2.1132  0.2778 -0.5370
 8250TIP3   OH224713   5.129   2.132   1.101  0.4056  0.6026 -0.2188
 8250TIP3    H124714   5.096   2.186   1.174 -0.3226 -1.3732  0.9787
 8250TIP3    H224715   5.205   2.181   1.068  0.9011  1.4655  2.0075
 8251TIP3   OH224716   6.845   3.785   4.550 -0.1625 -0.0544 -0.0112
 8251TIP3    H124717   6.863   3.796   4.456  2.1760  2.1768  0.5705
 8251TIP3    H224718   6.904   3.715   4.577 -1.4921 -1.3388 -0.3020
 8252TIP3   OH224719   2.724   6.475   1.222 -0.2753  0.5129  0.3281
 8252TIP3    H124720   2.754   6.520   1.143  2.3587 -2.4145 -0.5847
 8252TIP3    H224721   2.804   6.461   1.273 -0.9800 -2.3846  0.8351
 8253TIP3   OH224722   3.241   5.726   4.005  0.5025  0.5103 -0.4990
 8253TIP3    H124723   3.278   5.640   3.988  1.8942  0.9594  0.1202
 8253TIP3    H224724   3.291   5.760   4.079 -0.6257  1.4949 -0.1468
 8254TIP3   OH224725   3.616   0.263   4.992  0.2612  0.0492 -0.4157
 8254TIP3    H124726   3.544   0.256   5.055  0.3833 -0.6720 -0.3392
 8254TIP3    H224727   3.637   0.356   4.990 -0.0684  0.1482  0.2456
 8255TIP3   OH224728   1.171   5.998   1.288 -0.6013 -0.1580 -0.5962
 8255TIP3    H124729   1.260   6.016   1.256 -0.4639  0.8341  0.2776
 8255TIP3    H224730   1.174   6.022   1.381 -2.0749  1.0151 -0.8036
 8256TIP3   OH224731   3.179   2.630   2.187  0.1513 -0.4834  0.5225
 8256TIP3    H124732   3.223   2.692   2.245  0.1241 -2.2944  2.6294
 8256TIP3    H224733   3.179   2.548   2.236 -1.9722 -1.5557 -1.1011
 8257TIP3   OH224734   0.716   1.590   0.066 -0.0158 -0.0226 -0.4795
 8257TIP3    H124735   0.660   1.648   0.015 -1.1226 -0.2892  0.3746
 8257TIP3    H224736   0.655   1.529   0.108  0.7195  0.7176  1.8216
 8258TIP3   OH224737   2.325   3.280   2.379  0.7881  0.2635 -0.1302
 8258TIP3    H124738   2.235   3.280   2.412  0.2778 -0.4167 -1.4453
 8258TIP3    H224739   2.342   3.372   2.357  0.9006  0.6143  1.2982
 8259TIP3   OH224740   3.949   0.139   1.273 -0.0441  0.3888  0.3041
 8259TIP3    H124741   3.994   0.065   1.233  0.9296  0.2523  1.5852
 8259TIP3    H224742   3.957   0.210   1.209 -0.1692 -0.3340 -0.5289
 8260TIP3   OH224743   5.158   3.791   2.564 -0.0137  0.1530  0.0940
 8260TIP3    H124744   5.160   3.720   2.629 -2.1425 -0.5840 -0.5356
 8260TIP3    H224745   5.065   3.812   2.555  0.1745  0.2471 -2.6546
 8261TIP3   OH224746   5.607   4.108   0.243  0.1170  0.0392 -0.2730
 8261TIP3    H124747   5.675   4.168   0.274  0.7048 -0.4669 -0.5581
 8261TIP3    H224748   5.571   4.150   0.165 -1.0916  1.1263  0.8264
 8262TIP3   OH224749   0.510   3.861   4.880 -0.3858 -0.3032  0.2595
 8262TIP3    H124750   0.585   3.908   4.916 -0.1914 -0.5401  0.1624
 8262TIP3    H224751   0.444   3.929   4.865 -0.9467 -0.3410  2.2680
 8263TIP3   OH224752   6.058   5.609   1.190 -0.0608  0.0604 -0.3075
 8263TIP3    H124753   6.077   5.702   1.208 -0.9970  1.1440 -3.9847
 8263TIP3    H224754   6.144   5.569   1.181  0.3980  1.1386 -0.9792
 8264TIP3   OH224755   5.563   4.828   2.663 -0.2076 -0.0115 -0.2574
 8264TIP3    H124756   5.594   4.901   2.609  1.6682 -1.0176 -0.6188
 8264TIP3    H224757   5.475   4.810   2.631  0.2332  0.5200 -1.8459
 8265TIP3   OH224758   5.155   0.115   2.031 -0.0946 -0.4820  0.3939
 8265TIP3    H124759   5.224   0.098   1.967 -0.7631 -2.1971  0.0702
 8265TIP3    H224760   5.074   0.091   1.986 -0.6518 -0.9890  1.6081
 8266TIP3   OH224761   2.393   0.207   4.819  0.2021 -0.1484  0.2363
 8266TIP3    H124762   2.452   0.238   4.749  0.8520 -0.4038  0.6554
 8266TIP3    H224763   2.432   0.124   4.846 -1.2410 -1.1194 -0.5531
 8267TIP3   OH224764   5.351   4.980   3.793 -0.0975  0.2495 -0.4227
 8267TIP3    H124765   5.376   5.049   3.855 -0.5507  0.3720 -0.3710
 8267TIP3    H224766   5.316   4.910   3.847 -1.0746  0.6121 -0.5793
 8268TIP3   OH224767   5.460   4.195   2.728  0.1034 -0.1213 -0.2275
 8268TIP3    H124768   5.510   4.118   2.754  0.2538  0.1365  0.2637
 8268TIP3    H224769   5.389   4.200   2.792 -0.4594 -0.3903 -0.8229
 8269TIP3   OH224770   6.055   5.915   2.286 -0.4719  0.7302  0.7402
 8269TIP3    H124771   5.989   5.909   2.217  0.2858  0.9994 -0.0185
 8269TIP3    H224772   6.024   5.854   2.353 -0.4653 -0.6838 -0.4674
 8270TIP3   OH224773   0.949   5.860   4.187  0.5656  1.2455  0.4711
 8270TIP3    H124774   1.034   5.843   4.146  0.7093  2.0994  0.3881
 8270TIP3    H224775   0.963   5.843   4.280  0.7136  0.9794  0.3994
 8271TIP3   OH224776   5.051   5.358   4.634 -0.4025  0.0721  0.0298
 8271TIP3    H124777   5.090   5.444   4.619  0.3631 -0.4013 -0.7559
 8271TIP3    H224778   4.958   5.371   4.613 -0.0867  0.4428 -1.2697
 8272TIP3   OH224779   6.978   6.386   1.714  0.6032 -0.2462  0.7699
 8272TIP3    H124780   6.995   6.447   1.787  2.9562 -0.7031  0.6785
 8272TIP3    H224781   7.065   6.369   1.677 -0.5200 -0.1041 -2.1263
 8273TIP3   OH224782   3.008   2.459   1.256  0.1291  0.1928  0.1066
 8273TIP3    H124783   2.994   2.399   1.330  2.1732 -0.7494 -0.1824
 8273TIP3    H224784   3.064   2.528   1.292  1.0594 -0.2228 -0.4944
 8274TIP3   OH224785   5.070   6.065   4.843 -0.2821  0.0247  0.3108
 8274TIP3    H124786   5.099   6.127   4.909 -0.8517 -0.0664  0.6550
 8274TIP3    H224787   4.975   6.078   4.837 -0.2414  0.0345 -0.4870
 8275TIP3   OH224788   6.590   3.265   4.518  0.0629  0.2818  0.3942
 8275TIP3    H124789   6.536   3.223   4.584  0.7427  1.7089  1.9303
 8275TIP3    H224790   6.528   3.294   4.451 -0.8749  0.3889  1.2881
 8276TIP3   OH224791   6.521   1.655   3.888 -0.3754  0.2579  0.1060
 8276TIP3    H124792   6.523   1.735   3.941  0.3469  0.4170 -0.1541
 8276TIP3    H224793   6.544   1.585   3.949 -1.1980  0.2170  0.3784
 8277TIP3   OH224794   4.509   3.979   3.568 -0.4573 -0.0057 -0.4471
 8277TIP3    H124795   4.544   4.011   3.485 -1.7865  1.3970 -0.5048
 8277TIP3    H224796   4.585   3.975   3.626  0.2151  0.5439 -1.2636
 8278TIP3   OH224797   1.101   4.452   4.495 -0.1509 -0.7084  0.0029
 8278TIP3    H124798   1.164   4.380   4.500  0.2857 -0.3186  0.1056
 8278TIP3    H224799   1.094   4.484   4.585  0.7003  0.2682 -0.2595
 8279TIP3   OH224800   0.388   4.442   4.049 -0.4456  0.1565  0.5510
 8279TIP3    H124801   0.341   4.481   3.976 -2.3340 -0.6309  1.2798
 8279TIP3    H224802   0.403   4.351   4.022 -0.6996 -0.0001  0.9319
 8280TIP3   OH224803   6.573   1.628   3.346  0.0049 -0.1250 -0.7033
 8280TIP3    H124804   6.584   1.591   3.258  1.3346 -0.1830 -0.5392
 8280TIP3    H224805   6.496   1.584   3.381 -0.6247 -0.0077 -1.8808
 8281TIP3   OH224806   0.780   1.325   2.422 -0.0068 -0.2287  0.6553
 8281TIP3    H124807   0.755   1.266   2.492 -1.9039  0.1060  0.3095
 8281TIP3    H224808   0.798   1.409   2.466  2.3874 -0.8909  1.1065
 8282TIP3   OH224809   3.987   5.617   0.122 -0.5378 -0.2099  0.1237
 8282TIP3    H124810   4.064   5.572   0.155 -0.5615  0.1055  0.6142
 8282TIP3    H224811   3.920   5.548   0.115 -0.5637 -0.2589  0.8280
 8283TIP3   OH224812   3.677   3.309   4.687  0.1205 -0.2456  0.1936
 8283TIP3    H124813   3.757   3.261   4.665  0.5528 -0.5826  2.2953
 8283TIP3    H224814   3.700   3.401   4.671  0.1666 -0.4874 -1.2982
 8284TIP3   OH224815   0.162   4.507   0.359  0.3182 -0.4535  0.1686
 8284TIP3    H124816   0.199   4.547   0.280  1.3693 -2.0268 -0.1779
 8284TIP3    H224817   0.137   4.419   0.331 -2.7081  0.1407  0.6969
 8285TIP3   OH224818   7.175   5.774   4.884 -0.1434 -0.0891  0.1190
 8285TIP3    H124819   7.195   5.843   4.821  1.0412 -0.2540  0.3042
 8285TIP3    H224820   7.180   5.693   4.832 -1.4321 -0.0753 -0.0765
 8286TIP3   OH224821   4.326   1.411   3.356  0.6592  0.1609 -0.0759
 8286TIP3    H124822   4.388   1.414   3.429 -0.4262  0.3417  0.8478
 8286TIP3    H224823   4.247   1.452   3.389 -0.3157 -0.9845 -0.9096
 8287TIP3   OH224824   6.847   1.960   5.371  0.2203  0.1399 -0.1844
 8287TIP3    H124825   6.828   1.926   5.458 -0.3772  0.5855 -0.1310
 8287TIP3    H224826   6.842   2.055   5.381 -1.5956  0.1749 -1.0677
 8288TIP3   OH224827   0.105   1.640   0.231 -0.1483 -0.5581 -0.1331
 8288TIP3    H124828   0.179   1.699   0.248 -0.5746  0.1194 -0.5831
 8288TIP3    H224829   0.121   1.565   0.288  0.0417  0.3081  0.9990
 8289TIP3   OH224830   3.357   0.315   0.687  0.0280 -0.2404  0.3770
 8289TIP3    H124831   3.452   0.327   0.684 -0.0078  0.3135  1.2345
 8289TIP3    H224832   3.327   0.372   0.758 -0.8698 -0.9207  0.5718
 8290TIP3   OH224833   1.666   0.501   0.904  0.1327  0.7666  0.2177
 8290TIP3    H124834   1.753   0.461   0.899  0.4274  1.3576  0.5824
 8290TIP3    H224835   1.665   0.546   0.988  0.3848  2.8648 -0.8497
 8291TIP3   OH224836   0.133   3.280   4.051 -0.0108  0.2548 -0.2241
 8291TIP3    H124837   0.060   3.302   3.993  0.2926 -0.0219 -0.7222
 8291TIP3    H224838   0.129   3.345   4.121 -1.3314 -0.3510  0.2927
 8292TIP3   OH224839   3.647   2.135   5.116  0.3512  0.1794 -0.1235
 8292TIP3    H124840   3.604   2.049   5.112  0.9518 -0.0982 -0.9318
 8292TIP3    H224841   3.598   2.188   5.053  0.9548 -0.0415 -0.7991
 8293TIP3   OH224842   0.249   5.542   3.637  0.8104 -0.2650 -0.8267
 8293TIP3    H124843   0.287   5.465   3.594 -1.2927 -0.8779 -1.7296
 8293TIP3    H224844   0.277   5.534   3.729  1.4009 -1.5900 -1.0921
 8294TIP3   OH224845   1.619   1.940   2.097  0.5643 -0.2165  0.3176
 8294TIP3    H124846   1.553   1.873   2.115 -0.3003  0.8405  1.2418
 8294TIP3    H224847   1.691   1.893   2.055 -0.7352 -1.4197 -0.6611
 8295TIP3   OH224848   0.801   3.658   4.925 -0.7063  0.2329 -0.1796
 8295TIP3    H124849   0.877   3.601   4.914 -0.3049  0.5785  0.7591
 8295TIP3    H224850   0.750   3.645   4.845  2.0518  2.6628 -2.5174
 8296TIP3   OH224851   7.119   3.252   0.655  0.4411  0.2281  0.1168
 8296TIP3    H124852   7.131   3.167   0.613 -0.5380  0.5851 -0.9198
 8296TIP3    H224853   7.085   3.309   0.586 -0.9988  0.8961  1.3331
 8297TIP3   OH224854   5.581   4.694   2.909  0.0747  0.3033 -0.5038
 8297TIP3    H124855   5.592   4.761   2.976  2.0957 -0.4024 -0.0453
 8297TIP3    H224856   5.578   4.742   2.827 -0.6770  1.0669 -0.0450
 8298TIP3   OH224857   3.598   5.785   5.281  0.3046 -0.2433  0.2085
 8298TIP3    H124858   3.595   5.819   5.192  0.1260 -0.2891  0.1969
 8298TIP3    H224859   3.677   5.823   5.319  1.8556 -2.2716 -0.7872
 8299TIP3   OH224860   5.864   0.008   5.610 -0.2828  0.2616  0.3291
 8299TIP3    H124861   5.883   0.067   5.682 -0.3120 -0.1840  0.7100
 8299TIP3    H224862   5.778  -0.028   5.631  0.1554 -0.6496  0.6119
 8300TIP3   OH224863   4.595   5.047   0.299 -0.3000 -0.0388  0.2153
 8300TIP3    H124864   4.658   4.991   0.344 -1.5549 -2.2600 -0.6255
 8300TIP3    H224865   4.511   5.003   0.311 -0.7450 -0.7035 -4.0584
 8301TIP3   OH224866   1.787   1.429   0.959 -0.3650  0.3386  0.2895
 8301TIP3    H124867   1.805   1.397   0.870  1.3007 -0.3751  0.8326
 8301TIP3    H224868   1.707   1.480   0.950 -0.1835  0.3888 -1.6551
 8302TIP3   OH224869   3.701   4.635   5.104 -0.3775 -0.8147  0.6032
 8302TIP3    H124870   3.653   4.552   5.102  0.0985 -1.1139  1.3602
 8302TIP3    H224871   3.786   4.614   5.142 -0.4900  0.1373  1.4465
 8303TIP3   OH224872   5.251   1.588   1.928 -0.2562 -0.3510  0.0604
 8303TIP3    H124873   5.229   1.572   2.020 -0.0023  0.3046  0.2410
 8303TIP3    H224874   5.229   1.506   1.884 -1.6343 -0.2335  0.4821
 8304TIP3   OH224875   0.659   1.178   2.623 -0.0932 -0.1128  0.0474
 8304TIP3    H124876   0.587   1.130   2.581  0.6607  0.1490 -1.6325
 8304TIP3    H224877   0.655   1.152   2.715 -2.1396 -0.3308 -0.0530
 8305TIP3   OH224878   5.088   2.453   1.049 -0.1625 -0.0110 -0.6067
 8305TIP3    H124879   5.142   2.532   1.041  0.2191 -0.0549  1.0261
 8305TIP3    H224880   5.090   2.412   0.963 -0.6270  1.9190 -1.5828
 8306TIP3   OH224881   2.641   5.998   2.115  0.0060 -0.1962  0.3463
 8306TIP3    H124882   2.653   5.941   2.191  0.6265  0.8162  1.0376
 8306TIP3    H224883   2.644   6.087   2.151  1.2479  0.3342 -0.9689
 8307TIP3   OH224884   2.230   0.391   3.989  0.1276 -0.2096 -0.1661
 8307TIP3    H124885   2.242   0.399   3.895 -1.0149 -0.1738 -0.3158
 8307TIP3    H224886   2.283   0.462   4.026  0.5869 -0.2343 -0.7678
 8308TIP3   OH224887   6.242   1.894   1.782 -0.0399  0.2395  0.3495
 8308TIP3    H124888   6.257   1.955   1.710 -2.7942 -0.3083 -0.8078
 8308TIP3    H224889   6.297   1.818   1.761  0.1499  0.6034 -0.5228
 8309TIP3   OH224890   1.782   5.420   4.480 -0.1851  0.3080  0.0123
 8309TIP3    H124891   1.693   5.386   4.467  0.2987 -0.6782 -0.9645
 8309TIP3    H224892   1.828   5.349   4.524  0.1751  0.7330  0.3254
 8310TIP3   OH224893   2.426   1.682   5.296  0.0858  0.0191 -0.4876
 8310TIP3    H124894   2.504   1.681   5.350  0.4800  1.2568 -1.0010
 8310TIP3    H224895   2.360   1.636   5.348  0.0845  2.2551  1.6300
 8311TIP3   OH224896   0.810   4.466   5.387  0.7544  0.3982 -0.3022
 8311TIP3    H124897   0.763   4.532   5.437  0.9530  1.2782 -1.2366
 8311TIP3    H224898   0.754   4.449   5.311  1.9582  1.5687 -1.5094
 8312TIP3   OH224899   6.609   1.119   4.702 -0.4424 -0.3820 -0.0152
 8312TIP3    H124900   6.531   1.091   4.654  0.0395 -0.2405 -0.9140
 8312TIP3    H224901   6.677   1.126   4.635 -0.2584  1.8189  0.3203
 8313TIP3   OH224902   4.711   6.640   5.308 -0.4837 -0.0302 -0.1392
 8313TIP3    H124903   4.719   6.546   5.323  2.8518  0.5879  4.4462
 8313TIP3    H224904   4.790   6.663   5.258  0.5812  0.5911  1.7335
 8314TIP3   OH224905   4.126   2.197   2.583 -0.0008 -1.2621 -0.5487
 8314TIP3    H124906   4.086   2.111   2.599  1.2446 -1.4552  2.0967
 8314TIP3    H224907   4.201   2.178   2.525 -1.0308 -1.5682 -1.8216
 8315TIP3   OH224908   2.301   3.746   2.466  0.2017 -0.3171  0.2884
 8315TIP3    H124909   2.213   3.740   2.504 -0.2401 -1.2630 -0.8296
 8315TIP3    H224910   2.308   3.837   2.438 -1.2060 -0.6488 -1.3444
 8316TIP3   OH224911   3.650   0.263   0.112  0.2121 -0.1232 -0.3257
 8316TIP3    H124912   3.626   0.279   0.203  0.6242  0.8435 -0.3768
 8316TIP3    H224913   3.595   0.189   0.086  2.7894 -3.1024  1.8613
 8317TIP3   OH224914   4.433   4.628   0.666  0.0119  0.0639  0.2169
 8317TIP3    H124915   4.410   4.720   0.652 -0.6822 -0.2517 -0.8938
 8317TIP3    H224916   4.385   4.603   0.745 -1.5882  0.0851 -0.7015
 8318TIP3   OH224917   4.750   5.902   1.978 -0.0137  0.0092  0.1305
 8318TIP3    H124918   4.761   5.926   2.070  0.2733  0.8983 -0.1185
 8318TIP3    H224919   4.743   5.807   1.978 -3.1343  0.1222  1.3678
 8319TIP3   OH224920   1.247   3.456   2.162  0.4825  0.1222  0.0172
 8319TIP3    H124921   1.271   3.468   2.070 -0.6569 -0.4067 -0.3647
 8319TIP3    H224922   1.324   3.415   2.202  0.4063 -1.1581 -1.0816
 8320TIP3   OH224923   4.857   0.731   0.440  0.3629 -0.2730 -0.4090
 8320TIP3    H124924   4.942   0.729   0.396 -0.4733  0.2990 -2.1323
 8320TIP3    H224925   4.801   0.781   0.381 -1.6053 -1.9980 -0.1040
 8321TIP3   OH224926   1.767   0.930   5.101 -0.3765 -0.3857  0.0652
 8321TIP3    H124927   1.797   0.963   5.185  0.2697 -1.9056  0.4495
 8321TIP3    H224928   1.847   0.914   5.051 -0.7411  0.1425 -0.7106
 8322TIP3   OH224929   6.500   0.709   2.825 -0.2073 -0.1943 -0.9989
 8322TIP3    H124930   6.461   0.648   2.762 -1.6796 -2.1355  1.5704
 8322TIP3    H224931   6.424   0.746   2.871  0.8186 -0.1768  0.7558
 8323TIP3   OH224932   3.502   3.782   0.546 -0.2976 -0.1227 -0.0740
 8323TIP3    H124933   3.420   3.782   0.497 -0.2137  0.3362 -0.2157
 8323TIP3    H224934   3.568   3.754   0.483 -0.0291  1.3853 -0.5143
 8324TIP3   OH224935   3.970   4.148   4.473 -0.0341  0.4270 -0.0481
 8324TIP3    H124936   3.878   4.132   4.451  0.4899 -1.2481 -1.2059
 8324TIP3    H224937   4.016   4.144   4.389  1.5979 -2.8114  0.8595
 8325TIP3   OH224938   6.094   3.526   1.390  0.8228  0.6888 -0.1640
 8325TIP3    H124939   6.017   3.540   1.335  0.8370  0.7788 -0.1605
 8325TIP3    H224940   6.069   3.561   1.476  0.3661 -0.5196  0.2206
 8326TIP3   OH224941   6.218   5.247   3.855 -0.7869 -0.4650  0.0416
 8326TIP3    H124942   6.239   5.340   3.865 -0.2373 -0.6343  0.5340
 8326TIP3    H224943   6.123   5.243   3.865 -0.8305  0.0586 -0.1127
 8327TIP3   OH224944   4.425   5.276   3.122  0.2426  0.5571 -0.4383
 8327TIP3    H124945   4.414   5.328   3.201  0.7927 -1.2450  0.8711
 8327TIP3    H224946   4.518   5.283   3.101  0.0264  1.3634 -1.1971
 8328TIP3   OH224947   2.069   3.074   2.200 -0.1530 -0.4159 -0.0117
 8328TIP3    H124948   2.094   3.161   2.172 -2.2351  1.9678  4.4046
 8328TIP3    H224949   2.149   3.036   2.236  0.4044  0.4013 -0.3557
 8329TIP3   OH224950   4.327   1.499   3.994 -0.6352  0.4013 -0.1786
 8329TIP3    H124951   4.266   1.427   3.979 -0.0415 -0.2752  0.5766
 8329TIP3    H224952   4.314   1.523   4.085  1.1704 -0.6972  0.4352
 8330TIP3   OH224953   6.332   6.661   2.531 -0.3209  0.1718 -0.8266
 8330TIP3    H124954   6.341   6.574   2.569 -2.1671 -0.4786 -1.7411
 8330TIP3    H224955   6.331   6.720   2.607 -1.9212 -0.9106  0.0628
 8331TIP3   OH224956   6.823   3.091   0.516  0.3951 -0.0437  0.6755
 8331TIP3    H124957   6.835   3.093   0.611  2.1246  0.8664  0.4777
 8331TIP3    H224958   6.872   3.166   0.483 -1.4238  0.5660 -0.8490
 8332TIP3   OH224959   4.128   3.442   1.789  0.4670  0.0215  0.5319
 8332TIP3    H124960   4.041   3.425   1.826  1.7477 -2.4607  2.7637
 8332TIP3    H224961   4.161   3.518   1.836 -0.0567  0.2922  0.4654
 8333TIP3   OH224962   0.806   3.779   3.762  0.4215 -0.3415 -0.7912
 8333TIP3    H124963   0.847   3.705   3.716  0.3537 -0.5604 -0.4955
 8333TIP3    H224964   0.716   3.779   3.731  0.5104 -0.1616 -1.0625
 8334TIP3   OH224965   5.903   6.019   3.880  0.0863  0.2850  0.1254
 8334TIP3    H124966   5.913   6.110   3.908 -1.6750  0.3752  0.6298
 8334TIP3    H224967   5.816   6.016   3.841  0.7984 -0.8311 -1.4541
 8335TIP3   OH224968   1.839   5.004   1.532  0.0636  0.1815  0.3253
 8335TIP3    H124969   1.865   4.919   1.496 -1.0903 -0.7536  1.6279
 8335TIP3    H224970   1.833   5.061   1.455  0.6810 -0.9407 -0.5966
 8336TIP3   OH224971   0.357   5.820   1.913  0.2766 -0.0088  0.1834
 8336TIP3    H124972   0.316   5.757   1.973  2.2709  0.6944  2.4298
 8336TIP3    H224973   0.436   5.848   1.958  1.1444  1.6908 -2.2039
 8337TIP3   OH224974   2.922   1.078   4.865  0.5613  0.0472 -0.3462
 8337TIP3    H124975   2.828   1.089   4.854  0.4403 -1.0997 -0.6040
 8337TIP3    H224976   2.931   1.007   4.928  1.2632  0.7744  0.3949
 8338TIP3   OH224977   0.263   4.897   0.131 -0.8122  0.3492  0.7891
 8338TIP3    H124978   0.227   4.961   0.070 -2.3297 -2.2582 -1.3313
 8338TIP3    H224979   0.347   4.872   0.094 -0.9461  0.0017  0.7120
 8339TIP3   OH224980   1.841   3.919   5.190 -0.5513  0.2173 -0.1308
 8339TIP3    H124981   1.789   3.857   5.140 -1.0514 -2.3781  3.2846
 8339TIP3    H224982   1.932   3.896   5.169 -0.6647  1.5380 -2.3823
 8340TIP3   OH224983   5.296   3.341   1.703 -0.1865 -0.3884 -0.2869
 8340TIP3    H124984   5.281   3.382   1.617  0.1210  0.5221  0.0834
 8340TIP3    H224985   5.381   3.298   1.695  0.2577  0.4431 -0.1776
 8341TIP3   OH224986   0.250   6.189   3.031 -0.5002 -0.0168  0.2757
 8341TIP3    H124987   0.285   6.212   2.945 -2.0019 -1.2376 -0.7001
 8341TIP3    H224988   0.322   6.210   3.092  1.2529 -0.7775 -1.4340
 8342TIP3   OH224989   4.569   3.085   3.911 -0.5534  0.0624  0.3438
 8342TIP3    H124990   4.514   3.163   3.901  0.8218  1.5914  3.2696
 8342TIP3    H224991   4.641   3.099   3.850  0.3446  1.8227  1.7232
 8343TIP3   OH224992   7.031   0.666  -0.004 -0.1696  0.3692  0.3641
 8343TIP3    H124993   7.104   0.728  -0.001 -0.1186  0.2796  1.2987
 8343TIP3    H224994   6.965   0.703   0.054  0.2029 -0.8441  1.6284
 8344TIP3   OH224995   2.824   6.711   3.761  0.0858 -0.6237 -0.4203
 8344TIP3    H124996   2.755   6.653   3.791  0.3729 -0.8780 -0.2402
 8344TIP3    H224997   2.807   6.794   3.805 -0.1391 -0.6677 -0.4259
 8345TIP3   OH224998   4.485   1.269   3.535 -0.3906  0.1251 -0.4304
 8345TIP3    H124999   4.508   1.241   3.624 -0.4417  0.1488 -0.4099
 8345TIP3    H225000   4.414   1.211   3.508  0.0659 -0.3116 -0.7056
 8346TIP3   OH225001   2.001   4.133   1.700 -0.1634  0.4213  0.1763
 8346TIP3    H125002   2.084   4.178   1.719 -0.2812  0.7237 -0.0233
 8346TIP3    H225003   2.017   4.088   1.617  0.7953 -1.9870  1.5643
 8347TIP3   OH225004   3.220   4.973   4.285 -0.4146 -0.1959 -0.1728
 8347TIP3    H125005   3.151   5.012   4.339 -0.2562  0.0182 -0.1213
 8347TIP3    H225006   3.174   4.932   4.212 -0.8661 -2.6539  1.3644
 8348TIP3   OH225007   5.086   6.292   0.989  0.0767  0.0406 -0.2252
 8348TIP3    H125008   4.997   6.317   0.966  0.2902  0.1533 -0.9573
 8348TIP3    H225009   5.139   6.324   0.916  0.6612 -0.4059 -0.0006
 8349TIP3   OH225010   2.291   1.174   2.308  0.5321  0.0393  0.4323
 8349TIP3    H125011   2.229   1.109   2.342  0.3631 -0.0385 -0.0239
 8349TIP3    H225012   2.259   1.196   2.221  0.8530  0.3903  0.3970
 8350TIP3   OH225013   7.002   3.873   4.928  0.1118  0.7313 -0.0115
 8350TIP3    H125014   6.917   3.901   4.960 -0.0213  0.2181  0.0940
 8350TIP3    H225015   7.037   3.817   4.998  0.0543  0.0493 -0.5125
 8351TIP3   OH225016   3.282   3.593   2.023  0.4859 -0.1023 -0.0636
 8351TIP3    H125017   3.318   3.601   2.111  1.4595  1.4132 -0.5500
 8351TIP3    H225018   3.281   3.683   1.989  2.2357 -0.8343 -2.3814
 8352TIP3   OH225019   3.529   0.025   3.011 -0.2401  0.0799 -0.0909
 8352TIP3    H125020   3.439   0.038   3.041  0.2745  0.9645  1.1403
 8352TIP3    H225021   3.565  -0.040   3.070  1.1594  2.7080  2.2024
 8353TIP3   OH225022   5.476   2.506   0.637  0.1556 -0.2031  0.2167
 8353TIP3    H125023   5.499   2.579   0.580 -0.5055  0.3015  0.5844
 8353TIP3    H225024   5.467   2.431   0.578  0.5890  0.0578 -0.1902
 8354TIP3   OH225025   1.484   6.773   3.011  0.6346 -0.1132  0.0516
 8354TIP3    H125026   1.496   6.714   2.937  1.1344  2.0160 -1.6648
 8354TIP3    H225027   1.430   6.724   3.072  1.1454 -2.3767 -1.1950
 8355TIP3   OH225028   4.259   1.495   0.226  0.3598 -0.0784 -0.4605
 8355TIP3    H125029   4.254   1.523   0.318  1.2534  1.7728 -0.9113
 8355TIP3    H225030   4.169   1.476   0.201  0.2652 -2.1877  1.2011
 8356TIP3   OH225031   2.179   5.278   2.218 -0.1494  0.0032 -0.5353
 8356TIP3    H125032   2.147   5.367   2.199  1.0223  0.1054 -2.2511
 8356TIP3    H225033   2.131   5.252   2.297 -0.6034  2.1096 -0.0540
 8357TIP3   OH225034   0.872   2.039   0.457  0.2904 -0.2725  0.4385
 8357TIP3    H125035   0.856   2.067   0.547 -0.0984 -0.0629  0.3040
 8357TIP3    H225036   0.962   2.005   0.459  1.2835  2.1772  0.3386
 8358TIP3   OH225037   4.179   4.696   0.564  0.3489 -0.3219  0.5374
 8358TIP3    H125038   4.259   4.647   0.585  1.3888  0.3506 -1.5738
 8358TIP3    H225039   4.108   4.643   0.603  1.7975 -0.5002  3.2361
 8359TIP3   OH225040   4.487   2.259   1.976 -0.4133  0.1735  0.2345
 8359TIP3    H125041   4.452   2.293   2.058 -0.5130 -1.0805  0.7355
 8359TIP3    H225042   4.446   2.173   1.966  0.7944 -0.3619 -0.3257
 8360TIP3   OH225043   0.969   0.691   1.561 -0.2444  0.3176  0.5767
 8360TIP3    H125044   1.032   0.723   1.625 -0.3635  1.6435  0.0571
 8360TIP3    H225045   0.886   0.688   1.608 -0.0803 -0.0529  0.8553
 8361TIP3   OH225046   2.295   5.258   1.795 -0.4996 -0.1015  0.7830
 8361TIP3    H125047   2.347   5.182   1.819  0.5470 -0.0401 -1.0550
 8361TIP3    H225048   2.264   5.238   1.706  0.7087  1.9943 -0.1972
 8362TIP3   OH225049   5.139   5.922   4.493 -0.0962 -0.1773 -0.2939
 8362TIP3    H125050   5.133   6.009   4.452  0.1051 -1.2838 -2.8681
 8362TIP3    H225051   5.052   5.884   4.483 -0.4994  0.0713  1.8161
 8363TIP3   OH225052   3.855   5.461   5.843 -0.0888 -0.5678 -0.4193
 8363TIP3    H125053   3.917   5.511   5.897  0.7775 -0.5323 -1.4098
 8363TIP3    H225054   3.850   5.510   5.761  1.4863 -2.5025 -1.7806
 8364TIP3   OH225055   0.387   3.220   0.973 -0.1620 -0.5123  0.2654
 8364TIP3    H125056   0.355   3.146   0.922  0.6522  0.5283 -1.8967
 8364TIP3    H225057   0.309   3.255   1.017 -1.4368 -0.0410 -2.1879
 8365TIP3   OH225058   0.094   2.628   2.833  0.5218  0.4209 -0.2302
 8365TIP3    H125059   0.152   2.560   2.799  0.2628 -1.2811  2.3495
 8365TIP3    H225060   0.019   2.579   2.868  0.1842  2.0318  1.4800
 8366TIP3   OH225061   0.862   0.274   0.545  0.0637  0.3797 -0.5092
 8366TIP3    H125062   0.950   0.305   0.564  0.4498 -0.4412 -0.8865
 8366TIP3    H225063   0.851   0.291   0.451  0.2523 -0.5051 -0.7054
 8367TIP3   OH225064   6.063   6.124   0.874  0.2350 -0.1104 -0.4197
 8367TIP3    H125065   6.084   6.084   0.790  0.7481 -1.2486  0.2179
 8367TIP3    H225066   6.085   6.216   0.863  1.8178 -0.5321 -1.0450
 8368TIP3   OH225067   4.655   6.061   3.545 -0.1664 -0.2542 -0.1178
 8368TIP3    H125068   4.611   5.976   3.541 -2.2540  0.8127 -1.3174
 8368TIP3    H225069   4.689   6.075   3.457  0.3616  0.0682  0.1304
 8369TIP3   OH225070   6.832   3.979   0.669 -0.8377 -0.2077 -0.2511
 8369TIP3    H125071   6.895   3.911   0.645 -1.8030 -1.0485 -0.4179
 8369TIP3    H225072   6.867   4.015   0.751 -1.1713 -2.0253  0.7271
 8370TIP3   OH225073   6.503   1.895   5.167  0.2558  0.5633  0.0844
 8370TIP3    H125074   6.464   1.813   5.137  1.8722  1.3064 -5.1195
 8370TIP3    H225075   6.430   1.956   5.171 -0.5188 -0.3932  0.9479
 8371TIP3   OH225076   5.796   6.678   0.089  0.1430  0.1848  0.1441
 8371TIP3    H125077   5.733   6.651   0.155  1.1932  0.4721  1.2952
 8371TIP3    H225078   5.854   6.740   0.134  0.7741  0.5274 -1.0875
 8372TIP3   OH225079   0.955   2.551   1.829 -0.0555 -0.2325  0.0957
 8372TIP3    H125080   1.040   2.569   1.790 -0.3278  0.0153 -0.3870
 8372TIP3    H225081   0.973   2.541   1.922  0.6299 -1.0231 -0.1136
 8373TIP3   OH225082   5.298   4.862   1.250  0.0930  0.0991  0.1151
 8373TIP3    H125083   5.211   4.878   1.213  0.1477 -0.8461 -0.4678
 8373TIP3    H225084   5.334   4.949   1.266 -0.8006  0.5044 -0.0216
 8374TIP3   OH225085   6.311   3.584   2.744 -0.8580 -1.1217 -0.7721
 8374TIP3    H125086   6.388   3.641   2.735  0.2655 -1.9001  2.3501
 8374TIP3    H225087   6.241   3.644   2.769 -1.1306 -0.5108 -2.8149
 8375TIP3   OH225088   3.681   5.254   5.799  0.0812 -0.5234 -0.0651
 8375TIP3    H125089   3.586   5.256   5.813  0.3367 -0.0018  1.9469
 8375TIP3    H225090   3.714   5.333   5.842  1.4302 -0.6385 -0.8219
 8376TIP3   OH225091   7.135   5.779   3.398  0.1866 -0.1658 -0.0132
 8376TIP3    H125092   7.080   5.857   3.397  2.0252  1.2140  0.4333
 8376TIP3    H225093   7.077   5.708   3.426 -1.7988  0.7853 -1.4576
 8377TIP3   OH225094   5.750   0.700   2.836 -0.4826 -0.1129 -0.0834
 8377TIP3    H125095   5.725   0.642   2.908  0.3793  1.2222  1.3430
 8377TIP3    H225096   5.667   0.725   2.796 -0.9196 -1.6099 -0.1760
 8378TIP3   OH225097   6.961   6.158   0.234 -0.0656  0.2184 -0.1419
 8378TIP3    H125098   7.009   6.077   0.251 -1.7350 -0.8614 -0.3716
 8378TIP3    H225099   7.003   6.194   0.156  2.4860  1.0717  1.5070
 8379TIP3   OH225100   3.763   0.538   0.468  0.2558  0.0770 -0.2108
 8379TIP3    H125101   3.847   0.545   0.514  0.0885  1.2149 -0.0467
 8379TIP3    H225102   3.734   0.628   0.457 -0.3796 -0.2469 -1.3402
 8380TIP3   OH225103   1.375   0.397   2.613 -0.2633 -0.8579  0.4076
 8380TIP3    H125104   1.461   0.440   2.607 -0.2788 -1.0550 -3.1723
 8380TIP3    H225105   1.384   0.338   2.688  1.8403  0.8678  1.6723
 8381TIP3   OH225106   0.450   1.074   1.368 -0.5853  0.0519  0.0109
 8381TIP3    H125107   0.454   1.031   1.453 -0.5772  1.7048  0.9057
 8381TIP3    H225108   0.356   1.080   1.348 -0.6366  0.4939  0.3699
 8382TIP3   OH225109   5.776   5.606   5.105  0.2176 -0.2683  0.4397
 8382TIP3    H125110   5.698   5.555   5.081 -1.4652  1.3521  2.1794
 8382TIP3    H225111   5.746   5.696   5.107  1.3940  0.1677  3.7953
 8383TIP3   OH225112   2.750   1.892   4.028 -0.3130  0.2480 -0.6926
 8383TIP3    H125113   2.724   1.955   4.094 -3.4702 -1.3166 -0.2508
 8383TIP3    H225114   2.697   1.914   3.951  0.0344 -0.6046 -1.1914
 8384TIP3   OH225115   3.475   3.660   5.403 -0.1326 -0.9782 -0.0282
 8384TIP3    H125116   3.555   3.681   5.450  0.4633 -1.3994 -0.8370
 8384TIP3    H225117   3.490   3.693   5.314 -0.5989 -1.6262 -0.3551
 8385TIP3   OH225118   0.908   0.276   4.809 -0.6077  0.2110  0.0520
 8385TIP3    H125119   0.931   0.368   4.798  0.8833 -0.3298 -2.0056
 8385TIP3    H225120   0.936   0.254   4.897  3.5061  0.6118 -0.9560
 8386TIP3   OH225121   0.945   5.043   0.664 -0.6453 -0.6712 -0.0255
 8386TIP3    H125122   1.020   4.983   0.670 -1.1663 -1.3948 -0.6160
 8386TIP3    H225123   0.915   5.053   0.754 -0.2679 -0.9232  0.1313
 8387TIP3   OH225124   0.553   1.948   3.800 -0.0370  0.1037  0.1536
 8387TIP3    H125125   0.522   1.864   3.766  0.5431 -0.1309  0.1984
 8387TIP3    H225126   0.497   1.965   3.875 -0.8949  0.3060 -0.5093
 8388TIP3   OH225127   3.770   2.861   2.894  0.3473  0.4560  0.4172
 8388TIP3    H125128   3.730   2.929   2.841 -1.8166 -0.5239  0.6494
 8388TIP3    H225129   3.775   2.898   2.982 -0.5265  0.4567  0.4766
 8389TIP3   OH225130   6.370   0.532   2.652 -0.0898  0.2980  0.0991
 8389TIP3    H125131   6.357   0.443   2.619  0.0262 -0.0519  0.9689
 8389TIP3    H225132   6.378   0.586   2.574  4.0908 -1.0206 -0.6195
 8390TIP3   OH225133   5.211   1.437   2.704  0.1602  0.1652 -0.2193
 8390TIP3    H125134   5.193   1.462   2.794 -0.5570 -0.1213 -0.2804
 8390TIP3    H225135   5.235   1.344   2.709  1.4696  0.4808 -0.1641
 8391TIP3   OH225136   2.537   5.030   4.240 -0.3163 -0.0963  0.1238
 8391TIP3    H125137   2.482   5.021   4.163 -0.6123 -0.1588  0.3389
 8391TIP3    H225138   2.602   5.096   4.216 -1.5880  1.3625  0.4704
 8392TIP3   OH225139   5.931   0.730   0.403  0.1215 -0.2077 -0.6275
 8392TIP3    H125140   5.844   0.766   0.389 -0.7749 -2.3090 -0.9596
 8392TIP3    H225141   5.973   0.735   0.317  0.4975  1.1787 -0.3730
 8393TIP3   OH225142   6.518   0.320   4.302 -0.5019 -0.1453 -0.1115
 8393TIP3    H125143   6.524   0.383   4.231 -2.7844  0.6260  0.3136
 8393TIP3    H225144   6.494   0.371   4.379 -0.5889 -1.2981  0.6649
 8394TIP3   OH225145   0.550   1.345   0.075 -0.0332 -0.6687  0.0307
 8394TIP3    H125146   0.456   1.355   0.057  0.3037 -0.0435 -1.4808
 8394TIP3    H225147   0.577   1.270   0.023  0.1296 -1.4568  1.2222
 8395TIP3   OH225148   4.680   1.748   1.735  0.2332  0.4587 -0.1648
 8395TIP3    H125149   4.770   1.714   1.735  0.2078  0.3904 -0.2730
 8395TIP3    H225150   4.688   1.837   1.702  0.2209  0.3401 -0.4980
 8396TIP3   OH225151   0.967   3.678   3.379 -0.3305  0.5760  0.0198
 8396TIP3    H125152   0.973   3.762   3.425 -0.5692 -0.1197  1.3749
 8396TIP3    H225153   1.040   3.627   3.415 -0.7957 -0.1402 -0.0537
 8397TIP3   OH225154   6.632   4.122   3.341  0.3779  0.0398 -0.2226
 8397TIP3    H125155   6.724   4.094   3.343  1.3638  2.9287 -1.1859
 8397TIP3    H225156   6.607   4.127   3.433  1.8572  1.1746  0.1534
 8398TIP3   OH225157   0.960   2.315   4.158 -0.0500  0.0497 -0.4405
 8398TIP3    H125158   0.982   2.226   4.185 -1.0809  0.2967  1.3386
 8398TIP3    H225159   0.930   2.358   4.238 -3.1723  0.8861 -1.8909
 8399TIP3   OH225160   4.173   6.359   0.777  0.3585  0.1334 -0.3701
 8399TIP3    H125161   4.196   6.440   0.822  0.6166  0.0734 -0.3967
 8399TIP3    H225162   4.249   6.339   0.723 -0.2503  0.6414 -1.4542
 8400TIP3   OH225163   3.745   6.779   2.007  0.3540  0.5518  0.3565
 8400TIP3    H125164   3.811   6.846   1.988  1.3727 -0.4822  0.1355
 8400TIP3    H225165   3.782   6.698   1.973 -0.5950 -0.2390  1.1280
 8401TIP3   OH225166   6.294   5.097   2.250 -0.2218  0.7868 -0.1672
 8401TIP3    H125167   6.365   5.140   2.203 -0.8407 -0.3782 -2.3416
 8401TIP3    H225168   6.326   5.008   2.266 -1.0967  0.2955 -1.0410
 8402TIP3   OH225169   5.862   2.125   0.280 -0.1506  0.1509  0.1719
 8402TIP3    H125170   5.884   2.133   0.372  1.6633  0.4796 -0.2545
 8402TIP3    H225171   5.946   2.130   0.234 -1.0909  1.0984 -1.5668
 8403TIP3   OH225172   0.118   5.290   4.459  0.0489 -0.1815 -0.3129
 8403TIP3    H125173   0.140   5.273   4.551 -0.8053 -0.9283 -0.2268
 8403TIP3    H225174   0.120   5.385   4.451 -1.0937 -0.0246  0.8214
 8404TIP3   OH225175   7.174   5.720   1.980 -0.2024 -0.4705  0.3145
 8404TIP3    H125176   7.238   5.780   2.018 -2.2096  0.7807  1.8947
 8404TIP3    H225177   7.148   5.663   2.052 -2.0581  0.1343  0.1734
 8405TIP3   OH225178   0.470   0.983   0.233  0.0178 -0.1739 -0.0078
 8405TIP3    H125179   0.431   1.030   0.306 -0.5785  0.9388 -1.0188
 8405TIP3    H225180   0.410   0.997   0.160  1.8521  0.8816 -1.3904
 8406TIP3   OH225181   4.707   0.734   3.811 -0.3994  0.3479 -0.2659
 8406TIP3    H125182   4.692   0.797   3.741 -3.1280  0.3739  0.2367
 8406TIP3    H225183   4.705   0.787   3.891  2.5929  0.3083 -0.0277
 8407TIP3   OH225184   2.118   5.414   2.574 -0.5285  0.0430 -0.2685
 8407TIP3    H125185   2.206   5.392   2.541 -0.3328  0.2435  0.1121
 8407TIP3    H225186   2.134   5.477   2.644 -1.0647  1.1824 -1.1451
 8408TIP3   OH225187   5.351   2.128   1.884  0.1297  0.1010 -0.0807
 8408TIP3    H125188   5.442   2.132   1.912 -0.2196  1.2736  0.9721
 8408TIP3    H225189   5.326   2.036   1.895  1.2249 -0.2668 -0.5610
 8409TIP3   OH225190   0.055   6.410   3.516  0.4639 -0.6464  0.7047
 8409TIP3    H125191   0.078   6.399   3.608  1.2127  0.3235  0.6473
 8409TIP3    H225192   0.128   6.459   3.478 -0.3835  0.0200 -0.1292
 8410TIP3   OH225193   5.861   6.000   3.023 -0.7908 -0.2069 -0.4328
 8410TIP3    H125194   5.877   5.905   3.027  1.4067  0.1320  0.8701
 8410TIP3    H225195   5.866   6.021   2.930 -0.5126 -1.2739 -0.6757
 8411TIP3   OH225196   0.427   2.604   4.431  0.6959 -0.0786 -0.0818
 8411TIP3    H125197   0.376   2.621   4.510 -0.3241 -3.1247  0.0560
 8411TIP3    H225198   0.383   2.654   4.363 -0.1740  0.3257  0.7518
 8412TIP3   OH225199   3.674   1.421   1.040  0.1089  0.7719 -0.3060
 8412TIP3    H125200   3.617   1.498   1.041 -0.6855  0.3099  2.9206
 8412TIP3    H225201   3.651   1.374   0.960 -1.5621  2.3268 -0.8084
 8413TIP3   OH225202   6.204   6.098   5.003  0.1811 -0.1775  0.1767
 8413TIP3    H125203   6.286   6.105   4.955  0.8897  1.1931  1.5107
 8413TIP3    H225204   6.228   6.059   5.087 -0.1471  2.0887  1.3857
 8414TIP3   OH225205   2.458   4.080   4.846  0.2097 -0.3524  0.2839
 8414TIP3    H125206   2.418   4.034   4.920  0.1008 -0.2584  0.2839
 8414TIP3    H225207   2.507   4.152   4.887  2.1456 -1.6971  0.4661
 8415TIP3   OH225208   4.680   0.442   1.077  0.4144 -0.0296 -0.0694
 8415TIP3    H125209   4.621   0.393   1.020  0.5769  0.1171 -0.3721
 8415TIP3    H225210   4.695   0.525   1.030 -0.0730  0.4250  0.5644
 8416TIP3   OH225211   2.573   1.344   1.682 -0.5477  0.3196 -0.1360
 8416TIP3    H125212   2.633   1.385   1.620 -0.4574 -0.8118 -0.8194
 8416TIP3    H225213   2.504   1.409   1.695 -0.0418  0.9673 -0.6408
 8417TIP3   OH225214   1.476   2.360   1.038  0.4944 -0.3493 -0.0593
 8417TIP3    H125215   1.547   2.369   1.101 -0.6832  1.9836  1.0667
 8417TIP3    H225216   1.479   2.441   0.987 -0.6059 -0.7424 -0.7834
 8418TIP3   OH225217   6.312   0.832   2.528  0.5783 -0.2006  0.4171
 8418TIP3    H125218   6.300   0.892   2.601  0.7775  3.0634 -1.9615
 8418TIP3    H225219   6.224   0.822   2.491  0.6802 -0.6899  0.3036
 8419TIP3   OH225220   6.831   3.342   3.083  0.5287 -0.7029  0.4320
 8419TIP3    H125221   6.785   3.399   3.146  2.9239  2.0553 -0.1054
 8419TIP3    H225222   6.831   3.256   3.125 -3.9072 -0.6716  1.0085
 8420TIP3   OH225223   0.569   3.440   5.762  0.2753 -0.3593 -0.7056
 8420TIP3    H125224   0.493   3.389   5.733 -1.1284  1.1017  0.2669
 8420TIP3    H225225   0.594   3.491   5.685 -0.6678  0.2497 -0.6146
 8421TIP3   OH225226   7.094   6.758   0.484 -0.0459 -0.0539 -0.0373
 8421TIP3    H125227   7.066   6.666   0.487 -0.4159  0.0696  0.5427
 8421TIP3    H225228   7.122   6.777   0.574 -2.3958  1.1279  0.5221
 8422TIP3   OH225229   0.983   6.375   0.293 -0.2781 -0.1085 -0.0845
 8422TIP3    H125230   0.915   6.403   0.354 -0.6308 -1.9478  0.4238
 8422TIP3    H225231   0.981   6.441   0.223 -2.9456 -0.3450 -0.3455
 8423TIP3   OH225232   2.288   6.161   2.836  0.2798 -0.8235 -0.1211
 8423TIP3    H125233   2.231   6.121   2.771 -2.9655  1.2255  1.2148
 8423TIP3    H225234   2.293   6.253   2.809  0.4868 -0.3585  1.4108
 8424TIP3   OH225235   1.493   2.714   2.302  0.0469 -0.4493 -0.3301
 8424TIP3    H125236   1.430   2.642   2.306 -1.4931  0.7714 -1.3096
 8424TIP3    H225237   1.449   2.781   2.250  1.6861  0.9592  0.0151
 8425TIP3   OH225238   5.898   2.514   2.647 -0.2499  0.5362  0.3064
 8425TIP3    H125239   5.911   2.586   2.708  0.3158  0.1568  0.6529
 8425TIP3    H225240   5.882   2.555   2.562 -1.1626  1.0722  0.7297
 8426TIP3   OH225241   2.718   1.449   0.723  0.0938  0.1843  0.5595
 8426TIP3    H125242   2.636   1.423   0.764  0.3738 -0.9432  0.4269
 8426TIP3    H225243   2.717   1.407   0.637  0.5651  0.6126  0.3369
 8427TIP3   OH225244   1.908   6.185   4.380 -0.2747 -0.2713  0.3589
 8427TIP3    H125245   1.899   6.278   4.361  2.2256 -0.1908 -0.8804
 8427TIP3    H225246   1.872   6.175   4.468 -1.5795  1.6315  0.1039
 8428TIP3   OH225247   2.555   1.827   0.694 -0.3736  0.0075  0.1908
 8428TIP3    H125248   2.649   1.809   0.685  0.0412  2.0061 -0.0316
 8428TIP3    H225249   2.523   1.831   0.603 -0.6936 -0.7140  0.2669
 8429TIP3   OH225250   0.695   4.559   4.637  0.2579 -0.3809 -0.1061
 8429TIP3    H125251   0.662   4.625   4.576  0.7108  0.3205  0.3965
 8429TIP3    H225252   0.650   4.479   4.612  0.0337  0.0175 -1.0155
 8430TIP3   OH225253   0.897   6.045   4.792 -0.1851 -0.1802  0.3651
 8430TIP3    H125254   0.886   6.053   4.887 -0.0438 -0.5460  0.4175
 8430TIP3    H225255   0.823   5.992   4.764 -0.2688 -0.0064  0.2606
 8431TIP3   OH225256   2.494   1.632   4.831 -0.1538  0.1246 -0.1112
 8431TIP3    H125257   2.573   1.607   4.879 -0.1410  0.2895 -0.0468
 8431TIP3    H225258   2.444   1.686   4.892 -0.2927  0.0636 -0.1690
 8432TIP3   OH225259   2.799   4.423   2.711  0.1409  0.1397  0.9653
 8432TIP3    H125260   2.767   4.413   2.621 -0.8134 -0.1486  1.3193
 8432TIP3    H225261   2.815   4.517   2.720 -0.0771  0.2151  0.5961
 8433TIP3   OH225262   0.293   3.493   1.118  0.1548  0.0327 -0.3932
 8433TIP3    H125263   0.374   3.540   1.097  0.6022 -0.9214 -0.8264
 8433TIP3    H225264   0.261   3.460   1.035 -1.2017  1.1624 -0.3714
 8434TIP3   OH225265   5.243   4.061   2.508 -0.2352 -0.3725  0.1799
 8434TIP3    H125266   5.197   3.981   2.535 -0.5868 -0.6397 -1.1439
 8434TIP3    H225267   5.335   4.036   2.509 -0.2509 -0.4415  0.8648
 8435TIP3   OH225268   1.759   0.887   4.388 -0.5962  0.2219  0.4768
 8435TIP3    H125269   1.665   0.898   4.397 -0.5898  0.4200  0.3013
 8435TIP3    H225270   1.781   0.817   4.450 -0.6461  1.1173  1.5403
 8436TIP3   OH225271   3.315   4.422   1.703 -0.1694 -0.9541 -0.3805
 8436TIP3    H125272   3.278   4.363   1.638 -1.8073  0.0367 -0.3917
 8436TIP3    H225273   3.258   4.498   1.702  2.1001  0.8678 -0.6809
 8437TIP3   OH225274   7.038   3.617   5.762  0.0004 -0.1341 -0.0041
 8437TIP3    H125275   7.079   3.698   5.731 -1.8748  0.9197  0.0922
 8437TIP3    H225276   7.106   3.551   5.754  1.6967  1.5066  0.1833
 8438TIP3   OH225277   6.333   4.713   2.876 -0.0340  0.5303 -0.7333
 8438TIP3    H125278   6.328   4.785   2.813  0.6254  3.1207  1.9281
 8438TIP3    H225279   6.243   4.701   2.905 -0.0368  0.8283 -0.6183
 8439TIP3   OH225280   1.863   3.691   3.911  0.4612  0.5256 -0.2877
 8439TIP3    H125281   1.777   3.650   3.899  0.5750 -0.2469  1.2829
 8439TIP3    H225282   1.847   3.761   3.974  1.2629 -0.7456  1.3898
 8440TIP3   OH225283   7.073   5.554   1.166 -0.7479 -0.0546  0.4469
 8440TIP3    H125284   6.996   5.519   1.122  0.6643 -4.8515  1.2893
 8440TIP3    H225285   7.046   5.562   1.258 -0.5540 -0.6041  0.5492
 8441TIP3   OH225286   0.631   5.759   2.419  0.0227 -0.2743  0.6574
 8441TIP3    H125287   0.708   5.721   2.377 -0.7484 -1.0810 -0.0652
 8441TIP3    H225288   0.666   5.825   2.479  1.2693 -0.6607  0.3737
 8442TIP3   OH225289   1.049   5.354   3.375  0.0463  0.4335  0.3659
 8442TIP3    H125290   1.115   5.285   3.374 -0.0236  0.3690  0.1742
 8442TIP3    H225291   1.095   5.433   3.348 -0.2468  0.1228 -1.1621
 8443TIP3   OH225292   0.998   0.299   3.521  0.4728 -0.0613  0.1274
 8443TIP3    H125293   1.044   0.255   3.450  1.2653  1.8469 -0.6109
 8443TIP3    H225294   0.965   0.379   3.481 -1.5292 -0.2773  1.2326
 8444TIP3   OH225295   2.111   4.473   2.411 -0.0934  0.2781 -0.1138
 8444TIP3    H125296   2.080   4.561   2.428  1.0033  0.9240 -1.2699
 8444TIP3    H225297   2.196   4.468   2.453 -0.1378 -0.2173 -0.0740
 8445TIP3   OH225298   2.607   2.552   0.283  0.3422  0.4366 -0.0625
 8445TIP3    H125299   2.549   2.570   0.209 -0.2459 -1.5291 -0.1251
 8445TIP3    H225300   2.693   2.541   0.243  0.3238  0.9614 -0.2532
 8446TIP3   OH225301   4.160   3.754   3.710 -0.5176 -0.0757 -0.1396
 8446TIP3    H125302   4.106   3.811   3.765 -0.3924  0.3937 -0.4936
 8446TIP3    H225303   4.196   3.689   3.770 -1.4425 -0.3751  0.1133
 8447TIP3   OH225304   2.165   6.279   5.784 -0.3872 -0.4051  0.1176
 8447TIP3    H125305   2.211   6.206   5.741 -1.1623 -0.9555  0.2062
 8447TIP3    H225306   2.073   6.252   5.784 -0.9870  1.3983 -1.5693
 8448TIP3   OH225307   4.001   0.945   2.450 -0.0458 -0.0604 -1.0520
 8448TIP3    H125308   4.055   1.000   2.507 -0.4316  0.1723 -0.9123
 8448TIP3    H225309   4.021   0.855   2.478  0.9606 -0.0328 -1.6128
 8449TIP3   OH225310   1.448   3.157   5.521  0.0868 -0.4372  0.6860
 8449TIP3    H125311   1.533   3.116   5.537  0.2857 -0.4492 -0.3525
 8449TIP3    H225312   1.388   3.084   5.508  0.5940 -0.4778 -1.9672
 8450TIP3   OH225313   3.923   6.220   2.155  0.2051  0.4892 -0.5397
 8450TIP3    H125314   3.987   6.159   2.191  2.5176  0.8895 -3.5744
 8450TIP3    H225315   3.838   6.176   2.165  1.5059 -2.1315 -0.4912
 8451TIP3   OH225316   3.185   1.787   5.540 -0.0602  0.1738  0.4163
 8451TIP3    H125317   3.222   1.782   5.628  1.3532 -0.5572 -0.1815
 8451TIP3    H225318   3.249   1.836   5.489 -0.2734 -0.4297 -0.4707
 8452TIP3   OH225319   6.249   6.149   1.670 -0.2958  0.0603 -0.1855
 8452TIP3    H125320   6.293   6.159   1.755 -0.1841 -1.8339  0.0216
 8452TIP3    H225321   6.238   6.238   1.638  0.3111  0.7739  1.4938
 8453TIP3   OH225322   1.622   5.808   5.168  0.4224 -0.2346 -0.3892
 8453TIP3    H125323   1.577   5.823   5.251 -0.1161 -1.4020 -0.4489
 8453TIP3    H225324   1.711   5.841   5.182  0.6689 -1.3874  1.0359
 8454TIP3   OH225325   5.114   2.802   1.672  0.0134 -0.2169  0.0176
 8454TIP3    H125326   5.144   2.762   1.754  0.9804  0.2060 -0.1063
 8454TIP3    H225327   5.019   2.791   1.673 -0.1465  0.8213  1.7839
 8455TIP3   OH225328   4.401   2.916   3.157 -0.1535 -0.0184 -0.4421
 8455TIP3    H125329   4.408   2.838   3.212  0.6705  1.0251  0.9906
 8455TIP3    H225330   4.483   2.918   3.108  0.9904  1.2734  1.4087
 8456TIP3   OH225331   0.832   1.730   1.458 -0.1540  0.0148  0.0797
 8456TIP3    H125332   0.771   1.756   1.389  0.5864  0.6981 -0.3383
 8456TIP3    H225333   0.881   1.656   1.420  0.0909  0.2378 -0.0421
 8457TIP3   OH225334   5.933   0.934   1.341  0.4634 -0.3796  0.3894
 8457TIP3    H125335   5.944   1.001   1.408  1.9824  0.6913 -0.8408
 8457TIP3    H225336   5.872   0.972   1.278 -0.6929 -1.2386  0.9713
 8458TIP3   OH225337   5.574   4.513   3.385 -0.7418 -0.0241 -0.1753
 8458TIP3    H125338   5.660   4.475   3.369 -0.9027 -0.2399 -0.5461
 8458TIP3    H225339   5.523   4.441   3.422 -1.1097 -0.2402 -1.0785
 8459TIP3   OH225340   5.967   0.485   3.285 -0.5370  0.6125 -0.0066
 8459TIP3    H125341   6.039   0.423   3.297  1.1869  2.4820 -0.1494
 8459TIP3    H225342   5.989   0.532   3.205 -1.9194  1.2356 -0.0460
 8460TIP3   OH225343   1.797   0.422   5.655 -0.6348 -0.1190  0.0555
 8460TIP3    H125344   1.845   0.341   5.636 -2.8309 -2.5204  3.4765
 8460TIP3    H225345   1.862   0.481   5.691  0.9988 -0.3167 -2.3454
 8461TIP3   OH225346   3.126   4.423   2.199 -0.1826  0.0735 -0.5237
 8461TIP3    H125347   3.203   4.367   2.192 -0.9332 -1.0105 -0.2493
 8461TIP3    H225348   3.071   4.381   2.264 -0.6383  1.2929 -0.0889
 8462TIP3   OH225349   3.684   6.220   1.452  0.3134  0.3382 -0.3499
 8462TIP3    H125350   3.676   6.228   1.357  0.5203  0.2785 -0.3738
 8462TIP3    H225351   3.610   6.269   1.487  0.9893  1.4934 -0.5107
 8463TIP3   OH225352   1.599   6.680   3.504 -0.3300 -0.3154  0.2363
 8463TIP3    H125353   1.528   6.628   3.543 -0.2912 -1.2543 -0.8727
 8463TIP3    H225354   1.602   6.760   3.555 -2.6889  0.0686 -0.1284
 8464TIP3   OH225355   4.330   0.826   2.605  0.7922 -0.6861  0.4540
 8464TIP3    H125356   4.269   0.821   2.532  1.0074  0.4732  0.1705
 8464TIP3    H225357   4.394   0.757   2.588 -0.1437 -1.5777  0.4940
 8465TIP3   OH225358   0.396   5.653   0.130 -0.1970  0.1567  0.5828
 8465TIP3    H125359   0.370   5.579   0.075  1.2162  0.3927 -0.4480
 8465TIP3    H225360   0.490   5.641   0.143 -0.3610  0.5368  2.3308
 8466TIP3   OH225361   5.849   3.283   4.737 -0.3629  0.1661 -0.3553
 8466TIP3    H125362   5.787   3.257   4.804  0.2421  0.7352  0.4386
 8466TIP3    H225363   5.844   3.379   4.735 -1.3794  0.1265 -2.1014
 8467TIP3   OH225364   6.207   4.383   4.404 -0.2424  0.3227 -0.1113
 8467TIP3    H125365   6.201   4.289   4.389  3.7189 -0.4254  1.8509
 8467TIP3    H225366   6.125   4.418   4.367 -2.1761 -3.8671 -0.3855
 8468TIP3   OH225367   6.637   0.115   0.135 -0.3888  0.3789 -0.2397
 8468TIP3    H125368   6.554   0.156   0.111 -0.5365 -0.3281 -1.0012
 8468TIP3    H225369   6.703   0.168   0.090 -0.3629  1.2594  0.7875
 8469TIP3   OH225370   0.003   6.045   4.819  0.2414 -0.4662  0.0824
 8469TIP3    H125371  -0.072   6.088   4.779  0.3204  0.7864  1.2007
 8469TIP3    H225372   0.079   6.086   4.777  0.3609  1.8122  2.2863
 8470TIP3   OH225373   3.126   4.290   2.456  0.1068 -0.0447  0.2639
 8470TIP3    H125374   3.212   4.295   2.496 -0.6129  0.5766  1.8099
 8470TIP3    H225375   3.102   4.197   2.464 -0.5861  0.2708  2.6254
 8471TIP3   OH225376   4.790   4.399   5.020  0.2977 -0.4407  0.0286
 8471TIP3    H125377   4.820   4.316   5.058  0.6791 -0.4956 -0.3863
 8471TIP3    H225378   4.746   4.374   4.939  0.8831 -0.2035 -0.3739
 8472TIP3   OH225379   0.751   6.307   5.748 -0.1916  0.0168 -1.1032
 8472TIP3    H125380   0.683   6.240   5.753  0.3101 -0.4931 -1.0193
 8472TIP3    H225381   0.708   6.387   5.776 -0.9414 -0.1605 -1.7040
 8473TIP3   OH225382   2.859   4.172   2.780 -0.8172  0.6981 -0.4933
 8473TIP3    H125383   2.807   4.119   2.720 -2.0223  1.4811 -0.1716
 8473TIP3    H225384   2.845   4.262   2.751  2.1728  0.8540 -1.7971
 8474TIP3   OH225385   0.548   1.064   0.734  0.7858  0.3611 -0.2523
 8474TIP3    H125386   0.588   1.023   0.811 -0.2949  0.4283  0.3537
 8474TIP3    H225387   0.623   1.086   0.678  1.5304 -0.4392  0.3973
 8475TIP3   OH225388   3.184   6.574   3.402 -0.0025  0.1896 -1.0968
 8475TIP3    H125389   3.122   6.591   3.473 -0.7033  1.1111 -1.8939
 8475TIP3    H225390   3.175   6.480   3.385  0.5670 -0.1502  0.3661
 8476TIP3   OH225391   4.917   0.363   4.191 -0.2279 -0.1432  0.6504
 8476TIP3    H125392   4.947   0.431   4.251 -0.6421 -0.1184  0.8373
 8476TIP3    H225393   4.856   0.409   4.132  0.9590  0.0546 -0.4536
 8477TIP3   OH225394   1.062   1.652   3.835  0.2061  0.0717  0.1117
 8477TIP3    H125395   1.041   1.575   3.888  3.7628  0.4264  2.3656
 8477TIP3    H225396   1.106   1.617   3.758  0.8521 -0.1981  0.6019
 8478TIP3   OH225397   3.525   1.861   0.448  0.1992  0.5707  0.4254
 8478TIP3    H125398   3.602   1.917   0.458 -0.1079  0.9466  0.7839
 8478TIP3    H225399   3.558   1.772   0.458  0.9332  0.5677 -1.5653
 8479TIP3   OH225400   1.251   6.295   0.262 -0.5591 -0.0574  0.0823
 8479TIP3    H125401   1.182   6.334   0.315  0.7562  0.9524  1.1205
 8479TIP3    H225402   1.233   6.325   0.173  0.2307  2.8173  0.7884
 8480TIP3   OH225403   0.405   2.681   1.077 -0.2991  0.0700 -0.7925
 8480TIP3    H125404   0.376   2.656   0.990 -0.1880 -1.0581 -0.5227
 8480TIP3    H225405   0.372   2.611   1.134  0.3486  0.3518 -0.0557
 8481TIP3   OH225406   1.916   1.836   2.037  0.0919 -0.0990  0.3630
 8481TIP3    H125407   1.967   1.797   2.108 -1.7901 -0.8584  1.3656
 8481TIP3    H225408   1.960   1.919   2.020  0.9022 -0.1155  2.0789
 8482TIP3   OH225409   1.833   3.662   0.953  0.2957 -0.3508  0.3655
 8482TIP3    H125410   1.782   3.581   0.961 -0.0803 -0.1022  0.5089
 8482TIP3    H225411   1.899   3.656   1.022  1.1850 -1.1894 -0.5269
 8483TIP3   OH225412   1.299   5.729   2.933  0.4404  0.1499 -0.1865
 8483TIP3    H125413   1.328   5.723   3.024 -0.1226 -1.1732 -0.0710
 8483TIP3    H225414   1.206   5.706   2.936  0.2972  0.5875 -1.0328
 8484TIP3   OH225415   3.472  -0.004   4.752 -0.1425 -0.5672 -0.9036
 8484TIP3    H125416   3.411  -0.046   4.692  0.9068 -1.9659 -1.0481
 8484TIP3    H225417   3.515   0.063   4.699 -0.9007 -0.1905 -1.0467
 8485TIP3   OH225418   5.440   2.116   5.750 -0.3169  0.1879 -0.2559
 8485TIP3    H125419   5.422   2.050   5.682  1.5895 -0.4164 -0.2315
 8485TIP3    H225420   5.514   2.166   5.716 -0.6801  1.2611  0.4756
 8486TIP3   OH225421   6.395   0.850   1.809 -0.1251 -0.3656 -0.2969
 8486TIP3    H125422   6.355   0.910   1.745 -2.0758  0.5921  1.7038
 8486TIP3    H225423   6.338   0.854   1.885  1.9093 -1.7400  1.4235
 8487TIP3   OH225424   0.875   5.821   3.318  0.1499  0.1582 -0.2630
 8487TIP3    H125425   0.844   5.755   3.256  2.3483 -1.0807 -0.1325
 8487TIP3    H225426   0.796   5.868   3.344 -1.2378 -1.2311 -1.7392
 8488TIP3   OH225427   3.126   1.214   0.798 -0.5540 -0.1822 -0.5641
 8488TIP3    H125428   3.166   1.285   0.748 -1.3507  0.0964 -0.8343
 8488TIP3    H225429   3.137   1.136   0.743  1.9146 -0.6780  0.5185
 8489TIP3   OH225430   1.808   4.540   1.366 -0.3211  0.3358 -0.7458
 8489TIP3    H125431   1.868   4.590   1.422  1.7699 -0.3366 -2.2249
 8489TIP3    H225432   1.726   4.589   1.369  0.5400  1.8097  0.7226
 8490TIP3   OH225433   4.293   6.341   4.033 -0.0874  0.2078 -0.0186
 8490TIP3    H125434   4.285   6.285   3.956  1.2843 -1.5053  1.0121
 8490TIP3    H225435   4.261   6.427   4.004 -0.6840 -0.6765 -2.1337
 8491TIP3   OH225436   7.159   3.273   4.920  0.4101 -0.0226  0.7515
 8491TIP3    H125437   7.198   3.259   5.006 -0.2373 -2.5276  0.7184
 8491TIP3    H225438   7.232   3.270   4.859  0.7226  0.4750  1.0965
 8492TIP3   OH225439   0.288   0.058   2.735 -0.9390  0.1155  0.5027
 8492TIP3    H125440   0.297   0.044   2.640  1.0041 -0.2959  0.7102
 8492TIP3    H225441   0.251  -0.024   2.767 -0.8934 -0.0323  0.1831
 8493TIP3   OH225442   0.201   3.761   3.948  0.0394 -0.0739  0.4803
 8493TIP3    H125443   0.169   3.851   3.953  0.2376 -0.0218  0.9074
 8493TIP3    H225444   0.205   3.732   4.039 -0.0051 -0.5089  0.3469
 8494TIP3   OH225445   6.002   4.742   4.659  0.1797 -0.4243 -0.0642
 8494TIP3    H125446   6.068   4.684   4.621  0.7456 -0.7771  1.3893
 8494TIP3    H225447   6.004   4.722   4.753 -0.2892  1.2712  0.3392
 8495TIP3   OH225448   1.888   2.626   5.143  0.6331  0.4735 -0.3187
 8495TIP3    H125449   1.948   2.612   5.216 -0.0656  0.9420  0.3740
 8495TIP3    H225450   1.929   2.695   5.091 -0.5413  2.8948  1.6896
 8496TIP3   OH225451   1.495   2.656   5.503 -0.1538  0.2977 -0.1639
 8496TIP3    H125452   1.566   2.642   5.566  0.2323  1.1264 -0.4090
 8496TIP3    H225453   1.536   2.646   5.417 -0.8317 -1.5737 -0.3090
 8497TIP3   OH225454   3.839   1.333   5.434  0.0778  0.4710 -0.1903
 8497TIP3    H125455   3.750   1.351   5.464 -0.4967 -0.7289 -1.0548
 8497TIP3    H225456   3.857   1.244   5.464  1.9976  1.5346  2.1494
 8498TIP3   OH225457   5.326   3.864   3.631 -0.2410 -0.6567  0.7783
 8498TIP3    H125458   5.255   3.828   3.682  0.6321 -1.6620  1.3225
 8498TIP3    H225459   5.405   3.820   3.664  0.5349 -0.1711 -0.3491
 8499TIP3   OH225460   3.576   1.153   5.643  0.2067  0.0505  0.0475
 8499TIP3    H125461   3.644   1.104   5.595  0.0734 -0.6907  0.5914
 8499TIP3    H225462   3.557   1.228   5.587 -0.5349 -1.2133 -1.4742
 8500TIP3   OH225463   5.262   1.446   5.843 -0.2232  0.2925  0.0620
 8500TIP3    H125464   5.326   1.509   5.810  0.7308 -0.6530  0.0435
 8500TIP3    H225465   5.315   1.372   5.872 -1.2751 -0.2387  0.6778
 8501TIP3   OH225466   4.122   0.554   4.887 -0.1679 -0.4087  0.2432
 8501TIP3    H125467   4.129   0.507   4.803  0.6096 -1.5197  0.9028
 8501TIP3    H225468   4.203   0.533   4.933 -0.3055  0.7125  1.0287
 8502TIP3   OH225469   2.598   0.726   3.006 -0.4737  0.3027 -0.2280
 8502TIP3    H125470   2.600   0.798   2.944 -0.7129  0.1329 -0.4371
 8502TIP3    H225471   2.669   0.668   2.979 -0.0528  0.6335  0.1561
 8503TIP3   OH225472   1.360   0.123   4.251  0.4329 -0.2460 -0.3040
 8503TIP3    H125473   1.335   0.169   4.171  0.8459 -0.6224 -0.6626
 8503TIP3    H225474   1.280   0.080   4.281 -0.2685  1.6983  0.7385
 8504TIP3   OH225475   5.662   6.060   4.165  0.2731  0.2432 -0.0932
 8504TIP3    H125476   5.622   6.011   4.093 -0.2455  0.7112 -0.1327
 8504TIP3    H225477   5.592   6.117   4.197 -0.2395 -1.5482  2.2793
 8505TIP3   OH225478   0.801   0.461   1.475  0.0479  0.0525 -0.2527
 8505TIP3    H125479   0.728   0.426   1.425  0.3914 -0.1355 -0.6332
 8505TIP3    H225480   0.847   0.519   1.414  0.1493  0.2600  0.0173
 8506TIP3   OH225481   5.374   3.028   1.892 -0.1425  0.1135  0.5515
 8506TIP3    H125482   5.312   3.039   1.964 -0.9685  1.3215 -0.3134
 8506TIP3    H225483   5.414   2.942   1.908 -1.9069 -0.6377  1.2304
 8507TIP3   OH225484   5.143   2.084   5.549 -0.0140  0.3505 -0.2019
 8507TIP3    H125485   5.166   2.028   5.475 -0.9929  0.6782 -0.7715
 8507TIP3    H225486   5.049   2.097   5.541 -0.3016 -0.3356  1.6337
 8508TIP3   OH225487   3.427   1.594   1.900 -0.7805  0.2090 -0.3084
 8508TIP3    H125488   3.409   1.658   1.968 -1.4034  0.1352 -0.3934
 8508TIP3    H225489   3.480   1.527   1.943 -0.7630  0.4034 -0.0254
 8509TIP3   OH225490   0.552   2.927   1.648 -0.0366  0.1151  0.6002
 8509TIP3    H125491   0.590   2.855   1.599  1.6453  2.4934 -1.8713
 8509TIP3    H225492   0.482   2.961   1.592 -1.1427  0.1713  1.9413
 8510TIP3   OH225493   1.031   3.907   3.520 -0.0887  0.3987 -0.2338
 8510TIP3    H125494   1.055   3.997   3.498  1.9277 -0.0382 -0.0146
 8510TIP3    H225495   1.081   3.888   3.600 -0.0891 -1.0575 -0.5526
 8511TIP3   OH225496   2.444   1.771   4.472 -0.6204 -0.1770 -0.2427
 8511TIP3    H125497   2.484   1.697   4.517 -0.3310 -0.5815 -1.1421
 8511TIP3    H225498   2.504   1.791   4.400 -0.6811  0.9487 -0.0060
 8512TIP3   OH225499   3.653   0.441   5.271  0.2280  0.4565 -0.2204
 8512TIP3    H125500   3.566   0.443   5.312  1.0590  0.0682  1.6630
 8512TIP3    H225501   3.672   0.532   5.251  0.6523  0.9810  2.2638
 8513TIP3   OH225502   4.289   0.631   4.033 -0.1841  0.1830 -0.0011
 8513TIP3    H125503   4.207   0.594   4.000 -0.7871  1.5540 -0.1218
 8513TIP3    H225504   4.345   0.638   3.956  0.2379 -1.1889  0.1616
 8514TIP3   OH225505   6.379   1.875   3.433 -0.2751  0.0616  0.2022
 8514TIP3    H125506   6.338   1.806   3.486  0.4047  0.1289  0.8322
 8514TIP3    H225507   6.386   1.836   3.346 -1.7362  0.0763  0.0425
 8515TIP3   OH225508   6.760   0.594   0.382 -0.4674 -0.3931 -0.1846
 8515TIP3    H125509   6.783   0.593   0.475  0.4836 -0.5348 -0.4071
 8515TIP3    H225510   6.673   0.555   0.379  0.3061 -2.3152  0.4572
 8516TIP3   OH225511   4.090   5.056   5.156 -0.2686 -1.0824 -0.6924
 8516TIP3    H125512   4.168   5.071   5.209 -0.2991  1.0341 -1.1547
 8516TIP3    H225513   4.018   5.052   5.219 -0.0423 -0.8378 -0.4180
 8517TIP3   OH225514   2.922   3.115   5.612 -0.0263  0.0278  0.9688
 8517TIP3    H125515   2.946   3.022   5.618 -0.7812 -0.3753 -1.3566
 8517TIP3    H225516   3.006   3.161   5.612  0.3489 -0.6156  2.3416
 8518TIP3   OH225517   6.228   2.907   5.681  0.8048 -0.0870 -0.0815
 8518TIP3    H125518   6.291   2.919   5.610 -1.2456  1.2907 -1.8021
 8518TIP3    H225519   6.191   2.820   5.665  1.8782 -0.7157  0.6792
 8519TIP3   OH225520   5.122   4.619   0.291 -0.2502 -0.4184 -0.1267
 8519TIP3    H125521   5.208   4.612   0.332  0.1576 -0.2653 -0.9267
 8519TIP3    H225522   5.123   4.704   0.248 -0.0463 -1.1981 -1.7509
 8520TIP3   OH225523   5.780   6.163   2.311 -0.7320  0.4652 -0.1347
 8520TIP3    H125524   5.743   6.227   2.251  0.2456  0.4232 -0.8123
 8520TIP3    H225525   5.875   6.167   2.295 -0.6240 -0.9056  0.0284
 8521TIP3   OH225526   3.738   0.187   1.449  0.2627  0.5694 -0.0136
 8521TIP3    H125527   3.779   0.187   1.536  1.1704  0.7077 -0.4387
 8521TIP3    H225528   3.802   0.147   1.391 -1.2298 -1.6982 -0.2472
 8522TIP3   OH225529   4.586   4.696   1.608 -0.0981 -0.1456 -0.0052
 8522TIP3    H125530   4.637   4.627   1.565  0.5247 -0.3150  0.9542
 8522TIP3    H225531   4.634   4.777   1.588  1.0407 -0.3872  1.5120
 8523TIP3   OH225532   2.275   0.138   2.410 -0.6341  0.0398  0.3373
 8523TIP3    H125533   2.273   0.147   2.315  3.9081  1.0330  0.0933
 8523TIP3    H225534   2.247   0.223   2.444 -1.3618 -0.0150 -0.1144
 8524TIP3   OH225535   4.550   2.779   1.657 -0.5053  0.5758 -0.4978
 8524TIP3    H125536   4.514   2.826   1.732  0.3459 -0.9430  0.9234
 8524TIP3    H225537   4.607   2.843   1.614  2.0815  0.4828  2.4304
 8525TIP3   OH225538   5.264   2.412   1.927 -0.4115 -0.0220 -0.1249
 8525TIP3    H125539   5.234   2.323   1.909 -0.3643 -0.0294 -0.1703
 8525TIP3    H225540   5.346   2.401   1.975 -1.3632 -0.0023  1.5792
 8526TIP3   OH225541   0.457   0.350   5.481  0.1170 -0.4825  0.5148
 8526TIP3    H125542   0.448   0.426   5.424  3.1140  0.4596  1.1340
 8526TIP3    H225543   0.378   0.352   5.536 -2.1999 -0.6776 -2.5498
 8527TIP3   OH225544   1.734   6.172   4.605 -0.2533 -0.0047  1.1202
 8527TIP3    H125545   1.731   6.167   4.701  0.3983  1.5808  1.2533
 8527TIP3    H225546   1.730   6.266   4.586 -0.2916 -0.2976 -0.4084
 8528TIP3   OH225547   0.983   6.240   4.358 -0.2021 -0.2491 -0.4210
 8528TIP3    H125548   1.074   6.213   4.370  0.0030  0.3133 -0.6773
 8528TIP3    H225549   0.989   6.326   4.316 -0.8279  0.2441  0.4507
 8529TIP3   OH225550   6.786   1.885   3.915 -0.4290  0.0686  0.4210
 8529TIP3    H125551   6.789   1.789   3.908 -1.2761  0.0621 -0.0292
 8529TIP3    H225552   6.877   1.913   3.903 -0.1902 -0.6730  0.4630
 8530TIP3   OH225553   6.041   6.444   1.864 -0.0626 -0.2150 -0.0739
 8530TIP3    H125554   6.124   6.462   1.908  1.1645  0.8187 -2.5950
 8530TIP3    H225555   6.027   6.520   1.808 -3.1490 -0.0330  0.8061
 8531TIP3   OH225556   6.271   1.969   2.258 -0.5097  0.4659  0.1514
 8531TIP3    H125557   6.181   1.938   2.269 -0.7252  1.7427  2.7989
 8531TIP3    H225558   6.323   1.889   2.256 -1.5345 -0.2392  0.6967
 8532TIP3   OH225559   4.380   1.664   2.825  0.4751  0.1045  0.0364
 8532TIP3    H125560   4.352   1.668   2.734 -0.1601 -0.4371  0.2030
 8532TIP3    H225561   4.460   1.611   2.824 -0.5199 -1.4516  0.0106
 8533TIP3   OH225562   0.186   5.586   0.517 -0.5012  0.5289 -0.1078
 8533TIP3    H125563   0.200   5.661   0.459  1.2304 -0.3336 -0.9197
 8533TIP3    H225564   0.192   5.510   0.459 -0.9045 -0.2833  0.8822
 8534TIP3   OH225565   3.506   3.455   4.208  0.5141 -0.2710  0.1149
 8534TIP3    H125566   3.450   3.391   4.251 -0.9150  1.0815  0.3455
 8534TIP3    H225567   3.479   3.453   4.116  0.6202 -0.1481  0.0810
 8535TIP3   OH225568   1.345   4.450   1.898 -0.4131  0.6031  0.0429
 8535TIP3    H125569   1.416   4.388   1.911 -1.1316 -0.1774  0.3673
 8535TIP3    H225570   1.382   4.519   1.843  0.5082  0.0818 -0.0007
 8536TIP3   OH225571   6.463   1.876   1.341  0.2487  1.1490 -0.3859
 8536TIP3    H125572   6.495   1.863   1.251  1.6035 -0.7128  0.3093
 8536TIP3    H225573   6.458   1.788   1.378 -1.4129  1.7810  1.0348
 8537TIP3   OH225574   0.428   3.854   0.665  0.1193 -0.3942 -0.3512
 8537TIP3    H125575   0.339   3.839   0.633  0.5740  0.1676 -2.0187
 8537TIP3    H225576   0.448   3.944   0.640  0.9246 -0.2858  0.6201
 8538TIP3   OH225577   6.083   1.695   4.423  0.1707 -0.2547 -0.5323
 8538TIP3    H125578   6.059   1.761   4.358  1.6543 -1.2004 -2.1490
 8538TIP3    H225579   6.149   1.739   4.478  0.2571 -0.0060 -0.8284
 8539TIP3   OH225580   0.714   2.901   4.174 -0.2832  0.2682  0.4133
 8539TIP3    H125581   0.781   2.968   4.161 -0.1690  0.4977  1.9247
 8539TIP3    H225582   0.632   2.942   4.146  0.1583  0.0728 -1.2197
 8540TIP3   OH225583   2.550   0.627   4.790 -0.4325  0.4189  0.4446
 8540TIP3    H125584   2.541   0.719   4.768  1.4607  0.1901 -1.7055
 8540TIP3    H225585   2.644   0.609   4.783 -0.6266 -1.4833  1.7179
 8541TIP3   OH225586   4.473   2.570   5.145 -0.4682  0.2614  0.6382
 8541TIP3    H125587   4.564   2.597   5.154 -0.7492  0.8682  1.9536
 8541TIP3    H225588   4.427   2.618   5.214 -1.3290 -2.0866  1.8111
 8542TIP3   OH225589   1.088   0.480   0.362  0.2209  0.3547  0.6746
 8542TIP3    H125590   1.014   0.540   0.375 -0.2862 -0.3790  1.3003
 8542TIP3    H225591   1.071   0.440   0.277 -0.2517  0.0039  0.9257
 8543TIP3   OH225592   6.203   5.810   0.431  0.4820 -0.3629  0.2311
 8543TIP3    H125593   6.167   5.882   0.482  0.9073 -0.7459  1.0932
 8543TIP3    H225594   6.237   5.749   0.496  2.8380  0.0527 -0.5213
 8544TIP3   OH225595   6.691   0.993   4.059 -0.3604  0.6246  0.1363
 8544TIP3    H125596   6.614   0.947   4.094 -1.7867  1.5673 -1.5759
 8544TIP3    H225597   6.687   1.080   4.099  0.1833  0.4836  0.5058
 8545TIP3   OH225598   3.080   0.510   4.333  0.1220 -0.1878  0.5136
 8545TIP3    H125599   3.119   0.423   4.344  1.4339  0.4927  1.7501
 8545TIP3    H225600   3.153   0.570   4.347 -0.7448  1.1162 -0.3921
 8546TIP3   OH225601   4.417   6.656   0.534 -0.2497  0.7521  0.1604
 8546TIP3    H125602   4.468   6.576   0.522  0.6444  1.1402  1.3172
 8546TIP3    H225603   4.329   6.632   0.503 -0.2144 -0.9331  1.2367
 8547TIP3   OH225604   5.157   6.468   3.276  0.7320  0.5776 -0.2425
 8547TIP3    H125605   5.080   6.477   3.220  2.2081  3.5274 -2.0780
 8547TIP3    H225606   5.204   6.392   3.242 -0.3787 -0.0729 -0.3529
 8548TIP3   OH225607   6.756   4.377   0.834 -0.7153  0.1837  0.6190
 8548TIP3    H125608   6.680   4.323   0.856  0.5806 -1.1792  2.0542
 8548TIP3    H225609   6.795   4.333   0.759 -0.4453 -0.0986  0.9173
 8549TIP3   OH225610   3.351   6.049   5.906  0.2062 -0.0336 -0.9647
 8549TIP3    H125611   3.299   6.040   5.826  0.4215 -2.1331 -0.9421
 8549TIP3    H225612   3.411   5.973   5.903 -0.6788 -0.9506  1.8233
 8550TIP3   OH225613   2.571   2.336   2.549 -0.1397  0.7304  0.2560
 8550TIP3    H125614   2.629   2.411   2.563  0.9910  0.0436 -0.5135
 8550TIP3    H225615   2.595   2.304   2.462 -2.3771  1.0036 -0.5159
 8551TIP3   OH225616   4.243   1.129   3.480 -0.2977 -0.1968 -0.9368
 8551TIP3    H125617   4.184   1.150   3.552  2.6155 -1.3853  2.0471
 8551TIP3    H225618   4.198   1.059   3.432 -1.8988 -0.0865  0.3274
 8552TIP3   OH225619   5.419   2.847   4.193  0.6392  0.0323 -0.2055
 8552TIP3    H125620   5.334   2.839   4.236 -0.0113 -1.4413 -1.6246
 8552TIP3    H225621   5.408   2.920   4.132  0.0964 -0.6549 -0.9509
 8553TIP3   OH225622   3.173   6.667   1.399  0.2227  0.0449 -0.2342
 8553TIP3    H125623   3.261   6.646   1.368  0.1790  0.6106 -0.7689
 8553TIP3    H225624   3.115   6.643   1.327  0.1223  1.3846 -0.6295
 8554TIP3   OH225625   1.869   2.578   4.487  0.4099  0.3872 -0.0517
 8554TIP3    H125626   1.826   2.607   4.406 -0.7437 -0.0746  0.3732
 8554TIP3    H225627   1.918   2.654   4.517  0.6146  0.6530 -1.0377
 8555TIP3   OH225628   3.233   0.747   1.097 -0.3483  0.5498  0.0965
 8555TIP3    H125629   3.220   0.838   1.071  0.4512  1.2379  1.9339
 8555TIP3    H225630   3.268   0.752   1.186  0.0686 -1.5496  0.1070
 8556TIP3   OH225631   6.264   0.624   0.131  0.2436  0.3292  0.1136
 8556TIP3    H125632   6.259   0.597   0.039  0.8641  0.3310  0.0748
 8556TIP3    H225633   6.207   0.701   0.136 -0.0457  0.1438 -0.1937
 8557TIP3   OH225634   0.246   3.106   1.367  0.6900 -0.2273  0.9707
 8557TIP3    H125635   0.250   3.032   1.307  1.1410 -0.7505  1.6248
 8557TIP3    H225636   0.271   3.069   1.452 -0.3484  0.4049  1.5650
 8558TIP3   OH225637   6.542   0.563   3.780  0.1172  0.5723 -0.2365
 8558TIP3    H125638   6.634   0.579   3.757  0.6999  0.2434  1.6818
 8558TIP3    H225639   6.541   0.565   3.876 -2.0452  1.3519 -0.2311
 8559TIP3   OH225640   4.713   5.153   1.770  0.2295 -0.7177 -0.8191
 8559TIP3    H125641   4.621   5.177   1.772  0.5495  0.7122  2.1693
 8559TIP3    H225642   4.719   5.075   1.826  0.9622 -0.1085 -0.0250
 8560TIP3   OH225643   6.349   2.311   5.325  0.5959  0.3947  0.3631
 8560TIP3    H125644   6.419   2.358   5.372  1.1126 -0.2975  0.3047
 8560TIP3    H225645   6.290   2.282   5.394  0.9499  0.0416  0.5235
 8561TIP3   OH225646   5.434   0.345   1.175 -0.2733  0.0368 -0.2388
 8561TIP3    H125647   5.446   0.362   1.081  1.4077  1.5543  0.2058
 8561TIP3    H225648   5.347   0.380   1.194 -0.7667 -0.5717 -1.2656
 8562TIP3   OH225649   2.812   4.771   4.405  0.1821 -0.5106  0.5103
 8562TIP3    H125650   2.852   4.825   4.473  0.9879  2.4312 -2.0898
 8562TIP3    H225651   2.812   4.826   4.327 -4.2016 -2.2687 -1.0320
 8563TIP3   OH225652   0.113   4.820   3.655  1.0015 -0.0441 -0.2118
 8563TIP3    H125653   0.065   4.825   3.738  1.5114 -0.8859  0.1525
 8563TIP3    H225654   0.045   4.815   3.588  0.5251  3.1138 -0.0928
 8564TIP3   OH225655   3.477   0.995   2.926  0.2693  0.7447 -0.4830
 8564TIP3    H125656   3.427   0.972   3.004  0.8249 -1.6101 -0.7541
 8564TIP3    H225657   3.471   1.091   2.921  0.4871  1.0096  2.5919
 8565TIP3   OH225658   6.726   4.390   3.164 -0.2494  0.3832  0.2575
 8565TIP3    H125659   6.755   4.304   3.195  2.4276  0.9794 -0.2700
 8565TIP3    H225660   6.715   4.379   3.069 -1.5996  0.2215  0.4270
 8566TIP3   OH225661   6.791   4.783  -0.013 -0.3741 -0.5533  0.5307
 8566TIP3    H125662   6.804   4.868   0.028 -2.5470  0.0022  0.2028
 8566TIP3    H225663   6.836   4.721   0.045  0.8658  0.7378  1.0078
 8567TIP3   OH225664   0.406   0.959   1.635  0.0065  0.3206 -0.0480
 8567TIP3    H125665   0.342   0.940   1.703  1.2181  1.3224  1.4471
 8567TIP3    H225666   0.473   0.892   1.646  1.4404  1.8852  1.4773
 8568TIP3   OH225667   1.716   6.785   2.001  0.4899 -0.1642 -0.0939
 8568TIP3    H125668   1.640   6.732   1.977 -0.0720  0.0731  1.0805
 8568TIP3    H225669   1.680   6.858   2.051  1.3180  0.9736 -1.0887
 8569TIP3   OH225670   0.725   5.005   3.979 -0.4094  0.5897  0.0895
 8569TIP3    H125671   0.755   5.067   4.045 -0.3441  1.5462 -0.8164
 8569TIP3    H225672   0.629   5.014   3.980 -0.3668  1.1428 -0.4485
 8570TIP3   OH225673   3.015   2.328   5.460  0.5985  0.2648  0.5023
 8570TIP3    H125674   3.068   2.353   5.384  0.2524  1.7423  0.7331
 8570TIP3    H225675   2.925   2.351   5.436  0.4978  0.8382  1.3850
 8571TIP3   OH225676   2.784   4.781   5.601 -0.6495 -0.2550  0.0978
 8571TIP3    H125677   2.873   4.812   5.619 -0.5645 -0.1118 -0.5470
 8571TIP3    H225678   2.729   4.829   5.663 -0.4666  0.8954 -0.6077
 8572TIP3   OH225679   2.609   0.843   5.821 -0.2580  0.0947  0.2123
 8572TIP3    H125680   2.600   0.764   5.875  0.3725 -1.2211 -1.5145
 8572TIP3    H225681   2.697   0.875   5.838  0.1082 -0.5866 -0.3446
 8573TIP3   OH225682   4.395   1.121   3.023  0.3329  0.0749  0.6015
 8573TIP3    H125683   4.416   1.214   3.034  2.4539 -0.2953  0.0312
 8573TIP3    H225684   4.352   1.116   2.938  0.9038  0.4467  0.2830
 8574TIP3   OH225685   6.405   1.630   4.311  0.0666 -0.1051  0.1978
 8574TIP3    H125686   6.319   1.649   4.274 -0.6729 -1.9964  0.8168
 8574TIP3    H225687   6.467   1.670   4.251 -1.2305  0.9155 -0.4989
 8575TIP3   OH225688   3.736   4.734   0.907 -0.0095  0.5153 -0.0884
 8575TIP3    H125689   3.710   4.809   0.959 -0.1391  1.9101 -2.0426
 8575TIP3    H225690   3.807   4.767   0.851 -0.4809 -0.6334 -1.4252
 8576TIP3   OH225691   5.388   5.279   5.868 -0.3193  0.4027 -0.0794
 8576TIP3    H125692   5.344   5.355   5.828  1.6356  1.9060  0.4779
 8576TIP3    H225693   5.316   5.219   5.890 -1.9688  2.1382 -0.4355
 8577TIP3   OH225694   3.048   3.689   1.784 -0.5090 -0.5820  0.1236
 8577TIP3    H125695   3.030   3.782   1.798 -0.0527 -0.5481  0.5276
 8577TIP3    H225696   2.978   3.644   1.832 -0.9897 -0.4499 -0.4453
 8578TIP3   OH225697   5.199   2.424   4.621 -0.0154  0.4875 -0.1568
 8578TIP3    H125698   5.154   2.352   4.578 -0.7484  0.4014  0.7308
 8578TIP3    H225699   5.291   2.413   4.596 -0.1721 -0.5238 -0.3330
 8579TIP3   OH225700   5.719   5.321   1.899  0.4567 -0.3739  0.3614
 8579TIP3    H125701   5.748   5.412   1.902 -1.2464  0.1920  0.5399
 8579TIP3    H225702   5.747   5.290   1.812  0.2404  0.6090 -0.0727
 8580TIP3   OH225703   3.219   2.513   3.367  0.0275 -0.5449  0.0714
 8580TIP3    H125704   3.140   2.534   3.417  0.9328  1.9492  0.6234
 8580TIP3    H225705   3.287   2.499   3.434  0.6405  0.0843 -0.3983
 8581TIP3   OH225706   4.546   1.742   1.976  0.0682  0.2743 -0.4409
 8581TIP3    H125707   4.628   1.756   1.928 -0.4279  2.9582 -0.6227
 8581TIP3    H225708   4.477   1.754   1.911 -0.5516 -1.4188 -0.1657
 8582TIP3   OH225709   4.272   6.792   2.000  0.2642  0.5597  0.4773
 8582TIP3    H125710   4.275   6.744   1.918 -0.5161  0.2587  0.6256
 8582TIP3    H225711   4.361   6.826   2.010  0.3227  0.7735 -0.5874
 8583TIP3   OH225712   3.576   4.534   2.319 -0.5667  0.5199 -0.2675
 8583TIP3    H125713   3.646   4.493   2.368 -0.6368  0.5366 -0.1525
 8583TIP3    H225714   3.496   4.510   2.366 -0.6713  0.1818 -0.6184
 8584TIP3   OH225715   3.938   1.196   0.854  0.4167  0.4347 -0.0917
 8584TIP3    H125716   4.023   1.204   0.898 -0.1991  2.9993  0.8388
 8584TIP3    H225717   3.950   1.242   0.771  0.3188 -0.4173 -0.5797
 8585TIP3   OH225718   6.107   6.544   5.534  0.1891  0.1443  0.8306
 8585TIP3    H125719   6.057   6.536   5.453  1.8974 -1.0236 -0.1544
 8585TIP3    H225720   6.096   6.460   5.578 -1.0882  0.9181  2.0815
 8586TIP3   OH225721   4.250   0.524   4.583 -0.5881 -0.2170 -0.5986
 8586TIP3    H125722   4.252   0.431   4.561  0.6209 -0.0132 -1.4489
 8586TIP3    H225723   4.328   0.538   4.636 -1.4382  0.0805  0.6046
 8587TIP3   OH225724   0.618   2.170   4.056 -0.1283 -0.1031  0.2503
 8587TIP3    H125725   0.606   2.208   3.969  0.2649 -0.9534 -0.1834
 8587TIP3    H225726   0.623   2.246   4.114  0.6040  0.5175 -0.5900
 8588TIP3   OH225727   6.019   0.258   1.812  0.0789  0.0625 -0.6132
 8588TIP3    H125728   6.030   0.340   1.860 -0.9091  1.6775 -2.9734
 8588TIP3    H225729   5.958   0.207   1.864  0.4539  0.9426  0.7327
 8589TIP3   OH225730   0.414   4.198   2.277 -0.0851  0.1267 -0.3122
 8589TIP3    H125731   0.343   4.135   2.286  1.3918 -1.8862 -1.8840
 8589TIP3    H225732   0.480   4.171   2.340 -0.1302  1.2002  0.2274
 8590TIP3   OH225733   5.363   4.162   5.396  0.3071 -0.1846  0.8020
 8590TIP3    H125734   5.422   4.186   5.325 -0.2516  0.5179  0.5582
 8590TIP3    H225735   5.414   4.176   5.476  1.3640 -2.1902  0.5377
 8591TIP3   OH225736   5.166   0.286   4.557 -0.1896  0.3457  0.2111
 8591TIP3    H125737   5.169   0.206   4.503  0.1847  1.0993 -0.9268
 8591TIP3    H225738   5.073   0.298   4.577 -0.5750  0.9533 -1.7208
 8592TIP3   OH225739   4.782   4.434   1.580  0.1585  0.6581  0.0688
 8592TIP3    H125740   4.694   4.428   1.617  0.9195 -0.7530  1.7896
 8592TIP3    H225741   4.788   4.361   1.519 -0.9188  2.6903 -2.7111
 8593TIP3   OH225742   5.827   4.154   0.766 -1.0776 -0.3905 -0.2320
 8593TIP3    H125743   5.812   4.245   0.739  0.1672 -0.2464 -0.5134
 8593TIP3    H225744   5.742   4.124   0.796 -1.4060  1.0459  0.3783
 8594TIP3   OH225745   2.266   6.608   2.611 -0.2292  0.4271  0.0998
 8594TIP3    H125746   2.276   6.688   2.662 -0.9193  0.6996 -0.1761
 8594TIP3    H225747   2.218   6.548   2.669 -2.5099  1.3102 -0.7615
 8595TIP3   OH225748   1.992   3.413   0.670  0.1666  0.5690 -0.2024
 8595TIP3    H125749   2.045   3.334   0.678  0.9494  1.1146  0.1645
 8595TIP3    H225750   2.050   3.476   0.628  0.5977  1.8542  2.1370
 8596TIP3   OH225751   0.338   3.175   5.635 -0.1034  0.5663 -0.3318
 8596TIP3    H125752   0.265   3.156   5.575 -0.3548 -2.1274  0.6988
 8596TIP3    H225753   0.314   3.131   5.716  0.8956  2.9477  1.3708
 8597TIP3   OH225754   0.404   0.785   4.384  0.0253 -0.1495 -0.0296
 8597TIP3    H125755   0.446   0.810   4.302 -2.3918  0.3641 -1.1781
 8597TIP3    H225756   0.344   0.715   4.361  0.4920 -1.1611  1.6361
 8598TIP3   OH225757   5.233   4.404   0.100  0.0790  0.0163 -0.0540
 8598TIP3    H125758   5.285   4.370   0.174  0.7790 -1.9271 -1.3605
 8598TIP3    H225759   5.145   4.416   0.136  0.2641 -1.4403  0.9789
 8599TIP3   OH225760   5.614   0.157   5.373 -0.6124  0.4784 -0.1431
 8599TIP3    H125761   5.601   0.090   5.440 -0.2552 -1.3040 -1.7645
 8599TIP3    H225762   5.550   0.135   5.305 -0.0479  1.4114 -0.9972
 8600TIP3   OH225763   1.858   2.976   1.163 -0.1998 -0.4261 -0.1578
 8600TIP3    H125764   1.887   3.067   1.154  0.9411 -0.8819 -1.4447
 8600TIP3    H225765   1.936   2.929   1.193 -0.3474 -1.2189 -0.9726
 8601TIP3   OH225766   3.476   5.114   1.192  0.2282 -0.5186  0.2376
 8601TIP3    H125767   3.477   5.206   1.167 -2.7314 -0.3215  0.4619
 8601TIP3    H225768   3.455   5.114   1.286  1.1183 -1.4052  0.4514
 8602TIP3   OH225769   6.601   5.612   5.320  0.2033  0.3503  0.3539
 8602TIP3    H125770   6.594   5.517   5.308  0.1238  0.3939  0.0502
 8602TIP3    H225771   6.520   5.637   5.365  0.5108  0.1829  1.0215
 8603TIP3   OH225772   0.613   4.258   1.966  0.1257 -0.3684 -0.0779
 8603TIP3    H125773   0.587   4.168   1.948  0.9905 -0.7132  0.3477
 8603TIP3    H225774   0.633   4.295   1.879 -3.0253  0.3652 -0.6199
 8604TIP3   OH225775   2.589   4.117   1.147 -0.5082 -0.4218 -0.0929
 8604TIP3    H125776   2.500   4.096   1.119 -0.5297  1.1830 -1.3253
 8604TIP3    H225777   2.645   4.063   1.091 -0.6488 -2.1138  1.2779
 8605TIP3   OH225778   1.044   4.335   3.197  0.4468 -0.5422 -0.1305
 8605TIP3    H125779   1.114   4.388   3.157 -0.2316  1.5646  1.3186
 8605TIP3    H225780   1.082   4.303   3.278  0.3241 -0.9570 -0.2366
 8606TIP3   OH225781   4.540   1.381   1.416 -0.1746  0.0833 -0.1997
 8606TIP3    H125782   4.448   1.356   1.424 -0.5283  0.8379 -1.6148
 8606TIP3    H225783   4.573   1.381   1.506 -1.0785 -1.8981  0.1720
 8607TIP3   OH225784   1.047   6.300   2.820 -0.0825  0.2575  0.2422
 8607TIP3    H125785   1.065   6.278   2.912  1.7427 -1.0025 -0.3462
 8607TIP3    H225786   0.988   6.375   2.824  1.2936  1.3422  2.4778
 8608TIP3   OH225787   0.009   2.003   0.472 -0.2492 -0.4441  0.2688
 8608TIP3    H125788   0.095   2.016   0.433 -0.6867 -0.9391 -0.9389
 8608TIP3    H225789   0.026   1.970   0.560  0.7933 -1.2904 -0.2391
 8609TIP3   OH225790   6.444   4.444   3.463  0.0207  0.4546  1.0162
 8609TIP3    H125791   6.531   4.441   3.423  0.1092 -1.2469  1.2601
 8609TIP3    H225792   6.459   4.483   3.549  1.1530 -2.4837  2.3018
 8610TIP3   OH225793   5.089   1.033   5.772  0.6069  0.6650  0.1597
 8610TIP3    H125794   5.094   1.125   5.747 -0.5795  0.4687 -0.9063
 8610TIP3    H225795   5.133   0.986   5.701  1.5894  0.4131  0.9063
 8611TIP3   OH225796   1.187   2.030   2.241  0.1335  0.1813  0.0308
 8611TIP3    H125797   1.112   2.088   2.227  0.6493  0.3670 -2.3817
 8611TIP3    H225798   1.208   2.040   2.334 -0.8706  2.5433  0.0830
 8612TIP3   OH225799   1.623   0.132   3.514  0.3562  0.2351 -0.3969
 8612TIP3    H125800   1.548   0.173   3.470 -0.2709 -0.1769  0.2566
 8612TIP3    H225801   1.609   0.038   3.501  0.9356  0.1678 -0.5382
 8613TIP3   OH225802   3.384   3.869   0.324  0.4267 -0.1374  0.5370
 8613TIP3    H125803   3.436   3.843   0.248  0.4279 -1.2122  0.8858
 8613TIP3    H225804   3.433   3.941   0.364  0.5570  0.2574 -0.3297
 8614TIP3   OH225805   0.583   5.644   3.189 -0.2390  0.5072 -0.1682
 8614TIP3    H125806   0.583   5.568   3.247 -0.3065  1.2917  0.8858
 8614TIP3    H225807   0.516   5.702   3.225  1.3483  2.0702  0.4055
 8615TIP3   OH225808   1.048   6.501   4.794  0.4481  0.0716 -0.0840
 8615TIP3    H125809   1.001   6.437   4.848  0.2307  0.6989  0.4862
 8615TIP3    H225810   1.024   6.479   4.704 -0.0480 -0.3078  0.1373
 8616TIP3   OH225811   3.191   4.856   1.115 -0.1974  0.4756  0.4366
 8616TIP3    H125812   3.130   4.798   1.069 -0.6026  1.1748  0.0625
 8616TIP3    H225813   3.256   4.879   1.049  2.2136 -2.5104  1.5250
 8617TIP3   OH225814   0.445   1.035   5.743  0.3333  0.0409  0.1017
 8617TIP3    H125815   0.429   1.130   5.742 -0.9379 -0.1497 -1.6630
 8617TIP3    H225816   0.535   1.027   5.776  0.1458  1.7889  1.1744
 8618TIP3   OH225817   3.853   0.084   3.819  0.1499  0.5766 -0.0881
 8618TIP3    H125818   3.881   0.162   3.772 -2.3133  1.4081 -0.3080
 8618TIP3    H225819   3.784   0.046   3.765 -0.7935 -0.0248  1.4750
 8619TIP3   OH225820   6.944   1.163   0.901 -0.0982 -0.4456  0.1233
 8619TIP3    H125821   6.899   1.081   0.879  0.9675 -1.0186 -0.0334
 8619TIP3    H225822   6.948   1.164   0.996 -3.7409  1.4933  0.4125
 8620TIP3   OH225823   4.618   0.038   0.768 -0.5688 -0.3032  0.2526
 8620TIP3    H125824   4.558   0.101   0.728 -0.2462 -0.2140 -0.0983
 8620TIP3    H225825   4.695   0.089   0.792 -0.7507 -0.3615  0.9828
 8621TIP3   OH225826   1.087   0.126   4.616  0.4563  0.6347  0.4066
 8621TIP3    H125827   1.058   0.147   4.527  0.5301 -0.7790  0.0181
 8621TIP3    H225828   1.021   0.166   4.673  0.1860  1.2120 -0.2980
 8622TIP3   OH225829   2.238   5.673   1.034 -0.4062 -0.1282 -0.9065
 8622TIP3    H125830   2.272   5.761   1.017 -0.2549  0.1007  0.5058
 8622TIP3    H225831   2.292   5.616   0.978  1.8079  0.3127  0.6316
 8623TIP3   OH225832   6.464   3.797   4.835 -1.1761  0.1567 -0.1026
 8623TIP3    H125833   6.462   3.701   4.845 -0.2287  0.0638 -0.7245
 8623TIP3    H225834   6.478   3.830   4.923 -1.0194 -0.3048  0.0487
 8624TIP3   OH225835   6.922   1.840   5.672 -0.6353  0.2608  0.2433
 8624TIP3    H125836   6.896   1.774   5.608  1.2919 -0.9157  0.6038
 8624TIP3    H225837   7.012   1.863   5.648  0.2783 -0.4533  2.6537
 8625TIP3   OH225838   4.996   2.210   3.322 -0.8133 -0.3030 -0.0290
 8625TIP3    H125839   5.061   2.210   3.251 -0.0331 -2.3289  0.6185
 8625TIP3    H225840   5.017   2.288   3.373 -0.0058  0.0110 -0.8114
 8626TIP3   OH225841   6.255   3.723   1.755 -0.4380 -0.0711 -0.1588
 8626TIP3    H125842   6.296   3.674   1.684 -2.3473 -0.3976 -1.0994
 8626TIP3    H225843   6.273   3.671   1.833  0.7733 -0.2676 -0.5537
 8627TIP3   OH225844   0.483   0.958   2.625 -0.1985 -0.1933  0.2698
 8627TIP3    H125845   0.549   0.893   2.645  0.7214  0.1780 -1.3431
 8627TIP3    H225846   0.425   0.958   2.701 -0.0913 -2.6871  0.4365
 8628TIP3   OH225847   3.210   2.339   4.998  0.2205  0.1175  0.0167
 8628TIP3    H125848   3.202   2.434   4.993  0.3415  0.0653 -1.4971
 8628TIP3    H225849   3.302   2.324   5.021  0.3997  0.3566 -0.5246
 8629TIP3   OH225850   0.720   3.208   5.776 -0.0974 -0.1622  0.0703
 8629TIP3    H125851   0.674   3.292   5.784 -2.2649 -1.2500 -0.2883
 8629TIP3    H225852   0.735   3.198   5.682 -0.5673 -0.5304  0.0313
 8630TIP3   OH225853   3.205   4.628   2.811  0.4854 -0.0943 -0.2651
 8630TIP3    H125854   3.255   4.709   2.803  3.7291 -1.9424 -0.7635
 8630TIP3    H225855   3.179   4.607   2.721  0.1082  0.1228 -0.2073
 8631TIP3   OH225856   6.369   0.953   0.901 -0.4126 -0.3397 -0.2232
 8631TIP3    H125857   6.289   0.981   0.856 -1.0688 -1.1518  0.4069
 8631TIP3    H225858   6.355   0.976   0.992  0.9772  1.4316 -0.4063
 8632TIP3   OH225859   1.221   6.363   1.558  0.3222 -0.4971 -0.1293
 8632TIP3    H125860   1.288   6.295   1.569  1.2617  0.5459  0.8488
 8632TIP3    H225861   1.252   6.416   1.485 -1.1283 -1.8789 -1.8494
 8633TIP3   OH225862   6.282   5.703   2.370 -0.2262  0.0603 -0.4604
 8633TIP3    H125863   6.349   5.652   2.415 -0.7117 -1.0662 -0.9726
 8633TIP3    H225864   6.312   5.794   2.378  0.0409 -0.1587  1.5199
 8634TIP3   OH225865   3.237   4.973   1.357 -0.2632  0.4836 -0.1562
 8634TIP3    H125866   3.264   4.909   1.291 -0.2709  1.2856 -0.9681
 8634TIP3    H225867   3.317   4.992   1.407 -0.3406 -0.4015  0.3114
 8635TIP3   OH225868   3.898   1.635   0.714 -0.1972  0.3295  0.3185
 8635TIP3    H125869   3.948   1.660   0.792  0.3898 -1.1253  0.4439
 8635TIP3    H225870   3.902   1.712   0.657  1.3693  0.6036  0.7479
 8636TIP3   OH225871   2.088   0.770   4.456  0.0915 -0.3462  0.5431
 8636TIP3    H125872   2.144   0.693   4.446 -0.3000 -0.5216 -0.4410
 8636TIP3    H225873   2.002   0.735   4.477  0.1498 -0.1176  1.1883
 8637TIP3   OH225874   1.002   6.424   2.138 -0.4264  0.1452  0.1180
 8637TIP3    H125875   0.953   6.470   2.069 -0.4333 -0.3024 -0.1817
 8637TIP3    H225876   1.042   6.493   2.189 -1.3393  0.5191  0.3384
 8638TIP3   OH225877   5.500   4.025   3.116  0.2295 -0.5325 -0.2097
 8638TIP3    H125878   5.406   4.012   3.131  0.1293  1.6962  1.7758
 8638TIP3    H225879   5.542   3.980   3.189  0.8037 -2.1597 -1.5012
 8639TIP3   OH225880   6.806   5.149   4.090  0.8818  0.8461 -0.1688
 8639TIP3    H125881   6.728   5.156   4.036  1.0231  2.3289 -0.2205
 8639TIP3    H225882   6.872   5.200   4.044  1.5205  0.6564  0.5123
 8640TIP3   OH225883   4.928   1.651   0.511 -0.1407 -0.5615  0.4831
 8640TIP3    H125884   4.934   1.679   0.602 -1.1119 -0.2480  0.4668
 8640TIP3    H225885   4.837   1.621   0.501 -0.2037 -0.0921 -0.5145
 8641TIP3   OH225886   0.232   6.226   2.057  0.0056 -0.1149 -0.7511
 8641TIP3    H125887   0.197   6.165   2.121  1.2248 -0.9552 -0.8573
 8641TIP3    H225888   0.324   6.237   2.081 -0.1362  1.5673 -0.8353
 8642TIP3   OH225889   3.731   3.341   0.343 -0.0199  0.4539  0.0298
 8642TIP3    H125890   3.687   3.355   0.427 -0.7614  0.9994 -0.4385
 8642TIP3    H225891   3.675   3.386   0.279 -0.4114 -1.4130 -1.0092
 8643TIP3   OH225892   3.972   0.196   5.567  0.7451  0.1784 -0.1019
 8643TIP3    H125893   3.937   0.115   5.528 -0.6620 -0.0097  1.4319
 8643TIP3    H225894   3.990   0.173   5.658  1.8379  1.1916 -0.0380
 8644TIP3   OH225895   1.979   5.358   3.199  0.5440  0.2944  0.4763
 8644TIP3    H125896   1.978   5.339   3.106  0.6196  1.2346  0.2716
 8644TIP3    H225897   2.070   5.348   3.226  0.4430 -0.4559  0.5634
 8645TIP3   OH225898   4.538   2.567   3.751 -0.1464 -0.0302 -0.3263
 8645TIP3    H125899   4.602   2.515   3.702  0.1310 -1.1546  1.1590
 8645TIP3    H225900   4.591   2.628   3.803 -0.3486 -0.0651 -0.0774
 8646TIP3   OH225901   2.230   1.885   2.100  0.1819 -0.0319 -0.2999
 8646TIP3    H125902   2.245   1.860   2.009 -1.2573 -1.6905 -0.1358
 8646TIP3    H225903   2.181   1.812   2.137  0.6644  0.6429  1.8012
 8647TIP3   OH225904   5.447   0.918   2.366  0.3012  0.1183 -0.1049
 8647TIP3    H125905   5.530   0.957   2.393 -1.0003  2.9638  0.1806
 8647TIP3    H225906   5.455   0.908   2.271  1.6269 -1.4970  0.1370
 8648TIP3   OH225907   2.521   4.774   4.336  0.2101  0.1316  0.2007
 8648TIP3    H125908   2.548   4.793   4.426 -2.4444  0.8919  0.9438
 8648TIP3    H225909   2.525   4.858   4.291 -0.3336  0.1580  0.1891
 8649TIP3   OH225910   3.757   3.851   3.494 -0.0575  0.5105 -0.3477
 8649TIP3    H125911   3.721   3.763   3.488 -1.0830  0.8191  0.8234
 8649TIP3    H225912   3.804   3.864   3.412 -0.6896 -0.7702 -0.9339
 8650TIP3   OH225913   2.900   0.713   0.659  0.2584  0.9631  0.1731
 8650TIP3    H125914   2.930   0.623   0.670  2.6656  1.2378 -2.7984
 8650TIP3    H225915   2.974   0.767   0.688 -1.1344  2.0520  1.8904
 8651TIP3   OH225916   2.345   5.670   0.035 -0.6491 -0.1568 -0.0758
 8651TIP3    H125917   2.348   5.576   0.021 -1.0794  0.0582 -1.8616
 8651TIP3    H225918   2.262   5.698  -0.005  0.9610  1.3815 -2.6258
 8652TIP3   OH225919   6.954   0.949   3.965 -0.6828 -0.1372 -0.2089
 8652TIP3    H125920   6.882   0.966   4.026 -0.7590 -1.1155 -0.0235
 8652TIP3    H225921   6.961   1.030   3.915 -1.0001  0.4769  0.7007
 8653TIP3   OH225922   4.008   1.332   1.685  0.4012  0.1436  0.8976
 8653TIP3    H125923   4.011   1.387   1.606 -0.7329 -0.0768  0.6899
 8653TIP3    H225924   4.059   1.381   1.750  0.4877  0.8182  0.3347
 8654TIP3   OH225925   4.236   3.372   3.503  0.1649  0.0601  0.2728
 8654TIP3    H125926   4.217   3.284   3.471 -1.1278 -0.1028  1.3882
 8654TIP3    H225927   4.192   3.431   3.442  0.4043 -0.0972 -0.0522
 8655TIP3   OH225928   0.494   6.000   3.988  0.0339  0.3629  0.0135
 8655TIP3    H125929   0.413   5.950   3.976 -1.3331  1.0735  4.3945
 8655TIP3    H225930   0.558   5.935   4.014  0.2674  0.0881 -1.1997
 8656TIP3   OH225931   5.864   4.286   5.786  0.2365 -0.0201  0.2433
 8656TIP3    H125932   5.892   4.255   5.700  0.5347  1.5655 -0.2546
 8656TIP3    H225933   5.776   4.249   5.797  0.9612 -1.8730  0.1533
 8657TIP3   OH225934   7.174   3.909   3.241  0.0142 -0.5483 -0.5048
 8657TIP3    H125935   7.140   3.832   3.287 -0.5727  0.1324  0.2495
 8657TIP3    H225936   7.115   3.980   3.269  1.0493  0.3317 -0.5149
 8658TIP3   OH225937   6.681   0.572   1.601 -0.4297 -0.7970  0.2107
 8658TIP3    H125938   6.709   0.506   1.537 -0.1779 -1.0395  0.5653
 8658TIP3    H225939   6.587   0.581   1.586 -0.1368  0.2904 -1.2527
 8659TIP3   OH225940   1.045   2.672   3.167 -0.0213 -0.2451 -0.0961
 8659TIP3    H125941   1.119   2.660   3.107 -0.1606 -1.5753 -0.0219
 8659TIP3    H225942   0.968   2.667   3.111 -0.1019 -0.0696 -0.0013
 8660TIP3   OH225943   7.164   0.040   5.608 -0.0276 -0.7336  0.2981
 8660TIP3    H125944   7.243   0.057   5.660  1.1023 -1.1994 -1.1816
 8660TIP3    H225945   7.168  -0.054   5.589 -1.6503 -1.0332  1.2513
 8661TIP3   OH225946   1.736   5.226   1.397  0.0006  0.2256 -0.4067
 8661TIP3    H125947   1.805   5.271   1.446 -2.2934  3.7479 -0.0453
 8661TIP3    H225948   1.665   5.215   1.461  0.1384 -3.4557 -0.7161
 8662TIP3   OH225949   0.579   4.428   3.521 -0.1666 -0.2739 -0.0305
 8662TIP3    H125950   0.551   4.354   3.467 -1.2018  0.5451 -0.6533
 8662TIP3    H225951   0.655   4.464   3.474 -0.7539  0.1276 -0.6933
 8663TIP3   OH225952   3.901   4.195   1.730  0.2106  0.2641  0.0184
 8663TIP3    H125953   3.921   4.111   1.689  2.5716  0.0124  1.5290
 8663TIP3    H225954   3.806   4.205   1.717  0.5524 -0.3258 -4.2903
 8664TIP3   OH225955   5.970   5.522   3.410 -0.2479 -0.3438  0.5981
 8664TIP3    H125956   5.932   5.575   3.480 -0.1973  3.1838 -1.7660
 8664TIP3    H225957   6.062   5.514   3.433 -0.2102  0.8341  0.9434
 8665TIP3   OH225958   2.908   6.210   4.703 -0.5984 -0.2066 -0.1140
 8665TIP3    H125959   2.856   6.216   4.622 -1.4114 -0.0544  0.4050
 8665TIP3    H225960   2.853   6.253   4.769  0.0357 -0.3803  0.5326
 8666TIP3   OH225961   3.534   4.277   5.309  0.2184 -0.6997  0.8674
 8666TIP3    H125962   3.487   4.223   5.247 -1.8278  0.5964  1.2192
 8666TIP3    H225963   3.589   4.334   5.255 -1.5888  0.4646  0.1819
 8667TIP3   OH225964   2.139   2.642   3.863 -0.0873  0.0602 -0.3202
 8667TIP3    H125965   2.209   2.707   3.866 -1.5607  1.7325 -0.6719
 8667TIP3    H225966   2.162   2.580   3.933  0.0116  2.4480  1.9301
 8668TIP3   OH225967   6.370   5.780   1.182  0.3028  0.2009  0.3187
 8668TIP3    H125968   6.400   5.772   1.272 -1.2087 -0.1639  0.8147
 8668TIP3    H225969   6.441   5.826   1.137  1.1561  0.2215  1.6397
 8669TIP3   OH225970   5.106   3.864   5.031 -0.0802  0.2788 -0.1108
 8669TIP3    H125971   5.105   3.816   4.948  2.3468  0.7885 -0.5233
 8669TIP3    H225972   5.183   3.830   5.077  1.0425  2.8785  0.0931
 8670TIP3   OH225973   6.606   5.696   2.003  0.6393  0.3221 -0.0826
 8670TIP3    H125974   6.600   5.602   1.988 -0.6934  0.1955  1.0342
 8670TIP3    H225975   6.645   5.704   2.090  0.2925  0.7936  0.0333
 8671TIP3   OH225976   2.374   4.532   3.569  0.0942  0.0140 -0.3388
 8671TIP3    H125977   2.367   4.561   3.478  0.2890  0.7773 -0.1180
 8671TIP3    H225978   2.291   4.487   3.587 -0.5776  1.1891 -0.4373
 8672TIP3   OH225979   3.238   2.538   0.208  0.4746  0.0912  0.3890
 8672TIP3    H125980   3.217   2.529   0.115  1.2660  0.8008  0.1314
 8672TIP3    H225981   3.305   2.606   0.211 -0.0632  0.5892  1.5561
 8673TIP3   OH225982   5.627   3.477   5.543  0.1518 -0.0982  0.0656
 8673TIP3    H125983   5.540   3.489   5.581 -1.0921 -1.2064 -2.2218
 8673TIP3    H225984   5.643   3.383   5.549  1.1271  0.0745  0.2995
 8674TIP3   OH225985   1.990   6.563   5.348  0.1757 -0.2766  0.1442
 8674TIP3    H125986   2.039   6.604   5.277  1.1268 -1.0830  0.3053
 8674TIP3    H225987   1.982   6.631   5.415  0.2789  0.1356 -0.2563
 8675TIP3   OH225988   3.481   2.029   0.724  0.0011 -0.3312  0.0435
 8675TIP3    H125989   3.535   2.041   0.645 -0.5107 -0.5255 -0.3431
 8675TIP3    H225990   3.468   1.934   0.729  0.6997 -0.3925  0.8209
 8676TIP3   OH225991   2.362   5.132   0.617  0.2481  0.0259  0.3934
 8676TIP3    H125992   2.339   5.077   0.692  2.7783  0.3851  1.5548
 8676TIP3    H225993   2.330   5.084   0.541 -1.2494 -0.9990  1.5994
 8677TIP3   OH225994   1.826   4.635   4.837  0.1944  0.1981  0.0410
 8677TIP3    H125995   1.748   4.664   4.884  0.6092 -0.5046  1.2009
 8677TIP3    H225996   1.794   4.566   4.778  0.0801 -0.8471  1.2848
 8678TIP3   OH225997   6.310   0.354   2.337  0.9476 -0.0376 -0.0044
 8678TIP3    H125998   6.386   0.381   2.286  1.5329 -2.6291 -0.6451
 8678TIP3    H225999   6.241   0.340   2.271  0.3897  0.7263  0.4034
 8679TIP3   OH226000   1.587   3.667   0.688  0.0455 -0.9099  0.4740
 8679TIP3    H126001   1.599   3.628   0.775  1.3796 -0.3698  0.5678
 8679TIP3    H226002   1.494   3.689   0.683 -0.0921 -1.1749  1.6719
 8680TIP3   OH226003   6.784   5.958   1.558  0.5120 -0.3120  0.3051
 8680TIP3    H126004   6.860   5.919   1.515 -0.5084 -1.1494 -0.7828
 8680TIP3    H226005   6.816   5.981   1.646  1.9423 -0.8678 -0.0393
 8681TIP3   OH226006   6.848   2.435   1.422  0.7521  0.5638 -0.0019
 8681TIP3    H126007   6.764   2.420   1.380  0.6776 -3.0197  1.0531
 8681TIP3    H226008   6.913   2.418   1.354  0.5914 -0.9777  0.1919
 8682TIP3   OH226009   4.648   5.617   0.324 -0.2919 -0.0324 -0.5173
 8682TIP3    H126010   4.642   5.527   0.354  0.8402 -0.0125 -0.2072
 8682TIP3    H226011   4.673   5.610   0.232  0.0722 -0.0341 -0.4193
 8683TIP3   OH226012   0.453   6.418   4.389 -0.1344  0.5941 -0.0254
 8683TIP3    H126013   0.454   6.485   4.321 -0.8435  0.9038  0.2628
 8683TIP3    H226014   0.362   6.414   4.418  0.0793  0.1741  0.6152
 8684TIP3   OH226015   3.638   4.953   1.062  0.5644  0.5131  0.3966
 8684TIP3    H126016   3.558   4.980   1.107 -0.2798  0.0616 -0.8104
 8684TIP3    H226017   3.671   5.034   1.022 -0.2476  0.3866 -0.5600
 8685TIP3   OH226018   6.663   0.689   5.602 -0.0537  0.3023 -0.2380
 8685TIP3    H126019   6.724   0.626   5.564  0.4020 -0.9549  2.3947
 8685TIP3    H226020   6.631   0.739   5.526  2.7395 -0.2515 -1.9370
 8686TIP3   OH226021   2.817   2.692   1.309  0.7424 -0.8358  0.3588
 8686TIP3    H126022   2.803   2.608   1.264 -1.0632 -0.2414 -0.2962
 8686TIP3    H226023   2.859   2.747   1.243 -0.1797 -0.5465 -0.0081
 8687TIP3   OH226024   2.889   3.477   2.788 -0.0692  0.0063  0.2921
 8687TIP3    H126025   2.808   3.454   2.833 -0.0626 -0.0914  0.2536
 8687TIP3    H226026   2.881   3.438   2.701 -0.5693  1.1542 -0.1940
 8688TIP3   OH226027   4.156   3.398   4.804 -0.4774 -0.0172 -0.3692
 8688TIP3    H126028   4.106   3.436   4.876 -0.7950 -0.5057 -0.3253
 8688TIP3    H226029   4.090   3.370   4.741 -0.2322 -0.1781 -0.5582
 8689TIP3   OH226030   4.840   4.410   2.434  0.6620  0.4920 -0.4134
 8689TIP3    H126031   4.848   4.430   2.527 -1.1773  2.4162 -0.5936
 8689TIP3    H226032   4.904   4.466   2.391  2.4498 -1.3376 -0.3037
 8690TIP3   OH226033   4.581   2.480   2.681 -0.2117  0.4871  0.1081
 8690TIP3    H126034   4.580   2.415   2.751 -2.1246 -1.1289 -1.2874
 8690TIP3    H226035   4.577   2.564   2.726  2.4585 -0.2648  2.0011
 8691TIP3   OH226036   3.025   3.346   2.981 -0.2691 -0.1612 -0.1407
 8691TIP3    H126037   2.948   3.292   3.000  0.1059 -1.1194 -1.2355
 8691TIP3    H226038   2.988   3.426   2.943 -0.7460 -0.4087 -0.2113
 8692TIP3   OH226039   4.497   0.850   2.288  0.0575  1.2247  0.0365
 8692TIP3    H126040   4.428   0.909   2.320 -1.2718  0.0054 -0.4760
 8692TIP3    H226041   4.450   0.775   2.254  1.6601  0.4721 -0.6052
 8693TIP3   OH226042   2.240   2.928   0.821 -0.2111  0.4872 -0.6593
 8693TIP3    H126043   2.309   2.970   0.873 -1.1252  2.1606 -0.7346
 8693TIP3    H226044   2.287   2.871   0.760  0.9467 -0.5257  1.1111
 8694TIP3   OH226045   0.503   4.888   1.963  0.2011  0.5334  0.1128
 8694TIP3    H126046   0.569   4.951   1.995 -0.2556  0.2196  1.7618
 8694TIP3    H226047   0.445   4.875   2.037 -1.7116  0.7204 -1.2779
 8695TIP3   OH226048   1.996   6.061   0.421 -0.0547  0.6375  0.0863
 8695TIP3    H126049   1.983   6.154   0.442  0.1487  0.0748  3.2665
 8695TIP3    H226050   2.042   6.026   0.497 -1.0403 -2.3149 -0.5433
 8696TIP3   OH226051   7.128   3.339   2.005  0.3628  0.0512 -0.5671
 8696TIP3    H126052   7.194   3.407   2.007  0.3897  0.0705 -1.7583
 8696TIP3    H226053   7.049   3.382   2.038  0.9294 -0.0004  0.9637
 8697TIP3   OH226054   0.206   0.748   5.339  0.6741 -0.2131 -0.1509
 8697TIP3    H126055   0.164   0.761   5.254  0.5736 -2.7958 -0.5844
 8697TIP3    H226056   0.243   0.833   5.361  0.2470  0.6633 -2.5295
 8698TIP3   OH226057   0.988   4.388   0.479 -0.3738 -0.2537 -0.7205
 8698TIP3    H126058   0.962   4.297   0.489 -1.5595  0.1975  0.6883
 8698TIP3    H226059   0.952   4.414   0.394 -0.6770 -0.8839 -0.7918
 8699TIP3   OH226060   2.692   4.249   5.499 -0.3145 -0.8525 -0.1372
 8699TIP3    H126061   2.609   4.202   5.503 -0.5844 -0.4955 -1.3554
 8699TIP3    H226062   2.701   4.276   5.408  2.9615 -4.0983 -1.0094
 8700TIP3   OH226063   1.795   3.295   0.438 -0.5227  0.6050 -0.6652
 8700TIP3    H126064   1.749   3.230   0.385  0.0535  0.1105 -0.5712
 8700TIP3    H226065   1.887   3.269   0.434 -0.4880  0.4581  0.7220
 8701TIP3   OH226066   5.531   5.806   2.883  0.0366  0.4339 -0.2193
 8701TIP3    H126067   5.619   5.777   2.909 -0.3798 -1.4817 -0.8154
 8701TIP3    H226068   5.547   5.879   2.823  1.1995  0.4290  0.0574
 8702TIP3   OH226069   1.606   5.365   5.693  0.9864 -0.5385 -0.1769
 8702TIP3    H126070   1.555   5.287   5.717 -0.7631 -0.0494 -2.0358
 8702TIP3    H226071   1.563   5.437   5.740  0.6323 -0.2673 -0.9110
 8703TIP3   OH226072   0.212   0.534   5.094 -0.3135 -0.1111 -0.3347
 8703TIP3    H126073   0.137   0.477   5.114 -0.0833 -0.4574 -0.4398
 8703TIP3    H226074   0.180   0.591   5.024 -0.8351  0.5069  0.3976
 8704TIP3   OH226075   0.029   2.843   3.787 -0.1541 -0.1276  0.7848
 8704TIP3    H126076   0.042   2.931   3.822 -2.8548  0.8440 -0.3345
 8704TIP3    H226077   0.052   2.851   3.694 -0.4768 -0.5768  0.6650
 8705TIP3   OH226078   1.511   3.715   0.026 -0.0293  0.4493  0.6527
 8705TIP3    H126079   1.555   3.798   0.046  2.5022 -0.9525  1.3296
 8705TIP3    H226080   1.476   3.686   0.110 -0.7370  0.7043  0.4544
 8706TIP3   OH226081   2.439   4.197   5.395 -0.3615 -0.1588 -0.1974
 8706TIP3    H126082   2.372   4.170   5.457 -0.1555 -0.7683 -0.2346
 8706TIP3    H226083   2.413   4.156   5.312  0.0775 -0.4229 -0.2030
 8707TIP3   OH226084   3.064   4.555   1.806  0.0285  0.3512  0.5571
 8707TIP3    H126085   3.022   4.493   1.746  1.3628  0.4148 -0.4868
 8707TIP3    H226086   3.046   4.641   1.768  0.9274  0.3892  0.2056
 8708TIP3   OH226087   1.787   3.748   3.659  0.6109 -0.4302 -0.0977
 8708TIP3    H126088   1.766   3.698   3.738 -2.1534  2.2699  1.0920
 8708TIP3    H226089   1.773   3.839   3.685  0.7723  0.6364 -3.3909
 8709TIP3   OH226090   6.543   0.992   0.226  0.1120  0.1623  0.1166
 8709TIP3    H126091   6.574   1.066   0.174  1.3486  0.1724  0.8188
 8709TIP3    H226092   6.535   1.026   0.315  1.1071 -0.6269  0.5356
 8710TIP3   OH226093   4.353   4.100   0.344 -0.1840  0.2521 -0.3135
 8710TIP3    H126094   4.275   4.047   0.324  0.7169 -0.7607 -1.2351
 8710TIP3    H226095   4.425   4.037   0.345  1.1480  1.6200 -2.7125
 8711TIP3   OH226096   0.650   5.943   4.316 -0.4033  0.1055  0.3587
 8711TIP3    H126097   0.716   6.003   4.351  1.3738 -0.8527 -1.1676
 8711TIP3    H226098   0.576   5.953   4.375  0.4341  2.5198  1.1523
 8712TIP3   OH226099   2.835   5.526   5.072 -0.3053 -0.0569  0.0399
 8712TIP3    H126100   2.830   5.448   5.017 -0.8282 -0.2640  0.3730
 8712TIP3    H226101   2.757   5.521   5.128 -0.1084  0.4717  0.3692
 8713TIP3   OH226102   0.054   6.254   2.616 -0.0332  0.6019  0.2962
 8713TIP3    H126103   0.106   6.313   2.562  0.5016 -0.6143 -0.5781
 8713TIP3    H226104   0.110   6.233   2.691  0.1145  0.5386  0.1684
 8714TIP3   OH226105   6.448   1.590   1.372 -0.4459  0.2281 -0.3663
 8714TIP3    H126106   6.394   1.564   1.297 -0.1440 -0.5420 -0.3314
 8714TIP3    H226107   6.504   1.514   1.388 -1.2495 -0.0414  1.3378
 8715TIP3   OH226108   0.240   4.762   5.582  0.0913 -0.4299  0.4352
 8715TIP3    H126109   0.237   4.688   5.521 -0.2247  0.7237 -1.0178
 8715TIP3    H226110   0.222   4.839   5.527 -0.1143  0.6776  1.9809
 8716TIP3   OH226111   4.431   3.511   3.256 -0.2585  0.2731 -0.5163
 8716TIP3    H126112   4.393   3.568   3.323 -0.2215 -0.0682 -0.1981
 8716TIP3    H226113   4.470   3.439   3.306 -2.1813 -1.1584 -0.9899
 8717TIP3   OH226114   1.182   6.484   0.846  0.0450  0.7382  0.3389
 8717TIP3    H126115   1.262   6.501   0.796  0.1838  0.3928  0.4386
 8717TIP3    H226116   1.199   6.401   0.890 -0.5153  0.4815  0.0698
 8718TIP3   OH226117   5.859   4.656   5.151  0.8641 -0.3842 -0.0331
 8718TIP3    H126118   5.767   4.655   5.125  0.2408  0.2960  1.9290
 8718TIP3    H226119   5.877   4.566   5.181  0.9376 -0.5854 -0.6626
 8719TIP3   OH226120   6.659   6.519   4.890 -0.3022 -0.1028  0.2558
 8719TIP3    H126121   6.727   6.466   4.848 -1.6067 -0.3506 -1.6723
 8719TIP3    H226122   6.687   6.527   4.981  2.0648 -0.5544 -0.3758
 8720TIP3   OH226123   5.585   2.516   1.236 -1.0411  0.3055 -0.0556
 8720TIP3    H126124   5.568   2.429   1.273 -2.8075  0.9988  0.8432
 8720TIP3    H226125   5.675   2.510   1.202 -1.1579 -1.8941 -0.1122
 8721TIP3   OH226126   4.617   6.754   2.088  0.3215 -0.1956  0.1160
 8721TIP3    H126127   4.698   6.753   2.139 -0.3262  0.5787  1.1943
 8721TIP3    H226128   4.593   6.661   2.080 -0.5969 -0.2963  2.9708
 8722TIP3   OH226129   3.140   4.567   2.559 -0.0760 -0.0687 -0.6097
 8722TIP3    H126130   3.107   4.478   2.544 -1.0975  0.4962 -1.9821
 8722TIP3    H226131   3.093   4.621   2.494  1.2804  1.2960 -0.5126
 8723TIP3   OH226132   5.561   5.265   0.670 -0.0432  0.5654 -0.5795
 8723TIP3    H126133   5.529   5.308   0.590  0.2873  0.6307 -0.6770
 8723TIP3    H226134   5.560   5.334   0.736 -0.2034  0.5406 -0.5553
 8724TIP3   OH226135   4.631   2.791   5.558 -0.3490 -0.0059 -0.2863
 8724TIP3    H126136   4.686   2.740   5.618 -0.7235 -0.1582 -0.0645
 8724TIP3    H226137   4.552   2.808   5.609  0.5767  2.6157  0.4146
 8725TIP3   OH226138   6.180   5.840   3.010 -0.1339 -0.4428 -0.2827
 8725TIP3    H126139   6.152   5.867   3.097  0.4117 -0.0717 -0.2153
 8725TIP3    H226140   6.265   5.797   3.025 -0.7813 -1.8352 -0.4338
 8726TIP3   OH226141   5.371   4.884   5.902 -0.0091 -0.2751  0.2060
 8726TIP3    H126142   5.322   4.804   5.883 -0.4858 -0.3485  1.6591
 8726TIP3    H226143   5.407   4.910   5.817 -1.9272 -0.6426 -0.7827
 8727TIP3   OH226144   6.070   0.909   0.783  0.1236  0.4486 -0.0655
 8727TIP3    H126145   6.004   0.847   0.753 -0.4267  0.6569  0.6929
 8727TIP3    H226146   6.103   0.872   0.864  0.8640  0.4083 -0.3735
 8728TIP3   OH226147   2.252   0.723   1.317 -0.7086 -0.3609  0.1522
 8728TIP3    H126148   2.218   0.750   1.402  2.4542 -0.6642  1.6515
 8728TIP3    H226149   2.231   0.630   1.311 -0.3331 -0.5053  0.9615
 8729TIP3   OH226150   2.033   3.539   1.811 -0.6651  0.0419 -0.8011
 8729TIP3    H126151   2.036   3.623   1.764  1.0374  0.4414 -0.0453
 8729TIP3    H226152   1.941   3.515   1.809 -1.3674  2.3996 -0.2418
 8730TIP3   OH226153   2.160   5.511   1.620 -0.1914 -0.2375 -0.1219
 8730TIP3    H126154   2.238   5.510   1.675 -0.1135 -1.2480 -0.2362
 8730TIP3    H226155   2.193   5.520   1.531 -0.3007  1.0429 -0.0495
 8731TIP3   OH226156   0.334   0.292   1.200 -0.6559  0.1732 -0.3907
 8731TIP3    H126157   0.291   0.375   1.218 -2.7999 -0.8089 -0.5971
 8731TIP3    H226158   0.319   0.276   1.107  3.0604  1.2658 -1.3377
 8732TIP3   OH226159   5.504   5.939   5.511 -0.1239 -0.1027  0.0832
 8732TIP3    H126160   5.482   6.023   5.551 -0.7786 -0.8379  1.3387
 8732TIP3    H226161   5.508   5.878   5.585  1.0178 -1.0492 -0.7243
 8733TIP3   OH226162   2.127   2.570   2.104  0.4436  0.1384 -0.5352
 8733TIP3    H126163   2.115   2.509   2.176  3.4157 -0.3934 -0.3929
 8733TIP3    H226164   2.055   2.633   2.114 -0.7819 -1.4428  1.2531
 8734TIP3   OH226165   1.103   2.448   1.516  0.1977  0.1330  0.3544
 8734TIP3    H126166   1.142   2.369   1.554 -0.0850 -0.5026 -0.6495
 8734TIP3    H226167   1.151   2.462   1.435 -0.1248  0.6830  0.2527
 8735TIP3   OH226168   1.872   2.160   5.238 -0.2947 -0.1260 -0.0180
 8735TIP3    H126169   1.944   2.169   5.300 -0.8066  0.7891  0.4671
 8735TIP3    H226170   1.865   2.245   5.197 -0.9406 -0.2819 -0.2395
 8736TIP3   OH226171   3.196   2.897   2.300  0.1478  0.2523  0.0893
 8736TIP3    H126172   3.131   2.876   2.233 -0.8154  0.6232  0.8888
 8736TIP3    H226173   3.205   2.992   2.296  0.5896  0.2104  0.0386
 8737TIP3   OH226174   3.844   5.579   1.862  0.1831  0.0655  0.0823
 8737TIP3    H126175   3.802   5.665   1.854  0.3120  0.0071 -1.5741
 8737TIP3    H226176   3.788   5.531   1.922 -0.0291  1.2253  0.8506
 8738TIP3   OH226177   6.363   5.999   2.755  0.1840 -0.2446  0.1623
 8738TIP3    H126178   6.434   6.053   2.720 -0.8539  0.9510 -0.1827
 8738TIP3    H226179   6.298   5.997   2.685  0.1028 -1.7880  0.2606
 8739TIP3   OH226180   4.695   2.648   0.865  0.1920  0.3215  0.2715
 8739TIP3    H126181   4.692   2.573   0.924 -0.9844  0.9044  0.9983
 8739TIP3    H226182   4.748   2.713   0.911  2.3914 -0.5008 -0.9583
 8740TIP3   OH226183   2.230   5.569   3.069 -0.0410  0.4124  0.5658
 8740TIP3    H126184   2.231   5.563   3.165  1.8275  0.5178  0.5917
 8740TIP3    H226185   2.249   5.480   3.040 -3.6581 -0.3536  0.1547
 8741TIP3   OH226186   6.096   2.277   2.135  0.0057 -0.0598  0.4561
 8741TIP3    H126187   6.123   2.318   2.052 -1.8023  0.7923  0.2352
 8741TIP3    H226188   6.032   2.211   2.109 -1.3259  0.8988  1.2160
 8742TIP3   OH226189   5.335   0.974   1.834 -0.1640  0.2014 -0.2595
 8742TIP3    H126190   5.299   0.967   1.922  0.3852 -1.1034 -0.1171
 8742TIP3    H226191   5.274   0.925   1.778 -0.0194  0.2365 -0.4518
 8743TIP3   OH226192   4.150   3.290   5.680  0.4519  0.2622 -0.1551
 8743TIP3    H126193   4.147   3.324   5.591 -0.2649 -1.2884 -0.7527
 8743TIP3    H226194   4.222   3.228   5.680  0.3061  0.0909  0.2853
 8744TIP3   OH226195   6.922   5.179   5.290  0.2325 -0.1831  0.0203
 8744TIP3    H126196   6.867   5.244   5.333  1.5278  2.5176 -2.1243
 8744TIP3    H226197   6.870   5.151   5.214 -0.0860 -1.3029  0.6245
 8745TIP3   OH226198   3.060   2.083   0.466 -0.0545  0.2418  0.5846
 8745TIP3    H126199   3.096   2.004   0.426  1.2190 -0.1002  2.2833
 8745TIP3    H226200   3.068   2.150   0.398 -0.9017 -1.0019 -0.7910
 8746TIP3   OH226201   2.667   0.023   0.708 -0.2253 -0.1112  0.3526
 8746TIP3    H126202   2.606   0.055   0.774 -0.2778 -0.5221  0.5053
 8746TIP3    H226203   2.753   0.031   0.749 -0.2901 -0.7200  0.6192
 8747TIP3   OH226204   2.564   0.011   2.700  0.2941  0.0856 -0.1609
 8747TIP3    H126205   2.572   0.099   2.662 -0.0540 -0.4777 -1.6290
 8747TIP3    H226206   2.609   0.017   2.784 -0.8925  2.0205  0.4106
 8748TIP3   OH226207   5.483   5.506   1.995  0.3393 -0.2197  0.1841
 8748TIP3    H126208   5.530   5.454   2.060  1.6536  0.2448 -0.3681
 8748TIP3    H226209   5.484   5.595   2.030  1.0576  0.0340 -0.4625
 8749TIP3   OH226210   0.058   4.952   4.743  0.1658  0.2989 -0.3021
 8749TIP3    H126211   0.116   4.971   4.817 -0.1951 -0.2836  0.1388
 8749TIP3    H226212  -0.002   5.027   4.740  0.6093  0.6554 -0.4398
 8750TIP3   OH226213   4.323   5.460   3.324 -0.3871 -0.2174  0.3345
 8750TIP3    H126214   4.406   5.472   3.370 -0.6772  0.3015  0.7364
 8750TIP3    H226215   4.258   5.447   3.394 -0.8161  0.4789  0.0764
 8751TIP3   OH226216   5.767   2.663   2.813  0.0615  0.0208  0.1375
 8751TIP3    H126217   5.706   2.653   2.741 -0.4965 -2.1675  0.8229
 8751TIP3    H226218   5.713   2.659   2.892  0.8924 -0.0632  0.7207
 8752TIP3   OH226219   2.222   2.188   2.059  0.6132  0.0901  0.0615
 8752TIP3    H126220   2.216   2.093   2.064  0.9627  0.1225  1.3480
 8752TIP3    H226221   2.133   2.216   2.038  0.2703 -0.4739  0.7121
 8753TIP3   OH226222   0.549   1.921   2.197  0.4525 -0.8081 -0.1371
 8753TIP3    H126223   0.616   1.901   2.263  0.5876 -0.6102 -0.2119
 8753TIP3    H226224   0.599   1.948   2.120  0.2797  0.9858  0.3304
 8754TIP3   OH226225   0.466   1.142   4.396 -0.5752 -0.2334  0.1661
 8754TIP3    H126226   0.383   1.095   4.387 -1.0534  0.5589  0.4001
 8754TIP3    H226227   0.467   1.172   4.487 -1.2035  1.8941 -0.4789
 8755TIP3   OH226228   6.047   6.688   2.745 -0.5991  0.9621  0.5338
 8755TIP3    H126229   6.065   6.676   2.652 -1.4892 -1.4898  0.6265
 8755TIP3    H226230   6.005   6.774   2.750 -0.2292  1.2911 -1.2518
 8756TIP3   OH226231   2.992   5.957   4.096  0.0683 -0.6561  0.9699
 8756TIP3    H126232   2.897   5.966   4.087  0.1731 -0.8286 -0.7611
 8756TIP3    H226233   3.003   5.888   4.161 -1.0478 -1.6993  0.1193
 8757TIP3   OH226234   4.632   1.939   3.621 -0.0105  0.4594  0.1226
 8757TIP3    H126235   4.696   2.009   3.607 -0.2532  0.5752 -0.4323
 8757TIP3    H226236   4.619   1.938   3.716  3.8254 -2.2608  0.8776
 8758TIP3   OH226237   4.715   1.985   5.732  0.8219  0.3669 -0.2452
 8758TIP3    H126238   4.727   2.040   5.654  1.4276 -0.9697 -1.1257
 8758TIP3    H226239   4.729   1.896   5.701 -0.9806 -0.3969  0.9811
 8759TIP3   OH226240   5.734   1.193   4.589  0.5965 -0.4540 -0.5316
 8759TIP3    H126241   5.790   1.121   4.618  0.0052 -1.2101 -1.2217
 8759TIP3    H226242   5.645   1.162   4.607  0.3721  0.7113  0.5122
 8760TIP3   OH226243   5.773   6.294   5.115  0.0199  0.2002 -0.1507
 8760TIP3    H126244   5.744   6.212   5.153  0.2080  0.9392  1.6621
 8760TIP3    H226245   5.857   6.273   5.074  0.0762 -0.5025  0.3164
 8761TIP3   OH226246   6.182   4.396   0.379  0.1401 -0.4385 -0.0243
 8761TIP3    H126247   6.258   4.448   0.355 -0.7897  1.0011 -0.0242
 8761TIP3    H226248   6.107   4.450   0.354 -0.9000 -1.9594 -0.3759
 8762TIP3   OH226249   2.461   3.558   0.784  0.5391  0.1245  0.3667
 8762TIP3    H126250   2.504   3.486   0.738 -0.7155 -0.1748 -0.3842
 8762TIP3    H226251   2.380   3.520   0.818  0.7447  0.7201  1.5874
 8763TIP3   OH226252   0.498   6.646   2.779  0.1146  0.4643  0.0301
 8763TIP3    H126253   0.491   6.576   2.844 -0.8941  1.1655  0.7109
 8763TIP3    H226254   0.550   6.714   2.823 -1.2750  1.2955  0.4728
 8764TIP3   OH226255   4.325   0.942   1.231  0.2070 -0.7229  0.0460
 8764TIP3    H126256   4.348   0.981   1.146 -1.4192  0.0406 -0.0815
 8764TIP3    H226257   4.264   1.004   1.270 -0.2313 -1.7863  1.1113
 8765TIP3   OH226258   2.215   2.880   5.167 -0.0896  0.7242  0.1085
 8765TIP3    H126259   2.139   2.824   5.154 -0.4778  0.9370  1.3547
 8765TIP3    H226260   2.214   2.939   5.091 -1.1317  0.6738  0.0634
 8766TIP3   OH226261   3.114   2.025   5.719 -0.0276 -0.3267  0.0085
 8766TIP3    H126262   3.139   1.960   5.784  0.4198  1.3333  1.6039
 8766TIP3    H226263   3.198   2.059   5.686 -0.2318  0.4613  0.2908
 8767TIP3   OH226264   1.750   1.983   1.610 -0.3742  0.3571  0.0901
 8767TIP3    H126265   1.756   1.888   1.602 -0.0465  0.3689  0.1605
 8767TIP3    H226266   1.709   2.011   1.529 -0.1979  0.1815 -0.0604
 8768TIP3   OH226267   0.202   4.648   1.713 -0.0444  0.0240 -0.0329
 8768TIP3    H126268   0.106   4.645   1.718 -0.1713  1.8955 -0.7755
 8768TIP3    H226269   0.225   4.737   1.739  1.4293 -0.0837 -0.8774
 8769TIP3   OH226270   1.494   0.514   5.858  0.1638 -0.2125 -0.0433
 8769TIP3    H126271   1.513   0.431   5.813  0.9431  0.7041 -1.4952
 8769TIP3    H226272   1.535   0.581   5.803  0.9822  1.0195  1.9544
 8770TIP3   OH226273   5.084   1.177   3.276 -0.7219 -0.0483 -0.1521
 8770TIP3    H126274   5.146   1.104   3.277 -0.7029 -0.1558  3.1541
 8770TIP3    H226275   5.135   1.252   3.305 -1.5846  0.4042  0.2299
 8771TIP3   OH226276   3.619   3.582   4.853 -0.1345 -0.4037 -0.0490
 8771TIP3    H126277   3.557   3.613   4.787  0.0818 -1.4396 -0.7644
 8771TIP3    H226278   3.704   3.584   4.809  0.2994  0.5693  0.7819
 8772TIP3   OH226279   4.169   4.166   5.190  0.3847 -0.3122 -0.0695
 8772TIP3    H126280   4.236   4.098   5.200  1.4420  0.4860 -1.3415
 8772TIP3    H226281   4.089   4.127   5.225  1.0715 -2.0458 -0.3499
 8773TIP3   OH226282   4.631   0.498   2.520  0.0820  0.0431  0.3795
 8773TIP3    H126283   4.676   0.533   2.443 -0.7685 -1.0457 -0.6366
 8773TIP3    H226284   4.656   0.558   2.591 -2.0690  3.3687 -1.4041
 8774TIP3   OH226285   2.544   6.211   4.006  0.1248  0.1427  0.1135
 8774TIP3    H126286   2.524   6.218   3.913  3.4310 -0.6649 -0.8124
 8774TIP3    H226287   2.499   6.285   4.046 -0.9656  0.8388 -2.1976
 8775TIP3   OH226288   0.405   6.536   0.896 -0.4217  0.0752 -0.1450
 8775TIP3    H126289   0.350   6.534   0.817 -1.4233 -0.1377  0.5408
 8775TIP3    H226290   0.462   6.460   0.887  0.5144  0.8791 -1.3733
 8776TIP3   OH226291   2.535   1.708   1.437 -0.5241 -0.4424  0.9061
 8776TIP3    H126292   2.450   1.713   1.395  0.4469 -0.6481 -1.2016
 8776TIP3    H226293   2.589   1.656   1.377  1.3908  0.5886  1.6381
 8777TIP3   OH226294   2.356   3.010   1.240 -0.1417  0.0234 -0.0552
 8777TIP3    H126295   2.397   3.034   1.156  0.5431  0.1908  0.3223
 8777TIP3    H226296   2.405   3.059   1.305 -0.0551 -0.8250  0.5363
 8778TIP3   OH226297   6.159   6.646   0.578  0.0628 -0.1008  0.1356
 8778TIP3    H126298   6.234   6.688   0.621  0.1819 -0.3120  0.1328
 8778TIP3    H226299   6.197   6.597   0.505 -0.0487 -0.4099  0.2824
 8779TIP3   OH226300   3.522   5.776   2.947 -0.0154 -0.0267  0.0382
 8779TIP3    H126301   3.459   5.708   2.926  2.0914 -2.0689 -0.0379
 8779TIP3    H226302   3.571   5.742   3.022  2.6472  0.2654 -1.4372
 8780TIP3   OH226303   1.873   5.740   0.812 -0.2532  0.0359  0.5283
 8780TIP3    H126304   1.828   5.711   0.892  0.5337  0.9123  1.3103
 8780TIP3    H226305   1.864   5.666   0.751 -1.6966 -0.2756  1.0782
 8781TIP3   OH226306   0.226   2.214   3.917 -0.0581 -0.6436 -0.0196
 8781TIP3    H126307   0.190   2.228   4.005 -0.5638  1.6868 -0.5316
 8781TIP3    H226308   0.308   2.165   3.932  1.1001  1.7067  2.0168
 8782TIP3   OH226309   3.598   5.521   4.801 -0.2508  0.0382  0.2740
 8782TIP3    H126310   3.532   5.506   4.734  1.0504 -3.1650 -0.4899
 8782TIP3    H226311   3.677   5.546   4.752  0.0211  0.3060  0.8414
 8783TIP3   OH226312   2.791   6.585   0.939  0.5196  0.3633  0.5465
 8783TIP3    H126313   2.729   6.649   0.903 -1.5702 -1.2329  1.1248
 8783TIP3    H226314   2.877   6.625   0.924 -0.4339  1.6281 -2.4676
 8784TIP3   OH226315   4.877   2.227   4.783  0.0486  0.8822 -0.0169
 8784TIP3    H126316   4.869   2.173   4.705  2.3402  1.2281 -0.5654
 8784TIP3    H226317   4.848   2.314   4.755 -1.2453  0.5438  0.1807
 8785TIP3   OH226318   3.835   0.462   3.845  0.1477 -0.5612  0.1460
 8785TIP3    H126319   3.784   0.543   3.850  0.6430 -0.0655 -2.0570
 8785TIP3    H226320   3.825   0.432   3.755  0.0133 -2.9777  0.8744
 8786TIP3   OH226321   3.266   4.130   1.009 -0.8596  0.2450 -0.4786
 8786TIP3    H126322   3.178   4.166   1.012 -1.8841 -2.1669  0.3265
 8786TIP3    H226323   3.267   4.074   0.931 -0.0204  0.2589 -0.4907
 8787TIP3   OH226324   3.274   2.891   5.010  0.0696 -0.5350  0.5243
 8787TIP3    H126325   3.332   2.962   5.037  1.6153 -1.0342 -1.2371
 8787TIP3    H226326   3.215   2.930   4.946 -0.9680 -0.2417  1.6274
 8788TIP3   OH226327   1.161   1.298   1.520  0.2480  0.5036  0.4758
 8788TIP3    H126328   1.090   1.278   1.580  0.6368  1.9721  1.4790
 8788TIP3    H226329   1.189   1.212   1.486 -2.4896 -0.0635 -0.5961
 8789TIP3   OH226330   4.472   2.002   2.114 -0.2270  0.0175 -0.5460
 8789TIP3    H126331   4.470   1.928   2.053  0.9336 -0.9181  0.5180
 8789TIP3    H226332   4.563   2.009   2.142 -0.6520  0.6706  0.7843
 8790TIP3   OH226333   5.580   5.707   2.516 -0.2071  0.1410  0.2637
 8790TIP3    H126334   5.672   5.680   2.516  0.0795  0.5352  4.2390
 8790TIP3    H226335   5.583   5.802   2.513 -0.5924  0.1413 -0.4740
 8791TIP3   OH226336   2.436   0.545   0.184  0.5271  0.2262  0.1203
 8791TIP3    H126337   2.433   0.520   0.091  0.6026  1.0059 -0.1008
 8791TIP3    H226338   2.507   0.609   0.189  2.6070 -2.0268  1.3017
 8792TIP3   OH226339   2.144   0.972   2.678  0.3007 -0.3333  0.0138
 8792TIP3    H126340   2.084   0.992   2.751  2.6711  0.8649  1.7957
 8792TIP3    H226341   2.181   0.887   2.700  0.1454 -0.5108 -0.4183
 8793TIP3   OH226342   4.984   3.753   1.424 -0.0991  0.7054 -0.6347
 8793TIP3    H126343   5.007   3.756   1.517 -0.3505 -0.0705 -0.5414
 8793TIP3    H226344   5.046   3.691   1.387  0.0764  1.1054 -1.0129
 8794TIP3   OH226345   0.137   4.706   0.536  0.0593 -0.3041  0.1362
 8794TIP3    H126346   0.069   4.664   0.589 -0.5936  0.3646 -0.1573
 8794TIP3    H226347   0.155   4.644   0.466 -0.9598 -0.0754 -0.3462
 8795TIP3   OH226348   2.098   3.393   4.885  0.1253 -0.1091 -0.1613
 8795TIP3    H126349   2.076   3.312   4.932  0.4488  0.1136  0.3723
 8795TIP3    H226350   2.039   3.459   4.923  0.3166  0.0488 -0.1412
 8796TIP3   OH226351   3.552   1.600   5.230  0.0503 -0.4388  0.3774
 8796TIP3    H126352   3.629   1.644   5.266 -0.1814  1.7509 -1.5307
 8796TIP3    H226353   3.478   1.655   5.255 -0.7606 -1.7334  0.9553
 8797TIP3   OH226354   6.551   1.466   5.013 -0.0009 -0.2672 -0.4818
 8797TIP3    H126355   6.631   1.479   5.063 -0.7107 -1.3658  1.0036
 8797TIP3    H226356   6.577   1.478   4.922  1.3290  1.8600  0.0960
 8798TIP3   OH226357   3.028   2.041   2.481  0.2860 -0.1283  0.5902
 8798TIP3    H126358   2.980   2.063   2.400 -0.2416 -0.3902  0.8234
 8798TIP3    H226359   3.063   1.954   2.465 -1.8753 -1.2651  1.5090
 8799TIP3   OH226360   2.398   3.788   0.364  0.0033  0.4892  0.3823
 8799TIP3    H126361   2.394   3.814   0.272 -1.4787 -0.1829  0.2284
 8799TIP3    H226362   2.442   3.861   0.408  1.4651  0.4478 -0.9700
 8800TIP3   OH226363   2.897   0.544   1.867  0.4998 -0.0086  0.4600
 8800TIP3    H126364   2.905   0.631   1.906  1.4735  0.5038 -0.7882
 8800TIP3    H226365   2.975   0.497   1.897 -0.7936 -1.0343  2.4094
 8801TIP3   OH226366   1.354   5.727   3.586  0.3482 -0.2499 -0.1146
 8801TIP3    H126367   1.267   5.725   3.545  0.2585 -0.7357  0.0838
 8801TIP3    H226368   1.376   5.634   3.599  1.1725 -0.1488 -0.7318
 8802TIP3   OH226369   2.790   6.671   0.627 -0.1101 -0.3113  0.3670
 8802TIP3    H126370   2.873   6.649   0.670  0.2630 -0.9379 -0.6411
 8802TIP3    H226371   2.736   6.593   0.637 -0.1014 -0.3813 -0.0919
 8803TIP3   OH226372   2.181   3.408   1.097  0.1422  0.4578 -0.4685
 8803TIP3    H126373   2.209   3.330   1.146  1.1813  0.5622 -0.8602
 8803TIP3    H226374   2.243   3.412   1.024  0.1442  1.7023 -0.4071
 8804TIP3   OH226375   0.215   2.140   1.679 -0.4910  0.2120 -0.6687
 8804TIP3    H126376   0.155   2.184   1.739  1.4309  1.6678  0.3190
 8804TIP3    H226377   0.243   2.061   1.726  0.7927  1.2050  0.3142
 8805TIP3   OH226378   4.191   3.598   3.986  0.1210  0.7022 -0.2891
 8805TIP3    H126379   4.231   3.547   4.056 -1.9826  0.8098  1.1072
 8805TIP3    H226380   4.101   3.613   4.016 -1.5353 -0.9117 -3.8972
 8806TIP3   OH226381   2.346   5.785   4.682  0.0735 -0.1051  0.0573
 8806TIP3    H126382   2.400   5.707   4.669 -0.2624 -0.2893 -0.2282
 8806TIP3    H226383   2.349   5.831   4.598  0.5532  0.3748  0.3268
 8807TIP3   OH226384   6.689   4.469   4.678  0.3591 -0.1467 -0.2019
 8807TIP3    H126385   6.644   4.551   4.701  0.2987 -0.1994 -0.1322
 8807TIP3    H226386   6.626   4.400   4.699 -0.2223 -0.1402 -1.7707
 8808TIP3   OH226387   6.884   0.983   5.379 -0.0431  0.3275  0.4148
 8808TIP3    H126388   6.904   0.957   5.469 -0.8102 -1.0776  0.2064
 8808TIP3    H226389   6.890   0.902   5.329  0.2723  1.0753 -0.7996
 8809TIP3   OH226390   0.112   5.956   1.806 -0.2693 -0.1024 -0.1612
 8809TIP3    H126391   0.033   5.935   1.855  0.4669  0.4607  1.3159
 8809TIP3    H226392   0.181   5.903   1.846  0.1797 -0.3712 -1.2361
 8810TIP3   OH226393   0.946   1.619   0.594 -0.6652 -0.5345 -0.2502
 8810TIP3    H126394   0.901   1.689   0.642  1.6730  0.0150  1.3368
 8810TIP3    H226395   0.985   1.663   0.518 -0.4592 -0.4155 -0.0769
 8811TIP3   OH226396   3.925   3.754   0.699  0.6155  0.1898 -0.0853
 8811TIP3    H126397   3.972   3.671   0.690  0.1869 -0.0154 -0.4717
 8811TIP3    H226398   3.980   3.818   0.654  0.8652  0.0855  0.0691
 8812TIP3   OH226399   5.736   6.740   3.197 -0.2683  0.1557  0.1939
 8812TIP3    H126400   5.673   6.672   3.171  1.0466 -0.5087 -1.3952
 8812TIP3    H226401   5.784   6.701   3.270  1.3154 -1.2378 -1.4747
 8813TIP3   OH226402   4.319   4.399   1.139 -0.0184  0.2158  0.4218
 8813TIP3    H126403   4.367   4.330   1.184 -0.1801 -0.7737 -0.8331
 8813TIP3    H226404   4.232   4.361   1.122 -0.2553  0.8843  0.0754
 8814TIP3   OH226405   0.507   5.102   5.600  0.3887  0.1097  0.0358
 8814TIP3    H126406   0.521   5.191   5.634 -0.3299  0.2380  0.0067
 8814TIP3    H226407   0.415   5.085   5.616  0.5233 -0.6374  0.0331
 8815TIP3   OH226408   2.133   6.638   1.417 -0.1862  0.2753 -0.2015
 8815TIP3    H126409   2.097   6.703   1.478  2.5661  0.8574  0.9342
 8815TIP3    H226410   2.147   6.560   1.470  0.5166  0.1752 -0.5243
 8816TIP3   OH226411   0.224   3.646   3.357 -0.2923 -0.5355 -0.3744
 8816TIP3    H126412   0.220   3.653   3.261  0.4773 -0.2134 -0.3900
 8816TIP3    H226413   0.315   3.666   3.378 -0.5726 -0.1113  0.4658
 8817TIP3   OH226414   1.899   5.672   5.239  0.1314  0.6869  0.6623
 8817TIP3    H126415   1.907   5.738   5.308 -0.7642  1.5151  0.0002
 8817TIP3    H226416   1.906   5.588   5.285  2.6308  1.1920  1.3652
 8818TIP3   OH226417   4.182   0.841   0.564 -0.0317 -0.3430 -0.3694
 8818TIP3    H126418   4.124   0.811   0.634 -0.7462 -1.7024 -1.5157
 8818TIP3    H226419   4.256   0.780   0.566 -0.6504 -1.1653 -1.5735
 8819TIP3   OH226420   5.447   4.199   2.252 -0.4670 -0.5177  0.6860
 8819TIP3    H126421   5.355   4.226   2.244 -1.4061 -3.4749  0.4081
 8819TIP3    H226422   5.477   4.242   2.332 -2.5788 -0.7133  1.6630
 8820TIP3   OH226423   5.596   3.157   3.607 -0.0887 -0.2137 -0.3379
 8820TIP3    H126424   5.667   3.113   3.654 -0.1999  2.7440  3.0507
 8820TIP3    H226425   5.636   3.239   3.575 -1.6046  0.9508  0.6141
 8821TIP3   OH226426   3.301   0.340   2.151  0.0498 -0.4146  0.0626
 8821TIP3    H126427   3.387   0.311   2.121  0.2451  0.6626 -0.4567
 8821TIP3    H226428   3.313   0.356   2.245  0.3863 -0.3865  0.0175
 8822TIP3   OH226429   3.351   6.130   1.223 -0.6871 -0.3715  0.6283
 8822TIP3    H126430   3.438   6.167   1.239 -0.8901 -0.5184  2.2962
 8822TIP3    H226431   3.339   6.066   1.293 -2.4893  0.3094  1.0008
 8823TIP3   OH226432   2.482   1.176   5.058 -0.4716 -0.1062  0.1030
 8823TIP3    H126433   2.391   1.205   5.045 -0.8698 -1.4179 -0.1297
 8823TIP3    H226434   2.513   1.230   5.131 -1.4117  0.4087  0.1416
 8824TIP3   OH226435   2.193   4.244   2.748 -0.1819  0.2223  0.3716
 8824TIP3    H126436   2.166   4.193   2.672  0.3012  0.0410  0.3237
 8824TIP3    H226437   2.269   4.293   2.719  0.6325 -0.6239  1.0307
 8825TIP3   OH226438   4.862   1.410   4.174 -0.8667  0.1444  0.3981
 8825TIP3    H126439   4.807   1.367   4.109  1.8186  2.2863 -3.7679
 8825TIP3    H226440   4.817   1.492   4.194 -0.7975  0.3606 -0.3219
 8826TIP3   OH226441   4.249   0.514   4.266  0.0120 -0.2666 -0.7668
 8826TIP3    H126442   4.314   0.531   4.334 -0.9814  2.2566 -0.3196
 8826TIP3    H226443   4.281   0.564   4.190 -1.3001  0.9698 -0.5497
 8827TIP3   OH226444   2.841   3.306   3.781 -0.6056  0.3118  0.0192
 8827TIP3    H126445   2.817   3.399   3.785 -1.9369 -0.0142  0.0692
 8827TIP3    H226446   2.917   3.298   3.839 -2.3229  0.8276  2.4758
 8828TIP3   OH226447   4.160   6.656   0.211  0.4747  0.1377  0.3015
 8828TIP3    H126448   4.088   6.694   0.261  0.1313  0.3101 -0.3144
 8828TIP3    H226449   4.185   6.725   0.150 -1.5925 -1.3092 -2.3689
 8829TIP3   OH226450   1.461   4.470   4.055  0.2263 -0.1457  0.0575
 8829TIP3    H126451   1.405   4.512   4.120 -0.2101 -0.1067 -0.3370
 8829TIP3    H226452   1.513   4.542   4.018 -1.0683  0.2043 -1.1650
 8830TIP3   OH226453   0.955   2.806   1.038 -0.6557  0.1871 -0.0893
 8830TIP3    H126454   0.869   2.766   1.029  0.0938 -1.2426 -1.3579
 8830TIP3    H226455   1.013   2.753   0.982  1.3238  0.3080  1.7043
 8831TIP3   OH226456   3.953   1.134   2.269  0.9725  0.3118  0.2272
 8831TIP3    H126457   3.939   1.068   2.336 -0.4343  1.2357  0.9058
 8831TIP3    H226458   3.892   1.109   2.198  0.9652  0.4680  0.1778
 8832TIP3   OH226459   3.051   3.483   1.537  0.2129  0.5813  0.0830
 8832TIP3    H126460   3.039   3.486   1.442 -0.9557  0.5594  0.2188
 8832TIP3    H226461   3.013   3.564   1.569 -0.4530  0.0629  0.6340
 8833TIP3   OH226462   5.226   6.225   5.071  0.2654 -0.1475 -0.0465
 8833TIP3    H126463   5.280   6.300   5.098  0.5640  0.0528 -1.1627
 8833TIP3    H226464   5.168   6.209   5.146  0.6427  0.7857  0.4592
 8834TIP3   OH226465   6.834   4.130   4.364 -0.1761  0.0553  0.0782
 8834TIP3    H126466   6.815   4.197   4.431  2.1802  2.1284 -1.1655
 8834TIP3    H226467   6.923   4.101   4.384  0.1950 -0.0005 -1.5830
 8835TIP3   OH226468   0.745   4.734   4.878 -0.0469  0.2903 -0.0463
 8835TIP3    H126469   0.672   4.696   4.926 -0.1570 -0.0259 -0.4686
 8835TIP3    H226470   0.736   4.701   4.789 -0.6653  2.0046 -0.6574
 8836TIP3   OH226471   4.540   5.063   0.764 -0.4474 -0.0161  0.4260
 8836TIP3    H126472   4.549   5.042   0.857  0.7917  0.0694  0.3438
 8836TIP3    H226473   4.630   5.068   0.732 -0.8679 -1.7077 -1.1686
 8837TIP3   OH226474   1.981   4.789   3.595  0.6924 -0.0407  0.1723
 8837TIP3    H126475   1.960   4.696   3.601  0.9016 -0.1958 -1.2507
 8837TIP3    H226476   2.076   4.793   3.591  0.6658 -0.0256 -2.6309
 8838TIP3   OH226477   0.912   0.982   2.350  0.1609 -0.6390 -0.0119
 8838TIP3    H126478   0.928   1.057   2.291  1.8921 -0.3821  0.7255
 8838TIP3    H226479   0.841   0.933   2.307 -1.0216  1.3898 -0.5285
 8839TIP3   OH226480   2.451   4.844   4.717  0.2134 -0.1237  0.3606
 8839TIP3    H126481   2.428   4.848   4.809 -0.1420 -3.1392  0.4978
 8839TIP3    H226482   2.372   4.873   4.671  0.1784  0.7753  0.9713
 8840TIP3   OH226483   4.658   0.255   3.376 -0.0906 -0.1375  0.4528
 8840TIP3    H126484   4.660   0.316   3.450 -2.2592  0.4036  0.1212
 8840TIP3    H226485   4.712   0.181   3.405 -0.0540  0.5158  2.1674
 8841TIP3   OH226486   7.008   5.286   0.145 -0.7952  0.0496 -0.1680
 8841TIP3    H126487   7.033   5.334   0.224  0.0623 -1.5332  0.5705
 8841TIP3    H226488   7.089   5.244   0.115 -1.5407 -1.0777 -0.6687
 8842TIP3   OH226489   2.970   4.218   3.664  0.9442 -0.5009 -0.1428
 8842TIP3    H126490   3.029   4.208   3.739  0.6721 -0.3814  0.0885
 8842TIP3    H226491   2.888   4.178   3.692  1.3479 -2.0290 -1.0035
 8843TIP3   OH226492   5.711   4.841   4.792  0.4018  0.3031  0.2929
 8843TIP3    H126493   5.796   4.883   4.783  0.7174  0.0097  1.6516
 8843TIP3    H226494   5.725   4.752   4.759  0.1988  0.6941 -0.9060
 8844TIP3   OH226495   3.297   3.324   2.010  0.3933  0.2033  0.1471
 8844TIP3    H126496   3.219   3.303   2.061  0.3280  0.3893  0.1233
 8844TIP3    H226497   3.291   3.418   1.993  0.7716  0.2778  0.4013
 8845TIP3   OH226498   4.128   4.760   2.453  0.0003  0.2521  0.3291
 8845TIP3    H126499   4.211   4.714   2.442 -0.3732 -0.1153 -1.1527
 8845TIP3    H226500   4.061   4.698   2.423 -0.5360  1.6111 -1.4728
 8846TIP3   OH226501   2.999   2.611   2.687 -0.2863  0.5130  0.2759
 8846TIP3    H126502   2.988   2.664   2.608  0.4437 -0.5785 -0.5823
 8846TIP3    H226503   3.077   2.647   2.729  0.7345 -0.3917 -0.7691
 8847TIP3   OH226504   5.369   6.367   3.064 -0.0997 -0.3689  0.0712
 8847TIP3    H126505   5.449   6.411   3.093  0.4802 -1.2043 -0.2293
 8847TIP3    H226506   5.359   6.293   3.124  0.6680 -1.6454 -1.3055
 8848TIP3   OH226507   7.162   2.523   1.778  0.3742  0.1753 -0.5303
 8848TIP3    H126508   7.131   2.469   1.706 -1.2976  1.5513 -0.9194
 8848TIP3    H226509   7.257   2.522   1.771  0.2458  0.1860 -2.6907
 8849TIP3   OH226510   4.939   2.973   3.114  0.2883  0.0329 -0.5301
 8849TIP3    H126511   5.022   2.977   3.067  1.5841 -0.9813  1.4961
 8849TIP3    H226512   4.958   3.012   3.200 -2.0139  2.0248 -0.8198
 8850TIP3   OH226513   2.000   5.684   5.526 -0.3890  0.4019 -0.1346
 8850TIP3    H126514   1.952   5.603   5.512  0.0199 -0.6928  3.6251
 8850TIP3    H226515   2.092   5.659   5.519 -0.1305 -0.3335  3.7335
 8851TIP3   OH226516   2.905   5.711   0.644  0.0913  0.4068 -0.0157
 8851TIP3    H126517   2.820   5.676   0.671  0.2068  1.7269  2.2624
 8851TIP3    H226518   2.947   5.638   0.598 -0.7934 -1.5524  2.0843
 8852TIP3   OH226519   4.039   5.965   5.706  0.0306  0.2123  0.5068
 8852TIP3    H126520   4.017   6.056   5.688  0.8628  0.3610  0.1769
 8852TIP3    H226521   4.133   5.966   5.725  0.2521 -0.6842 -0.4028
 8853TIP3   OH226522   5.978   6.335   4.480 -0.1296 -0.0179 -0.5545
 8853TIP3    H126523   5.958   6.370   4.567  1.4368  2.0758 -0.9378
 8853TIP3    H226524   5.898   6.291   4.452 -1.2515  0.7641  1.2388
 8854TIP3   OH226525   5.528   4.338   1.186  0.3195  0.2862 -0.6680
 8854TIP3    H126526   5.534   4.425   1.146 -0.0713 -0.1920 -1.7986
 8854TIP3    H226527   5.551   4.277   1.115  1.4543 -0.5007  0.3400
 8855TIP3   OH226528   2.681   3.961   5.536  0.4641 -0.7329 -0.0082
 8855TIP3    H126529   2.716   4.011   5.609 -0.2340 -1.1779  0.6503
 8855TIP3    H226530   2.610   3.909   5.575 -0.6459 -0.1606 -1.2094
 8856TIP3   OH226531   5.918   4.138   4.935  0.2165 -0.2977  0.3563
 8856TIP3    H126532   5.872   4.059   4.908  1.6802 -1.5838  1.4438
 8856TIP3    H226533   5.874   4.164   5.016 -0.9596  0.6816 -0.5519
 8857TIP3   OH226534   2.161   4.978   4.665  0.0707  0.3117  0.0656
 8857TIP3    H126535   2.103   4.903   4.672  2.5278 -1.6248  0.8118
 8857TIP3    H226536   2.129   5.040   4.731 -2.5225  0.4065 -1.1697
 8858TIP3   OH226537   2.691   0.054   4.772  0.2381  0.2184 -0.0703
 8858TIP3    H126538   2.780   0.018   4.781  0.1160  0.1912  1.1412
 8858TIP3    H226539   2.634  -0.018   4.796 -0.0129  1.1704  2.4758
 8859TIP3   OH226540   6.579   1.561   3.069 -0.0294 -0.6152  0.1410
 8859TIP3    H126541   6.553   1.474   3.098 -0.4224 -0.5903 -0.1258
 8859TIP3    H226542   6.519   1.581   2.996  1.4141 -0.9889 -1.1973
 8860TIP3   OH226543   4.667   3.815   1.928 -0.2001  0.4022  0.6219
 8860TIP3    H126544   4.713   3.888   1.971  2.0523 -0.0540 -0.8192
 8860TIP3    H226545   4.592   3.856   1.885  0.4948  1.7241  0.6025
 8861TIP3   OH226546   4.716   1.355   3.012  0.3689 -0.8644 -0.0407
 8861TIP3    H126547   4.649   1.323   3.072 -1.4638 -1.1172 -2.1133
 8861TIP3    H226548   4.786   1.290   3.018 -0.1454 -1.3306  1.1723
 8862TIP3   OH226549   0.426   3.510   2.714 -0.0652  0.2820  0.0398
 8862TIP3    H126550   0.448   3.563   2.790  2.0359  0.8274 -0.8849
 8862TIP3    H226551   0.401   3.573   2.646  2.7990  0.2535 -1.1770
 8863TIP3   OH226552   4.516   3.390   4.291 -0.4514 -0.0475 -0.2716
 8863TIP3    H126553   4.601   3.432   4.303  0.2169 -0.1889 -3.5547
 8863TIP3    H226554   4.536   3.309   4.244 -2.1839 -1.5399  1.4390
 8864TIP3   OH226555   1.905   6.659   3.988 -0.0028  0.0554  0.0248
 8864TIP3    H126556   1.877   6.576   3.949  0.8808  1.1080 -3.2146
 8864TIP3    H226557   1.842   6.724   3.956  0.9572  1.0560  0.0657
 8865TIP3   OH226558   2.579   0.911   2.770 -0.0649  0.0170  0.2795
 8865TIP3    H126559   2.494   0.933   2.808 -0.1072  0.3131  0.0093
 8865TIP3    H226560   2.559   0.875   2.684  0.0948  0.2559  0.1422
 8866TIP3   OH226561   6.282   5.002   5.008  0.2251 -0.1040  0.8254
 8866TIP3    H126562   6.256   5.092   4.990 -1.1411 -0.3948  1.2030
 8866TIP3    H226563   6.310   4.968   4.924 -2.0008 -0.1634  0.0486
 8867TIP3   OH226564   5.412   3.055   5.289  0.5193  0.1855 -0.3368
 8867TIP3    H126565   5.480   3.113   5.254 -1.6148  2.3088 -1.2379
 8867TIP3    H226566   5.344   3.114   5.321 -0.9299 -1.8445  0.5337
 8868TIP3   OH226567   6.956   6.818   0.151 -0.0870  0.0109  0.0325
 8868TIP3    H126568   6.929   6.793   0.239  0.6860 -1.2457 -0.0520
 8868TIP3    H226569   6.931   6.743   0.096  3.8225 -1.5593  0.0268
 8869TIP3   OH226570   5.634   6.265   2.879  0.2825  0.2423  0.0961
 8869TIP3    H126571   5.617   6.239   2.788  1.1214 -0.6472  0.1799
 8869TIP3    H226572   5.586   6.201   2.932 -0.9297  1.2712  0.3090
 8870TIP3   OH226573   6.833   2.323   4.560 -0.2149 -0.0019 -0.4883
 8870TIP3    H126574   6.907   2.265   4.576 -0.6315 -0.0519  1.5361
 8870TIP3    H226575   6.844   2.352   4.470  1.9595 -0.4393 -0.4135
 8871TIP3   OH226576   3.060   5.373   5.510 -0.1900  0.0299 -0.1125
 8871TIP3    H126577   2.990   5.309   5.497  0.2196  0.0467 -2.9625
 8871TIP3    H226578   3.121   5.357   5.439  1.4053  1.7486  0.7728
 8872TIP3   OH226579   6.315   2.969   0.884  0.1646  0.1102  0.3191
 8872TIP3    H126580   6.395   2.989   0.836 -0.8242  2.8642 -0.3570
 8872TIP3    H226581   6.269   2.906   0.829  1.1240 -0.2703 -0.0685
 8873TIP3   OH226582   3.582   1.602   0.430 -0.0490 -0.6813  0.1866
 8873TIP3    H126583   3.647   1.562   0.489  0.9136 -0.6593 -0.8263
 8873TIP3    H226584   3.578   1.542   0.356 -2.1240 -1.3181  0.7608
 8874TIP3   OH226585   3.356   0.473   1.926 -0.0245 -0.9873  0.1137
 8874TIP3    H126586   3.338   0.431   2.010  0.7412 -1.2660  0.1435
 8874TIP3    H226587   3.288   0.438   1.867 -0.7673 -0.5352  0.6839
 8875TIP3   OH226588   0.985   5.826   0.422  0.3805  0.1331  0.2113
 8875TIP3    H126589   0.910   5.831   0.481  0.7539 -1.1142  0.8275
 8875TIP3    H226590   0.961   5.759   0.358  0.1154  1.2391 -0.8875
 8876TIP3   OH226591   0.166   6.211   5.466  0.0256 -0.4402  0.0811
 8876TIP3    H126592   0.086   6.218   5.413 -1.1157 -1.3954  1.6014
 8876TIP3    H226593   0.214   6.292   5.447 -0.5691 -0.5115 -1.9972
 8877TIP3   OH226594   2.403   5.888   1.182 -0.0298 -0.6152 -0.0749
 8877TIP3    H126595   2.449   5.810   1.213 -1.0718 -1.5149 -0.7468
 8877TIP3    H226596   2.421   5.890   1.088 -2.3044 -1.6689 -0.5849
 8878TIP3   OH226597   6.897   1.788   2.828  0.4314 -0.5556 -0.1411
 8878TIP3    H126598   6.992   1.784   2.839  0.4610 -0.0076 -0.2107
 8878TIP3    H226599   6.862   1.759   2.913  0.6597  0.0306  0.1551
 8879TIP3   OH226600   5.469   4.452   4.896 -0.1409  0.2316  0.4097
 8879TIP3    H126601   5.474   4.522   4.831  0.4642  0.3937  0.6159
 8879TIP3    H226602   5.384   4.411   4.883  0.6369 -0.8486 -1.6448
 8880TIP3   OH226603   0.413   3.094   2.899  0.6964  0.0613  0.0280
 8880TIP3    H126604   0.431   3.012   2.854 -1.1743  0.8799 -2.5245
 8880TIP3    H226605   0.468   3.158   2.854 -0.6509  0.7688 -0.7096
 8881TIP3   OH226606   0.525   4.319   5.392  0.3531  0.1047 -0.1507
 8881TIP3    H126607   0.446   4.359   5.357  0.6111  1.0380  0.2968
 8881TIP3    H226608   0.557   4.382   5.457  1.4028 -0.3040 -0.2532
 8882TIP3   OH226609   3.758   6.689   3.096 -0.4387 -0.3722  0.6993
 8882TIP3    H126610   3.702   6.743   3.152 -1.9981 -1.1074 -0.0675
 8882TIP3    H226611   3.739   6.719   3.007  1.4495  0.2732  0.4638
 8883TIP3   OH226612   1.719   3.506   3.441  0.2351  0.0377 -0.7591
 8883TIP3    H126613   1.639   3.460   3.416 -0.3997  1.0741 -0.6789
 8883TIP3    H226614   1.691   3.570   3.506  1.0316  0.7559 -1.0915
 8884TIP3   OH226615   3.600   5.043   0.716 -0.0723 -0.7486  0.2689
 8884TIP3    H126616   3.679   5.077   0.757  0.5990 -2.4572  0.4543
 8884TIP3    H226617   3.573   5.112   0.655  0.7994  0.4039  1.1451
 8885TIP3   OH226618   4.886   2.003   5.222  0.0804  0.0231 -0.6342
 8885TIP3    H126619   4.848   2.084   5.256 -0.5966 -0.1972 -0.8441
 8885TIP3    H226620   4.915   2.024   5.134 -0.6542 -0.1172 -0.9152
 8886TIP3   OH226621   3.247   3.586   0.260 -0.0369  0.2242 -0.7653
 8886TIP3    H126622   3.191   3.516   0.226 -1.9139  1.9657 -1.3979
 8886TIP3    H226623   3.188   3.646   0.304  1.5251  1.4385 -0.2257
 8887TIP3   OH226624   4.878   4.247   0.901  0.5892  0.4678 -0.7944
 8887TIP3    H126625   4.952   4.305   0.915  1.0729  0.2701 -2.3239
 8887TIP3    H226626   4.802   4.296   0.930  1.1182  1.4261 -1.0092
 8888TIP3   OH226627   4.526   1.438   5.220 -0.4226  0.2285  0.3499
 8888TIP3    H126628   4.482   1.355   5.233 -0.1655  0.0123 -0.1523
 8888TIP3    H226629   4.472   1.502   5.268 -0.0123 -0.3932  1.6910
 8889TIP3   OH226630   2.401   5.624   1.748 -0.5485 -0.5614  0.8214
 8889TIP3    H126631   2.431   5.709   1.780  0.0852  0.5172 -2.3145
 8889TIP3    H226632   2.478   5.587   1.704 -1.2395 -2.0822  0.8286
 8890TIP3   OH226633   6.847   5.427   2.180  0.0220 -0.2702 -0.2887
 8890TIP3    H126634   6.811   5.437   2.268 -1.1697  0.6723 -0.8464
 8890TIP3    H226635   6.835   5.335   2.159 -0.7369 -0.2737  0.1219
 8891TIP3   OH226636   3.988   0.563   4.581  0.4022 -0.0356  0.0050
 8891TIP3    H126637   4.076   0.526   4.580  0.6547  0.4742  1.2317
 8891TIP3    H226638   3.969   0.582   4.489  1.0188 -1.4037 -0.4194
 8892TIP3   OH226639   0.279   4.485   3.296 -0.3139 -0.5154  0.2081
 8892TIP3    H126640   0.186   4.485   3.320 -0.6823 -0.5048 -1.1530
 8892TIP3    H226641   0.296   4.396   3.266 -0.0725 -0.3339 -0.2070
 8893TIP3   OH226642   5.109   1.698   0.737  0.3391 -0.0877 -0.1707
 8893TIP3    H126643   5.065   1.688   0.821 -0.3892 -0.0611 -0.5340
 8893TIP3    H226644   5.190   1.648   0.746  0.5032  0.3169  0.7030
 8894TIP3   OH226645   2.269   5.324   0.893  0.1684  0.0591 -0.1154
 8894TIP3    H126646   2.211   5.350   0.821  1.1759  3.8024  0.2055
 8894TIP3    H226647   2.354   5.359   0.868  0.5050  1.7180  2.9135
 8895TIP3   OH226648   4.539   6.029   5.149 -0.8620  0.2033  0.0415
 8895TIP3    H126649   4.462   5.984   5.184 -1.0957  0.2760 -0.3769
 8895TIP3    H226650   4.504   6.088   5.082 -0.4236  0.1098 -0.2714
 8896TIP3   OH226651   5.237   0.296   3.586 -0.4783  0.1658  0.0251
 8896TIP3    H126652   5.235   0.355   3.661 -2.3210 -1.3253  1.2380
 8896TIP3    H226653   5.145   0.289   3.559 -0.0174 -0.4653 -1.4476
 8897TIP3   OH226654   5.572   0.280   1.625 -0.2117  0.6041  0.5562
 8897TIP3    H126655   5.530   0.245   1.547  3.8820  1.4991 -2.3863
 8897TIP3    H226656   5.625   0.208   1.659 -1.4025  0.4409  2.2308
 8898TIP3   OH226657   6.185   5.802   4.214 -0.4229  0.5217 -0.1750
 8898TIP3    H126658   6.202   5.860   4.140 -1.1798 -1.2838 -1.8768
 8898TIP3    H226659   6.273   5.782   4.248 -0.1374  2.3795  0.2930
 8899TIP3   OH226660   0.800   5.352   0.069  0.3187  0.2970 -0.9340
 8899TIP3    H126661   0.787   5.260   0.045 -0.4023  0.5211 -1.4384
 8899TIP3    H226662   0.877   5.379   0.020 -0.0780  0.2456 -1.5927
 8900TIP3   OH226663   0.739   5.197   3.034 -0.0950 -0.4295 -0.4637
 8900TIP3    H126664   0.807   5.141   3.072  0.3382  0.4978  0.1819
 8900TIP3    H226665   0.784   5.245   2.964 -0.1744 -0.0885 -0.2836
 8901TIP3   OH226666   2.666   5.254   2.910  0.1407  0.4084  0.1659
 8901TIP3    H126667   2.618   5.255   2.827  0.1384 -0.4927  0.1462
 8901TIP3    H226668   2.724   5.330   2.905  0.1341  0.3702 -0.6531
 8902TIP3   OH226669   5.301   2.874   2.463 -0.3601 -0.2289 -0.0373
 8902TIP3    H126670   5.236   2.944   2.453 -0.8100 -0.7001 -0.4644
 8902TIP3    H226671   5.383   2.913   2.431 -1.0934 -0.6546 -2.6624
 8903TIP3   OH226672   0.162   0.520   0.959  0.4837 -0.1745 -0.2752
 8903TIP3    H126673   0.236   0.472   0.919 -0.0495  0.0597 -1.6041
 8903TIP3    H226674   0.091   0.456   0.962  0.2776  0.0463 -0.4558
 8904TIP3   OH226675   4.620   2.287   3.225 -0.0667 -0.5080  0.2527
 8904TIP3    H126676   4.670   2.365   3.201  1.1111 -1.2858  0.0664
 8904TIP3    H226677   4.660   2.217   3.172 -1.6856 -1.0771 -0.2653
 8905TIP3   OH226678   6.924   2.752   4.848  0.1778  0.0358 -0.3446
 8905TIP3    H126679   7.006   2.790   4.816  0.3825  1.1190  1.3075
 8905TIP3    H226680   6.943   2.658   4.856  2.5662  0.6110  3.2359
 8906TIP3   OH226681   2.156   1.050   0.273 -0.0877 -0.1730 -0.4807
 8906TIP3    H126682   2.086   1.092   0.224  0.4481  2.1682  0.5875
 8906TIP3    H226683   2.157   1.096   0.357  2.6913 -0.0665 -0.4612
 8907TIP3   OH226684   1.141   0.266   5.374  0.0006  0.0591 -0.1553
 8907TIP3    H126685   1.072   0.280   5.439 -0.2373 -2.2116  0.1650
 8907TIP3    H226686   1.209   0.329   5.396 -0.4560 -0.0782  1.7698
 8908TIP3   OH226687   7.146   4.690   0.098 -0.1349 -0.1972 -0.2915
 8908TIP3    H126688   7.129   4.659   0.187  0.0082 -1.6531 -0.7343
 8908TIP3    H226689   7.189   4.774   0.109 -0.4163 -0.2114  1.0094
 8909TIP3   OH226690   4.362   2.705   4.637 -0.1342  0.2756 -0.0241
 8909TIP3    H126691   4.382   2.668   4.551 -0.8511 -1.7706  0.6205
 8909TIP3    H226692   4.266   2.712   4.637 -0.1202  0.4350  0.5261
 8910TIP3   OH226693   2.709   1.386   1.429  0.0359  0.0659  0.3546
 8910TIP3    H126694   2.706   1.471   1.387 -1.8752  0.1341  0.5516
 8910TIP3    H226695   2.698   1.323   1.357  1.0664 -0.0275  0.2581
 8911TIP3   OH226696   7.243   4.975   1.064 -0.1259  0.0834  0.4499
 8911TIP3    H126697   7.158   4.998   1.101 -0.0800  0.8937  0.0798
 8911TIP3    H226698   7.226   4.899   1.009 -0.5280 -0.0290  0.7307
 8912TIP3   OH226699   1.264   3.586   4.661  0.5808 -0.3448 -0.0836
 8912TIP3    H126700   1.186   3.641   4.663  0.8812  0.0586  1.0933
 8912TIP3    H226701   1.242   3.517   4.598 -1.1234 -0.8187  0.9536
 8913TIP3   OH226702   5.262   4.434   0.607 -0.1990  0.7204  0.4913
 8913TIP3    H126703   5.337   4.380   0.583 -0.7078 -0.1482  0.8207
 8913TIP3    H226704   5.189   4.372   0.616 -0.7695  1.4416  0.9947
 8914TIP3   OH226705   3.418   1.423   3.764  0.1288  0.6649 -0.2597
 8914TIP3    H126706   3.394   1.516   3.763  0.9074  0.9044  1.2626
 8914TIP3    H226707   3.507   1.421   3.730  0.3850  0.5663  0.4150
 8915TIP3   OH226708   0.168   4.815   2.178  0.0782  0.3028 -0.0734
 8915TIP3    H126709   0.091   4.847   2.131  0.4715  1.9309  0.3455
 8915TIP3    H226710   0.139   4.732   2.216 -0.2731 -1.0287 -3.0356
 8916TIP3   OH226711   2.707   2.562   2.654 -0.2933 -0.1150  0.2359
 8916TIP3    H126712   2.660   2.643   2.676 -0.1524  0.0913 -0.2124
 8916TIP3    H226713   2.787   2.592   2.610 -0.8230 -0.5397 -1.0296
 8917TIP3   OH226714   0.635   4.461   1.759  0.2605 -0.8041 -1.2482
 8917TIP3    H126715   0.550   4.457   1.716  0.0730 -1.4178 -0.8383
 8917TIP3    H226716   0.633   4.541   1.811 -0.2256 -1.0185 -0.9313
 8918TIP3   OH226717   1.540   4.066   4.069 -0.1739  0.3739  0.4171
 8918TIP3    H126718   1.488   4.057   4.148  0.8000  1.5625  1.2445
 8918TIP3    H226719   1.584   4.151   4.079  0.2338  0.3956 -1.2448
 8919TIP3   OH226720   5.863   6.027   1.055  0.7112 -0.2937  0.3219
 8919TIP3    H126721   5.937   6.063   1.006  2.1965 -0.9687  1.9690
 8919TIP3    H226722   5.823   6.103   1.098  0.7323  0.0210 -0.2083
 8920TIP3   OH226723   3.952   2.439   4.992  0.2515  0.0040 -0.7443
 8920TIP3    H126724   3.919   2.383   4.922 -1.7071 -0.6972  0.6608
 8920TIP3    H226725   4.044   2.455   4.968  0.0144 -1.2743 -2.7584
 8921TIP3   OH226726   0.910   1.219   0.431  0.1088 -0.0334 -0.5604
 8921TIP3    H126727   0.861   1.182   0.505 -0.7925 -0.3902 -1.3141
 8921TIP3    H226728   0.847   1.276   0.387  0.3346 -0.5890 -1.6200
 8922TIP3   OH226729   0.198   0.940   2.413  0.3566  0.3610 -0.2735
 8922TIP3    H126730   0.191   0.960   2.320  0.1364 -1.0585 -0.5925
 8922TIP3    H226731   0.161   0.852   2.421  1.6455 -0.1058  0.9267
 8923TIP3   OH226732   3.754   5.344   3.694  0.4166 -0.1044  0.1792
 8923TIP3    H126733   3.806   5.268   3.668 -0.0906  0.1960 -1.9147
 8923TIP3    H226734   3.664   5.319   3.675  0.2786  1.1509 -1.0525
 8924TIP3   OH226735   3.816   4.560   1.100  0.1485 -0.0162  0.5628
 8924TIP3    H126736   3.781   4.626   1.041  0.8345 -1.5084 -1.6435
 8924TIP3    H226737   3.863   4.609   1.167 -0.9729  1.7617  0.0952
 8925TIP3   OH226738   0.571   1.258   1.681 -0.4121 -0.0207 -0.2011
 8925TIP3    H126739   0.529   1.175   1.702 -3.0676  0.6413 -2.2903
 8925TIP3    H226740   0.607   1.246   1.593 -0.5334  0.9091 -0.3943
 8926TIP3   OH226741   7.060   6.349   2.789  0.2393 -0.7986 -0.2225
 8926TIP3    H126742   7.101   6.313   2.868  3.1988  0.7483 -0.9153
 8926TIP3    H226743   7.102   6.303   2.717  0.5454  0.5961 -0.9659
 8927TIP3   OH226744   5.558   0.097   3.642 -0.2906 -0.5165 -0.1069
 8927TIP3    H126745   5.543   0.035   3.713  0.1361  0.7486  1.1209
 8927TIP3    H226746   5.554   0.183   3.683  0.6979  0.2272 -1.4754
 8928TIP3   OH226747   6.471   5.744   5.062 -0.4642  0.1439  0.9485
 8928TIP3    H126748   6.517   5.737   5.146  1.1308 -1.9069  0.0055
 8928TIP3    H226749   6.482   5.658   5.021 -1.3312  1.0109 -1.2996
 8929TIP3   OH226750   2.902   6.250   3.956  0.0284 -0.3814  0.2490
 8929TIP3    H126751   2.972   6.236   4.020  0.0339 -0.8668  0.1403
 8929TIP3    H226752   2.859   6.165   3.949 -0.9617  0.0656  0.7676
 8930TIP3   OH226753   4.263   4.135   4.120 -0.1697  0.3669  0.1659
 8930TIP3    H126754   4.199   4.192   4.165  1.2956  0.9424  1.6333
 8930TIP3    H226755   4.307   4.089   4.191  2.8162  1.8951 -0.5456
 8931TIP3   OH226756   4.940   0.059   1.886 -0.6469  0.2920  0.0901
 8931TIP3    H126757   4.898  -0.011   1.836 -0.1573 -0.1669  0.3170
 8931TIP3    H226758   4.867   0.100   1.933 -0.8162 -0.7623  0.7990
 8932TIP3   OH226759   5.502   1.862   3.331  0.1397  0.2796 -0.1586
 8932TIP3    H126760   5.579   1.807   3.316  2.5993  2.9590  1.7330
 8932TIP3    H226761   5.460   1.823   3.407  0.4109 -0.3832 -0.3361
 8933TIP3   OH226762   3.703   4.830   2.829 -0.2319  0.0326  0.0179
 8933TIP3    H126763   3.624   4.820   2.882  0.8633 -1.8831  1.4368
 8933TIP3    H226764   3.674   4.815   2.739 -1.2691 -2.2381  0.6672
 8934TIP3   OH226765   5.107   3.588   3.129 -0.7423 -0.3612  1.0731
 8934TIP3    H126766   5.153   3.603   3.212 -0.5997 -0.2470  0.9741
 8934TIP3    H226767   5.171   3.544   3.074  0.3352  2.4486 -0.1257
 8935TIP3   OH226768   0.224   6.437   2.438  0.2626  0.4632 -0.0773
 8935TIP3    H126769   0.171   6.428   2.359  2.1322 -1.0618 -1.2793
 8935TIP3    H226770   0.295   6.496   2.412  0.0422  1.2124  0.9801
 8936TIP3   OH226771   0.868   3.093   3.101  0.4227 -0.3483 -0.4746
 8936TIP3    H126772   0.836   3.183   3.114  0.1238 -0.7815  2.3979
 8936TIP3    H226773   0.791   3.038   3.117  1.2807 -1.2055  0.8561
 8937TIP3   OH226774   6.412   5.582   3.626 -0.0140  0.2646  0.1535
 8937TIP3    H126775   6.320   5.593   3.647  0.0082 -0.3212  0.5713
 8937TIP3    H226776   6.457   5.646   3.681 -0.0164 -0.7802  1.4133
 8938TIP3   OH226777   0.724   0.120   4.636 -0.4994  0.3223 -1.0928
 8938TIP3    H126778   0.793   0.178   4.666 -0.5145  1.2434 -2.7486
 8938TIP3    H226779   0.670   0.105   4.714  0.7695  0.6698 -0.1054
 8939TIP3   OH226780   5.476   5.091   1.293  0.5252  0.1911  0.5265
 8939TIP3    H126781   5.556   5.142   1.286  0.6677 -0.0307  0.5180
 8939TIP3    H226782   5.453   5.094   1.386 -1.1905  2.8700  0.1273
 8940TIP3   OH226783   6.291   3.460   0.267  0.0988  0.2560  0.3100
 8940TIP3    H126784   6.342   3.536   0.238  0.5915 -0.8830 -2.0650
 8940TIP3    H226785   6.354   3.406   0.314  1.1101 -0.9060 -2.1812
 8941TIP3   OH226786   3.867   1.265   3.216  0.1167 -0.3346  0.7638
 8941TIP3    H126787   3.860   1.359   3.202 -0.0088 -0.3630  0.6413
 8941TIP3    H226788   3.959   1.244   3.197 -0.0873 -0.4006 -0.1549
 8942TIP3   OH226789   6.026   0.488   2.919 -0.6627 -0.7545  0.5422
 8942TIP3    H126790   5.958   0.556   2.916 -0.5242 -0.6378 -0.5034
 8942TIP3    H226791   6.107   0.536   2.936 -0.6409 -0.7114  0.3273
 8943TIP3   OH226792   2.885   2.157   5.629  0.9256  0.2338  0.0153
 8943TIP3    H126793   2.957   2.104   5.660  0.9936  0.9595  1.1687
 8943TIP3    H226794   2.926   2.228   5.580  0.9978  0.5936  0.5907
 8944TIP3   OH226795   6.671   5.680   4.317 -0.4329 -0.3251 -0.0531
 8944TIP3    H126796   6.706   5.616   4.380 -0.5917 -2.0285 -1.6055
 8944TIP3    H226797   6.717   5.659   4.235  0.0395  2.0685 -0.4654
 8945TIP3   OH226798   2.126   0.668   3.566  0.0976 -0.6207 -0.5374
 8945TIP3    H126799   2.204   0.654   3.512  0.4366  0.8066 -0.4682
 8945TIP3    H226800   2.159   0.710   3.645 -0.7825  0.4752 -0.7265
 8946TIP3   OH226801   3.232   3.083   1.880  0.7438 -0.1856  0.3173
 8946TIP3    H126802   3.146   3.110   1.847 -0.2594 -0.0635  2.7926
 8946TIP3    H226803   3.280   3.164   1.893  1.3083 -0.2627 -1.2027
 8947TIP3   OH226804   6.081   4.684   3.290 -0.3061  0.2418  0.2259
 8947TIP3    H126805   6.086   4.774   3.324  1.6889 -0.2089  1.3179
 8947TIP3    H226806   6.106   4.629   3.364  1.5666 -0.9858 -1.1969
 8948TIP3   OH226807   2.230   1.788   1.838  0.3844 -0.3070 -0.0999
 8948TIP3    H126808   2.161   1.728   1.809  2.2533 -2.7401  0.1918
 8948TIP3    H226809   2.265   1.826   1.757  0.2597 -0.8665 -0.4179
 8949TIP3   OH226810   7.147   5.187   4.216  0.4754 -0.4775  0.0802
 8949TIP3    H126811   7.175   5.136   4.140  1.2691  0.0606 -0.0040
 8949TIP3    H226812   7.226   5.196   4.269  0.2640  0.3520  0.2748
 8950TIP3   OH226813   5.672   2.218   4.423  0.2066 -0.6586  0.2461
 8950TIP3    H126814   5.758   2.245   4.391  0.0939  1.9812  1.8286
 8950TIP3    H226815   5.692   2.153   4.491  0.9320 -0.3760  0.3156
 8951TIP3   OH226816   5.834   0.954   4.694  0.0989  0.0063  0.5061
 8951TIP3    H126817   5.755   0.931   4.742 -0.1288  1.1403  0.7120
 8951TIP3    H226818   5.903   0.957   4.761  0.3162 -0.9424  0.3335
 8952TIP3   OH226819   2.367   3.504   4.887  0.2671  0.4679  0.4727
 8952TIP3    H126820   2.301   3.439   4.865 -0.6581  1.1469  1.1576
 8952TIP3    H226821   2.341   3.582   4.839  2.4083 -0.1145 -1.8437
 8953TIP3   OH226822   4.410   0.708   0.649 -0.2940 -0.6158  0.3974
 8953TIP3    H126823   4.487   0.753   0.617  0.2060 -0.0434  2.2780
 8953TIP3    H226824   4.403   0.630   0.594  1.9732 -0.9885  0.5407
 8954TIP3   OH226825   1.742   3.014   2.555 -0.2337  0.5315 -0.1805
 8954TIP3    H126826   1.779   2.957   2.488  1.5986 -1.9662  2.6801
 8954TIP3    H226827   1.673   2.962   2.596  0.8864  0.5743  1.9208
 8955TIP3   OH226828   1.588   3.985   1.959  0.0912 -0.0407  0.0958
 8955TIP3    H126829   1.523   3.916   1.970 -1.5111  1.4180  0.1545
 8955TIP3    H226830   1.543   4.055   1.912  2.0012  0.5313 -1.0019
 8956TIP3   OH226831   3.472   2.359   2.339 -0.4998  0.1168 -0.0250
 8956TIP3    H126832   3.518   2.441   2.357 -0.0943  0.3553 -1.9179
 8956TIP3    H226833   3.380   2.379   2.358 -0.1442  0.3012  1.6634
 8957TIP3   OH226834   6.265   6.306   4.193  0.2094 -0.1278  1.4125
 8957TIP3    H126835   6.226   6.235   4.244 -0.2210  0.2086  1.5693
 8957TIP3    H226836   6.222   6.385   4.226 -0.4483  0.0543  0.1955
 8958TIP3   OH226837   5.612   0.631   0.311  0.4085 -0.2178 -0.2512
 8958TIP3    H126838   5.682   0.590   0.259  2.1690 -0.0737  1.8445
 8958TIP3    H226839   5.614   0.585   0.395 -0.4129  1.3633  0.6834
 8959TIP3   OH226840   1.039   6.070   2.699  0.7451 -0.0261 -0.5291
 8959TIP3    H126841   1.040   6.154   2.745 -0.5130  0.8810 -2.0790
 8959TIP3    H226842   1.129   6.059   2.666  0.8770  0.7716 -0.4392
 8960TIP3   OH226843   2.241   4.257   1.246 -0.3904 -0.3063  0.6963
 8960TIP3    H126844   2.250   4.170   1.283 -1.1795 -1.2479 -1.1602
 8960TIP3    H226845   2.149   4.279   1.260 -0.2021  0.2177  1.1234
 8961TIP3   OH226846   2.181   2.560   4.682  0.1318 -0.1994  0.2339
 8961TIP3    H126847   2.201   2.527   4.769 -0.0485  1.6375  1.0265
 8961TIP3    H226848   2.264   2.597   4.650  0.1491 -0.6812 -0.2956
 8962TIP3   OH226849   4.125   5.558   1.357 -0.4102  0.0038 -0.3266
 8962TIP3    H126850   4.125   5.652   1.376 -0.8097 -0.1319  0.3626
 8962TIP3    H226851   4.097   5.517   1.438  0.1469 -0.7444 -0.5077
 8963TIP3   OH226852   4.346   4.672   3.468 -0.1651  0.4229  0.2532
 8963TIP3    H126853   4.395   4.602   3.425  0.5423  0.8647  0.3438
 8963TIP3    H226854   4.259   4.667   3.429  0.5210  0.9792 -1.4141
 8964TIP3   OH226855   6.821   0.949   1.193 -0.2729  0.1943  0.2839
 8964TIP3    H126856   6.890   1.016   1.196 -0.3182  0.3285 -1.0116
 8964TIP3    H226857   6.795   0.937   1.284  1.5458  0.0484  0.8153
 8965TIP3   OH226858   4.795   2.237   0.726 -0.2401  0.3625 -0.2480
 8965TIP3    H126859   4.843   2.246   0.808 -1.9492  0.8479  0.7589
 8965TIP3    H226860   4.799   2.143   0.706 -0.7412  0.0454  1.0217
 8966TIP3   OH226861   6.807   5.752   5.202 -0.0615 -0.1359  0.6616
 8966TIP3    H126862   6.741   5.683   5.205 -0.3938  0.1840  0.7518
 8966TIP3    H226863   6.889   5.706   5.187 -0.6295 -0.3283 -2.5002
 8967TIP3   OH226864   3.013   2.163   0.055 -0.1781  0.3303 -0.2383
 8967TIP3    H126865   3.102   2.148   0.025  0.8970 -0.5435  2.9603
 8967TIP3    H226866   3.015   2.248   0.099 -1.3278  0.9603 -1.3180
 8968TIP3   OH226867   2.114   3.853   0.061 -0.0824  0.4028  0.1877
 8968TIP3    H126868   2.088   3.798  -0.013  0.7563  0.6852 -0.3341
 8968TIP3    H226869   2.070   3.814   0.136  2.0237 -2.2334  0.1947
 8969TIP3   OH226870   5.822   4.644   3.149  0.8044  0.4323 -0.5109
 8969TIP3    H126871   5.908   4.671   3.181  1.5508  1.1998 -2.9673
 8969TIP3    H226872   5.837   4.559   3.108 -0.1103 -0.4858  0.9640
 8970TIP3   OH226873   0.119   2.432   3.783 -0.1191 -0.0591  0.6109
 8970TIP3    H126874   0.151   2.348   3.817  1.1001 -0.0020 -0.3321
 8970TIP3    H226875   0.131   2.494   3.854  1.1122 -0.2265  0.5681
 8971TIP3   OH226876   3.607   1.503   4.242 -0.2719 -0.2293  0.3287
 8971TIP3    H126877   3.600   1.424   4.297  0.8690  0.1121  1.0119
 8971TIP3    H226878   3.537   1.560   4.273  0.2491 -0.1101  1.3588
 8972TIP3   OH226879   4.162   0.692   1.282 -0.3085  0.1879  0.9137
 8972TIP3    H126880   4.168   0.788   1.290  1.4402  0.4406 -2.0915
 8972TIP3    H226881   4.069   0.673   1.295 -0.9008  2.4379  0.4525
 8973TIP3   OH226882   0.191   0.798   1.326 -0.3984  0.2135 -0.2084
 8973TIP3    H126883   0.098   0.819   1.336 -0.3849 -0.4901  1.7323
 8973TIP3    H226884   0.220   0.773   1.414  1.5337  0.0066 -0.8574
 8974TIP3   OH226885   3.117   5.242   0.869 -0.3063 -0.2425 -0.2526
 8974TIP3    H126886   3.177   5.316   0.854 -1.5398  0.7945 -0.2172
 8974TIP3    H226887   3.142   5.177   0.803 -0.8613  1.2485 -1.9879
 8975TIP3   OH226888   1.995   1.819   5.047  0.3992 -0.7135  0.0329
 8975TIP3    H126889   2.037   1.761   4.984  0.6686 -1.4508  0.8633
 8975TIP3    H226890   1.910   1.839   5.008  0.4775 -1.3168 -0.4713
 8976TIP3   OH226891   7.095   2.515   0.956 -0.9310 -0.4577 -0.4603
 8976TIP3    H126892   7.168   2.501   0.895  0.4697  0.0781  1.0220
 8976TIP3    H226893   7.017   2.496   0.904  0.0467  1.8404 -2.9892
 8977TIP3   OH226894   0.618   0.691   3.058  0.2071 -0.2398  0.0132
 8977TIP3    H126895   0.526   0.674   3.080  0.0511  0.9589  0.3639
 8977TIP3    H226896   0.657   0.604   3.051 -0.7835 -0.7565  0.6107
 8978TIP3   OH226897   6.796   6.207   5.298 -0.0208  0.0011  0.2763
 8978TIP3    H126898   6.710   6.231   5.264  0.3385  0.5831 -0.2619
 8978TIP3    H226899   6.791   6.224   5.392 -0.2890  0.6421  0.1478
 8979TIP3   OH226900   4.155   4.240   2.384  0.0750 -0.3104  0.1453
 8979TIP3    H126901   4.219   4.273   2.321  1.0873 -0.9931  0.8059
 8979TIP3    H226902   4.206   4.192   2.448 -0.7587  1.4474  2.2590
 8980TIP3   OH226903   5.133   5.181   0.550  0.3187 -0.6098 -0.3366
 8980TIP3    H126904   5.081   5.248   0.594 -1.3158 -2.2163  0.2682
 8980TIP3    H226905   5.089   5.167   0.466 -0.8981 -2.6253  0.5490
 8981TIP3   OH226906   1.084   6.679   3.900  0.2163 -0.5895 -0.1754
 8981TIP3    H126907   1.038   6.597   3.917 -1.6960  0.4194 -0.2503
 8981TIP3    H226908   1.119   6.705   3.985  2.4987 -2.3686 -0.4722
 8982TIP3   OH226909   2.571   2.637   5.278 -0.3561 -0.0426 -0.1403
 8982TIP3    H126910   2.664   2.636   5.301 -0.4382  0.5268  0.2420
 8982TIP3    H226911   2.558   2.557   5.226  0.2162 -0.4307  0.3034
 8983TIP3   OH226912   3.778   5.643   0.436  0.2718 -0.9627 -0.3530
 8983TIP3    H126913   3.824   5.700   0.374 -1.6409 -0.3719 -1.3080
 8983TIP3    H226914   3.731   5.703   0.494 -2.0415 -1.4847 -1.5765
 8984TIP3   OH226915   0.255   2.909   1.567 -0.4055 -0.0879 -0.2345
 8984TIP3    H126916   0.197   2.861   1.509 -0.4483 -0.0545 -0.2192
 8984TIP3    H226917   0.220   2.893   1.655 -1.7223  1.7312 -0.3721
 8985TIP3   OH226918   4.752   1.538   2.530  0.1287 -0.2246 -0.4318
 8985TIP3    H126919   4.813   1.468   2.552 -1.5194 -1.5190  0.2014
 8985TIP3    H226920   4.802   1.596   2.472  1.7134 -1.6094 -0.5134
 8986TIP3   OH226921   6.921   1.453   0.511 -0.5728 -0.4800  0.2339
 8986TIP3    H126922   6.974   1.519   0.466  0.0918 -0.8852  0.4197
 8986TIP3    H226923   6.973   1.429   0.588 -0.4158 -1.8385 -0.2828
 8987TIP3   OH226924   2.221   4.979   4.410 -0.3605 -0.3487  0.8604
 8987TIP3    H126925   2.195   5.006   4.498 -0.3587  0.2288  0.6895
 8987TIP3    H226926   2.312   5.009   4.402 -0.0334 -1.2746  1.0160
 8988TIP3   OH226927   1.853   0.652   4.548  0.0487 -0.0690  0.2431
 8988TIP3    H126928   1.897   0.605   4.619 -0.1687  1.4224  1.3982
 8988TIP3    H226929   1.761   0.654   4.573  0.1216  1.4032  0.5041
 8989TIP3   OH226930   5.407   6.662   5.241 -0.1354  0.0440 -0.2330
 8989TIP3    H126931   5.489   6.695   5.278 -0.1539  0.2130 -0.3455
 8989TIP3    H226932   5.424   6.569   5.226  0.5394  0.3762 -1.6556
 8990TIP3   OH226933   5.642   3.904   3.324 -0.7907  0.4898 -0.3967
 8990TIP3    H126934   5.737   3.907   3.313 -0.7249  1.6290  0.3457
 8990TIP3    H226935   5.623   3.812   3.345 -0.3180 -0.6637 -4.1579
 8991TIP3   OH226936   3.146   2.047   3.852 -0.3485  0.2749 -0.3224
 8991TIP3    H126937   3.227   2.032   3.901 -0.3207 -0.7115 -0.6360
 8991TIP3    H226938   3.173   2.040   3.760 -1.0010 -1.3859 -0.4193
 8992TIP3   OH226939   1.369   0.438   2.077  0.4701 -0.6879  0.3658
 8992TIP3    H126940   1.431   0.462   2.145  1.1557 -1.7787  0.1523
 8992TIP3    H226941   1.416   0.452   1.995  0.1629 -0.7769  0.1721
 8993TIP3   OH226942   0.193   5.686   1.510  0.1479 -0.1821 -0.1963
 8993TIP3    H126943   0.134   5.617   1.479  0.9208 -0.8836 -0.1648
 8993TIP3    H226944   0.147   5.768   1.493 -0.0500 -0.6160 -1.8668
 8994TIP3   OH226945   6.671   2.642   0.962 -0.3151  0.1557 -0.0975
 8994TIP3    H126946   6.670   2.671   1.053 -0.5352 -1.2322  0.3748
 8994TIP3    H226947   6.692   2.720   0.911  1.3786  0.6542  1.2614
 8995TIP3   OH226948   4.836   0.180   0.848 -0.2906  0.5424 -0.2632
 8995TIP3    H126949   4.827   0.208   0.939 -2.2932  0.0732 -0.2794
 8995TIP3    H226950   4.876   0.255   0.804 -0.4924  1.2684  0.7375
 8996TIP3   OH226951   0.427   3.174   4.138  0.2951 -0.6250 -0.5301
 8996TIP3    H126952   0.342   3.135   4.155  0.0664 -0.1178 -0.4894
 8996TIP3    H226953   0.476   3.107   4.090  0.5107 -1.6210  0.9972
 8997TIP3   OH226954   5.815   3.497   0.814 -0.3027  0.4245 -0.0387
 8997TIP3    H126955   5.904   3.521   0.836 -0.7492  1.5123  0.6794
 8997TIP3    H226956   5.817   3.482   0.720  1.0273 -1.4635  0.2472
 8998TIP3   OH226957   1.805   3.446   5.611  0.4802  0.0613  0.7225
 8998TIP3    H126958   1.843   3.419   5.528  0.7372  0.7005  0.6360
 8998TIP3    H226959   1.723   3.489   5.587  1.5379  2.1172  0.6398
 8999TIP3   OH226960   6.773   0.969   5.812 -0.3299  0.6357  0.0173
 8999TIP3    H126961   6.823   0.931   5.740 -0.0678 -0.0047  0.5345
 8999TIP3    H226962   6.835   0.977   5.884 -1.1428 -0.9651  0.9404
 9000TIP3   OH226963   4.212   6.094   4.151 -0.2550 -0.0383 -0.6330
 9000TIP3    H126964   4.247   6.180   4.127 -0.0998 -0.3729 -1.6912
 9000TIP3    H226965   4.131   6.086   4.100 -0.5155 -0.3363 -0.1844
 9001TIP3   OH226966   1.489   5.185   1.551 -0.0483 -0.6930 -0.0109
 9001TIP3    H126967   1.401   5.164   1.583 -0.8760  1.1544 -0.9460
 9001TIP3    H226968   1.521   5.251   1.612  1.4221 -2.5026  1.2991
 9002TIP3   OH226969   3.034   3.073   5.001  0.1266 -0.3694  0.3191
 9002TIP3    H126970   2.986   3.058   5.082 -1.0598  0.1081 -0.2811
 9002TIP3    H226971   3.050   3.168   5.000 -1.3925 -0.1031 -0.8236
 9003TIP3   OH226972   1.773   6.754   5.502  0.7307 -0.7569 -0.0459
 9003TIP3    H126973   1.807   6.833   5.461 -0.1773 -0.8972 -1.1223
 9003TIP3    H226974   1.779   6.770   5.596 -2.2409  1.8822 -0.1601
 9004TIP3   OH226975   1.877   3.571   2.942 -0.4771 -0.0910  0.0795
 9004TIP3    H126976   1.858   3.559   3.035  1.0066  3.3431  0.9857
 9004TIP3    H226977   1.943   3.505   2.922  0.3456  0.0945  1.9582
 9005TIP3   OH226978   3.572   4.401   5.034 -0.7677  0.1609  0.3355
 9005TIP3    H126979   3.592   4.365   4.947  0.1271  0.4344  0.4238
 9005TIP3    H226980   3.477   4.415   5.032 -0.5017  2.5186 -1.5502
 9006TIP3   OH226981   1.176   2.596   5.456  0.0212  0.0547  0.8278
 9006TIP3    H126982   1.236   2.671   5.460  0.0203  0.4443 -3.0366
 9006TIP3    H226983   1.136   2.593   5.543 -0.5869  5.0663  1.0065
 9007TIP3   OH226984   0.099   4.235   4.972 -0.1395  0.1040  0.3871
 9007TIP3    H126985   0.051   4.161   5.011 -0.5207 -0.2603 -0.7442
 9007TIP3    H226986   0.038   4.309   4.978 -1.0275 -0.4346 -1.3543
 9008TIP3   OH226987   2.150   6.812   4.080 -0.1124  0.3205 -0.5006
 9008TIP3    H126988   2.189   6.813   3.992 -1.7267 -0.4647 -1.2682
 9008TIP3    H226989   2.088   6.739   4.078 -0.2956  0.3947  1.2482
 9009TIP3   OH226990   4.784   5.160   0.699 -0.1452 -0.0968 -0.2287
 9009TIP3    H126991   4.799   5.197   0.785 -2.6189 -2.9899  1.6533
 9009TIP3    H226992   4.743   5.231   0.649  0.2481  1.2917  1.3262
 9010TIP3   OH226993   5.254   4.732   2.855  0.0976  0.1981  0.7023
 9010TIP3    H126994   5.298   4.648   2.863 -0.3386 -0.1379 -0.3507
 9010TIP3    H226995   5.161   4.711   2.861 -0.1642  0.2403 -2.0488
 9011TIP3   OH226996   5.343   4.885   3.371 -0.0543 -0.1718  0.2762
 9011TIP3    H126997   5.318   4.836   3.293 -3.1288 -0.4804  1.3519
 9011TIP3    H226998   5.370   4.818   3.434 -1.0179 -0.2333  0.6342
 9012TIP3   OH226999   4.686   1.282   5.723 -0.3444  0.3957  0.3018
 9012TIP3    H127000   4.699   1.289   5.818 -1.8510  1.4164  0.4773
 9012TIP3    H227001   4.755   1.335   5.685  0.7421 -0.6362  0.7718
 9013TIP3   OH227002   2.592   6.182   5.742 -0.1481  0.0829  0.1582
 9013TIP3    H127003   2.676   6.178   5.787  0.0202  1.2606 -0.0070
 9013TIP3    H227004   2.583   6.098   5.698  1.3731  0.2719 -0.5650
 9014TIP3   OH227005   5.696   5.899   5.100  0.1849 -0.5318  0.0164
 9014TIP3    H127006   5.612   5.884   5.055 -0.4904  1.4178  0.5569
 9014TIP3    H227007   5.762   5.882   5.032 -0.7642  0.9896 -1.3556
 9015TIP3   OH227008   5.669   6.227   1.156  0.1469  0.4821  0.2037
 9015TIP3    H127009   5.603   6.285   1.118 -0.0287  0.0679 -0.1429
 9015TIP3    H227010   5.627   6.193   1.235  0.1402  0.6079  0.2547
 9016TIP3   OH227011   1.866   1.313   1.524 -0.2681  0.1823 -0.5577
 9016TIP3    H127012   1.855   1.321   1.429 -0.8161  1.6773 -0.3953
 9016TIP3    H227013   1.784   1.348   1.560 -0.3643 -1.0308  0.4641
 9017TIP3   OH227014   4.776   0.427   2.866  0.5161  0.0943 -0.1188
 9017TIP3    H127015   4.835   0.373   2.918  0.2159  0.5254  0.6986
 9017TIP3    H227016   4.691   0.382   2.871  0.9863 -1.1546 -2.2593
 9018TIP3   OH227017   6.006   1.172   1.181  0.5656  0.1424  0.0965
 9018TIP3    H127018   6.054   1.186   1.263  0.7422  0.2655 -0.0265
 9018TIP3    H227019   5.914   1.183   1.205  0.4233 -2.0809  0.7606
 9019TIP3   OH227020   3.545   6.653   2.436 -0.3685  0.2697 -0.0443
 9019TIP3    H127021   3.568   6.720   2.372 -0.0240  1.1935  1.0137
 9019TIP3    H227022   3.624   6.601   2.446 -0.5506 -0.1420 -0.6586
 9020TIP3   OH227023   4.746   1.113   0.398 -0.1851  0.8362 -0.3613
 9020TIP3    H127024   4.742   1.049   0.327  0.9599 -0.3480  0.6025
 9020TIP3    H227025   4.805   1.180   0.366 -0.9487  1.1601 -1.1512
 9021TIP3   OH227026   3.389   4.958   2.284 -0.4074  0.1768 -0.0268
 9021TIP3    H127027   3.366   4.917   2.201 -1.9674 -1.3687  1.1134
 9021TIP3    H227028   3.454   4.899   2.323 -1.0483 -0.0999  0.6520
 9022TIP3   OH227029   1.620   3.479   2.817  0.1168 -0.1066 -0.2062
 9022TIP3    H127030   1.622   3.414   2.887 -1.5204 -0.0190 -0.0423
 9022TIP3    H227031   1.678   3.549   2.847 -0.2685 -0.2451  0.8840
 9023TIP3   OH227032   0.519   3.859   3.688  0.5310  0.1456 -0.0150
 9023TIP3    H127033   0.492   3.949   3.704  0.1760  0.3045 -1.3954
 9023TIP3    H227034   0.437   3.810   3.680  0.6334  0.1900 -1.8132
 9024TIP3   OH227035   1.774   2.490   1.313 -0.1451 -0.3879  0.0515
 9024TIP3    H127036   1.684   2.516   1.332  0.8912  1.8959  2.4101
 9024TIP3    H227037   1.828   2.548   1.366  2.8145 -0.9047 -2.1214
 9025TIP3   OH227038   4.237   6.589   0.949 -0.2864 -0.2623  0.5388
 9025TIP3    H127039   4.236   6.660   0.885 -0.2782 -1.5642 -0.9551
 9025TIP3    H227040   4.145   6.571   0.967 -0.2882  0.7401  1.6750
 9026TIP3   OH227041   4.705   4.773   5.110 -0.0456 -0.1022 -0.2334
 9026TIP3    H127042   4.754   4.832   5.167  1.4612  0.1430 -1.7022
 9026TIP3    H227043   4.651   4.830   5.055  0.4376 -0.1600 -0.7775
 9027TIP3   OH227044   3.347   6.125   3.457  0.8868  0.1906 -0.1174
 9027TIP3    H127045   3.273   6.112   3.516  0.3559  0.2868 -0.7500
 9027TIP3    H227046   3.424   6.123   3.514  0.3026  1.6685  0.7742
 9028TIP3   OH227047   1.211   5.023   1.937  0.0970 -0.3723  1.4184
 9028TIP3    H127048   1.155   4.977   2.000  0.4370 -1.8025  0.7137
 9028TIP3    H227049   1.285   5.054   1.989 -0.5586  0.1593  2.0667
 9029TIP3   OH227050   5.557   4.035   2.439  0.6216 -0.6962  0.0769
 9029TIP3    H127051   5.630   4.095   2.456  0.4477 -0.1295 -1.0812
 9029TIP3    H227052   5.526   4.060   2.352 -0.7476 -1.1574  0.4195
 9030TIP3   OH227053   4.884   0.303   0.193 -0.6022 -0.0882  0.0880
 9030TIP3    H127054   4.916   0.257   0.116  0.6850 -0.1926  0.6624
 9030TIP3    H227055   4.795   0.329   0.170 -0.0359  0.4247 -1.6694
 9031TIP3   OH227056   4.126   3.980   5.536 -0.1059 -1.0997  0.4346
 9031TIP3    H127057   4.192   4.005   5.600 -0.2518  1.3634 -0.2441
 9031TIP3    H227058   4.176   3.959   5.457 -0.0377 -1.7051  0.6353
 9032TIP3   OH227059   4.565   5.611   2.018 -0.1921 -0.4699  0.0765
 9032TIP3    H127060   4.646   5.588   1.971  0.4245  1.3427  0.1773
 9032TIP3    H227061   4.508   5.648   1.951 -0.5208 -0.7149  0.2162
 9033TIP3   OH227062   5.160   0.218   3.120 -0.0442 -0.1424 -0.0566
 9033TIP3    H127063   5.186   0.268   3.197 -0.2439  2.7992 -1.7783
 9033TIP3    H227064   5.241   0.180   3.087  0.0485 -1.4126  1.5037
 9034TIP3   OH227065   0.376   1.740   1.750  0.2578 -0.5761 -0.0403
 9034TIP3    H127066   0.359   1.815   1.808  0.1971 -0.9631  0.4503
 9034TIP3    H227067   0.401   1.779   1.666 -0.2130 -0.0019  0.0786
 9035TIP3   OH227068   6.677   6.259   4.749  0.3986 -0.3882 -0.3682
 9035TIP3    H127069   6.741   6.203   4.792  1.1335  0.0797 -0.8427
 9035TIP3    H227070   6.598   6.249   4.802  0.2886 -2.4221 -0.8594
 9036TIP3   OH227071   5.811   4.184   2.462  0.1176 -0.1174 -0.5844
 9036TIP3    H127072   5.846   4.260   2.509  0.2291 -0.4602 -0.1047
 9036TIP3    H227073   5.859   4.110   2.499  0.4831 -0.3540 -1.5139
 9037TIP3   OH227074   6.595   2.781   4.218 -0.2702  0.7655 -0.2893
 9037TIP3    H127075   6.613   2.875   4.223 -1.3414  0.9332  1.0397
 9037TIP3    H227076   6.506   2.775   4.185 -0.7528  0.3074  1.0131
 9038TIP3   OH227077   6.753   3.257   5.149 -0.1196 -0.5031 -0.2695
 9038TIP3    H127078   6.749   3.237   5.055  2.9436  0.8751 -0.8438
 9038TIP3    H227079   6.692   3.330   5.161  0.1547 -0.0500 -1.4323
 9039TIP3   OH227080   2.035   1.262   2.941  0.7650  0.1490 -0.1031
 9039TIP3    H127081   2.114   1.316   2.946  1.1416 -0.3525 -0.5483
 9039TIP3    H227082   1.972   1.318   2.895  1.3513  0.0034 -1.1332
 9040TIP3   OH227083   3.258   6.465   5.750  0.0168  0.6426 -0.1778
 9040TIP3    H127084   3.240   6.559   5.738  1.4020  0.8423 -0.9143
 9040TIP3    H227085   3.346   6.462   5.786  0.7855 -0.4095 -1.9918
 9041TIP3   OH227086   2.875   3.124   3.284  0.0367 -0.3402 -0.4966
 9041TIP3    H127087   2.906   3.194   3.341 -0.6464 -0.2442 -0.2265
 9041TIP3    H227088   2.867   3.048   3.342  0.3424 -0.5180 -0.6896
 9042TIP3   OH227089   1.032   2.030   3.048  0.5441 -0.7673 -0.5304
 9042TIP3    H127090   1.112   2.062   3.090 -0.4843 -1.4269  2.0955
 9042TIP3    H227091   0.978   2.108   3.036  0.1786 -0.7738  0.9620
 9043TIP3   OH227092   6.536   4.598   3.193 -0.1279 -0.2328  0.1220
 9043TIP3    H127093   6.592   4.673   3.211 -0.6198 -0.0742  1.0768
 9043TIP3    H227094   6.595   4.522   3.193  0.2446  0.0569  0.0171
 9044TIP3   OH227095   1.479   4.296   3.682  0.2632  0.6239  0.0471
 9044TIP3    H127096   1.529   4.291   3.601 -1.9490 -1.8733 -1.3098
 9044TIP3    H227097   1.509   4.220   3.733 -1.0604 -0.0641 -0.1666
 9045TIP3   OH227098   6.490   3.532   4.599  0.1070  0.5975 -0.9084
 9045TIP3    H127099   6.411   3.568   4.638  1.8284  3.0944  0.5391
 9045TIP3    H227100   6.480   3.547   4.505 -1.0627  0.9728 -0.7307
 9046TIP3   OH227101   3.770   3.048   3.143 -0.3462  0.2945 -0.2515
 9046TIP3    H127102   3.740   3.134   3.171  1.8926  1.7646 -2.0409
 9046TIP3    H227103   3.830   3.020   3.212  0.2382  0.9597 -0.4843
 9047TIP3   OH227104   0.261   6.453   3.732  0.1877  0.2141 -0.0006
 9047TIP3    H127105   0.190   6.515   3.746  0.4347  0.5484 -0.2121
 9047TIP3    H227106   0.286   6.425   3.821 -0.0740  0.2422  0.0834
 9048TIP3   OH227107   3.814   3.275   3.399  0.0248 -0.7255  0.0419
 9048TIP3    H127108   3.773   3.253   3.483  1.3791  0.2911  1.0152
 9048TIP3    H227109   3.881   3.340   3.422 -2.5594  3.1891 -2.3267
 9049TIP3   OH227110   5.930   4.667   1.355 -0.4034 -0.4818  0.5404
 9049TIP3    H127111   5.954   4.636   1.268  0.0132  1.3683 -0.0602
 9049TIP3    H227112   6.013   4.675   1.402 -0.4702 -0.0965  0.6005
 9050TIP3   OH227113   1.832   6.165   4.849 -0.1781 -0.2023 -0.6006
 9050TIP3    H127114   1.871   6.080   4.833 -0.4213 -0.5649  0.6115
 9050TIP3    H227115   1.896   6.228   4.815  0.7074 -0.8345 -0.1504
 9051TIP3   OH227116   4.343   0.729   3.307 -0.6456  0.1815  0.0424
 9051TIP3    H127117   4.411   0.773   3.256 -1.5610  1.3828 -0.1864
 9051TIP3    H227118   4.356   0.636   3.288  0.6347  0.4128 -0.3496
 9052TIP3   OH227119   5.107   2.483   3.505  0.1100  0.4973 -0.6321
 9052TIP3    H127120   5.086   2.533   3.427  0.8801  2.5244  0.3751
 9052TIP3    H227121   5.202   2.492   3.514  0.2703 -1.1762 -0.4002
 9053TIP3   OH227122   0.514   3.332   3.161  0.0909  0.2664  0.1785
 9053TIP3    H127123   0.488   3.422   3.180 -1.7120 -0.1201 -0.2606
 9053TIP3    H227124   0.604   3.339   3.129 -0.6487  2.1330 -1.6832
 9054TIP3   OH227125   3.419   5.846   5.053 -0.0715 -0.2235 -0.1202
 9054TIP3    H127126   3.477   5.773   5.075  1.8114  1.0296 -0.6831
 9054TIP3    H227127   3.331   5.810   5.061  0.8031 -2.9033 -1.6011
 9055TIP3   OH227128   4.883   4.867   5.291  0.4032  0.4418 -0.3886
 9055TIP3    H127129   4.853   4.958   5.298 -0.8800  0.0144 -0.1241
 9055TIP3    H227130   4.965   4.873   5.240 -0.3910  1.6056 -1.6151
 9056TIP3   OH227131   0.949   4.762   3.493 -0.7384  0.2885  0.0475
 9056TIP3    H127132   1.041   4.743   3.513  0.2938  2.2433 -2.2065
 9056TIP3    H227133   0.900   4.694   3.538  1.8030 -0.7866  1.4282
 9057TIP3   OH227134   1.976   5.367   3.787  0.0704 -0.2471 -0.2248
 9057TIP3    H127135   2.017   5.382   3.702 -0.7519  0.6546 -0.4728
 9057TIP3    H227136   1.977   5.271   3.797  1.2833 -0.3006 -0.6720
 9058TIP3   OH227137   5.361   3.009   5.769 -0.1927 -0.0216 -0.1592
 9058TIP3    H127138   5.270   3.003   5.742  0.1699  2.6336 -2.4322
 9058TIP3    H227139   5.367   3.094   5.814  1.0195 -0.5295  0.7035
 9059TIP3   OH227140   4.035   6.057   1.449  0.5502 -0.0341  0.4414
 9059TIP3    H127141   4.099   6.112   1.495  2.0396 -0.0210 -1.4773
 9059TIP3    H227142   4.075   5.970   1.447  1.4662  0.3265 -2.2394
 9060TIP3   OH227143   6.861   1.604   3.949  0.1234  0.0880 -0.6466
 9060TIP3    H127144   6.881   1.640   4.035  3.0437 -1.4933 -0.5063
 9060TIP3    H227145   6.874   1.509   3.960 -0.4752 -0.2544 -2.5688
 9061TIP3   OH227146   7.187   0.310   2.199 -0.4129  0.0243  0.3068
 9061TIP3    H127147   7.095   0.335   2.197 -0.7568 -1.2442 -0.1898
 9061TIP3    H227148   7.214   0.308   2.108  0.0590  0.1952  0.4392
 9062TIP3   OH227149   2.451   4.298   2.016 -0.1261  0.2429  0.4718
 9062TIP3    H127150   2.376   4.358   2.022 -0.9495 -0.7156  0.0161
 9062TIP3    H227151   2.474   4.299   1.923 -0.2161 -0.2450  0.4450
 9063TIP3   OH227152   4.033   1.023   3.630 -0.9684  0.2210  0.2369
 9063TIP3    H127153   3.973   0.977   3.571 -0.9162  1.1027 -0.5228
 9063TIP3    H227154   3.976   1.066   3.693 -1.3036  2.3499 -1.4025
 9064TIP3   OH227155   7.049   5.503   3.772 -0.4504 -0.3142  0.2854
 9064TIP3    H127156   7.055   5.469   3.861  1.9756  1.1933  0.7603
 9064TIP3    H227157   7.115   5.454   3.723  0.3868  0.9686  0.0825
 9065TIP3   OH227158   0.668   3.171   4.920 -0.1819  0.2638 -0.3853
 9065TIP3    H127159   0.751   3.124   4.909  1.0980  2.1333  0.6210
 9065TIP3    H227160   0.620   3.120   4.985 -0.2329 -1.2733 -1.5468
 9066TIP3   OH227161   6.248   4.157   3.990 -0.3855  0.6091 -0.0604
 9066TIP3    H127162   6.340   4.151   4.017 -0.4096  0.9185  0.0889
 9066TIP3    H227163   6.199   4.168   4.071 -0.2952  3.5130 -0.3119
 9067TIP3   OH227164   1.264   2.494   3.925 -0.4693  0.3577  0.2952
 9067TIP3    H127165   1.281   2.584   3.955  3.4269  0.5472 -1.7806
 9067TIP3    H227166   1.310   2.439   3.989 -1.3303 -0.0555  0.5702
 9068TIP3   OH227167   3.033   6.383   0.086  0.2459  0.0905  0.1817
 9068TIP3    H127168   2.962   6.352   0.142  0.0848  0.3342  0.1124
 9068TIP3    H227169   3.026   6.478   0.089  1.0706  0.1356  0.8182
 9069TIP3   OH227170   1.447   0.059   0.843  0.0143 -0.6430  0.2767
 9069TIP3    H127171   1.394   0.130   0.808  0.6961 -0.3703 -0.2117
 9069TIP3    H227172   1.497   0.027   0.769  0.4103 -1.0126  0.6970
 9070TIP3   OH227173   1.510   0.439   4.971  0.0212 -0.0666  0.2752
 9070TIP3    H127174   1.477   0.526   4.952 -1.4450 -0.1221  2.2892
 9070TIP3    H227175   1.602   0.453   4.995  0.5307  0.5497 -1.8163
 9071TIP3   OH227176   0.773   4.440   2.350 -0.3828  0.0065 -0.2865
 9071TIP3    H127177   0.758   4.346   2.337 -0.0976  0.1252 -1.5971
 9071TIP3    H227178   0.812   4.446   2.436 -3.3901 -0.7728  1.2912
 9072TIP3   OH227179   2.810   0.244   2.281 -0.4279 -0.3058 -0.8180
 9072TIP3    H127180   2.824   0.223   2.188 -0.8710 -0.6443 -0.8119
 9072TIP3    H227181   2.715   0.249   2.290 -0.3934 -0.4391 -0.3463
 9073TIP3   OH227182   4.254   4.408   1.536  0.1150 -0.1079 -0.0992
 9073TIP3    H127183   4.293   4.443   1.456 -0.8736 -0.4704 -0.7593
 9073TIP3    H227184   4.162   4.392   1.513 -0.4895  0.9108  1.4647
 9074TIP3   OH227185   4.218   0.085   0.674 -0.0683  0.4023 -0.1592
 9074TIP3    H127186   4.147   0.128   0.627 -0.4623 -0.7852 -0.7073
 9074TIP3    H227187   4.187  -0.005   0.688 -0.4951  0.9793  3.5173
 9075TIP3   OH227188   3.384   2.285   5.264  0.2397 -1.1105 -0.1671
 9075TIP3    H127189   3.417   2.200   5.293 -0.1121 -1.1892  0.0076
 9075TIP3    H227190   3.439   2.307   5.188  2.7149  0.1813  1.8521
 9076TIP3   OH227191   2.065   1.204   5.680  0.0951  0.2511  0.2052
 9076TIP3    H127192   2.086   1.235   5.768  1.5485 -0.5326  0.1694
 9076TIP3    H227193   2.118   1.125   5.669 -0.5891 -0.0521 -1.1175
 9077TIP3   OH227194   1.139   5.289   2.014 -0.0318 -0.1000 -0.2816
 9077TIP3    H127195   1.133   5.203   1.972 -0.4962 -0.0707 -0.2738
 9077TIP3    H227196   1.191   5.273   2.092  0.4940 -0.2346 -0.6524
 9078TIP3   OH227197   4.210   1.788   2.554  0.0705 -0.6169  0.5401
 9078TIP3    H127198   4.194   1.698   2.525  1.6301 -1.5768  2.4460
 9078TIP3    H227199   4.292   1.813   2.510  0.1950 -0.5228  0.8243
 9079TIP3   OH227200   5.688   6.520   4.085  0.3479  0.0920  0.0491
 9079TIP3    H127201   5.747   6.458   4.042 -0.7030 -1.4510  0.7581
 9079TIP3    H227202   5.745   6.573   4.140  1.2430 -0.3494 -0.4328
 9080TIP3   OH227203   0.899   3.460   1.075  0.1121  0.2617  0.0897
 9080TIP3    H127204   0.993   3.449   1.092  0.1438 -2.4747 -1.2965
 9080TIP3    H227205   0.858   3.445   1.160  0.8872  1.4066  0.6974
 9081TIP3   OH227206   0.221   4.681   0.919 -0.4617 -0.5264 -0.6227
 9081TIP3    H127207   0.222   4.585   0.918 -0.8446 -0.5850 -3.7669
 9081TIP3    H227208   0.265   4.706   0.838  1.1326  2.0533  0.8969
 9082TIP3   OH227209   5.772   1.537   0.784 -0.0061 -0.1912 -0.6525
 9082TIP3    H127210   5.688   1.495   0.804  0.5567 -0.9822  0.1277
 9082TIP3    H227211   5.833   1.464   0.771  1.3632  0.3131  2.2491
 9083TIP3   OH227212   5.809   2.790   5.697 -0.4154  0.4365  0.3938
 9083TIP3    H127213   5.744   2.839   5.645 -0.7094  1.9809  2.0910
 9083TIP3    H227214   5.764   2.772   5.779  0.3856 -1.0158  0.5393
 9084TIP3   OH227215   4.034   0.165   4.347  0.3711  0.1335  0.4249
 9084TIP3    H127216   4.031   0.071   4.366 -1.1813  0.0615 -0.0431
 9084TIP3    H227217   4.127   0.186   4.346  0.7412 -1.3538  0.7511
 9085TIP3   OH227218   1.021   0.970   1.977  0.4382  0.1394 -0.1736
 9085TIP3    H127219   0.949   0.910   1.960  2.1498 -1.3702 -2.7451
 9085TIP3    H227220   0.979   1.056   1.984 -1.5855 -0.4918 -2.8487
 9086TIP3   OH227221   2.462   6.082   0.461 -0.1652 -0.0040 -0.3238
 9086TIP3    H127222   2.375   6.119   0.473 -0.5548 -0.6139 -1.2092
 9086TIP3    H227223   2.498   6.129   0.386  0.2753  0.2294  0.0223
 9087TIP3   OH227224   4.602   4.734   0.926 -0.2800 -0.0358 -0.4487
 9087TIP3    H127225   4.521   4.737   0.977 -0.5846  0.4173 -0.9531
 9087TIP3    H227226   4.580   4.678   0.850  0.2471 -0.9290  0.0373
 9088TIP3   OH227227   5.395   6.604   3.295 -0.5455 -0.6998  0.1074
 9088TIP3    H127228   5.461   6.552   3.341 -0.5059 -1.2669 -0.5739
 9088TIP3    H227229   5.317   6.549   3.292  0.3603 -2.0895 -3.2497
 9089TIP3   OH227230   4.390   3.867   1.798 -0.2914  0.1255  0.2589
 9089TIP3    H127231   4.369   3.857   1.891 -0.1118 -1.2503  0.1705
 9089TIP3    H227232   4.322   3.819   1.752 -1.5343  2.4089 -0.4851
 9090TIP3   OH227233   2.025   4.061   2.912 -0.8476  0.0897  0.7006
 9090TIP3    H127234   2.054   4.037   3.000  0.4871 -1.9135 -0.2248
 9090TIP3    H227235   2.102   4.101   2.871 -0.1697 -2.5226 -0.7789
 9091TIP3   OH227236   0.447   2.194   0.224  0.2081 -0.4539  0.7189
 9091TIP3    H127237   0.426   2.270   0.169 -2.4306 -0.5908  1.3843
 9091TIP3    H227238   0.534   2.213   0.260  0.3356  1.4339 -0.4496
 9092TIP3   OH227239   6.603   2.375   5.182  0.0538 -0.0011  0.3034
 9092TIP3    H127240   6.576   2.291   5.220  0.9835  0.3747  1.8976
 9092TIP3    H227241   6.522   2.416   5.155 -0.3334 -1.9919 -1.8687
 9093TIP3   OH227242   6.616   2.028   1.962 -0.3857 -0.0031  0.0766
 9093TIP3    H127243   6.532   2.074   1.967 -0.7564 -0.6354 -0.1914
 9093TIP3    H227244   6.628   2.009   1.869  0.1804  0.3025  0.0821
 9094TIP3   OH227245   1.996   6.534   2.014 -0.3043 -0.5242  0.0538
 9094TIP3    H127246   2.082   6.534   1.971  0.3614  0.7841  1.2835
 9094TIP3    H227247   1.962   6.622   2.000 -1.8078 -1.2413 -1.0411
 9095TIP3   OH227248   3.454   6.640   2.697  0.1124 -0.5015  0.0431
 9095TIP3    H127249   3.368   6.680   2.693  0.7725  0.8709 -1.3386
 9095TIP3    H227250   3.493   6.657   2.611  2.5274  0.7384  1.2714
 9096TIP3   OH227251   5.230   6.487   5.654 -0.1990 -0.1120  0.0940
 9096TIP3    H127252   5.318   6.484   5.615 -0.4784 -1.4412 -0.4913
 9096TIP3    H227253   5.215   6.399   5.687 -0.6991  0.5252  1.6627
 9097TIP3   OH227254   0.645   2.157   2.771  0.6371  0.2478 -0.1807
 9097TIP3    H127255   0.722   2.185   2.820  0.7652 -0.9561  0.3466
 9097TIP3    H227256   0.654   2.062   2.765 -0.5142  0.1488 -0.6179
 9098TIP3   OH227257   3.048   0.314   0.817  0.6512 -0.1363 -0.4769
 9098TIP3    H127258   3.041   0.220   0.833 -1.3951  0.0479 -0.0344
 9098TIP3    H227259   3.138   0.335   0.840  0.4391 -1.5400  2.0494
 9099TIP3   OH227260   5.326   2.218   2.810 -0.6487 -0.1010  0.1433
 9099TIP3    H127261   5.396   2.210   2.875 -2.1355 -0.8516  1.7222
 9099TIP3    H227262   5.279   2.297   2.835 -0.0022  0.8179 -1.3533
 9100TIP3   OH227263   4.021  -0.007   0.272 -0.5622  0.0855  0.1093
 9100TIP3    H127264   4.113   0.001   0.299 -0.6888  0.8175  0.3285
 9100TIP3    H227265   3.974   0.051   0.331 -1.5000 -2.0741  1.6230
 9101TIP3   OH227266   2.224   5.005   3.327  0.0463  0.0412 -0.2283
 9101TIP3    H127267   2.187   4.937   3.272  0.1340  0.0591 -0.3099
 9101TIP3    H227268   2.319   4.991   3.323  0.0121 -0.4565  0.5615
 9102TIP3   OH227269   1.015   2.987   5.831 -0.1139 -0.9334 -0.7599
 9102TIP3    H127270   1.078   2.964   5.899  0.8114 -0.8901 -1.5894
 9102TIP3    H227271   0.933   2.947   5.860 -0.4947  1.3779  1.8200
 9103TIP3   OH227272   2.563   1.619   3.751  0.4048  0.2577 -0.1828
 9103TIP3    H127273   2.572   1.526   3.775  2.1305  0.6960  1.0799
 9103TIP3    H227274   2.527   1.617   3.663  0.0717 -1.6059 -0.0603
 9104TIP3   OH227275   2.780   3.559   1.871  0.5278 -0.2811  0.1472
 9104TIP3    H127276   2.776   3.466   1.846  1.1206 -0.6126  1.2184
 9104TIP3    H227277   2.784   3.557   1.967  0.4787  0.8635  0.1789
 9105TIP3   OH227278   3.106   6.063   3.599 -0.5699  0.2233  0.0051
 9105TIP3    H127279   3.019   6.048   3.562 -1.0485  1.0425  0.7721
 9105TIP3    H227280   3.110   6.004   3.674 -1.1976  1.4507  1.0615
 9106TIP3   OH227281   6.007   0.476   1.977  0.2764 -0.0168 -0.0287
 9106TIP3    H127282   5.921   0.508   2.004  0.6187 -0.9300  2.4602
 9106TIP3    H227283   6.069   0.538   2.016  0.7904 -0.1166 -0.6641
 9107TIP3   OH227284   3.016   3.177   4.484  0.3217 -0.5541  0.3658
 9107TIP3    H127285   2.966   3.110   4.531 -1.8168 -1.2137 -2.5928
 9107TIP3    H227286   3.058   3.130   4.413  0.3108  0.9402 -0.6674
 9108TIP3   OH227287   2.425   4.902   1.344 -0.2149  0.5468  0.3942
 9108TIP3    H127288   2.376   4.901   1.426  0.3263  3.5851  0.8566
 9108TIP3    H227289   2.458   4.812   1.335 -1.0440 -0.1087  2.9836
 9109TIP3   OH227290   3.860   3.930   1.632 -0.1668 -0.2464  0.0134
 9109TIP3    H127291   3.872   3.837   1.651  1.4523  0.2120  1.5119
 9109TIP3    H227292   3.766   3.945   1.641 -0.4958 -1.7866 -0.5684
 9110TIP3   OH227293   2.250   1.210   1.475 -0.1319 -0.1489  0.4695
 9110TIP3    H127294   2.192   1.170   1.411  0.1533 -0.4586  0.4013
 9110TIP3    H227295   2.283   1.289   1.432  2.7920 -2.0916 -1.1994
 9111TIP3   OH227296   7.213   3.903   2.973 -0.4757  0.5907 -0.3043
 9111TIP3    H127297   7.228   3.903   3.068  0.5828  1.9410 -0.4428
 9111TIP3    H227298   7.183   3.992   2.954 -2.3980 -0.1686 -1.0148
 9112TIP3   OH227299   6.031   2.305   1.851  0.6211 -0.4386 -0.2089
 9112TIP3    H127300   5.995   2.355   1.778 -0.9698 -0.4402  0.5249
 9112TIP3    H227301   6.045   2.217   1.815  2.2213  0.1613 -1.1523
 9113TIP3   OH227302   1.448   3.345   0.367 -0.4136 -0.3417  0.3253
 9113TIP3    H127303   1.442   3.440   0.355 -1.0251 -0.5615 -1.3143
 9113TIP3    H227304   1.381   3.326   0.433 -0.5810  0.3123  0.3542
 9114TIP3   OH227305   0.358   5.151   0.792  0.0877  0.6228 -0.5821
 9114TIP3    H127306   0.348   5.122   0.702 -0.2056 -0.5195 -0.1934
 9114TIP3    H227307   0.438   5.109   0.822  0.4282  1.3535 -0.4315
 9115TIP3   OH227308   5.509   4.428   4.197 -0.2403  0.2047  0.0721
 9115TIP3    H127309   5.536   4.368   4.266  0.4251  0.1444 -0.2332
 9115TIP3    H227310   5.537   4.514   4.227  0.1249  0.1677 -0.1563
 9116TIP3   OH227311   0.202   5.818   5.264  0.0602 -0.1285  0.1190
 9116TIP3    H127312   0.140   5.876   5.219 -0.5030 -0.3618  0.5793
 9116TIP3    H227313   0.219   5.748   5.201  0.1133  0.1123 -0.1336
 9117TIP3   OH227314   2.827   1.043   3.918 -0.2064 -0.3544 -0.4053
 9117TIP3    H127315   2.906   1.097   3.924  0.1648 -0.8413 -0.7142
 9117TIP3    H227316   2.834   1.002   3.831 -0.0556 -1.5119  0.1299
 9118TIP3   OH227317   5.504   1.054   4.584 -0.1760 -0.0878 -0.6448
 9118TIP3    H127318   5.535   0.979   4.533  2.7251  0.8445 -0.4685
 9118TIP3    H227319   5.519   1.029   4.675 -2.0499 -0.4057 -0.3961
 9119TIP3   OH227320   0.684   1.178   2.181 -0.0423 -0.5193  0.2654
 9119TIP3    H127321   0.748   1.214   2.121  1.3217 -1.5704  1.0321
 9119TIP3    H227322   0.717   1.199   2.268 -1.2099 -0.3145  0.6861
 9120TIP3   OH227323   0.115   4.254   5.596  0.2911 -0.3059  0.0837
 9120TIP3    H127324   0.160   4.207   5.666 -0.0520  1.3689  1.5092
 9120TIP3    H227325   0.168   4.238   5.518 -0.3365 -3.7982  0.2035
 9121TIP3   OH227326   6.993   0.257   3.578  0.2561 -0.4221 -0.0025
 9121TIP3    H127327   6.979   0.281   3.487  0.1433 -1.8833 -0.3931
 9121TIP3    H227328   6.961   0.167   3.584  1.9856 -1.0037  1.0332
 9122TIP3   OH227329   2.398   5.744   5.055 -0.1209 -0.3749  0.3789
 9122TIP3    H127330   2.387   5.693   5.136 -0.7063  0.5776  0.9155
 9122TIP3    H227331   2.381   5.680   4.985 -3.8471 -0.3644  1.0573
 9123TIP3   OH227332   2.456   5.677   3.214  0.1787 -0.0172  0.1570
 9123TIP3    H127333   2.400   5.650   3.142  0.4198 -0.2191  0.0460
 9123TIP3    H227334   2.427   5.624   3.288 -0.5995  0.7434  0.4190
 9124TIP3   OH227335   6.231   0.264   4.524  0.2654 -0.2907  0.0462
 9124TIP3    H127336   6.202   0.242   4.612 -0.4210 -1.3771 -0.4337
 9124TIP3    H227337   6.152   0.294   4.479  0.6184  0.2935 -0.1953
 9125TIP3   OH227338   3.029   1.004   2.604 -0.0497 -0.0748  0.4952
 9125TIP3    H127339   3.105   0.946   2.594  0.2136  0.6368 -3.2688
 9125TIP3    H227340   3.062   1.091   2.583 -1.3390  0.7480  1.7390
 9126TIP3   OH227341   2.791   3.676   1.085 -0.3671  0.3619  0.2033
 9126TIP3    H127342   2.801   3.731   1.008  0.9855 -0.8944 -0.5756
 9126TIP3    H227343   2.719   3.617   1.064  2.4005 -2.6382 -1.9296
 9127TIP3   OH227344   5.192   1.483   2.968  0.2171 -0.3720 -1.0256
 9127TIP3    H127345   5.268   1.501   3.023 -0.2249  1.4225 -0.9413
 9127TIP3    H227346   5.127   1.447   3.028  0.8800 -1.6934 -1.0551
 9128TIP3   OH227347   2.224   2.680   3.282  0.4530  0.3505  0.8274
 9128TIP3    H127348   2.202   2.597   3.240 -1.1859  1.3997 -0.4743
 9128TIP3    H227349   2.211   2.663   3.375 -2.4671 -0.1698  0.4183
 9129TIP3   OH227350   2.522   1.589   3.135 -0.4570  0.0306 -0.3536
 9129TIP3    H127351   2.577   1.649   3.185  0.3841 -1.1986  0.2484
 9129TIP3    H227352   2.452   1.644   3.100 -0.0090  1.2589  0.6074
 9130TIP3   OH227353   3.229   0.379   1.445 -0.1215  0.7370  0.2174
 9130TIP3    H127354   3.293   0.347   1.508 -0.7393 -1.5399 -0.2012
 9130TIP3    H227355   3.198   0.461   1.481  1.4387  0.7998  1.5199
 9131TIP3   OH227356   3.831   0.522   1.948 -0.7266  0.7147  0.1354
 9131TIP3    H127357   3.908   0.472   1.919 -1.6668 -0.4576 -0.4656
 9131TIP3    H227358   3.836   0.604   1.899 -1.0835 -0.3211 -1.7556
 9132TIP3   OH227359   2.314   2.940   1.531 -0.2642  0.2019  0.0122
 9132TIP3    H127360   2.365   3.014   1.500 -1.3089  1.0268  0.1808
 9132TIP3    H227361   2.324   2.942   1.627 -1.8148  1.3282  0.1877
 9133TIP3   OH227362   5.336   2.208   1.595  0.2632 -0.1150 -0.2301
 9133TIP3    H127363   5.245   2.224   1.617  0.2001 -0.1022 -0.4899
 9133TIP3    H227364   5.381   2.201   1.679 -0.3617 -2.3800 -0.0290
 9134TIP3   OH227365   6.424   0.884   5.745  0.4713  0.1991 -0.2650
 9134TIP3    H127366   6.370   0.808   5.724  0.4647  0.2319 -0.3701
 9134TIP3    H227367   6.514   0.855   5.732  0.4428  0.4314 -1.0789
 9135TIP3   OH227368   4.179   3.869   2.029 -0.2299 -0.4671  0.4419
 9135TIP3    H127369   4.106   3.830   1.981 -0.0854 -0.7724  0.4727
 9135TIP3    H227370   4.163   3.848   2.120 -0.9578  0.8324  0.6460
 9136TIP3   OH227371   1.946   6.324   0.449 -0.8590 -0.6306  0.7435
 9136TIP3    H127372   1.959   6.356   0.539 -2.1798  1.1392  0.3554
 9136TIP3    H227373   1.944   6.403   0.396 -0.3289 -1.6439 -0.8485
 9137TIP3   OH227374   2.718   4.290   4.550 -0.0926 -0.1511 -0.4837
 9137TIP3    H127375   2.742   4.255   4.636  1.1884  0.7286 -0.4657
 9137TIP3    H227376   2.722   4.385   4.560 -0.8680 -0.0229 -1.2629
 9138TIP3   OH227377   4.213   4.935   1.668 -0.0951 -0.4903 -0.0456
 9138TIP3    H127378   4.272   4.923   1.742 -0.0835  1.0305  0.2318
 9138TIP3    H227379   4.132   4.891   1.695 -0.6835  1.4822  1.6600
 9139TIP3   OH227380   0.843   5.698   1.156 -0.2620  1.0475 -0.0228
 9139TIP3    H127381   0.763   5.665   1.196 -0.0432  2.4402  1.7054
 9139TIP3    H227382   0.813   5.748   1.079 -0.8705  0.0384 -0.4583
 9140TIP3   OH227383   6.985   5.107   3.852  0.8261  0.2426 -0.4347
 9140TIP3    H127384   6.939   5.163   3.790 -2.6843  0.8744  2.3663
 9140TIP3    H227385   6.926   5.034   3.867  2.1213 -0.5629  1.1585
 9141TIP3   OH227386   3.464   6.213   5.488 -0.2002 -0.0108  0.0644
 9141TIP3    H127387   3.391   6.269   5.514  0.2111  0.2572  0.6662
 9141TIP3    H227388   3.427   6.155   5.422 -0.7761  0.6030 -0.1720
 9142TIP3   OH227389   2.665   4.384   3.187  0.2113  0.2771 -1.0347
 9142TIP3    H127390   2.760   4.396   3.198 -0.1383  2.5618  0.0441
 9142TIP3    H227391   2.651   4.390   3.093  1.3562 -2.5717 -1.4893
 9143TIP3   OH227392   2.003   5.203   2.705 -0.8283  0.7140  0.4244
 9143TIP3    H127393   2.052   5.278   2.671  0.6196 -0.4589 -0.1687
 9143TIP3    H227394   2.009   5.137   2.636 -1.3990 -0.2456  1.2690
 9144TIP3   OH227395   2.776   2.497   4.039  0.0535 -0.0933 -0.2361
 9144TIP3    H127396   2.776   2.453   4.124  1.7149  2.7905  1.4396
 9144TIP3    H227397   2.861   2.475   4.001  0.3226  0.5203 -0.0074
 9145TIP3   OH227398   2.351   4.406   4.405  0.1326 -0.4248 -0.8816
 9145TIP3    H127399   2.431   4.361   4.379 -0.3597 -1.3310 -0.8726
 9145TIP3    H227400   2.380   4.476   4.464  1.0990  0.5492 -2.4562
 9146TIP3   OH227401   6.928   3.021   2.703  0.7485 -0.4978 -0.2815
 9146TIP3    H127402   6.962   3.051   2.618  1.1477 -0.3830 -0.0827
 9146TIP3    H227403   6.944   3.094   2.763 -0.1241 -0.3268 -0.2454
 9147TIP3   OH227404   5.113   5.942   5.431  0.2639  0.4039  0.1337
 9147TIP3    H127405   5.106   5.904   5.518  0.5209 -1.6118 -0.6729
 9147TIP3    H227406   5.034   5.995   5.421 -1.2640 -1.6795  0.5403
 9148TIP3   OH227407   4.139   2.838   4.871 -0.1134  0.7365  0.6667
 9148TIP3    H127408   4.210   2.840   4.936  1.6292  0.6786 -1.1441
 9148TIP3    H227409   4.151   2.917   4.819 -0.9734  0.3939 -0.0930
 9149TIP3   OH227410   2.513   0.589   1.833  0.0456 -0.1174 -0.5829
 9149TIP3    H127411   2.475   0.676   1.846 -0.1754 -0.2335 -0.4258
 9149TIP3    H227412   2.571   0.598   1.758 -0.7467 -0.0759 -1.2003
 9150TIP3   OH227413   0.331   2.348   1.547  0.6340  0.0007  0.5440
 9150TIP3    H127414   0.294   2.277   1.600 -0.3467  0.0724 -0.0193
 9150TIP3    H227415   0.297   2.428   1.587 -0.0082  0.0605 -0.1012
 9151TIP3   OH227416   0.275   3.422   2.950  0.2889  0.1436  0.3598
 9151TIP3    H127417   0.321   3.346   2.984  1.1085 -0.2210 -1.4542
 9151TIP3    H227418   0.326   3.449   2.873 -1.6862  0.6268 -0.8563
 9152TIP3   OH227419   2.074   4.104   0.403 -0.0921  0.3863 -0.2580
 9152TIP3    H127420   2.052   4.163   0.475 -0.6009 -0.0670 -0.0310
 9152TIP3    H227421   1.998   4.107   0.345 -0.7367 -1.0678  0.4474
 9153TIP3   OH227422   2.851   6.758   2.433  0.5151 -0.2780 -0.5316
 9153TIP3    H127423   2.832   6.786   2.523 -0.0378 -0.5166 -0.5714
 9153TIP3    H227424   2.790   6.808   2.379 -0.1223 -1.1666 -0.6483
 9154TIP3   OH227425   0.390   4.381   2.071  0.4027 -0.0409  0.2248
 9154TIP3    H127426   0.408   4.305   2.127 -1.2900 -1.2525 -0.7871
 9154TIP3    H227427   0.463   4.382   2.009  0.7026 -0.5426  0.5583
 9155TIP3   OH227428   2.365   3.755   2.764  0.2829 -0.5877  0.3117
 9155TIP3    H127429   2.414   3.733   2.685  0.6043 -1.7907  0.8168
 9155TIP3    H227430   2.275   3.769   2.734  0.8873  1.8616 -0.6650
 9156TIP3   OH227431   3.637   0.006   5.661 -0.7241  0.2754  0.4634
 9156TIP3    H127432   3.627   0.036   5.752 -0.6528 -0.4252  0.7029
 9156TIP3    H227433   3.591   0.073   5.609  0.1856  1.2856  0.9142
 9157TIP3   OH227434   5.108   3.632   0.732 -0.3793 -0.0311 -0.0679
 9157TIP3    H127435   5.053   3.570   0.684 -0.4647 -0.1137  0.1344
 9157TIP3    H227436   5.082   3.718   0.698 -1.6173  0.0450  0.9871
 9158TIP3   OH227437   6.595   3.834   3.143 -0.3813 -0.4455 -0.3578
 9158TIP3    H127438   6.576   3.927   3.151  0.2708 -0.1929 -1.5508
 9158TIP3    H227439   6.593   3.802   3.233 -1.4722  0.5310  0.0011
 9159TIP3   OH227440   0.269   1.274   2.811 -0.0216 -0.1080  0.7387
 9159TIP3    H127441   0.243   1.231   2.729  0.1609 -2.1337  1.6881
 9159TIP3    H227442   0.189   1.279   2.862  0.6100 -3.3822  2.3438
 9160TIP3   OH227443   6.915   0.148   3.995 -0.3909 -0.0679 -0.0127
 9160TIP3    H127444   6.823   0.153   4.021 -0.2720 -0.5096  0.5068
 9160TIP3    H227445   6.928   0.225   3.939 -1.0879 -0.0343 -0.1413
 9161TIP3   OH227446   0.405   5.698   4.772 -0.0292  0.4345  0.2120
 9161TIP3    H127447   0.367   5.727   4.855  0.0328  0.8212  0.1075
 9161TIP3    H227448   0.467   5.629   4.797 -0.6712 -0.0890  0.3978
 9162TIP3   OH227449   3.405   6.294   1.997  0.4286 -0.3227 -0.2032
 9162TIP3    H127450   3.432   6.337   2.079  1.9681  1.3483 -1.4863
 9162TIP3    H227451   3.482   6.302   1.940 -0.3707 -2.0362 -1.6172
 9163TIP3   OH227452   3.415   0.024   0.709  0.0251  0.3968  0.0114
 9163TIP3    H127453   3.385   0.110   0.679  0.0984  1.1932  2.0522
 9163TIP3    H227454   3.509   0.024   0.692 -0.4952 -1.1253 -4.0845
 9164TIP3   OH227455   6.826   4.460   5.653 -0.2423 -0.0602 -0.2798
 9164TIP3    H127456   6.767   4.497   5.718 -0.5650  0.8702 -1.0726
 9164TIP3    H227457   6.896   4.419   5.705 -0.4160  0.7714  0.6483
 9165TIP3   OH227458   3.582   3.721   4.345  0.0970  0.3069 -0.2187
 9165TIP3    H127459   3.641   3.691   4.414 -0.2876  1.0868  0.4709
 9165TIP3    H227460   3.564   3.642   4.293  0.2590 -0.3426  0.6737
 9166TIP3   OH227461   0.984   0.051   2.673 -0.0211 -0.5023  0.9389
 9166TIP3    H127462   0.915   0.107   2.638  0.6464  0.1460  0.6337
 9166TIP3    H227463   1.032   0.022   2.596  2.3589  2.1038  1.2750
 9167TIP3   OH227464   6.287   3.475   3.762 -0.5132 -0.3475  0.1048
 9167TIP3    H127465   6.254   3.513   3.680 -0.6317 -1.1169 -0.2153
 9167TIP3    H227466   6.381   3.493   3.760 -0.6764  0.5833  0.3248
 9168TIP3   OH227467   5.625   6.088   5.286  0.4539 -0.2845  0.0052
 9168TIP3    H127468   5.644   6.016   5.226 -0.6870 -0.2187 -0.4577
 9168TIP3    H227469   5.596   6.045   5.367  0.2753 -0.3546 -0.0961
 9169TIP3   OH227470   0.070   0.162   3.760  0.0484 -0.0168 -0.1707
 9169TIP3    H127471   0.024   0.100   3.704 -0.6254  0.2170  0.1182
 9169TIP3    H227472   0.148   0.114   3.789  0.5545 -0.0428 -1.5170
 9170TIP3   OH227473   0.693   6.119   1.682  0.5815  0.2264  0.2078
 9170TIP3    H127474   0.604   6.124   1.718  0.6315 -0.2506  0.3920
 9170TIP3    H227475   0.751   6.135   1.756  0.6803 -0.6371  0.3274
 9171TIP3   OH227476   1.004   1.243   2.298  0.0788  0.1299 -0.0177
 9171TIP3    H127477   0.931   1.299   2.325 -0.3714  0.4492 -1.7705
 9171TIP3    H227478   1.057   1.298   2.241 -0.2776 -1.1205 -1.6326
 9172TIP3   OH227479   0.381   6.055   5.590  0.0455  0.0912 -0.0862
 9172TIP3    H127480   0.313   6.121   5.578  1.2188  1.1673 -1.1338
 9172TIP3    H227481   0.344   5.975   5.552 -1.7616 -0.1673  2.0382
 9173TIP3   OH227482   7.149   4.750   3.257  0.0026 -0.0856  0.3160
 9173TIP3    H127483   7.213   4.755   3.186  0.8516 -2.4075  0.8382
 9173TIP3    H227484   7.064   4.760   3.213  0.4043 -2.7783 -1.3456
 9174TIP3   OH227485   0.060   0.583   2.517  0.5919 -0.4235 -0.5018
 9174TIP3    H127486   0.111   0.664   2.517  1.6535 -1.0599 -1.7668
 9174TIP3    H227487   0.102   0.528   2.583  0.3001 -0.2117 -0.1356
 9175TIP3   OH227488   1.340   4.349   2.382 -0.4111  0.0952 -1.0736
 9175TIP3    H127489   1.275   4.376   2.317  1.6905  1.6559 -2.6722
 9175TIP3    H227490   1.352   4.255   2.365 -0.7638  0.2232 -2.1635
 9176TIP3   OH227491   5.720   0.994   0.341 -0.5263  0.3346 -0.3941
 9176TIP3    H127492   5.693   0.969   0.253 -1.8716 -0.1968  0.1331
 9176TIP3    H227493   5.640   0.984   0.394  0.8887 -2.3110  1.4808
 9177TIP3   OH227494   2.990   1.813   5.366  0.4655 -0.1351  0.1252
 9177TIP3    H127495   3.055   1.793   5.433 -0.5881  1.7705  1.8397
 9177TIP3    H227496   3.027   1.887   5.317  0.7505 -0.8203 -0.7261
 9178TIP3   OH227497   5.233   6.021   4.219 -0.4988 -0.4232 -0.3797
 9178TIP3    H127498   5.210   6.094   4.276  0.3200  0.6630 -1.3879
 9178TIP3    H227499   5.279   5.960   4.276 -0.5006  0.2089  0.3262
 9179TIP3   OH227500   1.342   3.663   2.532 -0.2637  0.6870 -0.3025
 9179TIP3    H127501   1.291   3.734   2.572 -1.5798  0.0480 -0.7745
 9179TIP3    H227502   1.407   3.708   2.479 -0.4954  1.5422  0.1066
 9180TIP3   OH227503   1.252   2.725   4.586 -0.2704 -1.5468 -0.1370
 9180TIP3    H127504   1.241   2.658   4.653  2.8197 -0.6731  1.4215
 9180TIP3    H227505   1.250   2.808   4.634  2.9757 -0.9383 -0.8305
 9181TIP3   OH227506   6.893   1.002   2.622  0.3762  0.0369  0.4168
 9181TIP3    H127507   6.811   0.980   2.667  0.4447  0.8044  0.9332
 9181TIP3    H227508   6.867   1.067   2.556  0.4296 -0.3783 -0.0152
 9182TIP3   OH227509   6.523   3.405   2.689 -0.2079 -0.1006  0.3268
 9182TIP3    H127510   6.449   3.461   2.711 -0.4683  0.2477 -1.2522
 9182TIP3    H227511   6.590   3.465   2.656  0.5827 -0.4635  1.2409
 9183TIP3   OH227512   3.495   5.514   5.309 -0.2257  0.3808 -0.4727
 9183TIP3    H127513   3.533   5.602   5.307  0.7973 -0.0497 -1.3718
 9183TIP3    H227514   3.535   5.472   5.385 -0.5247  0.6152 -0.1871
 9184TIP3   OH227515   0.897   6.110   1.506  0.0093  0.6740 -0.2198
 9184TIP3    H127516   0.908   6.022   1.468 -0.7278 -0.1933  1.4691
 9184TIP3    H227517   0.830   6.098   1.573 -0.3304  2.6208 -0.1776
 9185TIP3   OH227518   5.451   3.134   0.576 -0.3182 -0.0364 -0.5110
 9185TIP3    H127519   5.400   3.121   0.496 -0.7165  1.8673 -0.6110
 9185TIP3    H227520   5.396   3.191   0.630  1.4691  1.7113 -0.4349
 9186TIP3   OH227521   2.590   0.137   4.526  0.7289  0.7696 -0.1311
 9186TIP3    H127522   2.561   0.228   4.530 -0.9789  0.2290  1.3936
 9186TIP3    H227523   2.639   0.124   4.607  2.9940  0.9037 -1.4140
 9187TIP3   OH227524   6.786   0.949   3.151  0.1157 -0.0287 -0.3127
 9187TIP3    H127525   6.798   0.883   3.083  2.7994  0.3847 -0.3580
 9187TIP3    H227526   6.732   1.016   3.110 -1.4503 -1.4773 -0.7319
 9188TIP3   OH227527   0.079   6.607   1.685 -0.4081  0.1774  0.2641
 9188TIP3    H127528   0.146   6.610   1.617  1.0197  1.4751  1.6381
 9188TIP3    H227529   0.081   6.516   1.716  0.8949  0.2180  0.3930
 9189TIP3   OH227530   6.426   4.516   3.860 -0.3479 -0.3702 -0.1315
 9189TIP3    H127531   6.335   4.539   3.876  0.1915  1.3929  0.6512
 9189TIP3    H227532   6.451   4.465   3.937 -0.1128  0.9618  0.7122
 9190TIP3   OH227533   0.529   6.194   0.588 -0.3973 -0.0707  0.1316
 9190TIP3    H127534   0.592   6.260   0.614 -2.1725  2.0986 -0.7751
 9190TIP3    H227535   0.469   6.187   0.662  1.3634 -2.9707  1.4844
 9191TIP3   OH227536   3.033   4.499   3.963 -0.0015 -0.0693 -0.0957
 9191TIP3    H127537   2.984   4.507   4.045 -0.5059  2.7375 -0.5542
 9191TIP3    H227538   2.970   4.523   3.895  1.4810  1.9810 -0.8586
 9192TIP3   OH227539   4.070   4.722   5.318 -0.9778  0.2718 -0.1311
 9192TIP3    H127540   4.045   4.735   5.410  0.1418 -2.7398  0.7310
 9192TIP3    H227541   4.160   4.754   5.312 -1.3616  1.3296 -0.4631
 9193TIP3   OH227542   5.975   3.301   5.061  0.5235 -0.4261  0.1042
 9193TIP3    H127543   5.994   3.271   4.971 -1.9123 -2.5484  0.1917
 9193TIP3    H227544   5.949   3.222   5.107  0.1840  0.8891  2.2842
 9194TIP3   OH227545   6.590   3.460   5.642 -0.3670  0.3433 -0.1810
 9194TIP3    H127546   6.557   3.374   5.616  0.3642 -0.5138  1.5657
 9194TIP3    H227547   6.672   3.442   5.688 -0.2840  1.9561  0.3823
 9195TIP3   OH227548   6.110   3.251   3.771  0.2698 -0.2070  0.4385
 9195TIP3    H127549   6.164   3.177   3.797  0.8094  0.2964  0.7757
 9195TIP3    H227550   6.170   3.309   3.723 -0.2634 -0.2231 -0.2694
 9196TIP3   OH227551   5.710   0.359   3.339  0.3239 -0.1072 -0.8778
 9196TIP3    H127552   5.775   0.423   3.367 -0.4305  0.0339  0.6692
 9196TIP3    H227553   5.635   0.412   3.311 -0.1713 -0.2878  0.0709
 9197TIP3   OH227554   0.574   1.896   0.951 -0.1716 -0.5458  0.5730
 9197TIP3    H127555   0.663   1.928   0.959 -0.0823 -0.7474  0.3852
 9197TIP3    H227556   0.530   1.926   1.031 -0.4894  1.3267 -0.2595
 9198TIP3   OH227557   4.237   1.890   4.485 -0.6018  0.1362 -0.1574
 9198TIP3    H127558   4.156   1.841   4.472  0.5878 -2.5151  1.6450
 9198TIP3    H227559   4.246   1.943   4.406 -2.6233 -1.6558 -1.7063
 9199TIP3   OH227560   3.857   5.364   3.103  0.2655  0.0411  0.1846
 9199TIP3    H127561   3.939   5.315   3.114  0.8469  0.5040 -1.6858
 9199TIP3    H227562   3.874   5.422   3.029 -1.6079  0.5042  0.0681
 9200TIP3   OH227563   5.287   4.198   2.953  0.1647  0.4201  0.0135
 9200TIP3    H127564   5.309   4.162   3.039 -2.8695  0.4947  0.9500
 9200TIP3    H227565   5.275   4.292   2.969  1.2128  0.7313 -0.9017
 9201TIP3   OH227566   3.881   4.248   4.996  0.5974  0.7234  0.6666
 9201TIP3    H127567   3.858   4.309   4.926  1.1734 -0.1285 -0.2917
 9201TIP3    H227568   3.861   4.296   5.077 -0.9120  1.4056 -0.0693
 9202TIP3   OH227569   6.269   2.459   4.224 -0.5050  0.1708  0.4757
 9202TIP3    H127570   6.223   2.467   4.308 -0.8219 -0.2184  0.3452
 9202TIP3    H227571   6.200   2.439   4.161 -0.3087  0.7490  0.0674
 9203TIP3   OH227572   2.682   4.652   2.946 -0.5938  0.2069 -0.2131
 9203TIP3    H127573   2.603   4.599   2.958 -1.9885  1.9073 -1.4558
 9203TIP3    H227574   2.706   4.680   3.035 -1.0002 -0.8326  0.2404
 9204TIP3   OH227575   4.714   0.882   4.041 -0.7827  0.3217  0.3190
 9204TIP3    H127576   4.676   0.970   4.050  0.1618  0.8855 -0.9024
 9204TIP3    H227577   4.806   0.898   4.019 -0.5388 -0.9840  0.3184
 9205TIP3   OH227578   3.280   2.439   0.591 -0.0858  0.0747 -0.1396
 9205TIP3    H127579   3.315   2.399   0.671 -0.5356  0.3231  0.1883
 9205TIP3    H227580   3.306   2.531   0.597  1.0389 -0.1702 -0.9435
 9206TIP3   OH227581   0.012   3.220   1.313  0.5483  0.3205  0.2586
 9206TIP3    H127582  -0.056   3.153   1.319  0.0057  0.1677 -4.2042
 9206TIP3    H227583   0.094   3.172   1.328  0.0637 -1.0811 -1.2824
 9207TIP3   OH227584   0.713   0.963   0.482  0.2600 -0.2327 -0.2480
 9207TIP3    H127585   0.774   0.989   0.414  1.0054  2.0849  1.1723
 9207TIP3    H227586   0.626   0.980   0.444  0.5944 -0.5695 -1.1829
 9208TIP3   OH227587   0.030   5.285   1.832  0.1906 -0.0749  0.3379
 9208TIP3    H127588   0.011   5.262   1.922  1.3767  0.7841  0.8368
 9208TIP3    H227589  -0.026   5.227   1.780  1.1776 -2.2585  1.5563
 9209TIP3   OH227590   5.917   2.913   3.358 -0.5320  0.0437  0.5075
 9209TIP3    H127591   5.872   2.881   3.280 -1.0846  0.7518  0.5326
 9209TIP3    H227592   5.847   2.938   3.419 -0.1113  0.2105  0.9322
 9210TIP3   OH227593   2.447   1.216   0.286 -0.2875  0.1523  0.2040
 9210TIP3    H127594   2.373   1.162   0.257  0.3193 -1.1338  0.9197
 9210TIP3    H227595   2.518   1.192   0.227 -0.0186  0.2006  0.5067
 9211TIP3   OH227596   2.692   1.332   0.186 -0.5248 -0.5283 -0.6233
 9211TIP3    H127597   2.707   1.343   0.280 -1.1572  0.0674 -0.5849
 9211TIP3    H227598   2.639   1.407   0.162  0.2214 -0.2927 -1.6022
 9212TIP3   OH227599   1.788   3.920   0.961  0.3724 -0.0539 -0.7555
 9212TIP3    H127600   1.808   3.827   0.972  1.0845  0.1219 -0.5237
 9212TIP3    H227601   1.849   3.965   1.019  0.4978  0.5934 -1.3697
 9213TIP3   OH227602   6.480   3.952   1.813  0.4909  0.0269  0.3065
 9213TIP3    H127603   6.470   3.910   1.727 -0.2284  3.0868 -1.2472
 9213TIP3    H227604   6.392   3.952   1.850  0.2769  1.0804 -0.1851
 9214TIP3   OH227605   1.047   1.327   5.038  0.1998  0.3033  0.4442
 9214TIP3    H127606   1.143   1.324   5.039  0.2932  1.8781 -0.4555
 9214TIP3    H227607   1.026   1.416   5.064 -0.9411  0.5138 -1.0430
 9215TIP3   OH227608   1.978   0.615   0.410  0.3506 -0.0702 -0.2639
 9215TIP3    H127609   1.951   0.668   0.336 -1.0590  1.8623  1.5338
 9215TIP3    H227610   1.909   0.550   0.420  1.7470 -1.9796 -2.0458
 9216TIP3   OH227611   6.200   0.496   4.804 -0.2206  0.3185  0.2137
 9216TIP3    H127612   6.113   0.532   4.824 -0.1665 -0.9435  3.3162
 9216TIP3    H227613   6.193   0.403   4.828  0.7483 -0.9727 -3.8349
 9217TIP3   OH227614   6.730   6.332   1.111  0.1057 -0.3980  0.2952
 9217TIP3    H127615   6.734   6.273   1.186 -0.0109 -1.1256 -0.2631
 9217TIP3    H227616   6.721   6.274   1.035  0.2095  0.3269 -0.2805
 9218TIP3   OH227617   5.240   3.616   1.978  0.3507 -0.5219  0.3780
 9218TIP3    H127618   5.158   3.665   1.980  0.0562 -1.0110  0.4443
 9218TIP3    H227619   5.298   3.665   2.037  0.1578 -0.0946  0.2188
 9219TIP3   OH227620   2.521   1.086   1.791  0.0035  0.1416  0.0083
 9219TIP3    H127621   2.539   1.171   1.751  0.5129 -0.6989 -1.6193
 9219TIP3    H227622   2.486   1.032   1.720  1.9011 -1.7285  0.3750
 9220TIP3   OH227623   5.657   2.668   2.169 -0.1456  0.4253 -0.1794
 9220TIP3    H127624   5.737   2.628   2.201  1.5745  2.2802 -1.8217
 9220TIP3    H227625   5.638   2.739   2.231 -1.5859 -1.0673  1.1714
 9221TIP3   OH227626   2.176   0.938   1.846 -0.5043 -0.2713  0.2895
 9221TIP3    H127627   2.205   1.015   1.797  0.3943  0.6976  2.2423
 9221TIP3    H227628   2.255   0.906   1.889 -1.0457 -1.7885  0.2341
 9222TIP3   OH227629   5.090   0.868   5.299 -0.3683 -0.8220  0.1547
 9222TIP3    H127630   5.042   0.863   5.216  0.7958  1.0922 -0.7238
 9222TIP3    H227631   5.181   0.854   5.274  0.0728  0.4184  0.9787
 9223TIP3   OH227632   4.591   2.630   4.126 -0.2049  0.1637 -0.2441
 9223TIP3    H127633   4.641   2.589   4.197 -1.5833  0.9368  1.2373
 9223TIP3    H227634   4.524   2.566   4.104  0.1136 -0.0026 -0.7470
 9224TIP3   OH227635   4.004   2.668   3.590 -0.0536  0.1871 -0.0272
 9224TIP3    H127636   4.080   2.660   3.648  0.1850 -0.2571 -0.3967
 9224TIP3    H227637   3.953   2.740   3.628  0.0850 -0.1129  0.7450
 9225TIP3   OH227638   0.825   2.529   2.293 -0.4645  0.1241  0.4850
 9225TIP3    H127639   0.735   2.501   2.311 -0.4589 -0.4022 -0.2844
 9225TIP3    H227640   0.859   2.555   2.379 -1.7608  1.5983  0.6134
 9226TIP3   OH227641   5.153   2.343   3.735 -0.5623  0.4728  0.6136
 9226TIP3    H127642   5.129   2.375   3.648  1.4628  1.0213  0.2164
 9226TIP3    H227643   5.145   2.419   3.792  2.1062  1.2632  0.0771
 9227TIP3   OH227644   6.905   3.191   4.286  0.3314 -0.0266 -0.2220
 9227TIP3    H127645   6.965   3.134   4.237  0.4764 -0.3720  0.3513
 9227TIP3    H227646   6.913   3.162   4.377 -0.0560  0.5045 -0.0139
 9228TIP3   OH227647   7.138   3.342   5.808  0.1576 -0.4485  0.0971
 9228TIP3    H127648   7.096   3.272   5.757  1.8040 -0.9181 -0.6805
 9228TIP3    H227649   7.189   3.296   5.874  1.8056 -0.0498 -0.8471
 9229TIP3   OH227650   0.077   0.211   2.866 -0.2063 -0.0478 -0.7927
 9229TIP3    H127651   0.059   0.143   2.932 -1.6480 -0.2598 -1.3664
 9229TIP3    H227652   0.144   0.172   2.810  0.3578 -0.2319 -0.0106
 9230TIP3   OH227653   2.670   6.432   0.005  0.3130  0.2237  0.0451
 9230TIP3    H127654   2.601   6.368  -0.013  0.6787 -0.1989  0.1528
 9230TIP3    H227655   2.719   6.395   0.078 -0.3347  1.2879  1.0613
 9231TIP3   OH227656   7.165   2.057   4.416  0.2006 -0.0450 -0.3857
 9231TIP3    H127657   7.239   2.012   4.374 -0.7790 -0.1095 -2.1689
 9231TIP3    H227658   7.163   2.023   4.505  0.7073 -2.0763 -1.0869
 9232TIP3   OH227659   2.418   6.297   0.018  0.1267  0.3827  0.3678
 9232TIP3    H127660   2.369   6.233  -0.033 -0.6961 -0.0295  1.6455
 9232TIP3    H227661   2.358   6.372   0.027  0.6509  0.8753 -0.1234
 9233TIP3   OH227662   1.655   4.916   5.238 -0.2802  0.3923  0.0302
 9233TIP3    H127663   1.648   5.004   5.275  0.5050  0.9607 -1.1093
 9233TIP3    H227664   1.571   4.875   5.258 -1.6929  2.2851 -1.6079
 9234TIP3   OH227665   2.941   0.665   3.721 -0.3626  0.2934 -0.4883
 9234TIP3    H127666   2.934   0.739   3.661  1.7590  1.1812  0.2433
 9234TIP3    H227667   2.850   0.645   3.746 -1.1139  1.3438 -2.2255
 9235TIP3   OH227668   2.075   4.130   4.585 -0.5378 -0.0988  0.3803
 9235TIP3    H127669   2.135   4.082   4.528  0.0071  1.7233 -0.7030
 9235TIP3    H227670   2.063   4.214   4.540 -2.9815  0.0454  1.1792
 9236TIP3   OH227671   3.338   4.110   1.715  0.0779 -0.4929 -0.5945
 9236TIP3    H127672   3.249   4.076   1.701 -0.5453  1.6406 -2.5030
 9236TIP3    H227673   3.380   4.102   1.629  1.0152  0.3627 -0.2343
 9237TIP3   OH227674   4.690   5.113   5.135 -0.7260  0.0599 -0.3529
 9237TIP3    H127675   4.754   5.119   5.064 -0.4599 -2.2732 -0.3921
 9237TIP3    H227676   4.615   5.069   5.096 -1.8192  1.4480  0.0827
 9238TIP3   OH227677   3.806   1.346   4.032  0.0222  0.1498 -0.2658
 9238TIP3    H127678   3.769   1.258   4.028  0.4334 -0.0656  0.4452
 9238TIP3    H227679   3.779   1.379   4.118  0.8674  0.2585 -0.0331
 9239TIP3   OH227680   2.180   5.318   0.229  0.5882 -0.8440  0.0232
 9239TIP3    H127681   2.144   5.387   0.285  1.1512 -0.3333 -0.2385
 9239TIP3    H227682   2.256   5.285   0.277 -0.2982 -2.0433  0.6578
 9240TIP3   OH227683   3.050   0.657   4.694  0.2921 -0.4112 -0.0539
 9240TIP3    H127684   2.994   0.708   4.635  0.4047 -1.6525 -1.2853
 9240TIP3    H227685   3.108   0.723   4.733 -0.6459  0.6152 -0.3229
 9241TIP3   OH227686   3.011   3.587   1.261  0.2457  0.1102 -0.0906
 9241TIP3    H127687   2.920   3.572   1.286 -0.2268 -1.1831 -2.2904
 9241TIP3    H227688   3.031   3.516   1.199  1.5648  2.3961 -2.5067
 9242TIP3   OH227689   7.033   6.589   1.938 -0.8974 -0.2958 -0.2518
 9242TIP3    H127690   7.019   6.678   1.971 -0.3465 -0.6748  1.0628
 9242TIP3    H227691   7.053   6.537   2.016  0.1220 -1.3073 -1.1543
 9243TIP3   OH227692   0.282   0.456   4.301  0.0971 -0.0273  0.0608
 9243TIP3    H127693   0.343   0.513   4.349 -0.1355 -0.2678  0.6490
 9243TIP3    H227694   0.302   0.368   4.333 -0.3310 -0.1471 -0.0042
 9244TIP3   OH227695   5.428   5.843   5.058  0.3886 -0.2057  0.3564
 9244TIP3    H127696   5.375   5.871   5.133 -1.6404 -1.6371 -0.4378
 9244TIP3    H227697   5.372   5.781   5.012  1.3699  0.9427 -2.6121
 9245TIP3   OH227698   2.281   2.416   0.531 -0.2839 -0.5343  0.0911
 9245TIP3    H127699   2.189   2.396   0.549  0.2277 -1.5634  1.8824
 9245TIP3    H227700   2.310   2.348   0.471 -0.9379  0.4402 -1.3843
 9246TIP3   OH227701   1.617   4.984   2.377  0.7313  0.6445 -0.2482
 9246TIP3    H127702   1.711   4.970   2.366  0.9776  0.8336  1.4083
 9246TIP3    H227703   1.577   4.903   2.345  1.5208  0.1228  0.0546
 9247TIP3   OH227704   6.596   1.927   4.636  0.0916 -0.4056  0.2363
 9247TIP3    H127705   6.586   1.844   4.588 -0.2895 -0.3938  0.2873
 9247TIP3    H227706   6.509   1.967   4.631  0.4954  0.4229 -0.5672
 9248TIP3   OH227707   3.037   3.902   1.140  0.4760 -0.2229  0.3399
 9248TIP3    H127708   3.079   3.895   1.054 -0.6879  1.4094 -0.4187
 9248TIP3    H227709   3.012   3.813   1.162 -0.3362 -0.5410 -1.6308
 9249TIP3   OH227710   5.056   2.610   3.234  0.3080  0.0697 -0.1994
 9249TIP3    H127711   5.125   2.659   3.189  2.0014 -1.9314  0.1055
 9249TIP3    H227712   5.043   2.532   3.181 -0.7665 -0.2645  0.5110
 9250TIP3   OH227713   6.259   1.599   3.801 -1.0102  0.0757  0.7004
 9250TIP3    H127714   6.350   1.622   3.819 -0.8810  0.3734 -0.2621
 9250TIP3    H227715   6.225   1.566   3.884  0.0042 -0.1369  1.0434
 9251TIP3   OH227716   0.678   2.818   3.594  0.1288  0.3316  0.3787
 9251TIP3    H127717   0.757   2.810   3.648  0.3984 -1.6788 -0.2405
 9251TIP3    H227718   0.606   2.808   3.655  0.4246 -1.3476  0.4948
 9252TIP3   OH227719   1.595   5.922   1.805 -0.3489 -0.4289  0.1115
 9252TIP3    H127720   1.656   5.952   1.873  0.4852 -3.1718  0.7242
 9252TIP3    H227721   1.535   5.995   1.792 -0.4641  0.3032  3.7500
 9253TIP3   OH227722   2.987   1.792   3.908  0.2082  0.3526  0.3083
 9253TIP3    H127723   2.903   1.815   3.946  0.2131  0.2764  0.3668
 9253TIP3    H227724   3.021   1.874   3.871 -0.3192  0.1828 -0.5647
 9254TIP3   OH227725   4.616   0.362   2.146 -0.3153  0.6749 -0.0361
 9254TIP3    H127726   4.648   0.319   2.067 -0.9750  1.4356 -0.7416
 9254TIP3    H227727   4.526   0.386   2.126 -0.3520  1.2796  0.7826
 9255TIP3   OH227728   5.706   0.918   3.602  0.5659 -0.1116  0.3503
 9255TIP3    H127729   5.679   0.828   3.585 -0.9250  0.4794 -0.5608
 9255TIP3    H227730   5.633   0.957   3.651  1.4536  0.4534  1.2806
 9256TIP3   OH227731   0.618   3.362   4.232 -0.1164 -0.2341 -0.4405
 9256TIP3    H127732   0.676   3.302   4.279  1.6518  0.6515 -1.4079
 9256TIP3    H227733   0.547   3.306   4.200  0.4818 -1.4612  0.3056
 9257TIP3   OH227734   1.764   5.672   1.062 -0.4954  0.0068  0.2052
 9257TIP3    H127735   1.784   5.597   1.118  0.2249 -0.7115 -0.9480
 9257TIP3    H227736   1.681   5.649   1.020  0.6258 -1.0898 -1.5746
 9258TIP3   OH227737   0.439   2.509   0.711 -0.0620 -0.0706  0.0151
 9258TIP3    H127738   0.517   2.561   0.692 -0.6743  0.1707 -2.1885
 9258TIP3    H227739   0.461   2.460   0.790  1.4428  1.6803  0.7411
 9259TIP3   OH227740   3.642   2.618   2.288 -0.1456 -0.4552  0.2766
 9259TIP3    H127741   3.705   2.684   2.317 -0.3242 -0.3575  0.4434
 9259TIP3    H227742   3.568   2.669   2.255 -0.1194 -0.5692  0.0381
 9260TIP3   OH227743   2.929   6.482   2.496  0.0855 -0.3109  0.4614
 9260TIP3    H127744   2.896   6.562   2.456  1.5487  0.3808  0.5480
 9260TIP3    H227745   2.961   6.509   2.582  0.6208 -0.9610  0.4797
 9261TIP3   OH227746   4.877   1.393   1.623 -0.0503 -0.8839  0.4678
 9261TIP3    H127747   4.917   1.312   1.591  0.9003 -0.6066  0.9095
 9261TIP3    H227748   4.950   1.443   1.660 -1.0291 -1.1009  2.8821
 9262TIP3   OH227749   1.712   2.886   3.955 -0.2012  0.3589 -0.3420
 9262TIP3    H127750   1.645   2.937   4.000 -0.9346  0.0033 -1.0108
 9262TIP3    H227751   1.729   2.934   3.874  0.8389  0.7981  0.1252
 9263TIP3   OH227752   0.468   4.756   4.795 -0.3442  0.1543  0.3797
 9263TIP3    H127753   0.495   4.685   4.853 -0.9437  0.1232  0.6307
 9263TIP3    H227754   0.537   4.822   4.802 -0.2369 -0.0098  0.8481
 9264TIP3   OH227755   6.229   5.745   2.047  0.6807 -0.1323  0.2568
 9264TIP3    H127756   6.226   5.745   2.142  2.6015 -0.5608  0.3560
 9264TIP3    H227757   6.291   5.814   2.024 -0.3201  0.4777 -0.7391
 9265TIP3   OH227758   6.762  -0.002   2.612 -0.3940 -0.0263  0.1624
 9265TIP3    H127759   6.683   0.019   2.562 -1.0101 -0.1315  1.0708
 9265TIP3    H227760   6.800   0.083   2.633  0.3088  0.0152 -1.1208
 9266TIP3   OH227761   6.635   5.401   1.353 -0.2656 -0.2580  0.3543
 9266TIP3    H127762   6.709   5.367   1.404 -0.9008  1.8705  2.9486
 9266TIP3    H227763   6.561   5.397   1.413 -1.4051  1.0294 -0.9016
 9267TIP3   OH227764   5.670   5.275   3.306  0.4621 -0.0591  0.2942
 9267TIP3    H127765   5.663   5.351   3.248 -1.4684 -0.0677  0.4497
 9267TIP3    H227766   5.583   5.236   3.305  0.4041 -0.1765  3.0067
 9268TIP3   OH227767   1.505   1.026   2.156  0.3196  0.3388  0.6227
 9268TIP3    H127768   1.417   0.988   2.158  0.2733  0.4723  1.4728
 9268TIP3    H227769   1.496   1.110   2.201  1.1701 -0.3088  2.0727
 9269TIP3   OH227770   2.033   1.590   0.935  0.3969 -0.3791 -0.1804
 9269TIP3    H127771   2.040   1.664   0.996  1.8594 -0.6291 -0.0210
 9269TIP3    H227772   1.967   1.533   0.974 -0.0281  0.3613  0.2038
 9270TIP3   OH227773   2.503   1.262   0.782  0.0085  0.0735  0.4313
 9270TIP3    H127774   2.508   1.226   0.694  0.0011  2.2973 -0.5370
 9270TIP3    H227775   2.409   1.268   0.800  0.0039 -0.0434  0.4461
 9271TIP3   OH227776   6.406   3.531   1.899  0.4957  0.4073  0.1902
 9271TIP3    H127777   6.487   3.487   1.872  0.3842  1.4056 -1.9036
 9271TIP3    H227778   6.336   3.473   1.869  0.3905  0.4813  0.2898
 9272TIP3   OH227779   4.006   4.375   2.865  0.3938  0.3884 -0.6948
 9272TIP3    H127780   3.967   4.333   2.788 -0.8269 -0.0557  0.1222
 9272TIP3    H227781   4.038   4.460   2.834 -0.9608  0.6288 -1.4964
 9273TIP3   OH227782   4.973   1.265   2.297  0.0509 -0.2680  0.0795
 9273TIP3    H127783   4.997   1.238   2.386 -1.7830 -1.5439  0.2395
 9273TIP3    H227784   5.020   1.347   2.284  0.4139 -0.0747  2.2088
 9274TIP3   OH227785   1.828   0.969   3.301 -0.3337  0.4919  0.7540
 9274TIP3    H127786   1.848   0.948   3.210  1.3973 -0.7891  1.3766
 9274TIP3    H227787   1.756   1.033   3.296 -2.1695 -1.5695 -1.4083
 9275TIP3   OH227788   0.548   0.363   2.791 -0.2841  0.0842  0.1091
 9275TIP3    H127789   0.527   0.299   2.859  0.5493 -1.0291 -0.6390
 9275TIP3    H227790   0.496   0.335   2.715 -0.1096  0.4525 -0.1465
 9276TIP3   OH227791   7.167   3.122   2.210 -0.4813 -0.9495 -0.1534
 9276TIP3    H127792   7.190   3.215   2.223 -1.9979 -0.5241 -0.3575
 9276TIP3    H227793   7.169   3.110   2.115 -0.4855 -1.0746 -0.1367
 9277TIP3   OH227794   0.407   1.939   0.754 -0.5027  0.1472  0.2089
 9277TIP3    H127795   0.462   1.895   0.818  0.8994  0.4858 -0.6978
 9277TIP3    H227796   0.365   1.868   0.705 -2.1765 -0.1191  1.9043
 9278TIP3   OH227797   4.737   2.968   2.218  0.0664 -0.0070 -0.0972
 9278TIP3    H127798   4.792   3.020   2.158 -0.2366  0.9398  0.4293
 9278TIP3    H227799   4.727   2.884   2.174  2.3700 -0.4066  0.0105
 9279TIP3   OH227800   6.474   3.703   5.618  0.4176  0.2819 -0.3687
 9279TIP3    H127801   6.421   3.673   5.692  0.9066  0.2802 -0.0093
 9279TIP3    H227802   6.535   3.631   5.603 -0.2240 -0.0780 -1.3314
 9280TIP3   OH227803   7.061   6.232   2.081 -0.4608 -0.0387 -0.1399
 9280TIP3    H127804   7.003   6.163   2.048 -0.6805  0.5240 -0.9809
 9280TIP3    H227805   7.127   6.241   2.012 -1.0988  1.3826 -0.5919
 9281TIP3   OH227806   2.339   2.705   2.846 -0.1898  0.3797  0.0686
 9281TIP3    H127807   2.374   2.778   2.896 -0.0807  0.8576 -0.7026
 9281TIP3    H227808   2.372   2.627   2.891 -0.3813  0.7913  0.9442
 9282TIP3   OH227809   5.075   5.828   5.159  0.3236  0.5339 -0.1662
 9282TIP3    H127810   5.085   5.856   5.250 -0.3078  3.0045 -0.7633
 9282TIP3    H227811   4.985   5.854   5.136  0.1714 -0.8596 -1.2430
 9283TIP3   OH227812   5.904   1.283   0.656 -0.5505  0.2336  0.8574
 9283TIP3    H127813   5.914   1.192   0.682  0.7760 -0.0230 -0.4415
 9283TIP3    H227814   5.887   1.279   0.562 -0.5855  1.3283  0.8078
 9284TIP3   OH227815   7.169   3.590   2.437 -0.0946 -0.2171  0.3999
 9284TIP3    H127816   7.221   3.555   2.365  0.2976  1.7310 -0.3267
 9284TIP3    H227817   7.105   3.521   2.456  0.3276 -1.1203 -1.2427
 9285TIP3   OH227818   6.586   2.074   2.553 -0.7804  0.3654  0.2853
 9285TIP3    H127819   6.603   2.025   2.472  0.5000 -0.9951  1.3328
 9285TIP3    H227820   6.621   2.162   2.536  0.3197 -0.1753 -0.3186
 9286TIP3   OH227821   0.132   6.677   0.285 -0.2183 -0.1244 -0.5863
 9286TIP3    H127822   0.203   6.734   0.314 -1.0286  0.4395  0.3385
 9286TIP3    H227823   0.057   6.702   0.339 -0.0165 -3.7346  1.6530
 9287TIP3   OH227824   2.552   3.722   0.109  0.4819  0.1055 -0.8999
 9287TIP3    H127825   2.521   3.812   0.105  1.7557  0.6690  0.5975
 9287TIP3    H227826   2.617   3.723   0.179  0.8087 -1.9012 -1.1239
 9288TIP3   OH227827   0.933   6.731   3.221 -0.1304 -0.4091  0.2030
 9288TIP3    H127828   0.931   6.685   3.305  0.2788  1.8179  1.5036
 9288TIP3    H227829   0.891   6.815   3.239  0.6841  0.4325 -1.6297
 9289TIP3   OH227830   6.133   4.698   2.122  0.2007 -0.0593 -0.8890
 9289TIP3    H127831   6.095   4.663   2.042 -1.3442 -1.5865  0.4242
 9289TIP3    H227832   6.152   4.620   2.175 -0.2410  0.9465  0.8253
 9290TIP3   OH227833   4.396   6.634   2.400 -0.3930 -0.1042  0.1664
 9290TIP3    H127834   4.397   6.677   2.486 -0.6632 -0.6220  0.4382
 9290TIP3    H227835   4.353   6.697   2.342 -0.6778  0.0469  0.5348
 9291TIP3   OH227836   6.393   6.488   0.842  0.2099  0.2630 -0.7249
 9291TIP3    H127837   6.434   6.535   0.915  0.1925 -0.5701 -0.1507
 9291TIP3    H227838   6.462   6.429   0.811 -0.2850 -0.5879 -0.2647
 9292TIP3   OH227839   6.048   0.980   5.298  0.6065  0.1101  0.1525
 9292TIP3    H127840   6.023   0.905   5.244 -1.5019 -0.7393  2.1170
 9292TIP3    H227841   6.115   0.946   5.357  0.4071  0.0428  0.3439
 9293TIP3   OH227842   5.501   4.269   0.533 -0.6216 -0.1504  0.7564
 9293TIP3    H127843   5.536   4.236   0.451  1.7014  0.3023  1.4999
 9293TIP3    H227844   5.502   4.193   0.592 -2.0497 -0.4149  0.4747
 9294TIP3   OH227845   4.032   0.937   5.114  0.0353  0.3931 -0.6404
 9294TIP3    H127846   4.088   0.884   5.057  0.3011  0.2187 -0.2235
 9294TIP3    H227847   4.094   0.990   5.164 -0.0272 -1.1920  1.2393
 9295TIP3   OH227848   5.601   3.347   4.471  0.2143 -0.3288  0.3167
 9295TIP3    H127849   5.570   3.312   4.554 -1.0376 -1.2362 -0.4984
 9295TIP3    H227850   5.521   3.373   4.425  0.9093  0.4883 -0.4725
 9296TIP3   OH227851   4.290   2.423   0.291 -0.4333  0.0715 -0.4734
 9296TIP3    H127852   4.354   2.388   0.353  1.0980 -2.2575 -3.1453
 9296TIP3    H227853   4.313   2.516   0.283  1.3977 -0.3047  0.0463
 9297TIP3   OH227854   2.352   1.820   5.046  0.5168 -0.6038  0.0202
 9297TIP3    H127855   2.294   1.889   5.078  1.1535  0.2364 -0.6000
 9297TIP3    H227856   2.365   1.763   5.122  0.4115  0.2642  0.7054
 9298TIP3   OH227857   5.510   3.848   2.643 -0.6846  0.1918 -0.0646
 9298TIP3    H127858   5.554   3.898   2.712 -2.0917  2.2196 -0.5165
 9298TIP3    H227859   5.506   3.909   2.569  0.4738 -1.8087 -1.8716
 9299TIP3   OH227860   2.631   3.658   1.652 -0.5914 -0.2343 -0.1186
 9299TIP3    H127861   2.541   3.680   1.677 -0.2890 -0.9715  1.7122
 9299TIP3    H227862   2.676   3.640   1.734  1.0566 -0.6196 -1.0567
 9300TIP3   OH227863   2.146   1.608   4.829 -0.0945 -0.3929  0.1252
 9300TIP3    H127864   2.066   1.557   4.836 -0.8004  0.4978 -1.0544
 9300TIP3    H227865   2.192   1.592   4.911 -1.4288 -1.0113  0.7799
 9301TIP3   OH227866   0.054   2.576   4.388  0.4179 -0.6965 -0.4389
 9301TIP3    H127867   0.062   2.484   4.413 -0.7979 -0.9702 -0.9709
 9301TIP3    H227868  -0.040   2.593   4.387  0.6434  1.0654  1.3807
 9302TIP3   OH227869   5.674   1.425   3.169  0.5069  0.2365  0.4375
 9302TIP3    H127870   5.596   1.372   3.184  0.1565  0.7481  0.4756
 9302TIP3    H227871   5.641   1.506   3.130  1.1289  0.0344 -0.5559
 9303TIP3   OH227872   4.898   6.118   5.398  0.2683 -0.0977  0.7978
 9303TIP3    H127873   4.812   6.111   5.440 -0.3909  0.0486 -0.4497
 9303TIP3    H227874   4.917   6.212   5.398  0.1298 -0.0666  0.5395
 9304TIP3   OH227875   6.554   5.501   4.939  0.2651 -0.0462 -0.1290
 9304TIP3    H127876   6.567   5.462   4.853 -2.4115 -0.6502 -0.3552
 9304TIP3    H227877   6.643   5.521   4.971  1.3148  0.6672 -3.1834
 9305TIP3   OH227878   0.550   6.376   5.469 -0.3241  0.1549 -0.1268
 9305TIP3    H127879   0.466   6.422   5.468 -1.6767 -2.1427  0.4757
 9305TIP3    H227880   0.535   6.297   5.417  1.8943  0.3073 -1.1171
 9306TIP3   OH227881   1.336   2.489   0.149 -0.6037 -0.0501 -0.4170
 9306TIP3    H127882   1.293   2.506   0.233 -0.1936 -0.3508 -0.1439
 9306TIP3    H227883   1.358   2.576   0.115 -1.2486  0.0980 -0.4711
 9307TIP3   OH227884   2.026   3.078   4.740 -0.3992 -0.0615 -0.1470
 9307TIP3    H127885   1.993   3.107   4.825 -0.5334  1.2541 -0.6060
 9307TIP3    H227886   2.056   2.989   4.754  2.3643  1.0551  2.0309
 9308TIP3   OH227887   5.225   1.321   4.853  0.1237  0.1586  0.1467
 9308TIP3    H127888   5.238   1.349   4.944 -0.9623 -1.9697  1.0302
 9308TIP3    H227889   5.209   1.227   4.859 -0.1052 -0.0122 -2.2544
 9309TIP3   OH227890   0.702   3.286   0.441 -0.4508 -0.4297 -0.1413
 9309TIP3    H127891   0.706   3.381   0.425 -0.8448  0.0195  2.0770
 9309TIP3    H227892   0.693   3.279   0.536  0.5355 -2.7380 -0.1743
 9310TIP3   OH227893   1.012   3.074   4.448 -0.0311  0.3414  0.2447
 9310TIP3    H127894   1.007   3.024   4.529  1.1555  0.6595  0.5406
 9310TIP3    H227895   1.076   3.027   4.394  0.3615  0.9852  0.1327
 9311TIP3   OH227896   2.583   5.834   0.436 -0.1315  0.5481 -1.1200
 9311TIP3    H127897   2.546   5.921   0.448  0.9346  0.7125  1.4221
 9311TIP3    H227898   2.675   5.849   0.414 -0.0157  0.0779 -0.9715
 9312TIP3   OH227899   3.871   2.760   4.799  0.1796 -0.0587  0.1431
 9312TIP3    H127900   3.955   2.761   4.844 -0.8906  0.6387  2.2827
 9312TIP3    H227901   3.842   2.852   4.801  0.3829  0.1735 -2.7238
 9313TIP3   OH227902   4.318   4.094   5.690  0.0216  0.2021  0.5871
 9313TIP3    H127903   4.364   4.113   5.772 -0.3830 -1.1073  1.1553
 9313TIP3    H227904   4.356   4.154   5.626  1.3184  0.3136  1.4205
 9314TIP3   OH227905   2.857   5.972   3.286  0.2433 -0.0211  0.1627
 9314TIP3    H127906   2.804   5.990   3.208 -2.0794  0.8696  1.8302
 9314TIP3    H227907   2.947   5.966   3.254 -0.3382  2.6433 -2.2577
 9315TIP3   OH227908   6.655   3.514   3.264 -0.1069 -0.1359  0.2560
 9315TIP3    H127909   6.622   3.535   3.351  0.2498  0.9682  0.1496
 9315TIP3    H227910   6.713   3.588   3.242 -0.3846 -0.2692 -1.0097
 9316TIP3   OH227911   1.835   2.309   1.054 -0.0048  0.8554 -0.2391
 9316TIP3    H127912   1.767   2.259   1.007 -0.7832  1.7448 -0.0954
 9316TIP3    H227913   1.907   2.316   0.991 -0.3671  0.5809 -0.6911
 9317TIP3   OH227914   3.309   3.419   1.260  0.4472 -0.6695  0.1620
 9317TIP3    H127915   3.285   3.458   1.177  1.0196 -2.2240 -0.7800
 9317TIP3    H227916   3.359   3.487   1.305 -1.6491  0.9531  0.1990
 9318TIP3   OH227917   6.316   3.110   5.188  0.1190  0.1991  0.9629
 9318TIP3    H127918   6.342   3.119   5.097  2.7565  1.6372  1.7288
 9318TIP3    H227919   6.399   3.097   5.235 -1.2293 -1.4311  3.0820
 9319TIP3   OH227920   5.053   0.674   0.268  0.2465 -0.1352  0.4959
 9319TIP3    H127921   5.113   0.608   0.231 -0.0289  0.5914 -1.3893
 9319TIP3    H227922   5.108   0.752   0.280 -0.4369  0.9469 -2.4499
 9320TIP3   OH227923   6.440   2.381   0.263  0.5472  0.1429  0.2658
 9320TIP3    H127924   6.523   2.374   0.215  0.1829  0.8702 -0.4835
 9320TIP3    H227925   6.375   2.401   0.196 -0.0465  0.7590  1.0078
 9321TIP3   OH227926   1.245   2.871   4.834  0.0538 -0.1408  0.1165
 9321TIP3    H127927   1.257   2.794   4.888  0.4203  0.1760  0.4972
 9321TIP3    H227928   1.238   2.944   4.896 -0.2295  0.1418 -0.2350
 9322TIP3   OH227929   2.840   0.942   3.649  0.1446  0.1736 -0.2990
 9322TIP3    H127930   2.757   0.969   3.609  0.2756  0.8749 -0.1147
 9322TIP3    H227931   2.906   0.994   3.604  0.2484  1.4240  1.1758
 9323TIP3   OH227932   4.507   2.281   4.479 -0.2989  0.8579  0.3023
 9323TIP3    H127933   4.500   2.203   4.533 -2.2149  0.4361 -0.4793
 9323TIP3    H227934   4.471   2.255   4.395  4.5515  0.8069 -2.1143
 9324TIP3   OH227935   0.821   0.071   5.675 -0.1954  0.1278  0.0888
 9324TIP3    H127936   0.732   0.091   5.704 -0.4134  1.2122 -1.1990
 9324TIP3    H227937   0.809   0.034   5.587  0.6424  0.6408 -0.2502
 9325TIP3   OH227938   1.876   2.433   3.341  0.1217 -0.0936  0.0814
 9325TIP3    H127939   1.804   2.376   3.315  0.8722 -0.7863 -0.5566
 9325TIP3    H227940   1.846   2.477   3.420 -0.5457 -1.2576  0.4857
 9326TIP3   OH227941   2.565   6.190   5.253 -0.7311 -0.1224 -0.5827
 9326TIP3    H127942   2.507   6.232   5.316  1.2457 -0.4279  1.5689
 9326TIP3    H227943   2.653   6.206   5.286  0.2963 -2.3465 -1.9546
 9327TIP3   OH227944   3.151   5.600   4.422  1.1039  0.1251 -0.4924
 9327TIP3    H127945   3.146   5.517   4.374  1.7186 -0.3070  0.1715
 9327TIP3    H227946   3.183   5.575   4.509  1.3523  1.0644 -0.3084
 9328TIP3   OH227947   0.330   5.760   2.593 -0.1522 -0.0538  0.0815
 9328TIP3    H127948   0.282   5.818   2.652 -0.1748  0.9936 -0.9323
 9328TIP3    H227949   0.343   5.812   2.513 -0.3779 -1.5227 -0.9560
 9329TIP3   OH227950   4.121   3.076   1.412  0.0608 -0.0864  0.3796
 9329TIP3    H127951   4.094   2.985   1.429 -1.5573  0.5009  1.2014
 9329TIP3    H227952   4.207   3.083   1.454  0.3239 -1.2891  0.0945
 9330TIP3   OH227953   4.967   5.449   3.754  0.4318  0.0215 -0.3441
 9330TIP3    H127954   4.952   5.362   3.790  1.5986 -0.0883 -0.0938
 9330TIP3    H227955   4.886   5.469   3.706 -0.2370 -0.7739  0.4228
 9331TIP3   OH227956   5.429   5.645   4.522 -0.1240  0.4841  0.1553
 9331TIP3    H127957   5.335   5.644   4.538 -0.0353  2.3859  1.1728
 9331TIP3    H227958   5.439   5.696   4.442  0.0035 -0.7388 -0.6325
 9332TIP3   OH227959   7.219   1.209   0.480  0.0948 -0.1409  0.4795
 9332TIP3    H127960   7.210   1.136   0.419 -2.0052  0.3934  0.0917
 9332TIP3    H227961   7.175   1.179   0.560 -0.3821  0.5305  0.4710
 9333TIP3   OH227962   5.390   1.085   4.090 -0.5111  0.0368  0.1988
 9333TIP3    H127963   5.466   1.031   4.107 -0.6531 -0.2238  0.0221
 9333TIP3    H227964   5.353   1.103   4.176  0.2879  0.9640  0.3640
 9334TIP3   OH227965   4.569   5.751   2.420  0.1308  0.2971  0.0567
 9334TIP3    H127966   4.614   5.814   2.363  0.5352  0.3229  0.4019
 9334TIP3    H227967   4.477   5.776   2.414  0.2230  0.5864 -0.2291
 9335TIP3   OH227968   5.332   3.051   3.708 -0.2851  0.4409 -0.0506
 9335TIP3    H127969   5.300   3.118   3.647  0.0918  1.0113  0.3766
 9335TIP3    H227970   5.426   3.048   3.693 -0.3545 -0.3380 -0.4011
 9336TIP3   OH227971   0.553   5.688   1.170 -0.8089  0.2818 -0.1441
 9336TIP3    H127972   0.468   5.659   1.139 -1.8186  0.9624  1.8566
 9336TIP3    H227973   0.546   5.784   1.173 -0.3520  0.2896  1.0253
 9337TIP3   OH227974   0.377   1.461   1.747 -0.6415 -0.3996  0.4617
 9337TIP3    H127975   0.320   1.499   1.680 -0.1885  0.8979  0.7784
 9337TIP3    H227976   0.410   1.380   1.708 -0.1944  0.4524 -0.9901
 9338TIP3   OH227977   4.441   5.295   2.684  0.5573  0.7248 -0.0403
 9338TIP3    H127978   4.490   5.341   2.616 -1.3294  1.0658 -1.2630
 9338TIP3    H227979   4.349   5.316   2.665 -0.1519 -0.8558  1.3889
 9339TIP3   OH227980   2.978   2.775   2.478 -0.2102  0.1566 -0.0645
 9339TIP3    H127981   2.901   2.791   2.424 -0.3184 -1.1430 -0.3466
 9339TIP3    H227982   3.047   2.829   2.440 -1.6068  3.6825  1.9336
 9340TIP3   OH227983   3.504   2.225   4.787 -0.2106  0.1385  0.1119
 9340TIP3    H127984   3.449   2.233   4.709  0.4802 -0.1947 -0.4177
 9340TIP3    H227985   3.577   2.170   4.759 -0.8075 -1.4291  1.4696
 9341TIP3   OH227986   4.675   1.556   0.523 -0.5249 -0.0592 -0.0793
 9341TIP3    H127987   4.668   1.460   0.518  0.5741 -0.0962 -1.7430
 9341TIP3    H227988   4.652   1.577   0.614  2.0165 -2.1825  1.1970
 9342TIP3   OH227989   6.829   5.570   0.537 -0.2847 -0.3148  0.3978
 9342TIP3    H127990   6.844   5.617   0.620 -0.1047  0.4628 -0.0594
 9342TIP3    H227991   6.890   5.497   0.540 -1.8974 -1.6941  1.9808
 9343TIP3   OH227992   3.259   3.893   4.328  0.0500  0.1228  0.3993
 9343TIP3    H127993   3.266   3.962   4.394 -1.1853  0.1166  0.5487
 9343TIP3    H227994   3.165   3.881   4.315  0.2520  0.3973 -1.6614
 9344TIP3   OH227995   2.386   5.935   4.466  0.2530  0.1827 -0.2217
 9344TIP3    H127996   2.326   5.998   4.425 -1.1656 -0.0196  1.4295
 9344TIP3    H227997   2.438   5.988   4.526 -0.5369 -0.0871  0.7323
 9345TIP3   OH227998   1.774   4.166   5.869 -0.0743  0.6940  0.0278
 9345TIP3    H127999   1.798   4.193   5.781 -0.2663  1.8495  0.3079
 9345TIP3    H228000   1.690   4.209   5.885  1.2845  2.9556  1.7983
 9346TIP3   OH228001   1.172   4.020   3.742 -0.4540 -0.2336  0.0152
 9346TIP3    H128002   1.227   4.084   3.787  0.3899 -1.3446  0.6309
 9346TIP3    H228003   1.233   3.974   3.684 -0.3060 -2.6062  1.8951
 9347TIP3   OH228004   6.804   1.946   1.533 -0.4506  0.2280  0.1153
 9347TIP3    H128005   6.808   1.851   1.518  1.6525  0.4214 -0.8682
 9347TIP3    H228006   6.794   1.983   1.445 -0.8274  0.9527  0.4549
 9348TIP3   OH228007   1.730   6.533   2.133 -0.9864 -0.0066  0.5069
 9348TIP3    H128008   1.684   6.598   2.080 -1.2357  0.6713  1.5228
 9348TIP3    H228009   1.822   6.541   2.107 -1.4071 -1.5377 -1.7118
 9349TIP3   OH228010   1.450   0.345   0.501 -0.1196  0.1100 -0.2040
 9349TIP3    H128011   1.386   0.279   0.474  0.5383 -0.4213 -0.4737
 9349TIP3    H228012   1.398   0.410   0.548 -1.1574  0.5682 -1.8896
 9350TIP3   OH228013   2.358   6.009   5.219  0.0052 -0.6184 -0.3669
 9350TIP3    H128014   2.331   6.059   5.142 -1.1827 -0.8169 -0.0906
 9350TIP3    H228015   2.432   6.059   5.254 -0.8385  0.6957 -0.3777
 9351TIP3   OH228016   4.785   6.161   3.769 -0.6251 -0.2793  0.0182
 9351TIP3    H128017   4.737   6.146   3.687 -1.1907  2.1536 -0.1566
 9351TIP3    H228018   4.829   6.245   3.757 -0.4767  0.0049  2.1116
 9352TIP3   OH228019   2.900   5.714   4.852 -0.0286 -0.4205  0.2189
 9352TIP3    H128020   2.849   5.794   4.843 -1.0730 -1.2200 -1.4406
 9352TIP3    H228021   2.850   5.660   4.913 -0.7602 -0.8613 -0.7477
 9353TIP3   OH228022   5.792   0.676   3.414 -0.0734  0.8599  0.1394
 9353TIP3    H128023   5.746   0.734   3.353  0.1597  2.1236  1.1228
 9353TIP3    H228024   5.851   0.625   3.358  1.3437  3.1382 -0.6207
 9354TIP3   OH228025   0.045   1.493   1.652 -0.1778 -0.5601 -0.3240
 9354TIP3    H128026   0.058   1.581   1.617  0.8955 -0.7731 -0.4995
 9354TIP3    H228027  -0.049   1.476   1.640 -0.5389  0.8250  0.3849
 9355TIP3   OH228028   2.821   4.014   0.421  0.0245 -0.4857  0.0315
 9355TIP3    H128029   2.870   4.023   0.340  0.8317  1.1698  0.6669
 9355TIP3    H228030   2.803   4.104   0.449 -2.0278 -1.0278  0.6478
 9356TIP3   OH228031   4.617   0.960   1.948 -0.1271  0.1508  0.0150
 9356TIP3    H128032   4.526   0.986   1.959 -0.7907 -1.4390 -1.2057
 9356TIP3    H228033   4.614   0.864   1.942  1.8818 -0.1308  2.0732
 9357TIP3   OH228034   2.625   4.366   2.919  0.1615  0.1062 -0.0263
 9357TIP3    H128035   2.689   4.397   2.855 -0.8820  0.2008 -1.0547
 9357TIP3    H228036   2.647   4.274   2.933  0.5218  0.1367 -0.3807
 9358TIP3   OH228037   4.064   6.474   2.022 -0.0107 -0.2045 -0.1284
 9358TIP3    H128038   4.021   6.511   1.945 -0.8835  0.3086  0.6006
 9358TIP3    H228039   4.087   6.384   1.995 -0.3638 -0.0559 -0.9526
 9359TIP3   OH228040   3.766   6.285   0.854  0.0641  0.5325  0.3726
 9359TIP3    H128041   3.749   6.243   0.938  1.3817  0.4889  0.6430
 9359TIP3    H228042   3.682   6.282   0.808 -0.9195  1.3512  2.0144
 9360TIP3   OH228043   2.648   3.255   2.075 -0.3663 -0.1810 -0.0608
 9360TIP3    H128044   2.673   3.245   2.166 -1.4002  0.2934  0.2961
 9360TIP3    H228045   2.688   3.181   2.030  0.9501  0.1047  0.5985
 9361TIP3   OH228046   7.147   4.009   0.676 -0.5186  0.1738 -0.2665
 9361TIP3    H128047   7.201   3.953   0.731 -0.6569  0.6147  0.3175
 9361TIP3    H228048   7.105   3.948   0.615 -1.4114 -0.4878  0.9707
 9362TIP3   OH228049   3.757   4.613   1.481 -0.3798  0.4888 -0.4893
 9362TIP3    H128050   3.684   4.561   1.447 -0.4113  0.6932 -0.7364
 9362TIP3    H228051   3.756   4.693   1.429 -0.7511  1.0378  0.3449
 9363TIP3   OH228052   2.319   3.340   0.856 -0.0823 -0.7421  0.2071
 9363TIP3    H128053   2.373   3.268   0.888  1.4966  0.0467 -0.5934
 9363TIP3    H228054   2.264   3.301   0.788  0.3263 -1.3178  0.2038
 9364TIP3   OH228055   6.729   0.522   3.194 -0.2904  0.1850 -0.4204
 9364TIP3    H128056   6.784   0.518   3.115 -0.7111 -1.0888 -0.6841
 9364TIP3    H228057   6.750   0.606   3.234 -1.4910  1.7820 -2.9334
 9365TIP3   OH228058   5.102   5.694   0.563  0.4829  0.1314  0.4224
 9365TIP3    H128059   5.101   5.617   0.506  1.8612 -0.3099  0.9584
 9365TIP3    H228060   5.026   5.745   0.535 -1.2834 -2.0574  0.9325
 9366TIP3   OH228061   7.151   1.318   4.019 -0.0371  0.0295 -0.7961
 9366TIP3    H128062   7.059   1.294   4.020 -0.0673  0.0637 -2.0244
 9366TIP3    H228063   7.161   1.374   3.942  0.8013  0.8789 -0.0998
 9367TIP3   OH228064   5.151   2.534   3.964  0.4078  0.1654  0.0686
 9367TIP3    H128065   5.097   2.612   3.953  0.1168 -0.0039  0.2828
 9367TIP3    H228066   5.154   2.519   4.058 -0.4387 -0.6948 -0.0173
 9368TIP3   OH228067   2.510   4.495   0.718 -0.0026 -0.2619 -0.6802
 9368TIP3    H128068   2.515   4.533   0.630  0.9363  0.8293 -0.1954
 9368TIP3    H228069   2.593   4.448   0.729  1.0831  1.7460  0.4902
 9369TIP3   OH228070   4.714   6.581   4.974  0.0145  0.6561  0.2492
 9369TIP3    H128071   4.729   6.580   4.879 -0.3222 -2.1566  0.1435
 9369TIP3    H228072   4.780   6.641   5.008  0.7736  1.0013 -1.6691
 9370TIP3   OH228073   2.381   0.993   5.859  0.1020  0.4965 -0.9710
 9370TIP3    H128074   2.423   1.038   5.933  1.1931 -1.8575 -0.0326
 9370TIP3    H228075   2.444   0.925   5.834 -2.7697 -2.8836  0.1039
 9371TIP3   OH228076   3.301   1.381   0.058 -0.4113 -0.1931  0.6257
 9371TIP3    H128077   3.309   1.462   0.008  1.1387 -0.0686  1.0126
 9371TIP3    H228078   3.326   1.312  -0.003 -1.2819 -0.3393  0.4282
 9372TIP3   OH228079   0.616   1.960   4.715 -0.1054 -0.3448 -0.0745
 9372TIP3    H128080   0.540   1.936   4.766 -0.2825 -0.0970 -0.2177
 9372TIP3    H228081   0.603   2.053   4.695  0.0059 -0.4134 -0.4835
 9373TIP3   OH228082   1.235   1.761   1.543  0.3973 -0.3529  0.0771
 9373TIP3    H128083   1.241   1.830   1.609  0.2557  0.2935 -0.5747
 9373TIP3    H228084   1.145   1.767   1.510 -0.1832 -1.9987  1.2276
 9374TIP3   OH228085  -0.004   2.006   2.405 -0.3320  0.0909 -0.0677
 9374TIP3    H128086   0.087   1.997   2.431 -0.6511 -1.3094  0.6794
 9374TIP3    H228087  -0.004   1.990   2.310  0.2491  0.5626 -0.1485
 9375TIP3   OH228088   3.274   4.090   4.517  0.5358  0.7547 -0.6849
 9375TIP3    H128089   3.327   4.166   4.542 -0.1543  1.2412 -0.6710
 9375TIP3    H228090   3.197   4.127   4.473 -0.8523  0.2113  1.1464
 9376TIP3   OH228091   3.028   0.168   1.387  0.2047 -0.6108 -0.0808
 9376TIP3    H128092   3.065   0.080   1.373  1.5601 -0.1664  0.5431
 9376TIP3    H228093   3.101   0.219   1.423 -0.8824  0.4788  0.6309
 9377TIP3   OH228094   3.468   4.349   1.007  0.0104 -0.5018 -0.3670
 9377TIP3    H128095   3.529   4.317   0.941  0.0370  1.1331 -1.1551
 9377TIP3    H228096   3.402   4.279   1.013  1.1321 -1.6256 -0.5526
 9378TIP3   OH228097   4.637   2.602   2.394  0.6831 -0.2461 -0.1484
 9378TIP3    H128098   4.661   2.575   2.305  1.9892 -4.2371  1.1898
 9378TIP3    H228099   4.567   2.541   2.418 -3.1575  3.7296  0.1610
 9379TIP3   OH228100   2.132   1.300   0.963  0.3525 -0.3171 -0.0124
 9379TIP3    H128101   2.208   1.352   0.937 -1.7210  3.3214  0.4332
 9379TIP3    H228102   2.077   1.298   0.885  0.3695 -1.9133  0.0015
 9380TIP3   OH228103   5.986   4.599   1.916  0.2186  0.6257  0.1487
 9380TIP3    H128104   5.931   4.590   1.838 -0.4664 -1.1201  0.7842
 9380TIP3    H228105   5.926   4.628   1.985  0.0221 -1.3200  0.8573
 9381TIP3   OH228106   6.577   2.802   5.559  0.4671  0.2067 -0.1261
 9381TIP3    H128107   6.661   2.843   5.582 -0.4911  1.1082  2.0684
 9381TIP3    H228108   6.555   2.748   5.634  0.0023 -1.6660 -1.5328
 9382TIP3   OH228109   3.425   0.963   0.527  0.2389 -0.1295 -0.3206
 9382TIP3    H128110   3.421   0.905   0.451  0.7825  0.5686 -0.8929
 9382TIP3    H228111   3.334   0.982   0.547  0.0906  1.0308 -1.8722
 9383TIP3   OH228112   0.609   3.078   0.265 -0.2084  0.0482 -0.4410
 9383TIP3    H128113   0.514   3.076   0.279  0.0610 -1.5233  1.5057
 9383TIP3    H228114   0.644   3.129   0.338  0.5048  0.2006 -0.8750
 9384TIP3   OH228115   2.206   3.624   0.676  0.2167  0.6599 -0.2125
 9384TIP3    H128116   2.218   3.718   0.662 -0.0488  0.9570  1.3907
 9384TIP3    H228117   2.132   3.618   0.736 -0.0873 -0.6121 -0.6924
 9385TIP3   OH228118   3.734   4.198   3.592 -0.3663 -0.2892  0.0865
 9385TIP3    H128119   3.704   4.139   3.522  1.6716  0.3056 -1.3933
 9385TIP3    H228120   3.823   4.169   3.611 -0.0759  1.0046  0.8219
 9386TIP3   OH228121   6.646   1.930  -0.018  0.4330  0.5165  0.2150
 9386TIP3    H128122   6.640   1.958   0.073 -0.1478  1.3725 -0.0639
 9386TIP3    H228123   6.592   1.851  -0.023  0.3216  0.5703  0.5724
 9387TIP3   OH228124   0.696   3.246   2.238  0.0171  0.5101  0.8552
 9387TIP3    H128125   0.789   3.227   2.245 -0.1305 -0.9599 -0.3529
 9387TIP3    H228126   0.691   3.338   2.212  1.0773  0.8268  1.7312
 9388TIP3   OH228127   2.064   4.065   4.046 -0.0434 -0.1073 -0.2984
 9388TIP3    H128128   1.998   4.063   3.977 -1.5437 -0.8795  1.0822
 9388TIP3    H228129   2.064   4.156   4.076 -0.2710 -0.0407 -0.4938
 9389TIP3   OH228130   1.268   3.196   2.688 -0.3858 -0.6559 -0.0277
 9389TIP3    H128131   1.249   3.173   2.778  0.7620  0.1297  0.4425
 9389TIP3    H228132   1.314   3.280   2.694 -0.7930 -0.3120 -1.3764
 9390TIP3   OH228133   4.004   5.096   4.150  0.2201 -0.6567 -0.4630
 9390TIP3    H128134   3.995   5.191   4.152  0.0902 -0.6862  1.3074
 9390TIP3    H228135   3.931   5.063   4.203  0.0039 -1.7824 -1.4001
 9391TIP3   OH228136   6.147   6.806   5.655 -0.2875 -0.0621  0.5102
 9391TIP3    H128137   6.182   6.859   5.583 -2.5599 -0.1177 -0.7090
 9391TIP3    H228138   6.129   6.721   5.615 -0.0023 -0.6357  1.5862
 9392TIP3   OH228139   1.781   4.150   4.917  0.5115  0.3116  0.0172
 9392TIP3    H128140   1.759   4.057   4.912 -0.2316  0.5031 -0.3688
 9392TIP3    H228141   1.765   4.173   5.008  1.0388 -0.0195  0.1973
 9393TIP3   OH228142   3.986   3.010   2.229  0.4028 -0.7667  0.0212
 9393TIP3    H128143   3.983   2.987   2.136  2.0126 -1.4035  0.0934
 9393TIP3    H228144   3.902   3.051   2.246  0.4082  0.1687 -1.9323
 9394TIP3   OH228145   4.024   3.465   3.360  0.1530 -0.2675  0.2417
 9394TIP3    H128146   4.044   3.552   3.395  0.4828 -0.5796  0.8371
 9394TIP3    H228147   4.062   3.466   3.272 -2.5447  1.2672 -0.9991
 9395TIP3   OH228148   1.722   1.791   3.882  0.2295 -0.6060 -0.1506
 9395TIP3    H128149   1.691   1.833   3.963 -1.4851 -0.3075 -0.9219
 9395TIP3    H228150   1.794   1.735   3.910  0.4010  0.3335  1.4144
 9396TIP3   OH228151   1.874   3.066   1.975  0.4295 -0.4154 -0.3079
 9396TIP3    H128152   1.801   3.088   2.032  0.1398  0.9710 -1.1773
 9396TIP3    H228153   1.949   3.058   2.034 -0.1754 -0.6811  0.4456
 9397TIP3   OH228154   3.028   4.977   3.847  0.6850 -0.5588 -0.0641
 9397TIP3    H128155   3.041   4.911   3.915 -0.9069  0.4059  1.2558
 9397TIP3    H228156   3.111   5.026   3.845  0.7089 -0.5051  1.3166
 9398TIP3   OH228157   3.822   4.299   2.011 -0.2707  0.0064 -0.3523
 9398TIP3    H128158   3.778   4.384   2.003  1.2433  0.7920 -0.7730
 9398TIP3    H228159   3.871   4.290   1.929  1.0945 -0.3637  0.4793
 9399TIP3   OH228160   6.465   4.419   2.207 -0.1001  0.4275  0.5178
 9399TIP3    H128161   6.394   4.356   2.199 -0.0703  0.4484  0.0928
 9399TIP3    H228162   6.493   4.436   2.117  1.2801 -0.5471  0.7215
 9400TIP3   OH228163   3.977   6.119   0.777  0.4572 -0.0063 -0.3898
 9400TIP3    H128164   3.910   6.183   0.802  0.4132  0.0545 -0.6627
 9400TIP3    H228165   4.056   6.148   0.822  0.6688  0.7589 -1.2216
 9401TIP3   OH228166   7.210   0.216   4.039  0.1452  0.3342  0.2335
 9401TIP3    H128167   7.116   0.204   4.028 -0.0415  0.9765  0.9961
 9401TIP3    H228168   7.248   0.185   3.957 -0.4543 -2.9383  1.0681
 9402TIP3   OH228169   4.465   4.613   3.759 -0.1763 -0.0513 -0.5972
 9402TIP3    H128170   4.457   4.626   3.665 -1.1924 -1.5950 -0.7571
 9402TIP3    H228171   4.399   4.671   3.797  1.3695  1.8547 -0.6784
 9403TIP3   OH228172   1.557   0.287   1.503  0.1190  0.0054 -0.2702
 9403TIP3    H128173   1.582   0.202   1.466  1.0145  0.1987 -0.1271
 9403TIP3    H228174   1.625   0.306   1.568 -0.3121  0.6367  0.0077
 9404TIP3   OH228175   1.463   3.784   5.154  0.4656 -0.2046 -0.3267
 9404TIP3    H128176   1.390   3.735   5.193 -0.4776  0.6699 -0.9597
 9404TIP3    H228177   1.511   3.818   5.230 -0.0982 -0.3306  0.0989
 9405TIP3   OH228178   4.187   0.452   3.060 -0.3460  0.3869 -0.3218
 9405TIP3    H128179   4.233   0.471   2.978 -0.6029  0.4190 -0.4620
 9405TIP3    H228180   4.253   0.461   3.128  0.8602 -3.2452 -0.7997
 9406TIP3   OH228181   0.322   2.223   5.439 -0.4841 -0.1201 -0.3018
 9406TIP3    H128182   0.261   2.196   5.508 -1.7173 -1.0985 -1.7012
 9406TIP3    H228183   0.342   2.143   5.391  1.8186  0.2143 -0.0019
 9407TIP3   OH228184   5.012   0.606   4.631 -0.1462  0.0462 -0.2986
 9407TIP3    H128185   5.091   0.638   4.675  0.6792 -0.7295 -1.1862
 9407TIP3    H228186   4.942   0.662   4.666  1.0558  2.0567 -0.8959
 9408TIP3   OH228187   3.931   4.051   4.161  0.2055 -0.1102  0.1531
 9408TIP3    H128188   3.920   3.968   4.209 -2.3127 -0.2394 -0.5417
 9408TIP3    H228189   3.878   4.040   4.082  0.8180  1.7322 -0.5532
 9409TIP3   OH228190   4.885   2.356   5.837 -0.0992 -0.3401 -0.1469
 9409TIP3    H128191   4.911   2.300   5.910  1.7208  1.7635  0.9387
 9409TIP3    H228192   4.801   2.320   5.808  0.8256 -3.4583  0.5728
 9410TIP3   OH228193   5.833   6.075   2.001  0.3700 -0.0027 -0.1403
 9410TIP3    H128194   5.809   6.001   2.056 -0.7216 -0.1304 -0.7463
 9410TIP3    H228195   5.895   6.125   2.054  0.6594 -1.0202  0.5130
 9411TIP3   OH228196   1.644   1.619   4.581  0.3690 -0.0638 -0.3655
 9411TIP3    H128197   1.736   1.601   4.601  0.4099  2.3769  2.1080
 9411TIP3    H228198   1.639   1.714   4.576 -1.9404 -0.1814 -0.9850
 9412TIP3   OH228199   3.740   2.469   4.437 -0.2630 -0.1069  0.6591
 9412TIP3    H128200   3.830   2.445   4.459 -0.3259 -0.9265  0.1037
 9412TIP3    H228201   3.707   2.514   4.514  0.0170 -1.4987  1.6248
 9413TIP3   OH228202   5.451   0.819   3.405  0.3276 -0.6130  0.4002
 9413TIP3    H128203   5.430   0.818   3.498  0.2223 -1.4992  0.3718
 9413TIP3    H228204   5.428   0.731   3.374  1.2676 -0.6396 -0.2596
 9414TIP3   OH228205   3.693   1.553   0.076  0.5852  0.3901 -0.1623
 9414TIP3    H128206   3.639   1.491   0.026  0.4090  0.6471 -0.2919
 9414TIP3    H228207   3.632   1.618   0.108  0.7549  0.4329  0.0749
 9415TIP3   OH228208   6.248   2.402   2.564 -0.1532 -0.5305  0.3633
 9415TIP3    H128209   6.289   2.359   2.488 -0.8156 -0.5336 -0.0059
 9415TIP3    H228210   6.200   2.331   2.607 -0.5904 -0.3320  0.2108
 9416TIP3   OH228211   4.426   0.007   2.007 -0.1534  0.4530 -0.0896
 9416TIP3    H128212   4.481   0.083   1.993 -0.5665  0.4654 -1.9045
 9416TIP3    H228213   4.338   0.036   1.984 -0.5674 -0.1589  0.6752
 9417TIP3   OH228214   2.492   5.689   2.608  0.3462  0.1478  0.1562
 9417TIP3    H128215   2.528   5.615   2.559  0.1167  0.5965 -0.7079
 9417TIP3    H228216   2.552   5.700   2.682  0.1874 -1.1149  0.4955
 9418TIP3   OH228217   2.401   4.047   2.169  0.2979 -0.6815  0.1592
 9418TIP3    H128218   2.332   3.991   2.205  0.0478  0.0405  0.8388
 9418TIP3    H228219   2.356   4.128   2.145  1.0995  0.3679  1.9612
 9419TIP3   OH228220   4.108   4.022   5.854 -0.1447 -0.3966 -0.0998
 9419TIP3    H128221   4.148   3.950   5.903 -0.2984 -1.2218 -1.1572
 9419TIP3    H228222   4.177   4.052   5.794  0.0147  0.5448  0.5331
 9420TIP3   OH228223   0.453   0.489   4.548 -0.9779 -0.1741  0.3431
 9420TIP3    H128224   0.461   0.470   4.642  0.9519 -0.8740  0.0651
 9420TIP3    H228225   0.518   0.433   4.506 -2.4191 -0.5521 -1.5328
 9421TIP3   OH228226   5.621   6.771   5.409 -0.0627 -0.3601 -0.0368
 9421TIP3    H128227   5.625   6.830   5.333 -0.3426  0.1930  0.3751
 9421TIP3    H228228   5.698   6.715   5.399 -0.7591 -1.1288 -1.4136
 9422TIP3   OH228229   1.154   6.556   2.300  0.5937  0.0964  0.0518
 9422TIP3    H128230   1.218   6.507   2.248  0.1408 -2.1941  1.5127
 9422TIP3    H228231   1.179   6.538   2.391 -1.5727 -0.1261  0.6465
 9423TIP3   OH228232   0.503   4.357   3.782  0.1567  0.0738 -0.0995
 9423TIP3    H128233   0.546   4.390   3.702 -0.6916  0.1885 -0.5126
 9423TIP3    H228234   0.576   4.340   3.841  0.9535 -1.7028 -1.4991
 9424TIP3   OH228235   0.606   5.223   5.203 -0.5739  0.5554 -0.2855
 9424TIP3    H128236   0.548   5.186   5.137 -1.1737  0.9787 -0.0026
 9424TIP3    H228237   0.694   5.207   5.169 -0.7950 -1.1069 -0.1793
 9425TIP3   OH228238   2.864   2.840   1.033 -0.6534 -0.1888 -0.3014
 9425TIP3    H128239   2.909   2.758   1.014  0.7018  0.4702 -0.0723
 9425TIP3    H228240   2.776   2.827   0.999 -0.7188 -2.0319  0.4691
 9426TIP3   OH228241   3.009   1.550   4.083  0.0800 -0.1000  0.3175
 9426TIP3    H128242   3.016   1.614   4.012 -1.0394 -0.7109 -0.3795
 9426TIP3    H228243   2.920   1.559   4.114  0.4958 -0.0092  1.5159
 9427TIP3   OH228244   3.158   1.126   1.438  0.1184 -0.8006  0.1582
 9427TIP3    H128245   3.106   1.046   1.434  1.3125 -1.6848  1.5858
 9427TIP3    H228246   3.093   1.196   1.446 -0.8887 -1.7628  0.6089
 9428TIP3   OH228247   5.116   5.372   1.087 -0.3565 -0.4417  0.4482
 9428TIP3    H128248   5.080   5.299   1.138  0.3197 -2.2152 -1.4666
 9428TIP3    H228249   5.130   5.335   1.000  0.9874  1.7179 -0.3191
 9429TIP3   OH228250   1.299   0.996   0.512  0.1293  0.0699 -0.4920
 9429TIP3    H128251   1.248   1.048   0.450  2.3064 -0.7923 -3.2219
 9429TIP3    H228252   1.300   0.907   0.474  3.2051 -0.0416 -0.4500
 9430TIP3   OH228253   5.072   0.113   2.289  0.4628  0.2919  0.2299
 9430TIP3    H128254   4.979   0.136   2.294 -0.3951 -2.5975 -0.5014
 9430TIP3    H228255   5.087   0.097   2.196  1.7173  0.7079  0.3460
 9431TIP3   OH228256   2.194   5.428   3.588  0.4538  0.2495  0.0509
 9431TIP3    H128257   2.275   5.401   3.632  2.4164  0.6863 -3.0179
 9431TIP3    H228258   2.154   5.347   3.559 -0.3497  0.0279  1.6251
 9432TIP3   OH228259   1.518   2.656   3.571 -0.0088  0.1065 -0.1399
 9432TIP3    H128260   1.498   2.669   3.664 -0.0351 -1.9749  0.2007
 9432TIP3    H228261   1.433   2.652   3.528  0.0194  2.2947 -0.4967
 9433TIP3   OH228262   5.053   2.665   5.300 -0.6797  0.1661 -0.3172
 9433TIP3    H128263   5.089   2.751   5.279 -0.2530  0.1175  0.1873
 9433TIP3    H228264   5.115   2.603   5.261 -1.3674  0.0813 -1.3020
 9434TIP3   OH228265   7.181   4.692   1.947  0.4590 -0.2889 -0.4826
 9434TIP3    H128266   7.229   4.609   1.951  2.7781  0.9020 -1.4140
 9434TIP3    H228267   7.162   4.704   1.853  3.0498  1.6468 -0.8908
 9435TIP3   OH228268   6.371   5.945   0.695 -0.1019  0.8051  0.6687
 9435TIP3    H128269   6.370   5.987   0.780 -0.9339 -0.1592  1.1574
 9435TIP3    H228270   6.293   5.978   0.650  0.3762  1.3722  0.2369
 9436TIP3   OH228271   4.770   4.635   1.140  0.5260  0.3074 -0.3955
 9436TIP3    H128272   4.723   4.719   1.145  1.5259  0.9498 -1.2134
 9436TIP3    H228273   4.800   4.619   1.229 -0.2567  0.4614 -0.0927
 9437TIP3   OH228274   0.530   6.801   0.820 -0.0522 -0.2763 -0.2538
 9437TIP3    H128275   0.603   6.812   0.882 -0.3956 -0.4157  0.1826
 9437TIP3    H228276   0.515   6.707   0.817 -0.7546 -0.1881  0.2968
 9438TIP3   OH228277   2.560   5.989   3.705  0.2622 -0.3887 -0.6337
 9438TIP3    H128278   2.509   6.069   3.711 -0.4739 -0.8486 -0.6214
 9438TIP3    H228279   2.579   5.979   3.612  1.6262  0.5622 -0.4900
 9439TIP3   OH228280   0.035   6.278   1.884 -0.3373  0.2577  0.5060
 9439TIP3    H128281   0.052   6.242   1.797 -0.6077  0.5925  0.3120
 9439TIP3    H228282   0.108   6.248   1.938 -1.1162 -1.5454  0.6465
 9440TIP3   OH228283   3.990   6.147   3.960  0.1991 -0.3527 -0.0438
 9440TIP3    H128284   3.946   6.232   3.949 -0.8959 -0.9969 -0.8713
 9440TIP3    H228285   4.016   6.122   3.871  0.2349 -1.0361  0.1557
 9441TIP3   OH228286   1.889   3.517   5.038 -0.3830  0.3512  0.0014
 9441TIP3    H128287   1.908   3.589   5.099 -1.1843  1.5114 -1.0603
 9441TIP3    H228288   1.794   3.504   5.046 -0.4031  0.1355 -0.5888
 9442TIP3   OH228289   4.461   4.757   4.085 -0.3595 -0.0627  0.0635
 9442TIP3    H128290   4.407   4.685   4.116 -0.2512 -0.3581 -0.4234
 9442TIP3    H228291   4.426   4.834   4.129 -1.8891 -0.0721 -1.0918
 9443TIP3   OH228292   0.204   5.217   4.689  0.4813 -0.0054 -0.5336
 9443TIP3    H128293   0.294   5.207   4.657  0.2342  1.2816 -1.6628
 9443TIP3    H228294   0.200   5.156   4.763  2.3028 -0.0486 -0.4032
 9444TIP3   OH228295   3.203   5.937   1.054 -0.4486  0.0010  0.4613
 9444TIP3    H128296   3.256   5.986   1.117  0.7387 -1.8607  0.9972
 9444TIP3    H228297   3.124   5.989   1.043  0.8497  2.1523  0.7587
 9445TIP3   OH228298   5.435   4.474   4.524 -0.4030  0.7265 -0.6324
 9445TIP3    H128299   5.374   4.428   4.581 -3.0305  0.7756 -3.1802
 9445TIP3    H228300   5.384   4.495   4.446  2.8893  0.8787 -2.9496
 9446TIP3   OH228301   2.529   5.505   1.129 -0.3322 -0.0554  0.0128
 9446TIP3    H128302   2.580   5.446   1.074 -0.1470  1.4203 -1.4547
 9446TIP3    H228303   2.494   5.448   1.198  0.6539 -1.6801 -0.7644
 9447TIP3   OH228304   1.855   3.983   4.510  0.6285  0.3218 -0.1518
 9447TIP3    H128305   1.884   3.892   4.525 -0.6366 -0.1285 -0.3650
 9447TIP3    H228306   1.932   4.036   4.534  1.2006 -0.7635  0.5354
 9448TIP3   OH228307   3.340   2.238   4.570  0.4417 -0.0340 -0.9061
 9448TIP3    H128308   3.257   2.241   4.616  0.9385 -0.7504  0.0509
 9448TIP3    H228309   3.319   2.268   4.481 -0.9805 -0.9813 -0.9080
 9449TIP3   OH228310   5.337   0.115   1.833 -0.3521  0.4972 -0.1106
 9449TIP3    H128311   5.321   0.082   1.745  1.3918  0.1948 -0.3502
 9449TIP3    H228312   5.324   0.210   1.825 -0.9069  0.3955 -0.5093
 9450TIP3   OH228313   3.852   0.980   1.517  0.9073 -0.2790 -0.7693
 9450TIP3    H128314   3.818   1.069   1.508  1.0282 -0.1358  0.1160
 9450TIP3    H228315   3.790   0.936   1.575  0.5608 -0.9398 -1.6226
 9451TIP3   OH228316   3.325   4.597   0.371  0.0487  0.0398 -0.3011
 9451TIP3    H128317   3.299   4.533   0.437  1.3428  0.8555  1.0730
 9451TIP3    H228318   3.248   4.652   0.358 -0.0959  0.1265  0.8737
 9452TIP3   OH228319   2.158   5.745   1.283  0.5847 -0.2196 -0.1322
 9452TIP3    H128320   2.219   5.732   1.210  0.7810  0.5316 -0.1153
 9452TIP3    H228321   2.115   5.828   1.263 -0.4991 -0.7686 -0.1840
 9453TIP3   OH228322   2.086   4.864   0.091  0.2103 -0.2913 -0.0722
 9453TIP3    H128323   2.022   4.807   0.134  1.0092  0.4670  2.2497
 9453TIP3    H228324   2.171   4.831   0.119  0.7160  1.4723  0.6156
 9454TIP3   OH228325   6.944   5.180   0.414  0.1796 -0.4182  0.2585
 9454TIP3    H128326   6.987   5.245   0.470 -0.3467 -0.3296  0.5658
 9454TIP3    H228327   6.991   5.099   0.429  0.8217 -0.1204 -0.0989
 9455TIP3   OH228328   1.930   2.615   4.832  0.2207  0.5856 -0.2127
 9455TIP3    H128329   1.868   2.595   4.762 -0.0149  0.8225 -0.0736
 9455TIP3    H228330   2.011   2.640   4.786 -0.0713  1.1971 -0.4106
 9456TIP3   OH228331   5.957   2.400   3.401 -0.2116 -0.3189  0.4504
 9456TIP3    H128332   5.878   2.363   3.362  0.1716 -0.1211 -0.5202
 9456TIP3    H228333   6.010   2.324   3.426 -1.3327 -0.5036  2.4797
 9457TIP3   OH228334   3.108   1.560   1.432 -0.0723  0.0592  0.0041
 9457TIP3    H128335   3.180   1.498   1.418  0.4885  1.0685 -1.9790
 9457TIP3    H228336   3.050   1.545   1.358 -1.4694 -0.0895  1.0917
 9458TIP3   OH228337   6.536   1.668   4.567  0.7230 -0.6670 -0.3657
 9458TIP3    H128338   6.536   1.599   4.634 -2.1477  0.0735  0.5512
 9458TIP3    H228339   6.504   1.626   4.488  2.1627 -1.0695 -0.7730
 9459TIP3   OH228340   6.915   3.606   3.164 -0.2052 -0.4360 -0.2897
 9459TIP3    H128341   6.929   3.556   3.083 -1.2536 -0.3173 -0.5648
 9459TIP3    H228342   6.942   3.695   3.142  1.5106 -0.8066  0.1514
 9460TIP3   OH228343   2.950   1.242   3.326  0.2701  0.2740 -0.2905
 9460TIP3    H128344   2.882   1.194   3.279 -2.3371  2.1541  1.2820
 9460TIP3    H228345   2.984   1.304   3.262 -1.3667  1.0276 -0.4942
 9461TIP3   OH228346   5.667   4.391   5.547  0.2412  0.0534 -0.6121
 9461TIP3    H128347   5.674   4.484   5.524  1.3340  0.3579  0.8576
 9461TIP3    H228348   5.749   4.352   5.517 -0.3549 -0.5466 -1.5422
 9462TIP3   OH228349   6.224   6.219   5.605  0.1538  0.0636 -0.0285
 9462TIP3    H128350   6.307   6.251   5.642  0.7179 -0.2553 -0.9963
 9462TIP3    H228351   6.241   6.211   5.511 -0.2323 -2.2162  0.0496
 9463TIP3   OH228352   6.833   5.763   0.285  0.1454  0.6057 -0.3069
 9463TIP3    H128353   6.811   5.698   0.352  1.0964  2.5380  2.0206
 9463TIP3    H228354   6.912   5.728   0.243  1.3954  0.7421  1.7722
 9464TIP3   OH228355   1.760   4.979   3.576  0.2461  0.2732 -0.1189
 9464TIP3    H128356   1.826   4.909   3.577 -0.7578 -0.7082 -0.7354
 9464TIP3    H228357   1.679   4.935   3.603 -0.1768  1.4606  0.6171
 9465TIP3   OH228358   1.921   5.218   4.611  0.1057  0.6183 -0.2810
 9465TIP3    H128359   1.999   5.215   4.666 -0.6274  0.2651  0.7623
 9465TIP3    H228360   1.947   5.174   4.530  1.8012  2.8699 -1.0593
 9466TIP3   OH228361   3.045   3.631   5.124 -0.1929 -0.2041 -0.1664
 9466TIP3    H128362   3.135   3.598   5.127 -0.4645 -0.9063  0.3707
 9466TIP3    H228363   3.056   3.726   5.121  0.5816 -0.3023 -1.2386
 9467TIP3   OH228364   3.182   1.300   5.714  0.0362 -0.4105  0.1511
 9467TIP3    H128365   3.168   1.273   5.624 -1.2859 -0.7659  0.4364
 9467TIP3    H228366   3.103   1.350   5.737  0.7855  0.5317  0.8044
 9468TIP3   OH228367   1.452   1.541   5.211 -0.6742  0.1579  0.2246
 9468TIP3    H128368   1.507   1.599   5.157 -0.6018  0.5349  0.6977
 9468TIP3    H228369   1.498   1.457   5.211 -0.0547  0.4913  0.6840
 9469TIP3   OH228370   0.266   0.963   3.489 -0.2403  0.0118 -0.2058
 9469TIP3    H128371   0.360   0.979   3.481 -0.2429 -0.0974 -0.4769
 9469TIP3    H228372   0.227   1.014   3.418 -0.2753 -0.8959 -0.8634
 9470TIP3   OH228373   5.394   2.448   4.852 -0.0580  0.5245 -0.2971
 9470TIP3    H128374   5.301   2.435   4.871  0.0393  1.1867  0.6732
 9470TIP3    H228375   5.405   2.543   4.847  0.8091  0.5088  0.9475
 9471TIP3   OH228376   2.002   6.463   3.053 -0.4857  0.7004  0.6185
 9471TIP3    H128377   1.967   6.532   3.109 -1.6465  0.3894  0.3103
 9471TIP3    H228378   1.925   6.424   3.013  0.3337  1.0980 -1.4412
 9472TIP3   OH228379   6.437   0.078   4.903 -0.1236  0.1437  0.0550
 9472TIP3    H128380   6.526   0.044   4.915 -0.0912  0.4233  0.6049
 9472TIP3    H228381   6.448   0.157   4.851 -0.2530 -0.9971 -1.8245
 9473TIP3   OH228382   0.733   1.855   0.314 -0.0013  0.4373 -0.8757
 9473TIP3    H128383   0.747   1.933   0.368  0.5035 -0.6346  0.6122
 9473TIP3    H228384   0.819   1.813   0.312 -0.4746 -0.5565 -0.8531
 9474TIP3   OH228385   1.864   2.803   5.791 -0.2226  0.2245  0.2673
 9474TIP3    H128386   1.932   2.767   5.847 -0.7704 -0.6465  0.3888
 9474TIP3    H228387   1.899   2.888   5.763  0.5113  0.1988  1.0579
 9475TIP3   OH228388   2.758   2.014   2.597  0.0227 -0.1255 -0.3124
 9475TIP3    H128389   2.826   2.060   2.647 -0.1072 -1.1026  0.8032
 9475TIP3    H228390   2.779   2.034   2.506  1.1955  0.4346  0.0521
 9476TIP3   OH228391   1.413   5.113   2.117 -0.3615  0.1899 -0.5924
 9476TIP3    H128392   1.432   5.033   2.165 -0.0807 -0.4636 -1.7461
 9476TIP3    H228393   1.478   5.176   2.149 -2.1898  0.8094  2.2201
 9477TIP3   OH228394   3.645   4.212   2.681 -0.3876  0.2562 -0.0116
 9477TIP3    H128395   3.634   4.193   2.588 -2.3394  0.8021  0.0682
 9477TIP3    H228396   3.699   4.140   2.713 -0.2663 -0.3245 -1.4317
 9478TIP3   OH228397   1.939   4.183   3.679 -0.0387 -0.7051  0.0404
 9478TIP3    H128398   1.993   4.107   3.658 -0.5412 -0.6372 -1.6228
 9478TIP3    H228399   1.884   4.154   3.751  0.9198 -1.3657  0.5293
 9479TIP3   OH228400   2.694   3.049   3.913 -0.0330  0.2454 -0.1414
 9479TIP3    H128401   2.652   3.074   3.995 -1.1341  0.3084 -0.7072
 9479TIP3    H228402   2.692   3.129   3.860  1.3090  0.4069  0.0025
 9480TIP3   OH228403   0.243   3.666   4.196 -0.2375  0.0937 -0.3297
 9480TIP3    H128404   0.200   3.581   4.188  0.3735 -0.2531 -0.0017
 9480TIP3    H228405   0.335   3.645   4.210 -0.0709  0.8131 -0.3177
 9481TIP3   OH228406   6.592   3.035   3.483 -0.3181 -0.2480 -0.5352
 9481TIP3    H128407   6.660   3.102   3.469 -0.1235 -0.7183 -2.0894
 9481TIP3    H228408   6.517   3.084   3.517  0.4113  0.4700  0.0812
 9482TIP3   OH228409   0.984   1.743   3.148 -0.6013 -0.6065  0.1259
 9482TIP3    H128410   0.896   1.715   3.124 -1.1289  0.6926  0.4588
 9482TIP3    H228411   0.989   1.834   3.119  0.1640 -0.2462  1.3135
 9483TIP3   OH228412   1.840   4.830   0.653  0.4450  0.2996 -0.4069
 9483TIP3    H128413   1.794   4.904   0.613 -0.1429 -0.0190 -0.3363
 9483TIP3    H228414   1.871   4.865   0.737  1.0224  0.7466 -0.8039
 9484TIP3   OH228415   3.864   1.415   5.128  0.1801  0.5633  0.2226
 9484TIP3    H128416   3.841   1.367   5.207  0.0025  0.1538 -0.0766
 9484TIP3    H228417   3.849   1.353   5.057  1.3471  0.5800 -0.0589
 9485TIP3   OH228418   5.265   4.248   1.248  0.1384  0.4775 -0.6695
 9485TIP3    H128419   5.271   4.164   1.294  0.7161 -0.4236 -2.2928
 9485TIP3    H228420   5.343   4.296   1.276 -1.2047  1.3427  1.8057
 9486TIP3   OH228421   1.536   3.761   3.158 -0.5303 -0.0687  0.1189
 9486TIP3    H128422   1.496   3.822   3.219 -0.4590  0.2736 -0.1749
 9486TIP3    H228423   1.591   3.815   3.102 -0.0398 -0.4731  0.2028
 9487TIP3   OH228424   7.064   5.452   4.564 -0.1030  0.5911  0.2136
 9487TIP3    H128425   7.080   5.546   4.572  1.5787  0.6052 -2.1650
 9487TIP3    H228426   7.134   5.420   4.507 -1.9943 -1.6664 -1.0551
 9488TIP3   OH228427   4.811   6.313   5.106  0.0227 -0.4764  0.6603
 9488TIP3    H128428   4.876   6.366   5.152  0.2152 -0.6599  0.5988
 9488TIP3    H228429   4.761   6.377   5.054 -0.4232 -0.2163  1.3773
 9489TIP3   OH228430   4.103   1.839   3.917  0.4091  0.1515 -0.3779
 9489TIP3    H128431   4.174   1.830   3.980 -0.4623 -0.2651  0.5765
 9489TIP3    H228432   4.100   1.755   3.871  0.1761 -0.0454 -0.0130
 9490TIP3   OH228433   6.195   1.871   4.193  0.0500  0.0361 -0.0313
 9490TIP3    H128434   6.175   1.788   4.150  0.8246 -1.7649  2.7540
 9490TIP3    H228435   6.281   1.895   4.161 -0.8146  0.6472 -2.0117
 9491TIP3   OH228436   1.799   4.663   1.669 -0.1816  0.2979  0.3428
 9491TIP3    H128437   1.844   4.714   1.601 -1.4336 -0.4392 -1.1050
 9491TIP3    H228438   1.866   4.603   1.702  0.2012 -0.0615 -1.0153
 9492TIP3   OH228439   1.958   6.429   5.587  0.5567 -0.4604 -0.8110
 9492TIP3    H128440   1.954   6.509   5.640  1.2613 -1.8854  1.5567
 9492TIP3    H228441   1.873   6.387   5.601  1.3685 -1.7002  0.7288
 9493TIP3   OH228442   2.934   1.667   3.521  0.1156 -0.1201 -0.0197
 9493TIP3    H128443   3.008   1.628   3.475 -0.5761 -1.3850 -0.1020
 9493TIP3    H228444   2.866   1.599   3.519 -1.2470  1.2175 -0.4425
 9494TIP3   OH228445   0.444   2.644   1.429  0.2530 -0.3241 -0.1175
 9494TIP3    H128446   0.358   2.635   1.471  0.1456  0.2183 -0.2079
 9494TIP3    H228447   0.434   2.602   1.344 -0.0079 -0.0349 -0.2337
 9495TIP3   OH228448   3.560   4.481   1.273 -0.5128 -0.2279  0.0134
 9495TIP3    H128449   3.581   4.406   1.329 -1.7177 -0.3368  0.3662
 9495TIP3    H228450   3.625   4.479   1.204  1.1177 -0.0201  1.4663
 9496TIP3   OH228451   1.622   2.930   0.532  0.1653 -0.3244  0.5403
 9496TIP3    H128452   1.612   3.019   0.568 -1.9329  0.0684 -0.8399
 9496TIP3    H228453   1.639   2.945   0.439 -0.8512 -1.3730  0.1773
 9497TIP3   OH228454   0.209   0.133   0.725  0.5009  0.0263 -0.1543
 9497TIP3    H128455   0.196   0.200   0.657  0.1560  0.4967  0.3674
 9497TIP3    H228456   0.227   0.053   0.676  0.6907  0.4501 -0.7957
 9498TIP3   OH228457   0.836   3.469   5.241  0.3413 -0.5989 -0.5691
 9498TIP3    H128458   0.769   3.536   5.230  1.1579  0.7301  1.7853
 9498TIP3    H228459   0.911   3.500   5.191  0.1939 -0.5498 -0.7577
 9499TIP3   OH228460   5.957   3.540   5.498 -0.2241 -0.0337 -0.0817
 9499TIP3    H128461   6.016   3.610   5.527  0.9513 -0.0886 -2.1313
 9499TIP3    H228462   5.871   3.568   5.527  0.8003 -0.3119  3.6958
 9500TIP3   OH228463   1.536   0.315   3.299  0.0204 -0.1140  0.1752
 9500TIP3    H128464   1.491   0.363   3.230 -2.0680 -0.3686  1.2791
 9500TIP3    H228465   1.555   0.229   3.260  1.2885  0.6396 -0.9136
 9501TIP3   OH228466   3.929   2.292   0.895  0.2071 -0.0696 -0.1476
 9501TIP3    H128467   3.902   2.205   0.925  1.9191 -0.6519 -0.2049
 9501TIP3    H228468   3.962   2.277   0.807  1.1786  0.5091  0.1079
 9502TIP3   OH228469   0.852   2.603   4.760  0.8790 -0.0369 -0.0038
 9502TIP3    H128470   0.928   2.621   4.704  1.8304 -0.0215  1.2324
 9502TIP3    H228471   0.887   2.609   4.849 -0.4330 -0.7368  0.5812
 9503TIP3   OH228472   3.242   1.654   0.848 -0.3512  0.3225 -0.1883
 9503TIP3    H128473   3.155   1.692   0.838 -0.7551 -0.6253 -0.3569
 9503TIP3    H228474   3.295   1.725   0.885 -1.0446  1.0926 -0.6346
 9504TIP3   OH228475   4.471   6.181   1.669  0.6831 -0.2911 -0.3891
 9504TIP3    H128476   4.565   6.177   1.687  0.1993 -0.1030  2.6562
 9504TIP3    H228477   4.445   6.089   1.660  0.8848 -0.4391  0.4664
 9505TIP3   OH228478   2.072   0.269   1.817 -0.1540  0.0341 -0.5104
 9505TIP3    H128479   2.156   0.237   1.850  0.8588  0.5553 -2.4359
 9505TIP3    H228480   2.007   0.216   1.862  1.1961 -0.2940  1.1315
 9506TIP3   OH228481   1.863   5.733   1.936  0.0301 -0.6802  0.2096
 9506TIP3    H128482   1.952   5.761   1.915 -0.7697  1.7989 -0.1680
 9506TIP3    H228483   1.846   5.660   1.876  0.9862  0.3503 -1.3752
 9507TIP3   OH228484   6.600   5.331   4.728 -0.5180 -0.6695 -0.2051
 9507TIP3    H128485   6.688   5.305   4.700  0.0457  0.1795  0.7184
 9507TIP3    H228486   6.585   5.283   4.810 -1.4994 -1.8783 -1.0468
 9508TIP3   OH228487   6.020   5.385   4.216 -0.2897  0.2431 -0.5858
 9508TIP3    H128488   5.946   5.394   4.276  1.5258 -2.4240  2.4028
 9508TIP3    H228489   6.097   5.406   4.269  1.3708 -0.9244 -2.3535
 9509TIP3   OH228490   4.678   2.706   0.331  0.1833 -0.6005  0.2044
 9509TIP3    H128491   4.705   2.633   0.277 -2.5064 -1.2985 -0.3611
 9509TIP3    H228492   4.733   2.700   0.409  1.6603 -1.7293 -0.8668
 9510TIP3   OH228493   6.463   4.070   5.656 -0.1318  0.0613 -0.7059
 9510TIP3    H128494   6.416   4.148   5.684 -1.0231 -1.4304  2.4031
 9510TIP3    H228495   6.396   4.013   5.617  0.2814  0.3172 -1.8227
 9511TIP3   OH228496   2.838   3.269   4.767  0.2074  0.0104 -0.3684
 9511TIP3    H128497   2.767   3.333   4.761  1.7942  1.8393 -0.6908
 9511TIP3    H228498   2.913   3.313   4.727  0.7347 -3.1210 -3.3035
 9512TIP3   OH228499   2.623   3.365   1.724  0.3568  0.1943  0.2681
 9512TIP3    H128500   2.659   3.371   1.636  0.3060  1.5279  0.3100
 9512TIP3    H228501   2.610   3.272   1.739  1.5265 -0.1398 -0.6609
 9513TIP3   OH228502   0.710   1.885   1.769 -0.4642  0.5493 -0.1612
 9513TIP3    H128503   0.684   1.804   1.813 -2.2988  1.1097 -0.1228
 9513TIP3    H228504   0.701   1.952   1.837  2.7303  0.6229  0.3259
 9514TIP3   OH228505   5.138   1.932   5.338 -0.3243 -0.2208 -0.4116
 9514TIP3    H128506   5.182   1.970   5.261 -2.2100 -1.5976 -2.2964
 9514TIP3    H228507   5.045   1.946   5.321 -0.7856  0.4626  2.2678
 9515TIP3   OH228508   7.109   5.992   5.706  0.8129  0.7599  0.3310
 9515TIP3    H128509   7.035   6.001   5.647  0.0772  1.3628  1.3271
 9515TIP3    H228510   7.139   5.901   5.693  0.7870  0.9263 -1.0691
 9516TIP3   OH228511   3.630   6.110   5.121 -1.1470  0.0300 -0.7240
 9516TIP3    H128512   3.599   6.081   5.035 -1.0004  1.8228 -1.4071
 9516TIP3    H228513   3.706   6.165   5.102 -1.3452  0.7647  0.5309
 9517TIP3   OH228514   4.689   2.575   2.988  0.1976 -0.1684 -0.3886
 9517TIP3    H128515   4.752   2.536   2.927 -1.5170 -2.8272 -0.6286
 9517TIP3    H228516   4.629   2.624   2.933  1.7454  2.1383 -0.1841
 9518TIP3   OH228517   2.457   5.401   5.687 -0.1269 -0.0736  0.1011
 9518TIP3    H128518   2.549   5.426   5.682  0.5668 -2.6738 -2.2242
 9518TIP3    H228519   2.451   5.347   5.766 -0.1318  1.4267  1.1962
 9519TIP3   OH228520   6.440   6.643   4.463 -0.2401  0.3143  0.5961
 9519TIP3    H128521   6.401   6.729   4.479  0.7878  0.8371  0.3359
 9519TIP3    H228522   6.382   6.582   4.509 -0.0366  1.3060  2.2589
 9520TIP3   OH228523   6.729   4.265   1.655 -0.1727 -0.0832  0.1264
 9520TIP3    H128524   6.735   4.269   1.751  0.4588  1.1968  0.0629
 9520TIP3    H228525   6.682   4.184   1.637 -0.7394 -0.0954  1.5417
 9521TIP3   OH228526   0.505   3.690   4.526 -0.0671  0.0215  0.0850
 9521TIP3    H128527   0.418   3.668   4.557 -0.2910  0.9376  0.1258
 9521TIP3    H228528   0.504   3.667   4.433 -0.8773  1.4793 -0.2925
 9522TIP3   OH228529   4.899   5.433   5.752 -0.0360 -0.0582  0.2872
 9522TIP3    H128530   4.897   5.512   5.806 -1.7238  0.5229 -0.5659
 9522TIP3    H228531   4.949   5.370   5.805 -1.3846  0.5495  2.4353
 9523TIP3   OH228532   5.923   5.176   1.025 -0.2387 -0.3130  0.0355
 9523TIP3    H128533   5.921   5.260   0.979  1.1204  0.6345  1.5838
 9523TIP3    H228534   5.927   5.200   1.118 -1.5797 -2.1276  0.6148
 9524TIP3   OH228535   5.244   1.116   3.608 -0.1212  0.2784 -0.4887
 9524TIP3    H128536   5.241   1.156   3.695  0.3908  0.2741 -0.4617
 9524TIP3    H228537   5.288   1.182   3.553  0.4929 -0.1304 -0.5036
 9525TIP3   OH228538   2.839   6.610   2.028  0.0811  0.4003 -0.3847
 9525TIP3    H128539   2.766   6.668   2.009 -0.0929  0.4878  0.5242
 9525TIP3    H228540   2.904   6.665   2.072 -1.0532 -0.5115  2.6819
 9526TIP3   OH228541   6.129   4.381   1.578  0.6619  0.0195  0.1187
 9526TIP3    H128542   6.085   4.457   1.540  0.1762 -0.1580  0.3225
 9526TIP3    H228543   6.172   4.416   1.657  1.9969  0.4735 -0.7563
 9527TIP3   OH228544   4.116   5.609   1.956  0.1437 -0.1895  0.0729
 9527TIP3    H128545   4.033   5.578   1.992 -0.4613  0.1014 -1.0252
 9527TIP3    H228546   4.172   5.532   1.955 -0.5071 -0.6618 -0.2743
 9528TIP3   OH228547   3.500   3.735   3.085 -0.5505 -0.1445  0.2778
 9528TIP3    H128548   3.538   3.681   3.154  0.0632  0.5680  0.5117
 9528TIP3    H228549   3.526   3.825   3.108  2.9283 -0.1075 -2.8248
 9529TIP3   OH228550   3.842   5.684   4.691  0.0709  0.1408  0.0228
 9529TIP3    H128551   3.785   5.736   4.635  0.3807 -0.5084 -0.9181
 9529TIP3    H228552   3.868   5.744   4.761  0.8003  1.3954 -1.2802
 9530TIP3   OH228553   6.349   3.691   4.020 -0.1064  0.4059  0.0265
 9530TIP3    H128554   6.354   3.611   3.968 -1.4028 -0.4871  1.1946
 9530TIP3    H228555   6.281   3.744   3.978 -0.9270 -0.1742  0.5907
 9531TIP3   OH228556   3.116   5.233   3.504  0.3765 -0.1640  0.2542
 9531TIP3    H128557   3.041   5.172   3.506  0.5614 -0.4055 -0.1351
 9531TIP3    H228558   3.188   5.183   3.542  0.6480 -0.3551 -0.4905
 9532TIP3   OH228559   2.850   4.449   4.880  0.1748 -0.2072 -0.0667
 9532TIP3    H128560   2.758   4.467   4.898  0.0602 -1.1165  0.2916
 9532TIP3    H228561   2.897   4.485   4.955  0.0659 -0.1861 -0.0093
 9533TIP3   OH228562   2.295   0.579   0.919  0.0377 -0.2251  0.2065
 9533TIP3    H128563   2.235   0.587   0.845 -1.6374 -2.1265  1.2814
 9533TIP3    H228564   2.293   0.665   0.961  0.7102  0.7699 -1.6356
 9534TIP3   OH228565   0.906   3.629   1.422  0.1136  0.5301 -0.2177
 9534TIP3    H128566   0.882   3.679   1.344 -0.6844  0.2154 -0.1913
 9534TIP3    H228567   0.824   3.621   1.471  0.1723 -0.9392 -0.3134
 9535TIP3   OH228568   1.876   6.704   3.179 -0.0226  0.4205  0.1964
 9535TIP3    H128569   1.828   6.782   3.153  0.1597 -0.0083 -1.5779
 9535TIP3    H228570   1.952   6.738   3.226 -0.1357  1.2961 -0.2222
 9536TIP3   OH228571   4.808   0.595   1.275 -0.1597  0.1419  0.5769
 9536TIP3    H128572   4.750   0.664   1.242  0.0902  0.0997  0.0413
 9536TIP3    H228573   4.809   0.529   1.206  3.0207  1.5534 -0.9374
 9537TIP3   OH228574   4.460   0.108   4.996 -0.3895 -0.3476  0.4537
 9537TIP3    H128575   4.432   0.133   4.909  0.2553  2.1359  0.8918
 9537TIP3    H228576   4.380   0.101   5.047 -0.6442 -0.0765  0.0906
 9538TIP3   OH228577   1.651   5.690   4.123 -0.0352 -0.6405  0.5873
 9538TIP3    H128578   1.577   5.709   4.066 -0.3732 -1.5566  0.7035
 9538TIP3    H228579   1.678   5.601   4.099  0.8978 -0.4030  0.6923
 9539TIP3   OH228580   4.833   5.656   2.915 -0.4759 -0.0951  0.0696
 9539TIP3    H128581   4.914   5.606   2.925 -1.0886 -0.7663  2.4463
 9539TIP3    H228582   4.792   5.621   2.837  0.5942 -1.1337 -0.0471
 9540TIP3   OH228583   1.317   0.923   5.051 -0.0762  0.2154  0.5191
 9540TIP3    H128584   1.268   0.923   4.969 -1.3297  0.7599  1.2389
 9540TIP3    H228585   1.362   0.838   5.052 -0.8053 -0.1940 -0.2788
 9541TIP3   OH228586   3.989   2.007   2.164 -0.2687 -0.1155 -0.2696
 9541TIP3    H128587   3.941   2.040   2.088  0.3498 -0.7273 -0.9441
 9541TIP3    H228588   3.998   2.083   2.222  0.3578  0.6901 -1.3859
 9542TIP3   OH228589   5.664   3.047   4.242  0.7458  0.5842  0.3471
 9542TIP3    H128590   5.591   3.054   4.180  1.0407 -1.4089 -0.2933
 9542TIP3    H228591   5.624   3.062   4.328 -0.2711  0.3660 -0.0746
 9543TIP3   OH228592   6.555   3.148   5.755  0.7809 -0.0688 -0.1505
 9543TIP3    H128593   6.497   3.152   5.679 -1.8493 -1.9071  1.6020
 9543TIP3    H228594   6.504   3.187   5.826  2.4884  0.0192  1.0880
 9544TIP3   OH228595   4.973   3.243   5.287  0.1954  0.2724  0.3247
 9544TIP3    H128596   4.916   3.297   5.341 -1.4068 -0.7617 -0.2485
 9544TIP3    H228597   4.969   3.156   5.327  2.6982  0.4756  1.2164
 9545TIP3   OH228598   4.894   1.469   3.417 -0.1001  0.1501 -0.1416
 9545TIP3    H128599   4.923   1.403   3.481  1.2212  0.0443 -0.8226
 9545TIP3    H228600   4.801   1.449   3.403  0.3254 -1.7157 -0.5029
 9546TIP3   OH228601   0.249   5.958   2.773 -0.1948 -0.2214  0.5178
 9546TIP3    H128602   0.279   6.033   2.824 -0.4124 -0.9005  1.6799
 9546TIP3    H228603   0.165   5.935   2.811  0.7381 -2.2627  1.5060
 9547TIP3   OH228604   4.698   0.520   1.826 -0.0836 -0.3360 -0.5002
 9547TIP3    H128605   4.633   0.565   1.880 -0.4509 -1.8544  0.3829
 9547TIP3    H228606   4.648   0.486   1.751  0.0325 -0.0060 -0.7294
 9548TIP3   OH228607   5.566   1.382   2.177 -0.4383 -0.3463 -0.2963
 9548TIP3    H128608   5.506   1.456   2.170 -0.1432  0.1301  1.6199
 9548TIP3    H228609   5.572   1.365   2.271  1.6866 -0.9923 -0.5024
 9549TIP3   OH228610   5.575   4.751   4.000  0.6337  0.0388  0.3145
 9549TIP3    H128611   5.663   4.791   4.003  0.9399 -0.4880 -1.2007
 9549TIP3    H228612   5.591   4.657   3.994 -0.0549 -0.0890  0.3878
 9550TIP3   OH228613   7.204   5.350   2.646 -0.3909  0.4296 -0.5642
 9550TIP3    H128614   7.142   5.372   2.715  0.5914 -0.0466  0.4986
 9550TIP3    H228615   7.278   5.409   2.660 -0.5008  0.8565 -1.6963
 9551TIP3   OH228616   3.164   2.849   0.753 -0.0789 -0.1360  0.4916
 9551TIP3    H128617   3.129   2.766   0.785  0.2701  0.3029  2.0912
 9551TIP3    H228618   3.233   2.823   0.691 -0.3697 -1.0215  0.5213
 9552TIP3   OH228619   4.329   0.539   2.518  0.1872 -0.4542  0.1349
 9552TIP3    H128620   4.422   0.518   2.513  1.0124  1.9661  2.4684
 9552TIP3    H228621   4.292   0.470   2.572  1.4231  0.3234  2.0951
 9553TIP3   OH228622   4.378   5.193   4.934  0.5267  0.1192 -0.1938
 9553TIP3    H128623   4.399   5.241   5.014 -0.1141  0.3040 -0.1279
 9553TIP3    H228624   4.457   5.198   4.881  1.0910 -0.3298  0.5888
 9554TIP3   OH228625   0.793   0.720   4.867  0.0877  0.3620  0.2118
 9554TIP3    H128626   0.845   0.642   4.843  0.8385  0.9406 -0.0879
 9554TIP3    H228627   0.732   0.731   4.795  1.6537  1.4925 -1.0226
 9555TIP3   OH228628   0.686   3.742   0.035  0.9513 -0.2988  0.4119
 9555TIP3    H128629   0.772   3.783   0.027  1.0162 -0.5810 -0.4896
 9555TIP3    H228630   0.686   3.704   0.122  1.1096  1.1030  1.0564
 9556TIP3   OH228631   7.176   1.143   5.851  0.2439 -0.0723  0.2753
 9556TIP3    H128632   7.130   1.148   5.768  0.2367  3.2631  0.3575
 9556TIP3    H228633   7.256   1.093   5.832  0.4391  0.9803 -1.8461
 9557TIP3   OH228634   4.395   5.882   4.767 -0.0610  0.5930 -0.0230
 9557TIP3    H128635   4.348   5.880   4.850  0.3685  0.3665  0.2190
 9557TIP3    H228636   4.327   5.893   4.700 -0.3335  1.8100  0.4241
 9558TIP3   OH228637   6.264   2.226   4.688  0.0360  0.0891  0.1354
 9558TIP3    H128638   6.327   2.169   4.730 -0.0246 -0.5806 -0.6535
 9558TIP3    H228639   6.247   2.296   4.751  0.4275 -0.5421  0.9389
 9559TIP3   OH228640   1.275   1.527   2.276  0.0094 -0.0408 -0.2405
 9559TIP3    H128641   1.307   1.607   2.318  1.1062 -1.1974  1.2153
 9559TIP3    H228642   1.190   1.553   2.239 -0.1720  1.5175  1.1272
 9560TIP3   OH228643   3.194   6.738   5.673  0.1484 -0.1275 -0.2567
 9560TIP3    H128644   3.156   6.723   5.587 -1.3295  0.5386  0.2540
 9560TIP3    H228645   3.137   6.803   5.714  0.3390 -1.0191  1.5309
 9561TIP3   OH228646   6.703   2.301   1.604  0.0908  0.8822  0.7165
 9561TIP3    H128647   6.673   2.390   1.618 -1.1965  0.4136  1.1015
 9561TIP3    H228648   6.762   2.307   1.528 -0.2065  2.0039  0.5546
 9562TIP3   OH228649   1.887   1.582   0.684  0.5780 -0.2831 -0.1642
 9562TIP3    H128650   1.961   1.642   0.690  1.5445 -1.4749  0.4459
 9562TIP3    H228651   1.927   1.495   0.690 -1.0416 -0.9696  2.8340
 9563TIP3   OH228652   6.904   6.348   2.559  0.6084  0.5397  0.0192
 9563TIP3    H128653   6.935   6.348   2.649 -1.6294 -2.2924  0.9611
 9563TIP3    H228654   6.947   6.273   2.519 -1.5190 -0.8080  0.0854
 9564TIP3   OH228655   4.475   3.792   5.783  0.1833 -1.0550 -0.5185
 9564TIP3    H128656   4.460   3.880   5.820  0.1585 -2.1651  2.3696
 9564TIP3    H228657   4.536   3.807   5.711 -0.3140  1.4024 -0.5446
 9565TIP3   OH228658   5.621   6.604   0.275  0.4097 -0.9159 -0.1957
 9565TIP3    H128659   5.549   6.547   0.302 -1.5652 -0.0652 -3.0620
 9565TIP3    H228660   5.627   6.670   0.344 -1.6828 -0.9807  0.1289
 9566TIP3   OH228661   1.494   3.932   0.275 -0.1981 -0.0412 -0.1879
 9566TIP3    H128662   1.557   3.966   0.339  0.1027 -0.2583 -0.3674
 9566TIP3    H228663   1.548   3.902   0.202 -0.3896 -1.7005  0.3181
 9567TIP3   OH228664   4.289   3.056   5.724  0.4927 -0.2778 -0.4024
 9567TIP3    H128665   4.257   3.014   5.804  0.1792  1.1956  0.2824
 9567TIP3    H228666   4.299   2.984   5.662 -0.4245 -1.3007  0.5755
 9568TIP3   OH228667   4.883   5.735   0.142 -0.0173  0.1535  0.0596
 9568TIP3    H128668   4.799   5.716   0.100 -0.5553 -1.6440  1.8339
 9568TIP3    H228669   4.947   5.734   0.070 -1.1793 -0.8016 -0.9986
 9569TIP3   OH228670   2.642   0.710   4.118  0.2471 -0.1817  0.5778
 9569TIP3    H128671   2.714   0.753   4.164 -1.4796 -0.0909  3.4299
 9569TIP3    H228672   2.676   0.622   4.098  1.8667  0.5814 -0.2502
 9570TIP3   OH228673   0.950   3.941   1.949 -0.5301 -0.2325 -0.1027
 9570TIP3    H128674   1.030   3.957   1.999 -0.5813 -0.4569  0.0519
 9570TIP3    H228675   0.980   3.925   1.859 -0.5651  2.4338 -0.6861
 9571TIP3   OH228676   4.496   6.484   0.921 -0.5586  0.9616 -0.0781
 9571TIP3    H128677   4.533   6.542   0.855  0.3707  1.0115  0.4664
 9571TIP3    H228678   4.418   6.530   0.952 -0.0749  1.7322  0.0306
 9572TIP3   OH228679   3.933   5.844   3.804  0.5260 -0.1574 -0.2916
 9572TIP3    H128680   3.844   5.831   3.836  0.9693  0.5708  1.3160
 9572TIP3    H228681   3.935   5.798   3.720 -1.4552  0.0976 -0.5236
 9573TIP3   OH228682   6.970   5.574   3.508  0.6715 -0.0714 -0.0929
 9573TIP3    H128683   6.875   5.577   3.503  0.6514 -0.9302 -0.4951
 9573TIP3    H228684   6.988   5.540   3.596  0.5615 -0.9500 -0.3933
 9574TIP3   OH228685   6.827   6.333   2.946 -0.4803 -0.4357 -0.4875
 9574TIP3    H128686   6.772   6.411   2.938 -2.1785 -1.7072 -2.1170
 9574TIP3    H228687   6.887   6.339   2.872 -1.2171 -1.0812 -1.1579
 9575TIP3   OH228688   1.338   0.843   3.501 -0.1628  0.0740  0.1238
 9575TIP3    H128689   1.427   0.810   3.490 -0.5722 -0.8675 -0.4539
 9575TIP3    H228690   1.314   0.817   3.590 -0.2000 -0.5220 -0.0558
 9576TIP3   OH228691   0.466   3.927   5.180  0.2347 -0.2916 -0.1974
 9576TIP3    H128692   0.544   3.875   5.160  0.5070  0.5540 -1.4706
 9576TIP3    H228693   0.480   3.956   5.270  2.1112  0.9759 -0.8256
 9577TIP3   OH228694   6.029   1.737   0.837 -0.0799  0.2013 -0.5119
 9577TIP3    H128695   6.047   1.802   0.769 -3.4765  0.5352 -1.2870
 9577TIP3    H228696   6.006   1.658   0.789 -2.3680  0.3952  0.1167
 9578TIP3   OH228697   5.279   6.173   1.557  0.1170 -0.4062 -0.1363
 9578TIP3    H128698   5.268   6.267   1.546  0.1872 -0.4440 -0.5367
 9578TIP3    H228699   5.357   6.164   1.611 -0.3351 -0.2155  0.5790
 9579TIP3   OH228700   1.088   1.091   2.536 -0.0525  0.0588  0.4122
 9579TIP3    H128701   1.032   1.019   2.564  0.1701 -0.3260 -0.0976
 9579TIP3    H228702   1.051   1.119   2.452  0.3238  0.0198  0.2316
 9580TIP3   OH228703   0.755   5.415   1.086 -0.3913  0.3875  0.1869
 9580TIP3    H128704   0.815   5.461   1.028 -0.1957 -0.5058 -0.3343
 9580TIP3    H228705   0.688   5.378   1.028 -1.5579  1.4958  0.7672
 9581TIP3   OH228706   2.060   1.439   4.286 -0.6297 -0.1739  0.8462
 9581TIP3    H128707   2.095   1.378   4.222  1.2448  0.2622  1.3935
 9581TIP3    H228708   2.136   1.465   4.339 -1.7937  0.8344  2.1076
 9582TIP3   OH228709   6.396   4.396   5.514 -0.0118 -0.0164  1.1250
 9582TIP3    H128710   6.327   4.377   5.577 -0.1661 -0.5049  0.8160
 9582TIP3    H228711   6.352   4.443   5.443  0.0619  0.0700  1.1354
 9583TIP3   OH228712   0.285   2.836   5.549 -0.5426 -0.4855  0.0402
 9583TIP3    H128713   0.198   2.871   5.528 -0.7303  0.4085  2.0742
 9583TIP3    H228714   0.328   2.907   5.597  1.5766 -0.6868 -1.4527
 9584TIP3   OH228715   0.677   6.296   4.166  0.5865  0.1869  0.3237
 9584TIP3    H128716   0.611   6.254   4.110  0.2271  1.8313 -0.5624
 9584TIP3    H228717   0.682   6.240   4.243 -0.1495 -1.2337 -0.6199
 9585TIP3   OH228718   3.122   0.441   2.778 -0.5754  0.1842 -0.0913
 9585TIP3    H128719   3.048   0.382   2.771 -1.1921  1.1173 -2.2404
 9585TIP3    H228720   3.106   0.491   2.858 -2.3363  0.4574 -0.5825
 9586TIP3   OH228721   3.070   2.517   5.837 -0.5758 -0.5229  0.3303
 9586TIP3    H128722   3.073   2.573   5.914 -1.2396  1.3475 -0.9522
 9586TIP3    H228723   3.009   2.447   5.861 -2.4331  1.1821  0.7953
 9587TIP3   OH228724   3.928   1.011   4.759 -0.0065  0.5382 -0.6386
 9587TIP3    H128725   4.008   1.033   4.711  1.2460  0.7635  1.4421
 9587TIP3    H228726   3.945   0.925   4.796 -0.3966  0.9261  0.4823
 9588TIP3   OH228727   5.051   4.300   4.286  0.5092 -0.0617  0.1189
 9588TIP3    H128728   5.030   4.226   4.230  0.9209  0.9968 -1.4971
 9588TIP3    H228729   5.142   4.287   4.311 -0.2022 -1.5383  2.2115
 9589TIP3   OH228730   6.783   0.744   2.963  0.1218  0.1816  0.1844
 9589TIP3    H128731   6.701   0.701   2.938  0.7154 -0.2398 -1.1166
 9589TIP3    H228732   6.847   0.673   2.966  0.6207  0.6309  0.3583
 9590TIP3   OH228733   6.607   0.862   3.352  0.5680 -0.3641 -0.1181
 9590TIP3    H128734   6.560   0.813   3.285  2.3498 -1.7284 -0.4370
 9590TIP3    H228735   6.665   0.919   3.303 -0.6785  1.3281  0.2732
 9591TIP3   OH228736   0.641   5.190   3.445 -0.1823 -0.0901  0.5391
 9591TIP3    H128737   0.721   5.139   3.459  0.1166 -0.2224 -1.2909
 9591TIP3    H228738   0.583   5.131   3.397 -0.8414  0.4528  0.6509
 9592TIP3   OH228739   0.476   5.854   0.532 -0.5626  0.0695  0.5306
 9592TIP3    H128740   0.492   5.901   0.613  0.7902 -1.3488  1.1494
 9592TIP3    H228741   0.556   5.802   0.518 -0.4678  0.7633 -2.0708
 9593TIP3   OH228742   0.930   6.602   0.138  0.0749  0.1468 -0.9225
 9593TIP3    H128743   0.871   6.677   0.129 -0.0119  0.2424  0.2311
 9593TIP3    H228744   1.003   6.621   0.081  0.3159  1.3878 -0.2349
 9594TIP3   OH228745   0.844   6.610   5.214 -0.1721 -0.2122  0.1342
 9594TIP3    H128746   0.851   6.705   5.211 -0.7576 -0.1718  0.0267
 9594TIP3    H228747   0.796   6.591   5.294  0.8573 -0.4763  0.7018
 9595TIP3   OH228748   4.290   2.326   0.664  0.0911  0.3345  0.5395
 9595TIP3    H128749   4.354   2.337   0.593  0.3420 -2.2180  0.2695
 9595TIP3    H228750   4.319   2.247   0.710 -2.3630 -0.4088  0.9637
 9596TIP3   OH228751   4.085   6.571   4.230 -0.0345  0.2362  0.0528
 9596TIP3    H128752   4.063   6.663   4.212  1.0621  0.9066  1.8883
 9596TIP3    H228753   4.125   6.540   4.149 -0.3144  1.4086 -0.5620
 9597TIP3   OH228754   5.815   3.720   5.712 -0.0373 -0.5639 -0.5810
 9597TIP3    H128755   5.837   3.641   5.761 -0.8131 -1.1461 -1.1451
 9597TIP3    H228756   5.720   3.727   5.718  0.1626  1.5909  1.3345
 9598TIP3   OH228757   0.165   0.940   5.792 -0.1269  0.6315 -0.0077
 9598TIP3    H128758   0.128   0.867   5.742  0.1364  2.0854 -2.4753
 9598TIP3    H228759   0.246   0.962   5.746  0.6817  1.4316  1.6960
 9599TIP3   OH228760   6.895   3.254   4.577  0.4813 -0.2784  0.7553
 9599TIP3    H128761   6.896   3.171   4.625 -0.4840  0.0122  1.3078
 9599TIP3    H228762   6.803   3.281   4.578  0.4630 -0.1745 -1.1433
 9600TIP3   OH228763   6.627   2.547   3.228 -0.1441 -0.0870 -0.0959
 9600TIP3    H128764   6.702   2.600   3.254 -0.4678  0.6654 -0.6439
 9600TIP3    H228765   6.651   2.513   3.141 -0.0474 -0.6225  0.1386
 9601TIP3   OH228766   3.721   2.024   2.018 -0.0790  0.8066 -0.0034
 9601TIP3    H128767   3.757   2.094   2.074  0.9970 -0.3362  0.7810
 9601TIP3    H228768   3.775   2.026   1.940  0.0761  0.7367  0.1008
 9602TIP3   OH228769   7.155   6.283   5.652  0.6293 -0.1000 -0.6356
 9602TIP3    H128770   7.103   6.204   5.642 -1.0503  1.0171 -1.1231
 9602TIP3    H228771   7.233   6.268   5.598 -0.2864 -0.8984 -1.7770
 9603TIP3   OH228772   4.665   1.709   0.753 -0.4606 -0.1540  0.1584
 9603TIP3    H128773   4.575   1.726   0.783 -0.6201 -2.4269  1.1057
 9603TIP3    H228774   4.711   1.677   0.830  0.8101 -0.3222 -0.6392
 9604TIP3   OH228775   1.212   2.630   1.763 -0.2909  0.1251 -0.3056
 9604TIP3    H128776   1.303   2.621   1.792 -0.7433  0.0510  1.1562
 9604TIP3    H228777   1.206   2.574   1.685  0.3186 -1.8100  0.9607
 9605TIP3   OH228778   2.844   5.754   1.531 -0.3729  0.1848  0.2550
 9605TIP3    H128779   2.849   5.741   1.626  0.2064  1.1470  0.3632
 9605TIP3    H228780   2.828   5.666   1.496  1.9413 -0.6196  1.0525
 9606TIP3   OH228781   3.886   3.857   1.239 -0.1234 -0.0380 -0.0532
 9606TIP3    H128782   3.959   3.851   1.301 -0.1418 -0.9074 -0.0907
 9606TIP3    H228783   3.828   3.785   1.265 -0.2366 -0.2729 -0.9333
 9607TIP3   OH228784   0.569   2.492   3.708 -0.0450  0.4771  0.2811
 9607TIP3    H128785   0.482   2.520   3.680 -0.1377 -0.3115 -0.2517
 9607TIP3    H228786   0.555   2.408   3.751  0.4781  0.2165 -0.0407
 9608TIP3   OH228787   5.597   6.556   2.002 -0.2781 -0.4654 -0.2659
 9608TIP3    H128788   5.660   6.492   1.969 -0.5793 -1.4092  0.8812
 9608TIP3    H228789   5.649   6.618   2.052 -0.1091 -0.4599 -0.4481
 9609TIP3   OH228790   0.013   3.979   1.180 -0.3202  0.4722 -0.1016
 9609TIP3    H128791   0.098   3.940   1.204 -0.8566 -0.9831 -0.4549
 9609TIP3    H228792   0.030   4.073   1.179  1.6133  0.1777 -1.3075
 9610TIP3   OH228793   6.456   6.723   3.980 -0.4287  0.5139 -0.4790
 9610TIP3    H128794   6.513   6.725   3.903 -1.5111  3.0590 -1.3270
 9610TIP3    H228795   6.487   6.794   4.036  0.2290 -1.1751  1.4425
 9611TIP3   OH228796   5.790   3.452   1.970  0.2593 -0.2676 -0.0054
 9611TIP3    H128797   5.697   3.439   1.951 -0.0264  0.9711  0.4315
 9611TIP3    H228798   5.809   3.539   1.935  0.6387  0.5140  1.9973
 9612TIP3   OH228799   1.750   6.512   3.325  0.5332  0.2078  0.5333
 9612TIP3    H128800   1.790   6.563   3.254  0.3980  1.7946  1.5337
 9612TIP3    H228801   1.695   6.575   3.371 -0.9187 -1.2589  0.8938
 9613TIP3   OH228802   6.688   4.884   2.676  0.5781 -0.4771  0.3179
 9613TIP3    H128803   6.635   4.960   2.652  0.3527 -0.5631  0.5382
 9613TIP3    H228804   6.633   4.809   2.654  1.2755 -0.6208 -1.0560
 9614TIP3   OH228805   1.277   0.401   1.132  0.2029  0.0823  0.5364
 9614TIP3    H128806   1.186   0.387   1.107 -1.1117  0.4485  4.3958
 9614TIP3    H228807   1.297   0.328   1.190  1.2439  1.6301  2.2413
 9615TIP3   OH228808   2.069   0.284   2.535 -0.0191  0.1914  0.0453
 9615TIP3    H128809   2.000   0.304   2.598 -0.1086  0.6375 -0.1911
 9615TIP3    H228810   2.123   0.218   2.579 -0.3303  0.1739  0.4116
 9616TIP3   OH228811   3.359   6.614   5.322  0.2804 -0.5369 -1.0484
 9616TIP3    H128812   3.268   6.638   5.340 -0.2826 -2.3361 -1.3076
 9616TIP3    H228813   3.398   6.694   5.285 -1.0539  0.3977 -0.5252
 9617TIP3   OH228814   3.650   3.891   1.876  0.1151  0.0907  0.0066
 9617TIP3    H128815   3.632   3.873   1.968 -1.8811 -0.9440 -0.5550
 9617TIP3    H228816   3.613   3.817   1.829 -0.9850  1.7152 -1.7904
 9618TIP3   OH228817   6.282   1.959   1.103  0.2419 -0.0114 -0.3287
 9618TIP3    H128818   6.316   1.870   1.088 -1.0463 -0.4921 -0.5056
 9618TIP3    H228819   6.293   2.003   1.019  1.0928  0.0805 -0.1786
 9619TIP3   OH228820   6.186   6.005   2.532 -0.0464 -0.5429  0.7223
 9619TIP3    H128821   6.135   5.966   2.461 -0.1018  0.6006  0.1027
 9619TIP3    H228822   6.149   6.093   2.542  2.1214  0.5036 -0.0778
 9620TIP3   OH228823   6.195   2.704   4.851  0.4080 -0.0370  0.1079
 9620TIP3    H128824   6.220   2.761   4.924  1.0807  1.4422 -1.2317
 9620TIP3    H228825   6.161   2.764   4.785 -2.3891 -1.5398  0.0328
 9621TIP3   OH228826   1.345   1.960   5.477 -0.4645 -0.0835  0.0275
 9621TIP3    H128827   1.311   1.961   5.388 -0.2116  0.4751 -0.0670
 9621TIP3    H228828   1.409   1.888   5.477 -0.8011 -0.3863 -0.1071
 9622TIP3   OH228829   0.042   3.794   0.847 -0.6118 -0.2033 -0.1402
 9622TIP3    H128830   0.134   3.791   0.873  0.0032 -0.4797 -2.2091
 9622TIP3    H228831  -0.006   3.797   0.930  1.3243  4.2165  1.1415
 9623TIP3   OH228832   3.518   6.028   4.860 -0.0808  0.6011  0.0933
 9623TIP3    H128833   3.455   6.035   4.788  2.0686 -0.6295 -2.0456
 9623TIP3    H228834   3.486   5.954   4.912 -0.8888  0.5587 -0.4413
 9624TIP3   OH228835   2.700   4.509   5.687 -0.2173 -0.4979  0.0440
 9624TIP3    H128836   2.713   4.449   5.614  2.7736 -1.1249  0.9494
 9624TIP3    H228837   2.697   4.596   5.646  1.9905 -0.7803 -0.8916
 9625TIP3   OH228838   2.786   4.300   4.074 -0.0097  0.5125 -0.0862
 9625TIP3    H128839   2.853   4.365   4.095  0.6657 -0.1052 -0.2858
 9625TIP3    H228840   2.715   4.319   4.135 -0.6541  2.6697 -1.4083
 9626TIP3   OH228841   0.506   1.278   5.182  0.3352  0.3201 -0.0173
 9626TIP3    H128842   0.425   1.292   5.230  0.9727  0.3180  1.0837
 9626TIP3    H228843   0.478   1.248   5.095 -0.8252  0.1908  0.3917
 9627TIP3   OH228844   4.505   6.251   0.346 -0.2618 -0.0579 -0.0823
 9627TIP3    H128845   4.489   6.342   0.324 -0.6389  0.6283  2.6791
 9627TIP3    H228846   4.598   6.237   0.329  0.3270  1.5445  1.5031
 9628TIP3   OH228847   5.112   4.052   5.721 -0.3136  0.3109  0.2440
 9628TIP3    H128848   5.096   3.960   5.744  0.2315  0.3383  0.7545
 9628TIP3    H228849   5.046   4.072   5.654 -2.4550  0.4102  2.2240
 9629TIP3   OH228850   6.156   1.190   4.674 -0.1814  0.3427 -0.1786
 9629TIP3    H128851   6.121   1.114   4.721 -2.0857  0.3300 -1.5330
 9629TIP3    H228852   6.081   1.226   4.627  1.6800 -0.0093 -3.7217
 9630TIP3   OH228853   3.083   0.851   4.091  0.3253 -0.4102 -0.2849
 9630TIP3    H128854   3.143   0.913   4.132 -0.6858  0.9183 -0.7421
 9630TIP3    H228855   3.134   0.810   4.021  1.2050 -0.6144  0.4577
 9631TIP3   OH228856   6.628   4.450   0.488 -0.5670  0.2247 -1.2024
 9631TIP3    H128857   6.563   4.452   0.558  0.3657  1.3843 -0.3119
 9631TIP3    H228858   6.667   4.363   0.494 -1.8007 -0.3661 -1.5429
 9632TIP3   OH228859   3.486   5.375   1.111  0.0528 -0.0582 -0.4060
 9632TIP3    H128860   3.397   5.409   1.117 -0.2315 -0.6343 -1.1600
 9632TIP3    H228861   3.541   5.446   1.144 -0.5855  0.7793 -1.0840
 9633TIP3   OH228862   3.088   5.803   1.913  0.0368 -0.1891  1.0320
 9633TIP3    H128863   3.008   5.842   1.948 -0.3083 -0.8776  1.0324
 9633TIP3    H228864   3.135   5.771   1.990 -0.3836 -1.0744  0.9246
 9634TIP3   OH228865   6.698   3.519   4.780 -0.1721  0.2326 -0.0649
 9634TIP3    H128866   6.640   3.509   4.705  1.7412 -1.9923 -1.3760
 9634TIP3    H228867   6.746   3.600   4.764  1.7852 -1.2602 -2.5436
 9635TIP3   OH228868   3.156   3.973   3.398  0.1083  0.3627 -0.3685
 9635TIP3    H128869   3.221   4.036   3.365  0.0686  0.3914 -0.3926
 9635TIP3    H228870   3.125   3.928   3.320 -0.3389  0.7648 -0.4270
 9636TIP3   OH228871   3.601   5.853   1.261 -0.0346  0.0128  0.1674
 9636TIP3    H128872   3.519   5.902   1.259 -0.2791 -0.3611  0.7828
 9636TIP3    H228873   3.637   5.869   1.348 -0.2562 -1.1221  0.4756
 9637TIP3   OH228874   2.071   3.875   4.763  0.0177 -0.0117 -0.7876
 9637TIP3    H128875   1.978   3.857   4.773 -0.4250  1.9949 -0.9590
 9637TIP3    H228876   2.093   3.839   4.678 -0.6312 -0.3883 -0.8014
 9638TIP3   OH228877   3.475   5.048   1.467 -0.6585  0.0001 -0.4234
 9638TIP3    H128878   3.564   5.016   1.481  0.3770  2.0865 -1.7592
 9638TIP3    H228879   3.454   5.095   1.548 -0.6115 -0.6438 -0.0373
 9639TIP3   OH228880   2.092   2.448   0.860  0.7319  0.4780 -0.3005
 9639TIP3    H128881   2.044   2.418   0.783 -0.3622  0.3444  0.4188
 9639TIP3    H228882   2.081   2.543   0.859  1.6882  0.5973 -0.9267
 9640TIP3   OH228883   2.390   5.400   0.016 -0.4134 -0.3872  0.0143
 9640TIP3    H128884   2.322   5.361   0.071  0.4261 -0.7806  0.7976
 9640TIP3    H228885   2.468   5.403   0.072 -0.0041  0.8770 -0.5679
 9641TIP3   OH228886   5.653   5.144   0.313 -0.2163  0.0761  0.7187
 9641TIP3    H128887   5.698   5.224   0.340 -1.1652  0.6661  0.5764
 9641TIP3    H228888   5.724   5.081   0.297  0.5551  0.9911  0.4643
 9642TIP3   OH228889   2.956   0.227   3.995  0.6637  0.1228 -0.1742
 9642TIP3    H128890   2.896   0.163   3.955 -1.0196  1.5109  0.0131
 9642TIP3    H228891   2.976   0.190   4.081 -0.6348  0.0363  0.1061
 9643TIP3   OH228892   2.260   0.333   3.385 -0.1101  0.3200  0.1991
 9643TIP3    H128893   2.212   0.253   3.364 -0.4039  0.6927 -0.5712
 9643TIP3    H228894   2.208   0.403   3.346  1.2359  0.7080 -0.9797
 9644TIP3   OH228895   4.503   3.346   0.928  0.3285  0.1810  0.2657
 9644TIP3    H128896   4.551   3.273   0.967 -0.8895 -0.3097  0.8996
 9644TIP3    H228897   4.511   3.333   0.834  2.6729  0.9543  0.3133
 9645TIP3   OH228898   1.084   5.567   4.592 -0.4316 -0.2377  0.6408
 9645TIP3    H128899   1.147   5.629   4.627 -1.1151  0.7538  0.1457
 9645TIP3    H228900   1.001   5.614   4.593 -0.5737 -0.3192 -1.8532
 9646TIP3   OH228901   6.967   3.518   2.917 -0.5749  0.1056  0.5102
 9646TIP3    H128902   6.917   3.447   2.958  0.6787 -0.3603  1.2977
 9646TIP3    H228903   7.043   3.475   2.879 -0.8605  0.7694 -0.8787
 9647TIP3   OH228904   5.328   2.072   3.291 -0.5679 -0.1032 -0.3067
 9647TIP3    H128905   5.279   2.089   3.372  0.2203 -0.7901  0.3307
 9647TIP3    H228906   5.383   1.997   3.312  0.7888  0.6613 -0.9922
 9648TIP3   OH228907   6.901   5.392   2.455 -0.0580 -0.3004 -0.1985
 9648TIP3    H128908   6.985   5.406   2.498 -0.6182  1.0755  0.5209
 9648TIP3    H228909   6.890   5.296   2.454  0.0469 -0.4241  2.6751
 9649TIP3   OH228910   6.114   5.907   3.254 -0.1262 -0.4189 -0.2693
 9649TIP3    H128911   6.027   5.934   3.284  0.0529 -1.0571  0.8917
 9649TIP3    H228912   6.174   5.972   3.291  0.0575 -0.9977  0.4845
 9650TIP3   OH228913   0.223   5.292   2.163 -0.3085  0.2328 -0.8066
 9650TIP3    H128914   0.307   5.248   2.172 -0.1808  0.4991 -0.6946
 9650TIP3    H228915   0.161   5.222   2.144 -0.5734 -0.4047  1.9404
 9651TIP3   OH228916   6.014   2.396   2.362 -0.3990  0.0050  0.4415
 9651TIP3    H128917   6.053   2.342   2.293  0.7530 -0.0412  1.0976
 9651TIP3    H228918   6.083   2.404   2.428 -0.5733  2.1224  0.4510
 9652TIP3   OH228919   6.365   2.663   0.404  0.7394 -0.0736 -0.0141
 9652TIP3    H128920   6.308   2.708   0.342  0.0828 -0.5806  0.2040
 9652TIP3    H228921   6.448   2.652   0.357  0.4502  0.0983 -0.5715
 9653TIP3   OH228922   6.889   3.691   5.538 -0.2111 -0.2818 -0.2734
 9653TIP3    H128923   6.930   3.775   5.559 -0.8415 -0.4124  1.6880
 9653TIP3    H228924   6.925   3.630   5.602 -0.6390 -1.2463 -0.9280
 9654TIP3   OH228925   4.140   2.154   0.285 -0.7770 -0.5552  0.2772
 9654TIP3    H128926   4.144   2.130   0.193 -0.3810  2.0611 -0.4910
 9654TIP3    H228927   4.187   2.237   0.290 -0.3951 -0.8321  2.9391
 9655TIP3   OH228928   2.859   1.812   5.767  0.2785  0.3205 -0.6687
 9655TIP3    H128929   2.929   1.774   5.819  0.5580 -0.6559 -1.7140
 9655TIP3    H228930   2.904   1.868   5.703  0.0649  0.1782 -0.9466
 9656TIP3   OH228931   7.114   2.575   3.664  0.0163  0.3904 -0.0844
 9656TIP3    H128932   7.194   2.550   3.712  0.5231  0.3478 -0.9227
 9656TIP3    H228933   7.069   2.492   3.649  0.9761  0.1054 -1.6036
 9657TIP3   OH228934   1.245   2.142   4.825 -0.0038 -0.2892 -0.2273
 9657TIP3    H128935   1.180   2.205   4.854 -0.8919 -1.1611 -0.2799
 9657TIP3    H228936   1.228   2.131   4.731  1.3479  0.7694 -0.6281
 9658TIP3   OH228937   0.131   1.705   1.415 -0.3777 -0.4453  0.1083
 9658TIP3    H128938   0.190   1.746   1.477 -0.9473 -0.9174  0.9812
 9658TIP3    H228939   0.114   1.773   1.350  0.0491  0.1343  0.5928
 9659TIP3   OH228940   0.467   3.369   5.251 -0.5505  0.0454 -0.4002
 9659TIP3    H128941   0.525   3.414   5.190  0.0199 -1.2162 -0.8313
 9659TIP3    H228942   0.418   3.307   5.196 -0.3755 -0.7706  0.3413
 9660TIP3   OH228943   5.520   1.215   3.217 -0.1775 -0.1735 -0.2554
 9660TIP3    H128944   5.443   1.168   3.248 -0.7363  0.6111 -0.4335
 9660TIP3    H228945   5.579   1.146   3.186 -0.6709 -0.7980  0.1831
 9661TIP3   OH228946   5.901   2.645   4.584 -0.0543  0.7186 -0.1043
 9661TIP3    H128947   5.967   2.714   4.587  0.4999  0.1662  1.8258
 9661TIP3    H228948   5.826   2.685   4.540  0.9173  1.9120 -0.7495
 9662TIP3   OH228949   5.162   5.218   3.704  0.1130  0.3978 -0.7674
 9662TIP3    H128950   5.071   5.194   3.689 -0.1667  0.1542  1.0933
 9662TIP3    H228951   5.213   5.143   3.674 -0.4197 -0.1715 -0.2646
 9663TIP3   OH228952   6.615   1.163   3.793  0.7610  0.2956  0.1068
 9663TIP3    H128953   6.610   1.079   3.838  0.3046  0.1364 -0.2335
 9663TIP3    H228954   6.577   1.146   3.706  1.8236  0.5359 -0.4259
 9664TIP3   OH228955   2.349   0.312   0.649  0.1311  0.3546  0.3535
 9664TIP3    H128956   2.328   0.403   0.628  2.1205  0.6143 -0.7262
 9664TIP3    H228957   2.388   0.316   0.736 -0.3152  0.4428  0.5526
 9665TIP3   OH228958   0.441   0.442   4.971 -0.1826 -0.1470  0.1361
 9665TIP3    H128959   0.465   0.530   4.941 -2.2019 -0.0291 -1.3722
 9665TIP3    H228960   0.361   0.455   5.022 -0.3658 -1.0938  0.1108
 9666TIP3   OH228961   0.226   2.655   4.595  0.7724  0.0585 -0.4217
 9666TIP3    H128962   0.157   2.615   4.542 -1.1166  2.5014 -0.0005
 9666TIP3    H228963   0.221   2.609   4.679 -0.5460  0.3415 -0.3254
 9667TIP3   OH228964   2.649   1.921   3.773  0.3832  0.0525 -0.0061
 9667TIP3    H128965   2.596   1.991   3.732  1.1174  0.8531  0.3830
 9667TIP3    H228966   2.602   1.840   3.751  0.0697  0.5703 -1.3554
 9668TIP3   OH228967   2.169   0.385   4.799 -0.4133  0.2186  0.6996
 9668TIP3    H128968   2.171   0.468   4.848  0.6065  1.8048 -1.8376
 9668TIP3    H228969   2.249   0.339   4.828  1.0578  1.8586 -0.5215
 9669TIP3   OH228970   6.472   1.232   2.767  0.1285  1.0310  0.3140
 9669TIP3    H128971   6.435   1.200   2.850  2.1788 -0.0241  0.9036
 9669TIP3    H228972   6.396   1.256   2.714 -1.4469 -1.6979  1.1265
 9670TIP3   OH228973   6.108   3.376   4.301  0.1066  0.1945  0.1434
 9670TIP3    H128974   6.150   3.342   4.222 -0.2009  1.2917 -0.5140
 9670TIP3    H228975   6.014   3.376   4.280 -0.3421 -2.4847  1.6887
 9671TIP3   OH228976   2.338   2.576   2.588  0.6446  0.5306 -0.0273
 9671TIP3    H128977   2.325   2.612   2.675 -0.4849 -0.4427  0.2404
 9671TIP3    H228978   2.279   2.500   2.584  0.6122  0.5918 -1.6543
 9672TIP3   OH228979   1.156   6.045   4.788 -0.7085  0.3723  0.4390
 9672TIP3    H128980   1.063   6.024   4.779 -0.4840 -0.5325  0.1679
 9672TIP3    H228981   1.170   6.053   4.883 -0.6073 -1.7130  0.6455
 9673TIP3   OH228982   4.253   3.433   4.199 -0.1459  0.2482  0.2426
 9673TIP3    H128983   4.227   3.443   4.291  0.6884  0.2189  0.4935
 9673TIP3    H228984   4.343   3.401   4.204 -1.0970 -2.9636 -0.5276
 9674TIP3   OH228985   1.690   1.414   4.008 -0.1608 -0.0374 -0.3042
 9674TIP3    H128986   1.663   1.392   4.097 -2.7374 -1.1734 -1.2742
 9674TIP3    H228987   1.617   1.466   3.973  0.7443  0.2914 -1.8060
 9675TIP3   OH228988   7.159   5.397   3.233  0.4180  0.6133  0.6197
 9675TIP3    H128989   7.190   5.377   3.145  0.6334  0.0147  0.8248
 9675TIP3    H228990   7.233   5.442   3.275 -0.1563  2.1518  0.0754
 9676TIP3   OH228991   4.126   3.893   1.390  0.9781 -0.1161  0.4611
 9676TIP3    H128992   4.194   3.871   1.327  0.5796  1.6795 -0.6621
 9676TIP3    H228993   4.147   3.981   1.420 -1.3094  0.8927 -0.6338
 9677TIP3   OH228994   2.842   0.564   2.948  0.3882 -0.4327 -0.2886
 9677TIP3    H128995   2.913   0.581   3.011  1.0579 -0.1578 -1.0943
 9677TIP3    H228996   2.855   0.630   2.880 -2.6376  1.8263  1.0924
 9678TIP3   OH228997   1.978   2.250   2.259 -0.6541 -0.4779 -0.0876
 9678TIP3    H128998   1.931   2.171   2.287  0.1248 -1.4436 -1.3857
 9678TIP3    H228999   1.942   2.270   2.173 -0.1470 -0.0161 -0.1955
 9679TIP3   OH229000   3.141   2.842   0.282  0.1220 -0.1529 -0.2243
 9679TIP3    H129001   3.137   2.928   0.323  0.5190  0.1537 -0.8200
 9679TIP3    H229002   3.233   2.816   0.291 -0.3205 -1.2834  1.4895
 9680TIP3   OH229003   6.803   4.631   0.725  0.4951 -0.8927 -0.0009
 9680TIP3    H129004   6.793   4.549   0.774 -1.3420 -2.0551 -2.1199
 9680TIP3    H229005   6.714   4.664   0.716  0.6335 -1.0520 -2.9471
 9681TIP3   OH229006   0.459   2.947   2.485  0.3726 -0.0114 -0.3388
 9681TIP3    H129007   0.461   2.971   2.392  0.9282  1.6967  0.0923
 9681TIP3    H229008   0.548   2.917   2.504  0.2336 -0.4541 -0.3630
 9682TIP3   OH229009   5.350   5.579   5.185  0.2451  0.3123 -0.8040
 9682TIP3    H129010   5.268   5.530   5.187  0.7107 -0.4823 -0.5230
 9682TIP3    H229011   5.324   5.671   5.190 -0.6512  0.1008 -1.4207
 9683TIP3   OH229012   0.279   1.438   1.192 -0.1719 -0.8069  0.2826
 9683TIP3    H129013   0.239   1.491   1.123 -3.9387 -0.9740  2.0595
 9683TIP3    H229014   0.297   1.354   1.150  0.6767  0.0841 -1.2176
 9684TIP3   OH229015   6.462   0.677   3.178  0.5387  0.3577 -0.0725
 9684TIP3    H129016   6.391   0.617   3.154 -0.4590  1.2413  0.5894
 9684TIP3    H229017   6.542   0.624   3.168 -0.2269 -0.7695 -0.4706
 9685TIP3   OH229018   2.782   2.992   4.799  0.1799 -0.0164 -0.0375
 9685TIP3    H129019   2.776   3.088   4.804  0.5684  0.0243 -0.2247
 9685TIP3    H229020   2.830   2.967   4.878  0.9524  0.0458 -0.4682
 9686TIP3   OH229021   7.231   6.409   0.550  0.1816 -0.1476  0.2949
 9686TIP3    H129022   7.142   6.436   0.570  0.2291 -2.1019  3.9654
 9686TIP3    H229023   7.228   6.313   0.546  1.9086 -0.2076 -0.8025
 9687TIP3   OH229024   1.879   2.137   5.604 -0.5026  0.4381  0.2124
 9687TIP3    H129025   1.822   2.208   5.575 -0.5026  1.3810  2.3445
 9687TIP3    H229026   1.880   2.144   5.700  1.8052 -0.6421  0.3450
 9688TIP3   OH229027   4.294   3.125   0.884  0.8570  0.2709 -0.0323
 9688TIP3    H129028   4.329   3.214   0.876  1.0302  0.2100  0.0500
 9688TIP3    H229029   4.199   3.137   0.889  0.7473  0.3671 -1.6576
 9689TIP3   OH229030   2.589   3.087   5.412 -0.6761 -0.8806  0.5284
 9689TIP3    H129031   2.646   3.159   5.384 -1.7779  0.4613  1.5892
 9689TIP3    H229032   2.619   3.012   5.361 -0.2404  0.5786 -1.4861
 9690TIP3   OH229033   4.527   0.192   3.663  0.0291 -1.3091  0.5590
 9690TIP3    H129034   4.479   0.242   3.728  0.1488 -0.9078  0.3437
 9690TIP3    H229035   4.583   0.256   3.619  0.2943 -1.6566  0.3790
 9691TIP3   OH229036   2.265   4.598   3.862  0.1011 -0.4818  0.3120
 9691TIP3    H129037   2.183   4.607   3.911  0.8536  0.9386  1.3622
 9691TIP3    H229038   2.261   4.510   3.825 -1.3938 -0.8498  1.2654
 9692TIP3   OH229039   6.095   2.218   3.703  0.0456  0.1608 -0.2535
 9692TIP3    H129040   6.018   2.213   3.760 -0.0933 -2.5893 -0.5642
 9692TIP3    H229041   6.168   2.231   3.763 -0.4285  0.7118  0.2245
 9693TIP3   OH229042   4.565   2.304   2.896 -0.2289  0.1475 -0.9027
 9693TIP3    H129043   4.635   2.250   2.933  1.1395  0.1599 -3.2881
 9693TIP3    H229044   4.490   2.244   2.889  0.0998 -0.3835 -0.0447
 9694TIP3   OH229045   5.698   1.776   0.206  0.7795 -0.5427 -0.2454
 9694TIP3    H129046   5.631   1.752   0.270  1.2530  0.6594  0.7540
 9694TIP3    H229047   5.653   1.832   0.143  0.7088 -0.2095  0.0976
 9695TIP3   OH229048   6.577   0.418   0.287  0.6831  0.3467  0.6261
 9695TIP3    H129049   6.600   0.394   0.197 -0.0622 -1.2612  0.8084
 9695TIP3    H229050   6.525   0.498   0.278 -0.0332 -0.2075 -0.4705
 9696TIP3   OH229051   5.561   2.622   4.169 -0.1653  0.3235 -0.1772
 9696TIP3    H129052   5.503   2.696   4.192  0.8065  1.3953 -1.0628
 9696TIP3    H229053   5.616   2.656   4.099  0.0571 -1.3980 -0.8681
 9697TIP3   OH229054   2.934   1.804   1.897 -0.1758 -0.0227  0.8323
 9697TIP3    H129055   3.028   1.805   1.919 -0.4797 -0.7630  2.3097
 9697TIP3    H229056   2.930   1.753   1.816  0.7403  0.4376  0.4783
 9698TIP3   OH229057   4.321   2.777   4.153 -0.4133 -0.2815 -0.6951
 9698TIP3    H129058   4.375   2.808   4.081 -2.7590  0.8545 -2.1078
 9698TIP3    H229059   4.264   2.711   4.113 -0.3698 -1.1317  0.6125
 9699TIP3   OH229060   2.225   5.508   5.570 -0.6799 -0.7322  0.0342
 9699TIP3    H129061   2.299   5.467   5.613 -1.5035  1.1743  3.7078
 9699TIP3    H229062   2.149   5.456   5.597 -0.9378 -1.9761 -2.7400
 9700TIP3   OH229063   6.753   0.246   5.843  0.0096 -0.1910  0.1002
 9700TIP3    H129064   6.703   0.204   5.914 -0.8312 -1.0289 -0.9604
 9700TIP3    H229065   6.798   0.174   5.799 -1.4077 -0.0357 -1.7210
 9701TIP3   OH229066   4.900   2.391   2.798  0.3207  0.5547  0.5256
 9701TIP3    H129067   4.889   2.459   2.732  2.6288  1.1703  0.6791
 9701TIP3    H229068   4.914   2.311   2.748  0.2961  0.6854  0.3056
 9702TIP3   OH229069   1.998   5.242   0.048 -0.0475 -0.1158  0.0706
 9702TIP3    H129070   2.030   5.240  -0.043 -1.6837 -2.8703 -0.5663
 9702TIP3    H229071   2.065   5.291   0.096  1.0611  1.1192 -2.5319
 9703TIP3   OH229072   2.580   6.107   4.605 -0.0436  0.4964 -0.5192
 9703TIP3    H129073   2.604   6.200   4.596 -0.8134  0.7350 -0.1946
 9703TIP3    H229074   2.643   6.061   4.550  1.5313  1.0373  0.7409
 9704TIP3   OH229075   3.367   6.050   3.181  0.1477  0.5304 -0.2838
 9704TIP3    H129076   3.372   6.070   3.274  0.2842 -1.0038  0.0678
 9704TIP3    H229077   3.447   6.088   3.144 -0.9618  3.1502 -0.2476
 9705TIP3   OH229078   6.013   0.727   5.766  0.0327  0.6622 -0.0260
 9705TIP3    H129079   6.035   0.696   5.854 -0.6160 -0.4370 -0.2373
 9705TIP3    H229080   5.959   0.804   5.781 -0.8334 -0.0385  0.5742
 9706TIP3   OH229081   1.470   5.764   3.936 -0.5111  0.3625  0.3271
 9706TIP3    H129082   1.500   5.795   3.851  2.0287 -0.1304  0.9692
 9706TIP3    H229083   1.447   5.672   3.922  0.7485  0.0331  0.3266
 9707TIP3   OH229084   6.873   0.420   5.415  0.1391 -0.7220 -0.4687
 9707TIP3    H129085   6.951   0.386   5.460 -0.9028  0.8071  2.7819
 9707TIP3    H229086   6.800   0.398   5.473 -1.4443  0.7106 -1.8130
 9708TIP3   OH229087   6.607   5.827   0.137 -0.0436  0.6873  0.0105
 9708TIP3    H129088   6.545   5.891   0.173 -0.0086  0.6797  0.0842
 9708TIP3    H229089   6.674   5.817   0.205 -1.1008 -0.9391  0.8867
 9709TIP3   OH229090   3.167   6.227   1.938  0.6488 -0.0827 -0.3497
 9709TIP3    H129091   3.260   6.247   1.945  0.8245 -0.7815 -0.6232
 9709TIP3    H229092   3.147   6.178   2.018  0.0355  1.8316  0.7208
 9710TIP3   OH229093   3.752   2.758   1.665 -0.2665 -0.2763  0.4464
 9710TIP3    H129094   3.785   2.821   1.600 -2.0713 -0.5898 -0.8300
 9710TIP3    H229095   3.711   2.813   1.732 -0.7432 -0.0444 -0.0316
 9711TIP3   OH229096   3.382   6.600   1.918 -0.4901 -0.0582 -0.1068
 9711TIP3    H129097   3.290   6.578   1.933 -0.0402 -1.3676  0.8636
 9711TIP3    H229098   3.431   6.532   1.963  0.9767  1.0336  0.0191
 9712TIP3   OH229099   5.205   0.373   0.535 -0.3871 -0.1715 -0.4243
 9712TIP3    H129100   5.266   0.318   0.583 -0.0002  0.8437  0.2847
 9712TIP3    H229101   5.119   0.340   0.558 -0.1373 -1.2333 -0.9615
 9713TIP3   OH229102   3.755   2.001   2.442 -0.0672  0.2667  0.3892
 9713TIP3    H129103   3.838   1.983   2.487 -0.1031 -0.4304  0.1951
 9713TIP3    H229104   3.691   2.009   2.512  0.1272  0.6123  0.5305
 9714TIP3   OH229105   4.486   6.353   2.997  0.0010 -0.2078 -0.1229
 9714TIP3    H129106   4.397   6.387   2.988  0.4720  0.6059 -2.4009
 9714TIP3    H229107   4.542   6.431   2.996  0.8135 -0.7747 -0.3361
 9715TIP3   OH229108   6.810   6.461   4.148 -0.0004 -0.5095  0.1847
 9715TIP3    H129109   6.740   6.523   4.170  0.6921  0.9516 -1.4611
 9715TIP3    H229110   6.854   6.445   4.231  1.2439  3.1618  0.4413
 9716TIP3   OH229111   3.578   1.445   2.224 -0.1346  0.1589  0.5412
 9716TIP3    H129112   3.597   1.395   2.144 -1.7978 -0.5468  0.5411
 9716TIP3    H229113   3.645   1.416   2.286  0.6034  0.0095 -0.2940
 9717TIP3   OH229114   6.896   5.460   0.962  0.4343  0.0314 -0.0266
 9717TIP3    H129115   6.831   5.436   0.895 -2.1771 -0.2945  2.4148
 9717TIP3    H229116   6.977   5.418   0.933 -1.3734 -2.8351 -1.3767
 9718TIP3   OH229117   6.459   4.492   0.695  0.1610  0.2868 -0.2450
 9718TIP3    H129118   6.433   4.577   0.660 -1.5563 -0.9024 -2.1022
 9718TIP3    H229119   6.476   4.508   0.788 -1.7259  2.3341 -0.1816
 9719TIP3   OH229120   4.350   1.066   2.000  0.0171  0.0270 -0.1013
 9719TIP3    H129121   4.284   1.053   2.068 -0.7427  1.0235 -0.6223
 9719TIP3    H229122   4.323   1.009   1.928  1.0147 -1.2927  0.5331
 9720TIP3   OH229123   7.102   3.557   0.310  0.1119  0.5695  0.5095
 9720TIP3    H129124   7.067   3.618   0.376 -1.0870 -0.3485  0.7496
 9720TIP3    H229125   7.047   3.570   0.233 -0.1777 -0.2227  0.5721
 9721TIP3   OH229126   2.776   3.994   0.016 -0.4451 -0.0339 -0.6177
 9721TIP3    H129127   2.689   3.971   0.049 -0.8286 -1.1411 -2.2837
 9721TIP3    H229128   2.758   4.060  -0.051 -0.0198 -0.3636 -1.0588
 9722TIP3   OH229129   7.195   5.003   0.666 -0.2605  0.6410 -0.5431
 9722TIP3    H129130   7.150   4.969   0.589 -0.7244  0.3183 -0.1341
 9722TIP3    H229131   7.162   4.950   0.738  1.0451  0.1429 -0.2842
 9723TIP3   OH229132   6.731   3.975   1.640 -0.1988  0.5844 -0.4644
 9723TIP3    H129133   6.644   3.981   1.680 -0.0865  0.8770 -0.2586
 9723TIP3    H229134   6.764   3.890   1.666  0.1819  1.0762  0.7113
 9724TIP3   OH229135   6.760   2.525   5.573 -0.6152 -0.0667  0.3584
 9724TIP3    H129136   6.704   2.574   5.633 -0.8983  1.0315 -0.7768
 9724TIP3    H229137   6.844   2.572   5.575 -1.1458  1.0573 -1.3882
 9725TIP3   OH229138   2.853   6.308   2.254  0.4910  0.3145  0.0631
 9725TIP3    H129139   2.889   6.392   2.280  1.2438  0.5939 -1.6952
 9725TIP3    H229140   2.847   6.313   2.158 -1.4604 -0.8453  0.0661
 9726TIP3   OH229141   5.768   3.614   1.352 -0.3384 -0.9407  0.0341
 9726TIP3    H129142   5.724   3.552   1.411  1.0561 -0.1995  1.9316
 9726TIP3    H229143   5.791   3.561   1.275 -0.7672 -2.3369  0.8230
 9727TIP3   OH229144   2.972   1.987   4.679  0.3471  1.1871 -0.5439
 9727TIP3    H129145   2.922   2.013   4.601 -1.7362 -0.7858  0.0204
 9727TIP3    H229146   2.915   2.010   4.752  0.3165 -0.8837  0.1427
 9728TIP3   OH229147   3.733   5.617   1.598 -0.1496  0.0759 -0.1135
 9728TIP3    H129148   3.708   5.579   1.682 -3.1057  0.9790 -0.4543
 9728TIP3    H229149   3.821   5.651   1.612 -0.9781  1.2804  3.0504
 9729TIP3   OH229150   0.393   5.881   2.333 -0.1184  0.4831  0.5087
 9729TIP3    H129151   0.462   5.834   2.380  0.5598  1.0639  0.1148
 9729TIP3    H229152   0.435   5.911   2.252 -0.5231  1.7342  0.7324
 9730TIP3   OH229153   3.748   2.036   5.718  0.3906  0.0282 -0.7786
 9730TIP3    H129154   3.821   2.068   5.771  0.7597  0.1946 -1.3859
 9730TIP3    H229155   3.788   2.003   5.638 -0.2691  0.9344 -1.5035
 9731TIP3   OH229156   6.206   5.501   2.729 -0.4822  0.1082 -0.5176
 9731TIP3    H129157   6.159   5.441   2.672 -0.7805 -0.1983  0.0406
 9731TIP3    H229158   6.179   5.477   2.817 -0.8538  1.2588 -0.2916
 9732TIP3   OH229159   3.401   2.036   2.455 -0.0965  0.5189 -0.1776
 9732TIP3    H129160   3.325   2.056   2.510 -0.6587  1.2400 -1.1896
 9732TIP3    H229161   3.424   2.120   2.416 -0.4185 -0.1679 -1.9199
 9733TIP3   OH229162   1.085   6.473   3.251 -0.1367  0.4559 -0.2495
 9733TIP3    H129163   1.042   6.551   3.216 -1.1073  0.8433  1.6770
 9733TIP3    H229164   1.016   6.425   3.296  1.0574  0.1071  1.2943
 9734TIP3   OH229165   4.964   5.767   3.550  0.1819  0.1417  0.5219
 9734TIP3    H129166   4.979   5.861   3.556  0.7440  0.0029  1.9713
 9734TIP3    H229167   5.041   5.729   3.594  0.2503 -1.0144 -0.5621
 9735TIP3   OH229168   3.793   1.128   0.511  0.4348  0.2722 -0.1026
 9735TIP3    H129169   3.748   1.134   0.426  0.7313  1.4167 -0.2050
 9735TIP3    H229170   3.871   1.076   0.493 -0.3717 -0.9557 -0.1275
 9736TIP3   OH229171   6.365   0.992   5.200 -0.1771 -0.3918 -0.3002
 9736TIP3    H129172   6.416   1.070   5.176  1.1460 -0.8756  0.7880
 9736TIP3    H229173   6.400   0.923   5.143 -1.5016 -0.1799 -1.4219
 9737TIP3   OH229174   6.785   6.279   2.192  0.3488  0.4807 -0.3573
 9737TIP3    H129175   6.770   6.256   2.100  0.7966  1.1081 -0.5918
 9737TIP3    H229176   6.879   6.293   2.198  0.2444  1.0389  0.0574
 9738TIP3   OH229177   7.082   1.175   1.820 -0.2018 -0.4598 -0.1913
 9738TIP3    H129178   7.082   1.081   1.801 -1.7152 -0.9099  1.7105
 9738TIP3    H229179   7.066   1.181   1.914  0.7802  1.7058 -0.0933
 9739TIP3   OH229180   1.195   6.048   4.354 -0.7787 -0.0021  0.1372
 9739TIP3    H129181   1.282   6.086   4.365 -0.8733  0.0249  0.8002
 9739TIP3    H229182   1.210   5.954   4.351 -0.7791 -0.0259  0.7910
 9740TIP3   OH229183   2.324   3.050   4.378  0.1429 -0.0926  0.4791
 9740TIP3    H129184   2.367   3.027   4.295 -0.5466 -2.8899  0.8065
 9740TIP3    H229185   2.396   3.067   4.438  0.6690  2.8687 -0.8118
 9741TIP3   OH229186   1.186   1.270   2.073 -0.3482  0.1204 -0.4748
 9741TIP3    H129187   1.220   1.359   2.063 -1.0302  0.6512  1.4897
 9741TIP3    H229188   1.261   1.220   2.107 -0.6784  0.6464  1.1459
 9742TIP3   OH229189   5.807   2.100   2.726 -0.7757 -0.0560 -0.0948
 9742TIP3    H129190   5.866   2.099   2.651  0.0233  0.1371  0.5103
 9742TIP3    H229191   5.764   2.186   2.721  0.5714  0.6973  0.6190
 9743TIP3   OH229192   4.862   3.422   4.788 -0.4445  0.0878  0.4319
 9743TIP3    H129193   4.852   3.428   4.883 -0.6800 -0.9667  0.4784
 9743TIP3    H229194   4.781   3.459   4.752 -0.6172 -0.0778  0.6518
 9744TIP3   OH229195   1.608   2.250   1.309 -0.0295 -0.5420  0.9887
 9744TIP3    H129196   1.616   2.170   1.361  0.5944 -0.4533  1.0271
 9744TIP3    H229197   1.545   2.303   1.358  2.5718  0.7359  3.2254
 9745TIP3   OH229198   5.248   3.346   1.986 -0.3832  0.1172 -0.3224
 9745TIP3    H129199   5.254   3.328   1.892 -0.7001  0.1530 -0.3514
 9745TIP3    H229200   5.239   3.441   1.992 -0.1435  0.1358 -0.2434
 9746TIP3   OH229201   1.415   3.432   1.761 -0.5490  0.6340 -0.2552
 9746TIP3    H129202   1.330   3.388   1.766 -0.9393  1.1574 -1.6205
 9746TIP3    H229203   1.443   3.419   1.670  0.2855  1.4325 -0.1279
 9747TIP3   OH229204   3.441   5.656   1.425 -0.0410  0.0603 -0.1988
 9747TIP3    H129205   3.441   5.562   1.444  0.7684 -0.2183 -1.4372
 9747TIP3    H229206   3.530   5.674   1.394 -0.4993  0.9985 -1.0310
 9748TIP3   OH229207   5.974   1.768   1.987 -0.0023  0.3455 -0.7628
 9748TIP3    H129208   5.973   1.732   1.899 -0.4766 -1.6927  0.0104
 9748TIP3    H229209   5.897   1.730   2.029  1.7395 -1.0578  1.3755
 9749TIP3   OH229210   5.947   0.916   3.460  0.0376  0.0035 -0.6169
 9749TIP3    H129211   5.966   0.823   3.448 -0.9336 -0.4423  0.9557
 9749TIP3    H229212   5.856   0.918   3.490  0.6248  1.2899  1.2743
   7.21174   6.79930   5.88836   0.00000   0.00000  -2.40392   0.00000  -2.40392  -3.39964
