Title t= 466.00000 step= 233000
44389
    1GLY      N    1   6.501   3.881   1.706
    1GLY    HT1    2   6.489   3.821   1.621
    1GLY    HT2    3   6.495   3.821   1.790
    1GLY    HT3    4   6.591   3.933   1.699
    1GLY     CA    5   6.388   3.985   1.709
    1GLY    HA1    6   6.385   4.009   1.604
    1GLY    HA2    7   6.424   4.061   1.776
    1GLY      C    8   6.265   3.921   1.754
    1GLY      O    9   6.267   3.801   1.791
    2PRO      N   10   6.150   3.997   1.746
    2PRO     CD   11   6.150   4.143   1.712
    2PRO    HD1   12   6.170   4.153   1.603
    2PRO    HD2   13   6.239   4.186   1.763
    2PRO     CA   14   6.016   3.955   1.779
    2PRO     HA   15   6.022   3.943   1.886
    2PRO     CB   16   5.928   4.078   1.739
    2PRO    HB1   17   5.833   4.087   1.796
    2PRO    HB2   18   5.914   4.067   1.629
    2PRO     CG   19   6.017   4.201   1.758
    2PRO    HG1   20   5.991   4.286   1.692
    2PRO    HG2   21   6.019   4.239   1.863
    2PRO      C   22   5.961   3.821   1.731
    2PRO      O   23   5.998   3.778   1.621
    3GLY      N   24   5.882   3.757   1.816
    3GLY     HN   25   5.855   3.798   1.903
    3GLY     CA   26   5.823   3.622   1.790
    3GLY    HA1   27   5.749   3.641   1.714
    3GLY    HA2   28   5.778   3.597   1.885
    3GLY      C   29   5.900   3.499   1.733
    3GLY      O   30   6.026   3.502   1.736
    4ASP      N   31   5.821   3.396   1.689
    4ASP     HN   32   5.722   3.402   1.702
    4ASP     CA   33   5.881   3.263   1.643
    4ASP     HA   34   5.985   3.263   1.671
    4ASP     CB   35   5.798   3.151   1.709
    4ASP    HB1   36   5.829   3.050   1.677
    4ASP    HB2   37   5.689   3.154   1.691
    4ASP     CG   38   5.822   3.147   1.857
    4ASP    OD1   39   5.930   3.186   1.908
    4ASP    OD2   40   5.738   3.073   1.915
    4ASP      C   41   5.863   3.250   1.493
    4ASP      O   42   5.757   3.282   1.441
    5PRO      N   43   5.967   3.219   1.413
    5PRO     CD   44   6.100   3.188   1.465
    5PRO    HD1   45   6.093   3.095   1.525
    5PRO    HD2   46   6.145   3.272   1.522
    5PRO     CA   47   5.951   3.189   1.273
    5PRO     HA   48   5.959   3.286   1.226
    5PRO     CB   49   6.069   3.097   1.242
    5PRO    HB1   50   6.099   3.105   1.136
    5PRO    HB2   51   6.052   2.988   1.258
    5PRO     CG   52   6.180   3.152   1.334
    5PRO    HG1   53   6.256   3.080   1.370
    5PRO    HG2   54   6.221   3.242   1.283
    5PRO      C   55   5.830   3.121   1.225
    5PRO      O   56   5.789   3.018   1.276
    6GLY      N   57   5.767   3.182   1.120
    6GLY     HN   58   5.808   3.259   1.072
    6GLY     CA   59   5.636   3.132   1.068
    6GLY    HA1   60   5.611   3.035   1.109
    6GLY    HA2   61   5.647   3.136   0.961
    6GLY      C   62   5.518   3.215   1.103
    6GLY      O   63   5.495   3.291   1.195
    7SER      N   64   5.403   3.181   1.031
    7SER     HN   65   5.405   3.114   0.957
    7SER     CA   66   5.282   3.258   1.052
    7SER     HA   67   5.312   3.355   1.090
    7SER     CB   68   5.195   3.266   0.914
    7SER    HB1   69   5.105   3.325   0.940
    7SER    HB2   70   5.181   3.165   0.872
    7SER     OG   71   5.267   3.345   0.813
    7SER    HG1   72   5.356   3.312   0.804
    7SER      C   73   5.200   3.196   1.165
    7SER      O   74   5.198   3.076   1.178
    8GLY      N   75   5.122   3.282   1.239
    8GLY     HN   76   5.137   3.379   1.222
    8GLY     CA   77   5.007   3.252   1.321
    8GLY    HA1   78   4.957   3.346   1.338
    8GLY    HA2   79   5.042   3.207   1.413
    8GLY      C   80   4.907   3.152   1.265
    8GLY      O   81   4.881   3.152   1.144
    9ASN      N   82   4.849   3.069   1.355
    9ASN     HN   83   4.870   3.076   1.453
    9ASN     CA   84   4.766   2.951   1.325
    9ASN     HA   85   4.793   2.910   1.229
    9ASN     CB   86   4.803   2.851   1.435
    9ASN    HB1   87   4.769   2.880   1.537
    9ASN    HB2   88   4.913   2.841   1.445
    9ASN     CG   89   4.774   2.712   1.386
    9ASN    OD1   90   4.737   2.688   1.269
    9ASN    ND2   91   4.777   2.616   1.476
    9ASN   HD21   92   4.734   2.528   1.452
    9ASN   HD22   93   4.804   2.631   1.571
    9ASN      C   94   4.619   2.994   1.333
    9ASN      O   95   4.585   3.035   1.443
   10PRO      N   96   4.533   2.996   1.229
   10PRO     CD   97   4.565   2.936   1.102
   10PRO    HD1   98   4.563   2.825   1.106
   10PRO    HD2   99   4.656   2.981   1.057
   10PRO     CA  100   4.393   3.033   1.241
   10PRO     HA  101   4.401   3.140   1.252
   10PRO     CB  102   4.324   2.988   1.107
   10PRO    HB1  103   4.239   3.053   1.077
   10PRO    HB2  104   4.292   2.881   1.109
   10PRO     CG  105   4.448   2.985   1.011
   10PRO    HG1  106   4.427   2.915   0.927
   10PRO    HG2  107   4.477   3.089   0.986
   10PRO      C  108   4.312   2.975   1.352
   10PRO      O  109   4.318   2.855   1.372
   11GLY      N  110   4.234   3.054   1.427
   11GLY     HN  111   4.249   3.152   1.417
   11GLY     CA  112   4.156   3.001   1.542
   11GLY    HA1  113   4.137   3.081   1.612
   11GLY    HA2  114   4.211   2.927   1.598
   11GLY      C  115   4.020   2.938   1.504
   11GLY      O  116   3.957   2.956   1.403
   12SER      N  117   3.964   2.861   1.598
   12SER     HN  118   4.014   2.844   1.682
   12SER     CA  119   3.831   2.795   1.583
   12SER     HA  120   3.834   2.754   1.483
   12SER     CB  121   3.796   2.688   1.683
   12SER    HB1  122   3.863   2.600   1.670
   12SER    HB2  123   3.691   2.655   1.669
   12SER     OG  124   3.795   2.740   1.818
   12SER    HG1  125   3.886   2.751   1.846
   12SER      C  126   3.713   2.900   1.581
   12SER      O  127   3.609   2.875   1.517
   13GLY      N  128   3.733   3.012   1.656
   13GLY     HN  129   3.827   3.021   1.688
   13GLY     CA  130   3.630   3.101   1.698
   13GLY    HA1  131   3.599   3.143   1.604
   13GLY    HA2  132   3.678   3.164   1.773
   13GLY      C  133   3.510   3.040   1.769
   13GLY      O  134   3.515   2.921   1.809
   14ASP      N  135   3.399   3.116   1.785
   14ASP     HN  136   3.394   3.207   1.744
   14ASP     CA  137   3.278   3.076   1.862
   14ASP     HA  138   3.292   2.984   1.917
   14ASP     CB  139   3.233   3.198   1.946
   14ASP    HB1  140   3.127   3.198   1.978
   14ASP    HB2  141   3.232   3.285   1.878
   14ASP     CG  142   3.311   3.216   2.071
   14ASP    OD1  143   3.257   3.302   2.153
   14ASP    OD2  144   3.425   3.170   2.083
   14ASP      C  145   3.169   3.022   1.777
   14ASP      O  146   3.169   3.043   1.656
   15PRO      N  147   3.069   2.948   1.818
   15PRO     CD  148   3.058   2.891   1.950
   15PRO    HD1  149   3.083   2.972   2.022
   15PRO    HD2  150   3.118   2.798   1.958
   15PRO     CA  151   2.950   2.917   1.739
   15PRO     HA  152   2.971   2.876   1.641
   15PRO     CB  153   2.886   2.810   1.816
   15PRO    HB1  154   2.940   2.715   1.798
   15PRO    HB2  155   2.776   2.792   1.815
   15PRO     CG  156   2.918   2.847   1.959
   15PRO    HG1  157   2.844   2.916   2.005
   15PRO    HG2  158   2.917   2.756   2.023
   15PRO      C  159   2.859   3.030   1.713
   15PRO    OT1  160   2.871   3.131   1.782
   15PRO    OT2  161   2.764   3.018   1.625
   16SOD    SOD  162   3.910   5.192   0.414
   17SOD    SOD  163   0.797   3.048   1.750
   18SOD    SOD  164   3.301   7.376   3.860
   19SOD    SOD  165   7.375   5.355   3.666
   20SOD    SOD  166   2.779   2.051   3.303
   21SOD    SOD  167   6.576   0.664   5.028
   22SOD    SOD  168   4.475   5.455   4.011
   23SOD    SOD  169   2.094   7.074   4.261
   24SOD    SOD  170   6.471   2.699   6.070
   25SOD    SOD  171   5.211   6.558   5.967
   26SOD    SOD  172   2.031   3.738   5.184
   27SOD    SOD  173   0.632   5.124   2.344
   28SOD    SOD  174   7.492   0.849   4.654
   29SOD    SOD  175   4.637  -0.003   2.268
   30SOD    SOD  176   7.490   7.533   6.043
   31SOD    SOD  177   3.640   2.852   2.007
   32SOD    SOD  178   5.453   2.369   4.336
   33SOD    SOD  179   0.041   5.531   1.822
   34SOD    SOD  180   7.925   5.366   5.469
   35SOD    SOD  181   7.567   5.507   0.839
   36SOD    SOD  182   6.006   2.109   6.593
   37SOD    SOD  183   1.535   4.229   4.187
   38SOD    SOD  184   7.483   3.366   4.841
   39SOD    SOD  185   4.731   4.225   4.200
   40SOD    SOD  186   5.872   7.283   0.647
   41SOD    SOD  187   3.168   7.134   1.342
   42SOD    SOD  188   7.026   5.798   3.528
   43SOD    SOD  189   6.014   3.968   4.050
   44SOD    SOD  190   0.075   2.119   6.256
   45SOD    SOD  191   2.426   2.795   1.184
   46SOD    SOD  192   4.405   7.081   0.930
   47SOD    SOD  193   4.330   4.216   2.163
   48SOD    SOD  194   2.148   0.085   3.314
   49SOD    SOD  195   7.448   0.729   1.040
   50SOD    SOD  196   5.669   5.432   2.564
   51SOD    SOD  197   5.530   3.564   1.119
   52SOD    SOD  198   5.024   6.876   0.899
   53SOD    SOD  199   4.618   1.931   1.159
   54SOD    SOD  200   0.327   6.231   1.550
   55SOD    SOD  201   0.151   6.610   3.897
   56SOD    SOD  202   1.838   1.952   5.456
   57SOD    SOD  203   7.420   0.810   5.732
   58SOD    SOD  204   4.954   3.560   6.058
   59SOD    SOD  205   4.009   4.081   3.497
   60CLA    CLA  206   2.979   1.421   3.873
   61CLA    CLA  207   2.245   7.251   3.871
   62CLA    CLA  208  -0.002   2.497   6.539
   63CLA    CLA  209   3.223   2.599   2.566
   64CLA    CLA  210   7.275   2.689   6.422
   65CLA    CLA  211   0.497   5.001   5.337
   66CLA    CLA  212   8.114   7.181   0.032
   67CLA    CLA  213   3.472   7.276   3.667
   68CLA    CLA  214   4.561   5.017   4.238
   69CLA    CLA  215   1.238   4.469   2.113
   70CLA    CLA  216   1.306   2.434   4.871
   71CLA    CLA  217   3.202   6.650   6.050
   72CLA    CLA  218   6.527   1.189   5.797
   73CLA    CLA  219   7.897   5.235   1.029
   74CLA    CLA  220   7.769   5.093   5.770
   75CLA    CLA  221   7.424   3.547   1.160
   76CLA    CLA  222   3.855   0.779   5.627
   77CLA    CLA  223   0.257   0.760   1.906
   78CLA    CLA  224   3.310   2.141   5.089
   79CLA    CLA  225   7.006   7.571   6.708
   80CLA    CLA  226   2.889   1.354   0.813
   81CLA    CLA  227   4.225   1.324   3.342
   82CLA    CLA  228   0.447   3.606   4.157
   83CLA    CLA  229   6.820   5.940   6.597
   84CLA    CLA  230   7.298   5.111   4.119
   85CLA    CLA  231   6.515   4.244   2.638
   86CLA    CLA  232   6.386   7.753   4.519
   87CLA    CLA  233   1.848   6.707   1.098
   88CLA    CLA  234   8.077   5.078   2.399
   89CLA    CLA  235   1.497   7.360   3.821
   90CLA    CLA  236   7.442   5.790   3.042
   91CLA    CLA  237   7.328   5.938   1.990
   92CLA    CLA  238   2.252   1.696   2.634
   93CLA    CLA  239   7.572   3.618   1.940
   94CLA    CLA  240   3.609   2.533   3.565
   95CLA    CLA  241   4.300   5.489   3.809
   96CLA    CLA  242   5.977   1.724   4.796
   97CLA    CLA  243   7.299   1.512   1.025
   98CLA    CLA  244   6.939   3.312   2.317
   99CLA    CLA  245   2.542   6.486   5.194
  100CLA    CLA  246   2.782   5.878   4.879
  101CLA    CLA  247   5.438   2.630   4.898
  102TIP3   OH2  248   1.900   3.239   4.811
  102TIP3    H1  249   1.811   3.205   4.820
  102TIP3    H2  250   1.941   3.182   4.746
  103TIP3   OH2  251   6.887   4.381   4.634
  103TIP3    H1  252   6.961   4.424   4.678
  103TIP3    H2  253   6.846   4.451   4.584
  104TIP3   OH2  254   7.435   0.108   5.758
  104TIP3    H1  255   7.350   0.089   5.798
  104TIP3    H2  256   7.468   0.022   5.731
  105TIP3   OH2  257   3.237   4.967   4.984
  105TIP3    H1  258   3.210   4.982   4.893
  105TIP3    H2  259   3.259   5.054   5.017
  106TIP3   OH2  260   4.004   4.493   0.829
  106TIP3    H1  261   4.023   4.532   0.915
  106TIP3    H2  262   4.031   4.560   0.767
  107TIP3   OH2  263   4.485   6.439   1.400
  107TIP3    H1  264   4.424   6.505   1.433
  107TIP3    H2  265   4.530   6.408   1.478
  108TIP3   OH2  266   1.115   2.484   5.747
  108TIP3    H1  267   1.205   2.500   5.777
  108TIP3    H2  268   1.072   2.443   5.822
  109TIP3   OH2  269   2.374   4.809   0.211
  109TIP3    H1  270   2.457   4.789   0.255
  109TIP3    H2  271   2.308   4.801   0.280
  110TIP3   OH2  272   2.662   1.553   3.906
  110TIP3    H1  273   2.657   1.645   3.930
  110TIP3    H2  274   2.755   1.532   3.911
  111TIP3   OH2  275   2.353   4.050   0.380
  111TIP3    H1  276   2.272   4.002   0.400
  111TIP3    H2  277   2.379   4.089   0.463
  112TIP3   OH2  278   5.847   1.140   3.687
  112TIP3    H1  279   5.863   1.138   3.781
  112TIP3    H2  280   5.814   1.228   3.670
  113TIP3   OH2  281   6.671   2.138   5.389
  113TIP3    H1  282   6.621   2.057   5.381
  113TIP3    H2  283   6.737   2.119   5.456
  114TIP3   OH2  284   6.349   2.937   5.371
  114TIP3    H1  285   6.417   2.990   5.412
  114TIP3    H2  286   6.391   2.899   5.294
  115TIP3   OH2  287   2.339   4.101   0.128
  115TIP3    H1  288   2.324   4.108   0.222
  115TIP3    H2  289   2.431   4.126   0.116
  116TIP3   OH2  290   6.814   3.896   4.802
  116TIP3    H1  291   6.839   3.986   4.825
  116TIP3    H2  292   6.847   3.884   4.713
  117TIP3   OH2  293   3.432   2.009   3.781
  117TIP3    H1  294   3.372   1.964   3.721
  117TIP3    H2  295   3.484   1.939   3.820
  118TIP3   OH2  296   5.706   0.215   3.638
  118TIP3    H1  297   5.615   0.215   3.666
  118TIP3    H2  298   5.754   0.246   3.715
  119TIP3   OH2  299   6.675   6.582   1.857
  119TIP3    H1  300   6.721   6.664   1.873
  119TIP3    H2  301   6.585   6.609   1.839
  120TIP3   OH2  302   4.528   4.519   1.695
  120TIP3    H1  303   4.463   4.482   1.755
  120TIP3    H2  304   4.607   4.529   1.748
  121TIP3   OH2  305   3.190   5.964   0.071
  121TIP3    H1  306   3.225   6.052   0.085
  121TIP3    H2  307   3.267   5.907   0.066
  122TIP3   OH2  308   4.717   2.343   6.431
  122TIP3    H1  309   4.708   2.287   6.354
  122TIP3    H2  310   4.760   2.288   6.496
  123TIP3   OH2  311   5.666   0.773   3.574
  123TIP3    H1  312   5.713   0.693   3.555
  123TIP3    H2  313   5.708   0.840   3.520
  124TIP3   OH2  314   1.307   4.221   0.197
  124TIP3    H1  315   1.348   4.282   0.135
  124TIP3    H2  316   1.263   4.278   0.260
  125TIP3   OH2  317   3.843   5.129   3.852
  125TIP3    H1  318   3.909   5.198   3.851
  125TIP3    H2  319   3.891   5.049   3.831
  126TIP3   OH2  320   3.115   2.934   0.393
  126TIP3    H1  321   3.066   2.920   0.312
  126TIP3    H2  322   3.196   2.978   0.365
  127TIP3   OH2  323   7.271   5.050   0.892
  127TIP3    H1  324   7.202   4.991   0.921
  127TIP3    H2  325   7.347   4.994   0.879
  128TIP3   OH2  326   1.951   5.041   2.570
  128TIP3    H1  327   1.955   4.960   2.520
  128TIP3    H2  328   2.017   5.098   2.530
  129TIP3   OH2  329   0.697   6.731   6.179
  129TIP3    H1  330   0.756   6.806   6.181
  129TIP3    H2  331   0.754   6.656   6.162
  130TIP3   OH2  332   0.392   1.355   0.459
  130TIP3    H1  333   0.413   1.303   0.382
  130TIP3    H2  334   0.362   1.439   0.425
  131TIP3   OH2  335   5.377   5.345   6.252
  131TIP3    H1  336   5.294   5.384   6.228
  131TIP3    H2  337   5.385   5.361   6.346
  132TIP3   OH2  338   6.604   1.886   5.225
  132TIP3    H1  339   6.545   1.932   5.165
  132TIP3    H2  340   6.674   1.949   5.242
  133TIP3   OH2  341   6.688   2.247   6.406
  133TIP3    H1  342   6.742   2.324   6.387
  133TIP3    H2  343   6.736   2.201   6.476
  134TIP3   OH2  344   4.876   1.035   4.316
  134TIP3    H1  345   4.929   1.009   4.241
  134TIP3    H2  346   4.821   0.959   4.334
  135TIP3   OH2  347   1.850   7.632   0.462
  135TIP3    H1  348   1.846   7.686   0.384
  135TIP3    H2  349   1.871   7.545   0.431
  136TIP3   OH2  350   0.402   7.448   0.771
  136TIP3    H1  351   0.480   7.503   0.760
  136TIP3    H2  352   0.437   7.361   0.787
  137TIP3   OH2  353   5.908   4.505   6.204
  137TIP3    H1  354   5.965   4.431   6.180
  137TIP3    H2  355   5.840   4.505   6.137
  138TIP3   OH2  356   7.167   7.389   5.069
  138TIP3    H1  357   7.158   7.474   5.026
  138TIP3    H2  358   7.239   7.402   5.132
  139TIP3   OH2  359   6.355   4.411   1.654
  139TIP3    H1  360   6.350   4.351   1.580
  139TIP3    H2  361   6.445   4.444   1.653
  140TIP3   OH2  362   6.904   4.540   2.101
  140TIP3    H1  363   6.822   4.491   2.110
  140TIP3    H2  364   6.972   4.472   2.097
  141TIP3   OH2  365   6.981   2.128   0.816
  141TIP3    H1  366   6.983   2.204   0.759
  141TIP3    H2  367   6.956   2.163   0.902
  142TIP3   OH2  368   2.198   3.862   1.752
  142TIP3    H1  369   2.233   3.854   1.663
  142TIP3    H2  370   2.123   3.802   1.753
  143TIP3   OH2  371   7.184   2.444   4.763
  143TIP3    H1  372   7.180   2.432   4.668
  143TIP3    H2  373   7.094   2.432   4.792
  144TIP3   OH2  374   1.313   0.496   3.537
  144TIP3    H1  375   1.369   0.545   3.476
  144TIP3    H2  376   1.351   0.408   3.539
  145TIP3   OH2  377   5.785   2.863   0.922
  145TIP3    H1  378   5.856   2.844   0.984
  145TIP3    H2  379   5.811   2.819   0.841
  146TIP3   OH2  380   4.565   5.700   3.810
  146TIP3    H1  381   4.500   5.637   3.778
  146TIP3    H2  382   4.513   5.769   3.851
  147TIP3   OH2  383   4.989   7.571   6.482
  147TIP3    H1  384   5.028   7.615   6.407
  147TIP3    H2  385   4.950   7.641   6.534
  148TIP3   OH2  386   8.177   2.803   2.552
  148TIP3    H1  387   8.214   2.728   2.507
  148TIP3    H2  388   8.252   2.851   2.585
  149TIP3   OH2  389   7.441   3.202   5.382
  149TIP3    H1  390   7.432   3.125   5.438
  149TIP3    H2  391   7.533   3.201   5.355
  150TIP3   OH2  392   1.449   1.571   3.432
  150TIP3    H1  393   1.434   1.529   3.347
  150TIP3    H2  394   1.405   1.514   3.495
  151TIP3   OH2  395   7.279   0.464   3.470
  151TIP3    H1  396   7.362   0.453   3.424
  151TIP3    H2  397   7.258   0.376   3.503
  152TIP3   OH2  398   5.082   2.480   5.993
  152TIP3    H1  399   5.065   2.399   5.946
  152TIP3    H2  400   5.084   2.547   5.925
  153TIP3   OH2  401   3.517   5.669   5.602
  153TIP3    H1  402   3.541   5.761   5.610
  153TIP3    H2  403   3.515   5.637   5.692
  154TIP3   OH2  404   4.902   5.790   5.199
  154TIP3    H1  405   4.841   5.729   5.241
  154TIP3    H2  406   4.973   5.800   5.262
  155TIP3   OH2  407   2.506   7.133   6.284
  155TIP3    H1  408   2.509   7.040   6.307
  155TIP3    H2  409   2.525   7.179   6.366
  156TIP3   OH2  410   7.885   6.650   6.353
  156TIP3    H1  411   7.802   6.665   6.307
  156TIP3    H2  412   7.932   6.733   6.345
  157TIP3   OH2  413   0.834   6.610   3.856
  157TIP3    H1  414   0.833   6.665   3.934
  157TIP3    H2  415   0.923   6.616   3.823
  158TIP3   OH2  416   7.497   4.591   5.633
  158TIP3    H1  417   7.534   4.641   5.706
  158TIP3    H2  418   7.424   4.645   5.603
  159TIP3   OH2  419   6.296   0.608   1.699
  159TIP3    H1  420   6.286   0.521   1.662
  159TIP3    H2  421   6.390   0.626   1.694
  160TIP3   OH2  422   0.147   3.200   6.330
  160TIP3    H1  423   0.202   3.250   6.270
  160TIP3    H2  424   0.130   3.259   6.403
  161TIP3   OH2  425   7.102   4.335   6.625
  161TIP3    H1  426   7.170   4.402   6.632
  161TIP3    H2  427   7.020   4.382   6.644
  162TIP3   OH2  428   4.487   6.050   5.815
  162TIP3    H1  429   4.461   6.090   5.898
  162TIP3    H2  430   4.452   6.110   5.748
  163TIP3   OH2  431   5.926   5.682   2.262
  163TIP3    H1  432   5.885   5.637   2.336
  163TIP3    H2  433   6.019   5.663   2.271
  164TIP3   OH2  434   0.165   5.243   4.792
  164TIP3    H1  435   0.195   5.152   4.785
  164TIP3    H2  436   0.078   5.237   4.831
  165TIP3   OH2  437   5.591   3.371   3.921
  165TIP3    H1  438   5.678   3.379   3.961
  165TIP3    H2  439   5.547   3.453   3.942
  166TIP3   OH2  440   7.634   5.575   4.419
  166TIP3    H1  441   7.673   5.497   4.379
  166TIP3    H2  442   7.581   5.614   4.350
  167TIP3   OH2  443   1.799   3.284   5.087
  167TIP3    H1  444   1.835   3.208   5.132
  167TIP3    H2  445   1.846   3.287   5.004
  168TIP3   OH2  446   0.995   2.259   3.021
  168TIP3    H1  447   0.967   2.272   3.112
  168TIP3    H2  448   1.031   2.343   2.995
  169TIP3   OH2  449   4.413   7.624   3.117
  169TIP3    H1  450   4.416   7.613   3.022
  169TIP3    H2  451   4.322   7.607   3.141
  170TIP3   OH2  452   4.075   3.006   2.070
  170TIP3    H1  453   4.164   2.982   2.097
  170TIP3    H2  454   4.060   3.091   2.111
  171TIP3   OH2  455   5.504   2.240   5.628
  171TIP3    H1  456   5.540   2.194   5.703
  171TIP3    H2  457   5.413   2.258   5.651
  172TIP3   OH2  458   6.187   3.988   2.653
  172TIP3    H1  459   6.142   4.038   2.721
  172TIP3    H2  460   6.128   3.990   2.578
  173TIP3   OH2  461   7.998   5.824   2.025
  173TIP3    H1  462   8.025   5.915   2.010
  173TIP3    H2  463   7.903   5.829   2.036
  174TIP3   OH2  464   4.483   6.575   0.265
  174TIP3    H1  465   4.492   6.513   0.337
  174TIP3    H2  466   4.449   6.523   0.193
  175TIP3   OH2  467   7.595   7.397   4.460
  175TIP3    H1  468   7.596   7.386   4.555
  175TIP3    H2  469   7.559   7.485   4.447
  176TIP3   OH2  470   7.903   1.169   2.106
  176TIP3    H1  471   7.958   1.091   2.110
  176TIP3    H2  472   7.903   1.203   2.195
  177TIP3   OH2  473   5.274   6.400   0.248
  177TIP3    H1  474   5.334   6.335   0.283
  177TIP3    H2  475   5.222   6.352   0.183
  178TIP3   OH2  476   4.697   3.827   4.565
  178TIP3    H1  477   4.782   3.863   4.540
  178TIP3    H2  478   4.704   3.812   4.660
  179TIP3   OH2  479   4.630   7.105   0.844
  179TIP3    H1  480   4.674   7.190   0.848
  179TIP3    H2  481   4.665   7.064   0.765
  180TIP3   OH2  482   7.976   5.813   6.182
  180TIP3    H1  483   8.017   5.759   6.114
  180TIP3    H2  484   7.980   5.759   6.261
  181TIP3   OH2  485   5.141   4.763   2.505
  181TIP3    H1  486   5.136   4.850   2.465
  181TIP3    H2  487   5.229   4.759   2.544
  182TIP3   OH2  488   4.669   2.058   1.330
  182TIP3    H1  489   4.640   2.148   1.341
  182TIP3    H2  490   4.719   2.039   1.409
  183TIP3   OH2  491   3.273   1.261   0.142
  183TIP3    H1  492   3.347   1.263   0.203
  183TIP3    H2  493   3.204   1.310   0.186
  184TIP3   OH2  494   0.627   5.995   4.266
  184TIP3    H1  495   0.720   6.016   4.279
  184TIP3    H2  496   0.590   5.999   4.354
  185TIP3   OH2  497   4.210   3.909   1.665
  185TIP3    H1  498   4.242   3.993   1.630
  185TIP3    H2  499   4.288   3.861   1.690
  186TIP3   OH2  500   3.017   6.677   2.909
  186TIP3    H1  501   3.097   6.626   2.919
  186TIP3    H2  502   2.968   6.661   2.990
  187TIP3   OH2  503   1.308   7.125   2.953
  187TIP3    H1  504   1.303   7.108   2.859
  187TIP3    H2  505   1.218   7.115   2.984
  188TIP3   OH2  506   4.287   4.715   2.691
  188TIP3    H1  507   4.345   4.771   2.742
  188TIP3    H2  508   4.319   4.723   2.601
  189TIP3   OH2  509   4.395   5.835   5.015
  189TIP3    H1  510   4.343   5.782   4.954
  189TIP3    H2  511   4.444   5.770   5.066
  190TIP3   OH2  512   4.380   2.793   0.381
  190TIP3    H1  513   4.459   2.799   0.434
  190TIP3    H2  514   4.374   2.700   0.357
  191TIP3   OH2  515   7.666   1.460   6.249
  191TIP3    H1  516   7.709   1.404   6.314
  191TIP3    H2  517   7.587   1.491   6.292
  192TIP3   OH2  518   3.150   1.893   1.830
  192TIP3    H1  519   3.097   1.819   1.798
  192TIP3    H2  520   3.239   1.873   1.800
  193TIP3   OH2  521   5.643   6.047   5.095
  193TIP3    H1  522   5.721   6.002   5.062
  193TIP3    H2  523   5.586   5.977   5.125
  194TIP3   OH2  524   7.592   2.733   2.623
  194TIP3    H1  525   7.532   2.661   2.602
  194TIP3    H2  526   7.555   2.809   2.578
  195TIP3   OH2  527   2.556   3.672   0.687
  195TIP3    H1  528   2.547   3.710   0.600
  195TIP3    H2  529   2.496   3.598   0.687
  196TIP3   OH2  530   6.015   7.015   0.945
  196TIP3    H1  531   5.930   6.996   0.984
  196TIP3    H2  532   5.996   7.029   0.852
  197TIP3   OH2  533   1.239   7.540   3.840
  197TIP3    H1  534   1.317   7.487   3.857
  197TIP3    H2  535   1.260   7.587   3.759
  198TIP3   OH2  536   4.133   7.561   3.207
  198TIP3    H1  537   4.142   7.465   3.211
  198TIP3    H2  538   4.049   7.575   3.164
  199TIP3   OH2  539   6.321   5.883   1.530
  199TIP3    H1  540   6.294   5.956   1.586
  199TIP3    H2  541   6.288   5.805   1.575
  200TIP3   OH2  542   6.368   3.827   2.365
  200TIP3    H1  543   6.373   3.731   2.367
  200TIP3    H2  544   6.416   3.855   2.442
  201TIP3   OH2  545   4.332   5.063  -0.020
  201TIP3    H1  546   4.353   5.154  -0.001
  201TIP3    H2  547   4.248   5.066  -0.066
  202TIP3   OH2  548   6.255   2.469   6.348
  202TIP3    H1  549   6.307   2.430   6.419
  202TIP3    H2  550   6.169   2.427   6.355
  203TIP3   OH2  551   6.432   6.565   2.693
  203TIP3    H1  552   6.434   6.472   2.671
  203TIP3    H2  553   6.421   6.610   2.609
  204TIP3   OH2  554   6.513   2.188   0.389
  204TIP3    H1  555   6.560   2.122   0.440
  204TIP3    H2  556   6.471   2.139   0.318
  205TIP3   OH2  557   2.307   6.019   5.210
  205TIP3    H1  558   2.310   6.008   5.115
  205TIP3    H2  559   2.375   6.084   5.229
  206TIP3   OH2  560   7.514   6.372   5.541
  206TIP3    H1  561   7.573   6.447   5.543
  206TIP3    H2  562   7.434   6.406   5.501
  207TIP3   OH2  563   5.178   2.804   4.758
  207TIP3    H1  564   5.152   2.741   4.690
  207TIP3    H2  565   5.263   2.773   4.789
  208TIP3   OH2  566   3.536  -0.024   0.088
  208TIP3    H1  567   3.495  -0.007   0.003
  208TIP3    H2  568   3.491   0.035   0.149
  209TIP3   OH2  569   1.266   6.984   4.818
  209TIP3    H1  570   1.190   7.038   4.795
  209TIP3    H2  571   1.272   6.991   4.913
  210TIP3   OH2  572   7.550   7.293   2.427
  210TIP3    H1  573   7.524   7.201   2.428
  210TIP3    H2  574   7.629   7.295   2.372
  211TIP3   OH2  575   4.433   4.298   1.062
  211TIP3    H1  576   4.426   4.389   1.089
  211TIP3    H2  577   4.400   4.298   0.972
  212TIP3   OH2  578   5.764   6.483   4.641
  212TIP3    H1  579   5.711   6.477   4.721
  212TIP3    H2  580   5.791   6.574   4.637
  213TIP3   OH2  581   1.542   4.264   5.730
  213TIP3    H1  582   1.556   4.315   5.810
  213TIP3    H2  583   1.592   4.183   5.745
  214TIP3   OH2  584   4.823   6.362   0.825
  214TIP3    H1  585   4.895   6.306   0.853
  214TIP3    H2  586   4.863   6.422   0.762
  215TIP3   OH2  587   0.760   2.309   2.804
  215TIP3    H1  588   0.719   2.250   2.741
  215TIP3    H2  589   0.715   2.291   2.887
  216TIP3   OH2  590   7.416   2.349   4.915
  216TIP3    H1  591   7.373   2.265   4.925
  216TIP3    H2  592   7.378   2.386   4.835
  217TIP3   OH2  593   1.520   5.988   0.243
  217TIP3    H1  594   1.552   5.933   0.314
  217TIP3    H2  595   1.445   6.035   0.282
  218TIP3   OH2  596   8.145   3.421   2.559
  218TIP3    H1  597   8.199   3.480   2.507
  218TIP3    H2  598   8.057   3.459   2.554
  219TIP3   OH2  599   5.112   5.034   1.864
  219TIP3    H1  600   5.179   4.966   1.873
  219TIP3    H2  601   5.035   4.988   1.830
  220TIP3   OH2  602   7.375   0.499   6.646
  220TIP3    H1  603   7.374   0.592   6.671
  220TIP3    H2  604   7.456   0.465   6.684
  221TIP3   OH2  605   2.997   3.438   2.084
  221TIP3    H1  606   2.931   3.372   2.065
  221TIP3    H2  607   3.078   3.388   2.098
  222TIP3   OH2  608   5.549   6.296   6.700
  222TIP3    H1  609   5.628   6.261   6.660
  222TIP3    H2  610   5.478   6.268   6.642
  223TIP3   OH2  611   2.528   0.360   5.446
  223TIP3    H1  612   2.517   0.356   5.351
  223TIP3    H2  613   2.623   0.361   5.459
  224TIP3   OH2  614   4.580   5.095   1.417
  224TIP3    H1  615   4.657   5.117   1.469
  224TIP3    H2  616   4.579   5.000   1.414
  225TIP3   OH2  617   3.819   6.163   6.141
  225TIP3    H1  618   3.751   6.122   6.195
  225TIP3    H2  619   3.868   6.217   6.203
  226TIP3   OH2  620   6.508   3.764   0.124
  226TIP3    H1  621   6.493   3.670   0.116
  226TIP3    H2  622   6.516   3.780   0.218
  227TIP3   OH2  623   1.440   1.496   3.153
  227TIP3    H1  624   1.422   1.587   3.178
  227TIP3    H2  625   1.487   1.503   3.070
  228TIP3   OH2  626   0.815   6.286   0.075
  228TIP3    H1  627   0.757   6.358   0.098
  228TIP3    H2  628   0.902   6.325   0.070
  229TIP3   OH2  629   1.518   0.498   1.015
  229TIP3    H1  630   1.588   0.509   1.079
  229TIP3    H2  631   1.475   0.416   1.040
  230TIP3   OH2  632   8.109   4.713   1.511
  230TIP3    H1  633   8.039   4.766   1.548
  230TIP3    H2  634   8.154   4.676   1.587
  231TIP3   OH2  635   3.417   4.783   3.682
  231TIP3    H1  636   3.478   4.854   3.702
  231TIP3    H2  637   3.331   4.825   3.679
  232TIP3   OH2  638   7.085   0.383   4.605
  232TIP3    H1  639   7.075   0.291   4.581
  232TIP3    H2  640   7.002   0.424   4.579
  233TIP3   OH2  641   1.164   5.283   2.043
  233TIP3    H1  642   1.222   5.209   2.058
  233TIP3    H2  643   1.130   5.268   1.954
  234TIP3   OH2  644   1.872   6.462   6.571
  234TIP3    H1  645   1.875   6.434   6.479
  234TIP3    H2  646   1.871   6.381   6.621
  235TIP3   OH2  647   1.711   5.043   4.211
  235TIP3    H1  648   1.700   4.992   4.291
  235TIP3    H2  649   1.705   4.977   4.141
  236TIP3   OH2  650   0.054   2.158   2.724
  236TIP3    H1  651   0.070   2.104   2.647
  236TIP3    H2  652  -0.024   2.121   2.765
  237TIP3   OH2  653   3.473   5.449   3.247
  237TIP3    H1  654   3.394   5.503   3.254
  237TIP3    H2  655   3.474   5.399   3.328
  238TIP3   OH2  656   7.892   5.357   4.709
  238TIP3    H1  657   7.901   5.263   4.690
  238TIP3    H2  658   7.823   5.387   4.649
  239TIP3   OH2  659   1.587   3.800   2.836
  239TIP3    H1  660   1.615   3.819   2.926
  239TIP3    H2  661   1.640   3.858   2.782
  240TIP3   OH2  662   1.770   0.929   0.721
  240TIP3    H1  663   1.683   0.916   0.682
  240TIP3    H2  664   1.823   0.963   0.650
  241TIP3   OH2  665   5.509   5.895   6.640
  241TIP3    H1  666   5.548   5.922   6.556
  241TIP3    H2  667   5.579   5.907   6.704
  242TIP3   OH2  668   3.483   7.341   4.885
  242TIP3    H1  669   3.488   7.421   4.937
  242TIP3    H2  670   3.572   7.305   4.888
  243TIP3   OH2  671   1.191   2.135   3.708
  243TIP3    H1  672   1.279   2.112   3.678
  243TIP3    H2  673   1.142   2.152   3.627
  244TIP3   OH2  674   1.073   1.056   6.375
  244TIP3    H1  675   1.117   0.999   6.313
  244TIP3    H2  676   1.094   1.145   6.346
  245TIP3   OH2  677   6.499   4.078   0.725
  245TIP3    H1  678   6.591   4.092   0.704
  245TIP3    H2  679   6.499   4.016   0.798
  246TIP3   OH2  680   2.561   0.082   0.158
  246TIP3    H1  681   2.564   0.007   0.218
  246TIP3    H2  682   2.470   0.110   0.159
  247TIP3   OH2  683   5.502   0.153   4.378
  247TIP3    H1  684   5.477   0.137   4.469
  247TIP3    H2  685   5.512   0.248   4.372
  248TIP3   OH2  686   3.394   3.026   6.569
  248TIP3    H1  687   3.328   2.963   6.540
  248TIP3    H2  688   3.369   3.108   6.526
  249TIP3   OH2  689   4.111   2.079   3.700
  249TIP3    H1  690   4.090   2.017   3.630
  249TIP3    H2  691   4.180   2.036   3.750
  250TIP3   OH2  692   4.837   7.339   6.391
  250TIP3    H1  693   4.874   7.427   6.396
  250TIP3    H2  694   4.767   7.339   6.457
  251TIP3   OH2  695   5.861   5.482   6.021
  251TIP3    H1  696   5.771   5.451   6.015
  251TIP3    H2  697   5.912   5.417   5.972
  252TIP3   OH2  698   1.868   0.690   1.112
  252TIP3    H1  699   1.820   0.748   1.054
  252TIP3    H2  700   1.802   0.655   1.172
  253TIP3   OH2  701   6.590   6.347   4.471
  253TIP3    H1  702   6.533   6.416   4.505
  253TIP3    H2  703   6.663   6.343   4.533
  254TIP3   OH2  704   4.681   3.982   3.375
  254TIP3    H1  705   4.593   3.996   3.340
  254TIP3    H2  706   4.695   4.055   3.435
  255TIP3   OH2  707   8.122   0.366   3.293
  255TIP3    H1  708   8.091   0.377   3.203
  255TIP3    H2  709   8.059   0.415   3.346
  256TIP3   OH2  710   2.446   1.085   1.492
  256TIP3    H1  711   2.527   1.137   1.497
  256TIP3    H2  712   2.418   1.095   1.401
  257TIP3   OH2  713   2.403   3.063   6.590
  257TIP3    H1  714   2.309   3.056   6.607
  257TIP3    H2  715   2.414   3.151   6.554
  258TIP3   OH2  716   3.643   5.384   1.957
  258TIP3    H1  717   3.662   5.457   1.898
  258TIP3    H2  718   3.572   5.336   1.914
  259TIP3   OH2  719   4.518   3.949   2.733
  259TIP3    H1  720   4.425   3.926   2.734
  259TIP3    H2  721   4.519   4.044   2.726
  260TIP3   OH2  722   2.526   1.622   3.390
  260TIP3    H1  723   2.528   1.630   3.486
  260TIP3    H2  724   2.519   1.527   3.375
  261TIP3   OH2  725   3.569   3.730   3.954
  261TIP3    H1  726   3.509   3.709   4.026
  261TIP3    H2  727   3.523   3.797   3.903
  262TIP3   OH2  728   4.351   6.579   3.987
  262TIP3    H1  729   4.272   6.632   3.976
  262TIP3    H2  730   4.393   6.613   4.066
  263TIP3   OH2  731   8.298   2.731   4.546
  263TIP3    H1  732   8.305   2.821   4.515
  263TIP3    H2  733   8.228   2.733   4.611
  264TIP3   OH2  734   4.288   7.543   1.859
  264TIP3    H1  735   4.318   7.483   1.928
  264TIP3    H2  736   4.294   7.630   1.900
  265TIP3   OH2  737   2.008   6.522   5.452
  265TIP3    H1  738   2.093   6.480   5.464
  265TIP3    H2  739   2.029   6.607   5.412
  266TIP3   OH2  740   6.895   0.504   6.746
  266TIP3    H1  741   6.935   0.577   6.793
  266TIP3    H2  742   6.919   0.518   6.655
  267TIP3   OH2  743   6.673   1.065   4.422
  267TIP3    H1  744   6.694   1.103   4.337
  267TIP3    H2  745   6.582   1.091   4.438
  268TIP3   OH2  746   7.040   2.589   4.549
  268TIP3    H1  747   6.993   2.526   4.494
  268TIP3    H2  748   7.132   2.567   4.538
  269TIP3   OH2  749   2.598   4.887   0.777
  269TIP3    H1  750   2.576   4.943   0.852
  269TIP3    H2  751   2.658   4.822   0.812
  270TIP3   OH2  752   1.209   7.310   3.422
  270TIP3    H1  753   1.264   7.255   3.367
  270TIP3    H2  754   1.242   7.295   3.511
  271TIP3   OH2  755   3.478   3.903   3.771
  271TIP3    H1  756   3.524   3.987   3.773
  271TIP3    H2  757   3.467   3.883   3.678
  272TIP3   OH2  758   4.507   6.324   6.532
  272TIP3    H1  759   4.524   6.279   6.449
  272TIP3    H2  760   4.504   6.254   6.597
  273TIP3   OH2  761   8.269   1.225   2.183
  273TIP3    H1  762   8.249   1.140   2.224
  273TIP3    H2  763   8.261   1.208   2.089
  274TIP3   OH2  764   0.231   6.179   6.270
  274TIP3    H1  765   0.151   6.140   6.305
  274TIP3    H2  766   0.300   6.118   6.294
  275TIP3   OH2  767   3.018   6.473   0.499
  275TIP3    H1  768   2.924   6.481   0.490
  275TIP3    H2  769   3.048   6.439   0.415
  276TIP3   OH2  770   1.348   5.584   1.935
  276TIP3    H1  771   1.302   5.522   1.879
  276TIP3    H2  772   1.352   5.665   1.883
  277TIP3   OH2  773   7.759   7.262   4.756
  277TIP3    H1  774   7.852   7.276   4.742
  277TIP3    H2  775   7.737   7.187   4.701
  278TIP3   OH2  776   7.017   6.128   0.439
  278TIP3    H1  777   7.029   6.143   0.532
  278TIP3    H2  778   6.932   6.083   0.433
  279TIP3   OH2  779   3.083   6.928   6.119
  279TIP3    H1  780   3.130   6.854   6.080
  279TIP3    H2  781   3.144   6.964   6.183
  280TIP3   OH2  782   6.085   5.804   0.312
  280TIP3    H1  783   6.045   5.879   0.355
  280TIP3    H2  784   6.169   5.793   0.357
  281TIP3   OH2  785   3.526   5.440   6.479
  281TIP3    H1  786   3.534   5.476   6.390
  281TIP3    H2  787   3.528   5.345   6.467
  282TIP3   OH2  788   7.368   6.914   5.848
  282TIP3    H1  789   7.379   6.984   5.784
  282TIP3    H2  790   7.276   6.919   5.874
  283TIP3   OH2  791   5.957   5.178   2.729
  283TIP3    H1  792   5.947   5.132   2.812
  283TIP3    H2  793   6.052   5.177   2.712
  284TIP3   OH2  794   8.178   3.057   4.232
  284TIP3    H1  795   8.253   3.070   4.174
  284TIP3    H2  796   8.146   2.969   4.210
  285TIP3   OH2  797   0.566   6.661   2.554
  285TIP3    H1  798   0.556   6.567   2.539
  285TIP3    H2  799   0.633   6.688   2.492
  286TIP3   OH2  800   2.801   4.548   2.904
  286TIP3    H1  801   2.840   4.461   2.902
  286TIP3    H2  802   2.810   4.576   2.995
  287TIP3   OH2  803   6.417   6.652   5.738
  287TIP3    H1  804   6.327   6.627   5.761
  287TIP3    H2  805   6.469   6.629   5.815
  288TIP3   OH2  806   8.091   7.159   6.316
  288TIP3    H1  807   8.174   7.199   6.290
  288TIP3    H2  808   8.097   7.153   6.412
  289TIP3   OH2  809   1.195   2.008   2.668
  289TIP3    H1  810   1.168   1.939   2.609
  289TIP3    H2  811   1.291   2.003   2.670
  290TIP3   OH2  812   0.338   4.719   2.507
  290TIP3    H1  813   0.299   4.639   2.471
  290TIP3    H2  814   0.308   4.721   2.598
  291TIP3   OH2  815   2.908   4.374   0.702
  291TIP3    H1  816   2.950   4.303   0.751
  291TIP3    H2  817   2.981   4.428   0.671
  292TIP3   OH2  818   4.449   0.021   5.799
  292TIP3    H1  819   4.508   0.025   5.723
  292TIP3    H2  820   4.497  -0.030   5.863
  293TIP3   OH2  821   0.932   5.797   0.091
  293TIP3    H1  822   0.918   5.861   0.021
  293TIP3    H2  823   0.945   5.849   0.169
  294TIP3   OH2  824   0.164   1.787   4.684
  294TIP3    H1  825   0.218   1.832   4.749
  294TIP3    H2  826   0.083   1.838   4.681
  295TIP3   OH2  827   3.101   4.923   3.651
  295TIP3    H1  828   3.089   4.951   3.741
  295TIP3    H2  829   3.085   4.828   3.652
  296TIP3   OH2  830   5.745   3.732   3.789
  296TIP3    H1  831   5.652   3.746   3.802
  296TIP3    H2  832   5.773   3.802   3.731
  297TIP3   OH2  833   6.019   7.398   4.689
  297TIP3    H1  834   6.080   7.436   4.752
  297TIP3    H2  835   6.023   7.304   4.705
  298TIP3   OH2  836   3.889   3.867   4.459
  298TIP3    H1  837   3.810   3.851   4.407
  298TIP3    H2  838   3.951   3.906   4.397
  299TIP3   OH2  839   0.998   3.376   3.859
  299TIP3    H1  840   0.964   3.291   3.833
  299TIP3    H2  841   0.944   3.439   3.810
  300TIP3   OH2  842   6.322   2.372   2.035
  300TIP3    H1  843   6.412   2.401   2.026
  300TIP3    H2  844   6.328   2.277   2.046
  301TIP3   OH2  845   0.016   1.426   4.377
  301TIP3    H1  846   0.054   1.513   4.393
  301TIP3    H2  847   0.066   1.367   4.434
  302TIP3   OH2  848   7.714   3.683   2.499
  302TIP3    H1  849   7.718   3.768   2.543
  302TIP3    H2  850   7.649   3.695   2.429
  303TIP3   OH2  851   6.073   2.479   1.424
  303TIP3    H1  852   6.123   2.442   1.352
  303TIP3    H2  853   5.986   2.439   1.417
  304TIP3   OH2  854   5.417   6.196   0.372
  304TIP3    H1  855   5.508   6.216   0.392
  304TIP3    H2  856   5.411   6.101   0.380
  305TIP3   OH2  857   7.110   6.345   5.004
  305TIP3    H1  858   7.082   6.309   5.088
  305TIP3    H2  859   7.204   6.358   5.014
  306TIP3   OH2  860   3.464   0.849   2.663
  306TIP3    H1  861   3.502   0.927   2.623
  306TIP3    H2  862   3.374   0.874   2.684
  307TIP3   OH2  863   4.785   2.352   4.113
  307TIP3    H1  864   4.705   2.302   4.097
  307TIP3    H2  865   4.823   2.312   4.192
  308TIP3   OH2  866   3.928   7.140   2.567
  308TIP3    H1  867   3.885   7.056   2.548
  308TIP3    H2  868   3.977   7.160   2.488
  309TIP3   OH2  869   7.941   1.730   4.206
  309TIP3    H1  870   7.901   1.743   4.120
  309TIP3    H2  871   7.933   1.636   4.222
  310TIP3   OH2  872   0.346   6.932   5.513
  310TIP3    H1  873   0.317   7.013   5.471
  310TIP3    H2  874   0.305   6.862   5.461
  311TIP3   OH2  875   6.622   6.729   0.749
  311TIP3    H1  876   6.605   6.638   0.725
  311TIP3    H2  877   6.549   6.752   0.806
  312TIP3   OH2  878   3.417   0.395   3.511
  312TIP3    H1  879   3.353   0.367   3.446
  312TIP3    H2  880   3.388   0.482   3.538
  313TIP3   OH2  881   0.281   6.034   4.219
  313TIP3    H1  882   0.295   6.120   4.179
  313TIP3    H2  883   0.314   5.972   4.154
  314TIP3   OH2  884   1.176   6.780   3.877
  314TIP3    H1  885   1.096   6.776   3.930
  314TIP3    H2  886   1.247   6.784   3.940
  315TIP3   OH2  887   3.392   3.558   4.398
  315TIP3    H1  888   3.430   3.484   4.446
  315TIP3    H2  889   3.310   3.525   4.363
  316TIP3   OH2  890   3.036   0.227   5.354
  316TIP3    H1  891   2.983   0.206   5.278
  316TIP3    H2  892   3.122   0.247   5.318
  317TIP3   OH2  893   3.342   5.068   4.435
  317TIP3    H1  894   3.407   5.120   4.483
  317TIP3    H2  895   3.389   5.033   4.360
  318TIP3   OH2  896   7.897   5.445   6.599
  318TIP3    H1  897   7.936   5.367   6.561
  318TIP3    H2  898   7.809   5.417   6.626
  319TIP3   OH2  899   1.023   0.989   1.908
  319TIP3    H1  900   1.113   1.002   1.879
  319TIP3    H2  901   0.973   1.054   1.859
  320TIP3   OH2  902   0.614   0.108   2.451
  320TIP3    H1  903   0.639   0.183   2.396
  320TIP3    H2  904   0.528   0.083   2.418
  321TIP3   OH2  905   7.297   6.194   0.763
  321TIP3    H1  906   7.283   6.288   0.776
  321TIP3    H2  907   7.208   6.158   0.760
  322TIP3   OH2  908   2.889   1.987   4.740
  322TIP3    H1  909   2.982   1.985   4.763
  322TIP3    H2  910   2.875   2.073   4.701
  323TIP3   OH2  911   0.666   6.645   4.142
  323TIP3    H1  912   0.619   6.714   4.188
  323TIP3    H2  913   0.731   6.614   4.205
  324TIP3   OH2  914   4.153   2.338   6.038
  324TIP3    H1  915   4.069   2.385   6.038
  324TIP3    H2  916   4.139   2.264   5.979
  325TIP3   OH2  917   4.639   6.112   1.871
  325TIP3    H1  918   4.653   6.019   1.858
  325TIP3    H2  919   4.724   6.145   1.901
  326TIP3   OH2  920   6.920   2.451   3.444
  326TIP3    H1  921   6.990   2.435   3.381
  326TIP3    H2  922   6.912   2.547   3.447
  327TIP3   OH2  923   6.597   3.066   4.448
  327TIP3    H1  924   6.680   3.113   4.450
  327TIP3    H2  925   6.622   2.973   4.452
  328TIP3   OH2  926   1.731   6.176   3.529
  328TIP3    H1  927   1.738   6.261   3.573
  328TIP3    H2  928   1.637   6.165   3.514
  329TIP3   OH2  929   3.176   3.473   2.807
  329TIP3    H1  930   3.194   3.394   2.756
  329TIP3    H2  931   3.242   3.536   2.776
  330TIP3   OH2  932   1.855   2.211   4.386
  330TIP3    H1  933   1.773   2.179   4.350
  330TIP3    H2  934   1.830   2.260   4.464
  331TIP3   OH2  935   3.739   1.744   1.621
  331TIP3    H1  936   3.705   1.718   1.706
  331TIP3    H2  937   3.745   1.840   1.625
  332TIP3   OH2  938   0.073   1.116   5.634
  332TIP3    H1  939   0.084   1.143   5.725
  332TIP3    H2  940   0.113   1.186   5.582
  333TIP3   OH2  941   4.726   5.584   1.108
  333TIP3    H1  942   4.748   5.655   1.048
  333TIP3    H2  943   4.702   5.511   1.051
  334TIP3   OH2  944   3.692   1.440   4.624
  334TIP3    H1  945   3.684   1.519   4.572
  334TIP3    H2  946   3.725   1.470   4.709
  335TIP3   OH2  947   6.772   6.093   5.953
  335TIP3    H1  948   6.857   6.052   5.938
  335TIP3    H2  949   6.718   6.025   5.993
  336TIP3   OH2  950   5.626   7.147   2.382
  336TIP3    H1  951   5.575   7.125   2.460
  336TIP3    H2  952   5.626   7.067   2.330
  337TIP3   OH2  953   0.861   6.051   3.367
  337TIP3    H1  954   0.915   5.994   3.312
  337TIP3    H2  955   0.917   6.126   3.386
  338TIP3   OH2  956   6.558   0.776   3.406
  338TIP3    H1  957   6.511   0.713   3.461
  338TIP3    H2  958   6.531   0.862   3.440
  339TIP3   OH2  959   7.545   4.590   2.932
  339TIP3    H1  960   7.620   4.649   2.930
  339TIP3    H2  961   7.561   4.527   2.862
  340TIP3   OH2  962   3.494   2.109   6.706
  340TIP3    H1  963   3.482   2.015   6.697
  340TIP3    H2  964   3.575   2.128   6.658
  341TIP3   OH2  965   1.805   3.394   1.892
  341TIP3    H1  966   1.839   3.306   1.881
  341TIP3    H2  967   1.784   3.401   1.986
  342TIP3   OH2  968   7.825   7.510   3.695
  342TIP3    H1  969   7.884   7.568   3.744
  342TIP3    H2  970   7.744   7.510   3.747
  343TIP3   OH2  971   3.150   2.631   4.373
  343TIP3    H1  972   3.120   2.611   4.284
  343TIP3    H2  973   3.245   2.641   4.364
  344TIP3   OH2  974   5.416   3.536   5.674
  344TIP3    H1  975   5.350   3.595   5.635
  344TIP3    H2  976   5.492   3.544   5.617
  345TIP3   OH2  977   5.876   4.497   2.952
  345TIP3    H1  978   5.807   4.491   2.887
  345TIP3    H2  979   5.924   4.415   2.945
  346TIP3   OH2  980   6.115   0.504   5.188
  346TIP3    H1  981   6.170   0.459   5.253
  346TIP3    H2  982   6.048   0.439   5.164
  347TIP3   OH2  983   5.548   1.816   5.240
  347TIP3    H1  984   5.542   1.897   5.189
  347TIP3    H2  985   5.481   1.760   5.202
  348TIP3   OH2  986   0.381   0.788   1.542
  348TIP3    H1  987   0.354   0.699   1.565
  348TIP3    H2  988   0.301   0.839   1.548
  349TIP3   OH2  989   0.342   6.714   2.332
  349TIP3    H1  990   0.333   6.658   2.409
  349TIP3    H2  991   0.261   6.700   2.283
  350TIP3   OH2  992   0.394   6.484   1.628
  350TIP3    H1  993   0.366   6.512   1.715
  350TIP3    H2  994   0.401   6.566   1.578
  351TIP3   OH2  995   3.146   3.861   6.355
  351TIP3    H1  996   3.130   3.930   6.291
  351TIP3    H2  997   3.220   3.893   6.406
  352TIP3   OH2  998   5.412   5.309   4.882
  352TIP3    H1  999   5.483   5.330   4.822
  352TIP3    H2 1000   5.454   5.302   4.968
  353TIP3   OH2 1001   3.849   1.235   6.512
  353TIP3    H1 1002   3.843   1.310   6.453
  353TIP3    H2 1003   3.943   1.217   6.518
  354TIP3   OH2 1004   0.798   7.299   1.439
  354TIP3    H1 1005   0.741   7.232   1.475
  354TIP3    H2 1006   0.881   7.287   1.484
  355TIP3   OH2 1007   4.208   5.856   6.421
  355TIP3    H1 1008   4.172   5.853   6.510
  355TIP3    H2 1009   4.274   5.924   6.424
  356TIP3   OH2 1010   6.867   2.483   2.636
  356TIP3    H1 1011   6.839   2.411   2.579
  356TIP3    H2 1012   6.829   2.462   2.721
  357TIP3   OH2 1013   3.223   3.028   6.178
  357TIP3    H1 1014   3.137   3.006   6.213
  357TIP3    H2 1015   3.244   3.113   6.217
  358TIP3   OH2 1016   6.431   3.474   5.875
  358TIP3    H1 1017   6.394   3.507   5.957
  358TIP3    H2 1018   6.487   3.546   5.844
  359TIP3   OH2 1019   3.743   2.620   5.879
  359TIP3    H1 1020   3.677   2.655   5.938
  359TIP3    H2 1021   3.765   2.694   5.822
  360TIP3   OH2 1022   4.076   6.316   3.941
  360TIP3    H1 1023   4.076   6.222   3.959
  360TIP3    H2 1024   3.987   6.335   3.912
  361TIP3   OH2 1025   1.649   6.216   1.297
  361TIP3    H1 1026   1.659   6.136   1.246
  361TIP3    H2 1027   1.737   6.236   1.327
  362TIP3   OH2 1028   6.849   7.730   2.089
  362TIP3    H1 1029   6.823   7.777   2.168
  362TIP3    H2 1030   6.927   7.681   2.116
  363TIP3   OH2 1031   8.016   2.102   1.519
  363TIP3    H1 1032   7.961   2.093   1.441
  363TIP3    H2 1033   7.989   2.030   1.576
  364TIP3   OH2 1034   7.239   5.725   3.506
  364TIP3    H1 1035   7.294   5.658   3.467
  364TIP3    H2 1036   7.298   5.800   3.520
  365TIP3   OH2 1037   3.932   1.400   3.448
  365TIP3    H1 1038   3.950   1.365   3.535
  365TIP3    H2 1039   4.015   1.395   3.402
  366TIP3   OH2 1040   3.639   5.049   2.769
  366TIP3    H1 1041   3.688   5.100   2.704
  366TIP3    H2 1042   3.548   5.079   2.759
  367TIP3   OH2 1043   2.785   0.045   3.102
  367TIP3    H1 1044   2.871   0.006   3.083
  367TIP3    H2 1045   2.782   0.122   3.046
  368TIP3   OH2 1046   4.151   0.451   3.585
  368TIP3    H1 1047   4.148   0.456   3.680
  368TIP3    H2 1048   4.101   0.373   3.563
  369TIP3   OH2 1049   6.372   3.489   3.297
  369TIP3    H1 1050   6.278   3.505   3.292
  369TIP3    H2 1051   6.391   3.485   3.391
  370TIP3   OH2 1052   7.702   5.424   2.928
  370TIP3    H1 1053   7.658   5.341   2.912
  370TIP3    H2 1054   7.790   5.412   2.891
  371TIP3   OH2 1055   2.129   4.638   0.105
  371TIP3    H1 1056   2.039   4.608   0.096
  371TIP3    H2 1057   2.175   4.565   0.147
  372TIP3   OH2 1058   3.056   2.467   3.478
  372TIP3    H1 1059   3.067   2.545   3.423
  372TIP3    H2 1060   3.139   2.421   3.469
  373TIP3   OH2 1061   6.017   4.827   6.588
  373TIP3    H1 1062   5.972   4.848   6.506
  373TIP3    H2 1063   6.097   4.879   6.586
  374TIP3   OH2 1064   6.274   6.252   4.284
  374TIP3    H1 1065   6.233   6.337   4.298
  374TIP3    H2 1066   6.320   6.262   4.201
  375TIP3   OH2 1067   7.568   6.078   4.543
  375TIP3    H1 1068   7.639   6.044   4.490
  375TIP3    H2 1069   7.528   6.001   4.584
  376TIP3   OH2 1070   6.271   4.844   0.349
  376TIP3    H1 1071   6.272   4.893   0.432
  376TIP3    H2 1072   6.324   4.767   0.367
  377TIP3   OH2 1073   5.895   7.207   2.397
  377TIP3    H1 1074   5.892   7.302   2.412
  377TIP3    H2 1075   5.803   7.180   2.398
  378TIP3   OH2 1076   0.968   3.207   6.234
  378TIP3    H1 1077   0.974   3.128   6.287
  378TIP3    H2 1078   0.966   3.279   6.298
  379TIP3   OH2 1079   6.422   7.678   1.345
  379TIP3    H1 1080   6.439   7.675   1.439
  379TIP3    H2 1081   6.504   7.650   1.305
  380TIP3   OH2 1082   2.876   7.684   1.686
  380TIP3    H1 1083   2.947   7.624   1.707
  380TIP3    H2 1084   2.830   7.697   1.769
  381TIP3   OH2 1085   5.259   3.238   1.921
  381TIP3    H1 1086   5.272   3.154   1.965
  381TIP3    H2 1087   5.269   3.218   1.828
  382TIP3   OH2 1088   1.650   6.252   6.501
  382TIP3    H1 1089   1.694   6.171   6.527
  382TIP3    H2 1090   1.707   6.289   6.433
  383TIP3   OH2 1091   2.724   1.223   3.744
  383TIP3    H1 1092   2.723   1.266   3.659
  383TIP3    H2 1093   2.781   1.278   3.798
  384TIP3   OH2 1094   8.275   1.859   1.823
  384TIP3    H1 1095   8.241   1.901   1.902
  384TIP3    H2 1096   8.232   1.904   1.751
  385TIP3   OH2 1097   2.047   6.644   0.226
  385TIP3    H1 1098   2.031   6.554   0.253
  385TIP3    H2 1099   1.988   6.696   0.281
  386TIP3   OH2 1100   7.494   0.756   3.170
  386TIP3    H1 1101   7.478   0.699   3.095
  386TIP3    H2 1102   7.513   0.841   3.131
  387TIP3   OH2 1103   0.042   7.311   5.487
  387TIP3    H1 1104   0.043   7.377   5.418
  387TIP3    H2 1105  -0.046   7.274   5.484
  388TIP3   OH2 1106   1.343   7.419   4.423
  388TIP3    H1 1107   1.407   7.487   4.442
  388TIP3    H2 1108   1.272   7.465   4.379
  389TIP3   OH2 1109   1.567   0.029   2.533
  389TIP3    H1 1110   1.494  -0.031   2.519
  389TIP3    H2 1111   1.550   0.067   2.620
  390TIP3   OH2 1112   0.271   3.378   4.368
  390TIP3    H1 1113   0.331   3.430   4.420
  390TIP3    H2 1114   0.288   3.404   4.277
  391TIP3   OH2 1115   2.057   1.056   6.265
  391TIP3    H1 1116   2.036   1.144   6.234
  391TIP3    H2 1117   2.031   1.056   6.358
  392TIP3   OH2 1118   7.714   0.829   6.649
  392TIP3    H1 1119   7.726   0.924   6.647
  392TIP3    H2 1120   7.694   0.809   6.741
  393TIP3   OH2 1121   6.074   6.103   6.393
  393TIP3    H1 1122   6.152   6.103   6.449
  393TIP3    H2 1123   6.070   6.191   6.357
  394TIP3   OH2 1124   6.112   5.403   0.260
  394TIP3    H1 1125   6.146   5.449   0.184
  394TIP3    H2 1126   6.054   5.336   0.225
  395TIP3   OH2 1127   3.682   3.516   4.167
  395TIP3    H1 1128   3.724   3.509   4.252
  395TIP3    H2 1129   3.726   3.451   4.112
  396TIP3   OH2 1130   2.122   6.691   1.649
  396TIP3    H1 1131   2.089   6.666   1.563
  396TIP3    H2 1132   2.217   6.684   1.642
  397TIP3   OH2 1133   7.842   5.475   1.748
  397TIP3    H1 1134   7.813   5.545   1.690
  397TIP3    H2 1135   7.831   5.395   1.697
  398TIP3   OH2 1136   3.631   7.453   6.624
  398TIP3    H1 1137   3.564   7.521   6.612
  398TIP3    H2 1138   3.670   7.442   6.538
  399TIP3   OH2 1139   1.718   2.554   2.002
  399TIP3    H1 1140   1.742   2.626   2.060
  399TIP3    H2 1141   1.766   2.572   1.921
  400TIP3   OH2 1142   5.662   3.460   0.950
  400TIP3    H1 1143   5.639   3.468   0.857
  400TIP3    H2 1144   5.755   3.439   0.950
  401TIP3   OH2 1145   6.831   5.961   4.372
  401TIP3    H1 1146   6.773   5.989   4.302
  401TIP3    H2 1147   6.775   5.912   4.432
  402TIP3   OH2 1148   5.536   5.492   3.615
  402TIP3    H1 1149   5.529   5.486   3.711
  402TIP3    H2 1150   5.607   5.431   3.593
  403TIP3   OH2 1151   0.288   6.744   0.918
  403TIP3    H1 1152   0.297   6.694   0.838
  403TIP3    H2 1153   0.286   6.679   0.988
  404TIP3   OH2 1154   3.593   6.760   1.165
  404TIP3    H1 1155   3.590   6.664   1.159
  404TIP3    H2 1156   3.520   6.789   1.111
  405TIP3   OH2 1157   4.724   3.409   5.202
  405TIP3    H1 1158   4.763   3.460   5.132
  405TIP3    H2 1159   4.659   3.468   5.241
  406TIP3   OH2 1160   4.300   1.586   0.729
  406TIP3    H1 1161   4.278   1.675   0.702
  406TIP3    H2 1162   4.226   1.532   0.700
  407TIP3   OH2 1163   5.470   2.211   5.366
  407TIP3    H1 1164   5.482   2.193   5.459
  407TIP3    H2 1165   5.404   2.281   5.363
  408TIP3   OH2 1166   8.174   6.484   2.113
  408TIP3    H1 1167   8.184   6.479   2.208
  408TIP3    H2 1168   8.099   6.429   2.094
  409TIP3   OH2 1169   7.037   6.266   5.504
  409TIP3    H1 1170   7.049   6.219   5.422
  409TIP3    H2 1171   7.079   6.210   5.570
  410TIP3   OH2 1172   3.414   2.790   1.003
  410TIP3    H1 1173   3.458   2.781   1.088
  410TIP3    H2 1174   3.478   2.836   0.949
  411TIP3   OH2 1175   3.438   6.879   5.258
  411TIP3    H1 1176   3.350   6.865   5.223
  411TIP3    H2 1177   3.493   6.887   5.181
  412TIP3   OH2 1178   1.853   5.175   0.639
  412TIP3    H1 1179   1.932   5.154   0.589
  412TIP3    H2 1180   1.885   5.209   0.722
  413TIP3   OH2 1181   6.342   7.753   2.278
  413TIP3    H1 1182   6.367   7.678   2.332
  413TIP3    H2 1183   6.253   7.733   2.248
  414TIP3   OH2 1184   0.031   2.349   5.162
  414TIP3    H1 1185  -0.010   2.373   5.079
  414TIP3    H2 1186  -0.016   2.270   5.189
  415TIP3   OH2 1187   4.842   7.792   3.495
  415TIP3    H1 1188   4.747   7.781   3.486
  415TIP3    H2 1189   4.879   7.741   3.423
  416TIP3   OH2 1190   2.076   2.974   4.304
  416TIP3    H1 1191   2.069   2.893   4.253
  416TIP3    H2 1192   1.991   2.982   4.347
  417TIP3   OH2 1193   7.059   3.054   5.877
  417TIP3    H1 1194   6.998   3.105   5.930
  417TIP3    H2 1195   7.092   3.117   5.812
  418TIP3   OH2 1196   3.743   6.961   0.435
  418TIP3    H1 1197   3.660   6.961   0.482
  418TIP3    H2 1198   3.723   6.999   0.350
  419TIP3   OH2 1199   7.868   3.814   4.928
  419TIP3    H1 1200   7.897   3.894   4.885
  419TIP3    H2 1201   7.842   3.756   4.856
  420TIP3   OH2 1202   1.349   6.467   2.044
  420TIP3    H1 1203   1.385   6.465   1.955
  420TIP3    H2 1204   1.423   6.492   2.099
  421TIP3   OH2 1205   4.338   1.214   1.038
  421TIP3    H1 1206   4.381   1.185   1.118
  421TIP3    H2 1207   4.248   1.186   1.047
  422TIP3   OH2 1208   7.809   1.560   2.924
  422TIP3    H1 1209   7.879   1.580   2.861
  422TIP3    H2 1210   7.739   1.621   2.900
  423TIP3   OH2 1211   7.267   3.412   1.784
  423TIP3    H1 1212   7.186   3.442   1.825
  423TIP3    H2 1213   7.317   3.373   1.856
  424TIP3   OH2 1214   4.511   1.506   1.217
  424TIP3    H1 1215   4.426   1.474   1.249
  424TIP3    H2 1216   4.514   1.476   1.126
  425TIP3   OH2 1217   3.996   4.208   0.926
  425TIP3    H1 1218   4.001   4.291   0.878
  425TIP3    H2 1219   4.037   4.227   1.010
  426TIP3   OH2 1220   1.680   5.885   5.933
  426TIP3    H1 1221   1.705   5.978   5.931
  426TIP3    H2 1222   1.626   5.873   5.855
  427TIP3   OH2 1223   4.534   6.036   0.212
  427TIP3    H1 1224   4.560   6.086   0.134
  427TIP3    H2 1225   4.442   6.014   0.196
  428TIP3   OH2 1226   4.474   2.565   2.780
  428TIP3    H1 1227   4.523   2.507   2.721
  428TIP3    H2 1228   4.542   2.618   2.822
  429TIP3   OH2 1229   7.395   1.172   3.405
  429TIP3    H1 1230   7.484   1.138   3.404
  429TIP3    H2 1231   7.343   1.103   3.446
  430TIP3   OH2 1232   3.651   3.972   3.571
  430TIP3    H1 1233   3.576   3.943   3.519
  430TIP3    H2 1234   3.727   3.938   3.524
  431TIP3   OH2 1235   4.487   6.433   0.689
  431TIP3    H1 1236   4.530   6.506   0.734
  431TIP3    H2 1237   4.419   6.405   0.748
  432TIP3   OH2 1238   7.347   4.091   3.271
  432TIP3    H1 1239   7.419   4.127   3.324
  432TIP3    H2 1240   7.273   4.086   3.332
  433TIP3   OH2 1241   1.867   4.222   3.919
  433TIP3    H1 1242   1.834   4.136   3.895
  433TIP3    H2 1243   1.882   4.267   3.835
  434TIP3   OH2 1244   5.066   7.279   2.861
  434TIP3    H1 1245   5.134   7.267   2.927
  434TIP3    H2 1246   5.074   7.370   2.834
  435TIP3   OH2 1247   6.151   6.088   3.420
  435TIP3    H1 1248   6.101   6.169   3.428
  435TIP3    H2 1249   6.180   6.069   3.509
  436TIP3   OH2 1250   7.457   6.464   2.832
  436TIP3    H1 1251   7.414   6.422   2.906
  436TIP3    H2 1252   7.424   6.554   2.834
  437TIP3   OH2 1253   3.362   6.238   4.057
  437TIP3    H1 1254   3.345   6.312   4.115
  437TIP3    H2 1255   3.417   6.179   4.109
  438TIP3   OH2 1256   8.139   4.169   6.059
  438TIP3    H1 1257   8.111   4.254   6.094
  438TIP3    H2 1258   8.188   4.191   5.980
  439TIP3   OH2 1259   5.844   3.256   0.417
  439TIP3    H1 1260   5.785   3.275   0.490
  439TIP3    H2 1261   5.821   3.321   0.350
  440TIP3   OH2 1262   4.784   2.031   1.060
  440TIP3    H1 1263   4.865   1.996   1.095
  440TIP3    H2 1264   4.811   2.087   0.988
  441TIP3   OH2 1265   6.993   0.707   2.168
  441TIP3    H1 1266   6.962   0.667   2.087
  441TIP3    H2 1267   6.947   0.791   2.172
  442TIP3   OH2 1268   2.112   4.356   0.862
  442TIP3    H1 1269   2.071   4.442   0.865
  442TIP3    H2 1270   2.195   4.370   0.817
  443TIP3   OH2 1271   6.870   0.105   2.580
  443TIP3    H1 1272   6.892   0.025   2.532
  443TIP3    H2 1273   6.946   0.121   2.636
  444TIP3   OH2 1274   0.236   1.737   6.256
  444TIP3    H1 1275   0.324   1.765   6.233
  444TIP3    H2 1276   0.185   1.750   6.176
  445TIP3   OH2 1277   0.063   3.967   2.283
  445TIP3    H1 1278   0.031   3.956   2.373
  445TIP3    H2 1279  -0.013   3.995   2.233
  446TIP3   OH2 1280   2.800   3.053   2.454
  446TIP3    H1 1281   2.876   2.995   2.440
  446TIP3    H2 1282   2.827   3.136   2.416
  447TIP3   OH2 1283   0.079   6.323   5.447
  447TIP3    H1 1284   0.173   6.313   5.460
  447TIP3    H2 1285   0.044   6.341   5.534
  448TIP3   OH2 1286   1.682   1.314   4.024
  448TIP3    H1 1287   1.601   1.325   4.074
  448TIP3    H2 1288   1.689   1.395   3.973
  449TIP3   OH2 1289   0.469   4.362   5.713
  449TIP3    H1 1290   0.423   4.280   5.728
  449TIP3    H2 1291   0.562   4.340   5.722
  450TIP3   OH2 1292   0.683   5.497   3.315
  450TIP3    H1 1293   0.650   5.520   3.402
  450TIP3    H2 1294   0.605   5.492   3.261
  451TIP3   OH2 1295   7.049   5.454   0.722
  451TIP3    H1 1296   6.998   5.407   0.656
  451TIP3    H2 1297   7.123   5.396   0.741
  452TIP3   OH2 1298   2.761   4.834   1.242
  452TIP3    H1 1299   2.777   4.926   1.222
  452TIP3    H2 1300   2.844   4.802   1.277
  453TIP3   OH2 1301   2.337   3.021   0.322
  453TIP3    H1 1302   2.418   3.061   0.289
  453TIP3    H2 1303   2.281   3.013   0.245
  454TIP3   OH2 1304   3.814   1.991   0.082
  454TIP3    H1 1305   3.813   1.911   0.030
  454TIP3    H2 1306   3.899   1.992   0.124
  455TIP3   OH2 1307   8.150   2.017   3.021
  455TIP3    H1 1308   8.229   2.071   3.026
  455TIP3    H2 1309   8.138   1.983   3.109
  456TIP3   OH2 1310   5.869   2.799   4.802
  456TIP3    H1 1311   5.957   2.835   4.802
  456TIP3    H2 1312   5.812   2.875   4.795
  457TIP3   OH2 1313   6.163   5.883   5.197
  457TIP3    H1 1314   6.070   5.869   5.178
  457TIP3    H2 1315   6.208   5.811   5.153
  458TIP3   OH2 1316   6.171   0.273   6.251
  458TIP3    H1 1317   6.102   0.303   6.192
  458TIP3    H2 1318   6.205   0.354   6.291
  459TIP3   OH2 1319   2.065   2.485   2.690
  459TIP3    H1 1320   1.980   2.514   2.656
  459TIP3    H2 1321   2.104   2.437   2.617
  460TIP3   OH2 1322   0.078   5.948   4.364
  460TIP3    H1 1323   0.113   5.914   4.446
  460TIP3    H2 1324   0.154   5.956   4.307
  461TIP3   OH2 1325   6.478   4.274   0.931
  461TIP3    H1 1326   6.456   4.205   0.868
  461TIP3    H2 1327   6.420   4.257   1.005
  462TIP3   OH2 1328   0.297   4.288   3.675
  462TIP3    H1 1329   0.310   4.258   3.585
  462TIP3    H2 1330   0.251   4.216   3.718
  463TIP3   OH2 1331   3.951   0.375   5.857
  463TIP3    H1 1332   3.971   0.365   5.764
  463TIP3    H2 1333   3.919   0.465   5.866
  464TIP3   OH2 1334   5.575   5.593   6.563
  464TIP3    H1 1335   5.608   5.619   6.649
  464TIP3    H2 1336   5.624   5.648   6.502
  465TIP3   OH2 1337   2.242   2.894   0.837
  465TIP3    H1 1338   2.266   2.971   0.889
  465TIP3    H2 1339   2.279   2.912   0.750
  466TIP3   OH2 1340   6.310   3.580   4.201
  466TIP3    H1 1341   6.373   3.601   4.132
  466TIP3    H2 1342   6.275   3.494   4.176
  467TIP3   OH2 1343   1.847   5.493   5.016
  467TIP3    H1 1344   1.935   5.468   5.044
  467TIP3    H2 1345   1.849   5.589   5.013
  468TIP3   OH2 1346   3.791   6.151   3.988
  468TIP3    H1 1347   3.715   6.105   3.951
  468TIP3    H2 1348   3.752   6.223   4.038
  469TIP3   OH2 1349   2.448   6.395   5.999
  469TIP3    H1 1350   2.420   6.480   5.966
  469TIP3    H2 1351   2.412   6.332   5.936
  470TIP3   OH2 1352   3.395   3.021   4.879
  470TIP3    H1 1353   3.359   3.010   4.791
  470TIP3    H2 1354   3.319   3.025   4.936
  471TIP3   OH2 1355   6.910   3.280   5.975
  471TIP3    H1 1356   6.925   3.365   5.935
  471TIP3    H2 1357   6.954   3.285   6.060
  472TIP3   OH2 1358   3.788   4.676   1.058
  472TIP3    H1 1359   3.754   4.693   0.970
  472TIP3    H2 1360   3.785   4.581   1.067
  473TIP3   OH2 1361   1.285   1.331   5.027
  473TIP3    H1 1362   1.269   1.375   5.111
  473TIP3    H2 1363   1.206   1.348   4.976
  474TIP3   OH2 1364   7.184   0.561   6.462
  474TIP3    H1 1365   7.236   0.518   6.530
  474TIP3    H2 1366   7.231   0.542   6.381
  475TIP3   OH2 1367   4.555   7.332   3.000
  475TIP3    H1 1368   4.484   7.268   2.995
  475TIP3    H2 1369   4.529   7.401   2.938
  476TIP3   OH2 1370   2.774   2.509   1.756
  476TIP3    H1 1371   2.838   2.538   1.692
  476TIP3    H2 1372   2.825   2.488   1.834
  477TIP3   OH2 1373   4.774   5.051   5.172
  477TIP3    H1 1374   4.719   4.989   5.125
  477TIP3    H2 1375   4.835   4.996   5.221
  478TIP3   OH2 1376   1.716   1.071   2.742
  478TIP3    H1 1377   1.635   1.049   2.695
  478TIP3    H2 1378   1.703   1.035   2.830
  479TIP3   OH2 1379   5.061   2.704   5.807
  479TIP3    H1 1380   5.137   2.694   5.749
  479TIP3    H2 1381   5.010   2.775   5.769
  480TIP3   OH2 1382   2.804   6.875   1.679
  480TIP3    H1 1383   2.747   6.949   1.699
  480TIP3    H2 1384   2.863   6.870   1.754
  481TIP3   OH2 1385   6.029   5.179   5.345
  481TIP3    H1 1386   6.106   5.185   5.288
  481TIP3    H2 1387   5.971   5.249   5.314
  482TIP3   OH2 1388   6.309   6.688   6.745
  482TIP3    H1 1389   6.372   6.682   6.816
  482TIP3    H2 1390   6.266   6.602   6.743
  483TIP3   OH2 1391   3.621   6.844   0.066
  483TIP3    H1 1392   3.638   6.787  -0.008
  483TIP3    H2 1393   3.570   6.791   0.127
  484TIP3   OH2 1394   8.130   5.207   0.343
  484TIP3    H1 1395   8.095   5.118   0.342
  484TIP3    H2 1396   8.105   5.242   0.429
  485TIP3   OH2 1397   6.769   2.937   6.181
  485TIP3    H1 1398   6.676   2.928   6.202
  485TIP3    H2 1399   6.812   2.865   6.227
  486TIP3   OH2 1400   7.215   0.061   5.928
  486TIP3    H1 1401   7.125   0.092   5.911
  486TIP3    H2 1402   7.205  -0.032   5.944
  487TIP3   OH2 1403   3.528   5.251   4.531
  487TIP3    H1 1404   3.487   5.327   4.490
  487TIP3    H2 1405   3.578   5.287   4.605
  488TIP3   OH2 1406   0.320   2.808   0.921
  488TIP3    H1 1407   0.250   2.743   0.926
  488TIP3    H2 1408   0.352   2.814   1.011
  489TIP3   OH2 1409   2.206   7.651   3.114
  489TIP3    H1 1410   2.209   7.633   3.208
  489TIP3    H2 1411   2.207   7.746   3.107
  490TIP3   OH2 1412   3.673   4.825   5.528
  490TIP3    H1 1413   3.743   4.765   5.552
  490TIP3    H2 1414   3.699   4.859   5.442
  491TIP3   OH2 1415   6.673   4.399   2.158
  491TIP3    H1 1416   6.600   4.455   2.182
  491TIP3    H2 1417   6.683   4.339   2.233
  492TIP3   OH2 1418   7.598   6.039   1.443
  492TIP3    H1 1419   7.641   6.076   1.366
  492TIP3    H2 1420   7.528   6.101   1.464
  493TIP3   OH2 1421   6.519   2.771   6.803
  493TIP3    H1 1422   6.457   2.798   6.734
  493TIP3    H2 1423   6.601   2.815   6.780
  494TIP3   OH2 1424   6.405   6.637   5.458
  494TIP3    H1 1425   6.389   6.636   5.553
  494TIP3    H2 1426   6.318   6.648   5.420
  495TIP3   OH2 1427   6.455   3.034   6.429
  495TIP3    H1 1428   6.531   3.050   6.484
  495TIP3    H2 1429   6.478   3.072   6.344
  496TIP3   OH2 1430   2.481   1.850   3.044
  496TIP3    H1 1431   2.508   1.938   3.017
  496TIP3    H2 1432   2.393   1.862   3.079
  497TIP3   OH2 1433   3.730   7.766   5.632
  497TIP3    H1 1434   3.716   7.790   5.724
  497TIP3    H2 1435   3.824   7.778   5.618
  498TIP3   OH2 1436   4.242   2.317   3.668
  498TIP3    H1 1437   4.324   2.312   3.618
  498TIP3    H2 1438   4.211   2.226   3.671
  499TIP3   OH2 1439   0.962   2.982   0.864
  499TIP3    H1 1440   1.033   2.920   0.845
  499TIP3    H2 1441   0.972   3.002   0.957
  500TIP3   OH2 1442   7.740   6.541   0.687
  500TIP3    H1 1443   7.730   6.448   0.669
  500TIP3    H2 1444   7.700   6.553   0.773
  501TIP3   OH2 1445   3.473   7.361   1.909
  501TIP3    H1 1446   3.552   7.385   1.957
  501TIP3    H2 1447   3.504   7.305   1.838
  502TIP3   OH2 1448   3.654   3.742   6.687
  502TIP3    H1 1449   3.659   3.728   6.781
  502TIP3    H2 1450   3.711   3.675   6.649
  503TIP3   OH2 1451   2.898   5.190   0.341
  503TIP3    H1 1452   2.900   5.131   0.417
  503TIP3    H2 1453   2.844   5.264   0.369
  504TIP3   OH2 1454   4.311   3.871   6.111
  504TIP3    H1 1455   4.361   3.817   6.173
  504TIP3    H2 1456   4.375   3.930   6.072
  505TIP3   OH2 1457   5.146   7.274   5.866
  505TIP3    H1 1458   5.067   7.292   5.816
  505TIP3    H2 1459   5.216   7.270   5.800
  506TIP3   OH2 1460   7.930   3.852   3.419
  506TIP3    H1 1461   7.957   3.927   3.473
  506TIP3    H2 1462   7.896   3.892   3.339
  507TIP3   OH2 1463   2.429   6.552   3.981
  507TIP3    H1 1464   2.434   6.456   3.979
  507TIP3    H2 1465   2.497   6.577   4.044
  508TIP3   OH2 1466   0.146   1.857   5.803
  508TIP3    H1 1467   0.080   1.832   5.868
  508TIP3    H2 1468   0.167   1.775   5.758
  509TIP3   OH2 1469   3.650   2.321   5.490
  509TIP3    H1 1470   3.605   2.238   5.503
  509TIP3    H2 1471   3.638   2.342   5.398
  510TIP3   OH2 1472   0.528   2.192   5.556
  510TIP3    H1 1473   0.519   2.109   5.601
  510TIP3    H2 1474   0.623   2.206   5.551
  511TIP3   OH2 1475   6.655   7.538   3.922
  511TIP3    H1 1476   6.609   7.622   3.931
  511TIP3    H2 1477   6.682   7.516   4.011
  512TIP3   OH2 1478   5.812   7.833   6.201
  512TIP3    H1 1479   5.724   7.839   6.238
  512TIP3    H2 1480   5.809   7.757   6.144
  513TIP3   OH2 1481   0.524   5.525   5.534
  513TIP3    H1 1482   0.487   5.467   5.601
  513TIP3    H2 1483   0.577   5.588   5.583
  514TIP3   OH2 1484   1.653   2.336   4.201
  514TIP3    H1 1485   1.629   2.243   4.194
  514TIP3    H2 1486   1.585   2.382   4.153
  515TIP3   OH2 1487   6.846   1.182   2.157
  515TIP3    H1 1488   6.843   1.136   2.073
  515TIP3    H2 1489   6.939   1.187   2.179
  516TIP3   OH2 1490   6.353   1.689   4.339
  516TIP3    H1 1491   6.360   1.659   4.249
  516TIP3    H2 1492   6.400   1.773   4.341
  517TIP3   OH2 1493   4.173   3.321   1.337
  517TIP3    H1 1494   4.093   3.373   1.341
  517TIP3    H2 1495   4.218   3.350   1.258
  518TIP3   OH2 1496   4.179   2.401   4.563
  518TIP3    H1 1497   4.171   2.312   4.598
  518TIP3    H2 1498   4.144   2.457   4.632
  519TIP3   OH2 1499   5.066   2.258   1.531
  519TIP3    H1 1500   5.056   2.325   1.463
  519TIP3    H2 1501   5.088   2.178   1.483
  520TIP3   OH2 1502   1.557   2.817   1.901
  520TIP3    H1 1503   1.504   2.739   1.918
  520TIP3    H2 1504   1.630   2.784   1.847
  521TIP3   OH2 1505   2.442   5.780   6.240
  521TIP3    H1 1506   2.494   5.860   6.228
  521TIP3    H2 1507   2.505   5.715   6.272
  522TIP3   OH2 1508   6.706   5.290   4.247
  522TIP3    H1 1509   6.676   5.230   4.178
  522TIP3    H2 1510   6.768   5.239   4.298
  523TIP3   OH2 1511   2.329   6.776   1.061
  523TIP3    H1 1512   2.251   6.807   1.108
  523TIP3    H2 1513   2.401   6.788   1.123
  524TIP3   OH2 1514   1.896   0.701   5.642
  524TIP3    H1 1515   1.807   0.684   5.609
  524TIP3    H2 1516   1.897   0.795   5.661
  525TIP3   OH2 1517   0.890   6.667   5.269
  525TIP3    H1 1518   0.800   6.683   5.298
  525TIP3    H2 1519   0.902   6.723   5.192
  526TIP3   OH2 1520   4.184   7.402   5.704
  526TIP3    H1 1521   4.092   7.430   5.711
  526TIP3    H2 1522   4.233   7.484   5.699
  527TIP3   OH2 1523   4.735   3.818   1.816
  527TIP3    H1 1524   4.806   3.754   1.803
  527TIP3    H2 1525   4.746   3.881   1.745
  528TIP3   OH2 1526   5.116   3.324   2.624
  528TIP3    H1 1527   5.161   3.243   2.645
  528TIP3    H2 1528   5.033   3.320   2.672
  529TIP3   OH2 1529   2.597   6.013   5.073
  529TIP3    H1 1530   2.655   5.963   5.017
  529TIP3    H2 1531   2.517   6.024   5.021
  530TIP3   OH2 1532   3.977   0.851   4.457
  530TIP3    H1 1533   4.040   0.779   4.453
  530TIP3    H2 1534   4.003   0.908   4.384
  531TIP3   OH2 1535   4.384   2.604   0.792
  531TIP3    H1 1536   4.353   2.662   0.722
  531TIP3    H2 1537   4.309   2.596   0.851
  532TIP3   OH2 1538   2.651   0.982   6.467
  532TIP3    H1 1539   2.610   0.939   6.542
  532TIP3    H2 1540   2.708   1.049   6.506
  533TIP3   OH2 1541   7.384   6.335   3.877
  533TIP3    H1 1542   7.476   6.306   3.883
  533TIP3    H2 1543   7.341   6.290   3.949
  534TIP3   OH2 1544   6.693   2.705   4.736
  534TIP3    H1 1545   6.781   2.742   4.734
  534TIP3    H2 1546   6.673   2.686   4.644
  535TIP3   OH2 1547   5.151   7.617   1.077
  535TIP3    H1 1548   5.195   7.597   1.159
  535TIP3    H2 1549   5.196   7.694   1.043
  536TIP3   OH2 1550   0.653   7.468   5.202
  536TIP3    H1 1551   0.672   7.561   5.188
  536TIP3    H2 1552   0.591   7.467   5.275
  537TIP3   OH2 1553   3.124   5.643   0.467
  537TIP3    H1 1554   3.070   5.565   0.482
  537TIP3    H2 1555   3.101   5.670   0.378
  538TIP3   OH2 1556   4.009   0.851   5.336
  538TIP3    H1 1557   4.063   0.911   5.387
  538TIP3    H2 1558   3.954   0.807   5.401
  539TIP3   OH2 1559   4.905   0.063   1.790
  539TIP3    H1 1560   4.946   0.106   1.715
  539TIP3    H2 1561   4.938   0.111   1.867
  540TIP3   OH2 1562   2.611   3.169   4.948
  540TIP3    H1 1563   2.601   3.112   4.872
  540TIP3    H2 1564   2.664   3.117   5.010
  541TIP3   OH2 1565   4.026   7.698   0.149
  541TIP3    H1 1566   3.994   7.714   0.237
  541TIP3    H2 1567   3.973   7.625   0.117
  542TIP3   OH2 1568   5.342   5.445   6.517
  542TIP3    H1 1569   5.273   5.472   6.578
  542TIP3    H2 1570   5.419   5.494   6.545
  543TIP3   OH2 1571   4.890   2.972   2.320
  543TIP3    H1 1572   4.916   2.885   2.290
  543TIP3    H2 1573   4.972   3.019   2.335
  544TIP3   OH2 1574   7.022   3.892   5.791
  544TIP3    H1 1575   7.103   3.872   5.745
  544TIP3    H2 1576   6.955   3.841   5.745
  545TIP3   OH2 1577   3.014   4.706   1.707
  545TIP3    H1 1578   3.077   4.693   1.636
  545TIP3    H2 1579   2.939   4.652   1.683
  546TIP3   OH2 1580   1.733   1.901   3.010
  546TIP3    H1 1581   1.785   1.885   2.932
  546TIP3    H2 1582   1.732   1.816   3.056
  547TIP3   OH2 1583   7.920   7.149   1.354
  547TIP3    H1 1584   7.894   7.179   1.267
  547TIP3    H2 1585   8.013   7.128   1.346
  548TIP3   OH2 1586   7.689   1.202   0.893
  548TIP3    H1 1587   7.643   1.285   0.884
  548TIP3    H2 1588   7.779   1.222   0.865
  549TIP3   OH2 1589   1.270   5.411   3.046
  549TIP3    H1 1590   1.218   5.369   2.977
  549TIP3    H2 1591   1.210   5.420   3.119
  550TIP3   OH2 1592   1.176   1.162   5.997
  550TIP3    H1 1593   1.156   1.220   6.070
  550TIP3    H2 1594   1.121   1.194   5.925
  551TIP3   OH2 1595   0.939   3.311   2.639
  551TIP3    H1 1596   0.972   3.361   2.714
  551TIP3    H2 1597   0.932   3.376   2.569
  552TIP3   OH2 1598   2.981   7.048   5.222
  552TIP3    H1 1599   3.019   6.963   5.200
  552TIP3    H2 1600   2.910   7.027   5.283
  553TIP3   OH2 1601   6.170   5.507   2.023
  553TIP3    H1 1602   6.159   5.533   2.115
  553TIP3    H2 1603   6.117   5.570   1.974
  554TIP3   OH2 1604   6.292   7.284   5.504
  554TIP3    H1 1605   6.296   7.379   5.500
  554TIP3    H2 1606   6.383   7.258   5.521
  555TIP3   OH2 1607   7.976   0.025   2.771
  555TIP3    H1 1608   7.893   0.070   2.756
  555TIP3    H2 1609   7.992  -0.024   2.691
  556TIP3   OH2 1610   3.919   3.604   0.795
  556TIP3    H1 1611   3.849   3.544   0.771
  556TIP3    H2 1612   3.909   3.678   0.735
  557TIP3   OH2 1613   2.847   2.929   0.574
  557TIP3    H1 1614   2.911   2.913   0.505
  557TIP3    H2 1615   2.880   3.008   0.619
  558TIP3   OH2 1616   5.195   1.835   3.502
  558TIP3    H1 1617   5.113   1.815   3.455
  558TIP3    H2 1618   5.196   1.772   3.574
  559TIP3   OH2 1619   6.169   1.937   4.927
  559TIP3    H1 1620   6.107   1.983   4.983
  559TIP3    H2 1621   6.121   1.861   4.894
  560TIP3   OH2 1622   2.785   7.370   4.366
  560TIP3    H1 1623   2.819   7.280   4.366
  560TIP3    H2 1624   2.707   7.366   4.311
  561TIP3   OH2 1625   1.502   1.158   2.296
  561TIP3    H1 1626   1.572   1.112   2.251
  561TIP3    H2 1627   1.453   1.089   2.341
  562TIP3   OH2 1628   5.011   7.126   2.183
  562TIP3    H1 1629   4.999   7.093   2.272
  562TIP3    H2 1630   5.105   7.121   2.168
  563TIP3   OH2 1631   5.073   1.468   4.448
  563TIP3    H1 1632   4.996   1.420   4.417
  563TIP3    H2 1633   5.147   1.423   4.408
  564TIP3   OH2 1634   8.052   4.647   5.704
  564TIP3    H1 1635   8.039   4.729   5.753
  564TIP3    H2 1636   8.000   4.582   5.752
  565TIP3   OH2 1637   6.311   4.966   2.285
  565TIP3    H1 1638   6.257   4.894   2.253
  565TIP3    H2 1639   6.270   5.045   2.248
  566TIP3   OH2 1640   3.343   1.334   6.310
  566TIP3    H1 1641   3.259   1.377   6.293
  566TIP3    H2 1642   3.344   1.318   6.404
  567TIP3   OH2 1643   7.764   1.551   6.499
  567TIP3    H1 1644   7.835   1.544   6.562
  567TIP3    H2 1645   7.728   1.639   6.513
  568TIP3   OH2 1646   3.059   5.637   0.942
  568TIP3    H1 1647   2.978   5.591   0.921
  568TIP3    H2 1648   3.096   5.662   0.857
  569TIP3   OH2 1649   1.186   6.475   4.298
  569TIP3    H1 1650   1.279   6.497   4.286
  569TIP3    H2 1651   1.145   6.559   4.318
  570TIP3   OH2 1652   5.107   5.530   4.293
  570TIP3    H1 1653   5.116   5.466   4.222
  570TIP3    H2 1654   5.047   5.489   4.355
  571TIP3   OH2 1655   0.525   3.325   0.942
  571TIP3    H1 1656   0.480   3.379   1.006
  571TIP3    H2 1657   0.506   3.235   0.969
  572TIP3   OH2 1658   6.075   1.986   3.032
  572TIP3    H1 1659   6.118   2.028   2.959
  572TIP3    H2 1660   6.094   1.892   3.022
  573TIP3   OH2 1661   7.229   3.501   0.153
  573TIP3    H1 1662   7.177   3.421   0.147
  573TIP3    H2 1663   7.172   3.569   0.117
  574TIP3   OH2 1664   8.157   4.516   4.606
  574TIP3    H1 1665   8.188   4.525   4.516
  574TIP3    H2 1666   8.230   4.476   4.653
  575TIP3   OH2 1667   5.872   1.369   5.234
  575TIP3    H1 1668   5.879   1.438   5.169
  575TIP3    H2 1669   5.958   1.328   5.236
  576TIP3   OH2 1670   7.015   0.167   1.192
  576TIP3    H1 1671   6.996   0.122   1.275
  576TIP3    H2 1672   6.965   0.118   1.127
  577TIP3   OH2 1673   7.381   7.788   1.536
  577TIP3    H1 1674   7.334   7.724   1.482
  577TIP3    H2 1675   7.405   7.740   1.615
  578TIP3   OH2 1676   6.458   5.162   3.823
  578TIP3    H1 1677   6.462   5.239   3.880
  578TIP3    H2 1678   6.449   5.198   3.734
  579TIP3   OH2 1679   1.410   7.694   1.102
  579TIP3    H1 1680   1.340   7.646   1.146
  579TIP3    H2 1681   1.447   7.631   1.041
  580TIP3   OH2 1682   4.719   3.873   1.048
  580TIP3    H1 1683   4.771   3.875   0.968
  580TIP3    H2 1684   4.782   3.887   1.118
  581TIP3   OH2 1685   3.398   2.359   4.887
  581TIP3    H1 1686   3.411   2.284   4.945
  581TIP3    H2 1687   3.328   2.410   4.929
  582TIP3   OH2 1688   2.085   2.889   3.291
  582TIP3    H1 1689   2.124   2.804   3.270
  582TIP3    H2 1690   2.140   2.952   3.246
  583TIP3   OH2 1691   5.152   3.230   4.323
  583TIP3    H1 1692   5.093   3.172   4.275
  583TIP3    H2 1693   5.198   3.172   4.385
  584TIP3   OH2 1694   1.568   3.322   4.140
  584TIP3    H1 1695   1.595   3.380   4.212
  584TIP3    H2 1696   1.583   3.373   4.061
  585TIP3   OH2 1697   0.867   4.059   2.458
  585TIP3    H1 1698   0.872   4.154   2.452
  585TIP3    H2 1699   0.789   4.036   2.408
  586TIP3   OH2 1700   5.699   2.504   0.571
  586TIP3    H1 1701   5.787   2.479   0.544
  586TIP3    H2 1702   5.641   2.453   0.515
  587TIP3   OH2 1703   2.116   1.207   5.049
  587TIP3    H1 1704   2.186   1.142   5.057
  587TIP3    H2 1705   2.147   1.283   5.098
  588TIP3   OH2 1706   1.441   5.089   5.227
  588TIP3    H1 1707   1.443   5.136   5.310
  588TIP3    H2 1708   1.532   5.090   5.196
  589TIP3   OH2 1709   1.314   0.359   4.152
  589TIP3    H1 1710   1.313   0.263   4.161
  589TIP3    H2 1711   1.305   0.374   4.058
  590TIP3   OH2 1712   5.416   2.303   6.330
  590TIP3    H1 1713   5.329   2.331   6.304
  590TIP3    H2 1714   5.463   2.385   6.350
  591TIP3   OH2 1715   2.210   3.777   3.163
  591TIP3    H1 1716   2.181   3.841   3.098
  591TIP3    H2 1717   2.288   3.737   3.125
  592TIP3   OH2 1718   7.712   3.266   3.868
  592TIP3    H1 1719   7.715   3.331   3.798
  592TIP3    H2 1720   7.791   3.214   3.857
  593TIP3   OH2 1721   2.865   6.498   2.465
  593TIP3    H1 1722   2.789   6.550   2.438
  593TIP3    H2 1723   2.856   6.490   2.560
  594TIP3   OH2 1724   2.586   2.780   5.606
  594TIP3    H1 1725   2.673   2.740   5.610
  594TIP3    H2 1726   2.589   2.837   5.530
  595TIP3   OH2 1727   2.122   4.655   6.737
  595TIP3    H1 1728   2.139   4.595   6.809
  595TIP3    H2 1729   2.174   4.733   6.759
  596TIP3   OH2 1730   5.404   1.535   6.411
  596TIP3    H1 1731   5.428   1.466   6.348
  596TIP3    H2 1732   5.390   1.488   6.493
  597TIP3   OH2 1733   4.440   7.532   2.855
  597TIP3    H1 1734   4.493   7.561   2.780
  597TIP3    H2 1735   4.357   7.504   2.817
  598TIP3   OH2 1736   7.689   7.522   5.367
  598TIP3    H1 1737   7.726   7.581   5.302
  598TIP3    H2 1738   7.649   7.452   5.316
  599TIP3   OH2 1739   4.859   0.665   6.354
  599TIP3    H1 1740   4.904   0.585   6.325
  599TIP3    H2 1741   4.909   0.736   6.315
  600TIP3   OH2 1742   5.233   5.359   0.878
  600TIP3    H1 1743   5.206   5.364   0.787
  600TIP3    H2 1744   5.207   5.272   0.906
  601TIP3   OH2 1745   3.259   2.848   2.397
  601TIP3    H1 1746   3.270   2.760   2.434
  601TIP3    H2 1747   3.347   2.875   2.372
  602TIP3   OH2 1748   4.335   2.676   6.568
  602TIP3    H1 1749   4.398   2.675   6.640
  602TIP3    H2 1750   4.362   2.604   6.511
  603TIP3   OH2 1751   7.874   7.194   4.446
  603TIP3    H1 1752   7.955   7.198   4.498
  603TIP3    H2 1753   7.839   7.107   4.463
  604TIP3   OH2 1754   6.075   5.884   2.917
  604TIP3    H1 1755   6.167   5.857   2.918
  604TIP3    H2 1756   6.043   5.865   3.006
  605TIP3   OH2 1757   1.077   6.420   2.147
  605TIP3    H1 1758   1.017   6.467   2.088
  605TIP3    H2 1759   1.163   6.429   2.106
  606TIP3   OH2 1760   2.262   4.213   2.999
  606TIP3    H1 1761   2.349   4.239   3.031
  606TIP3    H2 1762   2.275   4.126   2.963
  607TIP3   OH2 1763   1.923   0.023   3.385
  607TIP3    H1 1764   1.852  -0.012   3.331
  607TIP3    H2 1765   1.950  -0.051   3.439
  608TIP3   OH2 1766   1.887   1.531   5.210
  608TIP3    H1 1767   1.923   1.459   5.262
  608TIP3    H2 1768   1.803   1.552   5.252
  609TIP3   OH2 1769   5.473   4.282   5.075
  609TIP3    H1 1770   5.481   4.256   4.984
  609TIP3    H2 1771   5.563   4.291   5.106
  610TIP3   OH2 1772   6.074   1.018   5.009
  610TIP3    H1 1773   6.104   1.108   5.023
  610TIP3    H2 1774   5.982   1.027   4.984
  611TIP3   OH2 1775   1.094   1.368   4.813
  611TIP3    H1 1776   1.089   1.277   4.785
  611TIP3    H2 1777   1.020   1.411   4.770
  612TIP3   OH2 1778   1.927   6.564   3.466
  612TIP3    H1 1779   1.957   6.481   3.428
  612TIP3    H2 1780   1.889   6.611   3.392
  613TIP3   OH2 1781   0.106   3.900   4.480
  613TIP3    H1 1782   0.112   3.832   4.412
  613TIP3    H2 1783   0.016   3.931   4.476
  614TIP3   OH2 1784   2.542   7.231   2.333
  614TIP3    H1 1785   2.604   7.273   2.392
  614TIP3    H2 1786   2.587   7.233   2.248
  615TIP3   OH2 1787   2.278   0.082   5.006
  615TIP3    H1 1788   2.274   0.008   5.066
  615TIP3    H2 1789   2.187   0.092   4.975
  616TIP3   OH2 1790   5.689   2.220   3.501
  616TIP3    H1 1791   5.774   2.179   3.485
  616TIP3    H2 1792   5.626   2.148   3.492
  617TIP3   OH2 1793   1.089   0.537   3.675
  617TIP3    H1 1794   1.040   0.612   3.641
  617TIP3    H2 1795   1.168   0.534   3.621
  618TIP3   OH2 1796   6.201   5.492   6.203
  618TIP3    H1 1797   6.182   5.581   6.230
  618TIP3    H2 1798   6.296   5.485   6.206
  619TIP3   OH2 1799   3.989   5.588   5.149
  619TIP3    H1 1800   4.074   5.544   5.142
  619TIP3    H2 1801   3.992   5.630   5.235
  620TIP3   OH2 1802   6.705   7.484   1.715
  620TIP3    H1 1803   6.735   7.574   1.717
  620TIP3    H2 1804   6.613   7.490   1.687
  621TIP3   OH2 1805   3.721   4.947   0.076
  621TIP3    H1 1806   3.628   4.967   0.086
  621TIP3    H2 1807   3.724   4.885   0.003
  622TIP3   OH2 1808   0.958   4.841   3.858
  622TIP3    H1 1809   0.906   4.916   3.828
  622TIP3    H2 1810   0.938   4.772   3.795
  623TIP3   OH2 1811   1.845   5.735   3.020
  623TIP3    H1 1812   1.865   5.693   2.936
  623TIP3    H2 1813   1.900   5.690   3.083
  624TIP3   OH2 1814   0.902   7.363   1.158
  624TIP3    H1 1815   0.959   7.298   1.117
  624TIP3    H2 1816   0.869   7.319   1.236
  625TIP3   OH2 1817   1.175   6.011   0.182
  625TIP3    H1 1818   1.207   6.095   0.217
  625TIP3    H2 1819   1.123   6.036   0.106
  626TIP3   OH2 1820   6.783   3.354   0.630
  626TIP3    H1 1821   6.828   3.381   0.550
  626TIP3    H2 1822   6.752   3.265   0.610
  627TIP3   OH2 1823   4.258   7.802   0.075
  627TIP3    H1 1824   4.182   7.759   0.114
  627TIP3    H2 1825   4.283   7.870   0.138
  628TIP3   OH2 1826   6.399   0.396   0.296
  628TIP3    H1 1827   6.407   0.474   0.351
  628TIP3    H2 1828   6.414   0.323   0.356
  629TIP3   OH2 1829   1.420   3.383   5.787
  629TIP3    H1 1830   1.505   3.408   5.823
  629TIP3    H2 1831   1.357   3.424   5.846
  630TIP3   OH2 1832   5.709   1.719   6.414
  630TIP3    H1 1833   5.697   1.793   6.474
  630TIP3    H2 1834   5.664   1.746   6.334
  631TIP3   OH2 1835   0.792   6.133   2.938
  631TIP3    H1 1836   0.748   6.218   2.935
  631TIP3    H2 1837   0.792   6.103   2.847
  632TIP3   OH2 1838   6.980   3.585   2.605
  632TIP3    H1 1839   7.010   3.494   2.608
  632TIP3    H2 1840   6.924   3.589   2.528
  633TIP3   OH2 1841   7.378   0.788   1.255
  633TIP3    H1 1842   7.415   0.864   1.301
  633TIP3    H2 1843   7.314   0.752   1.316
  634TIP3   OH2 1844   0.554   3.275   2.632
  634TIP3    H1 1845   0.580   3.301   2.543
  634TIP3    H2 1846   0.631   3.295   2.685
  635TIP3   OH2 1847   4.235   1.155   2.213
  635TIP3    H1 1848   4.280   1.200   2.141
  635TIP3    H2 1849   4.176   1.221   2.249
  636TIP3   OH2 1850   1.089   2.617   4.975
  636TIP3    H1 1851   1.051   2.675   4.908
  636TIP3    H2 1852   1.135   2.550   4.925
  637TIP3   OH2 1853   6.062   0.150   2.147
  637TIP3    H1 1854   5.988   0.191   2.192
  637TIP3    H2 1855   6.023   0.106   2.072
  638TIP3   OH2 1856   1.582   5.392   4.998
  638TIP3    H1 1857   1.672   5.426   4.998
  638TIP3    H2 1858   1.560   5.384   5.091
  639TIP3   OH2 1859   2.370   4.107   5.133
  639TIP3    H1 1860   2.445   4.048   5.145
  639TIP3    H2 1861   2.331   4.078   5.051
  640TIP3   OH2 1862   3.259   0.809   2.412
  640TIP3    H1 1863   3.208   0.858   2.477
  640TIP3    H2 1864   3.220   0.721   2.412
  641TIP3   OH2 1865   0.284   1.343   4.755
  641TIP3    H1 1866   0.293   1.344   4.850
  641TIP3    H2 1867   0.346   1.410   4.724
  642TIP3   OH2 1868   1.106   6.753   4.323
  642TIP3    H1 1869   1.124   6.813   4.251
  642TIP3    H2 1870   1.132   6.801   4.402
  643TIP3   OH2 1871   8.209   5.101   5.723
  643TIP3    H1 1872   8.288   5.099   5.669
  643TIP3    H2 1873   8.229   5.164   5.792
  644TIP3   OH2 1874   8.253   6.930   2.641
  644TIP3    H1 1875   8.222   6.926   2.732
  644TIP3    H2 1876   8.218   6.851   2.600
  645TIP3   OH2 1877   4.855   6.504   2.186
  645TIP3    H1 1878   4.820   6.485   2.273
  645TIP3    H2 1879   4.909   6.428   2.164
  646TIP3   OH2 1880   7.867   7.109   6.136
  646TIP3    H1 1881   7.915   7.062   6.204
  646TIP3    H2 1882   7.859   7.199   6.169
  647TIP3   OH2 1883   4.615   2.619   0.943
  647TIP3    H1 1884   4.537   2.597   0.891
  647TIP3    H2 1885   4.586   2.615   1.034
  648TIP3   OH2 1886   2.557   2.510   0.081
  648TIP3    H1 1887   2.489   2.446   0.058
  648TIP3    H2 1888   2.632   2.487   0.026
  649TIP3   OH2 1889   7.858   4.054   0.930
  649TIP3    H1 1890   7.951   4.035   0.945
  649TIP3    H2 1891   7.813   4.015   1.005
  650TIP3   OH2 1892   4.526   5.325   1.639
  650TIP3    H1 1893   4.496   5.266   1.708
  650TIP3    H2 1894   4.449   5.378   1.617
  651TIP3   OH2 1895   0.574   1.072   3.608
  651TIP3    H1 1896   0.635   1.093   3.679
  651TIP3    H2 1897   0.512   1.145   3.607
  652TIP3   OH2 1898   3.238   7.735   4.795
  652TIP3    H1 1899   3.163   7.697   4.750
  652TIP3    H2 1900   3.269   7.666   4.854
  653TIP3   OH2 1901   1.721   5.322   0.429
  653TIP3    H1 1902   1.761   5.292   0.510
  653TIP3    H2 1903   1.787   5.305   0.362
  654TIP3   OH2 1904   3.621   7.409   5.305
  654TIP3    H1 1905   3.647   7.467   5.377
  654TIP3    H2 1906   3.526   7.403   5.312
  655TIP3   OH2 1907   8.033   7.194   5.926
  655TIP3    H1 1908   7.975   7.160   5.994
  655TIP3    H2 1909   7.983   7.185   5.845
  656TIP3   OH2 1910   4.182   7.690   2.169
  656TIP3    H1 1911   4.253   7.726   2.115
  656TIP3    H2 1912   4.129   7.766   2.191
  657TIP3   OH2 1913   3.285   0.883   2.125
  657TIP3    H1 1914   3.289   0.854   2.216
  657TIP3    H2 1915   3.373   0.867   2.090
  658TIP3   OH2 1916   3.086   6.781   5.584
  658TIP3    H1 1917   3.045   6.725   5.651
  658TIP3    H2 1918   3.085   6.728   5.505
  659TIP3   OH2 1919   7.554   4.251   4.441
  659TIP3    H1 1920   7.613   4.317   4.478
  659TIP3    H2 1921   7.480   4.302   4.406
  660TIP3   OH2 1922   2.282   0.045   5.977
  660TIP3    H1 1923   2.321   0.132   5.966
  660TIP3    H2 1924   2.266   0.037   6.071
  661TIP3   OH2 1925   1.953   1.290   0.973
  661TIP3    H1 1926   1.992   1.274   1.059
  661TIP3    H2 1927   1.957   1.205   0.929
  662TIP3   OH2 1928   6.198   4.956   3.462
  662TIP3    H1 1929   6.114   4.999   3.479
  662TIP3    H2 1930   6.263   5.020   3.491
  663TIP3   OH2 1931   6.751   7.614   0.107
  663TIP3    H1 1932   6.682   7.672   0.074
  663TIP3    H2 1933   6.823   7.673   0.129
  664TIP3   OH2 1934   2.807   1.960   4.383
  664TIP3    H1 1935   2.719   1.996   4.370
  664TIP3    H2 1936   2.792   1.870   4.413
  665TIP3   OH2 1937   4.564   6.007   4.794
  665TIP3    H1 1938   4.546   5.980   4.885
  665TIP3    H2 1939   4.645   5.962   4.771
  666TIP3   OH2 1940   7.541   4.831   4.857
  666TIP3    H1 1941   7.486   4.753   4.846
  666TIP3    H2 1942   7.535   4.852   4.950
  667TIP3   OH2 1943   8.202   1.912   0.996
  667TIP3    H1 1944   8.181   1.847   0.929
  667TIP3    H2 1945   8.227   1.990   0.946
  668TIP3   OH2 1946   4.821   0.581   4.318
  668TIP3    H1 1947   4.880   0.599   4.392
  668TIP3    H2 1948   4.815   0.665   4.271
  669TIP3   OH2 1949   5.563   2.363   4.801
  669TIP3    H1 1950   5.552   2.318   4.885
  669TIP3    H2 1951   5.531   2.452   4.817
  670TIP3   OH2 1952   6.423   2.863   1.354
  670TIP3    H1 1953   6.447   2.929   1.420
  670TIP3    H2 1954   6.375   2.797   1.404
  671TIP3   OH2 1955   1.515   5.088   2.508
  671TIP3    H1 1956   1.503   5.032   2.432
  671TIP3    H2 1957   1.546   5.029   2.577
  672TIP3   OH2 1958   2.865   1.304   1.591
  672TIP3    H1 1959   2.933   1.254   1.636
  672TIP3    H2 1960   2.892   1.304   1.499
  673TIP3   OH2 1961   5.767   7.163   1.259
  673TIP3    H1 1962   5.693   7.201   1.306
  673TIP3    H2 1963   5.827   7.135   1.327
  674TIP3   OH2 1964   1.997   1.860   2.283
  674TIP3    H1 1965   1.951   1.812   2.353
  674TIP3    H2 1966   2.089   1.837   2.295
  675TIP3   OH2 1967   0.350   3.775   3.886
  675TIP3    H1 1968   0.294   3.829   3.943
  675TIP3    H2 1969   0.400   3.721   3.946
  676TIP3   OH2 1970   1.845   4.628   0.025
  676TIP3    H1 1971   1.890   4.701   0.068
  676TIP3    H2 1972   1.754   4.636   0.053
  677TIP3   OH2 1973   0.617   3.047  -0.041
  677TIP3    H1 1974   0.615   3.004   0.045
  677TIP3    H2 1975   0.564   3.126  -0.029
  678TIP3   OH2 1976   7.588   1.678   3.286
  678TIP3    H1 1977   7.512   1.645   3.333
  678TIP3    H2 1978   7.621   1.602   3.238
  679TIP3   OH2 1979   4.776   0.906   5.614
  679TIP3    H1 1980   4.733   0.915   5.700
  679TIP3    H2 1981   4.855   0.857   5.632
  680TIP3   OH2 1982   8.337   4.194   5.480
  680TIP3    H1 1983   8.275   4.212   5.410
  680TIP3    H2 1984   8.332   4.099   5.493
  681TIP3   OH2 1985   4.502   7.073   2.805
  681TIP3    H1 1986   4.585   7.051   2.848
  681TIP3    H2 1987   4.452   7.117   2.873
  682TIP3   OH2 1988   3.374   5.279   4.814
  682TIP3    H1 1989   3.302   5.255   4.755
  682TIP3    H2 1990   3.439   5.210   4.802
  683TIP3   OH2 1991   5.525   2.248   1.012
  683TIP3    H1 1992   5.505   2.229   0.921
  683TIP3    H2 1993   5.488   2.335   1.028
  684TIP3   OH2 1994   0.147   7.469   0.040
  684TIP3    H1 1995   0.098   7.528   0.098
  684TIP3    H2 1996   0.157   7.517  -0.041
  685TIP3   OH2 1997   1.546   5.993   3.198
  685TIP3    H1 1998   1.575   5.983   3.108
  685TIP3    H2 1999   1.563   5.908   3.239
  686TIP3   OH2 2000   5.915   0.589   0.615
  686TIP3    H1 2001   5.851   0.538   0.663
  686TIP3    H2 2002   5.955   0.527   0.554
  687TIP3   OH2 2003   0.221   4.726   1.507
  687TIP3    H1 2004   0.207   4.648   1.561
  687TIP3    H2 2005   0.136   4.768   1.504
  688TIP3   OH2 2006   3.215   1.534   2.600
  688TIP3    H1 2007   3.159   1.608   2.578
  688TIP3    H2 2008   3.261   1.514   2.519
  689TIP3   OH2 2009   4.673   0.157   6.444
  689TIP3    H1 2010   4.729   0.190   6.514
  689TIP3    H2 2011   4.708   0.198   6.365
  690TIP3   OH2 2012   1.073   1.782   5.590
  690TIP3    H1 2013   1.005   1.741   5.644
  690TIP3    H2 2014   1.144   1.718   5.589
  691TIP3   OH2 2015   0.617   0.128   2.752
  691TIP3    H1 2016   0.628   0.108   2.659
  691TIP3    H2 2017   0.531   0.170   2.757
  692TIP3   OH2 2018   7.439   4.483   1.433
  692TIP3    H1 2019   7.430   4.431   1.353
  692TIP3    H2 2020   7.523   4.526   1.424
  693TIP3   OH2 2021   3.767   4.355   3.856
  693TIP3    H1 2022   3.827   4.419   3.895
  693TIP3    H2 2023   3.703   4.338   3.926
  694TIP3   OH2 2024   7.753   6.527   5.625
  694TIP3    H1 2025   7.822   6.559   5.683
  694TIP3    H2 2026   7.712   6.607   5.590
  695TIP3   OH2 2027   0.732   4.002   0.411
  695TIP3    H1 2028   0.677   3.929   0.382
  695TIP3    H2 2029   0.776   3.969   0.490
  696TIP3   OH2 2030   5.439   4.461   1.124
  696TIP3    H1 2031   5.415   4.370   1.143
  696TIP3    H2 2032   5.375   4.513   1.171
  697TIP3   OH2 2033   7.191   6.172   2.369
  697TIP3    H1 2034   7.222   6.086   2.398
  697TIP3    H2 2035   7.176   6.161   2.275
  698TIP3   OH2 2036   1.700   4.165   5.325
  698TIP3    H1 2037   1.652   4.236   5.283
  698TIP3    H2 2038   1.737   4.204   5.404
  699TIP3   OH2 2039   4.331   1.660   3.924
  699TIP3    H1 2040   4.292   1.655   3.837
  699TIP3    H2 2041   4.259   1.637   3.983
  700TIP3   OH2 2042   2.672   7.660   3.601
  700TIP3    H1 2043   2.764   7.637   3.612
  700TIP3    H2 2044   2.651   7.630   3.513
  701TIP3   OH2 2045   0.531   4.729   6.247
  701TIP3    H1 2046   0.437   4.712   6.239
  701TIP3    H2 2047   0.539   4.824   6.237
  702TIP3   OH2 2048   0.413   5.975   6.348
  702TIP3    H1 2049   0.407   5.883   6.323
  702TIP3    H2 2050   0.457   5.974   6.433
  703TIP3   OH2 2051   0.241   1.990   0.234
  703TIP3    H1 2052   0.169   2.046   0.262
  703TIP3    H2 2053   0.292   2.044   0.174
  704TIP3   OH2 2054   5.575   1.046   4.426
  704TIP3    H1 2055   5.501   1.073   4.481
  704TIP3    H2 2056   5.652   1.059   4.481
  705TIP3   OH2 2057   2.772   5.466   4.665
  705TIP3    H1 2058   2.794   5.377   4.638
  705TIP3    H2 2059   2.676   5.469   4.665
  706TIP3   OH2 2060   4.257   4.010   0.472
  706TIP3    H1 2061   4.333   4.055   0.435
  706TIP3    H2 2062   4.210   3.976   0.395
  707TIP3   OH2 2063   6.726   5.625   1.255
  707TIP3    H1 2064   6.655   5.684   1.229
  707TIP3    H2 2065   6.736   5.639   1.349
  708TIP3   OH2 2066   1.889   3.920   6.186
  708TIP3    H1 2067   1.912   3.838   6.143
  708TIP3    H2 2068   1.972   3.956   6.217
  709TIP3   OH2 2069   7.201   3.037   0.086
  709TIP3    H1 2070   7.172   2.952   0.121
  709TIP3    H2 2071   7.278   3.059   0.137
  710TIP3   OH2 2072   0.019   5.035   1.658
  710TIP3    H1 2073   0.053   5.073   1.577
  710TIP3    H2 2074  -0.074   5.057   1.658
  711TIP3   OH2 2075   6.848   3.847   6.463
  711TIP3    H1 2076   6.866   3.882   6.550
  711TIP3    H2 2077   6.759   3.878   6.443
  712TIP3   OH2 2078   7.483   3.769   4.847
  712TIP3    H1 2079   7.506   3.847   4.796
  712TIP3    H2 2080   7.486   3.697   4.783
  713TIP3   OH2 2081   4.815   6.933   3.835
  713TIP3    H1 2082   4.862   6.854   3.862
  713TIP3    H2 2083   4.740   6.938   3.894
  714TIP3   OH2 2084   7.281   0.466   2.468
  714TIP3    H1 2085   7.322   0.516   2.538
  714TIP3    H2 2086   7.197   0.510   2.453
  715TIP3   OH2 2087   2.823   1.189   5.709
  715TIP3    H1 2088   2.755   1.206   5.644
  715TIP3    H2 2089   2.903   1.176   5.657
  716TIP3   OH2 2090   7.380   5.328   5.103
  716TIP3    H1 2091   7.440   5.277   5.048
  716TIP3    H2 2092   7.434   5.399   5.138
  717TIP3   OH2 2093   2.967   5.615   6.525
  717TIP3    H1 2094   2.926   5.680   6.467
  717TIP3    H2 2095   2.940   5.642   6.613
  718TIP3   OH2 2096   0.480   6.595   5.310
  718TIP3    H1 2097   0.509   6.656   5.242
  718TIP3    H2 2098   0.559   6.577   5.361
  719TIP3   OH2 2099   2.947   2.023   1.947
  719TIP3    H1 2100   3.026   1.974   1.925
  719TIP3    H2 2101   2.887   1.958   1.983
  720TIP3   OH2 2102   2.964   2.877   4.018
  720TIP3    H1 2103   3.030   2.814   4.047
  720TIP3    H2 2104   3.013   2.958   4.003
  721TIP3   OH2 2105   3.189   0.681   3.141
  721TIP3    H1 2106   3.217   0.731   3.065
  721TIP3    H2 2107   3.139   0.744   3.194
  722TIP3   OH2 2108   6.806   3.753   3.084
  722TIP3    H1 2109   6.819   3.842   3.051
  722TIP3    H2 2110   6.722   3.725   3.048
  723TIP3   OH2 2111   1.063   2.255   3.909
  723TIP3    H1 2112   1.092   2.214   3.828
  723TIP3    H2 2113   1.140   2.253   3.966
  724TIP3   OH2 2114   6.852   7.825   2.991
  724TIP3    H1 2115   6.777   7.811   3.048
  724TIP3    H2 2116   6.875   7.738   2.960
  725TIP3   OH2 2117   6.236   5.096   4.660
  725TIP3    H1 2118   6.199   5.077   4.574
  725TIP3    H2 2119   6.191   5.037   4.720
  726TIP3   OH2 2120   6.012   4.420   4.615
  726TIP3    H1 2121   5.994   4.457   4.528
  726TIP3    H2 2122   5.950   4.347   4.623
  727TIP3   OH2 2123   3.744   3.451   0.610
  727TIP3    H1 2124   3.800   3.377   0.590
  727TIP3    H2 2125   3.711   3.480   0.525
  728TIP3   OH2 2126   3.378   4.905   2.936
  728TIP3    H1 2127   3.421   4.837   2.988
  728TIP3    H2 2128   3.326   4.857   2.871
  729TIP3   OH2 2129   2.245   4.461   2.300
  729TIP3    H1 2130   2.193   4.385   2.270
  729TIP3    H2 2131   2.303   4.481   2.227
  730TIP3   OH2 2132   0.852   2.586   3.445
  730TIP3    H1 2133   0.815   2.674   3.442
  730TIP3    H2 2134   0.876   2.566   3.355
  731TIP3   OH2 2135   2.235   6.287   0.366
  731TIP3    H1 2136   2.268   6.354   0.425
  731TIP3    H2 2137   2.155   6.325   0.329
  732TIP3   OH2 2138   7.126   6.953   5.379
  732TIP3    H1 2139   7.161   6.866   5.399
  732TIP3    H2 2140   7.100   6.988   5.464
  733TIP3   OH2 2141   4.953   1.322   3.183
  733TIP3    H1 2142   4.901   1.374   3.122
  733TIP3    H2 2143   5.044   1.345   3.162
  734TIP3   OH2 2144   3.895   0.057   5.756
  734TIP3    H1 2145   3.881   0.105   5.838
  734TIP3    H2 2146   3.974   0.096   5.719
  735TIP3   OH2 2147   5.289   0.813   5.815
  735TIP3    H1 2148   5.310   0.905   5.836
  735TIP3    H2 2149   5.233   0.785   5.887
  736TIP3   OH2 2150   1.296   5.430   5.409
  736TIP3    H1 2151   1.246   5.459   5.485
  736TIP3    H2 2152   1.253   5.472   5.334
  737TIP3   OH2 2153   6.116   7.582   0.770
  737TIP3    H1 2154   6.096   7.579   0.676
  737TIP3    H2 2155   6.209   7.563   0.776
  738TIP3   OH2 2156   0.061   0.681   5.267
  738TIP3    H1 2157   0.058   0.593   5.306
  738TIP3    H2 2158   0.128   0.674   5.200
  739TIP3   OH2 2159   5.600   1.481   6.014
  739TIP3    H1 2160   5.658   1.418   6.056
  739TIP3    H2 2161   5.618   1.473   5.921
  740TIP3   OH2 2162   5.668   2.306   6.664
  740TIP3    H1 2163   5.634   2.344   6.745
  740TIP3    H2 2164   5.641   2.367   6.596
  741TIP3   OH2 2165   6.079   1.271   1.516
  741TIP3    H1 2166   6.096   1.299   1.426
  741TIP3    H2 2167   6.159   1.291   1.564
  742TIP3   OH2 2168   2.598   6.074   4.717
  742TIP3    H1 2169   2.638   6.007   4.773
  742TIP3    H2 2170   2.508   6.044   4.703
  743TIP3   OH2 2171   2.159   6.548   4.668
  743TIP3    H1 2172   2.145   6.585   4.581
  743TIP3    H2 2173   2.139   6.619   4.729
  744TIP3   OH2 2174   6.961   4.894   3.211
  744TIP3    H1 2175   6.947   4.804   3.181
  744TIP3    H2 2176   6.924   4.896   3.299
  745TIP3   OH2 2177   7.096   7.128   6.293
  745TIP3    H1 2178   7.013   7.083   6.306
  745TIP3    H2 2179   7.140   7.078   6.224
  746TIP3   OH2 2180   5.562   4.581   4.030
  746TIP3    H1 2181   5.585   4.637   4.104
  746TIP3    H2 2182   5.646   4.561   3.989
  747TIP3   OH2 2183   1.081   1.831   2.058
  747TIP3    H1 2184   1.036   1.832   1.974
  747TIP3    H2 2185   1.052   1.911   2.102
  748TIP3   OH2 2186   0.630   4.453   0.036
  748TIP3    H1 2187   0.564   4.404   0.084
  748TIP3    H2 2188   0.580   4.499  -0.032
  749TIP3   OH2 2189   1.970   1.373   5.954
  749TIP3    H1 2190   2.010   1.369   6.041
  749TIP3    H2 2191   2.043   1.358   5.894
  750TIP3   OH2 2192   3.155   4.710   2.829
  750TIP3    H1 2193   3.059   4.713   2.822
  750TIP3    H2 2194   3.175   4.617   2.843
  751TIP3   OH2 2195   3.369   2.663   2.058
  751TIP3    H1 2196   3.458   2.629   2.061
  751TIP3    H2 2197   3.378   2.756   2.082
  752TIP3   OH2 2198   6.623   2.019   4.846
  752TIP3    H1 2199   6.712   1.986   4.835
  752TIP3    H2 2200   6.567   1.953   4.805
  753TIP3   OH2 2201   7.089   5.586   1.412
  753TIP3    H1 2202   7.051   5.648   1.475
  753TIP3    H2 2203   7.069   5.500   1.448
  754TIP3   OH2 2204   7.057   6.083   0.731
  754TIP3    H1 2205   7.025   6.114   0.816
  754TIP3    H2 2206   7.037   5.989   0.732
  755TIP3   OH2 2207   1.789   7.630   1.384
  755TIP3    H1 2208   1.699   7.662   1.391
  755TIP3    H2 2209   1.835   7.672   1.457
  756TIP3   OH2 2210   0.297   2.733   4.964
  756TIP3    H1 2211   0.293   2.755   4.871
  756TIP3    H2 2212   0.367   2.668   4.970
  757TIP3   OH2 2213   6.101   2.999   2.033
  757TIP3    H1 2214   6.047   2.938   2.083
  757TIP3    H2 2215   6.038   3.065   2.002
  758TIP3   OH2 2216   5.090   6.167   5.405
  758TIP3    H1 2217   5.088   6.243   5.463
  758TIP3    H2 2218   5.001   6.133   5.406
  759TIP3   OH2 2219   0.983   2.658   1.529
  759TIP3    H1 2220   0.975   2.750   1.552
  759TIP3    H2 2221   1.008   2.659   1.436
  760TIP3   OH2 2222   6.698   4.088   1.741
  760TIP3    H1 2223   6.664   4.168   1.782
  760TIP3    H2 2224   6.793   4.093   1.754
  761TIP3   OH2 2225   6.695   3.973   2.231
  761TIP3    H1 2226   6.769   3.990   2.174
  761TIP3    H2 2227   6.622   3.956   2.171
  762TIP3   OH2 2228   5.694   7.660   1.099
  762TIP3    H1 2229   5.732   7.745   1.076
  762TIP3    H2 2230   5.765   7.614   1.144
  763TIP3   OH2 2231   4.083   6.230   1.451
  763TIP3    H1 2232   4.096   6.147   1.497
  763TIP3    H2 2233   4.020   6.210   1.382
  764TIP3   OH2 2234   7.791   7.190   3.778
  764TIP3    H1 2235   7.867   7.166   3.726
  764TIP3    H2 2236   7.777   7.283   3.759
  765TIP3   OH2 2237   6.097   0.056   3.022
  765TIP3    H1 2238   6.158   0.098   3.083
  765TIP3    H2 2239   6.011   0.092   3.046
  766TIP3   OH2 2240   0.722   1.195   0.397
  766TIP3    H1 2241   0.811   1.160   0.399
  766TIP3    H2 2242   0.730   1.283   0.434
  767TIP3   OH2 2243   7.999   6.548   4.800
  767TIP3    H1 2244   8.059   6.538   4.873
  767TIP3    H2 2245   8.050   6.523   4.723
  768TIP3   OH2 2246   4.370   0.691   0.558
  768TIP3    H1 2247   4.451   0.688   0.507
  768TIP3    H2 2248   4.362   0.604   0.597
  769TIP3   OH2 2249   5.082   6.553   3.284
  769TIP3    H1 2250   5.051   6.593   3.203
  769TIP3    H2 2251   5.127   6.624   3.330
  770TIP3   OH2 2252   4.168   1.661   3.459
  770TIP3    H1 2253   4.251   1.643   3.414
  770TIP3    H2 2254   4.102   1.613   3.409
  771TIP3   OH2 2255   1.917   6.105   2.502
  771TIP3    H1 2256   1.847   6.052   2.463
  771TIP3    H2 2257   1.873   6.184   2.533
  772TIP3   OH2 2258   6.264   0.806   2.880
  772TIP3    H1 2259   6.323   0.787   2.954
  772TIP3    H2 2260   6.276   0.732   2.821
  773TIP3   OH2 2261   8.061   4.352   6.673
  773TIP3    H1 2262   8.096   4.426   6.623
  773TIP3    H2 2263   7.967   4.356   6.659
  774TIP3   OH2 2264   2.962   2.458   1.933
  774TIP3    H1 2265   2.972   2.391   2.001
  774TIP3    H2 2266   3.052   2.486   1.914
  775TIP3   OH2 2267   8.181   1.368   4.128
  775TIP3    H1 2268   8.231   1.419   4.064
  775TIP3    H2 2269   8.227   1.382   4.210
  776TIP3   OH2 2270   4.764   5.571   5.329
  776TIP3    H1 2271   4.717   5.557   5.412
  776TIP3    H2 2272   4.817   5.491   5.318
  777TIP3   OH2 2273   5.482   0.022   5.745
  777TIP3    H1 2274   5.483  -0.045   5.677
  777TIP3    H2 2275   5.535   0.094   5.710
  778TIP3   OH2 2276   2.232   2.367   0.290
  778TIP3    H1 2277   2.229   2.456   0.326
  778TIP3    H2 2278   2.148   2.356   0.247
  779TIP3   OH2 2279   2.957   2.246   3.019
  779TIP3    H1 2280   2.950   2.328   2.969
  779TIP3    H2 2281   3.025   2.196   2.974
  780TIP3   OH2 2282   0.508   2.763   2.542
  780TIP3    H1 2283   0.452   2.685   2.536
  780TIP3    H2 2284   0.547   2.757   2.629
  781TIP3   OH2 2285   1.028   7.286   3.203
  781TIP3    H1 2286   1.092   7.296   3.275
  781TIP3    H2 2287   0.977   7.367   3.206
  782TIP3   OH2 2288   1.932   4.859   3.233
  782TIP3    H1 2289   1.945   4.855   3.138
  782TIP3    H2 2290   1.930   4.952   3.253
  783TIP3   OH2 2291   1.303   5.642   1.562
  783TIP3    H1 2292   1.376   5.614   1.507
  783TIP3    H2 2293   1.248   5.695   1.505
  784TIP3   OH2 2294   0.787   0.894   1.476
  784TIP3    H1 2295   0.840   0.920   1.552
  784TIP3    H2 2296   0.710   0.950   1.481
  785TIP3   OH2 2297   8.022   1.493   6.607
  785TIP3    H1 2298   8.091   1.431   6.632
  785TIP3    H2 2299   8.069   1.565   6.566
  786TIP3   OH2 2300   3.716   0.754   2.663
  786TIP3    H1 2301   3.701   0.664   2.694
  786TIP3    H2 2302   3.628   0.789   2.650
  787TIP3   OH2 2303   1.264   3.270   4.193
  787TIP3    H1 2304   1.352   3.297   4.166
  787TIP3    H2 2305   1.209   3.346   4.173
  788TIP3   OH2 2306   2.739   6.772   5.612
  788TIP3    H1 2307   2.778   6.735   5.691
  788TIP3    H2 2308   2.715   6.695   5.560
  789TIP3   OH2 2309   6.287   6.966   0.144
  789TIP3    H1 2310   6.302   7.008   0.059
  789TIP3    H2 2311   6.207   6.915   0.131
  790TIP3   OH2 2312   6.907   6.764   3.414
  790TIP3    H1 2313   6.925   6.707   3.489
  790TIP3    H2 2314   6.849   6.831   3.447
  791TIP3   OH2 2315   5.611   4.966   5.480
  791TIP3    H1 2316   5.528   5.012   5.491
  791TIP3    H2 2317   5.624   4.963   5.385
  792TIP3   OH2 2318   7.331   0.256   4.031
  792TIP3    H1 2319   7.263   0.310   4.071
  792TIP3    H2 2320   7.319   0.169   4.068
  793TIP3   OH2 2321   5.716   5.003   6.170
  793TIP3    H1 2322   5.674   5.086   6.147
  793TIP3    H2 2323   5.661   4.966   6.239
  794TIP3   OH2 2324   1.191   2.676   3.794
  794TIP3    H1 2325   1.115   2.631   3.831
  794TIP3    H2 2326   1.153   2.743   3.737
  795TIP3   OH2 2327   1.087   4.360   0.352
  795TIP3    H1 2328   1.009   4.412   0.333
  795TIP3    H2 2329   1.090   4.354   0.447
  796TIP3   OH2 2330   0.025   7.013   6.570
  796TIP3    H1 2331   0.104   7.038   6.619
  796TIP3    H2 2332  -0.028   7.092   6.568
  797TIP3   OH2 2333   6.906   2.416   1.955
  797TIP3    H1 2334   6.973   2.438   1.890
  797TIP3    H2 2335   6.877   2.501   1.989
  798TIP3   OH2 2336   1.009   1.127   0.951
  798TIP3    H1 2337   0.977   1.114   1.041
  798TIP3    H2 2338   0.944   1.183   0.910
  799TIP3   OH2 2339   6.417   6.050   6.242
  799TIP3    H1 2340   6.414   5.963   6.282
  799TIP3    H2 2341   6.384   6.037   6.153
  800TIP3   OH2 2342   5.012   6.669   1.028
  800TIP3    H1 2343   5.048   6.610   0.961
  800TIP3    H2 2344   5.033   6.626   1.111
  801TIP3   OH2 2345   2.487   3.622   2.301
  801TIP3    H1 2346   2.572   3.661   2.282
  801TIP3    H2 2347   2.440   3.626   2.217
  802TIP3   OH2 2348   3.625   2.814   3.679
  802TIP3    H1 2349   3.622   2.726   3.641
  802TIP3    H2 2350   3.717   2.827   3.701
  803TIP3   OH2 2351   5.060   0.994   2.698
  803TIP3    H1 2352   4.989   0.930   2.698
  803TIP3    H2 2353   5.140   0.942   2.692
  804TIP3   OH2 2354   3.856   2.292   5.668
  804TIP3    H1 2355   3.800   2.341   5.606
  804TIP3    H2 2356   3.871   2.208   5.625
  805TIP3   OH2 2357   3.601   7.069   2.716
  805TIP3    H1 2358   3.681   7.087   2.764
  805TIP3    H2 2359   3.611   6.978   2.686
  806TIP3   OH2 2360   6.234   1.970   1.502
  806TIP3    H1 2361   6.263   1.883   1.475
  806TIP3    H2 2362   6.311   2.026   1.488
  807TIP3   OH2 2363   1.276   2.494   0.218
  807TIP3    H1 2364   1.365   2.514   0.189
  807TIP3    H2 2365   1.284   2.486   0.313
  808TIP3   OH2 2366   4.982   6.076   1.618
  808TIP3    H1 2367   5.045   6.004   1.620
  808TIP3    H2 2368   4.899   6.035   1.597
  809TIP3   OH2 2369   2.867   0.688   3.002
  809TIP3    H1 2370   2.801   0.740   3.047
  809TIP3    H2 2371   2.858   0.600   3.038
  810TIP3   OH2 2372   5.905   3.808   3.031
  810TIP3    H1 2373   5.852   3.872   3.078
  810TIP3    H2 2374   5.988   3.806   3.079
  811TIP3   OH2 2375   2.840   7.708   0.752
  811TIP3    H1 2376   2.895   7.719   0.830
  811TIP3    H2 2377   2.751   7.702   0.786
  812TIP3   OH2 2378   7.331   7.187   3.141
  812TIP3    H1 2379   7.378   7.200   3.059
  812TIP3    H2 2380   7.386   7.127   3.191
  813TIP3   OH2 2381   3.957   3.136   1.788
  813TIP3    H1 2382   4.006   3.108   1.865
  813TIP3    H2 2383   3.928   3.225   1.808
  814TIP3   OH2 2384   0.968   2.578   5.323
  814TIP3    H1 2385   1.036   2.511   5.317
  814TIP3    H2 2386   1.012   2.659   5.297
  815TIP3   OH2 2387   1.113   6.689   1.466
  815TIP3    H1 2388   1.037   6.638   1.495
  815TIP3    H2 2389   1.173   6.624   1.428
  816TIP3   OH2 2390   1.203   3.702   2.533
  816TIP3    H1 2391   1.276   3.648   2.564
  816TIP3    H2 2392   1.146   3.641   2.487
  817TIP3   OH2 2393   2.034   0.499   4.679
  817TIP3    H1 2394   2.001   0.429   4.623
  817TIP3    H2 2395   2.111   0.533   4.633
  818TIP3   OH2 2396   7.946   1.874   1.677
  818TIP3    H1 2397   7.876   1.935   1.699
  818TIP3    H2 2398   7.923   1.793   1.723
  819TIP3   OH2 2399   5.189   1.762   3.783
  819TIP3    H1 2400   5.277   1.800   3.779
  819TIP3    H2 2401   5.159   1.779   3.872
  820TIP3   OH2 2402   6.557   0.673   4.355
  820TIP3    H1 2403   6.616   0.717   4.417
  820TIP3    H2 2404   6.615   0.633   4.290
  821TIP3   OH2 2405   6.084   2.376   3.914
  821TIP3    H1 2406   6.149   2.422   3.861
  821TIP3    H2 2407   6.035   2.323   3.851
  822TIP3   OH2 2408   6.534   0.883   5.116
  822TIP3    H1 2409   6.470   0.926   5.059
  822TIP3    H2 2410   6.562   0.951   5.176
  823TIP3   OH2 2411   5.132   5.907   2.851
  823TIP3    H1 2412   5.126   5.976   2.917
  823TIP3    H2 2413   5.091   5.831   2.892
  824TIP3   OH2 2414   1.638   7.550   4.336
  824TIP3    H1 2415   1.714   7.609   4.332
  824TIP3    H2 2416   1.569   7.597   4.289
  825TIP3   OH2 2417   5.755   1.120   1.805
  825TIP3    H1 2418   5.705   1.101   1.884
  825TIP3    H2 2419   5.846   1.098   1.827
  826TIP3   OH2 2420   8.279   6.564   3.740
  826TIP3    H1 2421   8.298   6.477   3.704
  826TIP3    H2 2422   8.234   6.610   3.670
  827TIP3   OH2 2423   0.009   5.962   5.203
  827TIP3    H1 2424   0.017   6.057   5.206
  827TIP3    H2 2425  -0.025   5.938   5.289
  828TIP3   OH2 2426   0.116   0.072   4.384
  828TIP3    H1 2427   0.047   0.130   4.416
  828TIP3    H2 2428   0.136   0.105   4.296
  829TIP3   OH2 2429   2.563   6.379   0.671
  829TIP3    H1 2430   2.484   6.374   0.618
  829TIP3    H2 2431   2.620   6.439   0.623
  830TIP3   OH2 2432   5.174   0.295   5.599
  830TIP3    H1 2433   5.137   0.224   5.651
  830TIP3    H2 2434   5.109   0.365   5.605
  831TIP3   OH2 2435   5.211   5.875   0.885
  831TIP3    H1 2436   5.144   5.933   0.922
  831TIP3    H2 2437   5.163   5.796   0.860
  832TIP3   OH2 2438   2.612   3.922   5.072
  832TIP3    H1 2439   2.705   3.901   5.068
  832TIP3    H2 2440   2.582   3.913   4.982
  833TIP3   OH2 2441   1.166   2.725   3.468
  833TIP3    H1 2442   1.128   2.779   3.398
  833TIP3    H2 2443   1.135   2.766   3.548
  834TIP3   OH2 2444   3.230   1.976   3.992
  834TIP3    H1 2445   3.273   2.010   4.070
  834TIP3    H2 2446   3.282   2.011   3.919
  835TIP3   OH2 2447   5.834   7.449   6.529
  835TIP3    H1 2448   5.748   7.414   6.505
  835TIP3    H2 2449   5.890   7.372   6.538
  836TIP3   OH2 2450   6.305   2.321   4.241
  836TIP3    H1 2451   6.329   2.360   4.325
  836TIP3    H2 2452   6.213   2.343   4.229
  837TIP3   OH2 2453   2.684   1.487   5.937
  837TIP3    H1 2454   2.700   1.576   5.968
  837TIP3    H2 2455   2.772   1.448   5.932
  838TIP3   OH2 2456   4.927   5.944   4.257
  838TIP3    H1 2457   4.848   5.903   4.292
  838TIP3    H2 2458   4.945   6.017   4.316
  839TIP3   OH2 2459   7.528   0.945   4.420
  839TIP3    H1 2460   7.607   0.999   4.423
  839TIP3    H2 2461   7.456   1.008   4.429
  840TIP3   OH2 2462   5.440   2.490   1.090
  840TIP3    H1 2463   5.352   2.526   1.094
  840TIP3    H2 2464   5.496   2.565   1.070
  841TIP3   OH2 2465   6.047   2.044   0.859
  841TIP3    H1 2466   6.119   2.037   0.922
  841TIP3    H2 2467   6.057   2.132   0.822
  842TIP3   OH2 2468   0.749   6.039   0.752
  842TIP3    H1 2469   0.749   6.065   0.844
  842TIP3    H2 2470   0.710   5.952   0.752
  843TIP3   OH2 2471   0.767   6.560   4.614
  843TIP3    H1 2472   0.745   6.550   4.706
  843TIP3    H2 2473   0.682   6.567   4.570
  844TIP3   OH2 2474   0.359   0.758   1.108
  844TIP3    H1 2475   0.381   0.842   1.148
  844TIP3    H2 2476   0.406   0.694   1.161
  845TIP3   OH2 2477   6.769   5.175   4.865
  845TIP3    H1 2478   6.708   5.120   4.914
  845TIP3    H2 2479   6.845   5.183   4.922
  846TIP3   OH2 2480   8.068   6.061   6.082
  846TIP3    H1 2481   8.023   6.003   6.143
  846TIP3    H2 2482   8.158   6.028   6.080
  847TIP3   OH2 2483   3.513   6.163   4.327
  847TIP3    H1 2484   3.595   6.213   4.326
  847TIP3    H2 2485   3.461   6.203   4.397
  848TIP3   OH2 2486   6.939   5.883   0.006
  848TIP3    H1 2487   6.900   5.971  -0.002
  848TIP3    H2 2488   6.992   5.887   0.085
  849TIP3   OH2 2489   2.938   1.063   2.327
  849TIP3    H1 2490   2.906   1.064   2.417
  849TIP3    H2 2491   2.928   0.971   2.300
  850TIP3   OH2 2492   5.513   0.773   3.224
  850TIP3    H1 2493   5.487   0.850   3.275
  850TIP3    H2 2494   5.457   0.777   3.146
  851TIP3   OH2 2495   3.706   2.170   4.076
  851TIP3    H1 2496   3.756   2.202   4.001
  851TIP3    H2 2497   3.769   2.170   4.148
  852TIP3   OH2 2498   1.236   4.160   2.085
  852TIP3    H1 2499   1.200   4.102   2.153
  852TIP3    H2 2500   1.225   4.248   2.121
  853TIP3   OH2 2501   3.670   3.024   6.558
  853TIP3    H1 2502   3.577   3.035   6.576
  853TIP3    H2 2503   3.697   2.949   6.611
  854TIP3   OH2 2504   3.493   7.196   5.807
  854TIP3    H1 2505   3.466   7.127   5.868
  854TIP3    H2 2506   3.579   7.168   5.775
  855TIP3   OH2 2507   7.346   6.776   4.710
  855TIP3    H1 2508   7.255   6.752   4.730
  855TIP3    H2 2509   7.349   6.871   4.726
  856TIP3   OH2 2510   0.758   0.347   4.623
  856TIP3    H1 2511   0.781   0.341   4.531
  856TIP3    H2 2512   0.709   0.429   4.630
  857TIP3   OH2 2513   7.817   6.026   6.301
  857TIP3    H1 2514   7.866   5.944   6.291
  857TIP3    H2 2515   7.742   6.016   6.243
  858TIP3   OH2 2516   4.787   4.534   2.044
  858TIP3    H1 2517   4.819   4.568   1.960
  858TIP3    H2 2518   4.776   4.440   2.030
  859TIP3   OH2 2519   8.304   4.162   6.483
  859TIP3    H1 2520   8.332   4.074   6.506
  859TIP3    H2 2521   8.290   4.206   6.567
  860TIP3   OH2 2522   7.366   6.436   3.113
  860TIP3    H1 2523   7.401   6.351   3.140
  860TIP3    H2 2524   7.401   6.498   3.177
  861TIP3   OH2 2525   5.790   4.527   4.987
  861TIP3    H1 2526   5.776   4.446   5.037
  861TIP3    H2 2527   5.756   4.596   5.045
  862TIP3   OH2 2528   4.973   2.091   5.909
  862TIP3    H1 2529   5.003   2.024   5.847
  862TIP3    H2 2530   4.946   2.164   5.853
  863TIP3   OH2 2531   4.558   7.580   4.806
  863TIP3    H1 2532   4.499   7.655   4.795
  863TIP3    H2 2533   4.604   7.573   4.722
  864TIP3   OH2 2534   4.036   4.536   5.095
  864TIP3    H1 2535   4.093   4.571   5.164
  864TIP3    H2 2536   4.012   4.612   5.043
  865TIP3   OH2 2537   5.920   1.005   6.707
  865TIP3    H1 2538   5.982   1.078   6.702
  865TIP3    H2 2539   5.839   1.040   6.670
  866TIP3   OH2 2540   0.402   3.411   2.082
  866TIP3    H1 2541   0.313   3.396   2.114
  866TIP3    H2 2542   0.424   3.332   2.033
  867TIP3   OH2 2543   7.575   3.170   3.183
  867TIP3    H1 2544   7.536   3.145   3.099
  867TIP3    H2 2545   7.622   3.251   3.165
  868TIP3   OH2 2546   2.684   5.219   5.846
  868TIP3    H1 2547   2.757   5.243   5.902
  868TIP3    H2 2548   2.723   5.211   5.758
  869TIP3   OH2 2549   4.061   3.565   1.505
  869TIP3    H1 2550   3.995   3.518   1.454
  869TIP3    H2 2551   4.086   3.504   1.574
  870TIP3   OH2 2552   2.210   3.912   3.442
  870TIP3    H1 2553   2.290   3.861   3.449
  870TIP3    H2 2554   2.169   3.883   3.361
  871TIP3   OH2 2555   1.048   5.286   0.717
  871TIP3    H1 2556   1.100   5.360   0.685
  871TIP3    H2 2557   0.977   5.277   0.654
  872TIP3   OH2 2558   6.039   2.433   1.943
  872TIP3    H1 2559   6.133   2.425   1.962
  872TIP3    H2 2560   6.001   2.465   2.025
  873TIP3   OH2 2561   6.250   4.374   5.375
  873TIP3    H1 2562   6.249   4.430   5.452
  873TIP3    H2 2563   6.184   4.306   5.393
  874TIP3   OH2 2564   5.329   0.508   0.296
  874TIP3    H1 2565   5.347   0.573   0.364
  874TIP3    H2 2566   5.281   0.556   0.229
  875TIP3   OH2 2567   1.287   6.070   2.573
  875TIP3    H1 2568   1.255   6.007   2.509
  875TIP3    H2 2569   1.271   6.156   2.532
  876TIP3   OH2 2570   2.073   5.785   3.321
  876TIP3    H1 2571   2.142   5.784   3.387
  876TIP3    H2 2572   2.119   5.799   3.238
  877TIP3   OH2 2573   4.759   7.691   0.965
  877TIP3    H1 2574   4.738   7.731   0.881
  877TIP3    H2 2575   4.835   7.739   0.997
  878TIP3   OH2 2576   4.460   3.734   1.700
  878TIP3    H1 2577   4.524   3.777   1.757
  878TIP3    H2 2578   4.487   3.642   1.699
  879TIP3   OH2 2579   7.463   5.432   6.456
  879TIP3    H1 2580   7.389   5.394   6.410
  879TIP3    H2 2581   7.427   5.465   6.538
  880TIP3   OH2 2582   7.954   3.239   1.051
  880TIP3    H1 2583   7.930   3.307   1.114
  880TIP3    H2 2584   7.886   3.245   0.983
  881TIP3   OH2 2585   1.895   7.265   0.695
  881TIP3    H1 2586   1.947   7.241   0.772
  881TIP3    H2 2587   1.878   7.359   0.706
  882TIP3   OH2 2588   5.084   3.247   5.451
  882TIP3    H1 2589   5.173   3.238   5.485
  882TIP3    H2 2590   5.029   3.248   5.529
  883TIP3   OH2 2591   4.075   3.107   5.442
  883TIP3    H1 2592   4.115   3.108   5.355
  883TIP3    H2 2593   4.049   3.016   5.455
  884TIP3   OH2 2594   0.692   4.672   4.388
  884TIP3    H1 2595   0.764   4.639   4.443
  884TIP3    H2 2596   0.626   4.603   4.391
  885TIP3   OH2 2597   3.788   0.374   2.859
  885TIP3    H1 2598   3.864   0.338   2.904
  885TIP3    H2 2599   3.762   0.449   2.912
  886TIP3   OH2 2600   7.404   2.788   3.015
  886TIP3    H1 2601   7.350   2.792   2.936
  886TIP3    H2 2602   7.377   2.864   3.067
  887TIP3   OH2 2603   2.994   4.076   4.826
  887TIP3    H1 2604   3.085   4.054   4.846
  887TIP3    H2 2605   2.976   4.029   4.745
  888TIP3   OH2 2606   5.367   2.575   0.754
  888TIP3    H1 2607   5.412   2.508   0.806
  888TIP3    H2 2608   5.354   2.647   0.814
  889TIP3   OH2 2609   7.615   2.226   5.858
  889TIP3    H1 2610   7.534   2.271   5.881
  889TIP3    H2 2611   7.667   2.228   5.938
  890TIP3   OH2 2612   5.618   2.534   2.893
  890TIP3    H1 2613   5.613   2.482   2.812
  890TIP3    H2 2614   5.614   2.625   2.863
  891TIP3   OH2 2615   8.128   1.700   6.501
  891TIP3    H1 2616   8.096   1.731   6.416
  891TIP3    H2 2617   8.217   1.670   6.484
  892TIP3   OH2 2618   7.486   7.724   0.071
  892TIP3    H1 2619   7.488   7.742   0.165
  892TIP3    H2 2620   7.457   7.633   0.064
  893TIP3   OH2 2621   1.582   0.775   2.101
  893TIP3    H1 2622   1.567   0.681   2.087
  893TIP3    H2 2623   1.665   0.779   2.148
  894TIP3   OH2 2624   7.562   3.027   4.247
  894TIP3    H1 2625   7.511   2.961   4.200
  894TIP3    H2 2626   7.644   2.982   4.269
  895TIP3   OH2 2627   7.188   4.994   3.467
  895TIP3    H1 2628   7.094   5.010   3.460
  895TIP3    H2 2629   7.198   4.942   3.547
  896TIP3   OH2 2630   7.811   7.739   0.564
  896TIP3    H1 2631   7.800   7.654   0.606
  896TIP3    H2 2632   7.752   7.797   0.612
  897TIP3   OH2 2633   1.432   1.115   6.150
  897TIP3    H1 2634   1.500   1.060   6.111
  897TIP3    H2 2635   1.375   1.138   6.077
  898TIP3   OH2 2636   6.816   0.782   3.126
  898TIP3    H1 2637   6.912   0.785   3.125
  898TIP3    H2 2638   6.795   0.709   3.185
  899TIP3   OH2 2639   6.844   0.508   1.525
  899TIP3    H1 2640   6.896   0.478   1.451
  899TIP3    H2 2641   6.892   0.584   1.558
  900TIP3   OH2 2642   0.061   2.077   5.532
  900TIP3    H1 2643   0.079   1.988   5.563
  900TIP3    H2 2644   0.146   2.120   5.529
  901TIP3   OH2 2645   2.716   3.737   2.227
  901TIP3    H1 2646   2.768   3.691   2.161
  901TIP3    H2 2647   2.664   3.799   2.177
  902TIP3   OH2 2648   4.065   7.082   4.860
  902TIP3    H1 2649   4.041   6.992   4.841
  902TIP3    H2 2650   4.107   7.078   4.947
  903TIP3   OH2 2651   5.103   3.780   0.095
  903TIP3    H1 2652   5.038   3.748   0.157
  903TIP3    H2 2653   5.155   3.703   0.073
  904TIP3   OH2 2654   7.572  -0.029   3.781
  904TIP3    H1 2655   7.482  -0.052   3.804
  904TIP3    H2 2656   7.568  -0.011   3.687
  905TIP3   OH2 2657   0.939   4.652   3.403
  905TIP3    H1 2658   0.905   4.576   3.356
  905TIP3    H2 2659   1.016   4.618   3.451
  906TIP3   OH2 2660   6.250   3.275   4.119
  906TIP3    H1 2661   6.270   3.250   4.209
  906TIP3    H2 2662   6.156   3.292   4.119
  907TIP3   OH2 2663   4.295   5.337   3.032
  907TIP3    H1 2664   4.318   5.368   3.119
  907TIP3    H2 2665   4.273   5.245   3.045
  908TIP3   OH2 2666   4.181   1.851   2.673
  908TIP3    H1 2667   4.167   1.825   2.764
  908TIP3    H2 2668   4.139   1.782   2.621
  909TIP3   OH2 2669   6.101   6.707   0.638
  909TIP3    H1 2670   6.033   6.752   0.588
  909TIP3    H2 2671   6.160   6.777   0.667
  910TIP3   OH2 2672   1.910   2.645   4.575
  910TIP3    H1 2673   1.835   2.600   4.536
  910TIP3    H2 2674   1.875   2.731   4.602
  911TIP3   OH2 2675   5.698   0.897   4.218
  911TIP3    H1 2676   5.792   0.914   4.223
  911TIP3    H2 2677   5.659   0.957   4.280
  912TIP3   OH2 2678   5.600   0.255   4.714
  912TIP3    H1 2679   5.516   0.218   4.687
  912TIP3    H2 2680   5.618   0.215   4.799
  913TIP3   OH2 2681   1.185   0.158   1.168
  913TIP3    H1 2682   1.223   0.204   1.243
  913TIP3    H2 2683   1.112   0.212   1.140
  914TIP3   OH2 2684   5.435   0.766   4.326
  914TIP3    H1 2685   5.475   0.852   4.339
  914TIP3    H2 2686   5.411   0.737   4.413
  915TIP3   OH2 2687   8.088   3.196   3.506
  915TIP3    H1 2688   8.131   3.204   3.591
  915TIP3    H2 2689   8.156   3.215   3.442
  916TIP3   OH2 2690   7.044   4.903   3.852
  916TIP3    H1 2691   6.975   4.869   3.909
  916TIP3    H2 2692   7.012   4.989   3.824
  917TIP3   OH2 2693   4.519   4.083   2.187
  917TIP3    H1 2694   4.551   3.996   2.161
  917TIP3    H2 2695   4.540   4.090   2.280
  918TIP3   OH2 2696   2.869   4.037   3.589
  918TIP3    H1 2697   2.800   3.976   3.614
  918TIP3    H2 2698   2.900   4.073   3.672
  919TIP3   OH2 2699   1.645   3.494   4.345
  919TIP3    H1 2700   1.582   3.521   4.412
  919TIP3    H2 2701   1.672   3.576   4.303
  920TIP3   OH2 2702   3.280   6.591   5.177
  920TIP3    H1 2703   3.269   6.546   5.093
  920TIP3    H2 2704   3.290   6.520   5.241
  921TIP3   OH2 2705   2.255   2.039   6.298
  921TIP3    H1 2706   2.348   2.016   6.304
  921TIP3    H2 2707   2.243   2.069   6.207
  922TIP3   OH2 2708   3.857   7.452   6.174
  922TIP3    H1 2709   3.905   7.492   6.100
  922TIP3    H2 2710   3.765   7.472   6.156
  923TIP3   OH2 2711   1.349   1.125   3.438
  923TIP3    H1 2712   1.402   1.182   3.494
  923TIP3    H2 2713   1.281   1.182   3.403
  924TIP3   OH2 2714   8.024   5.829   4.040
  924TIP3    H1 2715   7.949   5.856   3.987
  924TIP3    H2 2716   8.087   5.901   4.031
  925TIP3   OH2 2717   2.216   3.002   0.066
  925TIP3    H1 2718   2.264   2.926   0.032
  925TIP3    H2 2719   2.124   2.974   0.066
  926TIP3   OH2 2720   6.974   6.696   5.277
  926TIP3    H1 2721   6.972   6.787   5.250
  926TIP3    H2 2722   7.023   6.697   5.360
  927TIP3   OH2 2723   5.957   3.845   3.632
  927TIP3    H1 2724   5.956   3.850   3.728
  927TIP3    H2 2725   6.044   3.877   3.607
  928TIP3   OH2 2726   0.717   2.517   5.398
  928TIP3    H1 2727   0.811   2.515   5.381
  928TIP3    H2 2728   0.710   2.499   5.492
  929TIP3   OH2 2729   4.546   3.373   1.908
  929TIP3    H1 2730   4.466   3.339   1.867
  929TIP3    H2 2731   4.524   3.381   2.001
  930TIP3   OH2 2732   1.312   4.573   6.316
  930TIP3    H1 2733   1.252   4.571   6.242
  930TIP3    H2 2734   1.273   4.634   6.378
  931TIP3   OH2 2735   0.187   0.742   4.317
  931TIP3    H1 2736   0.231   0.671   4.270
  931TIP3    H2 2737   0.200   0.819   4.262
  932TIP3   OH2 2738   0.887   3.557   2.481
  932TIP3    H1 2739   0.837   3.563   2.400
  932TIP3    H2 2740   0.820   3.554   2.550
  933TIP3   OH2 2741   3.878   2.833   4.916
  933TIP3    H1 2742   3.945   2.882   4.869
  933TIP3    H2 2743   3.796   2.877   4.895
  934TIP3   OH2 2744   1.325   6.548   1.008
  934TIP3    H1 2745   1.364   6.493   1.076
  934TIP3    H2 2746   1.371   6.524   0.928
  935TIP3   OH2 2747   6.653   5.204   0.780
  935TIP3    H1 2748   6.597   5.270   0.823
  935TIP3    H2 2749   6.628   5.208   0.688
  936TIP3   OH2 2750   4.818   2.471   5.564
  936TIP3    H1 2751   4.890   2.534   5.554
  936TIP3    H2 2752   4.739   2.521   5.542
  937TIP3   OH2 2753   1.927   6.726   2.008
  937TIP3    H1 2754   1.951   6.657   1.947
  937TIP3    H2 2755   1.831   6.730   2.004
  938TIP3   OH2 2756   2.022   6.943   6.720
  938TIP3    H1 2757   2.011   6.858   6.677
  938TIP3    H2 2758   2.085   6.926   6.790
  939TIP3   OH2 2759   6.457   1.095   4.816
  939TIP3    H1 2760   6.490   1.173   4.771
  939TIP3    H2 2761   6.524   1.029   4.799
  940TIP3   OH2 2762   7.439   7.741   2.013
  940TIP3    H1 2763   7.376   7.669   2.015
  940TIP3    H2 2764   7.440   7.774   2.103
  941TIP3   OH2 2765   8.278   6.156   6.432
  941TIP3    H1 2766   8.269   6.250   6.421
  941TIP3    H2 2767   8.188   6.123   6.436
  942TIP3   OH2 2768   6.291   4.480   1.997
  942TIP3    H1 2769   6.238   4.427   2.058
  942TIP3    H2 2770   6.353   4.526   2.053
  943TIP3   OH2 2771   1.555   5.175   5.795
  943TIP3    H1 2772   1.547   5.080   5.788
  943TIP3    H2 2773   1.517   5.209   5.714
  944TIP3   OH2 2774   0.514   3.525   4.485
  944TIP3    H1 2775   0.520   3.546   4.392
  944TIP3    H2 2776   0.450   3.587   4.520
  945TIP3   OH2 2777   6.211   4.268   4.812
  945TIP3    H1 2778   6.159   4.275   4.732
  945TIP3    H2 2779   6.168   4.329   4.873
  946TIP3   OH2 2780   6.251   1.087   1.204
  946TIP3    H1 2781   6.293   1.143   1.270
  946TIP3    H2 2782   6.212   1.148   1.142
  947TIP3   OH2 2783   0.907   0.462   4.974
  947TIP3    H1 2784   0.930   0.392   4.913
  947TIP3    H2 2785   0.930   0.427   5.060
  948TIP3   OH2 2786   2.737   2.454   3.482
  948TIP3    H1 2787   2.825   2.422   3.465
  948TIP3    H2 2788   2.750   2.529   3.541
  949TIP3   OH2 2789   4.860   0.620   3.124
  949TIP3    H1 2790   4.773   0.608   3.163
  949TIP3    H2 2791   4.920   0.609   3.197
  950TIP3   OH2 2792   1.694   4.261   3.386
  950TIP3    H1 2793   1.667   4.353   3.378
  950TIP3    H2 2794   1.788   4.262   3.372
  951TIP3   OH2 2795   3.752   4.706   2.099
  951TIP3    H1 2796   3.697   4.780   2.125
  951TIP3    H2 2797   3.710   4.630   2.139
  952TIP3   OH2 2798   1.135   4.956   6.716
  952TIP3    H1 2799   1.202   4.887   6.714
  952TIP3    H2 2800   1.053   4.910   6.729
  953TIP3   OH2 2801   4.878   2.738   5.387
  953TIP3    H1 2802   4.939   2.812   5.381
  953TIP3    H2 2803   4.824   2.746   5.308
  954TIP3   OH2 2804   2.055   4.439   4.512
  954TIP3    H1 2805   1.963   4.466   4.516
  954TIP3    H2 2806   2.101   4.516   4.479
  955TIP3   OH2 2807   2.049   6.435   2.843
  955TIP3    H1 2808   1.956   6.447   2.866
  955TIP3    H2 2809   2.049   6.367   2.776
  956TIP3   OH2 2810   2.513   4.380   0.298
  956TIP3    H1 2811   2.572   4.367   0.224
  956TIP3    H2 2812   2.538   4.313   0.361
  957TIP3   OH2 2813   6.312   1.382   1.679
  957TIP3    H1 2814   6.326   1.308   1.738
  957TIP3    H2 2815   6.390   1.437   1.690
  958TIP3   OH2 2816   2.367   6.627   5.891
  958TIP3    H1 2817   2.351   6.699   5.951
  958TIP3    H2 2818   2.295   6.630   5.829
  959TIP3   OH2 2819   0.051   7.416   4.122
  959TIP3    H1 2820  -0.032   7.465   4.122
  959TIP3    H2 2821   0.074   7.410   4.029
  960TIP3   OH2 2822   2.274   2.617   2.805
  960TIP3    H1 2823   2.196   2.568   2.781
  960TIP3    H2 2824   2.242   2.702   2.834
  961TIP3   OH2 2825   1.496   7.756   6.627
  961TIP3    H1 2826   1.537   7.708   6.699
  961TIP3    H2 2827   1.568   7.797   6.581
  962TIP3   OH2 2828   3.392   6.216   0.099
  962TIP3    H1 2829   3.415   6.265   0.178
  962TIP3    H2 2830   3.473   6.172   0.074
  963TIP3   OH2 2831   1.285   5.755   0.801
  963TIP3    H1 2832   1.317   5.665   0.805
  963TIP3    H2 2833   1.244   5.770   0.886
  964TIP3   OH2 2834   4.566   0.450   1.163
  964TIP3    H1 2835   4.639   0.470   1.222
  964TIP3    H2 2836   4.514   0.387   1.211
  965TIP3   OH2 2837   5.831   0.553   5.708
  965TIP3    H1 2838   5.914   0.591   5.681
  965TIP3    H2 2839   5.786   0.533   5.625
  966TIP3   OH2 2840   1.519   4.865   4.875
  966TIP3    H1 2841   1.476   4.931   4.929
  966TIP3    H2 2842   1.585   4.913   4.826
  967TIP3   OH2 2843   1.854   4.969   0.388
  967TIP3    H1 2844   1.759   4.976   0.391
  967TIP3    H2 2845   1.878   4.998   0.300
  968TIP3   OH2 2846   1.097   1.083   2.220
  968TIP3    H1 2847   1.124   0.993   2.204
  968TIP3    H2 2848   1.003   1.084   2.203
  969TIP3   OH2 2849   1.612   1.034   0.252
  969TIP3    H1 2850   1.530   1.075   0.227
  969TIP3    H2 2851   1.647   0.997   0.171
  970TIP3   OH2 2852   0.115   4.077   1.098
  970TIP3    H1 2853   0.145   4.144   1.036
  970TIP3    H2 2854   0.116   3.996   1.047
  971TIP3   OH2 2855   4.259   4.956   4.197
  971TIP3    H1 2856   4.258   4.868   4.160
  971TIP3    H2 2857   4.351   4.976   4.210
  972TIP3   OH2 2858   3.527   6.975   5.023
  972TIP3    H1 2859   3.446   7.015   4.991
  972TIP3    H2 2860   3.548   6.908   4.957
  973TIP3   OH2 2861   0.800   2.140   5.482
  973TIP3    H1 2862   0.865   2.198   5.521
  973TIP3    H2 2863   0.806   2.158   5.388
  974TIP3   OH2 2864   1.713   1.188   2.123
  974TIP3    H1 2865   1.784   1.126   2.108
  974TIP3    H2 2866   1.751   1.256   2.178
  975TIP3   OH2 2867   7.946   0.334   2.423
  975TIP3    H1 2868   7.858   0.306   2.398
  975TIP3    H2 2869   7.932   0.412   2.478
  976TIP3   OH2 2870   5.074   3.062   4.783
  976TIP3    H1 2871   5.018   3.055   4.861
  976TIP3    H2 2872   5.113   2.975   4.773
  977TIP3   OH2 2873   3.284   1.200   3.644
  977TIP3    H1 2874   3.250   1.281   3.607
  977TIP3    H2 2875   3.379   1.209   3.638
  978TIP3   OH2 2876   2.912   3.590   3.937
  978TIP3    H1 2877   2.884   3.525   3.872
  978TIP3    H2 2878   2.977   3.544   3.990
  979TIP3   OH2 2879   2.471   4.778   1.240
  979TIP3    H1 2880   2.462   4.724   1.318
  979TIP3    H2 2881   2.557   4.819   1.249
  980TIP3   OH2 2882   1.378   3.489   3.259
  980TIP3    H1 2883   1.455   3.521   3.307
  980TIP3    H2 2884   1.394   3.517   3.169
  981TIP3   OH2 2885   1.879   3.238   0.019
  981TIP3    H1 2886   1.801   3.231   0.073
  981TIP3    H2 2887   1.921   3.152   0.025
  982TIP3   OH2 2888   2.083   7.519   2.673
  982TIP3    H1 2889   2.014   7.461   2.706
  982TIP3    H2 2890   2.078   7.510   2.578
  983TIP3   OH2 2891   3.779   1.652   0.624
  983TIP3    H1 2892   3.739   1.614   0.546
  983TIP3    H2 2893   3.738   1.604   0.697
  984TIP3   OH2 2894   1.651   6.466   4.665
  984TIP3    H1 2895   1.672   6.375   4.645
  984TIP3    H2 2896   1.705   6.517   4.604
  985TIP3   OH2 2897   0.443   1.919   6.364
  985TIP3    H1 2898   0.420   1.847   6.423
  985TIP3    H2 2899   0.485   1.984   6.420
  986TIP3   OH2 2900   3.551   3.246   0.373
  986TIP3    H1 2901   3.587   3.322   0.327
  986TIP3    H2 2902   3.522   3.187   0.303
  987TIP3   OH2 2903   3.949   1.374   0.297
  987TIP3    H1 2904   3.976   1.458   0.335
  987TIP3    H2 2905   3.994   1.371   0.213
  988TIP3   OH2 2906   6.153   4.588   4.811
  988TIP3    H1 2907   6.139   4.526   4.882
  988TIP3    H2 2908   6.095   4.558   4.741
  989TIP3   OH2 2909   8.259   3.101   2.753
  989TIP3    H1 2910   8.272   3.008   2.774
  989TIP3    H2 2911   8.187   3.101   2.690
  990TIP3   OH2 2912   5.084   3.037   1.689
  990TIP3    H1 2913   5.098   2.977   1.615
  990TIP3    H2 2914   5.163   3.090   1.692
  991TIP3   OH2 2915   3.596   7.092   2.298
  991TIP3    H1 2916   3.559   7.131   2.378
  991TIP3    H2 2917   3.631   7.008   2.327
  992TIP3   OH2 2918   1.729   3.745   4.553
  992TIP3    H1 2919   1.796   3.737   4.620
  992TIP3    H2 2920   1.654   3.785   4.597
  993TIP3   OH2 2921   2.087   5.835   3.744
  993TIP3    H1 2922   2.074   5.896   3.672
  993TIP3    H2 2923   2.003   5.834   3.789
  994TIP3   OH2 2924   2.231   7.252   2.076
  994TIP3    H1 2925   2.244   7.281   2.166
  994TIP3    H2 2926   2.249   7.158   2.078
  995TIP3   OH2 2927   0.500   2.769   6.656
  995TIP3    H1 2928   0.514   2.674   6.658
  995TIP3    H2 2929   0.407   2.780   6.638
  996TIP3   OH2 2930   0.224   3.582   6.557
  996TIP3    H1 2931   0.216   3.507   6.499
  996TIP3    H2 2932   0.299   3.561   6.613
  997TIP3   OH2 2933   7.618   3.078   0.822
  997TIP3    H1 2934   7.632   3.009   0.887
  997TIP3    H2 2935   7.568   3.145   0.869
  998TIP3   OH2 2936   0.513   6.832   6.494
  998TIP3    H1 2937   0.542   6.866   6.579
  998TIP3    H2 2938   0.574   6.761   6.475
  999TIP3   OH2 2939   6.464   5.851   4.304
  999TIP3    H1 2940   6.532   5.820   4.363
  999TIP3    H2 2941   6.490   5.941   4.283
 1000TIP3   OH2 2942   2.157   5.463   0.482
 1000TIP3    H1 2943   2.210   5.536   0.447
 1000TIP3    H2 2944   2.209   5.428   0.554
 1001TIP3   OH2 2945   1.590   1.950   5.147
 1001TIP3    H1 2946   1.625   1.864   5.171
 1001TIP3    H2 2947   1.496   1.935   5.136
 1002TIP3   OH2 2948   7.273   6.027   1.023
 1002TIP3    H1 2949   7.298   6.001   0.934
 1002TIP3    H2 2950   7.342   6.087   1.051
 1003TIP3   OH2 2951   0.438   6.028   4.476
 1003TIP3    H1 2952   0.395   6.071   4.550
 1003TIP3    H2 2953   0.380   6.046   4.402
 1004TIP3   OH2 2954   2.222   0.798   4.807
 1004TIP3    H1 2955   2.149   0.789   4.868
 1004TIP3    H2 2956   2.288   0.737   4.840
 1005TIP3   OH2 2957   4.529   7.291   1.931
 1005TIP3    H1 2958   4.613   7.266   1.971
 1005TIP3    H2 2959   4.523   7.385   1.946
 1006TIP3   OH2 2960   1.171   0.562   1.731
 1006TIP3    H1 2961   1.210   0.632   1.783
 1006TIP3    H2 2962   1.197   0.582   1.641
 1007TIP3   OH2 2963   7.315   6.898   2.236
 1007TIP3    H1 2964   7.293   6.982   2.276
 1007TIP3    H2 2965   7.382   6.919   2.170
 1008TIP3   OH2 2966   5.380   5.448   1.324
 1008TIP3    H1 2967   5.313   5.402   1.375
 1008TIP3    H2 2968   5.461   5.400   1.344
 1009TIP3   OH2 2969   1.851   2.525   1.175
 1009TIP3    H1 2970   1.797   2.602   1.156
 1009TIP3    H2 2971   1.789   2.452   1.179
 1010TIP3   OH2 2972   7.433   4.600   5.916
 1010TIP3    H1 2973   7.402   4.530   5.973
 1010TIP3    H2 2974   7.353   4.637   5.879
 1011TIP3   OH2 2975   3.389   1.239   4.717
 1011TIP3    H1 2976   3.404   1.239   4.622
 1011TIP3    H2 2977   3.315   1.181   4.729
 1012TIP3   OH2 2978   3.448   2.678   6.663
 1012TIP3    H1 2979   3.519   2.738   6.639
 1012TIP3    H2 2980   3.406   2.657   6.579
 1013TIP3   OH2 2981   4.467   0.315   6.549
 1013TIP3    H1 2982   4.542   0.277   6.503
 1013TIP3    H2 2983   4.400   0.323   6.481
 1014TIP3   OH2 2984   4.147   7.321   5.040
 1014TIP3    H1 2985   4.066   7.271   5.050
 1014TIP3    H2 2986   4.147   7.349   4.949
 1015TIP3   OH2 2987   4.281   2.067   5.161
 1015TIP3    H1 2988   4.233   2.120   5.098
 1015TIP3    H2 2989   4.287   1.981   5.119
 1016TIP3   OH2 2990   1.304   6.001   3.759
 1016TIP3    H1 2991   1.384   5.951   3.739
 1016TIP3    H2 2992   1.328   6.092   3.740
 1017TIP3   OH2 2993   3.243   7.672   0.663
 1017TIP3    H1 2994   3.177   7.618   0.707
 1017TIP3    H2 2995   3.192   7.737   0.616
 1018TIP3   OH2 2996   8.037   3.244   6.464
 1018TIP3    H1 2997   8.096   3.253   6.538
 1018TIP3    H2 2998   8.063   3.161   6.423
 1019TIP3   OH2 2999   2.331   2.359   0.037
 1019TIP3    H1 3000   2.311   2.281  -0.014
 1019TIP3    H2 3001   2.290   2.344   0.122
 1020TIP3   OH2 3002   6.855   5.950   5.330
 1020TIP3    H1 3003   6.773   5.918   5.291
 1020TIP3    H2 3004   6.831   5.972   5.420
 1021TIP3   OH2 3005   4.466   6.064   0.600
 1021TIP3    H1 3006   4.557   6.082   0.574
 1021TIP3    H2 3007   4.474   6.026   0.688
 1022TIP3   OH2 3008   4.084   6.636   3.517
 1022TIP3    H1 3009   4.064   6.564   3.457
 1022TIP3    H2 3010   4.180   6.640   3.519
 1023TIP3   OH2 3011   5.111   3.024   0.193
 1023TIP3    H1 3012   5.098   2.948   0.137
 1023TIP3    H2 3013   5.146   3.091   0.135
 1024TIP3   OH2 3014   1.141   6.935   6.154
 1024TIP3    H1 3015   1.142   6.840   6.144
 1024TIP3    H2 3016   1.049   6.958   6.157
 1025TIP3   OH2 3017   1.971   3.239   2.175
 1025TIP3    H1 3018   2.057   3.253   2.136
 1025TIP3    H2 3019   1.921   3.318   2.154
 1026TIP3   OH2 3020   6.302   6.811   6.149
 1026TIP3    H1 3021   6.272   6.749   6.082
 1026TIP3    H2 3022   6.322   6.757   6.225
 1027TIP3   OH2 3023   0.087   7.545   6.721
 1027TIP3    H1 3024   0.104   7.452   6.737
 1027TIP3    H2 3025   0.085   7.552   6.625
 1028TIP3   OH2 3026   4.077   1.737   5.777
 1028TIP3    H1 3027   4.047   1.733   5.686
 1028TIP3    H2 3028   3.998   1.758   5.827
 1029TIP3   OH2 3029   7.043   0.032   4.261
 1029TIP3    H1 3030   6.962  -0.012   4.237
 1029TIP3    H2 3031   7.108  -0.004   4.201
 1030TIP3   OH2 3032   5.899   4.445   5.281
 1030TIP3    H1 3033   5.831   4.512   5.272
 1030TIP3    H2 3034   5.953   4.476   5.353
 1031TIP3   OH2 3035   2.747   0.589   0.805
 1031TIP3    H1 3036   2.653   0.573   0.802
 1031TIP3    H2 3037   2.780   0.557   0.722
 1032TIP3   OH2 3038   4.480   5.834   0.868
 1032TIP3    H1 3039   4.552   5.840   0.931
 1032TIP3    H2 3040   4.518   5.787   0.794
 1033TIP3   OH2 3041   6.105   0.953   3.893
 1033TIP3    H1 3042   6.077   1.016   3.827
 1033TIP3    H2 3043   6.023   0.926   3.936
 1034TIP3   OH2 3044   6.492   0.258   6.480
 1034TIP3    H1 3045   6.474   0.347   6.450
 1034TIP3    H2 3046   6.586   0.256   6.494
 1035TIP3   OH2 3047   5.997   2.964   3.642
 1035TIP3    H1 3048   5.922   2.963   3.583
 1035TIP3    H2 3049   6.025   3.055   3.643
 1036TIP3   OH2 3050   8.184   4.579   1.724
 1036TIP3    H1 3051   8.139   4.513   1.775
 1036TIP3    H2 3052   8.272   4.545   1.712
 1037TIP3   OH2 3053   5.065   3.736   3.155
 1037TIP3    H1 3054   5.131   3.788   3.200
 1037TIP3    H2 3055   4.982   3.759   3.198
 1038TIP3   OH2 3056   7.742   0.680   2.096
 1038TIP3    H1 3057   7.804   0.736   2.142
 1038TIP3    H2 3058   7.680   0.740   2.056
 1039TIP3   OH2 3059   0.050   7.233   6.237
 1039TIP3    H1 3060   0.007   7.277   6.163
 1039TIP3    H2 3061   0.139   7.217   6.206
 1040TIP3   OH2 3062   0.377   2.658   2.991
 1040TIP3    H1 3063   0.360   2.581   2.936
 1040TIP3    H2 3064   0.419   2.623   3.069
 1041TIP3   OH2 3065   2.341   1.909   0.537
 1041TIP3    H1 3066   2.434   1.935   0.540
 1041TIP3    H2 3067   2.331   1.845   0.606
 1042TIP3   OH2 3068   0.895   5.702   3.950
 1042TIP3    H1 3069   0.934   5.644   3.885
 1042TIP3    H2 3070   0.833   5.647   3.998
 1043TIP3   OH2 3071   4.971   1.989   3.755
 1043TIP3    H1 3072   5.051   1.945   3.726
 1043TIP3    H2 3073   4.955   2.056   3.688
 1044TIP3   OH2 3074   4.102   3.320   5.629
 1044TIP3    H1 3075   4.012   3.316   5.661
 1044TIP3    H2 3076   4.110   3.241   5.574
 1045TIP3   OH2 3077   2.823   4.472   4.591
 1045TIP3    H1 3078   2.749   4.476   4.651
 1045TIP3    H2 3079   2.900   4.478   4.648
 1046TIP3   OH2 3080   1.828   2.791   2.098
 1046TIP3    H1 3081   1.923   2.778   2.103
 1046TIP3    H2 3082   1.813   2.877   2.138
 1047TIP3   OH2 3083   4.670   1.083   1.133
 1047TIP3    H1 3084   4.737   1.149   1.153
 1047TIP3    H2 3085   4.636   1.057   1.219
 1048TIP3   OH2 3086   5.411   0.758   4.600
 1048TIP3    H1 3087   5.337   0.808   4.634
 1048TIP3    H2 3088   5.398   0.670   4.634
 1049TIP3   OH2 3089   6.806   7.755   1.818
 1049TIP3    H1 3090   6.838   7.693   1.883
 1049TIP3    H2 3091   6.766   7.825   1.869
 1050TIP3   OH2 3092   1.179   4.610   3.167
 1050TIP3    H1 3093   1.094   4.585   3.130
 1050TIP3    H2 3094   1.240   4.604   3.094
 1051TIP3   OH2 3095   7.911   5.560   5.732
 1051TIP3    H1 3096   7.877   5.602   5.653
 1051TIP3    H2 3097   7.921   5.468   5.708
 1052TIP3   OH2 3098   6.211   3.907   3.942
 1052TIP3    H1 3099   6.226   3.885   3.850
 1052TIP3    H2 3100   6.296   3.936   3.974
 1053TIP3   OH2 3101   0.304   2.753   5.256
 1053TIP3    H1 3102   0.304   2.704   5.174
 1053TIP3    H2 3103   0.216   2.790   5.262
 1054TIP3   OH2 3104   6.619   5.026   1.384
 1054TIP3    H1 3105   6.700   5.055   1.342
 1054TIP3    H2 3106   6.625   5.062   1.473
 1055TIP3   OH2 3107   2.112   3.786   4.297
 1055TIP3    H1 3108   2.067   3.703   4.314
 1055TIP3    H2 3109   2.042   3.848   4.280
 1056TIP3   OH2 3110   1.729   1.652   0.407
 1056TIP3    H1 3111   1.774   1.711   0.347
 1056TIP3    H2 3112   1.772   1.666   0.492
 1057TIP3   OH2 3113   6.563   6.956   0.227
 1057TIP3    H1 3114   6.473   6.987   0.236
 1057TIP3    H2 3115   6.560   6.894   0.153
 1058TIP3   OH2 3116   6.256   5.190   0.367
 1058TIP3    H1 3117   6.255   5.278   0.331
 1058TIP3    H2 3118   6.192   5.191   0.438
 1059TIP3   OH2 3119   6.231   2.428   1.159
 1059TIP3    H1 3120   6.234   2.523   1.153
 1059TIP3    H2 3121   6.258   2.397   1.072
 1060TIP3   OH2 3122   0.360   6.272   4.093
 1060TIP3    H1 3123   0.417   6.343   4.063
 1060TIP3    H2 3124   0.298   6.314   4.153
 1061TIP3   OH2 3125   6.945   4.012   2.124
 1061TIP3    H1 3126   7.016   4.050   2.176
 1061TIP3    H2 3127   6.975   3.924   2.101
 1062TIP3   OH2 3128   7.460   5.835   4.648
 1062TIP3    H1 3129   7.409   5.808   4.723
 1062TIP3    H2 3130   7.402   5.823   4.573
 1063TIP3   OH2 3131   4.036   2.638   5.038
 1063TIP3    H1 3132   4.085   2.684   5.107
 1063TIP3    H2 3133   3.966   2.699   5.014
 1064TIP3   OH2 3134   5.904   1.608   6.679
 1064TIP3    H1 3135   5.871   1.528   6.637
 1064TIP3    H2 3136   5.825   1.660   6.696
 1065TIP3   OH2 3137   3.339   5.460   4.447
 1065TIP3    H1 3138   3.351   5.408   4.368
 1065TIP3    H2 3139   3.333   5.550   4.415
 1066TIP3   OH2 3140   2.377   0.446   2.738
 1066TIP3    H1 3141   2.329   0.527   2.752
 1066TIP3    H2 3142   2.469   0.469   2.750
 1067TIP3   OH2 3143   2.232   3.292   2.081
 1067TIP3    H1 3144   2.325   3.282   2.101
 1067TIP3    H2 3145   2.220   3.242   2.000
 1068TIP3   OH2 3146   8.046   7.508   6.070
 1068TIP3    H1 3147   8.128   7.468   6.042
 1068TIP3    H2 3148   8.030   7.578   6.008
 1069TIP3   OH2 3149   1.679   6.481   3.619
 1069TIP3    H1 3150   1.664   6.567   3.658
 1069TIP3    H2 3151   1.773   6.482   3.597
 1070TIP3   OH2 3152   2.130   7.696   6.155
 1070TIP3    H1 3153   2.140   7.663   6.244
 1070TIP3    H2 3154   2.209   7.664   6.109
 1071TIP3   OH2 3155   6.288   6.491   1.805
 1071TIP3    H1 3156   6.319   6.561   1.863
 1071TIP3    H2 3157   6.202   6.468   1.839
 1072TIP3   OH2 3158   7.548   1.733   6.395
 1072TIP3    H1 3159   7.596   1.783   6.328
 1072TIP3    H2 3160   7.588   1.758   6.478
 1073TIP3   OH2 3161   5.640   2.482   5.954
 1073TIP3    H1 3162   5.568   2.544   5.966
 1073TIP3    H2 3163   5.686   2.514   5.876
 1074TIP3   OH2 3164   4.167   0.724   1.007
 1074TIP3    H1 3165   4.110   0.719   1.083
 1074TIP3    H2 3166   4.109   0.741   0.933
 1075TIP3   OH2 3167   7.105   3.684   3.314
 1075TIP3    H1 3168   7.088   3.729   3.232
 1075TIP3    H2 3169   7.125   3.594   3.289
 1076TIP3   OH2 3170   0.585   5.839   1.346
 1076TIP3    H1 3171   0.671   5.832   1.307
 1076TIP3    H2 3172   0.541   5.907   1.295
 1077TIP3   OH2 3173   8.286   1.166   5.180
 1077TIP3    H1 3174   8.360   1.105   5.189
 1077TIP3    H2 3175   8.305   1.214   5.100
 1078TIP3   OH2 3176   2.158   1.243   6.601
 1078TIP3    H1 3177   2.091   1.281   6.658
 1078TIP3    H2 3178   2.209   1.318   6.570
 1079TIP3   OH2 3179   4.700   4.230   2.354
 1079TIP3    H1 3180   4.712   4.205   2.263
 1079TIP3    H2 3181   4.721   4.323   2.357
 1080TIP3   OH2 3182   3.591   6.886   6.563
 1080TIP3    H1 3183   3.676   6.917   6.594
 1080TIP3    H2 3184   3.530   6.907   6.635
 1081TIP3   OH2 3185   8.179   5.684   6.013
 1081TIP3    H1 3186   8.166   5.589   6.010
 1081TIP3    H2 3187   8.274   5.694   6.026
 1082TIP3   OH2 3188   1.088   1.304   5.503
 1082TIP3    H1 3189   1.166   1.259   5.538
 1082TIP3    H2 3190   1.019   1.238   5.507
 1083TIP3   OH2 3191   2.365   7.480   0.317
 1083TIP3    H1 3192   2.378   7.556   0.374
 1083TIP3    H2 3193   2.287   7.502   0.266
 1084TIP3   OH2 3194   3.332   0.735   1.851
 1084TIP3    H1 3195   3.239   0.714   1.839
 1084TIP3    H2 3196   3.357   0.693   1.933
 1085TIP3   OH2 3197   3.963   7.399   1.566
 1085TIP3    H1 3198   4.030   7.337   1.538
 1085TIP3    H2 3199   3.994   7.431   1.651
 1086TIP3   OH2 3200   2.541   4.827   5.545
 1086TIP3    H1 3201   2.494   4.839   5.628
 1086TIP3    H2 3202   2.537   4.912   5.503
 1087TIP3   OH2 3203   2.826   3.321   6.443
 1087TIP3    H1 3204   2.858   3.232   6.428
 1087TIP3    H2 3205   2.734   3.310   6.467
 1088TIP3   OH2 3206   6.154   0.444   2.229
 1088TIP3    H1 3207   6.247   0.421   2.230
 1088TIP3    H2 3208   6.111   0.369   2.188
 1089TIP3   OH2 3209   3.032   0.843   0.807
 1089TIP3    H1 3210   3.083   0.883   0.879
 1089TIP3    H2 3211   2.974   0.913   0.778
 1090TIP3   OH2 3212   0.516   5.549   0.539
 1090TIP3    H1 3213   0.472   5.594   0.466
 1090TIP3    H2 3214   0.508   5.456   0.517
 1091TIP3   OH2 3215   8.040   2.321   3.390
 1091TIP3    H1 3216   8.025   2.395   3.331
 1091TIP3    H2 3217   7.965   2.264   3.375
 1092TIP3   OH2 3218   8.171   3.867   2.897
 1092TIP3    H1 3219   8.262   3.841   2.916
 1092TIP3    H2 3220   8.131   3.789   2.859
 1093TIP3   OH2 3221   4.761   1.820   1.800
 1093TIP3    H1 3222   4.669   1.805   1.823
 1093TIP3    H2 3223   4.801   1.851   1.882
 1094TIP3   OH2 3224   7.237   7.350   3.621
 1094TIP3    H1 3225   7.233   7.446   3.624
 1094TIP3    H2 3226   7.190   7.326   3.541
 1095TIP3   OH2 3227   2.843   3.647   3.229
 1095TIP3    H1 3228   2.850   3.560   3.268
 1095TIP3    H2 3229   2.767   3.687   3.272
 1096TIP3   OH2 3230   2.233   4.948   3.068
 1096TIP3    H1 3231   2.218   5.042   3.060
 1096TIP3    H2 3232   2.315   4.941   3.118
 1097TIP3   OH2 3233   4.980   6.158   4.396
 1097TIP3    H1 3234   4.975   6.127   4.487
 1097TIP3    H2 3235   4.910   6.223   4.389
 1098TIP3   OH2 3236   1.777   1.330   0.060
 1098TIP3    H1 3237   1.763   1.261  -0.004
 1098TIP3    H2 3238   1.870   1.353   0.051
 1099TIP3   OH2 3239   1.753   1.231   4.302
 1099TIP3    H1 3240   1.670   1.219   4.255
 1099TIP3    H2 3241   1.805   1.289   4.246
 1100TIP3   OH2 3242   8.174   0.147   1.545
 1100TIP3    H1 3243   8.122   0.227   1.544
 1100TIP3    H2 3244   8.262   0.176   1.568
 1101TIP3   OH2 3245   0.258   5.071   6.197
 1101TIP3    H1 3246   0.330   5.123   6.161
 1101TIP3    H2 3247   0.180   5.124   6.182
 1102TIP3   OH2 3248   4.414   6.585   6.527
 1102TIP3    H1 3249   4.466   6.511   6.496
 1102TIP3    H2 3250   4.334   6.581   6.475
 1103TIP3   OH2 3251   5.039   3.703   2.016
 1103TIP3    H1 3252   5.027   3.608   2.016
 1103TIP3    H2 3253   5.034   3.727   1.924
 1104TIP3   OH2 3254   5.526   4.692   2.840
 1104TIP3    H1 3255   5.585   4.730   2.906
 1104TIP3    H2 3256   5.568   4.609   2.815
 1105TIP3   OH2 3257   4.289   1.982   4.400
 1105TIP3    H1 3258   4.382   1.961   4.394
 1105TIP3    H2 3259   4.285   2.052   4.465
 1106TIP3   OH2 3260   6.012   4.974   1.202
 1106TIP3    H1 3261   6.047   5.013   1.282
 1106TIP3    H2 3262   6.088   4.937   1.158
 1107TIP3   OH2 3263   6.395   6.739   1.920
 1107TIP3    H1 3264   6.387   6.779   1.834
 1107TIP3    H2 3265   6.442   6.804   1.973
 1108TIP3   OH2 3266   7.721   1.806   0.944
 1108TIP3    H1 3267   7.686   1.795   1.032
 1108TIP3    H2 3268   7.671   1.879   0.906
 1109TIP3   OH2 3269   0.176   6.715   1.558
 1109TIP3    H1 3270   0.167   6.743   1.649
 1109TIP3    H2 3271   0.115   6.641   1.550
 1110TIP3   OH2 3272   3.874   3.835   0.645
 1110TIP3    H1 3273   3.887   3.930   0.641
 1110TIP3    H2 3274   3.877   3.806   0.554
 1111TIP3   OH2 3275   4.170   5.027   3.005
 1111TIP3    H1 3276   4.075   5.023   3.008
 1111TIP3    H2 3277   4.197   5.033   3.097
 1112TIP3   OH2 3278   2.818   3.280   0.099
 1112TIP3    H1 3279   2.820   3.300   0.192
 1112TIP3    H2 3280   2.724   3.276   0.077
 1113TIP3   OH2 3281   5.954   5.636   1.838
 1113TIP3    H1 3282   5.926   5.573   1.905
 1113TIP3    H2 3283   5.881   5.697   1.832
 1114TIP3   OH2 3284   0.806   1.816   0.120
 1114TIP3    H1 3285   0.823   1.726   0.147
 1114TIP3    H2 3286   0.804   1.811   0.024
 1115TIP3   OH2 3287   3.068   6.074   2.243
 1115TIP3    H1 3288   3.018   6.112   2.171
 1115TIP3    H2 3289   3.014   6.088   2.320
 1116TIP3   OH2 3290   7.310   3.459   6.209
 1116TIP3    H1 3291   7.266   3.543   6.197
 1116TIP3    H2 3292   7.313   3.447   6.304
 1117TIP3   OH2 3293   4.544   0.718   5.889
 1117TIP3    H1 3294   4.550   0.666   5.969
 1117TIP3    H2 3295   4.604   0.792   5.904
 1118TIP3   OH2 3296   6.508   3.209   3.214
 1118TIP3    H1 3297   6.446   3.280   3.231
 1118TIP3    H2 3298   6.593   3.252   3.209
 1119TIP3   OH2 3299   5.211   6.548   2.829
 1119TIP3    H1 3300   5.272   6.476   2.812
 1119TIP3    H2 3301   5.242   6.618   2.771
 1120TIP3   OH2 3302   7.724   5.424   5.558
 1120TIP3    H1 3303   7.652   5.376   5.600
 1120TIP3    H2 3304   7.685   5.508   5.534
 1121TIP3   OH2 3305   4.063   4.728   0.612
 1121TIP3    H1 3306   4.015   4.709   0.531
 1121TIP3    H2 3307   4.149   4.688   0.599
 1122TIP3   OH2 3308   0.301   7.281   0.225
 1122TIP3    H1 3309   0.379   7.300   0.278
 1122TIP3    H2 3310   0.272   7.367   0.194
 1123TIP3   OH2 3311   7.541   2.756   6.727
 1123TIP3    H1 3312   7.471   2.697   6.697
 1123TIP3    H2 3313   7.547   2.740   6.821
 1124TIP3   OH2 3314   4.085   2.815   5.435
 1124TIP3    H1 3315   4.110   2.724   5.425
 1124TIP3    H2 3316   4.168   2.862   5.444
 1125TIP3   OH2 3317   5.937   7.620   3.961
 1125TIP3    H1 3318   5.892   7.557   4.017
 1125TIP3    H2 3319   5.870   7.651   3.901
 1126TIP3   OH2 3320   4.397   6.000   3.833
 1126TIP3    H1 3321   4.389   5.990   3.738
 1126TIP3    H2 3322   4.406   6.094   3.847
 1127TIP3   OH2 3323   1.190   3.335   3.358
 1127TIP3    H1 3324   1.132   3.410   3.368
 1127TIP3    H2 3325   1.274   3.372   3.332
 1128TIP3   OH2 3326   0.320   0.058   4.955
 1128TIP3    H1 3327   0.361   0.030   4.873
 1128TIP3    H2 3328   0.320   0.154   4.949
 1129TIP3   OH2 3329   5.644   5.757   3.033
 1129TIP3    H1 3330   5.678   5.817   2.966
 1129TIP3    H2 3331   5.642   5.809   3.113
 1130TIP3   OH2 3332   3.512   6.392   2.294
 1130TIP3    H1 3333   3.441   6.331   2.277
 1130TIP3    H2 3334   3.477   6.478   2.270
 1131TIP3   OH2 3335   6.884   5.602   5.894
 1131TIP3    H1 3336   6.889   5.541   5.968
 1131TIP3    H2 3337   6.924   5.554   5.822
 1132TIP3   OH2 3338   4.538   5.285   2.076
 1132TIP3    H1 3339   4.497   5.371   2.071
 1132TIP3    H2 3340   4.579   5.283   2.163
 1133TIP3   OH2 3341   6.438   4.156   1.998
 1133TIP3    H1 3342   6.494   4.227   1.969
 1133TIP3    H2 3343   6.369   4.199   2.049
 1134TIP3   OH2 3344   4.925   7.316   1.106
 1134TIP3    H1 3345   5.004   7.341   1.058
 1134TIP3    H2 3346   4.949   7.324   1.198
 1135TIP3   OH2 3347   7.627   3.375   4.646
 1135TIP3    H1 3348   7.721   3.359   4.650
 1135TIP3    H2 3349   7.599   3.331   4.565
 1136TIP3   OH2 3350   7.974   7.647   3.935
 1136TIP3    H1 3351   8.025   7.596   3.998
 1136TIP3    H2 3352   7.891   7.664   3.979
 1137TIP3   OH2 3353   1.355   0.777   0.992
 1137TIP3    H1 3354   1.320   0.723   0.921
 1137TIP3    H2 3355   1.448   0.753   0.997
 1138TIP3   OH2 3356   6.665   0.772   5.465
 1138TIP3    H1 3357   6.678   0.718   5.543
 1138TIP3    H2 3358   6.613   0.846   5.496
 1139TIP3   OH2 3359   2.757   1.689   1.085
 1139TIP3    H1 3360   2.814   1.752   1.040
 1139TIP3    H2 3361   2.675   1.692   1.036
 1140TIP3   OH2 3362   2.722   7.267   2.594
 1140TIP3    H1 3363   2.779   7.280   2.518
 1140TIP3    H2 3364   2.746   7.181   2.628
 1141TIP3   OH2 3365   4.530   3.497   4.742
 1141TIP3    H1 3366   4.621   3.467   4.740
 1141TIP3    H2 3367   4.525   3.552   4.820
 1142TIP3   OH2 3368   3.699   6.715   4.678
 1142TIP3    H1 3369   3.651   6.794   4.703
 1142TIP3    H2 3370   3.789   6.731   4.707
 1143TIP3   OH2 3371   0.330   7.402   5.550
 1143TIP3    H1 3372   0.391   7.383   5.620
 1143TIP3    H2 3373   0.248   7.359   5.576
 1144TIP3   OH2 3374   3.693   4.655   5.916
 1144TIP3    H1 3375   3.771   4.600   5.912
 1144TIP3    H2 3376   3.628   4.608   5.864
 1145TIP3   OH2 3377   4.566   6.458   3.828
 1145TIP3    H1 3378   4.501   6.517   3.868
 1145TIP3    H2 3379   4.624   6.517   3.779
 1146TIP3   OH2 3380   3.716   2.220   5.068
 1146TIP3    H1 3381   3.694   2.291   5.128
 1146TIP3    H2 3382   3.741   2.265   4.987
 1147TIP3   OH2 3383   4.050   2.112   5.430
 1147TIP3    H1 3384   4.003   2.041   5.473
 1147TIP3    H2 3385   4.023   2.108   5.339
 1148TIP3   OH2 3386   0.939   2.794   0.617
 1148TIP3    H1 3387   0.980   2.861   0.671
 1148TIP3    H2 3388   1.013   2.744   0.581
 1149TIP3   OH2 3389   2.919   4.430   5.566
 1149TIP3    H1 3390   3.004   4.473   5.578
 1149TIP3    H2 3391   2.855   4.501   5.574
 1150TIP3   OH2 3392   6.067   6.976   2.844
 1150TIP3    H1 3393   6.081   7.062   2.804
 1150TIP3    H2 3394   6.156   6.942   2.858
 1151TIP3   OH2 3395   2.884   3.231   5.264
 1151TIP3    H1 3396   2.908   3.201   5.352
 1151TIP3    H2 3397   2.958   3.205   5.209
 1152TIP3   OH2 3398   6.847   4.477   6.676
 1152TIP3    H1 3399   6.807   4.418   6.740
 1152TIP3    H2 3400   6.799   4.560   6.686
 1153TIP3   OH2 3401   5.662   5.057   4.979
 1153TIP3    H1 3402   5.645   5.015   5.064
 1153TIP3    H2 3403   5.610   5.008   4.917
 1154TIP3   OH2 3404   3.150   0.961   2.611
 1154TIP3    H1 3405   3.165   1.050   2.643
 1154TIP3    H2 3406   3.111   0.915   2.685
 1155TIP3   OH2 3407   0.781   7.754   1.695
 1155TIP3    H1 3408   0.767   7.781   1.604
 1155TIP3    H2 3409   0.829   7.672   1.689
 1156TIP3   OH2 3410   7.802   6.485   4.012
 1156TIP3    H1 3411   7.736   6.521   3.953
 1156TIP3    H2 3412   7.873   6.456   3.955
 1157TIP3   OH2 3413   1.455   3.588   5.287
 1157TIP3    H1 3414   1.412   3.574   5.371
 1157TIP3    H2 3415   1.516   3.515   5.279
 1158TIP3   OH2 3416   7.927   3.576   2.083
 1158TIP3    H1 3417   7.973   3.532   2.011
 1158TIP3    H2 3418   7.839   3.592   2.048
 1159TIP3   OH2 3419   6.042   5.113   3.942
 1159TIP3    H1 3420   6.020   5.043   3.881
 1159TIP3    H2 3421   6.093   5.175   3.891
 1160TIP3   OH2 3422   8.088   2.932   1.558
 1160TIP3    H1 3423   8.175   2.901   1.531
 1160TIP3    H2 3424   8.036   2.852   1.566
 1161TIP3   OH2 3425   0.649   0.135   6.510
 1161TIP3    H1 3426   0.601   0.206   6.466
 1161TIP3    H2 3427   0.731   0.128   6.461
 1162TIP3   OH2 3428   0.941   0.290   1.092
 1162TIP3    H1 3429   0.948   0.335   1.008
 1162TIP3    H2 3430   0.915   0.358   1.154
 1163TIP3   OH2 3431   6.617   2.793   3.297
 1163TIP3    H1 3432   6.559   2.784   3.373
 1163TIP3    H2 3433   6.571   2.852   3.237
 1164TIP3   OH2 3434   6.064   4.498   0.947
 1164TIP3    H1 3435   6.064   4.409   0.981
 1164TIP3    H2 3436   6.136   4.499   0.883
 1165TIP3   OH2 3437   0.608   6.768   5.078
 1165TIP3    H1 3438   0.697   6.803   5.087
 1165TIP3    H2 3439   0.551   6.845   5.077
 1166TIP3   OH2 3440   6.325   0.924   4.394
 1166TIP3    H1 3441   6.352   0.862   4.461
 1166TIP3    H2 3442   6.343   1.010   4.432
 1167TIP3   OH2 3443   3.499   2.107   2.088
 1167TIP3    H1 3444   3.489   2.047   2.013
 1167TIP3    H2 3445   3.502   2.194   2.049
 1168TIP3   OH2 3446   2.440   3.906   0.998
 1168TIP3    H1 3447   2.480   3.924   1.083
 1168TIP3    H2 3448   2.510   3.921   0.935
 1169TIP3   OH2 3449   6.038   4.250   4.334
 1169TIP3    H1 3450   5.964   4.258   4.273
 1169TIP3    H2 3451   6.053   4.339   4.366
 1170TIP3   OH2 3452   1.775   3.554   1.668
 1170TIP3    H1 3453   1.700   3.504   1.634
 1170TIP3    H2 3454   1.790   3.519   1.755
 1171TIP3   OH2 3455   1.893   0.029   3.731
 1171TIP3    H1 3456   1.985   0.032   3.757
 1171TIP3    H2 3457   1.880   0.110   3.681
 1172TIP3   OH2 3458   6.103   7.214   4.471
 1172TIP3    H1 3459   6.038   7.192   4.538
 1172TIP3    H2 3460   6.084   7.305   4.448
 1173TIP3   OH2 3461   5.533   5.055   2.658
 1173TIP3    H1 3462   5.610   5.015   2.699
 1173TIP3    H2 3463   5.556   5.147   2.649
 1174TIP3   OH2 3464   7.162   0.461   0.684
 1174TIP3    H1 3465   7.171   0.374   0.644
 1174TIP3    H2 3466   7.201   0.521   0.621
 1175TIP3   OH2 3467   4.002   6.196   3.229
 1175TIP3    H1 3468   4.040   6.119   3.188
 1175TIP3    H2 3469   3.907   6.179   3.228
 1176TIP3   OH2 3470   6.990   5.518   3.027
 1176TIP3    H1 3471   7.018   5.600   3.068
 1176TIP3    H2 3472   6.902   5.537   2.994
 1177TIP3   OH2 3473   2.204   1.478   3.792
 1177TIP3    H1 3474   2.180   1.493   3.884
 1177TIP3    H2 3475   2.235   1.564   3.762
 1178TIP3   OH2 3476   1.707   4.718   3.330
 1178TIP3    H1 3477   1.783   4.761   3.290
 1178TIP3    H2 3478   1.633   4.772   3.304
 1179TIP3   OH2 3479   3.717   6.680   3.880
 1179TIP3    H1 3480   3.634   6.634   3.862
 1179TIP3    H2 3481   3.779   6.643   3.817
 1180TIP3   OH2 3482   5.782   3.204   4.064
 1180TIP3    H1 3483   5.706   3.166   4.020
 1180TIP3    H2 3484   5.849   3.209   3.997
 1181TIP3   OH2 3485   1.137   3.934   6.224
 1181TIP3    H1 3486   1.052   3.967   6.195
 1181TIP3    H2 3487   1.196   4.008   6.212
 1182TIP3   OH2 3488   4.678   1.664   5.451
 1182TIP3    H1 3489   4.627   1.598   5.405
 1182TIP3    H2 3490   4.663   1.645   5.544
 1183TIP3   OH2 3491   6.270   7.565   6.540
 1183TIP3    H1 3492   6.356   7.602   6.520
 1183TIP3    H2 3493   6.247   7.602   6.626
 1184TIP3   OH2 3494   4.750   0.278   2.020
 1184TIP3    H1 3495   4.727   0.186   2.006
 1184TIP3    H2 3496   4.779   0.308   1.934
 1185TIP3   OH2 3497   0.517   6.585   3.448
 1185TIP3    H1 3498   0.544   6.620   3.532
 1185TIP3    H2 3499   0.471   6.504   3.469
 1186TIP3   OH2 3500   3.332   1.907   4.562
 1186TIP3    H1 3501   3.263   1.869   4.507
 1186TIP3    H2 3502   3.291   1.983   4.602
 1187TIP3   OH2 3503   3.640   5.293   5.322
 1187TIP3    H1 3504   3.618   5.264   5.234
 1187TIP3    H2 3505   3.566   5.348   5.349
 1188TIP3   OH2 3506   5.621   3.486   3.448
 1188TIP3    H1 3507   5.541   3.443   3.479
 1188TIP3    H2 3508   5.669   3.507   3.527
 1189TIP3   OH2 3509   7.473   4.412   1.151
 1189TIP3    H1 3510   7.559   4.382   1.121
 1189TIP3    H2 3511   7.472   4.506   1.131
 1190TIP3   OH2 3512   3.744   6.026   4.842
 1190TIP3    H1 3513   3.701   6.033   4.756
 1190TIP3    H2 3514   3.677   5.987   4.898
 1191TIP3   OH2 3515   0.604   2.041   3.787
 1191TIP3    H1 3516   0.642   1.977   3.728
 1191TIP3    H2 3517   0.677   2.068   3.844
 1192TIP3   OH2 3518   5.032   7.072   2.436
 1192TIP3    H1 3519   5.107   7.016   2.417
 1192TIP3    H2 3520   5.046   7.101   2.526
 1193TIP3   OH2 3521   5.469   0.272   4.071
 1193TIP3    H1 3522   5.531   0.202   4.087
 1193TIP3    H2 3523   5.509   0.325   4.002
 1194TIP3   OH2 3524   5.288   0.492   5.965
 1194TIP3    H1 3525   5.290   0.562   6.030
 1194TIP3    H2 3526   5.374   0.496   5.923
 1195TIP3   OH2 3527   3.187   5.054   4.703
 1195TIP3    H1 3528   3.135   5.135   4.702
 1195TIP3    H2 3529   3.237   5.057   4.622
 1196TIP3   OH2 3530   0.118   6.848   3.954
 1196TIP3    H1 3531   0.167   6.912   3.904
 1196TIP3    H2 3532   0.150   6.858   4.044
 1197TIP3   OH2 3533   0.656   1.328   0.024
 1197TIP3    H1 3534   0.601   1.266   0.071
 1197TIP3    H2 3535   0.609   1.346  -0.058
 1198TIP3   OH2 3536   0.256   0.237   3.591
 1198TIP3    H1 3537   0.230   0.318   3.634
 1198TIP3    H2 3538   0.351   0.238   3.593
 1199TIP3   OH2 3539   0.641   4.968   6.627
 1199TIP3    H1 3540   0.571   5.006   6.573
 1199TIP3    H2 3541   0.595   4.914   6.691
 1200TIP3   OH2 3542   5.344   7.697   3.419
 1200TIP3    H1 3543   5.378   7.678   3.332
 1200TIP3    H2 3544   5.293   7.777   3.408
 1201TIP3   OH2 3545   5.721   2.035   5.781
 1201TIP3    H1 3546   5.675   2.072   5.857
 1201TIP3    H2 3547   5.696   1.943   5.781
 1202TIP3   OH2 3548   3.630   0.703   3.618
 1202TIP3    H1 3549   3.718   0.733   3.596
 1202TIP3    H2 3550   3.579   0.783   3.631
 1203TIP3   OH2 3551   1.204   0.062   5.668
 1203TIP3    H1 3552   1.188   0.148   5.707
 1203TIP3    H2 3553   1.204   0.002   5.743
 1204TIP3   OH2 3554   0.928   6.186   4.835
 1204TIP3    H1 3555   0.913   6.227   4.920
 1204TIP3    H2 3556   0.966   6.255   4.781
 1205TIP3   OH2 3557   7.555   5.552   1.413
 1205TIP3    H1 3558   7.621   5.565   1.345
 1205TIP3    H2 3559   7.480   5.603   1.385
 1206TIP3   OH2 3560   4.918   0.848   6.688
 1206TIP3    H1 3561   4.843   0.807   6.645
 1206TIP3    H2 3562   4.969   0.775   6.723
 1207TIP3   OH2 3563   2.952   5.954   6.555
 1207TIP3    H1 3564   2.860   5.975   6.571
 1207TIP3    H2 3565   2.961   5.957   6.460
 1208TIP3   OH2 3566   1.109   4.001   0.389
 1208TIP3    H1 3567   1.201   3.999   0.363
 1208TIP3    H2 3568   1.080   3.910   0.381
 1209TIP3   OH2 3569   3.713   1.496   3.847
 1209TIP3    H1 3570   3.705   1.420   3.905
 1209TIP3    H2 3571   3.663   1.565   3.891
 1210TIP3   OH2 3572   0.451   3.420   3.246
 1210TIP3    H1 3573   0.499   3.494   3.208
 1210TIP3    H2 3574   0.381   3.402   3.184
 1211TIP3   OH2 3575   6.772   2.084   4.221
 1211TIP3    H1 3576   6.691   2.125   4.192
 1211TIP3    H2 3577   6.821   2.067   4.141
 1212TIP3   OH2 3578   6.868   1.068   3.602
 1212TIP3    H1 3579   6.790   1.042   3.650
 1212TIP3    H2 3580   6.930   1.094   3.670
 1213TIP3   OH2 3581   3.193   4.403   2.582
 1213TIP3    H1 3582   3.236   4.338   2.527
 1213TIP3    H2 3583   3.153   4.351   2.653
 1214TIP3   OH2 3584   7.067   4.142   5.648
 1214TIP3    H1 3585   7.159   4.116   5.653
 1214TIP3    H2 3586   7.024   4.088   5.713
 1215TIP3   OH2 3587   1.597   2.947   0.968
 1215TIP3    H1 3588   1.637   2.866   1.001
 1215TIP3    H2 3589   1.661   2.981   0.905
 1216TIP3   OH2 3590   3.154   2.408   0.373
 1216TIP3    H1 3591   3.094   2.480   0.394
 1216TIP3    H2 3592   3.098   2.339   0.338
 1217TIP3   OH2 3593   0.115   1.007   3.946
 1217TIP3    H1 3594   0.031   1.039   3.980
 1217TIP3    H2 3595   0.167   0.989   4.024
 1218TIP3   OH2 3596   6.254   5.423   0.707
 1218TIP3    H1 3597   6.347   5.442   0.694
 1218TIP3    H2 3598   6.249   5.380   0.792
 1219TIP3   OH2 3599   0.028   6.863   0.895
 1219TIP3    H1 3600   0.021   6.921   0.971
 1219TIP3    H2 3601   0.118   6.831   0.897
 1220TIP3   OH2 3602   1.210   6.480   3.433
 1220TIP3    H1 3603   1.167   6.551   3.482
 1220TIP3    H2 3604   1.235   6.520   3.350
 1221TIP3   OH2 3605   6.069   0.807   0.074
 1221TIP3    H1 3606   5.995   0.745   0.074
 1221TIP3    H2 3607   6.064   0.849   0.160
 1222TIP3   OH2 3608   2.708   3.603   1.793
 1222TIP3    H1 3609   2.735   3.524   1.745
 1222TIP3    H2 3610   2.626   3.628   1.751
 1223TIP3   OH2 3611   6.795   4.799   1.917
 1223TIP3    H1 3612   6.819   4.822   2.006
 1223TIP3    H2 3613   6.858   4.733   1.891
 1224TIP3   OH2 3614   6.024   5.959   2.638
 1224TIP3    H1 3615   6.020   6.055   2.643
 1224TIP3    H2 3616   6.069   5.933   2.718
 1225TIP3   OH2 3617   0.273   5.692   3.475
 1225TIP3    H1 3618   0.271   5.721   3.566
 1225TIP3    H2 3619   0.182   5.672   3.454
 1226TIP3   OH2 3620   4.349   6.414   4.414
 1226TIP3    H1 3621   4.291   6.466   4.470
 1226TIP3    H2 3622   4.301   6.406   4.332
 1227TIP3   OH2 3623   0.116   1.884   0.642
 1227TIP3    H1 3624   0.096   1.973   0.669
 1227TIP3    H2 3625   0.175   1.851   0.710
 1228TIP3   OH2 3626   6.437   4.886   2.007
 1228TIP3    H1 3627   6.413   4.833   1.930
 1228TIP3    H2 3628   6.353   4.913   2.045
 1229TIP3   OH2 3629   1.121   3.832   3.658
 1229TIP3    H1 3630   1.036   3.821   3.614
 1229TIP3    H2 3631   1.184   3.790   3.600
 1230TIP3   OH2 3632   1.568   5.026   0.383
 1230TIP3    H1 3633   1.566   5.100   0.322
 1230TIP3    H2 3634   1.572   5.067   0.470
 1231TIP3   OH2 3635   4.418   4.499   0.588
 1231TIP3    H1 3636   4.506   4.470   0.567
 1231TIP3    H2 3637   4.426   4.594   0.599
 1232TIP3   OH2 3638   2.487   1.380   1.046
 1232TIP3    H1 3639   2.563   1.361   1.101
 1232TIP3    H2 3640   2.412   1.369   1.103
 1233TIP3   OH2 3641   5.236   4.684   4.075
 1233TIP3    H1 3642   5.222   4.727   4.159
 1233TIP3    H2 3643   5.308   4.623   4.092
 1234TIP3   OH2 3644   6.287   3.023   5.699
 1234TIP3    H1 3645   6.201   3.033   5.657
 1234TIP3    H2 3646   6.320   2.939   5.668
 1235TIP3   OH2 3647   6.378   2.960   2.459
 1235TIP3    H1 3648   6.293   2.937   2.422
 1235TIP3    H2 3649   6.360   3.025   2.526
 1236TIP3   OH2 3650   3.085   0.086   2.028
 1236TIP3    H1 3651   3.131   0.091   1.944
 1236TIP3    H2 3652   3.049  -0.003   2.031
 1237TIP3   OH2 3653   3.976   1.351   4.777
 1237TIP3    H1 3654   3.969   1.284   4.845
 1237TIP3    H2 3655   3.984   1.433   4.825
 1238TIP3   OH2 3656   2.449   5.782   5.335
 1238TIP3    H1 3657   2.403   5.851   5.286
 1238TIP3    H2 3658   2.538   5.816   5.345
 1239TIP3   OH2 3659   2.567   2.939   5.389
 1239TIP3    H1 3660   2.486   2.967   5.345
 1239TIP3    H2 3661   2.588   2.855   5.349
 1240TIP3   OH2 3662   4.536   5.466   0.347
 1240TIP3    H1 3663   4.574   5.546   0.312
 1240TIP3    H2 3664   4.604   5.430   0.404
 1241TIP3   OH2 3665   1.240   0.914   5.889
 1241TIP3    H1 3666   1.216   0.971   5.963
 1241TIP3    H2 3667   1.326   0.879   5.914
 1242TIP3   OH2 3668   1.895   5.684   6.271
 1242TIP3    H1 3669   1.814   5.633   6.265
 1242TIP3    H2 3670   1.887   5.750   6.203
 1243TIP3   OH2 3671   5.767   5.874   0.487
 1243TIP3    H1 3672   5.838   5.935   0.508
 1243TIP3    H2 3673   5.771   5.808   0.556
 1244TIP3   OH2 3674   3.052   7.777   6.495
 1244TIP3    H1 3675   3.120   7.796   6.431
 1244TIP3    H2 3676   3.091   7.800   6.579
 1245TIP3   OH2 3677   3.994   5.174   1.474
 1245TIP3    H1 3678   3.990   5.088   1.433
 1245TIP3    H2 3679   4.040   5.159   1.556
 1246TIP3   OH2 3680   3.135   0.510   4.630
 1246TIP3    H1 3681   3.048   0.513   4.670
 1246TIP3    H2 3682   3.153   0.417   4.618
 1247TIP3   OH2 3683   6.397   1.664   2.540
 1247TIP3    H1 3684   6.435   1.729   2.480
 1247TIP3    H2 3685   6.306   1.693   2.551
 1248TIP3   OH2 3686   6.028   6.993   2.168
 1248TIP3    H1 3687   5.952   7.048   2.187
 1248TIP3    H2 3688   6.099   7.033   2.218
 1249TIP3   OH2 3689   3.980   6.600   6.333
 1249TIP3    H1 3690   4.063   6.601   6.285
 1249TIP3    H2 3691   3.986   6.674   6.394
 1250TIP3   OH2 3692   2.920   5.812   4.344
 1250TIP3    H1 3693   3.001   5.848   4.378
 1250TIP3    H2 3694   2.865   5.799   4.421
 1251TIP3   OH2 3695   4.839   0.575   0.556
 1251TIP3    H1 3696   4.846   0.527   0.473
 1251TIP3    H2 3697   4.746   0.572   0.578
 1252TIP3   OH2 3698   4.559   4.299   6.408
 1252TIP3    H1 3699   4.523   4.211   6.418
 1252TIP3    H2 3700   4.637   4.287   6.354
 1253TIP3   OH2 3701   1.357   2.212   6.608
 1253TIP3    H1 3702   1.301   2.151   6.656
 1253TIP3    H2 3703   1.355   2.181   6.518
 1254TIP3   OH2 3704   0.038   5.371   6.334
 1254TIP3    H1 3705   0.118   5.422   6.321
 1254TIP3    H2 3706  -0.023   5.434   6.373
 1255TIP3   OH2 3707   2.453   6.774   2.133
 1255TIP3    H1 3708   2.367   6.758   2.094
 1255TIP3    H2 3709   2.433   6.805   2.222
 1256TIP3   OH2 3710   4.941   2.434   0.270
 1256TIP3    H1 3711   4.932   2.401   0.359
 1256TIP3    H2 3712   4.893   2.517   0.271
 1257TIP3   OH2 3713   2.887   5.547   0.757
 1257TIP3    H1 3714   2.807   5.547   0.705
 1257TIP3    H2 3715   2.941   5.479   0.718
 1258TIP3   OH2 3716   7.573   0.528   6.369
 1258TIP3    H1 3717   7.562   0.434   6.385
 1258TIP3    H2 3718   7.530   0.570   6.443
 1259TIP3   OH2 3719   3.963   1.426   6.744
 1259TIP3    H1 3720   4.040   1.373   6.766
 1259TIP3    H2 3721   3.997   1.495   6.686
 1260TIP3   OH2 3722   4.737   2.239   0.849
 1260TIP3    H1 3723   4.663   2.228   0.790
 1260TIP3    H2 3724   4.784   2.315   0.814
 1261TIP3   OH2 3725   7.608   3.425   5.629
 1261TIP3    H1 3726   7.676   3.442   5.694
 1261TIP3    H2 3727   7.656   3.410   5.548
 1262TIP3   OH2 3728   3.614   1.505   1.168
 1262TIP3    H1 3729   3.694   1.459   1.193
 1262TIP3    H2 3730   3.592   1.467   1.082
 1263TIP3   OH2 3731   2.119   4.397   6.379
 1263TIP3    H1 3732   2.190   4.406   6.315
 1263TIP3    H2 3733   2.078   4.484   6.381
 1264TIP3   OH2 3734   8.189   6.090   3.311
 1264TIP3    H1 3735   8.285   6.088   3.318
 1264TIP3    H2 3736   8.171   6.153   3.241
 1265TIP3   OH2 3737   7.633   5.404   1.035
 1265TIP3    H1 3738   7.701   5.338   1.052
 1265TIP3    H2 3739   7.665   5.483   1.080
 1266TIP3   OH2 3740   0.390   1.884   4.354
 1266TIP3    H1 3741   0.308   1.908   4.311
 1266TIP3    H2 3742   0.430   1.820   4.295
 1267TIP3   OH2 3743   5.500   5.454   3.892
 1267TIP3    H1 3744   5.406   5.436   3.901
 1267TIP3    H2 3745   5.542   5.369   3.905
 1268TIP3   OH2 3746   0.408   4.384   4.871
 1268TIP3    H1 3747   0.489   4.333   4.869
 1268TIP3    H2 3748   0.427   4.462   4.818
 1269TIP3   OH2 3749   5.767   7.637   4.390
 1269TIP3    H1 3750   5.710   7.596   4.324
 1269TIP3    H2 3751   5.721   7.716   4.416
 1270TIP3   OH2 3752   3.981   6.022   4.146
 1270TIP3    H1 3753   4.039   6.007   4.072
 1270TIP3    H2 3754   3.897   6.047   4.107
 1271TIP3   OH2 3755   8.004   1.441   2.508
 1271TIP3    H1 3756   7.922   1.424   2.462
 1271TIP3    H2 3757   8.058   1.488   2.445
 1272TIP3   OH2 3758   4.977   1.443   6.305
 1272TIP3    H1 3759   4.949   1.456   6.214
 1272TIP3    H2 3760   4.981   1.531   6.342
 1273TIP3   OH2 3761   0.611   0.595   3.831
 1273TIP3    H1 3762   0.600   0.683   3.795
 1273TIP3    H2 3763   0.587   0.604   3.923
 1274TIP3   OH2 3764   4.043   0.677   3.803
 1274TIP3    H1 3765   3.975   0.615   3.830
 1274TIP3    H2 3766   4.007   0.722   3.727
 1275TIP3   OH2 3767   0.521   0.165   0.438
 1275TIP3    H1 3768   0.589   0.209   0.489
 1275TIP3    H2 3769   0.439   0.191   0.479
 1276TIP3   OH2 3770   3.213   4.774   0.163
 1276TIP3    H1 3771   3.269   4.696   0.156
 1276TIP3    H2 3772   3.231   4.824   0.083
 1277TIP3   OH2 3773   6.901   1.956   4.845
 1277TIP3    H1 3774   6.942   1.871   4.827
 1277TIP3    H2 3775   6.975   2.015   4.863
 1278TIP3   OH2 3776   5.443   4.305   0.860
 1278TIP3    H1 3777   5.393   4.340   0.934
 1278TIP3    H2 3778   5.483   4.225   0.894
 1279TIP3   OH2 3779   1.908   5.148   1.012
 1279TIP3    H1 3780   1.835   5.187   0.964
 1279TIP3    H2 3781   1.924   5.064   0.968
 1280TIP3   OH2 3782   7.330   2.971   3.209
 1280TIP3    H1 3783   7.307   3.024   3.132
 1280TIP3    H2 3784   7.392   3.025   3.258
 1281TIP3   OH2 3785   1.296   1.522   6.234
 1281TIP3    H1 3786   1.232   1.542   6.166
 1281TIP3    H2 3787   1.375   1.569   6.207
 1282TIP3   OH2 3788   5.530   5.677   1.210
 1282TIP3    H1 3789   5.505   5.594   1.169
 1282TIP3    H2 3790   5.466   5.739   1.177
 1283TIP3   OH2 3791   2.502   6.066   0.509
 1283TIP3    H1 3792   2.581   6.066   0.563
 1283TIP3    H2 3793   2.531   6.097   0.424
 1284TIP3   OH2 3794   0.923   6.270   0.938
 1284TIP3    H1 3795   0.947   6.342   0.997
 1284TIP3    H2 3796   0.829   6.257   0.952
 1285TIP3   OH2 3797   1.942   3.355   5.974
 1285TIP3    H1 3798   1.883   3.397   5.910
 1285TIP3    H2 3799   2.015   3.416   5.983
 1286TIP3   OH2 3800   5.288   0.568   2.981
 1286TIP3    H1 3801   5.259   0.483   2.948
 1286TIP3    H2 3802   5.228   0.588   3.053
 1287TIP3   OH2 3803   7.413   2.074   2.888
 1287TIP3    H1 3804   7.429   2.101   2.978
 1287TIP3    H2 3805   7.394   2.156   2.841
 1288TIP3   OH2 3806   0.308   2.784   2.777
 1288TIP3    H1 3807   0.337   2.768   2.867
 1288TIP3    H2 3808   0.317   2.879   2.766
 1289TIP3   OH2 3809   3.072   5.159   1.751
 1289TIP3    H1 3810   3.134   5.150   1.824
 1289TIP3    H2 3811   3.012   5.085   1.761
 1290TIP3   OH2 3812   6.751   1.181   4.168
 1290TIP3    H1 3813   6.797   1.203   4.087
 1290TIP3    H2 3814   6.746   1.264   4.216
 1291TIP3   OH2 3815   5.921   1.598   1.319
 1291TIP3    H1 3816   5.891   1.606   1.409
 1291TIP3    H2 3817   5.945   1.506   1.309
 1292TIP3   OH2 3818   6.564   0.572   1.953
 1292TIP3    H1 3819   6.609   0.488   1.957
 1292TIP3    H2 3820   6.544   0.584   1.860
 1293TIP3   OH2 3821   5.452   7.061   5.256
 1293TIP3    H1 3822   5.477   6.992   5.195
 1293TIP3    H2 3823   5.523   7.124   5.253
 1294TIP3   OH2 3824   5.570   0.749   2.246
 1294TIP3    H1 3825   5.521   0.793   2.315
 1294TIP3    H2 3826   5.661   0.770   2.265
 1295TIP3   OH2 3827   2.386   2.103   5.471
 1295TIP3    H1 3828   2.351   2.015   5.456
 1295TIP3    H2 3829   2.337   2.136   5.546
 1296TIP3   OH2 3830   0.973   4.906   2.929
 1296TIP3    H1 3831   1.033   4.928   3.001
 1296TIP3    H2 3832   0.889   4.893   2.972
 1297TIP3   OH2 3833   0.292   5.510   2.214
 1297TIP3    H1 3834   0.376   5.503   2.260
 1297TIP3    H2 3835   0.234   5.450   2.261
 1298TIP3   OH2 3836   4.011   5.745   5.377
 1298TIP3    H1 3837   3.952   5.766   5.449
 1298TIP3    H2 3838   4.099   5.763   5.410
 1299TIP3   OH2 3839   2.700   2.714   4.811
 1299TIP3    H1 3840   2.612   2.678   4.812
 1299TIP3    H2 3841   2.755   2.642   4.843
 1300TIP3   OH2 3842   4.778   1.488   3.810
 1300TIP3    H1 3843   4.756   1.403   3.848
 1300TIP3    H2 3844   4.833   1.467   3.734
 1301TIP3   OH2 3845   3.183   3.303   5.199
 1301TIP3    H1 3846   3.190   3.398   5.193
 1301TIP3    H2 3847   3.223   3.271   5.118
 1302TIP3   OH2 3848   1.722   6.408   6.063
 1302TIP3    H1 3849   1.716   6.485   6.006
 1302TIP3    H2 3850   1.786   6.352   6.019
 1303TIP3   OH2 3851   8.125   3.979   4.015
 1303TIP3    H1 3852   8.140   3.911   4.081
 1303TIP3    H2 3853   8.204   3.980   3.961
 1304TIP3   OH2 3854   3.011   1.479   4.168
 1304TIP3    H1 3855   3.016   1.460   4.075
 1304TIP3    H2 3856   3.023   1.573   4.175
 1305TIP3   OH2 3857   4.803   4.638   4.414
 1305TIP3    H1 3858   4.762   4.554   4.434
 1305TIP3    H2 3859   4.890   4.632   4.454
 1306TIP3   OH2 3860   6.884   6.532   4.930
 1306TIP3    H1 3861   6.894   6.469   5.001
 1306TIP3    H2 3862   6.811   6.588   4.957
 1307TIP3   OH2 3863   3.879   4.747   5.281
 1307TIP3    H1 3864   3.947   4.696   5.324
 1307TIP3    H2 3865   3.922   4.828   5.255
 1308TIP3   OH2 3866   6.472   4.085   0.141
 1308TIP3    H1 3867   6.483   4.008   0.196
 1308TIP3    H2 3868   6.415   4.056   0.070
 1309TIP3   OH2 3869   1.513   2.367   4.604
 1309TIP3    H1 3870   1.458   2.368   4.682
 1309TIP3    H2 3871   1.568   2.290   4.615
 1310TIP3   OH2 3872   3.671   7.310   1.312
 1310TIP3    H1 3873   3.648   7.217   1.319
 1310TIP3    H2 3874   3.676   7.325   1.218
 1311TIP3   OH2 3875   7.356   3.943   2.100
 1311TIP3    H1 3876   7.444   3.910   2.080
 1311TIP3    H2 3877   7.356   3.953   2.195
 1312TIP3   OH2 3878   4.177   4.071   5.570
 1312TIP3    H1 3879   4.125   4.068   5.650
 1312TIP3    H2 3880   4.121   4.032   5.503
 1313TIP3   OH2 3881   1.989   2.586   3.228
 1313TIP3    H1 3882   1.934   2.508   3.224
 1313TIP3    H2 3883   1.974   2.622   3.315
 1314TIP3   OH2 3884   1.726   7.483   6.410
 1314TIP3    H1 3885   1.795   7.417   6.408
 1314TIP3    H2 3886   1.767   7.558   6.454
 1315TIP3   OH2 3887   2.771   7.051   0.785
 1315TIP3    H1 3888   2.740   7.006   0.863
 1315TIP3    H2 3889   2.858   7.014   0.769
 1316TIP3   OH2 3890   4.859   3.903   5.896
 1316TIP3    H1 3891   4.821   3.816   5.906
 1316TIP3    H2 3892   4.839   3.948   5.979
 1317TIP3   OH2 3893   0.584   6.627   1.482
 1317TIP3    H1 3894   0.647   6.634   1.410
 1317TIP3    H2 3895   0.639   6.622   1.561
 1318TIP3   OH2 3896   1.338   4.962   6.476
 1318TIP3    H1 3897   1.251   4.922   6.478
 1318TIP3    H2 3898   1.398   4.890   6.494
 1319TIP3   OH2 3899   3.686   5.004   5.315
 1319TIP3    H1 3900   3.771   5.015   5.273
 1319TIP3    H2 3901   3.656   5.094   5.332
 1320TIP3   OH2 3902   2.524   7.194   6.648
 1320TIP3    H1 3903   2.445   7.145   6.626
 1320TIP3    H2 3904   2.596   7.136   6.624
 1321TIP3   OH2 3905   5.030   6.446   4.738
 1321TIP3    H1 3906   5.068   6.463   4.652
 1321TIP3    H2 3907   5.102   6.458   4.800
 1322TIP3   OH2 3908   7.513   3.198   4.456
 1322TIP3    H1 3909   7.432   3.183   4.408
 1322TIP3    H2 3910   7.583   3.170   4.396
 1323TIP3   OH2 3911   0.959   6.091   2.305
 1323TIP3    H1 3912   1.014   6.160   2.267
 1323TIP3    H2 3913   1.021   6.028   2.342
 1324TIP3   OH2 3914   5.905   3.186   6.058
 1324TIP3    H1 3915   5.849   3.124   6.010
 1324TIP3    H2 3916   5.972   3.211   5.994
 1325TIP3   OH2 3917   3.073   5.982   0.781
 1325TIP3    H1 3918   3.140   5.914   0.779
 1325TIP3    H2 3919   3.028   5.973   0.697
 1326TIP3   OH2 3920   8.045   7.785   3.504
 1326TIP3    H1 3921   8.075   7.715   3.561
 1326TIP3    H2 3922   8.122   7.808   3.452
 1327TIP3   OH2 3923   5.278   0.103   5.917
 1327TIP3    H1 3924   5.212   0.109   5.848
 1327TIP3    H2 3925   5.359   0.081   5.870
 1328TIP3   OH2 3926   4.147   0.318   6.484
 1328TIP3    H1 3927   4.131   0.332   6.577
 1328TIP3    H2 3928   4.062   0.291   6.449
 1329TIP3   OH2 3929   5.309   7.249   2.437
 1329TIP3    H1 3930   5.239   7.214   2.492
 1329TIP3    H2 3931   5.390   7.220   2.481
 1330TIP3   OH2 3932   5.680   6.241   0.379
 1330TIP3    H1 3933   5.723   6.326   0.387
 1330TIP3    H2 3934   5.737   6.190   0.322
 1331TIP3   OH2 3935   5.802   1.144   4.582
 1331TIP3    H1 3936   5.872   1.093   4.542
 1331TIP3    H2 3937   5.826   1.235   4.566
 1332TIP3   OH2 3938   2.907   0.462   3.140
 1332TIP3    H1 3939   3.003   0.467   3.140
 1332TIP3    H2 3940   2.884   0.444   3.231
 1333TIP3   OH2 3941   7.081   3.916   1.642
 1333TIP3    H1 3942   7.119   3.921   1.729
 1333TIP3    H2 3943   7.149   3.874   1.588
 1334TIP3   OH2 3944   0.350   2.277   4.191
 1334TIP3    H1 3945   0.430   2.287   4.242
 1334TIP3    H2 3946   0.378   2.234   4.110
 1335TIP3   OH2 3947   4.506   3.001   4.502
 1335TIP3    H1 3948   4.511   3.070   4.436
 1335TIP3    H2 3949   4.534   2.922   4.457
 1336TIP3   OH2 3950   5.879   1.185   3.977
 1336TIP3    H1 3951   5.872   1.130   4.055
 1336TIP3    H2 3952   5.821   1.259   3.995
 1337TIP3   OH2 3953   0.822   2.411   0.904
 1337TIP3    H1 3954   0.793   2.499   0.880
 1337TIP3    H2 3955   0.840   2.368   0.820
 1338TIP3   OH2 3956   1.902   2.165   1.098
 1338TIP3    H1 3957   1.943   2.080   1.087
 1338TIP3    H2 3958   1.812   2.145   1.124
 1339TIP3   OH2 3959   1.553   1.450   5.088
 1339TIP3    H1 3960   1.548   1.386   5.017
 1339TIP3    H2 3961   1.569   1.397   5.166
 1340TIP3   OH2 3962   8.076   6.628   2.964
 1340TIP3    H1 3963   8.012   6.603   2.897
 1340TIP3    H2 3964   8.087   6.722   2.953
 1341TIP3   OH2 3965   4.297   3.749   5.290
 1341TIP3    H1 3966   4.206   3.728   5.310
 1341TIP3    H2 3967   4.308   3.840   5.318
 1342TIP3   OH2 3968   7.285   0.322   2.194
 1342TIP3    H1 3969   7.380   0.329   2.199
 1342TIP3    H2 3970   7.254   0.355   2.278
 1343TIP3   OH2 3971   5.696   1.027   6.247
 1343TIP3    H1 3972   5.605   1.026   6.274
 1343TIP3    H2 3973   5.736   0.954   6.295
 1344TIP3   OH2 3974   7.342   3.316   5.062
 1344TIP3    H1 3975   7.308   3.252   5.124
 1344TIP3    H2 3976   7.327   3.400   5.105
 1345TIP3   OH2 3977   4.048   0.454   6.121
 1345TIP3    H1 3978   4.004   0.439   6.037
 1345TIP3    H2 3979   4.027   0.545   6.143
 1346TIP3   OH2 3980   3.180   4.889   1.868
 1346TIP3    H1 3981   3.117   4.829   1.829
 1346TIP3    H2 3982   3.265   4.845   1.860
 1347TIP3   OH2 3983   0.217   6.672   6.058
 1347TIP3    H1 3984   0.128   6.639   6.046
 1347TIP3    H2 3985   0.230   6.673   6.153
 1348TIP3   OH2 3986   5.847   2.593   3.593
 1348TIP3    H1 3987   5.918   2.631   3.645
 1348TIP3    H2 3988   5.883   2.586   3.505
 1349TIP3   OH2 3989   2.028   4.451   2.725
 1349TIP3    H1 3990   1.941   4.485   2.703
 1349TIP3    H2 3991   2.035   4.369   2.676
 1350TIP3   OH2 3992   7.648   6.022   2.460
 1350TIP3    H1 3993   7.661   5.951   2.523
 1350TIP3    H2 3994   7.589   5.985   2.394
 1351TIP3   OH2 3995   1.960   5.313   3.729
 1351TIP3    H1 3996   1.998   5.242   3.780
 1351TIP3    H2 3997   2.033   5.371   3.710
 1352TIP3   OH2 3998   6.488   1.861   1.738
 1352TIP3    H1 3999   6.480   1.951   1.706
 1352TIP3    H2 4000   6.422   1.812   1.690
 1353TIP3   OH2 4001   7.076   2.012   1.369
 1353TIP3    H1 4002   7.037   1.925   1.358
 1353TIP3    H2 4003   7.137   2.001   1.443
 1354TIP3   OH2 4004   7.278   2.389   5.760
 1354TIP3    H1 4005   7.182   2.386   5.760
 1354TIP3    H2 4006   7.303   2.347   5.842
 1355TIP3   OH2 4007   7.532   5.241   5.344
 1355TIP3    H1 4008   7.579   5.249   5.427
 1355TIP3    H2 4009   7.541   5.327   5.302
 1356TIP3   OH2 4010   6.279   7.136   0.415
 1356TIP3    H1 4011   6.311   7.050   0.441
 1356TIP3    H2 4012   6.354   7.194   0.425
 1357TIP3   OH2 4013   7.406   3.752   6.439
 1357TIP3    H1 4014   7.489   3.758   6.391
 1357TIP3    H2 4015   7.339   3.771   6.374
 1358TIP3   OH2 4016   7.953   1.931   4.620
 1358TIP3    H1 4017   7.958   1.926   4.715
 1358TIP3    H2 4018   7.877   1.878   4.597
 1359TIP3   OH2 4019   0.211   4.904   5.926
 1359TIP3    H1 4020   0.248   4.987   5.957
 1359TIP3    H2 4021   0.213   4.911   5.831
 1360TIP3   OH2 4022   6.820   3.560   1.030
 1360TIP3    H1 4023   6.857   3.613   1.101
 1360TIP3    H2 4024   6.790   3.623   0.965
 1361TIP3   OH2 4025   3.355   3.091   3.148
 1361TIP3    H1 4026   3.326   3.166   3.095
 1361TIP3    H2 4027   3.365   3.126   3.236
 1362TIP3   OH2 4028   0.258   4.361   4.504
 1362TIP3    H1 4029   0.164   4.354   4.518
 1362TIP3    H2 4030   0.292   4.275   4.527
 1363TIP3   OH2 4031   3.363   4.522   3.801
 1363TIP3    H1 4032   3.398   4.609   3.781
 1363TIP3    H2 4033   3.318   4.495   3.721
 1364TIP3   OH2 4034   3.332   6.017   2.833
 1364TIP3    H1 4035   3.275   6.076   2.883
 1364TIP3    H2 4036   3.387   6.076   2.780
 1365TIP3   OH2 4037   5.515   1.471   4.194
 1365TIP3    H1 4038   5.436   1.518   4.168
 1365TIP3    H2 4039   5.570   1.537   4.236
 1366TIP3   OH2 4040   0.726   3.466   4.245
 1366TIP3    H1 4041   0.738   3.395   4.182
 1366TIP3    H2 4042   0.637   3.499   4.227
 1367TIP3   OH2 4043   1.068   0.178   2.491
 1367TIP3    H1 4044   1.124   0.192   2.568
 1367TIP3    H2 4045   0.996   0.124   2.523
 1368TIP3   OH2 4046   2.771   2.572   6.123
 1368TIP3    H1 4047   2.754   2.586   6.216
 1368TIP3    H2 4048   2.867   2.576   6.116
 1369TIP3   OH2 4049   1.351   3.021   3.745
 1369TIP3    H1 4050   1.428   2.991   3.793
 1369TIP3    H2 4051   1.301   3.073   3.808
 1370TIP3   OH2 4052   6.178   1.677   1.954
 1370TIP3    H1 4053   6.149   1.652   2.042
 1370TIP3    H2 4054   6.262   1.721   1.968
 1371TIP3   OH2 4055   0.016   6.299   3.633
 1371TIP3    H1 4056  -0.046   6.277   3.564
 1371TIP3    H2 4057   0.101   6.269   3.600
 1372TIP3   OH2 4058   6.929   3.637   0.590
 1372TIP3    H1 4059   6.895   3.550   0.612
 1372TIP3    H2 4060   7.022   3.633   0.614
 1373TIP3   OH2 4061   6.088   6.682   3.345
 1373TIP3    H1 4062   6.027   6.643   3.408
 1373TIP3    H2 4063   6.114   6.764   3.385
 1374TIP3   OH2 4064   7.593   0.645   1.822
 1374TIP3    H1 4065   7.521   0.703   1.846
 1374TIP3    H2 4066   7.571   0.561   1.863
 1375TIP3   OH2 4067   7.669   0.060   5.389
 1375TIP3    H1 4068   7.617  -0.020   5.378
 1375TIP3    H2 4069   7.648   0.114   5.313
 1376TIP3   OH2 4070   3.910   4.407   4.542
 1376TIP3    H1 4071   3.952   4.466   4.604
 1376TIP3    H2 4072   3.982   4.368   4.492
 1377TIP3   OH2 4073   7.151   3.469   1.534
 1377TIP3    H1 4074   7.185   3.449   1.621
 1377TIP3    H2 4075   7.057   3.458   1.542
 1378TIP3   OH2 4076   7.162   2.993   4.802
 1378TIP3    H1 4077   7.244   3.033   4.774
 1378TIP3    H2 4078   7.187   2.909   4.839
 1379TIP3   OH2 4079   1.277   1.214   1.598
 1379TIP3    H1 4080   1.349   1.216   1.536
 1379TIP3    H2 4081   1.198   1.207   1.544
 1380TIP3   OH2 4082   6.659   1.502   1.452
 1380TIP3    H1 4083   6.668   1.451   1.371
 1380TIP3    H2 4084   6.701   1.449   1.519
 1381TIP3   OH2 4085   5.329   0.916   1.418
 1381TIP3    H1 4086   5.296   0.936   1.506
 1381TIP3    H2 4087   5.251   0.910   1.364
 1382TIP3   OH2 4088   4.083   4.115   2.838
 1382TIP3    H1 4089   4.144   4.184   2.866
 1382TIP3    H2 4090   3.998   4.144   2.872
 1383TIP3   OH2 4091   3.106   5.680   4.033
 1383TIP3    H1 4092   3.074   5.755   4.083
 1383TIP3    H2 4093   3.201   5.693   4.029
 1384TIP3   OH2 4094   6.883   2.636   5.383
 1384TIP3    H1 4095   6.977   2.652   5.394
 1384TIP3    H2 4096   6.861   2.578   5.456
 1385TIP3   OH2 4097   5.211   1.520   4.743
 1385TIP3    H1 4098   5.164   1.528   4.660
 1385TIP3    H2 4099   5.299   1.554   4.724
 1386TIP3   OH2 4100   1.627   4.236   1.424
 1386TIP3    H1 4101   1.624   4.169   1.493
 1386TIP3    H2 4102   1.721   4.245   1.405
 1387TIP3   OH2 4103   1.265   1.282   2.249
 1387TIP3    H1 4104   1.337   1.234   2.289
 1387TIP3    H2 4105   1.204   1.214   2.220
 1388TIP3   OH2 4106   5.405   4.743   1.673
 1388TIP3    H1 4107   5.456   4.671   1.711
 1388TIP3    H2 4108   5.412   4.814   1.736
 1389TIP3   OH2 4109   0.070   3.311   3.919
 1389TIP3    H1 4110   0.032   3.394   3.894
 1389TIP3    H2 4111   0.162   3.331   3.939
 1390TIP3   OH2 4112   4.888   2.491   2.073
 1390TIP3    H1 4113   4.853   2.430   2.137
 1390TIP3    H2 4114   4.819   2.502   2.008
 1391TIP3   OH2 4115   7.735   5.311   4.479
 1391TIP3    H1 4116   7.786   5.237   4.509
 1391TIP3    H2 4117   7.650   5.301   4.521
 1392TIP3   OH2 4118   5.582   0.274   5.751
 1392TIP3    H1 4119   5.678   0.274   5.753
 1392TIP3    H2 4120   5.558   0.351   5.802
 1393TIP3   OH2 4121   0.397   3.029   4.880
 1393TIP3    H1 4122   0.341   2.980   4.820
 1393TIP3    H2 4123   0.428   2.964   4.943
 1394TIP3   OH2 4124   8.065   7.147   4.651
 1394TIP3    H1 4125   8.159   7.136   4.667
 1394TIP3    H2 4126   8.024   7.077   4.701
 1395TIP3   OH2 4127   0.817   7.230   6.091
 1395TIP3    H1 4128   0.859   7.179   6.160
 1395TIP3    H2 4129   0.799   7.166   6.022
 1396TIP3   OH2 4130   5.216   3.905   1.539
 1396TIP3    H1 4131   5.123   3.881   1.540
 1396TIP3    H2 4132   5.249   3.880   1.625
 1397TIP3   OH2 4133   3.651   6.676   2.473
 1397TIP3    H1 4134   3.571   6.675   2.421
 1397TIP3    H2 4135   3.669   6.583   2.492
 1398TIP3   OH2 4136   3.995   0.986   4.225
 1398TIP3    H1 4137   4.025   0.942   4.145
 1398TIP3    H2 4138   4.072   1.031   4.259
 1399TIP3   OH2 4139   0.058   0.457   4.647
 1399TIP3    H1 4140   0.064   0.388   4.712
 1399TIP3    H2 4141   0.040   0.536   4.697
 1400TIP3   OH2 4142   6.993   1.902   2.922
 1400TIP3    H1 4143   7.010   1.993   2.897
 1400TIP3    H2 4144   6.920   1.876   2.866
 1401TIP3   OH2 4145   2.230   7.028   0.412
 1401TIP3    H1 4146   2.187   7.037   0.497
 1401TIP3    H2 4147   2.223   7.115   0.372
 1402TIP3   OH2 4148   5.815   6.065   2.328
 1402TIP3    H1 4149   5.804   6.143   2.272
 1402TIP3    H2 4150   5.886   6.016   2.286
 1403TIP3   OH2 4151   5.448   5.746   0.111
 1403TIP3    H1 4152   5.524   5.737   0.053
 1403TIP3    H2 4153   5.451   5.669   0.168
 1404TIP3   OH2 4154   3.235   0.551   6.144
 1404TIP3    H1 4155   3.229   0.642   6.115
 1404TIP3    H2 4156   3.144   0.525   6.159
 1405TIP3   OH2 4157   2.732   5.503   5.919
 1405TIP3    H1 4158   2.742   5.520   5.826
 1405TIP3    H2 4159   2.641   5.528   5.938
 1406TIP3   OH2 4160   0.377   3.913   6.641
 1406TIP3    H1 4161   0.287   3.932   6.667
 1406TIP3    H2 4162   0.413   3.863   6.714
 1407TIP3   OH2 4163   4.705   0.124   4.839
 1407TIP3    H1 4164   4.778   0.064   4.823
 1407TIP3    H2 4165   4.642   0.104   4.769
 1408TIP3   OH2 4166   7.538   7.543   3.425
 1408TIP3    H1 4167   7.525   7.486   3.501
 1408TIP3    H2 4168   7.479   7.507   3.359
 1409TIP3   OH2 4169   3.865   7.509   3.181
 1409TIP3    H1 4170   3.777   7.470   3.189
 1409TIP3    H2 4171   3.884   7.542   3.269
 1410TIP3   OH2 4172   6.542   2.261   3.793
 1410TIP3    H1 4173   6.469   2.278   3.851
 1410TIP3    H2 4174   6.603   2.210   3.845
 1411TIP3   OH2 4175   5.665   5.837   2.367
 1411TIP3    H1 4176   5.642   5.842   2.274
 1411TIP3    H2 4177   5.718   5.915   2.382
 1412TIP3   OH2 4178   4.226   6.208   0.589
 1412TIP3    H1 4179   4.286   6.134   0.588
 1412TIP3    H2 4180   4.233   6.244   0.678
 1413TIP3   OH2 4181   0.426   4.344   3.075
 1413TIP3    H1 4182   0.442   4.414   3.012
 1413TIP3    H2 4183   0.360   4.380   3.135
 1414TIP3   OH2 4184   3.029   2.297   5.172
 1414TIP3    H1 4185   3.113   2.258   5.149
 1414TIP3    H2 4186   3.034   2.310   5.266
 1415TIP3   OH2 4187   5.219   5.133   4.911
 1415TIP3    H1 4188   5.268   5.052   4.921
 1415TIP3    H2 4189   5.282   5.196   4.877
 1416TIP3   OH2 4190   3.040   0.546   2.150
 1416TIP3    H1 4191   2.983   0.603   2.099
 1416TIP3    H2 4192   3.041   0.464   2.101
 1417TIP3   OH2 4193   0.290   2.303   0.237
 1417TIP3    H1 4194   0.331   2.389   0.233
 1417TIP3    H2 4195   0.342   2.249   0.177
 1418TIP3   OH2 4196   2.217   1.778   1.314
 1418TIP3    H1 4197   2.139   1.831   1.295
 1418TIP3    H2 4198   2.184   1.706   1.367
 1419TIP3   OH2 4199   5.188   3.830   1.135
 1419TIP3    H1 4200   5.251   3.887   1.091
 1419TIP3    H2 4201   5.114   3.824   1.074
 1420TIP3   OH2 4202   5.774   4.795   4.022
 1420TIP3    H1 4203   5.736   4.798   4.110
 1420TIP3    H2 4204   5.702   4.816   3.964
 1421TIP3   OH2 4205   7.828   6.330   5.015
 1421TIP3    H1 4206   7.847   6.250   5.065
 1421TIP3    H2 4207   7.820   6.299   4.924
 1422TIP3   OH2 4208   4.718   0.397   3.473
 1422TIP3    H1 4209   4.750   0.365   3.558
 1422TIP3    H2 4210   4.623   0.384   3.477
 1423TIP3   OH2 4211   4.442   5.354   2.633
 1423TIP3    H1 4212   4.389   5.394   2.702
 1423TIP3    H2 4213   4.378   5.316   2.572
 1424TIP3   OH2 4214   1.389   3.422   6.762
 1424TIP3    H1 4215   1.428   3.484   6.701
 1424TIP3    H2 4216   1.459   3.400   6.824
 1425TIP3   OH2 4217   4.575   0.081   4.005
 1425TIP3    H1 4218   4.598   0.127   3.924
 1425TIP3    H2 4219   4.659   0.065   4.048
 1426TIP3   OH2 4220   6.694   0.615   2.377
 1426TIP3    H1 4221   6.672   0.576   2.462
 1426TIP3    H2 4222   6.614   0.608   2.325
 1427TIP3   OH2 4223   7.180   1.194   2.924
 1427TIP3    H1 4224   7.157   1.278   2.965
 1427TIP3    H2 4225   7.197   1.135   2.998
 1428TIP3   OH2 4226   0.530   6.105   6.131
 1428TIP3    H1 4227   0.483   6.059   6.200
 1428TIP3    H2 4228   0.525   6.198   6.155
 1429TIP3   OH2 4229   1.899   3.978   1.528
 1429TIP3    H1 4230   1.975   4.020   1.488
 1429TIP3    H2 4231   1.931   3.891   1.552
 1430TIP3   OH2 4232   0.546   2.687   4.345
 1430TIP3    H1 4233   0.540   2.775   4.384
 1430TIP3    H2 4234   0.558   2.629   4.420
 1431TIP3   OH2 4235   7.967   5.641   1.115
 1431TIP3    H1 4236   7.961   5.555   1.159
 1431TIP3    H2 4237   8.057   5.645   1.084
 1432TIP3   OH2 4238   2.578   5.032   5.365
 1432TIP3    H1 4239   2.672   5.016   5.371
 1432TIP3    H2 4240   2.569   5.127   5.371
 1433TIP3   OH2 4241   1.463   6.776   4.784
 1433TIP3    H1 4242   1.400   6.848   4.787
 1433TIP3    H2 4243   1.545   6.817   4.756
 1434TIP3   OH2 4244   5.380   7.096   3.502
 1434TIP3    H1 4245   5.412   7.006   3.492
 1434TIP3    H2 4246   5.416   7.142   3.426
 1435TIP3   OH2 4247   2.250   7.492   4.307
 1435TIP3    H1 4248   2.294   7.541   4.376
 1435TIP3    H2 4249   2.290   7.525   4.226
 1436TIP3   OH2 4250   5.644   6.970   0.282
 1436TIP3    H1 4251   5.689   6.885   0.280
 1436TIP3    H2 4252   5.667   7.011   0.199
 1437TIP3   OH2 4253   5.454   1.398   3.307
 1437TIP3    H1 4254   5.514   1.463   3.344
 1437TIP3    H2 4255   5.511   1.327   3.279
 1438TIP3   OH2 4256   1.350   3.681   3.571
 1438TIP3    H1 4257   1.423   3.623   3.591
 1438TIP3    H2 4258   1.379   3.731   3.495
 1439TIP3   OH2 4259   0.699   4.917   2.729
 1439TIP3    H1 4260   0.612   4.877   2.720
 1439TIP3    H2 4261   0.758   4.843   2.742
 1440TIP3   OH2 4262   7.134   3.636   6.643
 1440TIP3    H1 4263   7.194   3.666   6.711
 1440TIP3    H2 4264   7.123   3.542   6.660
 1441TIP3   OH2 4265   1.050   4.877   4.135
 1441TIP3    H1 4266   0.958   4.870   4.164
 1441TIP3    H2 4267   1.044   4.903   4.043
 1442TIP3   OH2 4268   6.178   2.970   2.808
 1442TIP3    H1 4269   6.098   2.921   2.787
 1442TIP3    H2 4270   6.230   2.910   2.861
 1443TIP3   OH2 4271   6.779   7.398   5.781
 1443TIP3    H1 4272   6.825   7.314   5.788
 1443TIP3    H2 4273   6.742   7.412   5.868
 1444TIP3   OH2 4274   7.141   2.782   3.977
 1444TIP3    H1 4275   7.079   2.851   3.997
 1444TIP3    H2 4276   7.174   2.803   3.890
 1445TIP3   OH2 4277   7.530   3.672   5.912
 1445TIP3    H1 4278   7.516   3.691   5.819
 1445TIP3    H2 4279   7.619   3.701   5.929
 1446TIP3   OH2 4280   0.753   4.070   1.761
 1446TIP3    H1 4281   0.736   4.006   1.692
 1446TIP3    H2 4282   0.720   4.027   1.841
 1447TIP3   OH2 4283   7.844   7.476   3.435
 1447TIP3    H1 4284   7.829   7.452   3.526
 1447TIP3    H2 4285   7.757   7.488   3.398
 1448TIP3   OH2 4286   6.530   4.948   0.834
 1448TIP3    H1 4287   6.533   5.003   0.912
 1448TIP3    H2 4288   6.548   5.008   0.761
 1449TIP3   OH2 4289   8.117   1.479   0.180
 1449TIP3    H1 4290   8.082   1.517   0.261
 1449TIP3    H2 4291   8.163   1.551   0.138
 1450TIP3   OH2 4292   2.657   3.261   3.927
 1450TIP3    H1 4293   2.730   3.269   3.866
 1450TIP3    H2 4294   2.586   3.224   3.874
 1451TIP3   OH2 4295   4.907   3.659   0.234
 1451TIP3    H1 4296   4.824   3.656   0.281
 1451TIP3    H2 4297   4.927   3.567   0.214
 1452TIP3   OH2 4298   0.734   7.515   4.007
 1452TIP3    H1 4299   0.707   7.444   3.948
 1452TIP3    H2 4300   0.724   7.595   3.954
 1453TIP3   OH2 4301   1.085   2.263   5.057
 1453TIP3    H1 4302   1.149   2.214   5.109
 1453TIP3    H2 4303   1.134   2.339   5.025
 1454TIP3   OH2 4304   3.526   1.701   0.123
 1454TIP3    H1 4305   3.532   1.645   0.045
 1454TIP3    H2 4306   3.617   1.714   0.150
 1455TIP3   OH2 4307   7.470   2.456   0.271
 1455TIP3    H1 4308   7.564   2.439   0.277
 1455TIP3    H2 4309   7.455   2.530   0.330
 1456TIP3   OH2 4310   0.400   7.641   1.087
 1456TIP3    H1 4311   0.429   7.719   1.134
 1456TIP3    H2 4312   0.307   7.655   1.072
 1457TIP3   OH2 4313   1.758   3.588   2.872
 1457TIP3    H1 4314   1.712   3.650   2.816
 1457TIP3    H2 4315   1.809   3.533   2.812
 1458TIP3   OH2 4316   6.208   4.796   3.233
 1458TIP3    H1 4317   6.184   4.821   3.322
 1458TIP3    H2 4318   6.189   4.875   3.181
 1459TIP3   OH2 4319   1.903   3.446   6.290
 1459TIP3    H1 4320   1.913   3.511   6.220
 1459TIP3    H2 4321   1.993   3.428   6.319
 1460TIP3   OH2 4322   1.622   4.024   1.598
 1460TIP3    H1 4323   1.693   3.974   1.557
 1460TIP3    H2 4324   1.542   3.979   1.570
 1461TIP3   OH2 4325   5.299   3.906   0.324
 1461TIP3    H1 4326   5.388   3.902   0.288
 1461TIP3    H2 4327   5.243   3.873   0.253
 1462TIP3   OH2 4328   7.696   0.308   1.651
 1462TIP3    H1 4329   7.735   0.257   1.581
 1462TIP3    H2 4330   7.657   0.384   1.607
 1463TIP3   OH2 4331   7.112   7.342   0.840
 1463TIP3    H1 4332   7.152   7.267   0.884
 1463TIP3    H2 4333   7.173   7.363   0.769
 1464TIP3   OH2 4334   5.906   2.851   4.431
 1464TIP3    H1 4335   5.941   2.878   4.346
 1464TIP3    H2 4336   5.983   2.842   4.487
 1465TIP3   OH2 4337   4.445   0.569   4.718
 1465TIP3    H1 4338   4.510   0.568   4.788
 1465TIP3    H2 4339   4.454   0.485   4.675
 1466TIP3   OH2 4340   8.108   2.998   4.741
 1466TIP3    H1 4341   8.167   3.000   4.817
 1466TIP3    H2 4342   8.088   2.906   4.728
 1467TIP3   OH2 4343   6.306   2.393   4.508
 1467TIP3    H1 4344   6.276   2.306   4.536
 1467TIP3    H2 4345   6.312   2.443   4.590
 1468TIP3   OH2 4346   6.787   6.369   5.464
 1468TIP3    H1 4347   6.856   6.320   5.508
 1468TIP3    H2 4348   6.796   6.459   5.496
 1469TIP3   OH2 4349   5.693   0.276   6.600
 1469TIP3    H1 4350   5.597   0.284   6.604
 1469TIP3    H2 4351   5.717   0.237   6.684
 1470TIP3   OH2 4352   0.409   2.370   3.777
 1470TIP3    H1 4353   0.331   2.325   3.745
 1470TIP3    H2 4354   0.471   2.364   3.704
 1471TIP3   OH2 4355   7.413   5.856   6.616
 1471TIP3    H1 4356   7.348   5.911   6.659
 1471TIP3    H2 4357   7.362   5.807   6.550
 1472TIP3   OH2 4358   1.686   4.193   6.442
 1472TIP3    H1 4359   1.648   4.127   6.501
 1472TIP3    H2 4360   1.618   4.261   6.436
 1473TIP3   OH2 4361   3.152   1.564   6.720
 1473TIP3    H1 4362   3.109   1.501   6.778
 1473TIP3    H2 4363   3.243   1.533   6.714
 1474TIP3   OH2 4364   6.621   6.893   6.364
 1474TIP3    H1 4365   6.587   6.869   6.451
 1474TIP3    H2 4366   6.572   6.971   6.340
 1475TIP3   OH2 4367   3.547   2.508   5.704
 1475TIP3    H1 4368   3.604   2.557   5.762
 1475TIP3    H2 4369   3.599   2.494   5.625
 1476TIP3   OH2 4370   4.687   4.139   2.959
 1476TIP3    H1 4371   4.719   4.150   2.870
 1476TIP3    H2 4372   4.616   4.202   2.968
 1477TIP3   OH2 4373   4.455   1.404   5.693
 1477TIP3    H1 4374   4.389   1.460   5.735
 1477TIP3    H2 4375   4.539   1.443   5.717
 1478TIP3   OH2 4376   5.785   6.736   0.308
 1478TIP3    H1 4377   5.847   6.707   0.241
 1478TIP3    H2 4378   5.755   6.655   0.350
 1479TIP3   OH2 4379   0.306   5.103   1.466
 1479TIP3    H1 4380   0.356   5.031   1.429
 1479TIP3    H2 4381   0.284   5.158   1.390
 1480TIP3   OH2 4382   3.842   2.402   2.013
 1480TIP3    H1 4383   3.928   2.378   1.979
 1480TIP3    H2 4384   3.856   2.486   2.056
 1481TIP3   OH2 4385   5.916   4.115   5.014
 1481TIP3    H1 4386   5.998   4.081   5.048
 1481TIP3    H2 4387   5.866   4.037   4.988
 1482TIP3   OH2 4388   0.599   5.591   3.982
 1482TIP3    H1 4389   0.516   5.543   3.983
 1482TIP3    H2 4390   0.665   5.525   4.004
 1483TIP3   OH2 4391   1.641   3.167   4.780
 1483TIP3    H1 4392   1.603   3.190   4.695
 1483TIP3    H2 4393   1.569   3.128   4.829
 1484TIP3   OH2 4394   7.257   7.096   3.805
 1484TIP3    H1 4395   7.290   7.055   3.724
 1484TIP3    H2 4396   7.296   7.044   3.875
 1485TIP3   OH2 4397   6.872   7.140   5.856
 1485TIP3    H1 4398   6.832   7.090   5.785
 1485TIP3    H2 4399   6.963   7.110   5.858
 1486TIP3   OH2 4400   1.295   2.869   4.271
 1486TIP3    H1 4401   1.247   2.930   4.327
 1486TIP3    H2 4402   1.275   2.782   4.308
 1487TIP3   OH2 4403   8.128   0.173   6.581
 1487TIP3    H1 4404   8.059   0.227   6.544
 1487TIP3    H2 4405   8.196   0.171   6.513
 1488TIP3   OH2 4406   6.175   5.390   4.108
 1488TIP3    H1 4407   6.150   5.441   4.185
 1488TIP3    H2 4408   6.092   5.365   4.067
 1489TIP3   OH2 4409   7.206   1.028   3.127
 1489TIP3    H1 4410   7.122   1.072   3.137
 1489TIP3    H2 4411   7.190   0.938   3.156
 1490TIP3   OH2 4412   3.928   0.665   1.453
 1490TIP3    H1 4413   3.972   0.661   1.538
 1490TIP3    H2 4414   3.891   0.753   1.450
 1491TIP3   OH2 4415   5.736   7.498   3.141
 1491TIP3    H1 4416   5.822   7.454   3.138
 1491TIP3    H2 4417   5.754   7.583   3.181
 1492TIP3   OH2 4418   3.045   7.206   0.878
 1492TIP3    H1 4419   2.964   7.186   0.925
 1492TIP3    H2 4420   3.105   7.136   0.904
 1493TIP3   OH2 4421   6.506   2.576   4.966
 1493TIP3    H1 4422   6.561   2.534   5.032
 1493TIP3    H2 4423   6.568   2.611   4.902
 1494TIP3   OH2 4424   1.263   3.929   1.297
 1494TIP3    H1 4425   1.296   4.009   1.257
 1494TIP3    H2 4426   1.322   3.912   1.371
 1495TIP3   OH2 4427   0.809   7.061   0.806
 1495TIP3    H1 4428   0.824   6.984   0.861
 1495TIP3    H2 4429   0.896   7.086   0.775
 1496TIP3   OH2 4430   4.583   2.650   3.784
 1496TIP3    H1 4431   4.595   2.582   3.718
 1496TIP3    H2 4432   4.488   2.651   3.801
 1497TIP3   OH2 4433   1.372   2.328   2.753
 1497TIP3    H1 4434   1.365   2.288   2.839
 1497TIP3    H2 4435   1.321   2.409   2.760
 1498TIP3   OH2 4436   5.711   7.710   5.946
 1498TIP3    H1 4437   5.800   7.724   5.914
 1498TIP3    H2 4438   5.671   7.654   5.881
 1499TIP3   OH2 4439   5.403   6.453   5.881
 1499TIP3    H1 4440   5.490   6.478   5.912
 1499TIP3    H2 4441   5.419   6.408   5.797
 1500TIP3   OH2 4442   3.592   2.498   1.517
 1500TIP3    H1 4443   3.678   2.502   1.475
 1500TIP3    H2 4444   3.582   2.406   1.542
 1501TIP3   OH2 4445   2.772   5.230   2.301
 1501TIP3    H1 4446   2.707   5.238   2.231
 1501TIP3    H2 4447   2.856   5.222   2.254
 1502TIP3   OH2 4448   0.039   1.208   1.902
 1502TIP3    H1 4449   0.084   1.207   1.817
 1502TIP3    H2 4450  -0.054   1.209   1.880
 1503TIP3   OH2 4451   4.695   0.060   5.387
 1503TIP3    H1 4452   4.701   0.012   5.469
 1503TIP3    H2 4453   4.601   0.068   5.370
 1504TIP3   OH2 4454   4.938   5.272   0.695
 1504TIP3    H1 4455   4.950   5.229   0.780
 1504TIP3    H2 4456   4.915   5.202   0.635
 1505TIP3   OH2 4457   3.417   3.852   0.377
 1505TIP3    H1 4458   3.482   3.895   0.433
 1505TIP3    H2 4459   3.375   3.923   0.329
 1506TIP3   OH2 4460   1.810   4.581   1.563
 1506TIP3    H1 4461   1.853   4.586   1.648
 1506TIP3    H2 4462   1.880   4.559   1.501
 1507TIP3   OH2 4463   0.028   7.082   4.674
 1507TIP3    H1 4464   0.110   7.069   4.626
 1507TIP3    H2 4465   0.026   7.010   4.737
 1508TIP3   OH2 4466   4.096   1.941   3.468
 1508TIP3    H1 4467   4.179   1.949   3.423
 1508TIP3    H2 4468   4.079   1.847   3.471
 1509TIP3   OH2 4469   6.595   2.116   0.849
 1509TIP3    H1 4470   6.605   2.029   0.887
 1509TIP3    H2 4471   6.655   2.171   0.900
 1510TIP3   OH2 4472   8.197   0.898   0.645
 1510TIP3    H1 4473   8.235   0.891   0.557
 1510TIP3    H2 4474   8.158   0.812   0.660
 1511TIP3   OH2 4475   3.882   0.241   0.682
 1511TIP3    H1 4476   3.812   0.180   0.704
 1511TIP3    H2 4477   3.837   0.318   0.647
 1512TIP3   OH2 4478   5.005   1.542   0.345
 1512TIP3    H1 4479   5.038   1.509   0.428
 1512TIP3    H2 4480   5.065   1.613   0.322
 1513TIP3   OH2 4481   4.131   1.664   6.083
 1513TIP3    H1 4482   4.198   1.717   6.038
 1513TIP3    H2 4483   4.177   1.584   6.109
 1514TIP3   OH2 4484   1.032   3.562   6.568
 1514TIP3    H1 4485   1.081   3.635   6.532
 1514TIP3    H2 4486   1.099   3.501   6.600
 1515TIP3   OH2 4487   6.512   3.886   0.386
 1515TIP3    H1 4488   6.502   3.887   0.481
 1515TIP3    H2 4489   6.605   3.904   0.371
 1516TIP3   OH2 4490   8.207   5.569   3.259
 1516TIP3    H1 4491   8.302   5.562   3.257
 1516TIP3    H2 4492   8.191   5.646   3.314
 1517TIP3   OH2 4493   4.254   5.315   6.432
 1517TIP3    H1 4494   4.164   5.309   6.400
 1517TIP3    H2 4495   4.305   5.346   6.357
 1518TIP3   OH2 4496   3.818   0.119   2.470
 1518TIP3    H1 4497   3.894   0.120   2.411
 1518TIP3    H2 4498   3.825   0.200   2.519
 1519TIP3   OH2 4499   2.125   5.029   5.592
 1519TIP3    H1 4500   2.048   5.005   5.643
 1519TIP3    H2 4501   2.132   4.962   5.525
 1520TIP3   OH2 4502   3.044   0.187   5.964
 1520TIP3    H1 4503   2.988   0.255   5.927
 1520TIP3    H2 4504   2.984   0.115   5.984
 1521TIP3   OH2 4505   6.173   1.833   0.729
 1521TIP3    H1 4506   6.135   1.902   0.784
 1521TIP3    H2 4507   6.191   1.761   0.790
 1522TIP3   OH2 4508   2.281   1.370   1.242
 1522TIP3    H1 4509   2.312   1.420   1.317
 1522TIP3    H2 4510   2.192   1.402   1.226
 1523TIP3   OH2 4511   4.592   0.331   0.420
 1523TIP3    H1 4512   4.635   0.404   0.375
 1523TIP3    H2 4513   4.524   0.301   0.359
 1524TIP3   OH2 4514   6.413   0.762   4.879
 1524TIP3    H1 4515   6.322   0.752   4.907
 1524TIP3    H2 4516   6.412   0.743   4.785
 1525TIP3   OH2 4517   0.955   1.360   2.042
 1525TIP3    H1 4518   0.903   1.298   2.093
 1525TIP3    H2 4519   1.005   1.306   1.982
 1526TIP3   OH2 4520   4.834   0.932   2.987
 1526TIP3    H1 4521   4.854   0.864   3.050
 1526TIP3    H2 4522   4.739   0.928   2.976
 1527TIP3   OH2 4523   4.753   4.478   6.201
 1527TIP3    H1 4524   4.708   4.534   6.264
 1527TIP3    H2 4525   4.816   4.428   6.253
 1528TIP3   OH2 4526   2.661   0.471   5.806
 1528TIP3    H1 4527   2.580   0.467   5.756
 1528TIP3    H2 4528   2.642   0.532   5.878
 1529TIP3   OH2 4529   5.750   4.633   0.358
 1529TIP3    H1 4530   5.790   4.548   0.375
 1529TIP3    H2 4531   5.800   4.695   0.411
 1530TIP3   OH2 4532   0.632   7.107   2.044
 1530TIP3    H1 4533   0.601   7.023   2.009
 1530TIP3    H2 4534   0.604   7.107   2.135
 1531TIP3   OH2 4535   6.822   2.847   5.893
 1531TIP3    H1 4536   6.909   2.810   5.878
 1531TIP3    H2 4537   6.824   2.877   5.984
 1532TIP3   OH2 4538   5.032   4.965   3.991
 1532TIP3    H1 4539   5.071   4.899   3.934
 1532TIP3    H2 4540   4.938   4.945   3.989
 1533TIP3   OH2 4541   5.038   4.625   5.129
 1533TIP3    H1 4542   5.127   4.591   5.121
 1533TIP3    H2 4543   4.982   4.548   5.122
 1534TIP3   OH2 4544   6.765   7.630   3.655
 1534TIP3    H1 4545   6.797   7.545   3.685
 1534TIP3    H2 4546   6.681   7.641   3.700
 1535TIP3   OH2 4547   0.138   7.401   3.842
 1535TIP3    H1 4548   0.222   7.397   3.796
 1535TIP3    H2 4549   0.103   7.488   3.821
 1536TIP3   OH2 4550   1.757   3.476   3.128
 1536TIP3    H1 4551   1.852   3.473   3.139
 1536TIP3    H2 4552   1.744   3.511   3.040
 1537TIP3   OH2 4553   0.596   5.223   3.662
 1537TIP3    H1 4554   0.556   5.310   3.659
 1537TIP3    H2 4555   0.535   5.171   3.715
 1538TIP3   OH2 4556   3.679   2.227   1.154
 1538TIP3    H1 4557   3.646   2.238   1.243
 1538TIP3    H2 4558   3.623   2.282   1.100
 1539TIP3   OH2 4559   0.846   3.185   0.699
 1539TIP3    H1 4560   0.907   3.175   0.626
 1539TIP3    H2 4561   0.861   3.107   0.753
 1540TIP3   OH2 4562   5.265   1.653   6.719
 1540TIP3    H1 4563   5.314   1.582   6.677
 1540TIP3    H2 4564   5.289   1.648   6.811
 1541TIP3   OH2 4565   4.814   0.855   0.369
 1541TIP3    H1 4566   4.820   0.917   0.442
 1541TIP3    H2 4567   4.900   0.860   0.327
 1542TIP3   OH2 4568   3.601   2.832   4.560
 1542TIP3    H1 4569   3.581   2.809   4.469
 1542TIP3    H2 4570   3.650   2.756   4.593
 1543TIP3   OH2 4571   1.350   1.558   2.492
 1543TIP3    H1 4572   1.434   1.553   2.446
 1543TIP3    H2 4573   1.341   1.475   2.538
 1544TIP3   OH2 4574   2.335   6.753   2.401
 1544TIP3    H1 4575   2.336   6.849   2.403
 1544TIP3    H2 4576   2.302   6.728   2.487
 1545TIP3   OH2 4577   8.061   4.981   5.507
 1545TIP3    H1 4578   8.116   5.055   5.531
 1545TIP3    H2 4579   8.095   4.908   5.559
 1546TIP3   OH2 4580   3.895   6.543   1.210
 1546TIP3    H1 4581   3.942   6.547   1.293
 1546TIP3    H2 4582   3.880   6.635   1.187
 1547TIP3   OH2 4583   7.241   3.530   2.410
 1547TIP3    H1 4584   7.285   3.518   2.326
 1547TIP3    H2 4585   7.177   3.599   2.394
 1548TIP3   OH2 4586   8.117   5.848   3.601
 1548TIP3    H1 4587   8.210   5.857   3.623
 1548TIP3    H2 4588   8.109   5.758   3.569
 1549TIP3   OH2 4589   3.305   7.062   4.365
 1549TIP3    H1 4590   3.243   7.132   4.385
 1549TIP3    H2 4591   3.386   7.107   4.341
 1550TIP3   OH2 4592   0.900   2.086   6.625
 1550TIP3    H1 4593   0.933   2.169   6.660
 1550TIP3    H2 4594   0.856   2.109   6.543
 1551TIP3   OH2 4595   8.127   3.942   0.983
 1551TIP3    H1 4596   8.176   3.998   0.923
 1551TIP3    H2 4597   8.187   3.869   1.002
 1552TIP3   OH2 4598   3.321   4.035   1.095
 1552TIP3    H1 4599   3.388   3.989   1.146
 1552TIP3    H2 4600   3.273   3.965   1.049
 1553TIP3   OH2 4601   4.829   4.402   0.044
 1553TIP3    H1 4602   4.898   4.360  -0.008
 1553TIP3    H2 4603   4.749   4.386  -0.006
 1554TIP3   OH2 4604   8.208   6.875   3.168
 1554TIP3    H1 4605   8.133   6.826   3.202
 1554TIP3    H2 4606   8.279   6.855   3.229
 1555TIP3   OH2 4607   2.978   7.148   3.704
 1555TIP3    H1 4608   2.901   7.184   3.660
 1555TIP3    H2 4609   2.959   7.157   3.797
 1556TIP3   OH2 4610   7.739   5.653   0.877
 1556TIP3    H1 4611   7.764   5.728   0.931
 1556TIP3    H2 4612   7.819   5.600   0.872
 1557TIP3   OH2 4613   2.367   2.317   0.558
 1557TIP3    H1 4614   2.428   2.288   0.491
 1557TIP3    H2 4615   2.281   2.294   0.525
 1558TIP3   OH2 4616   6.269   5.536   5.422
 1558TIP3    H1 4617   6.337   5.515   5.485
 1558TIP3    H2 4618   6.315   5.555   5.341
 1559TIP3   OH2 4619   0.787   4.269   0.686
 1559TIP3    H1 4620   0.748   4.327   0.620
 1559TIP3    H2 4621   0.867   4.237   0.646
 1560TIP3   OH2 4622   6.910   2.170   1.829
 1560TIP3    H1 4623   6.974   2.173   1.757
 1560TIP3    H2 4624   6.909   2.259   1.864
 1561TIP3   OH2 4625   5.719   6.427   3.222
 1561TIP3    H1 4626   5.700   6.404   3.131
 1561TIP3    H2 4627   5.771   6.507   3.216
 1562TIP3   OH2 4628   6.495   6.123   2.794
 1562TIP3    H1 4629   6.493   6.081   2.880
 1562TIP3    H2 4630   6.566   6.186   2.800
 1563TIP3   OH2 4631   0.364   6.189   6.660
 1563TIP3    H1 4632   0.348   6.283   6.654
 1563TIP3    H2 4633   0.455   6.182   6.688
 1564TIP3   OH2 4634   0.552   2.622   4.073
 1564TIP3    H1 4635   0.463   2.587   4.069
 1564TIP3    H2 4636   0.555   2.671   4.154
 1565TIP3   OH2 4637   7.577   0.777   0.418
 1565TIP3    H1 4638   7.620   0.752   0.501
 1565TIP3    H2 4639   7.649   0.786   0.356
 1566TIP3   OH2 4640   8.146   1.989   2.014
 1566TIP3    H1 4641   8.203   2.009   2.088
 1566TIP3    H2 4642   8.074   2.051   2.023
 1567TIP3   OH2 4643   2.376   5.910   2.216
 1567TIP3    H1 4644   2.420   5.995   2.207
 1567TIP3    H2 4645   2.401   5.861   2.138
 1568TIP3   OH2 4646   5.369   7.785   3.131
 1568TIP3    H1 4647   5.394   7.827   3.049
 1568TIP3    H2 4648   5.315   7.710   3.105
 1569TIP3   OH2 4649   6.784   1.040   1.351
 1569TIP3    H1 4650   6.715   0.974   1.345
 1569TIP3    H2 4651   6.825   1.038   1.264
 1570TIP3   OH2 4652   1.823   1.143   3.408
 1570TIP3    H1 4653   1.843   1.235   3.389
 1570TIP3    H2 4654   1.899   1.095   3.374
 1571TIP3   OH2 4655   3.154   3.997   3.209
 1571TIP3    H1 4656   3.241   4.029   3.232
 1571TIP3    H2 4657   3.153   3.907   3.242
 1572TIP3   OH2 4658   7.740   7.774   4.030
 1572TIP3    H1 4659   7.707   7.708   4.090
 1572TIP3    H2 4660   7.670   7.839   4.024
 1573TIP3   OH2 4661   3.875   6.680   0.941
 1573TIP3    H1 4662   3.899   6.590   0.920
 1573TIP3    H2 4663   3.788   6.692   0.901
 1574TIP3   OH2 4664   3.643   0.514   5.370
 1574TIP3    H1 4665   3.620   0.607   5.382
 1574TIP3    H2 4666   3.714   0.515   5.306
 1575TIP3   OH2 4667   5.178   2.592   3.303
 1575TIP3    H1 4668   5.263   2.607   3.262
 1575TIP3    H2 4669   5.198   2.559   3.390
 1576TIP3   OH2 4670   6.012   0.625   4.020
 1576TIP3    H1 4671   5.977   0.590   3.938
 1576TIP3    H2 4672   5.937   0.629   4.079
 1577TIP3   OH2 4673   2.981   1.713   0.747
 1577TIP3    H1 4674   2.889   1.740   0.743
 1577TIP3    H2 4675   2.977   1.618   0.757
 1578TIP3   OH2 4676   4.456   5.924   4.097
 1578TIP3    H1 4677   4.409   5.978   4.160
 1578TIP3    H2 4678   4.431   5.959   4.012
 1579TIP3   OH2 4679   5.020   1.732   4.303
 1579TIP3    H1 4680   5.045   1.656   4.356
 1579TIP3    H2 4681   4.986   1.795   4.366
 1580TIP3   OH2 4682   6.586   3.392   6.445
 1580TIP3    H1 4683   6.586   3.375   6.540
 1580TIP3    H2 4684   6.530   3.323   6.409
 1581TIP3   OH2 4685   7.085   6.078   2.871
 1581TIP3    H1 4686   7.133   6.007   2.828
 1581TIP3    H2 4687   7.014   6.099   2.811
 1582TIP3   OH2 4688   2.112   3.158   6.123
 1582TIP3    H1 4689   2.176   3.218   6.087
 1582TIP3    H2 4690   2.029   3.182   6.081
 1583TIP3   OH2 4691   2.909   5.333   2.520
 1583TIP3    H1 4692   2.886   5.286   2.440
 1583TIP3    H2 4693   2.915   5.265   2.587
 1584TIP3   OH2 4694   5.472   3.410   6.270
 1584TIP3    H1 4695   5.428   3.441   6.349
 1584TIP3    H2 4696   5.440   3.467   6.201
 1585TIP3   OH2 4697   2.581   7.715   4.777
 1585TIP3    H1 4698   2.601   7.670   4.695
 1585TIP3    H2 4699   2.612   7.656   4.845
 1586TIP3   OH2 4700   5.775   5.084   3.738
 1586TIP3    H1 4701   5.821   5.009   3.774
 1586TIP3    H2 4702   5.747   5.135   3.814
 1587TIP3   OH2 4703   8.253   2.796   6.404
 1587TIP3    H1 4704   8.263   2.705   6.432
 1587TIP3    H2 4705   8.322   2.811   6.341
 1588TIP3   OH2 4706   1.331   1.082   5.163
 1588TIP3    H1 4707   1.422   1.053   5.156
 1588TIP3    H2 4708   1.330   1.169   5.123
 1589TIP3   OH2 4709   7.566   7.574   5.607
 1589TIP3    H1 4710   7.534   7.659   5.576
 1589TIP3    H2 4711   7.604   7.533   5.530
 1590TIP3   OH2 4712   0.096   0.168   5.619
 1590TIP3    H1 4713   0.050   0.148   5.537
 1590TIP3    H2 4714   0.054   0.248   5.651
 1591TIP3   OH2 4715   7.963   7.655   1.869
 1591TIP3    H1 4716   8.023   7.599   1.819
 1591TIP3    H2 4717   7.938   7.724   1.807
 1592TIP3   OH2 4718   7.179   6.181   3.426
 1592TIP3    H1 4719   7.175   6.173   3.331
 1592TIP3    H2 4720   7.178   6.276   3.442
 1593TIP3   OH2 4721   2.775   3.091   5.520
 1593TIP3    H1 4722   2.706   3.047   5.470
 1593TIP3    H2 4723   2.835   3.021   5.546
 1594TIP3   OH2 4724   0.100   6.674   2.206
 1594TIP3    H1 4725   0.010   6.702   2.218
 1594TIP3    H2 4726   0.094   6.591   2.159
 1595TIP3   OH2 4727   2.386   0.890   3.086
 1595TIP3    H1 4728   2.365   0.894   3.180
 1595TIP3    H2 4729   2.335   0.816   3.053
 1596TIP3   OH2 4730   4.426   0.300   1.327
 1596TIP3    H1 4731   4.499   0.259   1.374
 1596TIP3    H2 4732   4.369   0.227   1.302
 1597TIP3   OH2 4733   3.815   7.102   1.071
 1597TIP3    H1 4734   3.833   7.131   0.981
 1597TIP3    H2 4735   3.835   7.009   1.070
 1598TIP3   OH2 4736   7.634   1.435   5.292
 1598TIP3    H1 4737   7.709   1.494   5.286
 1598TIP3    H2 4738   7.639   1.398   5.381
 1599TIP3   OH2 4739   1.307   1.156   3.994
 1599TIP3    H1 4740   1.357   1.081   3.961
 1599TIP3    H2 4741   1.219   1.121   4.008
 1600TIP3   OH2 4742   2.597   2.548   6.746
 1600TIP3    H1 4743   2.525   2.550   6.808
 1600TIP3    H2 4744   2.558   2.516   6.665
 1601TIP3   OH2 4745   3.140   2.135   2.859
 1601TIP3    H1 4746   3.147   2.149   2.765
 1601TIP3    H2 4747   3.227   2.156   2.894
 1602TIP3   OH2 4748   2.948   7.393   6.627
 1602TIP3    H1 4749   2.899   7.462   6.582
 1602TIP3    H2 4750   2.889   7.365   6.697
 1603TIP3   OH2 4751   1.623   7.180   1.089
 1603TIP3    H1 4752   1.633   7.092   1.051
 1603TIP3    H2 4753   1.583   7.165   1.174
 1604TIP3   OH2 4754   6.686   2.410   5.546
 1604TIP3    H1 4755   6.666   2.389   5.455
 1604TIP3    H2 4756   6.614   2.372   5.597
 1605TIP3   OH2 4757   4.371   3.398   5.401
 1605TIP3    H1 4758   4.377   3.413   5.307
 1605TIP3    H2 4759   4.324   3.474   5.435
 1606TIP3   OH2 4760   5.293   5.449   0.374
 1606TIP3    H1 4761   5.373   5.501   0.382
 1606TIP3    H2 4762   5.315   5.364   0.412
 1607TIP3   OH2 4763   3.866   4.672   0.086
 1607TIP3    H1 4764   3.796   4.619   0.048
 1607TIP3    H2 4765   3.927   4.608   0.123
 1608TIP3   OH2 4766   6.759   6.032   5.581
 1608TIP3    H1 4767   6.811   6.074   5.650
 1608TIP3    H2 4768   6.669   6.033   5.615
 1609TIP3   OH2 4769   0.169   0.610   5.809
 1609TIP3    H1 4770   0.198   0.593   5.899
 1609TIP3    H2 4771   0.182   0.704   5.798
 1610TIP3   OH2 4772   0.104   6.994   1.207
 1610TIP3    H1 4773   0.132   7.082   1.230
 1610TIP3    H2 4774   0.178   6.937   1.231
 1611TIP3   OH2 4775   6.860   4.114   5.424
 1611TIP3    H1 4776   6.879   4.205   5.447
 1611TIP3    H2 4777   6.921   4.063   5.478
 1612TIP3   OH2 4778   1.666   1.611   1.450
 1612TIP3    H1 4779   1.580   1.650   1.465
 1612TIP3    H2 4780   1.728   1.676   1.484
 1613TIP3   OH2 4781   1.256   3.978   4.578
 1613TIP3    H1 4782   1.195   4.021   4.517
 1613TIP3    H2 4783   1.241   3.885   4.564
 1614TIP3   OH2 4784   5.987   1.095   5.391
 1614TIP3    H1 4785   6.028   1.171   5.349
 1614TIP3    H2 4786   6.052   1.025   5.381
 1615TIP3   OH2 4787   5.543   1.547   1.711
 1615TIP3    H1 4788   5.600   1.623   1.725
 1615TIP3    H2 4789   5.531   1.543   1.616
 1616TIP3   OH2 4790   5.376   6.181   5.453
 1616TIP3    H1 4791   5.367   6.138   5.538
 1616TIP3    H2 4792   5.287   6.193   5.423
 1617TIP3   OH2 4793   3.138   7.743   5.611
 1617TIP3    H1 4794   3.075   7.776   5.548
 1617TIP3    H2 4795   3.210   7.806   5.608
 1618TIP3   OH2 4796   1.752   2.178   6.160
 1618TIP3    H1 4797   1.668   2.199   6.201
 1618TIP3    H2 4798   1.797   2.262   6.152
 1619TIP3   OH2 4799   3.812   2.408   2.597
 1619TIP3    H1 4800   3.755   2.351   2.545
 1619TIP3    H2 4801   3.792   2.386   2.688
 1620TIP3   OH2 4802   1.516   1.008   1.939
 1620TIP3    H1 4803   1.547   1.091   1.975
 1620TIP3    H2 4804   1.536   0.944   2.006
 1621TIP3   OH2 4805   3.940   2.121   1.280
 1621TIP3    H1 4806   3.867   2.179   1.256
 1621TIP3    H2 4807   3.898   2.043   1.315
 1622TIP3   OH2 4808   7.347   7.248   0.277
 1622TIP3    H1 4809   7.440   7.267   0.293
 1622TIP3    H2 4810   7.347   7.193   0.198
 1623TIP3   OH2 4811   0.718   2.970   3.620
 1623TIP3    H1 4812   0.759   3.056   3.627
 1623TIP3    H2 4813   0.747   2.936   3.536
 1624TIP3   OH2 4814   6.956   5.879   6.033
 1624TIP3    H1 4815   6.924   5.889   6.123
 1624TIP3    H2 4816   6.925   5.793   6.006
 1625TIP3   OH2 4817   2.341   4.756   0.575
 1625TIP3    H1 4818   2.274   4.694   0.546
 1625TIP3    H2 4819   2.421   4.727   0.532
 1626TIP3   OH2 4820   7.737   2.281   5.606
 1626TIP3    H1 4821   7.679   2.263   5.680
 1626TIP3    H2 4822   7.823   2.252   5.637
 1627TIP3   OH2 4823   3.784   7.400   3.613
 1627TIP3    H1 4824   3.797   7.312   3.649
 1627TIP3    H2 4825   3.689   7.408   3.603
 1628TIP3   OH2 4826   7.148   2.144   6.524
 1628TIP3    H1 4827   7.149   2.049   6.538
 1628TIP3    H2 4828   7.240   2.167   6.514
 1629TIP3   OH2 4829   6.215   1.975   4.124
 1629TIP3    H1 4830   6.309   1.965   4.140
 1629TIP3    H2 4831   6.178   1.992   4.211
 1630TIP3   OH2 4832   7.037   2.946   6.469
 1630TIP3    H1 4833   7.062   2.951   6.562
 1630TIP3    H2 4834   7.111   2.902   6.427
 1631TIP3   OH2 4835   0.567   0.717   3.327
 1631TIP3    H1 4836   0.609   0.659   3.265
 1631TIP3    H2 4837   0.487   0.671   3.353
 1632TIP3   OH2 4838   3.663   4.426   5.496
 1632TIP3    H1 4839   3.647   4.468   5.412
 1632TIP3    H2 4840   3.757   4.438   5.512
 1633TIP3   OH2 4841   5.095   2.907   1.993
 1633TIP3    H1 4842   5.039   2.933   1.920
 1633TIP3    H2 4843   5.038   2.855   2.050
 1634TIP3   OH2 4844   7.957   4.507   3.991
 1634TIP3    H1 4845   7.898   4.492   4.065
 1634TIP3    H2 4846   7.912   4.467   3.917
 1635TIP3   OH2 4847   1.351   0.622   1.514
 1635TIP3    H1 4848   1.394   0.651   1.433
 1635TIP3    H2 4849   1.333   0.703   1.561
 1636TIP3   OH2 4850   6.515   3.939   2.561
 1636TIP3    H1 4851   6.599   3.940   2.516
 1636TIP3    H2 4852   6.503   4.029   2.591
 1637TIP3   OH2 4853   6.884   4.808   2.190
 1637TIP3    H1 4854   6.800   4.777   2.223
 1637TIP3    H2 4855   6.930   4.728   2.164
 1638TIP3   OH2 4856   8.063   3.672   5.298
 1638TIP3    H1 4857   7.979   3.715   5.317
 1638TIP3    H2 4858   8.060   3.655   5.204
 1639TIP3   OH2 4859   5.639   0.593   1.050
 1639TIP3    H1 4860   5.639   0.652   0.975
 1639TIP3    H2 4861   5.685   0.641   1.119
 1640TIP3   OH2 4862   2.226   3.860   2.419
 1640TIP3    H1 4863   2.143   3.892   2.456
 1640TIP3    H2 4864   2.250   3.926   2.354
 1641TIP3   OH2 4865   0.487   7.473  -0.076
 1641TIP3    H1 4866   0.565   7.504  -0.030
 1641TIP3    H2 4867   0.509   7.384  -0.103
 1642TIP3   OH2 4868   8.144   0.815   1.559
 1642TIP3    H1 4869   8.090   0.886   1.593
 1642TIP3    H2 4870   8.143   0.749   1.628
 1643TIP3   OH2 4871   7.378   2.524   6.677
 1643TIP3    H1 4872   7.324   2.566   6.609
 1643TIP3    H2 4873   7.316   2.468   6.724
 1644TIP3   OH2 4874   0.098   1.390   2.378
 1644TIP3    H1 4875   0.044   1.329   2.329
 1644TIP3    H2 4876   0.151   1.434   2.311
 1645TIP3   OH2 4877   3.045   4.448   4.735
 1645TIP3    H1 4878   3.099   4.412   4.665
 1645TIP3    H2 4879   3.035   4.375   4.797
 1646TIP3   OH2 4880   6.840   3.453   4.568
 1646TIP3    H1 4881   6.810   3.511   4.498
 1646TIP3    H2 4882   6.814   3.497   4.649
 1647TIP3   OH2 4883   5.823   2.295   3.230
 1647TIP3    H1 4884   5.846   2.220   3.175
 1647TIP3    H2 4885   5.730   2.283   3.250
 1648TIP3   OH2 4886   6.631   0.753   6.083
 1648TIP3    H1 4887   6.642   0.795   6.168
 1648TIP3    H2 4888   6.716   0.713   6.066
 1649TIP3   OH2 4889   1.875   7.406   2.776
 1649TIP3    H1 4890   1.900   7.346   2.846
 1649TIP3    H2 4891   1.812   7.357   2.724
 1650TIP3   OH2 4892   1.663   6.686   2.442
 1650TIP3    H1 4893   1.741   6.679   2.497
 1650TIP3    H2 4894   1.596   6.635   2.488
 1651TIP3   OH2 4895   1.816   4.593   6.037
 1651TIP3    H1 4896   1.853   4.617   6.122
 1651TIP3    H2 4897   1.871   4.520   6.007
 1652TIP3   OH2 4898   1.078   6.338   5.373
 1652TIP3    H1 4899   1.068   6.352   5.468
 1652TIP3    H2 4900   1.142   6.403   5.346
 1653TIP3   OH2 4901   0.558   5.888   5.416
 1653TIP3    H1 4902   0.525   5.910   5.503
 1653TIP3    H2 4903   0.487   5.911   5.356
 1654TIP3   OH2 4904   0.748   2.679   4.685
 1654TIP3    H1 4905   0.812   2.614   4.654
 1654TIP3    H2 4906   0.734   2.655   4.777
 1655TIP3   OH2 4907   6.158   2.915   0.848
 1655TIP3    H1 4908   6.090   2.886   0.909
 1655TIP3    H2 4909   6.236   2.928   0.904
 1656TIP3   OH2 4910   1.973   1.471   3.006
 1656TIP3    H1 4911   2.033   1.492   2.934
 1656TIP3    H2 4912   1.934   1.387   2.981
 1657TIP3   OH2 4913   7.894   3.912   1.904
 1657TIP3    H1 4914   7.860   3.990   1.860
 1657TIP3    H2 4915   7.870   3.839   1.846
 1658TIP3   OH2 4916   0.779   4.453   1.832
 1658TIP3    H1 4917   0.781   4.364   1.867
 1658TIP3    H2 4918   0.686   4.473   1.822
 1659TIP3   OH2 4919   5.428   2.940   6.046
 1659TIP3    H1 4920   5.334   2.954   6.036
 1659TIP3    H2 4921   5.468   3.019   6.008
 1660TIP3   OH2 4922   0.218   6.642   3.000
 1660TIP3    H1 4923   0.202   6.547   2.996
 1660TIP3    H2 4924   0.295   6.655   2.946
 1661TIP3   OH2 4925   0.904   4.878   0.882
 1661TIP3    H1 4926   0.810   4.870   0.866
 1661TIP3    H2 4927   0.941   4.906   0.798
 1662TIP3   OH2 4928   0.912   7.544   3.206
 1662TIP3    H1 4929   0.965   7.611   3.164
 1662TIP3    H2 4930   0.823   7.561   3.175
 1663TIP3   OH2 4931   4.995   0.890   2.221
 1663TIP3    H1 4932   5.058   0.869   2.152
 1663TIP3    H2 4933   4.916   0.841   2.197
 1664TIP3   OH2 4934   2.909   7.712   3.325
 1664TIP3    H1 4935   2.944   7.625   3.344
 1664TIP3    H2 4936   2.946   7.769   3.393
 1665TIP3   OH2 4937   3.068   6.134   6.067
 1665TIP3    H1 4938   3.068   6.120   5.972
 1665TIP3    H2 4939   3.039   6.224   6.078
 1666TIP3   OH2 4940   3.304   2.700   3.940
 1666TIP3    H1 4941   3.376   2.764   3.940
 1666TIP3    H2 4942   3.303   2.664   3.852
 1667TIP3   OH2 4943   2.236   4.327   1.759
 1667TIP3    H1 4944   2.143   4.338   1.737
 1667TIP3    H2 4945   2.265   4.255   1.703
 1668TIP3   OH2 4946   2.397   2.382   5.465
 1668TIP3    H1 4947   2.478   2.394   5.515
 1668TIP3    H2 4948   2.397   2.289   5.442
 1669TIP3   OH2 4949   8.160   3.255   4.436
 1669TIP3    H1 4950   8.194   3.182   4.385
 1669TIP3    H2 4951   8.232   3.281   4.494
 1670TIP3   OH2 4952   1.111   2.206   1.936
 1670TIP3    H1 4953   1.045   2.180   1.871
 1670TIP3    H2 4954   1.086   2.158   2.015
 1671TIP3   OH2 4955   2.015   3.263   3.681
 1671TIP3    H1 4956   2.067   3.182   3.683
 1671TIP3    H2 4957   1.956   3.256   3.756
 1672TIP3   OH2 4958   1.301   1.220   3.139
 1672TIP3    H1 4959   1.206   1.226   3.138
 1672TIP3    H2 4960   1.330   1.307   3.167
 1673TIP3   OH2 4961   6.919   4.542   1.811
 1673TIP3    H1 4962   6.937   4.528   1.904
 1673TIP3    H2 4963   6.980   4.483   1.766
 1674TIP3   OH2 4964   1.138   7.799   0.055
 1674TIP3    H1 4965   1.099   7.727   0.005
 1674TIP3    H2 4966   1.229   7.773   0.067
 1675TIP3   OH2 4967   4.708   6.676   3.702
 1675TIP3    H1 4968   4.787   6.691   3.755
 1675TIP3    H2 4969   4.741   6.661   3.614
 1676TIP3   OH2 4970   6.659   6.054   2.569
 1676TIP3    H1 4971   6.600   6.005   2.512
 1676TIP3    H2 4972   6.603   6.087   2.639
 1677TIP3   OH2 4973   5.828   3.839   5.528
 1677TIP3    H1 4974   5.753   3.823   5.472
 1677TIP3    H2 4975   5.846   3.933   5.517
 1678TIP3   OH2 4976   2.600   0.513   2.562
 1678TIP3    H1 4977   2.572   0.581   2.501
 1678TIP3    H2 4978   2.670   0.554   2.613
 1679TIP3   OH2 4979   1.748   6.164   5.892
 1679TIP3    H1 4980   1.838   6.173   5.860
 1679TIP3    H2 4981   1.694   6.208   5.826
 1680TIP3   OH2 4982   7.707   1.603   3.978
 1680TIP3    H1 4983   7.652   1.648   4.043
 1680TIP3    H2 4984   7.648   1.541   3.936
 1681TIP3   OH2 4985   5.696   0.650   0.360
 1681TIP3    H1 4986   5.776   0.600   0.374
 1681TIP3    H2 4987   5.726   0.737   0.335
 1682TIP3   OH2 4988   5.234   3.692   5.580
 1682TIP3    H1 4989   5.175   3.658   5.512
 1682TIP3    H2 4990   5.201   3.780   5.599
 1683TIP3   OH2 4991   7.904   1.473   0.775
 1683TIP3    H1 4992   7.906   1.474   0.871
 1683TIP3    H2 4993   7.892   1.381   0.752
 1684TIP3   OH2 4994   1.629   6.603   6.340
 1684TIP3    H1 4995   1.674   6.519   6.328
 1684TIP3    H2 4996   1.682   6.666   6.291
 1685TIP3   OH2 4997   5.440   4.370   6.404
 1685TIP3    H1 4998   5.500   4.441   6.382
 1685TIP3    H2 4999   5.439   4.369   6.500
 1686TIP3   OH2 5000   0.273   0.247   2.995
 1686TIP3    H1 5001   0.261   0.197   2.914
 1686TIP3    H2 5002   0.189   0.290   3.009
 1687TIP3   OH2 5003   3.456   6.452   0.622
 1687TIP3    H1 5004   3.408   6.512   0.564
 1687TIP3    H2 5005   3.427   6.476   0.710
 1688TIP3   OH2 5006   0.693   4.148   0.973
 1688TIP3    H1 5007   0.727   4.183   0.891
 1688TIP3    H2 5008   0.750   4.074   0.993
 1689TIP3   OH2 5009   4.255   4.969   0.740
 1689TIP3    H1 5010   4.221   4.951   0.653
 1689TIP3    H2 5011   4.239   5.063   0.753
 1690TIP3   OH2 5012   4.001   1.702   0.428
 1690TIP3    H1 5013   4.085   1.660   0.448
 1690TIP3    H2 5014   3.939   1.662   0.489
 1691TIP3   OH2 5015   7.838   3.157   0.047
 1691TIP3    H1 5016   7.827   3.136  -0.046
 1691TIP3    H2 5017   7.924   3.197   0.053
 1692TIP3   OH2 5018   7.524   2.914   1.998
 1692TIP3    H1 5019   7.451   2.906   1.936
 1692TIP3    H2 5020   7.557   3.002   1.985
 1693TIP3   OH2 5021   4.999   0.510   3.975
 1693TIP3    H1 5022   5.059   0.454   3.927
 1693TIP3    H2 5023   5.030   0.506   4.065
 1694TIP3   OH2 5024   1.280   7.798   5.255
 1694TIP3    H1 5025   1.280   7.822   5.162
 1694TIP3    H2 5026   1.322   7.872   5.298
 1695TIP3   OH2 5027   6.347   4.344   0.142
 1695TIP3    H1 5028   6.404   4.268   0.151
 1695TIP3    H2 5029   6.348   4.364   0.049
 1696TIP3   OH2 5030   0.307   0.874   0.426
 1696TIP3    H1 5031   0.309   0.902   0.334
 1696TIP3    H2 5032   0.389   0.907   0.462
 1697TIP3   OH2 5033   2.314   3.631   6.790
 1697TIP3    H1 5034   2.235   3.683   6.775
 1697TIP3    H2 5035   2.385   3.696   6.796
 1698TIP3   OH2 5036   1.419   3.427   2.183
 1698TIP3    H1 5037   1.400   3.382   2.265
 1698TIP3    H2 5038   1.445   3.357   2.122
 1699TIP3   OH2 5039   0.023   0.454   1.509
 1699TIP3    H1 5040   0.068   0.485   1.588
 1699TIP3    H2 5041  -0.065   0.430   1.540
 1700TIP3   OH2 5042   3.204   2.221   6.693
 1700TIP3    H1 5043   3.240   2.299   6.649
 1700TIP3    H2 5044   3.279   2.163   6.703
 1701TIP3   OH2 5045   2.722   0.389   3.897
 1701TIP3    H1 5046   2.756   0.444   3.968
 1701TIP3    H2 5047   2.642   0.435   3.869
 1702TIP3   OH2 5048   5.344   2.174   3.956
 1702TIP3    H1 5049   5.309   2.245   4.010
 1702TIP3    H2 5050   5.350   2.212   3.868
 1703TIP3   OH2 5051   5.492   3.841   5.417
 1703TIP3    H1 5052   5.487   3.851   5.512
 1703TIP3    H2 5053   5.547   3.914   5.389
 1704TIP3   OH2 5054   7.567   0.264   3.568
 1704TIP3    H1 5055   7.496   0.235   3.624
 1704TIP3    H2 5056   7.626   0.188   3.562
 1705TIP3   OH2 5057   1.324   5.734   2.943
 1705TIP3    H1 5058   1.408   5.692   2.963
 1705TIP3    H2 5059   1.269   5.662   2.911
 1706TIP3   OH2 5060   2.080   5.044   6.039
 1706TIP3    H1 5061   2.001   5.017   5.992
 1706TIP3    H2 5062   2.047   5.082   6.120
 1707TIP3   OH2 5063   2.562   7.315   3.529
 1707TIP3    H1 5064   2.524   7.366   3.458
 1707TIP3    H2 5065   2.513   7.233   3.529
 1708TIP3   OH2 5066   7.228   2.002   5.773
 1708TIP3    H1 5067   7.224   1.908   5.755
 1708TIP3    H2 5068   7.257   2.008   5.864
 1709TIP3   OH2 5069   8.262   2.019   2.260
 1709TIP3    H1 5070   8.197   2.078   2.299
 1709TIP3    H2 5071   8.324   2.002   2.330
 1710TIP3   OH2 5072   6.999   6.641   3.183
 1710TIP3    H1 5073   6.916   6.657   3.138
 1710TIP3    H2 5074   6.989   6.685   3.267
 1711TIP3   OH2 5075   1.755   0.468   1.630
 1711TIP3    H1 5076   1.724   0.378   1.642
 1711TIP3    H2 5077   1.692   0.521   1.679
 1712TIP3   OH2 5078   2.444   2.222   2.272
 1712TIP3    H1 5079   2.418   2.162   2.202
 1712TIP3    H2 5080   2.496   2.167   2.331
 1713TIP3   OH2 5081   6.264   3.451   2.205
 1713TIP3    H1 5082   6.216   3.370   2.186
 1713TIP3    H2 5083   6.257   3.502   2.124
 1714TIP3   OH2 5084   2.167   4.487   3.683
 1714TIP3    H1 5085   2.228   4.416   3.704
 1714TIP3    H2 5086   2.213   4.540   3.619
 1715TIP3   OH2 5087   4.506   3.203   1.632
 1715TIP3    H1 5088   4.550   3.162   1.558
 1715TIP3    H2 5089   4.475   3.130   1.686
 1716TIP3   OH2 5090   4.356   6.703   1.397
 1716TIP3    H1 5091   4.422   6.724   1.330
 1716TIP3    H2 5092   4.281   6.757   1.374
 1717TIP3   OH2 5093   0.448   1.149   2.940
 1717TIP3    H1 5094   0.480   1.210   3.006
 1717TIP3    H2 5095   0.486   1.064   2.963
 1718TIP3   OH2 5096   6.794   0.868   2.875
 1718TIP3    H1 5097   6.800   0.834   2.964
 1718TIP3    H2 5098   6.850   0.946   2.875
 1719TIP3   OH2 5099   3.346   1.086   1.509
 1719TIP3    H1 5100   3.408   1.148   1.549
 1719TIP3    H2 5101   3.270   1.139   1.487
 1720TIP3   OH2 5102   7.253   1.991   1.060
 1720TIP3    H1 5103   7.337   2.015   1.100
 1720TIP3    H2 5104   7.214   1.928   1.122
 1721TIP3   OH2 5105   6.394   1.196   5.439
 1721TIP3    H1 5106   6.403   1.292   5.440
 1721TIP3    H2 5107   6.443   1.169   5.361
 1722TIP3   OH2 5108   7.938   6.343   2.078
 1722TIP3    H1 5109   7.863   6.356   2.135
 1722TIP3    H2 5110   7.939   6.250   2.059
 1723TIP3   OH2 5111   5.949   3.601   5.335
 1723TIP3    H1 5112   5.987   3.581   5.421
 1723TIP3    H2 5113   5.959   3.695   5.325
 1724TIP3   OH2 5114   7.539   4.022   4.263
 1724TIP3    H1 5115   7.538   4.092   4.328
 1724TIP3    H2 5116   7.487   3.952   4.303
 1725TIP3   OH2 5117   0.688   6.998   3.825
 1725TIP3    H1 5118   0.648   7.011   3.911
 1725TIP3    H2 5119   0.775   7.035   3.832
 1726TIP3   OH2 5120   5.266   2.376   5.412
 1726TIP3    H1 5121   5.209   2.453   5.405
 1726TIP3    H2 5122   5.232   2.328   5.487
 1727TIP3   OH2 5123   5.288   2.202   2.221
 1727TIP3    H1 5124   5.276   2.180   2.129
 1727TIP3    H2 5125   5.311   2.295   2.221
 1728TIP3   OH2 5126   5.884   2.786   2.402
 1728TIP3    H1 5127   5.901   2.875   2.433
 1728TIP3    H2 5128   5.865   2.736   2.481
 1729TIP3   OH2 5129   0.930   5.298   1.794
 1729TIP3    H1 5130   1.013   5.338   1.767
 1729TIP3    H2 5131   0.891   5.267   1.712
 1730TIP3   OH2 5132   3.339   0.073   3.505
 1730TIP3    H1 5133   3.395   0.041   3.434
 1730TIP3    H2 5134   3.284   0.140   3.465
 1731TIP3   OH2 5135   1.761   6.340   2.535
 1731TIP3    H1 5136   1.792   6.428   2.561
 1731TIP3    H2 5137   1.694   6.319   2.600
 1732TIP3   OH2 5138   7.339   6.219   2.647
 1732TIP3    H1 5139   7.310   6.234   2.557
 1732TIP3    H2 5140   7.259   6.204   2.696
 1733TIP3   OH2 5141   3.767   0.357   3.264
 1733TIP3    H1 5142   3.675   0.357   3.236
 1733TIP3    H2 5143   3.763   0.356   3.360
 1734TIP3   OH2 5144   1.386   3.122   4.937
 1734TIP3    H1 5145   1.335   3.062   4.992
 1734TIP3    H2 5146   1.327   3.196   4.923
 1735TIP3   OH2 5147   8.001   1.896   2.475
 1735TIP3    H1 5148   8.037   1.969   2.526
 1735TIP3    H2 5149   7.928   1.864   2.528
 1736TIP3   OH2 5150   6.961   6.569   2.385
 1736TIP3    H1 5151   6.931   6.583   2.295
 1736TIP3    H2 5152   6.995   6.654   2.413
 1737TIP3   OH2 5153   4.753   4.707   1.557
 1737TIP3    H1 5154   4.776   4.709   1.465
 1737TIP3    H2 5155   4.695   4.783   1.569
 1738TIP3   OH2 5156   7.169   0.820   4.183
 1738TIP3    H1 5157   7.262   0.815   4.160
 1738TIP3    H2 5158   7.123   0.802   4.101
 1739TIP3   OH2 5159   1.697   7.653   3.496
 1739TIP3    H1 5160   1.749   7.584   3.454
 1739TIP3    H2 5161   1.608   7.618   3.496
 1740TIP3   OH2 5162   1.679   3.985   3.480
 1740TIP3    H1 5163   1.587   3.958   3.483
 1740TIP3    H2 5164   1.675   4.077   3.455
 1741TIP3   OH2 5165   2.902   4.741   2.719
 1741TIP3    H1 5166   2.823   4.766   2.672
 1741TIP3    H2 5167   2.870   4.699   2.799
 1742TIP3   OH2 5168   5.691   4.084   0.045
 1742TIP3    H1 5169   5.757   4.074  -0.025
 1742TIP3    H2 5170   5.721   4.159   0.095
 1743TIP3   OH2 5171   5.436   4.422   3.251
 1743TIP3    H1 5172   5.448   4.513   3.276
 1743TIP3    H2 5173   5.514   4.400   3.200
 1744TIP3   OH2 5174   1.978   0.091   1.326
 1744TIP3    H1 5175   1.944   0.080   1.414
 1744TIP3    H2 5176   2.068   0.057   1.331
 1745TIP3   OH2 5177   5.616   7.205   2.048
 1745TIP3    H1 5178   5.583   7.219   2.137
 1745TIP3    H2 5179   5.573   7.273   1.996
 1746TIP3   OH2 5180   8.131   0.421   5.098
 1746TIP3    H1 5181   8.077   0.349   5.129
 1746TIP3    H2 5182   8.194   0.437   5.169
 1747TIP3   OH2 5183   2.293   0.468   3.064
 1747TIP3    H1 5184   2.341   0.479   3.146
 1747TIP3    H2 5185   2.203   0.449   3.091
 1748TIP3   OH2 5186   2.657   7.161   4.516
 1748TIP3    H1 5187   2.623   7.236   4.565
 1748TIP3    H2 5188   2.579   7.114   4.487
 1749TIP3   OH2 5189   4.977   2.729   2.161
 1749TIP3    H1 5190   4.966   2.642   2.122
 1749TIP3    H2 5191   4.952   2.718   2.253
 1750TIP3   OH2 5192   4.766   6.470   0.393
 1750TIP3    H1 5193   4.688   6.417   0.410
 1750TIP3    H2 5194   4.837   6.405   0.387
 1751TIP3   OH2 5195   2.838   4.572   5.958
 1751TIP3    H1 5196   2.846   4.483   5.924
 1751TIP3    H2 5197   2.805   4.622   5.883
 1752TIP3   OH2 5198   4.411   1.662   5.207
 1752TIP3    H1 5199   4.426   1.590   5.269
 1752TIP3    H2 5200   4.351   1.625   5.142
 1753TIP3   OH2 5201   3.141   6.593   2.526
 1753TIP3    H1 5202   3.053   6.558   2.511
 1753TIP3    H2 5203   3.198   6.516   2.530
 1754TIP3   OH2 5204   4.687   0.952   5.913
 1754TIP3    H1 5205   4.669   1.035   5.957
 1754TIP3    H2 5206   4.782   0.942   5.918
 1755TIP3   OH2 5207   8.331   7.520   2.249
 1755TIP3    H1 5208   8.330   7.429   2.220
 1755TIP3    H2 5209   8.244   7.553   2.225
 1756TIP3   OH2 5210   3.593   3.334   6.532
 1756TIP3    H1 5211   3.503   3.306   6.517
 1756TIP3    H2 5212   3.638   3.317   6.449
 1757TIP3   OH2 5213   3.972   1.384   6.226
 1757TIP3    H1 5214   3.908   1.376   6.155
 1757TIP3    H2 5215   4.057   1.372   6.184
 1758TIP3   OH2 5216   1.069   6.611   3.657
 1758TIP3    H1 5217   1.124   6.648   3.727
 1758TIP3    H2 5218   0.999   6.675   3.645
 1759TIP3   OH2 5219   2.626   5.628   1.115
 1759TIP3    H1 5220   2.637   5.686   1.190
 1759TIP3    H2 5221   2.713   5.589   1.102
 1760TIP3   OH2 5222   1.918   1.003   2.164
 1760TIP3    H1 5223   1.893   0.945   2.236
 1760TIP3    H2 5224   2.007   0.974   2.141
 1761TIP3   OH2 5225   5.847   2.485   6.138
 1761TIP3    H1 5226   5.764   2.473   6.092
 1761TIP3    H2 5227   5.830   2.557   6.199
 1762TIP3   OH2 5228   2.256   6.444   1.846
 1762TIP3    H1 5229   2.175   6.475   1.886
 1762TIP3    H2 5230   2.297   6.523   1.811
 1763TIP3   OH2 5231   5.811   5.535   2.045
 1763TIP3    H1 5232   5.744   5.477   2.079
 1763TIP3    H2 5233   5.851   5.575   2.123
 1764TIP3   OH2 5234   5.895   6.151   1.077
 1764TIP3    H1 5235   5.908   6.092   1.151
 1764TIP3    H2 5236   5.804   6.139   1.052
 1765TIP3   OH2 5237   0.798   1.476   4.588
 1765TIP3    H1 5238   0.858   1.539   4.627
 1765TIP3    H2 5239   0.841   1.448   4.507
 1766TIP3   OH2 5240   6.439   6.368   3.171
 1766TIP3    H1 5241   6.479   6.424   3.237
 1766TIP3    H2 5242   6.501   6.296   3.160
 1767TIP3   OH2 5243   6.008   0.408   3.306
 1767TIP3    H1 5244   6.031   0.458   3.228
 1767TIP3    H2 5245   5.978   0.323   3.273
 1768TIP3   OH2 5246   2.763   0.836   4.345
 1768TIP3    H1 5247   2.814   0.836   4.264
 1768TIP3    H2 5248   2.711   0.756   4.340
 1769TIP3   OH2 5249   0.032   6.393   6.222
 1769TIP3    H1 5250   0.070   6.478   6.246
 1769TIP3    H2 5251   0.103   6.330   6.237
 1770TIP3   OH2 5252   2.032   3.690   0.119
 1770TIP3    H1 5253   2.086   3.614   0.100
 1770TIP3    H2 5254   1.952   3.654   0.156
 1771TIP3   OH2 5255   2.876   3.830   5.113
 1771TIP3    H1 5256   2.943   3.767   5.088
 1771TIP3    H2 5257   2.846   3.801   5.199
 1772TIP3   OH2 5258   2.845   0.942   4.636
 1772TIP3    H1 5259   2.864   0.858   4.676
 1772TIP3    H2 5260   2.834   0.922   4.543
 1773TIP3   OH2 5261   6.196   0.215   1.065
 1773TIP3    H1 5262   6.140   0.283   1.101
 1773TIP3    H2 5263   6.137   0.141   1.049
 1774TIP3   OH2 5264   4.830   3.542   4.528
 1774TIP3    H1 5265   4.899   3.485   4.561
 1774TIP3    H2 5266   4.838   3.623   4.579
 1775TIP3   OH2 5267   0.861   0.249   2.859
 1775TIP3    H1 5268   0.836   0.209   2.942
 1775TIP3    H2 5269   0.799   0.214   2.795
 1776TIP3   OH2 5270   5.991   2.206   1.516
 1776TIP3    H1 5271   6.075   2.238   1.550
 1776TIP3    H2 5272   6.011   2.118   1.484
 1777TIP3   OH2 5273   2.984   0.707   4.736
 1777TIP3    H1 5274   3.036   0.754   4.801
 1777TIP3    H2 5275   3.039   0.705   4.658
 1778TIP3   OH2 5276   1.924   0.605   5.928
 1778TIP3    H1 5277   1.995   0.639   5.982
 1778TIP3    H2 5278   1.966   0.547   5.865
 1779TIP3   OH2 5279   2.126   7.185   1.488
 1779TIP3    H1 5280   2.135   7.272   1.527
 1779TIP3    H2 5281   2.114   7.126   1.563
 1780TIP3   OH2 5282   0.141   5.593   4.328
 1780TIP3    H1 5283   0.199   5.660   4.364
 1780TIP3    H2 5284   0.129   5.531   4.399
 1781TIP3   OH2 5285   1.649   3.468   5.905
 1781TIP3    H1 5286   1.724   3.489   5.850
 1781TIP3    H2 5287   1.637   3.545   5.960
 1782TIP3   OH2 5288   2.344   3.212  -0.034
 1782TIP3    H1 5289   2.287   3.272  -0.083
 1782TIP3    H2 5290   2.283   3.153   0.012
 1783TIP3   OH2 5291   7.852   5.971   3.673
 1783TIP3    H1 5292   7.915   5.930   3.613
 1783TIP3    H2 5293   7.790   5.902   3.695
 1784TIP3   OH2 5294   4.163   2.928   4.018
 1784TIP3    H1 5295   4.224   2.939   4.091
 1784TIP3    H2 5296   4.207   2.970   3.943
 1785TIP3   OH2 5297   5.713   3.651   3.242
 1785TIP3    H1 5298   5.774   3.597   3.192
 1785TIP3    H2 5299   5.680   3.593   3.311
 1786TIP3   OH2 5300   3.895   0.837   2.254
 1786TIP3    H1 5301   3.920   0.865   2.342
 1786TIP3    H2 5302   3.977   0.842   2.204
 1787TIP3   OH2 5303   5.148   0.219   2.335
 1787TIP3    H1 5304   5.067   0.259   2.367
 1787TIP3    H2 5305   5.212   0.237   2.404
 1788TIP3   OH2 5306   0.640   3.264   2.338
 1788TIP3    H1 5307   0.568   3.299   2.285
 1788TIP3    H2 5308   0.616   3.173   2.354
 1789TIP3   OH2 5309   1.445   6.885   1.254
 1789TIP3    H1 5310   1.537   6.877   1.281
 1789TIP3    H2 5311   1.438   6.831   1.176
 1790TIP3   OH2 5312   4.235   2.707   3.310
 1790TIP3    H1 5313   4.252   2.613   3.316
 1790TIP3    H2 5314   4.142   2.715   3.335
 1791TIP3   OH2 5315   5.062   2.943   5.419
 1791TIP3    H1 5316   5.157   2.931   5.414
 1791TIP3    H2 5317   5.048   3.035   5.397
 1792TIP3   OH2 5318   3.523   7.716   4.622
 1792TIP3    H1 5319   3.540   7.758   4.706
 1792TIP3    H2 5320   3.448   7.765   4.586
 1793TIP3   OH2 5321   1.067   2.931   1.524
 1793TIP3    H1 5322   1.107   3.015   1.550
 1793TIP3    H2 5323   1.129   2.894   1.461
 1794TIP3   OH2 5324   3.070   2.069   4.415
 1794TIP3    H1 5325   2.979   2.083   4.390
 1794TIP3    H2 5326   3.079   1.974   4.419
 1795TIP3   OH2 5327   5.123   3.529   5.374
 1795TIP3    H1 5328   5.037   3.570   5.385
 1795TIP3    H2 5329   5.109   3.437   5.399
 1796TIP3   OH2 5330   1.093   5.658   5.565
 1796TIP3    H1 5331   1.051   5.629   5.484
 1796TIP3    H2 5332   1.046   5.739   5.588
 1797TIP3   OH2 5333   5.122   5.839   1.614
 1797TIP3    H1 5334   5.125   5.787   1.533
 1797TIP3    H2 5335   5.149   5.778   1.683
 1798TIP3   OH2 5336   0.047   4.854   5.369
 1798TIP3    H1 5337   0.022   4.808   5.289
 1798TIP3    H2 5338   0.091   4.787   5.422
 1799TIP3   OH2 5339   1.267   6.297   6.359
 1799TIP3    H1 5340   1.334   6.323   6.296
 1799TIP3    H2 5341   1.289   6.207   6.382
 1800TIP3   OH2 5342   6.385   0.463   6.327
 1800TIP3    H1 5343   6.334   0.516   6.388
 1800TIP3    H2 5344   6.409   0.523   6.256
 1801TIP3   OH2 5345   0.915   5.886   2.117
 1801TIP3    H1 5346   0.935   5.956   2.179
 1801TIP3    H2 5347   0.909   5.807   2.171
 1802TIP3   OH2 5348   2.962   2.441   1.150
 1802TIP3    H1 5349   3.026   2.509   1.132
 1802TIP3    H2 5350   2.891   2.485   1.196
 1803TIP3   OH2 5351   5.053   2.311   6.698
 1803TIP3    H1 5352   4.999   2.245   6.654
 1803TIP3    H2 5353   5.134   2.265   6.721
 1804TIP3   OH2 5354   4.256   5.205   3.643
 1804TIP3    H1 5355   4.265   5.276   3.706
 1804TIP3    H2 5356   4.320   5.140   3.671
 1805TIP3   OH2 5357   3.328   3.760   2.171
 1805TIP3    H1 5358   3.303   3.822   2.102
 1805TIP3    H2 5359   3.260   3.770   2.238
 1806TIP3   OH2 5360   7.013   6.204   0.989
 1806TIP3    H1 5361   6.954   6.191   1.062
 1806TIP3    H2 5362   7.091   6.153   1.011
 1807TIP3   OH2 5363   6.120   4.194   0.297
 1807TIP3    H1 5364   6.125   4.113   0.246
 1807TIP3    H2 5365   6.184   4.252   0.257
 1808TIP3   OH2 5366   3.425   1.301   3.200
 1808TIP3    H1 5367   3.343   1.290   3.152
 1808TIP3    H2 5368   3.491   1.313   3.132
 1809TIP3   OH2 5369   2.751   5.594   2.308
 1809TIP3    H1 5370   2.763   5.593   2.213
 1809TIP3    H2 5371   2.677   5.536   2.325
 1810TIP3   OH2 5372   7.436   1.463   5.109
 1810TIP3    H1 5373   7.480   1.537   5.069
 1810TIP3    H2 5374   7.487   1.444   5.188
 1811TIP3   OH2 5375   6.774   1.853   1.670
 1811TIP3    H1 5376   6.809   1.912   1.603
 1811TIP3    H2 5377   6.684   1.881   1.682
 1812TIP3   OH2 5378   3.642   1.715   4.482
 1812TIP3    H1 5379   3.709   1.781   4.496
 1812TIP3    H2 5380   3.624   1.719   4.388
 1813TIP3   OH2 5381   4.845   4.153   2.727
 1813TIP3    H1 5382   4.791   4.101   2.667
 1813TIP3    H2 5383   4.907   4.091   2.765
 1814TIP3   OH2 5384   5.410   5.065   4.316
 1814TIP3    H1 5385   5.401   5.044   4.224
 1814TIP3    H2 5386   5.494   5.110   4.323
 1815TIP3   OH2 5387   1.717   5.981   6.424
 1815TIP3    H1 5388   1.664   5.996   6.346
 1815TIP3    H2 5389   1.796   5.938   6.391
 1816TIP3   OH2 5390   7.452   0.429   0.746
 1816TIP3    H1 5391   7.375   0.481   0.723
 1816TIP3    H2 5392   7.525   0.474   0.703
 1817TIP3   OH2 5393   2.755   6.781   3.369
 1817TIP3    H1 5394   2.849   6.780   3.383
 1817TIP3    H2 5395   2.742   6.742   3.283
 1818TIP3   OH2 5396   5.341   2.382   5.101
 1818TIP3    H1 5397   5.369   2.463   5.058
 1818TIP3    H2 5398   5.315   2.408   5.189
 1819TIP3   OH2 5399   7.572   1.248   4.623
 1819TIP3    H1 5400   7.604   1.234   4.534
 1819TIP3    H2 5401   7.650   1.269   4.674
 1820TIP3   OH2 5402   7.189   2.995   4.189
 1820TIP3    H1 5403   7.158   2.925   4.246
 1820TIP3    H2 5404   7.264   2.958   4.144
 1821TIP3   OH2 5405   3.826   2.445   5.266
 1821TIP3    H1 5406   3.878   2.466   5.188
 1821TIP3    H2 5407   3.753   2.506   5.263
 1822TIP3   OH2 5408   3.800   7.136   4.603
 1822TIP3    H1 5409   3.869   7.073   4.582
 1822TIP3    H2 5410   3.736   7.127   4.531
 1823TIP3   OH2 5411   2.937   2.939   2.802
 1823TIP3    H1 5412   3.023   2.938   2.759
 1823TIP3    H2 5413   2.901   2.852   2.785
 1824TIP3   OH2 5414   5.731   3.838   3.450
 1824TIP3    H1 5415   5.816   3.837   3.494
 1824TIP3    H2 5416   5.751   3.815   3.359
 1825TIP3   OH2 5417   1.657   6.708   1.952
 1825TIP3    H1 5418   1.618   6.671   1.873
 1825TIP3    H2 5419   1.628   6.651   2.022
 1826TIP3   OH2 5420   2.967   6.453   1.143
 1826TIP3    H1 5421   2.960   6.369   1.189
 1826TIP3    H2 5422   2.952   6.519   1.211
 1827TIP3   OH2 5423   6.239   2.058   2.802
 1827TIP3    H1 5424   6.260   1.966   2.787
 1827TIP3    H2 5425   6.321   2.104   2.788
 1828TIP3   OH2 5426   1.428   3.312   2.430
 1828TIP3    H1 5427   1.419   3.316   2.525
 1828TIP3    H2 5428   1.508   3.260   2.415
 1829TIP3   OH2 5429   1.576   4.491   6.747
 1829TIP3    H1 5430   1.589   4.557   6.815
 1829TIP3    H2 5431   1.488   4.457   6.762
 1830TIP3   OH2 5432   1.391   5.121   4.939
 1830TIP3    H1 5433   1.318   5.166   4.980
 1830TIP3    H2 5434   1.469   5.155   4.984
 1831TIP3   OH2 5435   2.521   0.337   2.347
 1831TIP3    H1 5436   2.609   0.337   2.310
 1831TIP3    H2 5437   2.531   0.376   2.434
 1832TIP3   OH2 5438   1.100   2.338   0.035
 1832TIP3    H1 5439   1.183   2.307   0.071
 1832TIP3    H2 5440   1.120   2.427   0.004
 1833TIP3   OH2 5441   1.353   0.379   1.280
 1833TIP3    H1 5442   1.292   0.417   1.344
 1833TIP3    H2 5443   1.329   0.419   1.197
 1834TIP3   OH2 5444   1.303   5.822   5.488
 1834TIP3    H1 5445   1.241   5.892   5.468
 1834TIP3    H2 5446   1.251   5.757   5.536
 1835TIP3   OH2 5447   6.899   0.035   1.530
 1835TIP3    H1 5448   6.883  -0.029   1.461
 1835TIP3    H2 5449   6.833   0.014   1.597
 1836TIP3   OH2 5450   5.344   3.030   6.306
 1836TIP3    H1 5451   5.265   3.084   6.298
 1836TIP3    H2 5452   5.400   3.059   6.234
 1837TIP3   OH2 5453   1.844   3.427   3.542
 1837TIP3    H1 5454   1.756   3.395   3.522
 1837TIP3    H2 5455   1.892   3.349   3.572
 1838TIP3   OH2 5456   5.831   6.506   5.036
 1838TIP3    H1 5457   5.841   6.414   5.062
 1838TIP3    H2 5458   5.860   6.556   5.112
 1839TIP3   OH2 5459   1.271   1.110   6.534
 1839TIP3    H1 5460   1.193   1.110   6.479
 1839TIP3    H2 5461   1.291   1.203   6.548
 1840TIP3   OH2 5462   6.749   3.619   4.765
 1840TIP3    H1 5463   6.655   3.636   4.763
 1840TIP3    H2 5464   6.787   3.697   4.805
 1841TIP3   OH2 5465   0.526   0.824   3.634
 1841TIP3    H1 5466   0.544   0.916   3.616
 1841TIP3    H2 5467   0.432   0.815   3.623
 1842TIP3   OH2 5468   2.241   4.424   4.221
 1842TIP3    H1 5469   2.336   4.418   4.222
 1842TIP3    H2 5470   2.215   4.377   4.141
 1843TIP3   OH2 5471   1.691   7.466   2.425
 1843TIP3    H1 5472   1.759   7.528   2.453
 1843TIP3    H2 5473   1.688   7.401   2.494
 1844TIP3   OH2 5474   5.520   3.220   5.507
 1844TIP3    H1 5475   5.539   3.175   5.589
 1844TIP3    H2 5476   5.529   3.152   5.440
 1845TIP3   OH2 5477   1.376   2.536   1.133
 1845TIP3    H1 5478   1.356   2.579   1.050
 1845TIP3    H2 5479   1.300   2.552   1.188
 1846TIP3   OH2 5480   4.167   4.583   6.209
 1846TIP3    H1 5481   4.123   4.533   6.140
 1846TIP3    H2 5482   4.208   4.516   6.264
 1847TIP3   OH2 5483   1.415   3.233   5.549
 1847TIP3    H1 5484   1.392   3.282   5.629
 1847TIP3    H2 5485   1.331   3.197   5.519
 1848TIP3   OH2 5486   8.031   4.020   4.822
 1848TIP3    H1 5487   8.081   3.952   4.867
 1848TIP3    H2 5488   8.088   4.097   4.823
 1849TIP3   OH2 5489   3.568   0.622   6.573
 1849TIP3    H1 5490   3.482   0.635   6.612
 1849TIP3    H2 5491   3.570   0.680   6.497
 1850TIP3   OH2 5492   4.068   0.118   5.004
 1850TIP3    H1 5493   4.135   0.186   5.000
 1850TIP3    H2 5494   4.089   0.058   4.932
 1851TIP3   OH2 5495   6.285   0.666   4.063
 1851TIP3    H1 5496   6.311   0.709   3.981
 1851TIP3    H2 5497   6.197   0.633   4.045
 1852TIP3   OH2 5498   6.882  -0.045   0.641
 1852TIP3    H1 5499   6.787  -0.059   0.639
 1852TIP3    H2 5500   6.893   0.046   0.667
 1853TIP3   OH2 5501   0.281   3.482   1.560
 1853TIP3    H1 5502   0.199   3.519   1.527
 1853TIP3    H2 5503   0.274   3.490   1.655
 1854TIP3   OH2 5504   2.052   0.754   6.687
 1854TIP3    H1 5505   2.037   0.674   6.737
 1854TIP3    H2 5506   2.131   0.792   6.725
 1855TIP3   OH2 5507   0.353   4.950   1.756
 1855TIP3    H1 5508   0.434   4.908   1.728
 1855TIP3    H2 5509   0.284   4.906   1.705
 1856TIP3   OH2 5510   4.084   6.609   3.094
 1856TIP3    H1 5511   4.047   6.628   3.008
 1856TIP3    H2 5512   4.174   6.582   3.077
 1857TIP3   OH2 5513   0.625   6.169   4.039
 1857TIP3    H1 5514   0.531   6.186   4.047
 1857TIP3    H2 5515   0.642   6.099   4.102
 1858TIP3   OH2 5516   5.610   1.600   6.681
 1858TIP3    H1 5517   5.607   1.623   6.588
 1858TIP3    H2 5518   5.644   1.510   6.682
 1859TIP3   OH2 5519   3.006   0.531   5.661
 1859TIP3    H1 5520   3.058   0.505   5.585
 1859TIP3    H2 5521   3.030   0.623   5.676
 1860TIP3   OH2 5522   4.869   0.225   0.364
 1860TIP3    H1 5523   4.917   0.180   0.434
 1860TIP3    H2 5524   4.777   0.207   0.383
 1861TIP3   OH2 5525   2.364   4.362   5.284
 1861TIP3    H1 5526   2.312   4.295   5.240
 1861TIP3    H2 5527   2.434   4.382   5.221
 1862TIP3   OH2 5528   3.679   6.606   5.064
 1862TIP3    H1 5529   3.594   6.608   5.108
 1862TIP3    H2 5530   3.685   6.518   5.028
 1863TIP3   OH2 5531   8.368   2.861   5.312
 1863TIP3    H1 5532   8.348   2.832   5.223
 1863TIP3    H2 5533   8.296   2.826   5.365
 1864TIP3   OH2 5534   2.669   1.666   4.263
 1864TIP3    H1 5535   2.581   1.666   4.225
 1864TIP3    H2 5536   2.655   1.665   4.358
 1865TIP3   OH2 5537   0.988   6.460   1.567
 1865TIP3    H1 5538   1.028   6.394   1.625
 1865TIP3    H2 5539   1.010   6.431   1.479
 1866TIP3   OH2 5540   2.807   4.941   6.077
 1866TIP3    H1 5541   2.766   5.027   6.070
 1866TIP3    H2 5542   2.856   4.931   5.995
 1867TIP3   OH2 5543   5.242   4.611   1.276
 1867TIP3    H1 5544   5.159   4.563   1.281
 1867TIP3    H2 5545   5.216   4.702   1.261
 1868TIP3   OH2 5546   0.528   1.955   5.685
 1868TIP3    H1 5547   0.488   1.900   5.752
 1868TIP3    H2 5548   0.608   1.908   5.661
 1869TIP3   OH2 5549   1.289   3.090   5.800
 1869TIP3    H1 5550   1.247   3.176   5.807
 1869TIP3    H2 5551   1.221   3.033   5.767
 1870TIP3   OH2 5552   0.425   1.721   6.542
 1870TIP3    H1 5553   0.422   1.745   6.635
 1870TIP3    H2 5554   0.412   1.626   6.542
 1871TIP3   OH2 5555   1.370   0.257   2.530
 1871TIP3    H1 5556   1.404   0.190   2.471
 1871TIP3    H2 5557   1.369   0.214   2.616
 1872TIP3   OH2 5558   2.394   0.343   6.106
 1872TIP3    H1 5559   2.349   0.416   6.150
 1872TIP3    H2 5560   2.468   0.323   6.163
 1873TIP3   OH2 5561   3.767   4.697   3.836
 1873TIP3    H1 5562   3.728   4.626   3.786
 1873TIP3    H2 5563   3.741   4.681   3.926
 1874TIP3   OH2 5564   5.599   7.242   4.171
 1874TIP3    H1 5565   5.512   7.281   4.169
 1874TIP3    H2 5566   5.595   7.169   4.110
 1875TIP3   OH2 5567   1.037   5.079   6.315
 1875TIP3    H1 5568   1.066   5.123   6.395
 1875TIP3    H2 5569   1.007   4.993   6.344
 1876TIP3   OH2 5570   6.555   0.707   0.832
 1876TIP3    H1 5571   6.546   0.802   0.843
 1876TIP3    H2 5572   6.643   0.688   0.865
 1877TIP3   OH2 5573   6.504   4.638   3.126
 1877TIP3    H1 5574   6.411   4.658   3.137
 1877TIP3    H2 5575   6.518   4.556   3.173
 1878TIP3   OH2 5576   0.450   3.952   3.249
 1878TIP3    H1 5577   0.455   3.918   3.339
 1878TIP3    H2 5578   0.357   3.950   3.228
 1879TIP3   OH2 5579   6.596   2.933   0.730
 1879TIP3    H1 5580   6.684   2.899   0.744
 1879TIP3    H2 5581   6.608   3.009   0.674
 1880TIP3   OH2 5582   7.766   2.517   0.563
 1880TIP3    H1 5583   7.848   2.525   0.611
 1880TIP3    H2 5584   7.765   2.591   0.503
 1881TIP3   OH2 5585   0.685   7.158   2.638
 1881TIP3    H1 5586   0.650   7.238   2.598
 1881TIP3    H2 5587   0.647   7.157   2.726
 1882TIP3   OH2 5588   2.319   4.608   1.785
 1882TIP3    H1 5589   2.253   4.672   1.812
 1882TIP3    H2 5590   2.272   4.525   1.781
 1883TIP3   OH2 5591   6.318   0.067   6.064
 1883TIP3    H1 5592   6.369   0.062   6.145
 1883TIP3    H2 5593   6.272  -0.016   6.059
 1884TIP3   OH2 5594   7.115   1.641   6.443
 1884TIP3    H1 5595   7.038   1.674   6.397
 1884TIP3    H2 5596   7.090   1.553   6.471
 1885TIP3   OH2 5597   5.534   2.938   4.962
 1885TIP3    H1 5598   5.540   2.939   5.057
 1885TIP3    H2 5599   5.510   2.848   4.941
 1886TIP3   OH2 5600   7.733   2.094   5.318
 1886TIP3    H1 5601   7.740   2.188   5.333
 1886TIP3    H2 5602   7.641   2.079   5.299
 1887TIP3   OH2 5603   5.721   2.989   2.919
 1887TIP3    H1 5604   5.779   3.032   2.982
 1887TIP3    H2 5605   5.649   3.050   2.906
 1888TIP3   OH2 5606   6.262   3.260   0.195
 1888TIP3    H1 5607   6.179   3.279   0.153
 1888TIP3    H2 5608   6.239   3.241   0.286
 1889TIP3   OH2 5609   1.148   3.168   1.368
 1889TIP3    H1 5610   1.231   3.130   1.396
 1889TIP3    H2 5611   1.170   3.259   1.346
 1890TIP3   OH2 5612   0.453   2.375   4.553
 1890TIP3    H1 5613   0.424   2.286   4.533
 1890TIP3    H2 5614   0.547   2.367   4.569
 1891TIP3   OH2 5615   3.638   2.575   0.168
 1891TIP3    H1 5616   3.590   2.620   0.238
 1891TIP3    H2 5617   3.572   2.523   0.123
 1892TIP3   OH2 5618   1.815   6.366   6.301
 1892TIP3    H1 5619   1.887   6.310   6.272
 1892TIP3    H2 5620   1.763   6.381   6.222
 1893TIP3   OH2 5621   5.322   2.535   5.771
 1893TIP3    H1 5622   5.399   2.567   5.725
 1893TIP3    H2 5623   5.347   2.536   5.864
 1894TIP3   OH2 5624   6.610   7.648   4.885
 1894TIP3    H1 5625   6.606   7.603   4.800
 1894TIP3    H2 5626   6.694   7.620   4.922
 1895TIP3   OH2 5627   4.865   2.433   0.553
 1895TIP3    H1 5628   4.920   2.503   0.587
 1895TIP3    H2 5629   4.777   2.470   0.549
 1896TIP3   OH2 5630   3.213   4.890   2.624
 1896TIP3    H1 5631   3.220   4.843   2.707
 1896TIP3    H2 5632   3.119   4.895   2.606
 1897TIP3   OH2 5633   8.188   3.073   5.983
 1897TIP3    H1 5634   8.107   3.115   5.955
 1897TIP3    H2 5635   8.258   3.126   5.945
 1898TIP3   OH2 5636   3.034   6.844   4.184
 1898TIP3    H1 5637   3.005   6.755   4.164
 1898TIP3    H2 5638   3.004   6.859   4.274
 1899TIP3   OH2 5639   2.769   5.405   0.397
 1899TIP3    H1 5640   2.700   5.418   0.462
 1899TIP3    H2 5641   2.811   5.491   0.388
 1900TIP3   OH2 5642   6.468   2.322   5.712
 1900TIP3    H1 5643   6.390   2.340   5.659
 1900TIP3    H2 5644   6.436   2.322   5.803
 1901TIP3   OH2 5645   1.971   6.049   3.482
 1901TIP3    H1 5646   2.007   6.056   3.394
 1901TIP3    H2 5647   1.908   6.121   3.488
 1902TIP3   OH2 5648   6.012   4.556   5.878
 1902TIP3    H1 5649   6.019   4.577   5.785
 1902TIP3    H2 5650   6.067   4.621   5.922
 1903TIP3   OH2 5651   6.518   0.118   3.264
 1903TIP3    H1 5652   6.484   0.035   3.298
 1903TIP3    H2 5653   6.552   0.096   3.177
 1904TIP3   OH2 5654   5.690   0.837   4.626
 1904TIP3    H1 5655   5.620   0.774   4.642
 1904TIP3    H2 5656   5.760   0.786   4.586
 1905TIP3   OH2 5657   1.996   1.323   5.344
 1905TIP3    H1 5658   2.088   1.320   5.319
 1905TIP3    H2 5659   1.995   1.300   5.437
 1906TIP3   OH2 5660   2.592   0.403   1.674
 1906TIP3    H1 5661   2.497   0.410   1.676
 1906TIP3    H2 5662   2.620   0.481   1.625
 1907TIP3   OH2 5663   4.122   1.854   2.084
 1907TIP3    H1 5664   4.203   1.898   2.111
 1907TIP3    H2 5665   4.061   1.872   2.155
 1908TIP3   OH2 5666   7.132   5.225   4.384
 1908TIP3    H1 5667   7.196   5.160   4.353
 1908TIP3    H2 5668   7.170   5.258   4.465
 1909TIP3   OH2 5669   7.513   2.986   5.843
 1909TIP3    H1 5670   7.498   3.049   5.773
 1909TIP3    H2 5671   7.439   2.925   5.838
 1910TIP3   OH2 5672   7.064   3.743   0.096
 1910TIP3    H1 5673   7.118   3.809   0.140
 1910TIP3    H2 5674   6.983   3.740   0.146
 1911TIP3   OH2 5675   5.233   3.281   2.372
 1911TIP3    H1 5676   5.194   3.284   2.460
 1911TIP3    H2 5677   5.272   3.194   2.366
 1912TIP3   OH2 5678   6.748   0.860   0.653
 1912TIP3    H1 5679   6.771   0.767   0.651
 1912TIP3    H2 5680   6.666   0.863   0.703
 1913TIP3   OH2 5681   7.241   0.770   4.548
 1913TIP3    H1 5682   7.198   0.727   4.622
 1913TIP3    H2 5683   7.241   0.704   4.479
 1914TIP3   OH2 5684   1.053   5.872   3.329
 1914TIP3    H1 5685   1.072   5.903   3.418
 1914TIP3    H2 5686   1.137   5.841   3.296
 1915TIP3   OH2 5687   0.144   7.677   2.483
 1915TIP3    H1 5688   0.236   7.698   2.464
 1915TIP3    H2 5689   0.114   7.629   2.406
 1916TIP3   OH2 5690   5.583   6.880   3.496
 1916TIP3    H1 5691   5.540   6.797   3.520
 1916TIP3    H2 5692   5.569   6.937   3.572
 1917TIP3   OH2 5693   3.170   0.446   4.048
 1917TIP3    H1 5694   3.200   0.447   3.957
 1917TIP3    H2 5695   3.246   0.472   4.099
 1918TIP3   OH2 5696   7.093   7.425   5.770
 1918TIP3    H1 5697   7.003   7.422   5.801
 1918TIP3    H2 5698   7.088   7.475   5.688
 1919TIP3   OH2 5699   1.730   6.066   0.090
 1919TIP3    H1 5700   1.656   6.033   0.141
 1919TIP3    H2 5701   1.706   6.156   0.068
 1920TIP3   OH2 5702   7.104   0.120   4.535
 1920TIP3    H1 5703   7.081   0.094   4.446
 1920TIP3    H2 5704   7.195   0.094   4.545
 1921TIP3   OH2 5705   1.667   7.141   3.374
 1921TIP3    H1 5706   1.761   7.151   3.359
 1921TIP3    H2 5707   1.627   7.212   3.324
 1922TIP3   OH2 5708   1.137   5.072   2.447
 1922TIP3    H1 5709   1.104   4.982   2.449
 1922TIP3    H2 5710   1.189   5.081   2.526
 1923TIP3   OH2 5711   0.131   4.822   2.205
 1923TIP3    H1 5712   0.181   4.780   2.134
 1923TIP3    H2 5713   0.045   4.839   2.166
 1924TIP3   OH2 5714   3.972   4.400   1.876
 1924TIP3    H1 5715   4.019   4.339   1.819
 1924TIP3    H2 5716   4.042   4.451   1.918
 1925TIP3   OH2 5717   2.940   3.047   0.129
 1925TIP3    H1 5718   2.903   3.135   0.123
 1925TIP3    H2 5719   3.034   3.062   0.144
 1926TIP3   OH2 5720   4.326   6.828   4.576
 1926TIP3    H1 5721   4.275   6.908   4.584
 1926TIP3    H2 5722   4.412   6.851   4.611
 1927TIP3   OH2 5723   7.768   5.719   5.913
 1927TIP3    H1 5724   7.746   5.695   6.003
 1927TIP3    H2 5725   7.818   5.644   5.879
 1928TIP3   OH2 5726   6.647   1.639   1.112
 1928TIP3    H1 5727   6.718   1.669   1.168
 1928TIP3    H2 5728   6.683   1.565   1.064
 1929TIP3   OH2 5729   5.707   4.357   0.128
 1929TIP3    H1 5730   5.707   4.380   0.221
 1929TIP3    H2 5731   5.625   4.393   0.095
 1930TIP3   OH2 5732   1.453   0.024   5.598
 1930TIP3    H1 5733   1.360   0.039   5.613
 1930TIP3    H2 5734   1.458  -0.068   5.569
 1931TIP3   OH2 5735   1.056   4.624   6.132
 1931TIP3    H1 5736   1.024   4.621   6.042
 1931TIP3    H2 5737   0.998   4.565   6.180
 1932TIP3   OH2 5738   0.885   4.669   1.387
 1932TIP3    H1 5739   0.961   4.714   1.349
 1932TIP3    H2 5740   0.875   4.590   1.334
 1933TIP3   OH2 5741   0.465   0.478   3.046
 1933TIP3    H1 5742   0.424   0.395   3.020
 1933TIP3    H2 5743   0.533   0.452   3.109
 1934TIP3   OH2 5744   0.238   6.189   1.765
 1934TIP3    H1 5745   0.292   6.160   1.838
 1934TIP3    H2 5746   0.165   6.235   1.806
 1935TIP3   OH2 5747   6.458   0.473   3.181
 1935TIP3    H1 5748   6.466   0.417   3.104
 1935TIP3    H2 5749   6.549   0.491   3.206
 1936TIP3   OH2 5750   5.210   4.680   6.699
 1936TIP3    H1 5751   5.151   4.623   6.749
 1936TIP3    H2 5752   5.282   4.698   6.760
 1937TIP3   OH2 5753   0.107   6.105   0.420
 1937TIP3    H1 5754   0.133   6.192   0.450
 1937TIP3    H2 5755   0.183   6.050   0.437
 1938TIP3   OH2 5756   8.143   6.545   6.399
 1938TIP3    H1 5757   8.057   6.573   6.369
 1938TIP3    H2 5758   8.197   6.542   6.319
 1939TIP3   OH2 5759   4.082   4.529   5.934
 1939TIP3    H1 5760   4.019   4.481   5.881
 1939TIP3    H2 5761   4.137   4.574   5.870
 1940TIP3   OH2 5762   0.185   5.666   5.232
 1940TIP3    H1 5763   0.271   5.626   5.221
 1940TIP3    H2 5764   0.199   5.735   5.296
 1941TIP3   OH2 5765   2.716   4.270   5.213
 1941TIP3    H1 5766   2.768   4.197   5.179
 1941TIP3    H2 5767   2.778   4.344   5.214
 1942TIP3   OH2 5768   7.602   5.126   0.673
 1942TIP3    H1 5769   7.692   5.139   0.643
 1942TIP3    H2 5770   7.559   5.081   0.601
 1943TIP3   OH2 5771   0.324   3.374   3.968
 1943TIP3    H1 5772   0.403   3.372   3.915
 1943TIP3    H2 5773   0.344   3.435   4.039
 1944TIP3   OH2 5774   2.783   4.669   6.238
 1944TIP3    H1 5775   2.862   4.619   6.258
 1944TIP3    H2 5776   2.798   4.704   6.150
 1945TIP3   OH2 5777   6.752   2.593   5.123
 1945TIP3    H1 5778   6.762   2.500   5.142
 1945TIP3    H2 5779   6.771   2.637   5.207
 1946TIP3   OH2 5780   2.796   4.612   6.772
 1946TIP3    H1 5781   2.833   4.700   6.761
 1946TIP3    H2 5782   2.819   4.566   6.692
 1947TIP3   OH2 5783   5.533   6.761   5.747
 1947TIP3    H1 5784   5.507   6.826   5.682
 1947TIP3    H2 5785   5.455   6.749   5.801
 1948TIP3   OH2 5786   4.384   7.083   1.827
 1948TIP3    H1 5787   4.423   7.169   1.846
 1948TIP3    H2 5788   4.293   7.103   1.802
 1949TIP3   OH2 5789   3.219   4.324   1.087
 1949TIP3    H1 5790   3.266   4.396   1.128
 1949TIP3    H2 5791   3.284   4.254   1.078
 1950TIP3   OH2 5792   0.959   7.623   3.590
 1950TIP3    H1 5793   0.911   7.609   3.508
 1950TIP3    H2 5794   0.974   7.535   3.624
 1951TIP3   OH2 5795   1.413   3.025   1.187
 1951TIP3    H1 5796   1.366   3.091   1.137
 1951TIP3    H2 5797   1.447   2.965   1.121
 1952TIP3   OH2 5798   6.933   1.375   5.071
 1952TIP3    H1 5799   6.958   1.437   5.003
 1952TIP3    H2 5800   6.955   1.419   5.153
 1953TIP3   OH2 5801   6.615   3.456   2.960
 1953TIP3    H1 5802   6.601   3.547   2.986
 1953TIP3    H2 5803   6.669   3.419   3.031
 1954TIP3   OH2 5804   0.708   7.031   4.439
 1954TIP3    H1 5805   0.625   7.077   4.450
 1954TIP3    H2 5806   0.730   6.999   4.526
 1955TIP3   OH2 5807   2.542   1.621   0.898
 1955TIP3    H1 5808   2.450   1.648   0.895
 1955TIP3    H2 5809   2.538   1.526   0.912
 1956TIP3   OH2 5810   5.312   7.531   1.294
 1956TIP3    H1 5811   5.347   7.503   1.379
 1956TIP3    H2 5812   5.344   7.465   1.232
 1957TIP3   OH2 5813   2.800   4.688   0.918
 1957TIP3    H1 5814   2.850   4.607   0.930
 1957TIP3    H2 5815   2.744   4.693   0.996
 1958TIP3   OH2 5816   2.029   1.668   4.835
 1958TIP3    H1 5817   1.962   1.710   4.782
 1958TIP3    H2 5818   2.033   1.720   4.915
 1959TIP3   OH2 5819   4.930   5.029   3.707
 1959TIP3    H1 5820   4.989   5.070   3.644
 1959TIP3    H2 5821   4.912   5.097   3.772
 1960TIP3   OH2 5822   7.446   7.774   5.461
 1960TIP3    H1 5823   7.382   7.845   5.462
 1960TIP3    H2 5824   7.459   7.754   5.368
 1961TIP3   OH2 5825   6.252   6.231   0.705
 1961TIP3    H1 5826   6.270   6.276   0.622
 1961TIP3    H2 5827   6.305   6.151   0.701
 1962TIP3   OH2 5828   0.465   4.429   3.428
 1962TIP3    H1 5829   0.388   4.471   3.464
 1962TIP3    H2 5830   0.438   4.339   3.412
 1963TIP3   OH2 5831   1.950   6.859   0.781
 1963TIP3    H1 5832   1.913   6.789   0.726
 1963TIP3    H2 5833   1.954   6.821   0.869
 1964TIP3   OH2 5834   0.276   2.098   5.761
 1964TIP3    H1 5835   0.236   2.013   5.775
 1964TIP3    H2 5836   0.361   2.079   5.724
 1965TIP3   OH2 5837   4.893   4.768   6.808
 1965TIP3    H1 5838   4.850   4.854   6.813
 1965TIP3    H2 5839   4.833   4.714   6.757
 1966TIP3   OH2 5840   2.426   7.179   1.058
 1966TIP3    H1 5841   2.401   7.156   1.147
 1966TIP3    H2 5842   2.447   7.272   1.061
 1967TIP3   OH2 5843   5.761   1.992   1.486
 1967TIP3    H1 5844   5.729   1.909   1.450
 1967TIP3    H2 5845   5.846   2.006   1.442
 1968TIP3   OH2 5846   0.763   1.545   0.160
 1968TIP3    H1 5847   0.846   1.498   0.166
 1968TIP3    H2 5848   0.703   1.483   0.120
 1969TIP3   OH2 5849   3.045   0.685   1.813
 1969TIP3    H1 5850   2.990   0.746   1.765
 1969TIP3    H2 5851   2.987   0.648   1.880
 1970TIP3   OH2 5852   4.744   6.787   2.853
 1970TIP3    H1 5853   4.788   6.837   2.784
 1970TIP3    H2 5854   4.699   6.854   2.906
 1971TIP3   OH2 5855   3.853   1.226   2.775
 1971TIP3    H1 5856   3.854   1.299   2.837
 1971TIP3    H2 5857   3.945   1.211   2.754
 1972TIP3   OH2 5858   0.478   3.055   2.432
 1972TIP3    H1 5859   0.458   2.965   2.458
 1972TIP3    H2 5860   0.520   3.093   2.508
 1973TIP3   OH2 5861   5.201   1.051   3.209
 1973TIP3    H1 5862   5.295   1.045   3.226
 1973TIP3    H2 5863   5.162   0.984   3.264
 1974TIP3   OH2 5864   0.426   1.700   5.534
 1974TIP3    H1 5865   0.491   1.768   5.553
 1974TIP3    H2 5866   0.428   1.692   5.439
 1975TIP3   OH2 5867   3.482   7.104   0.540
 1975TIP3    H1 5868   3.429   7.183   0.526
 1975TIP3    H2 5869   3.418   7.037   0.562
 1976TIP3   OH2 5870   3.390   4.155   5.017
 1976TIP3    H1 5871   3.445   4.102   4.959
 1976TIP3    H2 5872   3.399   4.244   4.983
 1977TIP3   OH2 5873   3.792   4.354   5.949
 1977TIP3    H1 5874   3.879   4.318   5.966
 1977TIP3    H2 5875   3.783   4.351   5.853
 1978TIP3   OH2 5876   5.860   6.783   1.203
 1978TIP3    H1 5877   5.840   6.877   1.198
 1978TIP3    H2 5878   5.775   6.740   1.193
 1979TIP3   OH2 5879   5.241   7.529   3.134
 1979TIP3    H1 5880   5.192   7.447   3.140
 1979TIP3    H2 5881   5.186   7.587   3.083
 1980TIP3   OH2 5882   3.772   3.899   1.423
 1980TIP3    H1 5883   3.802   3.858   1.504
 1980TIP3    H2 5884   3.848   3.894   1.364
 1981TIP3   OH2 5885   6.138   2.979   0.003
 1981TIP3    H1 5886   6.062   2.997   0.059
 1981TIP3    H2 5887   6.193   3.057   0.011
 1982TIP3   OH2 5888   1.119   6.216   4.263
 1982TIP3    H1 5889   1.159   6.218   4.177
 1982TIP3    H2 5890   1.128   6.306   4.295
 1983TIP3   OH2 5891   3.373   0.880   4.228
 1983TIP3    H1 5892   3.456   0.854   4.270
 1983TIP3    H2 5893   3.382   0.975   4.216
 1984TIP3   OH2 5894   5.500   3.756   3.578
 1984TIP3    H1 5895   5.471   3.676   3.534
 1984TIP3    H2 5896   5.586   3.774   3.540
 1985TIP3   OH2 5897   7.392   0.613   3.926
 1985TIP3    H1 5898   7.352   0.616   4.012
 1985TIP3    H2 5899   7.464   0.550   3.935
 1986TIP3   OH2 5900   0.538   6.328   2.536
 1986TIP3    H1 5901   0.469   6.313   2.471
 1986TIP3    H2 5902   0.575   6.241   2.552
 1987TIP3   OH2 5903   4.121  -0.007   5.977
 1987TIP3    H1 5904   4.083   0.067   6.023
 1987TIP3    H2 5905   4.209   0.022   5.953
 1988TIP3   OH2 5906   6.643   7.246   0.968
 1988TIP3    H1 5907   6.590   7.167   0.959
 1988TIP3    H2 5908   6.701   7.246   0.891
 1989TIP3   OH2 5909   4.603   4.429   4.105
 1989TIP3    H1 5910   4.511   4.416   4.126
 1989TIP3    H2 5911   4.616   4.524   4.109
 1990TIP3   OH2 5912   6.966   1.030   1.561
 1990TIP3    H1 5913   6.908   1.011   1.487
 1990TIP3    H2 5914   7.039   0.969   1.550
 1991TIP3   OH2 5915   2.855   4.037   0.353
 1991TIP3    H1 5916   2.918   4.071   0.417
 1991TIP3    H2 5917   2.907   4.026   0.273
 1992TIP3   OH2 5918   4.693   1.275   0.875
 1992TIP3    H1 5919   4.703   1.229   0.791
 1992TIP3    H2 5920   4.605   1.314   0.871
 1993TIP3   OH2 5921   0.672   4.593   2.065
 1993TIP3    H1 5922   0.656   4.658   2.133
 1993TIP3    H2 5923   0.736   4.635   2.007
 1994TIP3   OH2 5924   1.868   4.226   1.333
 1994TIP3    H1 5925   1.906   4.308   1.299
 1994TIP3    H2 5926   1.848   4.175   1.254
 1995TIP3   OH2 5927   1.435   3.038   6.025
 1995TIP3    H1 5928   1.491   3.115   6.017
 1995TIP3    H2 5929   1.373   3.045   5.953
 1996TIP3   OH2 5930   5.749   2.823   4.077
 1996TIP3    H1 5931   5.702   2.797   4.156
 1996TIP3    H2 5932   5.681   2.831   4.011
 1997TIP3   OH2 5933   2.291   3.035   3.189
 1997TIP3    H1 5934   2.370   3.084   3.211
 1997TIP3    H2 5935   2.322   2.964   3.133
 1998TIP3   OH2 5936   5.012   5.426   2.139
 1998TIP3    H1 5937   5.020   5.339   2.100
 1998TIP3    H2 5938   5.020   5.411   2.234
 1999TIP3   OH2 5939   1.588   2.290   2.365
 1999TIP3    H1 5940   1.515   2.341   2.331
 1999TIP3    H2 5941   1.571   2.200   2.335
 2000TIP3   OH2 5942   4.250   7.173   5.540
 2000TIP3    H1 5943   4.222   7.255   5.579
 2000TIP3    H2 5944   4.269   7.116   5.615
 2001TIP3   OH2 5945   6.786   0.328   3.072
 2001TIP3    H1 5946   6.801   0.380   2.993
 2001TIP3    H2 5947   6.793   0.390   3.144
 2002TIP3   OH2 5948   7.873   6.521   4.369
 2002TIP3    H1 5949   7.904   6.463   4.438
 2002TIP3    H2 5950   7.946   6.582   4.354
 2003TIP3   OH2 5951   0.787   2.735   3.988
 2003TIP3    H1 5952   0.728   2.675   4.035
 2003TIP3    H2 5953   0.809   2.689   3.908
 2004TIP3   OH2 5954   3.967   2.707   6.258
 2004TIP3    H1 5955   4.062   2.708   6.265
 2004TIP3    H2 5956   3.941   2.618   6.281
 2005TIP3   OH2 5957   3.301   4.055   6.501
 2005TIP3    H1 5958   3.268   4.048   6.590
 2005TIP3    H2 5959   3.254   4.130   6.464
 2006TIP3   OH2 5960   5.626   2.400   4.498
 2006TIP3    H1 5961   5.636   2.382   4.592
 2006TIP3    H2 5962   5.707   2.445   4.474
 2007TIP3   OH2 5963   6.651   2.953   1.175
 2007TIP3    H1 5964   6.600   2.932   1.253
 2007TIP3    H2 5965   6.692   3.037   1.195
 2008TIP3   OH2 5966   6.304   5.725   3.947
 2008TIP3    H1 5967   6.304   5.817   3.973
 2008TIP3    H2 5968   6.333   5.677   4.025
 2009TIP3   OH2 5969   5.813   2.088   6.699
 2009TIP3    H1 5970   5.768   2.050   6.775
 2009TIP3    H2 5971   5.753   2.155   6.667
 2010TIP3   OH2 5972   7.114   1.669   3.289
 2010TIP3    H1 5973   7.155   1.723   3.221
 2010TIP3    H2 5974   7.165   1.588   3.289
 2011TIP3   OH2 5975   1.885   1.225   2.922
 2011TIP3    H1 5976   1.799   1.209   2.960
 2011TIP3    H2 5977   1.882   1.184   2.836
 2012TIP3   OH2 5978   6.336   7.381   3.619
 2012TIP3    H1 5979   6.406   7.353   3.678
 2012TIP3    H2 5980   6.347   7.476   3.611
 2013TIP3   OH2 5981   1.636   0.087   3.867
 2013TIP3    H1 5982   1.579   0.106   3.792
 2013TIP3    H2 5983   1.725   0.099   3.833
 2014TIP3   OH2 5984   3.322   3.291   3.309
 2014TIP3    H1 5985   3.300   3.337   3.228
 2014TIP3    H2 5986   3.279   3.341   3.378
 2015TIP3   OH2 5987   7.606   6.719   5.456
 2015TIP3    H1 5988   7.542   6.747   5.522
 2015TIP3    H2 5989   7.555   6.670   5.392
 2016TIP3   OH2 5990   2.306   4.898   0.809
 2016TIP3    H1 5991   2.335   4.859   0.892
 2016TIP3    H2 5992   2.365   4.862   0.744
 2017TIP3   OH2 5993   4.657   5.459   4.222
 2017TIP3    H1 5994   4.675   5.371   4.254
 2017TIP3    H2 5995   4.631   5.508   4.299
 2018TIP3   OH2 5996   7.409   6.254   1.121
 2018TIP3    H1 5997   7.332   6.311   1.116
 2018TIP3    H2 5998   7.454   6.281   1.201
 2019TIP3   OH2 5999   3.616   6.959   2.036
 2019TIP3    H1 6000   3.608   7.002   2.121
 2019TIP3    H2 6001   3.593   6.867   2.054
 2020TIP3   OH2 6002   3.511   2.041   0.330
 2020TIP3    H1 6003   3.517   2.085   0.415
 2020TIP3    H2 6004   3.443   1.975   0.342
 2021TIP3   OH2 6005   5.299   5.374   3.462
 2021TIP3    H1 6006   5.377   5.418   3.496
 2021TIP3    H2 6007   5.262   5.436   3.399
 2022TIP3   OH2 6008   2.173   5.354   0.235
 2022TIP3    H1 6009   2.153   5.361   0.328
 2022TIP3    H2 6010   2.261   5.391   0.227
 2023TIP3   OH2 6011   0.378   3.603   0.030
 2023TIP3    H1 6012   0.442   3.612  -0.041
 2023TIP3    H2 6013   0.297   3.579  -0.014
 2024TIP3   OH2 6014   3.428   6.368   4.501
 2024TIP3    H1 6015   3.509   6.348   4.549
 2024TIP3    H2 6016   3.439   6.459   4.473
 2025TIP3   OH2 6017   2.030   0.454   0.509
 2025TIP3    H1 6018   1.984   0.537   0.520
 2025TIP3    H2 6019   2.116   0.468   0.549
 2026TIP3   OH2 6020   3.012   4.899   5.693
 2026TIP3    H1 6021   3.000   4.917   5.787
 2026TIP3    H2 6022   3.014   4.985   5.652
 2027TIP3   OH2 6023   3.624   5.904   0.311
 2027TIP3    H1 6024   3.656   5.814   0.321
 2027TIP3    H2 6025   3.637   5.944   0.397
 2028TIP3   OH2 6026   0.879   5.116   2.765
 2028TIP3    H1 6027   0.804   5.065   2.735
 2028TIP3    H2 6028   0.932   5.053   2.814
 2029TIP3   OH2 6029   2.131   0.641   1.161
 2029TIP3    H1 6030   2.038   0.662   1.164
 2029TIP3    H2 6031   2.138   0.552   1.195
 2030TIP3   OH2 6032   1.533   2.965   5.671
 2030TIP3    H1 6033   1.445   2.990   5.701
 2030TIP3    H2 6034   1.571   3.046   5.638
 2031TIP3   OH2 6035   4.138   7.538   4.291
 2031TIP3    H1 6036   4.061   7.595   4.298
 2031TIP3    H2 6037   4.114   7.475   4.223
 2032TIP3   OH2 6038   1.796   7.000   2.601
 2032TIP3    H1 6039   1.747   6.946   2.664
 2032TIP3    H2 6040   1.755   6.980   2.517
 2033TIP3   OH2 6041   0.749   7.402   4.262
 2033TIP3    H1 6042   0.728   7.434   4.174
 2033TIP3    H2 6043   0.825   7.454   4.288
 2034TIP3   OH2 6044   3.714   1.628   1.909
 2034TIP3    H1 6045   3.771   1.552   1.921
 2034TIP3    H2 6046   3.626   1.592   1.899
 2035TIP3   OH2 6047   3.272   3.077   4.329
 2035TIP3    H1 6048   3.181   3.086   4.299
 2035TIP3    H2 6049   3.322   3.063   4.249
 2036TIP3   OH2 6050   2.111   5.888   0.621
 2036TIP3    H1 6051   2.111   5.890   0.525
 2036TIP3    H2 6052   2.087   5.798   0.643
 2037TIP3   OH2 6053   4.700   3.503   3.220
 2037TIP3    H1 6054   4.625   3.544   3.264
 2037TIP3    H2 6055   4.723   3.565   3.150
 2038TIP3   OH2 6056   2.844   5.962   3.563
 2038TIP3    H1 6057   2.838   5.886   3.505
 2038TIP3    H2 6058   2.885   6.030   3.509
 2039TIP3   OH2 6059   2.696   4.379   4.287
 2039TIP3    H1 6060   2.699   4.315   4.358
 2039TIP3    H2 6061   2.785   4.380   4.252
 2040TIP3   OH2 6062   5.026   5.860   5.447
 2040TIP3    H1 6063   4.983   5.806   5.514
 2040TIP3    H2 6064   4.963   5.929   5.428
 2041TIP3   OH2 6065   3.996   5.549   4.187
 2041TIP3    H1 6066   4.071   5.546   4.247
 2041TIP3    H2 6067   4.031   5.592   4.108
 2042TIP3   OH2 6068   3.384   3.069   4.099
 2042TIP3    H1 6069   3.456   3.123   4.067
 2042TIP3    H2 6070   3.406   2.981   4.069
 2043TIP3   OH2 6071   5.331   1.688   1.859
 2043TIP3    H1 6072   5.400   1.625   1.835
 2043TIP3    H2 6073   5.372   1.774   1.848
 2044TIP3   OH2 6074   5.243   6.099   2.340
 2044TIP3    H1 6075   5.241   6.096   2.436
 2044TIP3    H2 6076   5.312   6.162   2.319
 2045TIP3   OH2 6077   5.095   4.078   2.833
 2045TIP3    H1 6078   5.171   4.135   2.818
 2045TIP3    H2 6079   5.081   4.081   2.927
 2046TIP3   OH2 6080   5.440   1.650   4.747
 2046TIP3    H1 6081   5.444   1.709   4.823
 2046TIP3    H2 6082   5.498   1.577   4.770
 2047TIP3   OH2 6083   7.486   4.390   1.715
 2047TIP3    H1 6084   7.485   4.386   1.620
 2047TIP3    H2 6085   7.520   4.305   1.743
 2048TIP3   OH2 6086   5.972   7.387   1.977
 2048TIP3    H1 6087   5.944   7.478   1.983
 2048TIP3    H2 6088   5.891   7.336   1.981
 2049TIP3   OH2 6089   1.906   4.799   4.313
 2049TIP3    H1 6090   1.916   4.716   4.267
 2049TIP3    H2 6091   1.853   4.778   4.390
 2050TIP3   OH2 6092   1.858   5.443   3.207
 2050TIP3    H1 6093   1.823   5.375   3.264
 2050TIP3    H2 6094   1.925   5.487   3.259
 2051TIP3   OH2 6095   2.519   6.508   2.967
 2051TIP3    H1 6096   2.523   6.476   2.877
 2051TIP3    H2 6097   2.601   6.477   3.007
 2052TIP3   OH2 6098   1.251   2.731   0.953
 2052TIP3    H1 6099   1.263   2.812   0.904
 2052TIP3    H2 6100   1.269   2.661   0.890
 2053TIP3   OH2 6101   6.969   7.092   4.095
 2053TIP3    H1 6102   7.010   7.166   4.050
 2053TIP3    H2 6103   6.914   7.133   4.162
 2054TIP3   OH2 6104   0.715   5.001   2.164
 2054TIP3    H1 6105   0.792   4.977   2.215
 2054TIP3    H2 6106   0.746   5.005   2.073
 2055TIP3   OH2 6107   3.392   3.384   0.564
 2055TIP3    H1 6108   3.446   3.341   0.497
 2055TIP3    H2 6109   3.350   3.456   0.518
 2056TIP3   OH2 6110   1.042   2.954   5.738
 2056TIP3    H1 6111   1.013   2.915   5.655
 2056TIP3    H2 6112   1.046   2.881   5.799
 2057TIP3   OH2 6113   6.937   4.670   2.992
 2057TIP3    H1 6114   6.891   4.622   2.923
 2057TIP3    H2 6115   6.982   4.602   3.043
 2058TIP3   OH2 6116   1.184   1.852   6.719
 2058TIP3    H1 6117   1.154   1.792   6.787
 2058TIP3    H2 6118   1.253   1.804   6.673
 2059TIP3   OH2 6119   5.503   3.651   6.574
 2059TIP3    H1 6120   5.487   3.710   6.647
 2059TIP3    H2 6121   5.580   3.687   6.530
 2060TIP3   OH2 6122   7.683   1.209   1.790
 2060TIP3    H1 6123   7.719   1.220   1.878
 2060TIP3    H2 6124   7.602   1.161   1.802
 2061TIP3   OH2 6125   1.161   7.666   5.533
 2061TIP3    H1 6126   1.178   7.678   5.626
 2061TIP3    H2 6127   1.230   7.715   5.489
 2062TIP3   OH2 6128   1.983   2.255   1.940
 2062TIP3    H1 6129   2.064   2.306   1.947
 2062TIP3    H2 6130   2.011   2.169   1.911
 2063TIP3   OH2 6131   2.661   0.615   5.129
 2063TIP3    H1 6132   2.683   0.625   5.036
 2063TIP3    H2 6133   2.607   0.692   5.149
 2064TIP3   OH2 6134   7.822   3.014   3.179
 2064TIP3    H1 6135   7.863   3.040   3.096
 2064TIP3    H2 6136   7.751   3.076   3.191
 2065TIP3   OH2 6137   6.909   0.489   6.475
 2065TIP3    H1 6138   6.920   0.414   6.416
 2065TIP3    H2 6139   6.979   0.550   6.450
 2066TIP3   OH2 6140   3.735   0.693   3.332
 2066TIP3    H1 6141   3.724   0.788   3.336
 2066TIP3    H2 6142   3.653   0.661   3.294
 2067TIP3   OH2 6143   0.169   3.384   5.404
 2067TIP3    H1 6144   0.250   3.342   5.375
 2067TIP3    H2 6145   0.113   3.311   5.430
 2068TIP3   OH2 6146   7.595   6.633   3.749
 2068TIP3    H1 6147   7.560   6.547   3.770
 2068TIP3    H2 6148   7.606   6.676   3.834
 2069TIP3   OH2 6149   5.652   6.668   1.800
 2069TIP3    H1 6150   5.651   6.685   1.894
 2069TIP3    H2 6151   5.744   6.679   1.774
 2070TIP3   OH2 6152   1.016   1.830   3.586
 2070TIP3    H1 6153   1.061   1.779   3.518
 2070TIP3    H2 6154   0.950   1.880   3.539
 2071TIP3   OH2 6155   4.370   2.713   5.684
 2071TIP3    H1 6156   4.310   2.780   5.717
 2071TIP3    H2 6157   4.316   2.661   5.624
 2072TIP3   OH2 6158   7.175   4.723   5.839
 2072TIP3    H1 6159   7.087   4.686   5.832
 2072TIP3    H2 6160   7.167   4.788   5.909
 2073TIP3   OH2 6161   0.984   6.390   4.657
 2073TIP3    H1 6162   1.066   6.436   4.673
 2073TIP3    H2 6163   0.922   6.459   4.632
 2074TIP3   OH2 6164   7.531   1.343   5.941
 2074TIP3    H1 6165   7.449   1.338   5.892
 2074TIP3    H2 6166   7.557   1.435   5.936
 2075TIP3   OH2 6167   0.004   3.012   4.523
 2075TIP3    H1 6168  -0.046   3.038   4.600
 2075TIP3    H2 6169   0.057   3.089   4.501
 2076TIP3   OH2 6170   0.078   4.949   1.911
 2076TIP3    H1 6171  -0.002   4.969   1.960
 2076TIP3    H2 6172   0.057   4.974   1.821
 2077TIP3   OH2 6173   5.588   2.648   3.659
 2077TIP3    H1 6174   5.680   2.634   3.639
 2077TIP3    H2 6175   5.581   2.743   3.672
 2078TIP3   OH2 6176   0.611   2.350   5.873
 2078TIP3    H1 6177   0.668   2.273   5.866
 2078TIP3    H2 6178   0.669   2.419   5.906
 2079TIP3   OH2 6179   4.894   6.562   2.735
 2079TIP3    H1 6180   4.847   6.638   2.770
 2079TIP3    H2 6181   4.887   6.496   2.804
 2080TIP3   OH2 6182   6.980   2.573   2.975
 2080TIP3    H1 6183   6.908   2.612   2.925
 2080TIP3    H2 6184   6.996   2.635   3.046
 2081TIP3   OH2 6185   4.227   5.992   0.856
 2081TIP3    H1 6186   4.314   5.952   0.857
 2081TIP3    H2 6187   4.241   6.081   0.889
 2082TIP3   OH2 6188   4.023   5.618   1.538
 2082TIP3    H1 6189   4.015   5.674   1.461
 2082TIP3    H2 6190   3.967   5.543   1.519
 2083TIP3   OH2 6191   5.029   0.510   4.952
 2083TIP3    H1 6192   5.083   0.431   4.945
 2083TIP3    H2 6193   4.988   0.519   4.866
 2084TIP3   OH2 6194   5.973   5.141   3.502
 2084TIP3    H1 6195   5.894   5.125   3.554
 2084TIP3    H2 6196   5.983   5.237   3.504
 2085TIP3   OH2 6197   4.933   3.314   6.022
 2085TIP3    H1 6198   4.957   3.237   5.969
 2085TIP3    H2 6199   4.884   3.277   6.095
 2086TIP3   OH2 6200   3.107   1.436   6.222
 2086TIP3    H1 6201   3.075   1.403   6.137
 2086TIP3    H2 6202   3.032   1.424   6.281
 2087TIP3   OH2 6203   5.428   4.520   5.364
 2087TIP3    H1 6204   5.445   4.426   5.372
 2087TIP3    H2 6205   5.391   4.545   5.449
 2088TIP3   OH2 6206   4.542   6.883   6.450
 2088TIP3    H1 6207   4.624   6.844   6.481
 2088TIP3    H2 6208   4.558   6.978   6.452
 2089TIP3   OH2 6209   5.635   5.418   5.909
 2089TIP3    H1 6210   5.547   5.404   5.943
 2089TIP3    H2 6211   5.622   5.447   5.819
 2090TIP3   OH2 6212   7.810   1.164   5.781
 2090TIP3    H1 6213   7.899   1.185   5.754
 2090TIP3    H2 6214   7.798   1.212   5.863
 2091TIP3   OH2 6215   5.397   0.179   3.412
 2091TIP3    H1 6216   5.412   0.101   3.359
 2091TIP3    H2 6217   5.484   0.205   3.441
 2092TIP3   OH2 6218   7.652   3.187   4.895
 2092TIP3    H1 6219   7.743   3.179   4.864
 2092TIP3    H2 6220   7.656   3.164   4.988
 2093TIP3   OH2 6221   5.710   6.545   2.827
 2093TIP3    H1 6222   5.749   6.477   2.882
 2093TIP3    H2 6223   5.770   6.619   2.835
 2094TIP3   OH2 6224   3.866   0.554   0.521
 2094TIP3    H1 6225   3.845   0.586   0.434
 2094TIP3    H2 6226   3.792   0.497   0.544
 2095TIP3   OH2 6227   6.345   4.944   2.859
 2095TIP3    H1 6228   6.437   4.961   2.836
 2095TIP3    H2 6229   6.310   4.900   2.782
 2096TIP3   OH2 6230   1.583   2.129   0.846
 2096TIP3    H1 6231   1.507   2.082   0.812
 2096TIP3    H2 6232   1.550   2.177   0.922
 2097TIP3   OH2 6233   5.554   6.180   4.865
 2097TIP3    H1 6234   5.569   6.118   4.794
 2097TIP3    H2 6235   5.557   6.127   4.945
 2098TIP3   OH2 6236   0.040   1.693   3.652
 2098TIP3    H1 6237   0.128   1.674   3.620
 2098TIP3    H2 6238  -0.014   1.697   3.573
 2099TIP3   OH2 6239   5.652   1.204   3.196
 2099TIP3    H1 6240   5.693   1.118   3.186
 2099TIP3    H2 6241   5.723   1.260   3.228
 2100TIP3   OH2 6242   7.182   1.772   3.050
 2100TIP3    H1 6243   7.240   1.765   2.975
 2100TIP3    H2 6244   7.099   1.802   3.014
 2101TIP3   OH2 6245   1.772   3.929   6.712
 2101TIP3    H1 6246   1.747   3.972   6.794
 2101TIP3    H2 6247   1.690   3.895   6.678
 2102TIP3   OH2 6248   6.016   7.469   4.365
 2102TIP3    H1 6249   5.936   7.460   4.313
 2102TIP3    H2 6250   5.989   7.517   4.443
 2103TIP3   OH2 6251   1.073   7.038   3.377
 2103TIP3    H1 6252   1.072   7.087   3.459
 2103TIP3    H2 6253   1.156   7.060   3.337
 2104TIP3   OH2 6254   5.833   4.101   6.644
 2104TIP3    H1 6255   5.772   4.031   6.621
 2104TIP3    H2 6256   5.777   4.175   6.667
 2105TIP3   OH2 6257   6.195   1.038   4.726
 2105TIP3    H1 6258   6.289   1.054   4.735
 2105TIP3    H2 6259   6.154   1.099   4.787
 2106TIP3   OH2 6260   2.807   0.251   1.240
 2106TIP3    H1 6261   2.822   0.158   1.219
 2106TIP3    H2 6262   2.802   0.294   1.155
 2107TIP3   OH2 6263   5.360   3.400   4.397
 2107TIP3    H1 6264   5.445   3.383   4.437
 2107TIP3    H2 6265   5.336   3.317   4.354
 2108TIP3   OH2 6266   3.495   4.148   2.982
 2108TIP3    H1 6267   3.433   4.082   2.951
 2108TIP3    H2 6268   3.476   4.226   2.929
 2109TIP3   OH2 6269   2.642   5.050   0.254
 2109TIP3    H1 6270   2.575   5.062   0.322
 2109TIP3    H2 6271   2.711   5.112   0.277
 2110TIP3   OH2 6272   3.949   0.216   3.078
 2110TIP3    H1 6273   3.900   0.238   3.157
 2110TIP3    H2 6274   4.023   0.277   3.077
 2111TIP3   OH2 6275   3.662   6.091   0.122
 2111TIP3    H1 6276   3.668   6.079   0.217
 2111TIP3    H2 6277   3.659   6.002   0.087
 2112TIP3   OH2 6278   5.511   0.915   1.207
 2112TIP3    H1 6279   5.458   0.872   1.139
 2112TIP3    H2 6280   5.448   0.933   1.277
 2113TIP3   OH2 6281   0.991   6.072   6.139
 2113TIP3    H1 6282   1.022   6.162   6.147
 2113TIP3    H2 6283   1.052   6.021   6.193
 2114TIP3   OH2 6284   7.673   0.529   4.384
 2114TIP3    H1 6285   7.621   0.528   4.464
 2114TIP3    H2 6286   7.762   0.549   4.413
 2115TIP3   OH2 6287   5.648   2.825   2.704
 2115TIP3    H1 6288   5.713   2.755   2.702
 2115TIP3    H2 6289   5.683   2.888   2.767
 2116TIP3   OH2 6290   5.343   2.054   2.761
 2116TIP3    H1 6291   5.393   2.084   2.685
 2116TIP3    H2 6292   5.258   2.028   2.724
 2117TIP3   OH2 6293   2.820   6.261   4.774
 2117TIP3    H1 6294   2.738   6.219   4.750
 2117TIP3    H2 6295   2.837   6.231   4.863
 2118TIP3   OH2 6296   3.459   3.286   4.446
 2118TIP3    H1 6297   3.538   3.274   4.393
 2118TIP3    H2 6298   3.393   3.232   4.403
 2119TIP3   OH2 6299   0.052   3.299   0.669
 2119TIP3    H1 6300   0.033   3.318   0.761
 2119TIP3    H2 6301  -0.016   3.346   0.621
 2120TIP3   OH2 6302   6.448   2.811   0.323
 2120TIP3    H1 6303   6.510   2.756   0.372
 2120TIP3    H2 6304   6.363   2.789   0.361
 2121TIP3   OH2 6305   5.001   2.895   5.097
 2121TIP3    H1 6306   4.983   2.804   5.075
 2121TIP3    H2 6307   4.914   2.936   5.099
 2122TIP3   OH2 6308   5.884   1.994   5.544
 2122TIP3    H1 6309   5.821   2.017   5.612
 2122TIP3    H2 6310   5.849   1.914   5.505
 2123TIP3   OH2 6311   4.251   0.762   4.413
 2123TIP3    H1 6312   4.256   0.774   4.508
 2123TIP3    H2 6313   4.334   0.722   4.389
 2124TIP3   OH2 6314   2.805   1.976   0.905
 2124TIP3    H1 6315   2.795   1.989   0.999
 2124TIP3    H2 6316   2.899   1.962   0.892
 2125TIP3   OH2 6317   7.639   1.131   2.834
 2125TIP3    H1 6318   7.638   1.040   2.805
 2125TIP3    H2 6319   7.685   1.128   2.919
 2126TIP3   OH2 6320   0.920   2.675   5.714
 2126TIP3    H1 6321   1.000   2.625   5.732
 2126TIP3    H2 6322   0.854   2.608   5.694
 2127TIP3   OH2 6323   8.267   7.326   5.993
 2127TIP3    H1 6324   8.195   7.273   5.959
 2127TIP3    H2 6325   8.308   7.364   5.915
 2128TIP3   OH2 6326   4.914   2.607   3.486
 2128TIP3    H1 6327   4.913   2.624   3.580
 2128TIP3    H2 6328   4.980   2.667   3.452
 2129TIP3   OH2 6329   0.619   0.366   5.729
 2129TIP3    H1 6330   0.641   0.410   5.646
 2129TIP3    H2 6331   0.524   0.375   5.736
 2130TIP3   OH2 6332   5.895   4.923   4.863
 2130TIP3    H1 6333   5.853   4.991   4.915
 2130TIP3    H2 6334   5.826   4.858   4.848
 2131TIP3   OH2 6335   5.596   3.271   2.034
 2131TIP3    H1 6336   5.587   3.263   2.129
 2131TIP3    H2 6337   5.635   3.188   2.006
 2132TIP3   OH2 6338   4.866   4.989   0.628
 2132TIP3    H1 6339   4.841   5.004   0.536
 2132TIP3    H2 6340   4.927   4.915   0.625
 2133TIP3   OH2 6341   0.935   0.093   1.838
 2133TIP3    H1 6342   0.874   0.121   1.906
 2133TIP3    H2 6343   0.955   0.174   1.790
 2134TIP3   OH2 6344   6.642   7.449   1.446
 2134TIP3    H1 6345   6.628   7.440   1.352
 2134TIP3    H2 6346   6.691   7.530   1.456
 2135TIP3   OH2 6347   1.093   5.908   6.324
 2135TIP3    H1 6348   1.115   5.845   6.255
 2135TIP3    H2 6349   1.177   5.946   6.349
 2136TIP3   OH2 6350   6.396   2.438   1.568
 2136TIP3    H1 6351   6.451   2.429   1.646
 2136TIP3    H2 6352   6.459   2.449   1.496
 2137TIP3   OH2 6353   3.150   0.184   1.337
 2137TIP3    H1 6354   3.232   0.162   1.293
 2137TIP3    H2 6355   3.136   0.277   1.318
 2138TIP3   OH2 6356   1.660   3.154   2.453
 2138TIP3    H1 6357   1.729   3.125   2.394
 2138TIP3    H2 6358   1.698   3.145   2.541
 2139TIP3   OH2 6359   7.266   2.862   5.921
 2139TIP3    H1 6360   7.255   2.872   6.016
 2139TIP3    H2 6361   7.187   2.901   5.884
 2140TIP3   OH2 6362   2.546   0.140   1.896
 2140TIP3    H1 6363   2.619   0.088   1.862
 2140TIP3    H2 6364   2.585   0.226   1.914
 2141TIP3   OH2 6365   7.717   6.063   5.331
 2141TIP3    H1 6366   7.699   6.138   5.387
 2141TIP3    H2 6367   7.812   6.061   5.321
 2142TIP3   OH2 6368   1.483   4.821   6.117
 2142TIP3    H1 6369   1.458   4.899   6.068
 2142TIP3    H2 6370   1.420   4.754   6.088
 2143TIP3   OH2 6371   4.172   4.239   1.138
 2143TIP3    H1 6372   4.198   4.154   1.173
 2143TIP3    H2 6373   4.255   4.282   1.115
 2144TIP3   OH2 6374   7.020   4.379   1.313
 2144TIP3    H1 6375   7.038   4.428   1.394
 2144TIP3    H2 6376   6.978   4.443   1.256
 2145TIP3   OH2 6377   0.184   4.879   0.159
 2145TIP3    H1 6378   0.128   4.947   0.122
 2145TIP3    H2 6379   0.123   4.807   0.180
 2146TIP3   OH2 6380   3.942   4.021   2.233
 2146TIP3    H1 6381   3.868   4.029   2.294
 2146TIP3    H2 6382   4.013   4.069   2.275
 2147TIP3   OH2 6383   7.291   3.151   3.651
 2147TIP3    H1 6384   7.250   3.170   3.736
 2147TIP3    H2 6385   7.354   3.223   3.640
 2148TIP3   OH2 6386   5.807   6.390   1.355
 2148TIP3    H1 6387   5.883   6.379   1.298
 2148TIP3    H2 6388   5.809   6.314   1.413
 2149TIP3   OH2 6389   5.333   4.873   3.314
 2149TIP3    H1 6390   5.245   4.892   3.280
 2149TIP3    H2 6391   5.377   4.958   3.315
 2150TIP3   OH2 6392   5.537   3.427   1.802
 2150TIP3    H1 6393   5.489   3.353   1.765
 2150TIP3    H2 6394   5.569   3.395   1.886
 2151TIP3   OH2 6395   3.685   1.146   0.049
 2151TIP3    H1 6396   3.718   1.158  -0.040
 2151TIP3    H2 6397   3.622   1.075   0.042
 2152TIP3   OH2 6398   0.290   6.644   4.117
 2152TIP3    H1 6399   0.268   6.736   4.129
 2152TIP3    H2 6400   0.270   6.604   4.201
 2153TIP3   OH2 6401   6.019   0.050   3.798
 2153TIP3    H1 6402   6.057   0.068   3.883
 2153TIP3    H2 6403   5.925   0.066   3.810
 2154TIP3   OH2 6404   5.971   7.448   5.012
 2154TIP3    H1 6405   6.040   7.473   4.951
 2154TIP3    H2 6406   6.007   7.468   5.098
 2155TIP3   OH2 6407   3.114   5.973   3.372
 2155TIP3    H1 6408   3.077   6.052   3.411
 2155TIP3    H2 6409   3.205   5.972   3.401
 2156TIP3   OH2 6410   4.996   1.654   3.171
 2156TIP3    H1 6411   4.938   1.660   3.095
 2156TIP3    H2 6412   5.082   1.632   3.134
 2157TIP3   OH2 6413   5.750   6.264   5.682
 2157TIP3    H1 6414   5.834   6.310   5.689
 2157TIP3    H2 6415   5.692   6.327   5.640
 2158TIP3   OH2 6416   7.614   3.968   5.767
 2158TIP3    H1 6417   7.703   3.939   5.748
 2158TIP3    H2 6418   7.622   4.021   5.846
 2159TIP3   OH2 6419   5.309   5.600   1.750
 2159TIP3    H1 6420   5.365   5.590   1.672
 2159TIP3    H2 6421   5.227   5.558   1.726
 2160TIP3   OH2 6422   7.060   1.881   0.879
 2160TIP3    H1 6423   7.027   1.968   0.859
 2160TIP3    H2 6424   7.147   1.896   0.916
 2161TIP3   OH2 6425   2.597   3.492   0.977
 2161TIP3    H1 6426   2.562   3.473   0.890
 2161TIP3    H2 6427   2.691   3.480   0.969
 2162TIP3   OH2 6428   2.893   5.209   4.637
 2162TIP3    H1 6429   2.980   5.246   4.624
 2162TIP3    H2 6430   2.887   5.139   4.572
 2163TIP3   OH2 6431   6.537   6.091   5.262
 2163TIP3    H1 6432   6.575   6.148   5.329
 2163TIP3    H2 6433   6.560   6.002   5.291
 2164TIP3   OH2 6434   0.388   3.101   1.653
 2164TIP3    H1 6435   0.366   3.029   1.594
 2164TIP3    H2 6436   0.305   3.124   1.695
 2165TIP3   OH2 6437   7.449   3.470   5.398
 2165TIP3    H1 6438   7.423   3.391   5.350
 2165TIP3    H2 6439   7.486   3.438   5.480
 2166TIP3   OH2 6440   4.305   7.211   4.082
 2166TIP3    H1 6441   4.330   7.192   3.992
 2166TIP3    H2 6442   4.370   7.274   4.113
 2167TIP3   OH2 6443   0.085   3.248   3.453
 2167TIP3    H1 6444   0.114   3.200   3.530
 2167TIP3    H2 6445   0.130   3.206   3.380
 2168TIP3   OH2 6446   1.863   0.160   2.955
 2168TIP3    H1 6447   1.908   0.168   2.871
 2168TIP3    H2 6448   1.801   0.088   2.942
 2169TIP3   OH2 6449   1.431   1.516   0.582
 2169TIP3    H1 6450   1.526   1.505   0.575
 2169TIP3    H2 6451   1.417   1.610   0.572
 2170TIP3   OH2 6452   1.579   0.061   0.468
 2170TIP3    H1 6453   1.619   0.043   0.553
 2170TIP3    H2 6454   1.625   0.138   0.436
 2171TIP3   OH2 6455   3.838   1.360   5.847
 2171TIP3    H1 6456   3.846   1.365   5.752
 2171TIP3    H2 6457   3.889   1.434   5.879
 2172TIP3   OH2 6458   3.453   4.908   0.386
 2172TIP3    H1 6459   3.373   4.957   0.367
 2172TIP3    H2 6460   3.450   4.894   0.480
 2173TIP3   OH2 6461   6.631   4.932   6.380
 2173TIP3    H1 6462   6.601   4.866   6.318
 2173TIP3    H2 6463   6.723   4.911   6.396
 2174TIP3   OH2 6464   7.053   4.175   4.187
 2174TIP3    H1 6465   7.019   4.235   4.253
 2174TIP3    H2 6466   7.148   4.176   4.200
 2175TIP3   OH2 6467   8.212   1.619   3.011
 2175TIP3    H1 6468   8.134   1.666   2.981
 2175TIP3    H2 6469   8.284   1.660   2.963
 2176TIP3   OH2 6470   6.347   3.520   6.671
 2176TIP3    H1 6471   6.280   3.465   6.633
 2176TIP3    H2 6472   6.419   3.460   6.692
 2177TIP3   OH2 6473   0.041   4.248   5.862
 2177TIP3    H1 6474   0.119   4.247   5.806
 2177TIP3    H2 6475   0.041   4.336   5.900
 2178TIP3   OH2 6476   5.287   6.237   6.030
 2178TIP3    H1 6477   5.197   6.269   6.019
 2178TIP3    H2 6478   5.342   6.309   6.000
 2179TIP3   OH2 6479   0.995   6.699   6.393
 2179TIP3    H1 6480   0.969   6.621   6.344
 2179TIP3    H2 6481   1.090   6.703   6.384
 2180TIP3   OH2 6482   3.271   0.235   5.801
 2180TIP3    H1 6483   3.238   0.283   5.726
 2180TIP3    H2 6484   3.193   0.198   5.843
 2181TIP3   OH2 6485   2.016   6.963   3.003
 2181TIP3    H1 6486   2.073   6.908   2.950
 2181TIP3    H2 6487   1.928   6.941   2.974
 2182TIP3   OH2 6488   6.923   1.039   0.133
 2182TIP3    H1 6489   6.922   0.977   0.061
 2182TIP3    H2 6490   6.919   0.985   0.212
 2183TIP3   OH2 6491   7.897   4.049   2.429
 2183TIP3    H1 6492   7.880   4.033   2.336
 2183TIP3    H2 6493   7.944   3.972   2.458
 2184TIP3   OH2 6494   6.664   6.098   0.248
 2184TIP3    H1 6495   6.638   6.044   0.173
 2184TIP3    H2 6496   6.710   6.039   0.306
 2185TIP3   OH2 6497   1.642   1.813   5.834
 2185TIP3    H1 6498   1.697   1.867   5.891
 2185TIP3    H2 6499   1.698   1.740   5.809
 2186TIP3   OH2 6500   1.576   0.360   0.121
 2186TIP3    H1 6501   1.504   0.343   0.060
 2186TIP3    H2 6502   1.652   0.318   0.080
 2187TIP3   OH2 6503   7.530   7.289   0.834
 2187TIP3    H1 6504   7.527   7.273   0.740
 2187TIP3    H2 6505   7.501   7.207   0.873
 2188TIP3   OH2 6506   2.284   3.946   2.928
 2188TIP3    H1 6507   2.362   3.955   2.873
 2188TIP3    H2 6508   2.220   3.903   2.871
 2189TIP3   OH2 6509   6.471   2.472   0.092
 2189TIP3    H1 6510   6.522   2.548   0.067
 2189TIP3    H2 6511   6.380   2.502   0.091
 2190TIP3   OH2 6512   6.749   0.831   6.598
 2190TIP3    H1 6513   6.843   0.831   6.615
 2190TIP3    H2 6514   6.711   0.780   6.669
 2191TIP3   OH2 6515   4.813   7.402   3.065
 2191TIP3    H1 6516   4.836   7.409   2.973
 2191TIP3    H2 6517   4.720   7.380   3.065
 2192TIP3   OH2 6518   1.449   6.794   5.867
 2192TIP3    H1 6519   1.479   6.863   5.926
 2192TIP3    H2 6520   1.525   6.774   5.813
 2193TIP3   OH2 6521   5.614   5.658   2.553
 2193TIP3    H1 6522   5.638   5.714   2.479
 2193TIP3    H2 6523   5.550   5.709   2.603
 2194TIP3   OH2 6524   0.827   3.131   5.260
 2194TIP3    H1 6525   0.734   3.128   5.284
 2194TIP3    H2 6526   0.870   3.170   5.335
 2195TIP3   OH2 6527   3.896   6.234   2.181
 2195TIP3    H1 6528   3.978   6.272   2.149
 2195TIP3    H2 6529   3.906   6.232   2.276
 2196TIP3   OH2 6530   3.856   5.793   2.497
 2196TIP3    H1 6531   3.857   5.766   2.405
 2196TIP3    H2 6532   3.776   5.755   2.532
 2197TIP3   OH2 6533   5.554   4.600   1.856
 2197TIP3    H1 6534   5.641   4.598   1.816
 2197TIP3    H2 6535   5.569   4.585   1.949
 2198TIP3   OH2 6536   3.278   3.381   0.266
 2198TIP3    H1 6537   3.298   3.452   0.327
 2198TIP3    H2 6538   3.320   3.408   0.184
 2199TIP3   OH2 6539   3.745   1.981   3.588
 2199TIP3    H1 6540   3.754   2.077   3.589
 2199TIP3    H2 6541   3.760   1.957   3.497
 2200TIP3   OH2 6542   7.721   0.894   1.764
 2200TIP3    H1 6543   7.712   0.933   1.850
 2200TIP3    H2 6544   7.704   0.801   1.778
 2201TIP3   OH2 6545   8.040   5.211   1.671
 2201TIP3    H1 6546   7.946   5.205   1.653
 2201TIP3    H2 6547   8.069   5.288   1.623
 2202TIP3   OH2 6548   7.233   1.069   1.030
 2202TIP3    H1 6549   7.233   1.120   0.948
 2202TIP3    H2 6550   7.265   0.983   1.004
 2203TIP3   OH2 6551   6.092   6.795   4.820
 2203TIP3    H1 6552   6.156   6.826   4.756
 2203TIP3    H2 6553   6.080   6.703   4.800
 2204TIP3   OH2 6554   1.146   1.416   4.140
 2204TIP3    H1 6555   1.123   1.330   4.176
 2204TIP3    H2 6556   1.206   1.397   4.068
 2205TIP3   OH2 6557   6.783   4.126   5.751
 2205TIP3    H1 6558   6.833   4.167   5.821
 2205TIP3    H2 6559   6.785   4.190   5.679
 2206TIP3   OH2 6560   6.734   3.184   6.306
 2206TIP3    H1 6561   6.771   3.267   6.276
 2206TIP3    H2 6562   6.753   3.122   6.236
 2207TIP3   OH2 6563   7.122   0.832   6.151
 2207TIP3    H1 6564   7.210   0.839   6.188
 2207TIP3    H2 6565   7.067   0.805   6.224
 2208TIP3   OH2 6566   1.117   5.987   3.572
 2208TIP3    H1 6567   1.201   5.964   3.612
 2208TIP3    H2 6568   1.066   6.026   3.643
 2209TIP3   OH2 6569   3.210   7.621   4.358
 2209TIP3    H1 6570   3.228   7.710   4.390
 2209TIP3    H2 6571   3.117   7.622   4.337
 2210TIP3   OH2 6572   0.094   6.069   2.918
 2210TIP3    H1 6573   0.058   6.155   2.939
 2210TIP3    H2 6574   0.188   6.081   2.921
 2211TIP3   OH2 6575   1.869   0.730   0.012
 2211TIP3    H1 6576   1.861   0.640  -0.021
 2211TIP3    H2 6577   1.913   0.721   0.096
 2212TIP3   OH2 6578   3.000   7.769   0.254
 2212TIP3    H1 6579   3.010   7.853   0.209
 2212TIP3    H2 6580   3.015   7.704   0.185
 2213TIP3   OH2 6581   2.184   0.289   3.396
 2213TIP3    H1 6582   2.243   0.354   3.359
 2213TIP3    H2 6583   2.181   0.309   3.490
 2214TIP3   OH2 6584   4.693   0.722   1.067
 2214TIP3    H1 6585   4.603   0.743   1.042
 2214TIP3    H2 6586   4.689   0.633   1.102
 2215TIP3   OH2 6587   5.575   1.996   0.156
 2215TIP3    H1 6588   5.570   2.064   0.224
 2215TIP3    H2 6589   5.662   2.009   0.117
 2216TIP3   OH2 6590   6.434   6.562   4.525
 2216TIP3    H1 6591   6.353   6.603   4.493
 2216TIP3    H2 6592   6.457   6.614   4.603
 2217TIP3   OH2 6593   7.009   1.120   6.705
 2217TIP3    H1 6594   7.045   1.171   6.777
 2217TIP3    H2 6595   6.964   1.184   6.650
 2218TIP3   OH2 6596   1.314   2.599   5.125
 2218TIP3    H1 6597   1.240   2.620   5.069
 2218TIP3    H2 6598   1.378   2.558   5.067
 2219TIP3   OH2 6599   5.859   7.639   2.071
 2219TIP3    H1 6600   5.784   7.610   2.124
 2219TIP3    H2 6601   5.820   7.688   1.999
 2220TIP3   OH2 6602   6.264   5.906   0.501
 2220TIP3    H1 6603   6.291   5.949   0.420
 2220TIP3    H2 6604   6.324   5.941   0.568
 2221TIP3   OH2 6605   5.974   5.960   3.234
 2221TIP3    H1 6606   6.048   6.005   3.274
 2221TIP3    H2 6607   5.903   5.967   3.298
 2222TIP3   OH2 6608   4.388   5.414   1.396
 2222TIP3    H1 6609   4.320   5.411   1.329
 2222TIP3    H2 6610   4.354   5.474   1.462
 2223TIP3   OH2 6611   4.683   0.358   4.204
 2223TIP3    H1 6612   4.762   0.305   4.198
 2223TIP3    H2 6613   4.708   0.432   4.260
 2224TIP3   OH2 6614   8.239   4.546   2.699
 2224TIP3    H1 6615   8.325   4.510   2.679
 2224TIP3    H2 6616   8.183   4.514   2.628
 2225TIP3   OH2 6617   3.116   2.302   4.828
 2225TIP3    H1 6618   3.138   2.255   4.748
 2225TIP3    H2 6619   3.181   2.271   4.892
 2226TIP3   OH2 6620   4.682   3.355   0.228
 2226TIP3    H1 6621   4.592   3.353   0.261
 2226TIP3    H2 6622   4.729   3.409   0.292
 2227TIP3   OH2 6623   1.783   0.656   0.504
 2227TIP3    H1 6624   1.724   0.615   0.568
 2227TIP3    H2 6625   1.777   0.750   0.522
 2228TIP3   OH2 6626   5.539   5.341   0.584
 2228TIP3    H1 6627   5.460   5.290   0.602
 2228TIP3    H2 6628   5.556   5.327   0.491
 2229TIP3   OH2 6629   3.396   1.785   6.068
 2229TIP3    H1 6630   3.312   1.751   6.101
 2229TIP3    H2 6631   3.462   1.727   6.107
 2230TIP3   OH2 6632   3.544   5.901   4.192
 2230TIP3    H1 6633   3.623   5.876   4.240
 2230TIP3    H2 6634   3.523   5.988   4.225
 2231TIP3   OH2 6635   4.461   4.688   6.552
 2231TIP3    H1 6636   4.527   4.668   6.618
 2231TIP3    H2 6637   4.378   4.678   6.598
 2232TIP3   OH2 6638   3.133   0.260   4.317
 2232TIP3    H1 6639   3.098   0.282   4.404
 2232TIP3    H2 6640   3.056   0.263   4.259
 2233TIP3   OH2 6641   6.976   6.168   1.894
 2233TIP3    H1 6642   7.021   6.251   1.882
 2233TIP3    H2 6643   6.884   6.187   1.878
 2234TIP3   OH2 6644   7.205   1.276   4.155
 2234TIP3    H1 6645   7.252   1.356   4.131
 2234TIP3    H2 6646   7.180   1.289   4.246
 2235TIP3   OH2 6647   8.154   0.990   3.223
 2235TIP3    H1 6648   8.098   0.918   3.195
 2235TIP3    H2 6649   8.220   0.950   3.280
 2236TIP3   OH2 6650   2.680   1.324   4.723
 2236TIP3    H1 6651   2.608   1.302   4.663
 2236TIP3    H2 6652   2.705   1.413   4.698
 2237TIP3   OH2 6653   3.198   5.502   3.267
 2237TIP3    H1 6654   3.161   5.436   3.207
 2237TIP3    H2 6655   3.128   5.565   3.280
 2238TIP3   OH2 6656   6.021   0.449   2.559
 2238TIP3    H1 6657   5.965   0.390   2.509
 2238TIP3    H2 6658   5.967   0.528   2.572
 2239TIP3   OH2 6659   4.898   5.431   3.415
 2239TIP3    H1 6660   4.906   5.496   3.485
 2239TIP3    H2 6661   4.823   5.377   3.441
 2240TIP3   OH2 6662   4.688   1.686   4.499
 2240TIP3    H1 6663   4.730   1.737   4.567
 2240TIP3    H2 6664   4.754   1.621   4.473
 2241TIP3   OH2 6665   1.690   7.074   0.733
 2241TIP3    H1 6666   1.695   7.043   0.823
 2241TIP3    H2 6667   1.781   7.091   0.708
 2242TIP3   OH2 6668   0.747   0.111   3.062
 2242TIP3    H1 6669   0.663   0.100   3.106
 2242TIP3    H2 6670   0.761   0.028   3.015
 2243TIP3   OH2 6671   4.141   0.935   3.440
 2243TIP3    H1 6672   4.144   0.937   3.344
 2243TIP3    H2 6673   4.183   0.852   3.463
 2244TIP3   OH2 6674   5.400   1.831   6.321
 2244TIP3    H1 6675   5.430   1.741   6.322
 2244TIP3    H2 6676   5.335   1.836   6.391
 2245TIP3   OH2 6677   5.537   1.061   0.795
 2245TIP3    H1 6678   5.594   1.130   0.761
 2245TIP3    H2 6679   5.517   1.089   0.885
 2246TIP3   OH2 6680   0.072   3.746   1.885
 2246TIP3    H1 6681   0.022   3.700   1.952
 2246TIP3    H2 6682   0.071   3.688   1.810
 2247TIP3   OH2 6683   2.637   3.795   3.935
 2247TIP3    H1 6684   2.636   3.699   3.935
 2247TIP3    H2 6685   2.724   3.818   3.971
 2248TIP3   OH2 6686   1.914   0.917   3.623
 2248TIP3    H1 6687   1.905   0.965   3.540
 2248TIP3    H2 6688   1.996   0.868   3.613
 2249TIP3   OH2 6689   4.540   5.172   5.348
 2249TIP3    H1 6690   4.479   5.207   5.283
 2249TIP3    H2 6691   4.607   5.127   5.296
 2250TIP3   OH2 6692   3.387   0.525   0.978
 2250TIP3    H1 6693   3.299   0.514   1.013
 2250TIP3    H2 6694   3.386   0.611   0.935
 2251TIP3   OH2 6695   0.852   5.049   1.937
 2251TIP3    H1 6696   0.857   5.126   1.881
 2251TIP3    H2 6697   0.930   5.053   1.992
 2252TIP3   OH2 6698   0.261   3.639   0.775
 2252TIP3    H1 6699   0.296   3.666   0.859
 2252TIP3    H2 6700   0.273   3.714   0.717
 2253TIP3   OH2 6701   5.365   3.601   0.960
 2253TIP3    H1 6702   5.342   3.685   0.920
 2253TIP3    H2 6703   5.319   3.536   0.906
 2254TIP3   OH2 6704   5.604   0.983   5.690
 2254TIP3    H1 6705   5.604   0.902   5.741
 2254TIP3    H2 6706   5.647   0.960   5.608
 2255TIP3   OH2 6707   3.980   3.616   2.322
 2255TIP3    H1 6708   4.065   3.649   2.295
 2255TIP3    H2 6709   3.919   3.645   2.254
 2256TIP3   OH2 6710   3.947   1.876   2.287
 2256TIP3    H1 6711   3.872   1.855   2.231
 2256TIP3    H2 6712   3.908   1.903   2.370
 2257TIP3   OH2 6713   4.557   2.740   4.433
 2257TIP3    H1 6714   4.473   2.694   4.443
 2257TIP3    H2 6715   4.611   2.681   4.381
 2258TIP3   OH2 6716   2.302   5.613   2.708
 2258TIP3    H1 6717   2.389   5.630   2.743
 2258TIP3    H2 6718   2.307   5.643   2.617
 2259TIP3   OH2 6719   1.929   2.200   3.456
 2259TIP3    H1 6720   1.978   2.123   3.484
 2259TIP3    H2 6721   1.901   2.180   3.367
 2260TIP3   OH2 6722   0.373   5.616   6.524
 2260TIP3    H1 6723   0.396   5.614   6.617
 2260TIP3    H2 6724   0.309   5.546   6.514
 2261TIP3   OH2 6725   7.490   4.951   5.391
 2261TIP3    H1 6726   7.553   4.890   5.353
 2261TIP3    H2 6727   7.494   5.028   5.336
 2262TIP3   OH2 6728   1.711   5.098   6.431
 2262TIP3    H1 6729   1.671   5.027   6.480
 2262TIP3    H2 6730   1.721   5.169   6.495
 2263TIP3   OH2 6731   2.604   3.458   0.433
 2263TIP3    H1 6732   2.692   3.489   0.413
 2263TIP3    H2 6733   2.604   3.366   0.405
 2264TIP3   OH2 6734   4.821   2.654   5.044
 2264TIP3    H1 6735   4.775   2.645   4.961
 2264TIP3    H2 6736   4.752   2.669   5.109
 2265TIP3   OH2 6737   7.423   6.693   0.443
 2265TIP3    H1 6738   7.464   6.779   0.455
 2265TIP3    H2 6739   7.496   6.636   0.418
 2266TIP3   OH2 6740   7.175   1.212   0.141
 2266TIP3    H1 6741   7.106   1.226   0.206
 2266TIP3    H2 6742   7.128   1.198   0.059
 2267TIP3   OH2 6743   6.680   0.074   4.341
 2267TIP3    H1 6744   6.616   0.128   4.295
 2267TIP3    H2 6745   6.656   0.083   4.434
 2268TIP3   OH2 6746   2.537   6.276   3.630
 2268TIP3    H1 6747   2.530   6.200   3.688
 2268TIP3    H2 6748   2.461   6.330   3.652
 2269TIP3   OH2 6749   1.534   7.521   2.805
 2269TIP3    H1 6750   1.588   7.519   2.883
 2269TIP3    H2 6751   1.517   7.430   2.784
 2270TIP3   OH2 6752   4.157   0.631   5.615
 2270TIP3    H1 6753   4.237   0.685   5.617
 2270TIP3    H2 6754   4.087   0.692   5.635
 2271TIP3   OH2 6755   0.650   7.807   3.252
 2271TIP3    H1 6756   0.617   7.720   3.274
 2271TIP3    H2 6757   0.600   7.833   3.175
 2272TIP3   OH2 6758   3.248   5.364   1.322
 2272TIP3    H1 6759   3.247   5.307   1.399
 2272TIP3    H2 6760   3.207   5.445   1.352
 2273TIP3   OH2 6761   3.978   3.165   0.296
 2273TIP3    H1 6762   3.978   3.087   0.351
 2273TIP3    H2 6763   3.969   3.132   0.207
 2274TIP3   OH2 6764   7.408   7.644   3.940
 2274TIP3    H1 6765   7.344   7.660   4.010
 2274TIP3    H2 6766   7.383   7.706   3.871
 2275TIP3   OH2 6767   2.927   4.482   3.919
 2275TIP3    H1 6768   3.019   4.491   3.940
 2275TIP3    H2 6769   2.890   4.432   3.993
 2276TIP3   OH2 6770   7.830   4.034   4.640
 2276TIP3    H1 6771   7.905   4.038   4.700
 2276TIP3    H2 6772   7.841   4.110   4.583
 2277TIP3   OH2 6773   3.533   0.668   2.447
 2277TIP3    H1 6774   3.480   0.720   2.385
 2277TIP3    H2 6775   3.478   0.662   2.525
 2278TIP3   OH2 6776   1.385   2.865   2.243
 2278TIP3    H1 6777   1.433   2.903   2.317
 2278TIP3    H2 6778   1.416   2.914   2.167
 2279TIP3   OH2 6779   4.842   2.844   0.528
 2279TIP3    H1 6780   4.888   2.831   0.611
 2279TIP3    H2 6781   4.874   2.928   0.496
 2280TIP3   OH2 6782   7.529   0.034   1.597
 2280TIP3    H1 6783   7.624   0.022   1.595
 2280TIP3    H2 6784   7.505   0.055   1.506
 2281TIP3   OH2 6785   2.523   1.162   5.244
 2281TIP3    H1 6786   2.555   1.237   5.293
 2281TIP3    H2 6787   2.576   1.089   5.276
 2282TIP3   OH2 6788   2.753   6.338   2.950
 2282TIP3    H1 6789   2.701   6.298   2.881
 2282TIP3    H2 6790   2.794   6.265   2.996
 2283TIP3   OH2 6791   0.218   0.140   2.493
 2283TIP3    H1 6792   0.134   0.093   2.492
 2283TIP3    H2 6793   0.203   0.216   2.438
 2284TIP3   OH2 6794   2.862   7.474   3.706
 2284TIP3    H1 6795   2.783   7.466   3.759
 2284TIP3    H2 6796   2.840   7.430   3.623
 2285TIP3   OH2 6797   0.176   3.101   5.194
 2285TIP3    H1 6798   0.252   3.139   5.237
 2285TIP3    H2 6799   0.148   3.030   5.252
 2286TIP3   OH2 6800   3.760   5.581   0.176
 2286TIP3    H1 6801   3.820   5.632   0.231
 2286TIP3    H2 6802   3.710   5.529   0.239
 2287TIP3   OH2 6803   2.683   0.543   4.138
 2287TIP3    H1 6804   2.730   0.624   4.119
 2287TIP3    H2 6805   2.591   0.563   4.119
 2288TIP3   OH2 6806   6.618   2.126   3.084
 2288TIP3    H1 6807   6.631   2.092   3.172
 2288TIP3    H2 6808   6.565   2.205   3.096
 2289TIP3   OH2 6809   1.691   5.121   5.152
 2289TIP3    H1 6810   1.714   5.209   5.123
 2289TIP3    H2 6811   1.731   5.063   5.087
 2290TIP3   OH2 6812   4.277   5.297   4.322
 2290TIP3    H1 6813   4.315   5.233   4.381
 2290TIP3    H2 6814   4.257   5.372   4.378
 2291TIP3   OH2 6815   6.470   6.333   2.537
 2291TIP3    H1 6816   6.415   6.289   2.472
 2291TIP3    H2 6817   6.559   6.319   2.507
 2292TIP3   OH2 6818   2.180   0.101   4.421
 2292TIP3    H1 6819   2.251   0.118   4.360
 2292TIP3    H2 6820   2.107   0.154   4.389
 2293TIP3   OH2 6821   7.800   7.530   2.048
 2293TIP3    H1 6822   7.781   7.604   2.106
 2293TIP3    H2 6823   7.848   7.569   1.975
 2294TIP3   OH2 6824   0.836   6.028   4.623
 2294TIP3    H1 6825   0.847   6.061   4.712
 2294TIP3    H2 6826   0.895   6.081   4.570
 2295TIP3   OH2 6827   7.817   1.221   3.686
 2295TIP3    H1 6828   7.792   1.188   3.599
 2295TIP3    H2 6829   7.827   1.142   3.739
 2296TIP3   OH2 6830   3.515   1.171   1.289
 2296TIP3    H1 6831   3.426   1.157   1.321
 2296TIP3    H2 6832   3.571   1.132   1.356
 2297TIP3   OH2 6833   2.825   6.827   2.165
 2297TIP3    H1 6834   2.862   6.868   2.243
 2297TIP3    H2 6835   2.901   6.806   2.110
 2298TIP3   OH2 6836   6.669   1.391   5.626
 2298TIP3    H1 6837   6.601   1.433   5.574
 2298TIP3    H2 6838   6.624   1.320   5.672
 2299TIP3   OH2 6839   6.302   4.450   2.902
 2299TIP3    H1 6840   6.281   4.389   2.973
 2299TIP3    H2 6841   6.252   4.417   2.827
 2300TIP3   OH2 6842   4.314   3.441   5.072
 2300TIP3    H1 6843   4.375   3.506   5.037
 2300TIP3    H2 6844   4.337   3.360   5.026
 2301TIP3   OH2 6845   0.776   6.577   0.720
 2301TIP3    H1 6846   0.824   6.532   0.650
 2301TIP3    H2 6847   0.710   6.629   0.675
 2302TIP3   OH2 6848   5.038   6.355   5.948
 2302TIP3    H1 6849   4.996   6.273   5.971
 2302TIP3    H2 6850   4.966   6.412   5.919
 2303TIP3   OH2 6851   5.752   7.132   6.567
 2303TIP3    H1 6852   5.769   7.098   6.655
 2303TIP3    H2 6853   5.663   7.167   6.573
 2304TIP3   OH2 6854   0.263   1.729   3.470
 2304TIP3    H1 6855   0.194   1.721   3.404
 2304TIP3    H2 6856   0.271   1.824   3.483
 2305TIP3   OH2 6857   1.556   1.586   4.765
 2305TIP3    H1 6858   1.642   1.551   4.741
 2305TIP3    H2 6859   1.494   1.531   4.719
 2306TIP3   OH2 6860   7.133   7.542   1.016
 2306TIP3    H1 6861   7.149   7.616   0.957
 2306TIP3    H2 6862   7.093   7.476   0.960
 2307TIP3   OH2 6863   2.498   1.886   5.861
 2307TIP3    H1 6864   2.521   1.901   5.770
 2307TIP3    H2 6865   2.500   1.973   5.902
 2308TIP3   OH2 6866   7.426   5.290   0.806
 2308TIP3    H1 6867   7.498   5.233   0.778
 2308TIP3    H2 6868   7.370   5.233   0.859
 2309TIP3   OH2 6869   6.112   7.250   2.915
 2309TIP3    H1 6870   6.198   7.264   2.876
 2309TIP3    H2 6871   6.130   7.235   3.008
 2310TIP3   OH2 6872   0.438   5.086   0.551
 2310TIP3    H1 6873   0.448   5.029   0.627
 2310TIP3    H2 6874   0.393   5.032   0.486
 2311TIP3   OH2 6875   0.619   3.046   0.736
 2311TIP3    H1 6876   0.681   3.117   0.750
 2311TIP3    H2 6877   0.611   3.038   0.641
 2312TIP3   OH2 6878   4.317   1.370   6.586
 2312TIP3    H1 6879   4.360   1.353   6.670
 2312TIP3    H2 6880   4.382   1.418   6.535
 2313TIP3   OH2 6881   6.833   2.721   3.435
 2313TIP3    H1 6882   6.789   2.775   3.501
 2313TIP3    H2 6883   6.769   2.710   3.365
 2314TIP3   OH2 6884   0.867   2.527   2.936
 2314TIP3    H1 6885   0.886   2.595   2.871
 2314TIP3    H2 6886   0.860   2.446   2.885
 2315TIP3   OH2 6887   0.899   7.272   0.359
 2315TIP3    H1 6888   0.979   7.298   0.312
 2315TIP3    H2 6889   0.908   7.313   0.445
 2316TIP3   OH2 6890   8.176   6.229   2.534
 2316TIP3    H1 6891   8.113   6.301   2.542
 2316TIP3    H2 6892   8.123   6.150   2.533
 2317TIP3   OH2 6893   0.606   0.859   6.071
 2317TIP3    H1 6894   0.626   0.952   6.078
 2317TIP3    H2 6895   0.686   0.815   6.101
 2318TIP3   OH2 6896   3.569   2.937   2.361
 2318TIP3    H1 6897   3.546   2.898   2.446
 2318TIP3    H2 6898   3.664   2.933   2.358
 2319TIP3   OH2 6899   7.785   5.251   1.585
 2319TIP3    H1 6900   7.784   5.242   1.489
 2319TIP3    H2 6901   7.693   5.248   1.611
 2320TIP3   OH2 6902   4.610   1.353   0.386
 2320TIP3    H1 6903   4.585   1.444   0.367
 2320TIP3    H2 6904   4.532   1.302   0.364
 2321TIP3   OH2 6905   6.338   6.662   6.428
 2321TIP3    H1 6906   6.287   6.727   6.476
 2321TIP3    H2 6907   6.301   6.578   6.454
 2322TIP3   OH2 6908   8.257   4.175   0.513
 2322TIP3    H1 6909   8.204   4.197   0.437
 2322TIP3    H2 6910   8.264   4.079   0.510
 2323TIP3   OH2 6911   7.758   6.373   1.317
 2323TIP3    H1 6912   7.790   6.402   1.402
 2323TIP3    H2 6913   7.829   6.320   1.280
 2324TIP3   OH2 6914   3.330   5.333   1.955
 2324TIP3    H1 6915   3.281   5.415   1.950
 2324TIP3    H2 6916   3.263   5.265   1.945
 2325TIP3   OH2 6917   4.045   3.033   3.666
 2325TIP3    H1 6918   4.056   3.024   3.571
 2325TIP3    H2 6919   4.134   3.032   3.701
 2326TIP3   OH2 6920   1.696   4.388   2.387
 2326TIP3    H1 6921   1.654   4.436   2.316
 2326TIP3    H2 6922   1.770   4.442   2.413
 2327TIP3   OH2 6923   6.077   4.505   6.491
 2327TIP3    H1 6924   6.113   4.454   6.418
 2327TIP3    H2 6925   6.063   4.593   6.455
 2328TIP3   OH2 6926   1.301   1.149   4.786
 2328TIP3    H1 6927   1.341   1.206   4.852
 2328TIP3    H2 6928   1.370   1.087   4.763
 2329TIP3   OH2 6929   7.676   5.647   1.186
 2329TIP3    H1 6930   7.598   5.679   1.140
 2329TIP3    H2 6931   7.745   5.708   1.161
 2330TIP3   OH2 6932   7.666   4.090   1.505
 2330TIP3    H1 6933   7.712   4.089   1.421
 2330TIP3    H2 6934   7.574   4.080   1.481
 2331TIP3   OH2 6935   6.158   4.787   5.965
 2331TIP3    H1 6936   6.245   4.809   5.931
 2331TIP3    H2 6937   6.105   4.864   5.945
 2332TIP3   OH2 6938   0.905   3.628   1.339
 2332TIP3    H1 6939   0.981   3.582   1.374
 2332TIP3    H2 6940   0.830   3.583   1.378
 2333TIP3   OH2 6941   6.739   1.003   2.495
 2333TIP3    H1 6942   6.694   1.088   2.502
 2333TIP3    H2 6943   6.668   0.939   2.486
 2334TIP3   OH2 6944   5.306   0.128   6.732
 2334TIP3    H1 6945   5.393   0.091   6.720
 2334TIP3    H2 6946   5.249   0.052   6.745
 2335TIP3   OH2 6947   3.546   3.709   2.000
 2335TIP3    H1 6948   3.500   3.667   1.928
 2335TIP3    H2 6949   3.477   3.748   2.054
 2336TIP3   OH2 6950   0.812   5.858   6.160
 2336TIP3    H1 6951   0.765   5.841   6.242
 2336TIP3    H2 6952   0.841   5.949   6.167
 2337TIP3   OH2 6953   3.811   2.302   6.211
 2337TIP3    H1 6954   3.878   2.361   6.245
 2337TIP3    H2 6955   3.815   2.315   6.116
 2338TIP3   OH2 6956   0.101   2.489   0.084
 2338TIP3    H1 6957   0.115   2.395   0.095
 2338TIP3    H2 6958   0.170   2.530   0.135
 2339TIP3   OH2 6959   7.757   7.273   0.083
 2339TIP3    H1 6960   7.807   7.225   0.018
 2339TIP3    H2 6961   7.681   7.307   0.035
 2340TIP3   OH2 6962   3.054   7.319   5.876
 2340TIP3    H1 6963   3.118   7.368   5.824
 2340TIP3    H2 6964   3.098   7.304   5.960
 2341TIP3   OH2 6965   7.216   1.555   1.832
 2341TIP3    H1 6966   7.254   1.614   1.768
 2341TIP3    H2 6967   7.126   1.542   1.802
 2342TIP3   OH2 6968   3.697   3.452   2.307
 2342TIP3    H1 6969   3.619   3.428   2.257
 2342TIP3    H2 6970   3.744   3.369   2.318
 2343TIP3   OH2 6971   2.004   0.394   1.575
 2343TIP3    H1 6972   2.028   0.400   1.482
 2343TIP3    H2 6973   1.910   0.409   1.576
 2344TIP3   OH2 6974   3.538   1.071   2.231
 2344TIP3    H1 6975   3.564   0.982   2.206
 2344TIP3    H2 6976   3.505   1.062   2.320
 2345TIP3   OH2 6977   0.664   3.418   1.433
 2345TIP3    H1 6978   0.587   3.362   1.431
 2345TIP3    H2 6979   0.713   3.394   1.354
 2346TIP3   OH2 6980   2.154   3.787   5.832
 2346TIP3    H1 6981   2.091   3.770   5.903
 2346TIP3    H2 6982   2.238   3.797   5.876
 2347TIP3   OH2 6983   1.608   5.641   2.949
 2347TIP3    H1 6984   1.650   5.555   2.939
 2347TIP3    H2 6985   1.681   5.701   2.962
 2348TIP3   OH2 6986   2.309   3.136   0.960
 2348TIP3    H1 6987   2.377   3.146   0.894
 2348TIP3    H2 6988   2.335   3.195   1.031
 2349TIP3   OH2 6989   2.805   6.709   0.703
 2349TIP3    H1 6990   2.846   6.649   0.766
 2349TIP3    H2 6991   2.734   6.750   0.752
 2350TIP3   OH2 6992  -0.001   6.442   4.689
 2350TIP3    H1 6993   0.088   6.472   4.669
 2350TIP3    H2 6994   0.010   6.379   4.760
 2351TIP3   OH2 6995   2.129   6.963   4.738
 2351TIP3    H1 6996   2.180   6.882   4.739
 2351TIP3    H2 6997   2.112   6.983   4.830
 2352TIP3   OH2 6998   5.444   7.798   1.020
 2352TIP3    H1 6999   5.514   7.733   1.030
 2352TIP3    H2 7000   5.397   7.796   1.104
 2353TIP3   OH2 7001   6.447   1.588   2.117
 2353TIP3    H1 7002   6.531   1.541   2.113
 2353TIP3    H2 7003   6.393   1.534   2.176
 2354TIP3   OH2 7004   0.776   5.229   5.532
 2354TIP3    H1 7005   0.764   5.243   5.438
 2354TIP3    H2 7006   0.719   5.155   5.552
 2355TIP3   OH2 7007   5.737   3.135   4.331
 2355TIP3    H1 7008   5.781   3.054   4.355
 2355TIP3    H2 7009   5.774   3.158   4.246
 2356TIP3   OH2 7010   3.757   7.790   5.280
 2356TIP3    H1 7011   3.686   7.756   5.226
 2356TIP3    H2 7012   3.834   7.739   5.254
 2357TIP3   OH2 7013   3.500   6.026   2.275
 2357TIP3    H1 7014   3.568   6.047   2.210
 2357TIP3    H2 7015   3.465   5.942   2.246
 2358TIP3   OH2 7016   4.352   5.630   6.294
 2358TIP3    H1 7017   4.297   5.684   6.351
 2358TIP3    H2 7018   4.291   5.569   6.252
 2359TIP3   OH2 7019   4.516   6.452   2.348
 2359TIP3    H1 7020   4.536   6.469   2.256
 2359TIP3    H2 7021   4.589   6.491   2.396
 2360TIP3   OH2 7022   4.287   1.036   0.542
 2360TIP3    H1 7023   4.333   0.954   0.522
 2360TIP3    H2 7024   4.194   1.015   0.532
 2361TIP3   OH2 7025   3.666   5.970   5.262
 2361TIP3    H1 7026   3.658   5.878   5.286
 2361TIP3    H2 7027   3.618   5.978   5.180
 2362TIP3   OH2 7028   1.412   6.066   6.009
 2362TIP3    H1 7029   1.359   6.000   5.964
 2362TIP3    H2 7030   1.380   6.150   5.974
 2363TIP3   OH2 7031   1.987   4.103   3.007
 2363TIP3    H1 7032   1.992   4.058   3.092
 2363TIP3    H2 7033   2.079   4.115   2.981
 2364TIP3   OH2 7034   1.674   7.397   4.621
 2364TIP3    H1 7035   1.641   7.390   4.532
 2364TIP3    H2 7036   1.598   7.381   4.677
 2365TIP3   OH2 7037   0.335   3.826   2.283
 2365TIP3    H1 7038   0.275   3.900   2.291
 2365TIP3    H2 7039   0.315   3.788   2.197
 2366TIP3   OH2 7040   3.609   1.302   0.598
 2366TIP3    H1 7041   3.582   1.216   0.567
 2366TIP3    H2 7042   3.611   1.356   0.520
 2367TIP3   OH2 7043   0.869   1.447   2.476
 2367TIP3    H1 7044   0.949   1.396   2.490
 2367TIP3    H2 7045   0.867   1.464   2.382
 2368TIP3   OH2 7046   0.925   1.450   2.831
 2368TIP3    H1 7047   0.957   1.363   2.809
 2368TIP3    H2 7048   1.002   1.495   2.868
 2369TIP3   OH2 7049   3.414   5.810   1.271
 2369TIP3    H1 7050   3.432   5.717   1.264
 2369TIP3    H2 7051   3.349   5.828   1.203
 2370TIP3   OH2 7052   5.673   7.546   0.376
 2370TIP3    H1 7053   5.666   7.456   0.344
 2370TIP3    H2 7054   5.744   7.584   0.324
 2371TIP3   OH2 7055   7.065   3.952   3.109
 2371TIP3    H1 7056   6.972   3.954   3.131
 2371TIP3    H2 7057   7.069   3.903   3.027
 2372TIP3   OH2 7058   7.717   1.430   2.381
 2372TIP3    H1 7059   7.659   1.359   2.356
 2372TIP3    H2 7060   7.674   1.509   2.350
 2373TIP3   OH2 7061   7.300   5.249   1.658
 2373TIP3    H1 7062   7.375   5.297   1.624
 2373TIP3    H2 7063   7.304   5.164   1.615
 2374TIP3   OH2 7064   3.673   3.367   1.145
 2374TIP3    H1 7065   3.710   3.354   1.058
 2374TIP3    H2 7066   3.636   3.281   1.168
 2375TIP3   OH2 7067   3.287   3.570   5.226
 2375TIP3    H1 7068   3.290   3.596   5.318
 2375TIP3    H2 7069   3.205   3.608   5.194
 2376TIP3   OH2 7070   7.810   2.484   6.716
 2376TIP3    H1 7071   7.886   2.464   6.770
 2376TIP3    H2 7072   7.842   2.481   6.626
 2377TIP3   OH2 7073   4.541   4.382   2.999
 2377TIP3    H1 7074   4.593   4.410   2.924
 2377TIP3    H2 7075   4.553   4.450   3.064
 2378TIP3   OH2 7076   1.525   7.729   1.411
 2378TIP3    H1 7077   1.501   7.714   1.320
 2378TIP3    H2 7078   1.464   7.796   1.442
 2379TIP3   OH2 7079   2.967   4.341   0.275
 2379TIP3    H1 7080   2.966   4.264   0.332
 2379TIP3    H2 7081   3.058   4.372   0.278
 2380TIP3   OH2 7082   6.865   7.210   0.515
 2380TIP3    H1 7083   6.846   7.128   0.470
 2380TIP3    H2 7084   6.916   7.261   0.452
 2381TIP3   OH2 7085   5.462   6.663   4.916
 2381TIP3    H1 7086   5.535   6.603   4.927
 2381TIP3    H2 7087   5.493   6.746   4.953
 2382TIP3   OH2 7088   2.250   0.023   6.280
 2382TIP3    H1 7089   2.244  -0.058   6.331
 2382TIP3    H2 7090   2.298   0.084   6.336
 2383TIP3   OH2 7091   7.334   7.793   4.593
 2383TIP3    H1 7092   7.241   7.780   4.611
 2383TIP3    H2 7093   7.379   7.738   4.657
 2384TIP3   OH2 7094   7.902   3.389   4.615
 2384TIP3    H1 7095   7.881   3.363   4.525
 2384TIP3    H2 7096   7.995   3.370   4.625
 2385TIP3   OH2 7097   2.416   0.112   6.689
 2385TIP3    H1 7098   2.377   0.151   6.610
 2385TIP3    H2 7099   2.363   0.034   6.705
 2386TIP3   OH2 7100   7.322   5.028   6.066
 2386TIP3    H1 7101   7.375   5.003   5.991
 2386TIP3    H2 7102   7.383   5.073   6.125
 2387TIP3   OH2 7103   3.466   5.863   0.649
 2387TIP3    H1 7104   3.482   5.954   0.623
 2387TIP3    H2 7105   3.494   5.860   0.741
 2388TIP3   OH2 7106   7.989   6.097   0.578
 2388TIP3    H1 7107   7.952   6.011   0.594
 2388TIP3    H2 7108   8.076   6.094   0.617
 2389TIP3   OH2 7109   0.942   1.941   1.278
 2389TIP3    H1 7110   0.885   1.982   1.214
 2389TIP3    H2 7111   0.897   1.861   1.303
 2390TIP3   OH2 7112   6.062   0.658   2.112
 2390TIP3    H1 7113   6.152   0.689   2.099
 2390TIP3    H2 7114   6.072   0.578   2.163
 2391TIP3   OH2 7115   0.328   7.409   4.145
 2391TIP3    H1 7116   0.361   7.481   4.091
 2391TIP3    H2 7117   0.233   7.420   4.144
 2392TIP3   OH2 7118   1.683   3.710   5.106
 2392TIP3    H1 7119   1.642   3.757   5.179
 2392TIP3    H2 7120   1.609   3.676   5.055
 2393TIP3   OH2 7121   7.126   0.133   0.904
 2393TIP3    H1 7122   7.084   0.107   0.822
 2393TIP3    H2 7123   7.164   0.052   0.938
 2394TIP3   OH2 7124   5.627   0.107   5.986
 2394TIP3    H1 7125   5.685   0.183   5.990
 2394TIP3    H2 7126   5.590   0.109   5.898
 2395TIP3   OH2 7127   3.905   2.398   5.909
 2395TIP3    H1 7128   3.909   2.348   5.827
 2395TIP3    H2 7129   3.870   2.483   5.884
 2396TIP3   OH2 7130   1.472   1.745   2.794
 2396TIP3    H1 7131   1.473   1.772   2.702
 2396TIP3    H2 7132   1.509   1.820   2.841
 2397TIP3   OH2 7133   5.771   0.897   0.243
 2397TIP3    H1 7134   5.826   0.975   0.238
 2397TIP3    H2 7135   5.716   0.900   0.165
 2398TIP3   OH2 7136   7.571   4.799   1.709
 2398TIP3    H1 7137   7.641   4.862   1.724
 2398TIP3    H2 7138   7.574   4.741   1.785
 2399TIP3   OH2 7139   0.608   7.130   6.386
 2399TIP3    H1 7140   0.587   7.195   6.319
 2399TIP3    H2 7141   0.572   7.048   6.351
 2400TIP3   OH2 7142   8.219   0.804   0.919
 2400TIP3    H1 7143   8.221   0.807   0.823
 2400TIP3    H2 7144   8.311   0.798   0.945
 2401TIP3   OH2 7145   2.265   6.150   1.586
 2401TIP3    H1 7146   2.216   6.080   1.544
 2401TIP3    H2 7147   2.229   6.156   1.674
 2402TIP3   OH2 7148   3.705   4.293   1.724
 2402TIP3    H1 7149   3.769   4.362   1.739
 2402TIP3    H2 7150   3.735   4.220   1.779
 2403TIP3   OH2 7151   7.450   3.138   6.090
 2403TIP3    H1 7152   7.464   3.101   6.004
 2403TIP3    H2 7153   7.489   3.225   6.086
 2404TIP3   OH2 7154   1.786   1.594   2.549
 2404TIP3    H1 7155   1.873   1.573   2.517
 2404TIP3    H2 7156   1.799   1.619   2.641
 2405TIP3   OH2 7157   0.430   3.314   4.826
 2405TIP3    H1 7158   0.378   3.255   4.881
 2405TIP3    H2 7159   0.369   3.344   4.758
 2406TIP3   OH2 7160   6.444   5.566   3.270
 2406TIP3    H1 7161   6.517   5.578   3.210
 2406TIP3    H2 7162   6.392   5.496   3.232
 2407TIP3   OH2 7163   3.064   4.797   6.182
 2407TIP3    H1 7164   3.134   4.852   6.219
 2407TIP3    H2 7165   2.984   4.846   6.199
 2408TIP3   OH2 7166   2.974   5.040   0.914
 2408TIP3    H1 7167   2.909   5.058   0.982
 2408TIP3    H2 7168   3.008   4.953   0.936
 2409TIP3   OH2 7169   3.057   7.029   4.797
 2409TIP3    H1 7170   3.041   7.080   4.717
 2409TIP3    H2 7171   3.050   6.938   4.769
 2410TIP3   OH2 7172   0.919   6.270   1.812
 2410TIP3    H1 7173   0.893   6.196   1.867
 2410TIP3    H2 7174   0.965   6.230   1.738
 2411TIP3   OH2 7175   7.067   6.906   4.564
 2411TIP3    H1 7176   7.046   6.885   4.655
 2411TIP3    H2 7177   7.013   6.982   4.543
 2412TIP3   OH2 7178   3.280   7.313   0.596
 2412TIP3    H1 7179   3.238   7.231   0.572
 2412TIP3    H2 7180   3.245   7.334   0.682
 2413TIP3   OH2 7181   5.061   3.820   3.850
 2413TIP3    H1 7182   5.107   3.757   3.904
 2413TIP3    H2 7183   5.128   3.851   3.788
 2414TIP3   OH2 7184   2.022   6.806   2.244
 2414TIP3    H1 7185   2.051   6.738   2.304
 2414TIP3    H2 7186   1.986   6.757   2.169
 2415TIP3   OH2 7187   0.431   4.117   2.908
 2415TIP3    H1 7188   0.420   4.180   2.979
 2415TIP3    H2 7189   0.342   4.084   2.892
 2416TIP3   OH2 7190   4.359   2.844   3.513
 2416TIP3    H1 7191   4.310   2.818   3.435
 2416TIP3    H2 7192   4.449   2.816   3.495
 2417TIP3   OH2 7193   2.978   4.379   5.011
 2417TIP3    H1 7194   2.977   4.327   5.091
 2417TIP3    H2 7195   3.051   4.440   5.023
 2418TIP3   OH2 7196   7.598   5.099   4.027
 2418TIP3    H1 7197   7.652   5.046   4.085
 2418TIP3    H2 7198   7.515   5.110   4.074
 2419TIP3   OH2 7199   0.215   4.085   5.244
 2419TIP3    H1 7200   0.179   4.161   5.290
 2419TIP3    H2 7201   0.300   4.116   5.212
 2420TIP3   OH2 7202   7.240   0.506   4.416
 2420TIP3    H1 7203   7.178   0.464   4.476
 2420TIP3    H2 7204   7.322   0.457   4.428
 2421TIP3   OH2 7205   2.757   3.145   1.397
 2421TIP3    H1 7206   2.663   3.161   1.408
 2421TIP3    H2 7207   2.784   3.103   1.478
 2422TIP3   OH2 7208   4.929   5.392   4.490
 2422TIP3    H1 7209   4.988   5.344   4.549
 2422TIP3    H2 7210   4.891   5.324   4.434
 2423TIP3   OH2 7211   5.066   7.312   3.155
 2423TIP3    H1 7212   5.000   7.378   3.136
 2423TIP3    H2 7213   5.026   7.229   3.128
 2424TIP3   OH2 7214   6.282   1.654   5.925
 2424TIP3    H1 7215   6.275   1.563   5.895
 2424TIP3    H2 7216   6.361   1.655   5.979
 2425TIP3   OH2 7217   5.357   0.159   6.461
 2425TIP3    H1 7218   5.363   0.150   6.556
 2425TIP3    H2 7219   5.444   0.135   6.429
 2426TIP3   OH2 7220   2.865   4.502   5.260
 2426TIP3    H1 7221   2.943   4.551   5.284
 2426TIP3    H2 7222   2.794   4.545   5.308
 2427TIP3   OH2 7223   1.908   7.558   0.792
 2427TIP3    H1 7224   1.849   7.561   0.868
 2427TIP3    H2 7225   1.869   7.620   0.730
 2428TIP3   OH2 7226   3.888   2.841   3.760
 2428TIP3    H1 7227   3.954   2.899   3.722
 2428TIP3    H2 7228   3.929   2.805   3.838
 2429TIP3   OH2 7229   3.463   3.299   2.592
 2429TIP3    H1 7230   3.448   3.270   2.502
 2429TIP3    H2 7231   3.486   3.392   2.584
 2430TIP3   OH2 7232   2.743   2.374   2.393
 2430TIP3    H1 7233   2.800   2.332   2.329
 2430TIP3    H2 7234   2.655   2.362   2.358
 2431TIP3   OH2 7235   1.889   5.559   2.806
 2431TIP3    H1 7236   1.974   5.516   2.808
 2431TIP3    H2 7237   1.827   5.492   2.837
 2432TIP3   OH2 7238   5.888   7.113   4.101
 2432TIP3    H1 7239   5.805   7.068   4.116
 2432TIP3    H2 7240   5.919   7.079   4.017
 2433TIP3   OH2 7241   1.898   6.223   3.095
 2433TIP3    H1 7242   1.812   6.264   3.106
 2433TIP3    H2 7243   1.880   6.146   3.040
 2434TIP3   OH2 7244   3.610   3.075   0.610
 2434TIP3    H1 7245   3.623   3.137   0.539
 2434TIP3    H2 7246   3.615   2.989   0.568
 2435TIP3   OH2 7247   6.661   6.001   0.789
 2435TIP3    H1 7248   6.747   5.959   0.788
 2435TIP3    H2 7249   6.673   6.082   0.740
 2436TIP3   OH2 7250   1.934   7.178   4.400
 2436TIP3    H1 7251   1.842   7.204   4.393
 2436TIP3    H2 7252   1.977   7.253   4.440
 2437TIP3   OH2 7253   7.592   6.679   1.478
 2437TIP3    H1 7254   7.653   6.695   1.406
 2437TIP3    H2 7255   7.638   6.709   1.556
 2438TIP3   OH2 7256   4.730   3.708   6.455
 2438TIP3    H1 7257   4.747   3.632   6.511
 2438TIP3    H2 7258   4.676   3.766   6.508
 2439TIP3   OH2 7259   8.221   5.832   6.385
 2439TIP3    H1 7260   8.132   5.866   6.394
 2439TIP3    H2 7261   8.266   5.863   6.463
 2440TIP3   OH2 7262   6.528   5.525   6.013
 2440TIP3    H1 7263   6.466   5.509   5.943
 2440TIP3    H2 7264   6.569   5.609   5.990
 2441TIP3   OH2 7265   7.429   2.236   3.989
 2441TIP3    H1 7266   7.469   2.150   3.971
 2441TIP3    H2 7267   7.428   2.242   4.084
 2442TIP3   OH2 7268   1.386   0.791   1.273
 2442TIP3    H1 7269   1.479   0.770   1.283
 2442TIP3    H2 7270   1.374   0.805   1.180
 2443TIP3   OH2 7271   2.847   7.840   4.883
 2443TIP3    H1 7272   2.927   7.804   4.920
 2443TIP3    H2 7273   2.803   7.881   4.956
 2444TIP3   OH2 7274   3.572   0.721   1.727
 2444TIP3    H1 7275   3.481   0.712   1.757
 2444TIP3    H2 7276   3.612   0.636   1.747
 2445TIP3   OH2 7277   5.511   3.244   4.692
 2445TIP3    H1 7278   5.559   3.180   4.745
 2445TIP3    H2 7279   5.420   3.231   4.717
 2446TIP3   OH2 7280   1.615   5.573   5.903
 2446TIP3    H1 7281   1.569   5.596   5.822
 2446TIP3    H2 7282   1.680   5.642   5.915
 2447TIP3   OH2 7283   7.166   6.636   2.639
 2447TIP3    H1 7284   7.212   6.635   2.555
 2447TIP3    H2 7285   7.125   6.550   2.644
 2448TIP3   OH2 7286   7.098   4.687   0.659
 2448TIP3    H1 7287   7.125   4.654   0.745
 2448TIP3    H2 7288   7.031   4.752   0.678
 2449TIP3   OH2 7289   1.216   3.632   0.168
 2449TIP3    H1 7290   1.152   3.624   0.098
 2449TIP3    H2 7291   1.300   3.636   0.123
 2450TIP3   OH2 7292   1.667   7.081   6.293
 2450TIP3    H1 7293   1.754   7.115   6.315
 2450TIP3    H2 7294   1.616   7.093   6.374
 2451TIP3   OH2 7295   0.347   3.154   3.320
 2451TIP3    H1 7296   0.367   3.125   3.408
 2451TIP3    H2 7297   0.400   3.233   3.307
 2452TIP3   OH2 7298   7.050   2.037   4.488
 2452TIP3    H1 7299   7.122   2.030   4.426
 2452TIP3    H2 7300   7.047   1.951   4.531
 2453TIP3   OH2 7301   8.058   2.247   2.341
 2453TIP3    H1 7302   8.084   2.297   2.419
 2453TIP3    H2 7303   8.034   2.314   2.277
 2454TIP3   OH2 7304   8.088   3.388   2.832
 2454TIP3    H1 7305   8.118   3.362   2.745
 2454TIP3    H2 7306   8.093   3.483   2.832
 2455TIP3   OH2 7307   8.231   2.628   3.760
 2455TIP3    H1 7308   8.142   2.597   3.775
 2455TIP3    H2 7309   8.227   2.675   3.677
 2456TIP3   OH2 7310   5.351   0.101   2.828
 2456TIP3    H1 7311   5.444   0.084   2.840
 2456TIP3    H2 7312   5.324   0.042   2.758
 2457TIP3   OH2 7313   0.623   6.771   3.289
 2457TIP3    H1 7314   0.597   6.712   3.359
 2457TIP3    H2 7315   0.709   6.804   3.315
 2458TIP3   OH2 7316   4.809   0.486   2.873
 2458TIP3    H1 7317   4.834   0.545   2.945
 2458TIP3    H2 7318   4.758   0.417   2.914
 2459TIP3   OH2 7319   1.154   4.816   5.568
 2459TIP3    H1 7320   1.196   4.838   5.652
 2459TIP3    H2 7321   1.068   4.782   5.593
 2460TIP3   OH2 7322   1.438   6.801   0.933
 2460TIP3    H1 7323   1.358   6.755   0.960
 2460TIP3    H2 7324   1.487   6.735   0.884
 2461TIP3   OH2 7325   0.461   3.788   1.811
 2461TIP3    H1 7326   0.390   3.842   1.846
 2461TIP3    H2 7327   0.456   3.800   1.716
 2462TIP3   OH2 7328   6.112   7.629   2.497
 2462TIP3    H1 7329   6.074   7.546   2.527
 2462TIP3    H2 7330   6.044   7.667   2.441
 2463TIP3   OH2 7331   7.256   2.533   0.773
 2463TIP3    H1 7332   7.260   2.442   0.745
 2463TIP3    H2 7333   7.325   2.577   0.724
 2464TIP3   OH2 7334   0.259   4.859   5.659
 2464TIP3    H1 7335   0.207   4.804   5.601
 2464TIP3    H2 7336   0.328   4.802   5.691
 2465TIP3   OH2 7337   0.168   7.531   2.879
 2465TIP3    H1 7338   0.094   7.508   2.935
 2465TIP3    H2 7339   0.138   7.509   2.790
 2466TIP3   OH2 7340   0.495   3.957   0.733
 2466TIP3    H1 7341   0.546   4.025   0.776
 2466TIP3    H2 7342   0.552   3.923   0.664
 2467TIP3   OH2 7343   2.743   3.641   4.208
 2467TIP3    H1 7344   2.676   3.595   4.258
 2467TIP3    H2 7345   2.742   3.599   4.122
 2468TIP3   OH2 7346   6.577   4.749   5.372
 2468TIP3    H1 7347   6.643   4.818   5.385
 2468TIP3    H2 7348   6.574   4.703   5.456
 2469TIP3   OH2 7349   7.390   2.069   5.490
 2469TIP3    H1 7350   7.328   2.096   5.558
 2469TIP3    H2 7351   7.434   2.150   5.464
 2470TIP3   OH2 7352   5.062   5.668   0.838
 2470TIP3    H1 7353   4.984   5.620   0.809
 2470TIP3    H2 7354   5.135   5.616   0.804
 2471TIP3   OH2 7355   6.675   7.548   6.737
 2471TIP3    H1 7356   6.628   7.596   6.805
 2471TIP3    H2 7357   6.766   7.545   6.767
 2472TIP3   OH2 7358   2.873   2.425   4.029
 2472TIP3    H1 7359   2.793   2.387   4.066
 2472TIP3    H2 7360   2.897   2.495   4.090
 2473TIP3   OH2 7361   4.015   5.650   6.723
 2473TIP3    H1 7362   3.998   5.623   6.633
 2473TIP3    H2 7363   3.986   5.576   6.776
 2474TIP3   OH2 7364   4.276   4.826   0.140
 2474TIP3    H1 7365   4.304   4.911   0.107
 2474TIP3    H2 7366   4.182   4.823   0.120
 2475TIP3   OH2 7367   7.252   5.995   5.247
 2475TIP3    H1 7368   7.321   5.977   5.184
 2475TIP3    H2 7369   7.290   6.061   5.306
 2476TIP3   OH2 7370   2.468   2.170   6.643
 2476TIP3    H1 7371   2.433   2.082   6.630
 2476TIP3    H2 7372   2.562   2.160   6.630
 2477TIP3   OH2 7373   5.144   1.067   5.459
 2477TIP3    H1 7374   5.182   0.979   5.455
 2477TIP3    H2 7375   5.124   1.080   5.551
 2478TIP3   OH2 7376   3.217   4.736   0.699
 2478TIP3    H1 7377   3.311   4.724   0.690
 2478TIP3    H2 7378   3.200   4.824   0.667
 2479TIP3   OH2 7379   0.306   2.026   3.469
 2479TIP3    H1 7380   0.253   2.034   3.548
 2479TIP3    H2 7381   0.287   2.105   3.419
 2480TIP3   OH2 7382   4.229   3.480   0.893
 2480TIP3    H1 7383   4.232   3.481   0.989
 2480TIP3    H2 7384   4.135   3.483   0.872
 2481TIP3   OH2 7385   7.111   1.718   1.220
 2481TIP3    H1 7386   7.174   1.663   1.173
 2481TIP3    H2 7387   7.034   1.720   1.163
 2482TIP3   OH2 7388   5.808   4.464   1.054
 2482TIP3    H1 7389   5.879   4.513   1.012
 2482TIP3    H2 7390   5.763   4.528   1.108
 2483TIP3   OH2 7391   3.019   1.858   1.372
 2483TIP3    H1 7392   2.937   1.810   1.378
 2483TIP3    H2 7393   3.000   1.944   1.410
 2484TIP3   OH2 7394   2.378   0.251   4.298
 2484TIP3    H1 7395   2.446   0.311   4.329
 2484TIP3    H2 7396   2.320   0.306   4.245
 2485TIP3   OH2 7397   2.689   5.933   5.346
 2485TIP3    H1 7398   2.662   5.962   5.259
 2485TIP3    H2 7399   2.694   6.014   5.398
 2486TIP3   OH2 7400   0.171   3.889   2.748
 2486TIP3    H1 7401   0.169   3.801   2.785
 2486TIP3    H2 7402   0.223   3.881   2.668
 2487TIP3   OH2 7403   0.723   4.676   3.765
 2487TIP3    H1 7404   0.774   4.605   3.802
 2487TIP3    H2 7405   0.638   4.638   3.746
 2488TIP3   OH2 7406   0.701   7.085   0.330
 2488TIP3    H1 7407   0.774   7.142   0.308
 2488TIP3    H2 7408   0.739   7.019   0.388
 2489TIP3   OH2 7409   3.777   5.392   3.938
 2489TIP3    H1 7410   3.775   5.326   3.869
 2489TIP3    H2 7411   3.857   5.442   3.922
 2490TIP3   OH2 7412   2.266   7.560   3.402
 2490TIP3    H1 7413   2.360   7.573   3.389
 2490TIP3    H2 7414   2.259   7.480   3.454
 2491TIP3   OH2 7415   2.119   4.264   4.034
 2491TIP3    H1 7416   2.162   4.218   3.961
 2491TIP3    H2 7417   2.028   4.273   4.006
 2492TIP3   OH2 7418   8.193   0.647   1.324
 2492TIP3    H1 7419   8.267   0.594   1.293
 2492TIP3    H2 7420   8.215   0.668   1.415
 2493TIP3   OH2 7421   4.319   1.550   2.912
 2493TIP3    H1 7422   4.392   1.541   2.851
 2493TIP3    H2 7423   4.241   1.533   2.859
 2494TIP3   OH2 7424   4.938   1.718   6.659
 2494TIP3    H1 7425   4.881   1.706   6.583
 2494TIP3    H2 7426   5.026   1.706   6.625
 2495TIP3   OH2 7427   4.477   4.018   1.086
 2495TIP3    H1 7428   4.551   3.980   1.040
 2495TIP3    H2 7429   4.463   4.103   1.043
 2496TIP3   OH2 7430   1.737   4.817   0.706
 2496TIP3    H1 7431   1.646   4.823   0.735
 2496TIP3    H2 7432   1.731   4.803   0.612
 2497TIP3   OH2 7433   1.540   4.234   3.712
 2497TIP3    H1 7434   1.561   4.143   3.690
 2497TIP3    H2 7435   1.475   4.260   3.647
 2498TIP3   OH2 7436   0.155   7.666   3.481
 2498TIP3    H1 7437   0.078   7.685   3.427
 2498TIP3    H2 7438   0.229   7.698   3.429
 2499TIP3   OH2 7439   4.244   4.077   6.329
 2499TIP3    H1 7440   4.245   4.002   6.269
 2499TIP3    H2 7441   4.152   4.086   6.354
 2500TIP3   OH2 7442   4.654   5.887   4.276
 2500TIP3    H1 7443   4.604   5.900   4.195
 2500TIP3    H2 7444   4.634   5.964   4.329
 2501TIP3   OH2 7445   3.021   2.580   0.145
 2501TIP3    H1 7446   2.960   2.511   0.172
 2501TIP3    H2 7447   2.971   2.661   0.154
 2502TIP3   OH2 7448   1.648   2.116   1.948
 2502TIP3    H1 7449   1.653   2.026   1.914
 2502TIP3    H2 7450   1.643   2.105   2.043
 2503TIP3   OH2 7451   5.565   3.732   4.175
 2503TIP3    H1 7452   5.483   3.711   4.221
 2503TIP3    H2 7453   5.631   3.677   4.218
 2504TIP3   OH2 7454   0.026   2.521   5.437
 2504TIP3    H1 7455   0.025   2.433   5.399
 2504TIP3    H2 7456  -0.010   2.577   5.368
 2505TIP3   OH2 7457   1.456   7.158   2.341
 2505TIP3    H1 7458   1.417   7.093   2.398
 2505TIP3    H2 7459   1.495   7.108   2.269
 2506TIP3   OH2 7460   1.425   4.536   3.653
 2506TIP3    H1 7461   1.493   4.537   3.721
 2506TIP3    H2 7462   1.349   4.577   3.695
 2507TIP3   OH2 7463   1.442   4.847   3.315
 2507TIP3    H1 7464   1.405   4.934   3.328
 2507TIP3    H2 7465   1.455   4.840   3.220
 2508TIP3   OH2 7466   7.510   1.700   0.000
 2508TIP3    H1 7467   7.504   1.647   0.079
 2508TIP3    H2 7468   7.422   1.699  -0.037
 2509TIP3   OH2 7469   3.748   1.832   2.102
 2509TIP3    H1 7470   3.768   1.909   2.049
 2509TIP3    H2 7471   3.734   1.761   2.039
 2510TIP3   OH2 7472   2.767   2.050   3.020
 2510TIP3    H1 7473   2.822   2.128   3.007
 2510TIP3    H2 7474   2.678   2.080   3.001
 2511TIP3   OH2 7475   1.868   2.674   4.875
 2511TIP3    H1 7476   1.846   2.763   4.848
 2511TIP3    H2 7477   1.791   2.622   4.852
 2512TIP3   OH2 7478   6.374   5.486   2.654
 2512TIP3    H1 7479   6.374   5.486   2.558
 2512TIP3    H2 7480   6.283   5.504   2.678
 2513TIP3   OH2 7481   7.916   5.089   2.829
 2513TIP3    H1 7482   7.962   5.023   2.777
 2513TIP3    H2 7483   7.927   5.170   2.781
 2514TIP3   OH2 7484   0.535   0.283   4.759
 2514TIP3    H1 7485   0.484   0.288   4.679
 2514TIP3    H2 7486   0.626   0.282   4.730
 2515TIP3   OH2 7487   2.752   1.361   4.275
 2515TIP3    H1 7488   2.844   1.388   4.274
 2515TIP3    H2 7489   2.707   1.432   4.322
 2516TIP3   OH2 7490   4.480   3.331   2.671
 2516TIP3    H1 7491   4.507   3.313   2.581
 2516TIP3    H2 7492   4.402   3.277   2.684
 2517TIP3   OH2 7493   1.439   5.491   3.276
 2517TIP3    H1 7494   1.460   5.424   3.342
 2517TIP3    H2 7495   1.387   5.446   3.210
 2518TIP3   OH2 7496   6.068   2.658   5.746
 2518TIP3    H1 7497   6.040   2.718   5.678
 2518TIP3    H2 7498   6.039   2.572   5.716
 2519TIP3   OH2 7499   4.767   1.317   5.868
 2519TIP3    H1 7500   4.817   1.368   5.932
 2519TIP3    H2 7501   4.713   1.258   5.921
 2520TIP3   OH2 7502   6.168   3.903   2.191
 2520TIP3    H1 7503   6.117   3.824   2.172
 2520TIP3    H2 7504   6.223   3.879   2.266
 2521TIP3   OH2 7505   1.665   5.703   2.369
 2521TIP3    H1 7506   1.641   5.715   2.277
 2521TIP3    H2 7507   1.585   5.670   2.410
 2522TIP3   OH2 7508   4.742   0.758   2.156
 2522TIP3    H1 7509   4.701   0.824   2.101
 2522TIP3    H2 7510   4.668   0.718   2.204
 2523TIP3   OH2 7511   5.907   7.479   2.338
 2523TIP3    H1 7512   5.879   7.568   2.357
 2523TIP3    H2 7513   5.962   7.488   2.260
 2524TIP3   OH2 7514   8.191   0.392   0.314
 2524TIP3    H1 7515   8.170   0.299   0.305
 2524TIP3    H2 7516   8.270   0.404   0.263
 2525TIP3   OH2 7517   0.639   2.985   6.039
 2525TIP3    H1 7518   0.708   2.991   5.974
 2525TIP3    H2 7519   0.579   2.919   6.004
 2526TIP3   OH2 7520   6.798   6.799   1.946
 2526TIP3    H1 7521   6.787   6.866   1.878
 2526TIP3    H2 7522   6.891   6.802   1.968
 2527TIP3   OH2 7523   3.583   2.709   6.077
 2527TIP3    H1 7524   3.625   2.716   6.162
 2527TIP3    H2 7525   3.489   2.709   6.096
 2528TIP3   OH2 7526   1.973   4.493   4.225
 2528TIP3    H1 7527   2.057   4.448   4.227
 2528TIP3    H2 7528   1.933   4.474   4.310
 2529TIP3   OH2 7529   4.775   4.914   2.170
 2529TIP3    H1 7530   4.825   4.833   2.179
 2529TIP3    H2 7531   4.728   4.922   2.253
 2530TIP3   OH2 7532   1.023   4.170   0.586
 2530TIP3    H1 7533   1.056   4.137   0.669
 2530TIP3    H2 7534   1.060   4.111   0.520
 2531TIP3   OH2 7535   4.252   1.779   0.541
 2531TIP3    H1 7536   4.259   1.687   0.513
 2531TIP3    H2 7537   4.343   1.809   0.546
 2532TIP3   OH2 7538   3.839   5.079   4.326
 2532TIP3    H1 7539   3.822   5.161   4.279
 2532TIP3    H2 7540   3.930   5.087   4.355
 2533TIP3   OH2 7541   0.294   5.224   1.699
 2533TIP3    H1 7542   0.278   5.139   1.740
 2533TIP3    H2 7543   0.319   5.203   1.609
 2534TIP3   OH2 7544   7.782   3.286   0.849
 2534TIP3    H1 7545   7.705   3.337   0.874
 2534TIP3    H2 7546   7.746   3.204   0.816
 2535TIP3   OH2 7547   6.483   6.538   1.584
 2535TIP3    H1 7548   6.565   6.492   1.602
 2535TIP3    H2 7549   6.417   6.490   1.634
 2536TIP3   OH2 7550   7.616   3.239   0.431
 2536TIP3    H1 7551   7.567   3.291   0.494
 2536TIP3    H2 7552   7.576   3.152   0.435
 2537TIP3   OH2 7553   1.137   7.825   6.387
 2537TIP3    H1 7554   1.140   7.881   6.465
 2537TIP3    H2 7555   1.206   7.760   6.401
 2538TIP3   OH2 7556   4.520   0.884   6.214
 2538TIP3    H1 7557   4.562   0.800   6.196
 2538TIP3    H2 7558   4.431   0.875   6.179
 2539TIP3   OH2 7559   8.171   1.413   1.684
 2539TIP3    H1 7560   8.223   1.334   1.676
 2539TIP3    H2 7561   8.095   1.387   1.737
 2540TIP3   OH2 7562   0.968   4.487   3.009
 2540TIP3    H1 7563   0.970   4.464   2.917
 2540TIP3    H2 7564   0.893   4.546   3.018
 2541TIP3   OH2 7565   0.749   5.717   4.391
 2541TIP3    H1 7566   0.712   5.742   4.476
 2541TIP3    H2 7567   0.673   5.711   4.333
 2542TIP3   OH2 7568   0.451   2.409   0.653
 2542TIP3    H1 7569   0.417   2.430   0.740
 2542TIP3    H2 7570   0.373   2.386   0.602
 2543TIP3   OH2 7571   6.525   1.292   6.083
 2543TIP3    H1 7572   6.474   1.232   6.137
 2543TIP3    H2 7573   6.513   1.260   5.993
 2544TIP3   OH2 7574   2.509   1.089   3.496
 2544TIP3    H1 7575   2.480   1.148   3.566
 2544TIP3    H2 7576   2.435   1.029   3.484
 2545TIP3   OH2 7577   3.341   2.862   3.353
 2545TIP3    H1 7578   3.362   2.768   3.352
 2545TIP3    H2 7579   3.350   2.890   3.262
 2546TIP3   OH2 7580   7.835   2.689   6.036
 2546TIP3    H1 7581   7.810   2.733   5.955
 2546TIP3    H2 7582   7.790   2.738   6.105
 2547TIP3   OH2 7583   6.834   4.499   2.832
 2547TIP3    H1 7584   6.746   4.478   2.865
 2547TIP3    H2 7585   6.823   4.502   2.737
 2548TIP3   OH2 7586   1.153   4.660   5.266
 2548TIP3    H1 7587   1.224   4.697   5.318
 2548TIP3    H2 7588   1.175   4.683   5.176
 2549TIP3   OH2 7589   3.937   4.831   0.830
 2549TIP3    H1 7590   3.983   4.853   0.911
 2549TIP3    H2 7591   4.004   4.794   0.773
 2550TIP3   OH2 7592   4.173   2.879   5.781
 2550TIP3    H1 7593   4.157   2.806   5.841
 2550TIP3    H2 7594   4.103   2.941   5.799
 2551TIP3   OH2 7595   7.430   6.139   5.411
 2551TIP3    H1 7596   7.494   6.180   5.353
 2551TIP3    H2 7597   7.422   6.199   5.485
 2552TIP3   OH2 7598   4.751   6.767   1.045
 2552TIP3    H1 7599   4.754   6.796   0.954
 2552TIP3    H2 7600   4.824   6.706   1.054
 2553TIP3   OH2 7601   6.189   5.771   4.284
 2553TIP3    H1 7602   6.246   5.826   4.338
 2553TIP3    H2 7603   6.237   5.689   4.274
 2554TIP3   OH2 7604   1.508   4.917   5.717
 2554TIP3    H1 7605   1.540   4.849   5.777
 2554TIP3    H2 7606   1.482   4.870   5.638
 2555TIP3   OH2 7607   5.267   1.097   5.817
 2555TIP3    H1 7608   5.326   1.153   5.767
 2555TIP3    H2 7609   5.180   1.128   5.795
 2556TIP3   OH2 7610   2.766   6.892   4.350
 2556TIP3    H1 7611   2.781   6.836   4.426
 2556TIP3    H2 7612   2.679   6.928   4.364
 2557TIP3   OH2 7613   4.861   5.658   3.867
 2557TIP3    H1 7614   4.765   5.666   3.862
 2557TIP3    H2 7615   4.875   5.594   3.937
 2558TIP3   OH2 7616   2.886   4.115   0.762
 2558TIP3    H1 7617   2.897   4.030   0.804
 2558TIP3    H2 7618   2.792   4.133   0.770
 2559TIP3   OH2 7619   2.259   3.545   1.731
 2559TIP3    H1 7620   2.280   3.584   1.816
 2559TIP3    H2 7621   2.191   3.481   1.751
 2560TIP3   OH2 7622   6.343   2.790   2.912
 2560TIP3    H1 7623   6.401   2.779   2.837
 2560TIP3    H2 7624   6.401   2.822   2.982
 2561TIP3   OH2 7625   7.624   4.941   3.552
 2561TIP3    H1 7626   7.568   4.927   3.476
 2561TIP3    H2 7627   7.670   5.024   3.534
 2562TIP3   OH2 7628   5.555   0.376   1.172
 2562TIP3    H1 7629   5.562   0.450   1.112
 2562TIP3    H2 7630   5.484   0.400   1.232
 2563TIP3   OH2 7631   2.118   2.203   4.951
 2563TIP3    H1 7632   2.183   2.269   4.926
 2563TIP3    H2 7633   2.035   2.251   4.954
 2564TIP3   OH2 7634   6.031   5.221   2.450
 2564TIP3    H1 7635   6.107   5.197   2.502
 2564TIP3    H2 7636   5.961   5.164   2.483
 2565TIP3   OH2 7637   5.945   7.163   3.250
 2565TIP3    H1 7638   5.989   7.220   3.313
 2565TIP3    H2 7639   5.897   7.100   3.303
 2566TIP3   OH2 7640   7.565   1.739   2.884
 2566TIP3    H1 7641   7.588   1.806   2.820
 2566TIP3    H2 7642   7.528   1.788   2.957
 2567TIP3   OH2 7643   3.856   0.781   1.954
 2567TIP3    H1 7644   3.940   0.786   2.000
 2567TIP3    H2 7645   3.790   0.789   2.022
 2568TIP3   OH2 7646   7.935   1.462   4.195
 2568TIP3    H1 7647   8.004   1.426   4.140
 2568TIP3    H2 7648   7.858   1.410   4.173
 2569TIP3   OH2 7649   5.644   2.404   0.189
 2569TIP3    H1 7650   5.646   2.370   0.100
 2569TIP3    H2 7651   5.584   2.346   0.235
 2570TIP3   OH2 7652   0.175   3.626   3.184
 2570TIP3    H1 7653   0.216   3.540   3.175
 2570TIP3    H2 7654   0.159   3.635   3.278
 2571TIP3   OH2 7655   6.147   1.274   3.958
 2571TIP3    H1 7656   6.056   1.254   3.937
 2571TIP3    H2 7657   6.198   1.228   3.892
 2572TIP3   OH2 7658   4.836   4.774   5.236
 2572TIP3    H1 7659   4.882   4.825   5.303
 2572TIP3    H2 7660   4.903   4.718   5.197
 2573TIP3   OH2 7661   2.805   4.588   0.470
 2573TIP3    H1 7662   2.896   4.613   0.486
 2573TIP3    H2 7663   2.770   4.567   0.557
 2574TIP3   OH2 7664   4.169   1.045   5.487
 2574TIP3    H1 7665   4.253   1.081   5.459
 2574TIP3    H2 7666   4.179   1.032   5.581
 2575TIP3   OH2 7667   3.162   2.618   1.091
 2575TIP3    H1 7668   3.253   2.644   1.110
 2575TIP3    H2 7669   3.140   2.667   1.011
 2576TIP3   OH2 7670   4.136   4.977   5.347
 2576TIP3    H1 7671   4.210   4.975   5.408
 2576TIP3    H2 7672   4.161   4.917   5.277
 2577TIP3   OH2 7673   5.672   6.735   4.651
 2577TIP3    H1 7674   5.697   6.724   4.743
 2577TIP3    H2 7675   5.682   6.828   4.634
 2578TIP3   OH2 7676   5.641   0.451   5.159
 2578TIP3    H1 7677   5.563   0.495   5.125
 2578TIP3    H2 7678   5.692   0.520   5.201
 2579TIP3   OH2 7679   2.188   2.253   3.142
 2579TIP3    H1 7680   2.195   2.274   3.049
 2579TIP3    H2 7681   2.189   2.157   3.145
 2580TIP3   OH2 7682   5.123   1.171   4.081
 2580TIP3    H1 7683   5.217   1.156   4.081
 2580TIP3    H2 7684   5.094   1.146   3.994
 2581TIP3   OH2 7685   2.019   0.156   2.245
 2581TIP3    H1 7686   2.099   0.104   2.254
 2581TIP3    H2 7687   1.974   0.145   2.328
 2582TIP3   OH2 7688   6.790   3.982   0.269
 2582TIP3    H1 7689   6.825   3.894   0.284
 2582TIP3    H2 7690   6.808   4.000   0.177
 2583TIP3   OH2 7691   1.902   6.069   0.647
 2583TIP3    H1 7692   1.965   5.998   0.637
 2583TIP3    H2 7693   1.955   6.145   0.670
 2584TIP3   OH2 7694   3.138   2.194   3.388
 2584TIP3    H1 7695   3.176   2.272   3.348
 2584TIP3    H2 7696   3.046   2.196   3.363
 2585TIP3   OH2 7697   8.163   5.655   2.176
 2585TIP3    H1 7698   8.191   5.700   2.256
 2585TIP3    H2 7699   8.100   5.715   2.135
 2586TIP3   OH2 7700   5.317   2.082   1.115
 2586TIP3    H1 7701   5.404   2.110   1.086
 2586TIP3    H2 7702   5.334   2.007   1.172
 2587TIP3   OH2 7703   2.094   4.232   2.572
 2587TIP3    H1 7704   2.067   4.148   2.534
 2587TIP3    H2 7705   2.189   4.226   2.578
 2588TIP3   OH2 7706   0.654   5.444   4.821
 2588TIP3    H1 7707   0.724   5.509   4.832
 2588TIP3    H2 7708   0.593   5.485   4.760
 2589TIP3   OH2 7709   2.380   2.010   2.698
 2589TIP3    H1 7710   2.330   2.023   2.618
 2589TIP3    H2 7711   2.349   1.927   2.733
 2590TIP3   OH2 7712   6.227   4.991   6.660
 2590TIP3    H1 7713   6.259   5.075   6.625
 2590TIP3    H2 7714   6.184   5.015   6.742
 2591TIP3   OH2 7715   3.573   2.641   5.388
 2591TIP3    H1 7716   3.497   2.582   5.388
 2591TIP3    H2 7717   3.535   2.728   5.369
 2592TIP3   OH2 7718   6.278   3.022   1.715
 2592TIP3    H1 7719   6.203   2.968   1.689
 2592TIP3    H2 7720   6.247   3.070   1.792
 2593TIP3   OH2 7721   2.475   6.056   2.447
 2593TIP3    H1 7722   2.482   6.114   2.371
 2593TIP3    H2 7723   2.548   5.995   2.437
 2594TIP3   OH2 7724   1.055   4.680   2.240
 2594TIP3    H1 7725   1.109   4.647   2.169
 2594TIP3    H2 7726   0.965   4.661   2.214
 2595TIP3   OH2 7727   0.021   6.741   3.383
 2595TIP3    H1 7728   0.050   6.778   3.467
 2595TIP3    H2 7729  -0.063   6.699   3.402
 2596TIP3   OH2 7730   1.035   5.966   5.150
 2596TIP3    H1 7731   1.061   5.931   5.065
 2596TIP3    H2 7732   0.966   5.907   5.181
 2597TIP3   OH2 7733   3.696   3.074   4.498
 2597TIP3    H1 7734   3.697   3.079   4.402
 2597TIP3    H2 7735   3.667   2.985   4.517
 2598TIP3   OH2 7736   4.521   6.368   0.434
 2598TIP3    H1 7737   4.447   6.311   0.415
 2598TIP3    H2 7738   4.508   6.394   0.525
 2599TIP3   OH2 7739   2.000   1.649   6.277
 2599TIP3    H1 7740   1.986   1.739   6.307
 2599TIP3    H2 7741   2.068   1.656   6.210
 2600TIP3   OH2 7742   5.902   2.843   1.839
 2600TIP3    H1 7743   5.861   2.929   1.838
 2600TIP3    H2 7744   5.925   2.828   1.930
 2601TIP3   OH2 7745   3.266   5.626   0.031
 2601TIP3    H1 7746   3.337   5.681   0.065
 2601TIP3    H2 7747   3.225   5.589   0.110
 2602TIP3   OH2 7748   6.712   2.498   2.289
 2602TIP3    H1 7749   6.770   2.551   2.234
 2602TIP3    H2 7750   6.770   2.458   2.354
 2603TIP3   OH2 7751   0.289   2.128   4.529
 2603TIP3    H1 7752   0.215   2.079   4.494
 2603TIP3    H2 7753   0.358   2.062   4.540
 2604TIP3   OH2 7754   7.825   6.300   0.240
 2604TIP3    H1 7755   7.755   6.235   0.238
 2604TIP3    H2 7756   7.886   6.272   0.172
 2605TIP3   OH2 7757   1.550   5.805   3.671
 2605TIP3    H1 7758   1.532   5.780   3.761
 2605TIP3    H2 7759   1.548   5.723   3.622
 2606TIP3   OH2 7760   4.183   4.839   5.109
 2606TIP3    H1 7761   4.254   4.778   5.088
 2606TIP3    H2 7762   4.130   4.842   5.030
 2607TIP3   OH2 7763   8.202   5.906   0.347
 2607TIP3    H1 7764   8.127   5.960   0.320
 2607TIP3    H2 7765   8.255   5.964   0.401
 2608TIP3   OH2 7766   2.218   3.519   3.498
 2608TIP3    H1 7767   2.243   3.429   3.521
 2608TIP3    H2 7768   2.139   3.536   3.548
 2609TIP3   OH2 7769   4.804   0.135   0.111
 2609TIP3    H1 7770   4.841   0.052   0.079
 2609TIP3    H2 7771   4.863   0.161   0.182
 2610TIP3   OH2 7772   4.495   5.558   2.142
 2610TIP3    H1 7773   4.439   5.604   2.205
 2610TIP3    H2 7774   4.584   5.584   2.166
 2611TIP3   OH2 7775   3.979   4.738   2.320
 2611TIP3    H1 7776   3.962   4.644   2.311
 2611TIP3    H2 7777   3.984   4.770   2.230
 2612TIP3   OH2 7778   5.615   3.844   4.687
 2612TIP3    H1 7779   5.674   3.890   4.747
 2612TIP3    H2 7780   5.662   3.763   4.666
 2613TIP3   OH2 7781   0.595   5.736   3.168
 2613TIP3    H1 7782   0.634   5.818   3.138
 2613TIP3    H2 7783   0.660   5.697   3.226
 2614TIP3   OH2 7784   1.279   1.038   1.818
 2614TIP3    H1 7785   1.369   1.020   1.847
 2614TIP3    H2 7786   1.288   1.101   1.747
 2615TIP3   OH2 7787   0.564   1.530   2.331
 2615TIP3    H1 7788   0.490   1.549   2.273
 2615TIP3    H2 7789   0.577   1.436   2.323
 2616TIP3   OH2 7790   7.386   1.837   3.685
 2616TIP3    H1 7791   7.410   1.874   3.600
 2616TIP3    H2 7792   7.299   1.799   3.671
 2617TIP3   OH2 7793   0.765   7.109   1.135
 2617TIP3    H1 7794   0.850   7.069   1.156
 2617TIP3    H2 7795   0.739   7.155   1.215
 2618TIP3   OH2 7796   0.147   2.512   4.640
 2618TIP3    H1 7797   0.138   2.605   4.620
 2618TIP3    H2 7798   0.208   2.479   4.574
 2619TIP3   OH2 7799   0.233   0.918   0.737
 2619TIP3    H1 7800   0.180   0.992   0.768
 2619TIP3    H2 7801   0.198   0.899   0.650
 2620TIP3   OH2 7802   0.989   3.558   5.600
 2620TIP3    H1 7803   0.902   3.541   5.564
 2620TIP3    H2 7804   1.005   3.650   5.582
 2621TIP3   OH2 7805   5.374   1.973   2.385
 2621TIP3    H1 7806   5.347   2.040   2.322
 2621TIP3    H2 7807   5.347   1.890   2.344
 2622TIP3   OH2 7808   5.920   5.180   4.194
 2622TIP3    H1 7809   5.895   5.266   4.160
 2622TIP3    H2 7810   5.949   5.132   4.117
 2623TIP3   OH2 7811   2.504   7.459   0.984
 2623TIP3    H1 7812   2.573   7.424   0.927
 2623TIP3    H2 7813   2.482   7.544   0.945
 2624TIP3   OH2 7814   6.253   5.110   0.997
 2624TIP3    H1 7815   6.275   5.133   1.087
 2624TIP3    H2 7816   6.211   5.025   1.003
 2625TIP3   OH2 7817   1.958   4.518   2.371
 2625TIP3    H1 7818   2.030   4.459   2.393
 2625TIP3    H2 7819   1.977   4.598   2.420
 2626TIP3   OH2 7820   1.181   5.266   0.316
 2626TIP3    H1 7821   1.267   5.301   0.339
 2626TIP3    H2 7822   1.157   5.313   0.236
 2627TIP3   OH2 7823   5.677   3.771   1.158
 2627TIP3    H1 7824   5.652   3.741   1.245
 2627TIP3    H2 7825   5.708   3.861   1.171
 2628TIP3   OH2 7826   1.871   0.588   3.446
 2628TIP3    H1 7827   1.945   0.566   3.389
 2628TIP3    H2 7828   1.795   0.586   3.388
 2629TIP3   OH2 7829   2.771   6.041   1.203
 2629TIP3    H1 7830   2.861   6.046   1.233
 2629TIP3    H2 7831   2.778   6.027   1.109
 2630TIP3   OH2 7832   4.485   7.076   3.368
 2630TIP3    H1 7833   4.410   7.029   3.404
 2630TIP3    H2 7834   4.479   7.163   3.407
 2631TIP3   OH2 7835   3.867   5.408   1.486
 2631TIP3    H1 7836   3.926   5.334   1.493
 2631TIP3    H2 7837   3.810   5.387   1.412
 2632TIP3   OH2 7838   2.666   6.522   5.812
 2632TIP3    H1 7839   2.587   6.571   5.835
 2632TIP3    H2 7840   2.669   6.450   5.875
 2633TIP3   OH2 7841   2.398   1.090   0.551
 2633TIP3    H1 7842   2.454   1.032   0.603
 2633TIP3    H2 7843   2.348   1.139   0.616
 2634TIP3   OH2 7844   0.772   4.979   2.473
 2634TIP3    H1 7845   0.767   4.953   2.566
 2634TIP3    H2 7846   0.856   4.944   2.443
 2635TIP3   OH2 7847   0.651   4.986   5.581
 2635TIP3    H1 7848   0.576   4.993   5.521
 2635TIP3    H2 7849   0.697   4.908   5.553
 2636TIP3   OH2 7850   3.696   5.399   5.790
 2636TIP3    H1 7851   3.691   5.345   5.869
 2636TIP3    H2 7852   3.767   5.460   5.806
 2637TIP3   OH2 7853   5.151   5.271   1.153
 2637TIP3    H1 7854   5.176   5.213   1.226
 2637TIP3    H2 7855   5.097   5.339   1.194
 2638TIP3   OH2 7856   4.093   2.435   0.617
 2638TIP3    H1 7857   4.034   2.365   0.589
 2638TIP3    H2 7858   4.166   2.431   0.555
 2639TIP3   OH2 7859   4.359   0.385   4.514
 2639TIP3    H1 7860   4.285   0.373   4.572
 2639TIP3    H2 7861   4.345   0.322   4.443
 2640TIP3   OH2 7862   2.722   0.008   2.163
 2640TIP3    H1 7863   2.732   0.017   2.068
 2640TIP3    H2 7864   2.812   0.013   2.197
 2641TIP3   OH2 7865   1.230   1.167   0.578
 2641TIP3    H1 7866   1.325   1.154   0.583
 2641TIP3    H2 7867   1.207   1.205   0.662
 2642TIP3   OH2 7868   6.981   2.393   1.463
 2642TIP3    H1 7869   7.065   2.347   1.461
 2642TIP3    H2 7870   6.983   2.450   1.386
 2643TIP3   OH2 7871   0.498   0.764   4.899
 2643TIP3    H1 7872   0.580   0.739   4.940
 2643TIP3    H2 7873   0.494   0.711   4.819
 2644TIP3   OH2 7874   7.585   1.652   4.998
 2644TIP3    H1 7875   7.557   1.742   5.019
 2644TIP3    H2 7876   7.680   1.659   4.989
 2645TIP3   OH2 7877   3.164   1.858   5.538
 2645TIP3    H1 7878   3.099   1.857   5.608
 2645TIP3    H2 7879   3.127   1.800   5.471
 2646TIP3   OH2 7880   7.039   0.821   4.859
 2646TIP3    H1 7881   7.111   0.884   4.852
 2646TIP3    H2 7882   7.072   0.743   4.816
 2647TIP3   OH2 7883   3.966   4.150   6.068
 2647TIP3    H1 7884   3.938   4.153   6.159
 2647TIP3    H2 7885   3.918   4.077   6.030
 2648TIP3   OH2 7886   2.103   5.529   5.604
 2648TIP3    H1 7887   2.195   5.504   5.594
 2648TIP3    H2 7888   2.079   5.565   5.518
 2649TIP3   OH2 7889   7.040   5.177   0.313
 2649TIP3    H1 7890   7.038   5.238   0.386
 2649TIP3    H2 7891   7.023   5.092   0.352
 2650TIP3   OH2 7892   2.158   6.124   0.903
 2650TIP3    H1 7893   2.146   6.030   0.918
 2650TIP3    H2 7894   2.232   6.130   0.843
 2651TIP3   OH2 7895   4.187   3.581   6.469
 2651TIP3    H1 7896   4.276   3.550   6.454
 2651TIP3    H2 7897   4.146   3.579   6.382
 2652TIP3   OH2 7898   1.356   1.683   6.583
 2652TIP3    H1 7899   1.381   1.709   6.495
 2652TIP3    H2 7900   1.289   1.616   6.571
 2653TIP3   OH2 7901   6.344   0.953   3.659
 2653TIP3    H1 7902   6.293   0.873   3.674
 2653TIP3    H2 7903   6.284   1.024   3.684
 2654TIP3   OH2 7904   7.232   4.916   5.317
 2654TIP3    H1 7905   7.209   5.007   5.299
 2654TIP3    H2 7906   7.325   4.918   5.336
 2655TIP3   OH2 7907   3.257   7.263   0.172
 2655TIP3    H1 7908   3.288   7.234   0.087
 2655TIP3    H2 7909   3.161   7.260   0.165
 2656TIP3   OH2 7910   6.434   0.282   2.717
 2656TIP3    H1 7911   6.369   0.247   2.656
 2656TIP3    H2 7912   6.501   0.214   2.723
 2657TIP3   OH2 7913   5.199   2.882   6.554
 2657TIP3    H1 7914   5.201   2.788   6.542
 2657TIP3    H2 7915   5.234   2.918   6.473
 2658TIP3   OH2 7916   0.259   2.423   1.388
 2658TIP3    H1 7917   0.309   2.424   1.469
 2658TIP3    H2 7918   0.274   2.510   1.350
 2659TIP3   OH2 7919   3.590   2.579   4.876
 2659TIP3    H1 7920   3.574   2.604   4.967
 2659TIP3    H2 7921   3.533   2.502   4.862
 2660TIP3   OH2 7922   4.023   5.593   3.504
 2660TIP3    H1 7923   3.975   5.675   3.489
 2660TIP3    H2 7924   3.990   5.561   3.588
 2661TIP3   OH2 7925   0.398   5.653   1.911
 2661TIP3    H1 7926   0.324   5.639   1.851
 2661TIP3    H2 7927   0.409   5.569   1.955
 2662TIP3   OH2 7928   4.962   7.558   2.236
 2662TIP3    H1 7929   5.003   7.518   2.159
 2662TIP3    H2 7930   4.869   7.562   2.214
 2663TIP3   OH2 7931   4.939   0.140   3.877
 2663TIP3    H1 7932   4.909   0.071   3.819
 2663TIP3    H2 7933   5.035   0.136   3.873
 2664TIP3   OH2 7934   5.913   0.709   5.196
 2664TIP3    H1 7935   5.986   0.658   5.231
 2664TIP3    H2 7936   5.920   0.699   5.101
 2665TIP3   OH2 7937   0.343   6.082   0.989
 2665TIP3    H1 7938   0.356   6.151   0.924
 2665TIP3    H2 7939   0.357   6.001   0.941
 2666TIP3   OH2 7940   7.213   0.741   1.485
 2666TIP3    H1 7941   7.182   0.675   1.546
 2666TIP3    H2 7942   7.286   0.783   1.530
 2667TIP3   OH2 7943   1.838   1.864   0.262
 2667TIP3    H1 7944   1.912   1.904   0.308
 2667TIP3    H2 7945   1.824   1.920   0.186
 2668TIP3   OH2 7946   5.908   0.240   1.187
 2668TIP3    H1 7947   5.950   0.326   1.177
 2668TIP3    H2 7948   5.840   0.239   1.120
 2669TIP3   OH2 7949   7.661   4.197   5.524
 2669TIP3    H1 7950   7.749   4.160   5.521
 2669TIP3    H2 7951   7.647   4.217   5.616
 2670TIP3   OH2 7952   4.642   0.295   2.935
 2670TIP3    H1 7953   4.603   0.213   2.905
 2670TIP3    H2 7954   4.655   0.283   3.029
 2671TIP3   OH2 7955   7.651   0.471   2.492
 2671TIP3    H1 7956   7.613   0.493   2.407
 2671TIP3    H2 7957   7.617   0.538   2.551
 2672TIP3   OH2 7958   1.877   5.221   4.564
 2672TIP3    H1 7959   1.792   5.223   4.521
 2672TIP3    H2 7960   1.858   5.216   4.657
 2673TIP3   OH2 7961   8.049   0.604   4.113
 2673TIP3    H1 7962   8.120   0.588   4.050
 2673TIP3    H2 7963   8.066   0.692   4.146
 2674TIP3   OH2 7964   2.947   5.275   2.057
 2674TIP3    H1 7965   2.983   5.345   2.112
 2674TIP3    H2 7966   3.022   5.245   2.005
 2675TIP3   OH2 7967   0.064   6.075   1.158
 2675TIP3    H1 7968   0.057   5.980   1.156
 2675TIP3    H2 7969   0.129   6.096   1.090
 2676TIP3   OH2 7970   0.444   2.111   3.988
 2676TIP3    H1 7971   0.462   2.077   3.901
 2676TIP3    H2 7972   0.483   2.049   4.048
 2677TIP3   OH2 7973   3.374   1.852   2.993
 2677TIP3    H1 7974   3.439   1.863   2.924
 2677TIP3    H2 7975   3.353   1.759   2.993
 2678TIP3   OH2 7976   5.108   1.394   0.863
 2678TIP3    H1 7977   5.158   1.381   0.944
 2678TIP3    H2 7978   5.021   1.359   0.883
 2679TIP3   OH2 7979   6.343   0.139   5.452
 2679TIP3    H1 7980   6.392   0.146   5.534
 2679TIP3    H2 7981   6.374   0.058   5.412
 2680TIP3   OH2 7982   4.800   6.128   4.008
 2680TIP3    H1 7983   4.878   6.097   4.054
 2680TIP3    H2 7984   4.768   6.201   4.060
 2681TIP3   OH2 7985   4.541   2.057   0.314
 2681TIP3    H1 7986   4.595   2.064   0.234
 2681TIP3    H2 7987   4.557   1.968   0.345
 2682TIP3   OH2 7988   2.188   3.322   4.414
 2682TIP3    H1 7989   2.094   3.330   4.426
 2682TIP3    H2 7990   2.198   3.279   4.329
 2683TIP3   OH2 7991   1.556   1.997   4.017
 2683TIP3    H1 7992   1.493   1.933   3.983
 2683TIP3    H2 7993   1.554   2.069   3.954
 2684TIP3   OH2 7994   0.034   2.811   1.510
 2684TIP3    H1 7995   0.021   2.720   1.535
 2684TIP3    H2 7996   0.129   2.822   1.509
 2685TIP3   OH2 7997   8.291   3.406   0.045
 2685TIP3    H1 7998   8.210   3.357   0.036
 2685TIP3    H2 7999   8.267   3.483   0.096
 2686TIP3   OH2 8000   3.765   1.276   1.052
 2686TIP3    H1 8001   3.759   1.273   1.148
 2686TIP3    H2 8002   3.709   1.205   1.022
 2687TIP3   OH2 8003   2.342   7.538   5.753
 2687TIP3    H1 8004   2.414   7.547   5.815
 2687TIP3    H2 8005   2.378   7.488   5.681
 2688TIP3   OH2 8006   3.776   7.212   4.180
 2688TIP3    H1 8007   3.850   7.168   4.222
 2688TIP3    H2 8008   3.784   7.188   4.088
 2689TIP3   OH2 8009   4.116   2.908   0.844
 2689TIP3    H1 8010   4.201   2.916   0.887
 2689TIP3    H2 8011   4.127   2.839   0.780
 2690TIP3   OH2 8012   6.741   7.268   2.696
 2690TIP3    H1 8013   6.733   7.196   2.758
 2690TIP3    H2 8014   6.772   7.226   2.615
 2691TIP3   OH2 8015   4.912   0.690   1.846
 2691TIP3    H1 8016   4.992   0.703   1.796
 2691TIP3    H2 8017   4.942   0.667   1.934
 2692TIP3   OH2 8018   4.415   5.851   2.158
 2692TIP3    H1 8019   4.352   5.902   2.107
 2692TIP3    H2 8020   4.411   5.889   2.246
 2693TIP3   OH2 8021   1.224   4.895   5.831
 2693TIP3    H1 8022   1.240   4.818   5.885
 2693TIP3    H2 8023   1.310   4.934   5.818
 2694TIP3   OH2 8024   0.988   7.705   2.384
 2694TIP3    H1 8025   1.007   7.795   2.409
 2694TIP3    H2 8026   0.928   7.713   2.309
 2695TIP3   OH2 8027   7.794   3.918   3.741
 2695TIP3    H1 8028   7.773   3.893   3.830
 2695TIP3    H2 8029   7.834   3.839   3.703
 2696TIP3   OH2 8030   1.657   6.756   3.613
 2696TIP3    H1 8031   1.602   6.800   3.678
 2696TIP3    H2 8032   1.743   6.799   3.622
 2697TIP3   OH2 8033   7.948   3.625   3.167
 2697TIP3    H1 8034   8.030   3.577   3.179
 2697TIP3    H2 8035   7.948   3.689   3.239
 2698TIP3   OH2 8036   6.991   7.239   3.081
 2698TIP3    H1 8037   7.057   7.204   3.021
 2698TIP3    H2 8038   6.933   7.164   3.099
 2699TIP3   OH2 8039   8.121   3.376   0.544
 2699TIP3    H1 8040   8.075   3.294   0.530
 2699TIP3    H2 8041   8.055   3.435   0.580
 2700TIP3   OH2 8042   3.542   3.121   5.392
 2700TIP3    H1 8043   3.589   3.173   5.328
 2700TIP3    H2 8044   3.600   3.117   5.468
 2701TIP3   OH2 8045   4.198   0.339   2.972
 2701TIP3    H1 8046   4.140   0.407   2.939
 2701TIP3    H2 8047   4.250   0.312   2.897
 2702TIP3   OH2 8048   0.141   5.472   4.586
 2702TIP3    H1 8049   0.075   5.524   4.633
 2702TIP3    H2 8050   0.170   5.406   4.649
 2703TIP3   OH2 8051   7.617   3.529   4.943
 2703TIP3    H1 8052   7.630   3.624   4.951
 2703TIP3    H2 8053   7.684   3.491   5.000
 2704TIP3   OH2 8054   2.893   2.901   6.183
 2704TIP3    H1 8055   2.812   2.858   6.213
 2704TIP3    H2 8056   2.879   2.917   6.090
 2705TIP3   OH2 8057   0.480   4.162   5.189
 2705TIP3    H1 8058   0.513   4.074   5.210
 2705TIP3    H2 8059   0.557   4.210   5.159
 2706TIP3   OH2 8060   7.438   1.411   4.307
 2706TIP3    H1 8061   7.380   1.390   4.381
 2706TIP3    H2 8062   7.508   1.463   4.346
 2707TIP3   OH2 8063   7.901   6.382   1.562
 2707TIP3    H1 8064   7.949   6.437   1.624
 2707TIP3    H2 8065   7.855   6.318   1.617
 2708TIP3   OH2 8066   5.611   0.717   2.579
 2708TIP3    H1 8067   5.566   0.775   2.518
 2708TIP3    H2 8068   5.544   0.691   2.642
 2709TIP3   OH2 8069   3.181   2.821   1.480
 2709TIP3    H1 8070   3.235   2.757   1.528
 2709TIP3    H2 8071   3.148   2.880   1.547
 2710TIP3   OH2 8072   1.155   5.993   5.853
 2710TIP3    H1 8073   1.197   6.013   5.769
 2710TIP3    H2 8074   1.175   5.901   5.869
 2711TIP3   OH2 8075   7.133   5.025   5.736
 2711TIP3    H1 8076   7.084   4.958   5.783
 2711TIP3    H2 8077   7.146   5.095   5.800
 2712TIP3   OH2 8078   7.651   5.933   3.230
 2712TIP3    H1 8079   7.704   5.853   3.221
 2712TIP3    H2 8080   7.564   5.907   3.200
 2713TIP3   OH2 8081   2.367   6.263   1.357
 2713TIP3    H1 8082   2.461   6.274   1.370
 2713TIP3    H2 8083   2.336   6.218   1.435
 2714TIP3   OH2 8084   4.225   4.956   4.643
 2714TIP3    H1 8085   4.216   5.036   4.592
 2714TIP3    H2 8086   4.177   4.974   4.724
 2715TIP3   OH2 8087   5.246   6.247   4.331
 2715TIP3    H1 8088   5.167   6.233   4.382
 2715TIP3    H2 8089   5.316   6.249   4.396
 2716TIP3   OH2 8090   3.099   1.816   2.437
 2716TIP3    H1 8091   3.151   1.883   2.481
 2716TIP3    H2 8092   3.123   1.823   2.345
 2717TIP3   OH2 8093   0.203   2.017   1.519
 2717TIP3    H1 8094   0.252   2.048   1.444
 2717TIP3    H2 8095   0.167   1.933   1.491
 2718TIP3   OH2 8096   1.008   5.287   4.195
 2718TIP3    H1 8097   1.080   5.225   4.204
 2718TIP3    H2 8098   1.035   5.363   4.247
 2719TIP3   OH2 8099   1.738   2.935   0.600
 2719TIP3    H1 8100   1.653   2.899   0.623
 2719TIP3    H2 8101   1.764   2.987   0.676
 2720TIP3   OH2 8102   7.783   5.671   3.592
 2720TIP3    H1 8103   7.705   5.725   3.603
 2720TIP3    H2 8104   7.768   5.596   3.650
 2721TIP3   OH2 8105   1.030   1.203   3.135
 2721TIP3    H1 8106   0.982   1.158   3.066
 2721TIP3    H2 8107   0.962   1.239   3.192
 2722TIP3   OH2 8108   5.014   1.075   6.156
 2722TIP3    H1 8109   4.985   1.045   6.070
 2722TIP3    H2 8110   4.951   1.037   6.217
 2723TIP3   OH2 8111   2.477   6.979   0.169
 2723TIP3    H1 8112   2.404   6.917   0.176
 2723TIP3    H2 8113   2.447   7.058   0.214
 2724TIP3   OH2 8114   5.693   0.498   0.743
 2724TIP3    H1 8115   5.614   0.444   0.750
 2724TIP3    H2 8116   5.662   0.587   0.760
 2725TIP3   OH2 8117   1.417   5.197   5.470
 2725TIP3    H1 8118   1.367   5.278   5.461
 2725TIP3    H2 8119   1.504   5.226   5.500
 2726TIP3   OH2 8120   5.949   7.806   0.877
 2726TIP3    H1 8121   5.997   7.834   0.955
 2726TIP3    H2 8122   6.006   7.740   0.836
 2727TIP3   OH2 8123   5.411   7.551   4.038
 2727TIP3    H1 8124   5.380   7.474   4.086
 2727TIP3    H2 8125   5.407   7.526   3.946
 2728TIP3   OH2 8126   1.816   4.112   1.091
 2728TIP3    H1 8127   1.765   4.142   1.016
 2728TIP3    H2 8128   1.780   4.025   1.111
 2729TIP3   OH2 8129   6.349   4.778   0.636
 2729TIP3    H1 8130   6.287   4.850   0.635
 2729TIP3    H2 8131   6.433   4.820   0.656
 2730TIP3   OH2 8132   7.895   7.231   1.093
 2730TIP3    H1 8133   7.882   7.296   1.025
 2730TIP3    H2 8134   7.977   7.186   1.069
 2731TIP3   OH2 8135   6.746   6.907   4.788
 2731TIP3    H1 8136   6.759   6.912   4.693
 2731TIP3    H2 8137   6.834   6.897   4.824
 2732TIP3   OH2 8138   3.496   7.641   2.990
 2732TIP3    H1 8139   3.448   7.567   3.026
 2732TIP3    H2 8140   3.457   7.718   3.031
 2733TIP3   OH2 8141   0.664   2.582   2.013
 2733TIP3    H1 8142   0.645   2.598   2.106
 2733TIP3    H2 8143   0.579   2.593   1.969
 2734TIP3   OH2 8144   5.328   4.545   5.112
 2734TIP3    H1 8145   5.363   4.543   5.201
 2734TIP3    H2 8146   5.365   4.467   5.071
 2735TIP3   OH2 8147   1.545   1.261   5.339
 2735TIP3    H1 8148   1.480   1.245   5.408
 2735TIP3    H2 8149   1.602   1.185   5.341
 2736TIP3   OH2 8150   6.547   3.480   3.539
 2736TIP3    H1 8151   6.613   3.417   3.510
 2736TIP3    H2 8152   6.548   3.473   3.635
 2737TIP3   OH2 8153   7.504   1.427   3.176
 2737TIP3    H1 8154   7.459   1.445   3.094
 2737TIP3    H2 8155   7.447   1.462   3.244
 2738TIP3   OH2 8156   0.941   6.480   4.144
 2738TIP3    H1 8157   1.029   6.475   4.181
 2738TIP3    H2 8158   0.888   6.517   4.214
 2739TIP3   OH2 8159   1.791   6.714   4.794
 2739TIP3    H1 8160   1.859   6.648   4.809
 2739TIP3    H2 8161   1.790   6.726   4.699
 2740TIP3   OH2 8162   7.398   2.503   4.135
 2740TIP3    H1 8163   7.471   2.531   4.080
 2740TIP3    H2 8164   7.423   2.417   4.167
 2741TIP3   OH2 8165   1.510   7.177   5.607
 2741TIP3    H1 8166   1.571   7.222   5.549
 2741TIP3    H2 8167   1.424   7.210   5.581
 2742TIP3   OH2 8168   7.852   6.077   2.063
 2742TIP3    H1 8169   7.761   6.076   2.031
 2742TIP3    H2 8170   7.849   6.028   2.145
 2743TIP3   OH2 8171   6.399   3.962   5.232
 2743TIP3    H1 8172   6.464   3.994   5.294
 2743TIP3    H2 8173   6.450   3.927   5.159
 2744TIP3   OH2 8174   4.302   4.657   4.157
 2744TIP3    H1 8175   4.230   4.612   4.202
 2744TIP3    H2 8176   4.353   4.696   4.228
 2745TIP3   OH2 8177   5.815   6.016   0.209
 2745TIP3    H1 8178   5.753   5.959   0.254
 2745TIP3    H2 8179   5.856   5.959   0.144
 2746TIP3   OH2 8180   5.316   3.099   3.217
 2746TIP3    H1 8181   5.304   3.145   3.134
 2746TIP3    H2 8182   5.271   3.153   3.282
 2747TIP3   OH2 8183   5.945   4.671   3.645
 2747TIP3    H1 8184   6.031   4.630   3.641
 2747TIP3    H2 8185   5.915   4.673   3.554
 2748TIP3   OH2 8186   1.190   5.284   4.591
 2748TIP3    H1 8187   1.097   5.280   4.615
 2748TIP3    H2 8188   1.221   5.366   4.629
 2749TIP3   OH2 8189   2.492   2.331   5.035
 2749TIP3    H1 8190   2.490   2.261   4.971
 2749TIP3    H2 8191   2.577   2.374   5.021
 2750TIP3   OH2 8192   0.237   0.115   4.140
 2750TIP3    H1 8193   0.203   0.067   4.065
 2750TIP3    H2 8194   0.301   0.055   4.180
 2751TIP3   OH2 8195   5.852   6.619   1.518
 2751TIP3    H1 8196   5.931   6.599   1.567
 2751TIP3    H2 8197   5.840   6.543   1.461
 2752TIP3   OH2 8198   1.185   4.965   5.302
 2752TIP3    H1 8199   1.261   5.006   5.262
 2752TIP3    H2 8200   1.219   4.925   5.382
 2753TIP3   OH2 8201   6.150   1.786   2.598
 2753TIP3    H1 8202   6.096   1.781   2.519
 2753TIP3    H2 8203   6.088   1.782   2.671
 2754TIP3   OH2 8204   5.944   3.065   0.175
 2754TIP3    H1 8205   5.982   3.151   0.155
 2754TIP3    H2 8206   5.865   3.084   0.225
 2755TIP3   OH2 8207   6.074   4.207   4.040
 2755TIP3    H1 8208   6.053   4.293   4.004
 2755TIP3    H2 8209   6.166   4.194   4.018
 2756TIP3   OH2 8210   1.974   1.000   6.519
 2756TIP3    H1 8211   2.061   1.041   6.527
 2756TIP3    H2 8212   1.966   0.946   6.598
 2757TIP3   OH2 8213   5.351   7.229   6.251
 2757TIP3    H1 8214   5.345   7.135   6.234
 2757TIP3    H2 8215   5.444   7.243   6.271
 2758TIP3   OH2 8216   3.446   5.465   5.366
 2758TIP3    H1 8217   3.371   5.524   5.371
 2758TIP3    H2 8218   3.464   5.441   5.456
 2759TIP3   OH2 8219   2.260   7.247   4.217
 2759TIP3    H1 8220   2.254   7.332   4.260
 2759TIP3    H2 8221   2.260   7.266   4.124
 2760TIP3   OH2 8222   5.725   1.401   4.035
 2760TIP3    H1 8223   5.652   1.386   4.096
 2760TIP3    H2 8224   5.686   1.447   3.961
 2761TIP3   OH2 8225   6.565   4.985   2.406
 2761TIP3    H1 8226   6.570   5.080   2.412
 2761TIP3    H2 8227   6.505   4.969   2.333
 2762TIP3   OH2 8228   3.138   6.768   1.158
 2762TIP3    H1 8229   3.192   6.707   1.209
 2762TIP3    H2 8230   3.051   6.728   1.157
 2763TIP3   OH2 8231   2.942   6.643   1.338
 2763TIP3    H1 8232   3.005   6.659   1.407
 2763TIP3    H2 8233   2.882   6.718   1.342
 2764TIP3   OH2 8234   4.179   1.238   3.033
 2764TIP3    H1 8235   4.085   1.237   3.014
 2764TIP3    H2 8236   4.186   1.283   3.117
 2765TIP3   OH2 8237   5.602   4.762   4.245
 2765TIP3    H1 8238   5.559   4.842   4.275
 2765TIP3    H2 8239   5.619   4.713   4.326
 2766TIP3   OH2 8240   6.337   4.548   4.084
 2766TIP3    H1 8241   6.246   4.577   4.095
 2766TIP3    H2 8242   6.389   4.626   4.098
 2767TIP3   OH2 8243   1.254   7.039   5.473
 2767TIP3    H1 8244   1.205   7.050   5.555
 2767TIP3    H2 8245   1.321   6.974   5.493
 2768TIP3   OH2 8246   4.339   6.542   3.086
 2768TIP3    H1 8247   4.408   6.603   3.112
 2768TIP3    H2 8248   4.373   6.456   3.109
 2769TIP3   OH2 8249   1.307   7.579   5.059
 2769TIP3    H1 8250   1.343   7.631   5.131
 2769TIP3    H2 8251   1.340   7.491   5.075
 2770TIP3   OH2 8252   1.958   4.251   6.518
 2770TIP3    H1 8253   1.865   4.263   6.501
 2770TIP3    H2 8254   2.002   4.305   6.452
 2771TIP3   OH2 8255   3.022   5.237   6.302
 2771TIP3    H1 8256   2.993   5.154   6.338
 2771TIP3    H2 8257   2.944   5.293   6.305
 2772TIP3   OH2 8258   3.523   4.545   4.024
 2772TIP3    H1 8259   3.560   4.464   4.059
 2772TIP3    H2 8260   3.483   4.520   3.941
 2773TIP3   OH2 8261   7.537   4.811   1.417
 2773TIP3    H1 8262   7.618   4.861   1.412
 2773TIP3    H2 8263   7.533   4.781   1.508
 2774TIP3   OH2 8264   7.332   7.254   6.373
 2774TIP3    H1 8265   7.282   7.309   6.434
 2774TIP3    H2 8266   7.282   7.172   6.369
 2775TIP3   OH2 8267   6.742   7.207   6.651
 2775TIP3    H1 8268   6.810   7.261   6.611
 2775TIP3    H2 8269   6.790   7.141   6.701
 2776TIP3   OH2 8270   3.086   5.767   2.254
 2776TIP3    H1 8271   3.029   5.729   2.320
 2776TIP3    H2 8272   3.043   5.848   2.228
 2777TIP3   OH2 8273   4.256   7.459   1.178
 2777TIP3    H1 8274   4.319   7.406   1.129
 2777TIP3    H2 8275   4.194   7.491   1.113
 2778TIP3   OH2 8276   4.998   3.990   4.544
 2778TIP3    H1 8277   5.043   3.907   4.551
 2778TIP3    H2 8278   5.067   4.056   4.554
 2779TIP3   OH2 8279   1.785   5.077   3.056
 2779TIP3    H1 8280   1.690   5.068   3.049
 2779TIP3    H2 8281   1.810   5.125   2.977
 2780TIP3   OH2 8282   4.887   2.566   0.840
 2780TIP3    H1 8283   4.807   2.596   0.883
 2780TIP3    H2 8284   4.928   2.646   0.807
 2781TIP3   OH2 8285   1.464   1.173   1.421
 2781TIP3    H1 8286   1.483   1.086   1.458
 2781TIP3    H2 8287   1.544   1.223   1.436
 2782TIP3   OH2 8288   1.284   4.887   2.831
 2782TIP3    H1 8289   1.251   4.919   2.914
 2782TIP3    H2 8290   1.218   4.824   2.801
 2783TIP3   OH2 8291   0.251   4.736   1.927
 2783TIP3    H1 8292   0.191   4.809   1.940
 2783TIP3    H2 8293   0.337   4.770   1.952
 2784TIP3   OH2 8294   8.295   5.221   1.141
 2784TIP3    H1 8295   8.227   5.273   1.183
 2784TIP3    H2 8296   8.247   5.166   1.078
 2785TIP3   OH2 8297   3.356   5.715   5.096
 2785TIP3    H1 8298   3.365   5.676   5.183
 2785TIP3    H2 8299   3.301   5.653   5.048
 2786TIP3   OH2 8300   6.830   0.299   0.861
 2786TIP3    H1 8301   6.767   0.252   0.917
 2786TIP3    H2 8302   6.915   0.260   0.882
 2787TIP3   OH2 8303   7.056   7.002   5.647
 2787TIP3    H1 8304   6.962   7.015   5.646
 2787TIP3    H2 8305   7.072   6.949   5.725
 2788TIP3   OH2 8306   7.997   0.987   1.735
 2788TIP3    H1 8307   7.912   0.944   1.741
 2788TIP3    H2 8308   8.053   0.938   1.796
 2789TIP3   OH2 8309   0.568   1.399   3.517
 2789TIP3    H1 8310   0.522   1.337   3.574
 2789TIP3    H2 8311   0.499   1.433   3.459
 2790TIP3   OH2 8312   1.082   4.022   0.817
 2790TIP3    H1 8313   1.056   4.046   0.906
 2790TIP3    H2 8314   1.145   3.951   0.829
 2791TIP3   OH2 8315   1.608   5.893   0.492
 2791TIP3    H1 8316   1.567   5.911   0.577
 2791TIP3    H2 8317   1.605   5.798   0.484
 2792TIP3   OH2 8318   7.303   0.479   1.934
 2792TIP3    H1 8319   7.393   0.450   1.919
 2792TIP3    H2 8320   7.286   0.458   2.025
 2793TIP3   OH2 8321   2.876   6.503   6.581
 2793TIP3    H1 8322   2.949   6.564   6.594
 2793TIP3    H2 8323   2.860   6.465   6.667
 2794TIP3   OH2 8324   1.925   4.180   5.764
 2794TIP3    H1 8325   1.862   4.171   5.836
 2794TIP3    H2 8326   1.949   4.272   5.764
 2795TIP3   OH2 8327   7.529   2.631   1.940
 2795TIP3    H1 8328   7.439   2.617   1.967
 2795TIP3    H2 8329   7.553   2.716   1.978
 2796TIP3   OH2 8330   6.232   2.043   3.636
 2796TIP3    H1 8331   6.207   2.091   3.715
 2796TIP3    H2 8332   6.165   1.974   3.628
 2797TIP3   OH2 8333   6.694   6.314   1.852
 2797TIP3    H1 8334   6.699   6.408   1.831
 2797TIP3    H2 8335   6.668   6.273   1.769
 2798TIP3   OH2 8336   6.099   0.154   5.611
 2798TIP3    H1 8337   6.175   0.156   5.553
 2798TIP3    H2 8338   6.125   0.207   5.686
 2799TIP3   OH2 8339   3.323   6.447   6.256
 2799TIP3    H1 8340   3.404   6.426   6.210
 2799TIP3    H2 8341   3.284   6.518   6.205
 2800TIP3   OH2 8342   6.188   4.620   1.580
 2800TIP3    H1 8343   6.257   4.572   1.626
 2800TIP3    H2 8344   6.144   4.553   1.528
 2801TIP3   OH2 8345   0.514   5.880   1.785
 2801TIP3    H1 8346   0.500   5.794   1.824
 2801TIP3    H2 8347   0.480   5.941   1.851
 2802TIP3   OH2 8348   2.536   6.145   1.062
 2802TIP3    H1 8349   2.455   6.097   1.079
 2802TIP3    H2 8350   2.604   6.094   1.107
 2803TIP3   OH2 8351   0.534   2.903   2.984
 2803TIP3    H1 8352   0.505   2.812   2.993
 2803TIP3    H2 8353   0.530   2.938   3.073
 2804TIP3   OH2 8354   6.422   4.662   2.648
 2804TIP3    H1 8355   6.377   4.740   2.615
 2804TIP3    H2 8356   6.459   4.690   2.732
 2805TIP3   OH2 8357   7.926   6.822   3.888
 2805TIP3    H1 8358   7.873   6.887   3.934
 2805TIP3    H2 8359   8.016   6.853   3.898
 2806TIP3   OH2 8360   1.695   4.561   5.495
 2806TIP3    H1 8361   1.759   4.623   5.529
 2806TIP3    H2 8362   1.745   4.506   5.435
 2807TIP3   OH2 8363   1.044   1.619   4.665
 2807TIP3    H1 8364   1.082   1.651   4.747
 2807TIP3    H2 8365   1.006   1.696   4.624
 2808TIP3   OH2 8366   3.127   5.642   6.045
 2808TIP3    H1 8367   3.106   5.622   5.954
 2808TIP3    H2 8368   3.146   5.557   6.085
 2809TIP3   OH2 8369   7.880   5.862   2.836
 2809TIP3    H1 8370   7.876   5.804   2.911
 2809TIP3    H2 8371   7.791   5.863   2.801
 2810TIP3   OH2 8372   5.438   2.256   0.327
 2810TIP3    H1 8373   5.397   2.298   0.403
 2810TIP3    H2 8374   5.408   2.165   0.331
 2811TIP3   OH2 8375   3.713   3.359   5.408
 2811TIP3    H1 8376   3.794   3.405   5.383
 2811TIP3    H2 8377   3.645   3.401   5.355
 2812TIP3   OH2 8378   5.156   6.015   6.667
 2812TIP3    H1 8379   5.174   5.935   6.617
 2812TIP3    H2 8380   5.214   6.010   6.743
 2813TIP3   OH2 8381   2.902   3.191   6.780
 2813TIP3    H1 8382   2.826   3.176   6.724
 2813TIP3    H2 8383   2.976   3.191   6.720
 2814TIP3   OH2 8384   8.003   6.426   3.832
 2814TIP3    H1 8385   8.050   6.493   3.784
 2814TIP3    H2 8386   8.071   6.374   3.875
 2815TIP3   OH2 8387   3.784   3.277   5.953
 2815TIP3    H1 8388   3.756   3.308   5.867
 2815TIP3    H2 8389   3.864   3.325   5.971
 2816TIP3   OH2 8390   5.618   4.187   4.125
 2816TIP3    H1 8391   5.568   4.106   4.132
 2816TIP3    H2 8392   5.581   4.232   4.048
 2817TIP3   OH2 8393   0.613   7.280   0.824
 2817TIP3    H1 8394   0.653   7.348   0.769
 2817TIP3    H2 8395   0.683   7.216   0.837
 2818TIP3   OH2 8396   3.806   0.221   0.150
 2818TIP3    H1 8397   3.866   0.151   0.122
 2818TIP3    H2 8398   3.729   0.175   0.183
 2819TIP3   OH2 8399   8.324   5.817   1.119
 2819TIP3    H1 8400   8.251   5.766   1.085
 2819TIP3    H2 8401   8.402   5.780   1.078
 2820TIP3   OH2 8402   2.952   7.741   4.626
 2820TIP3    H1 8403   2.915   7.802   4.690
 2820TIP3    H2 8404   2.917   7.770   4.542
 2821TIP3   OH2 8405   3.514   0.274   5.397
 2821TIP3    H1 8406   3.535   0.250   5.487
 2821TIP3    H2 8407   3.564   0.354   5.381
 2822TIP3   OH2 8408   1.506   3.577   3.017
 2822TIP3    H1 8409   1.569   3.602   2.950
 2822TIP3    H2 8410   1.512   3.481   3.022
 2823TIP3   OH2 8411   3.554   2.355   1.958
 2823TIP3    H1 8412   3.557   2.325   1.867
 2823TIP3    H2 8413   3.633   2.408   1.969
 2824TIP3   OH2 8414   1.783   5.301   4.813
 2824TIP3    H1 8415   1.825   5.235   4.867
 2824TIP3    H2 8416   1.823   5.384   4.841
 2825TIP3   OH2 8417   0.085   2.881   6.022
 2825TIP3    H1 8418   0.006   2.935   6.026
 2825TIP3    H2 8419   0.091   2.842   6.109
 2826TIP3   OH2 8420   2.428   2.523   5.200
 2826TIP3    H1 8421   2.414   2.454   5.136
 2826TIP3    H2 8422   2.435   2.477   5.284
 2827TIP3   OH2 8423   7.584   4.940   2.824
 2827TIP3    H1 8424   7.675   4.916   2.804
 2827TIP3    H2 8425   7.567   4.897   2.908
 2828TIP3   OH2 8426   8.015   1.586   0.407
 2828TIP3    H1 8427   7.967   1.539   0.476
 2828TIP3    H2 8428   7.948   1.640   0.366
 2829TIP3   OH2 8429   6.475   3.591   4.728
 2829TIP3    H1 8430   6.463   3.552   4.641
 2829TIP3    H2 8431   6.414   3.543   4.784
 2830TIP3   OH2 8432   0.919   1.623   0.663
 2830TIP3    H1 8433   0.873   1.619   0.579
 2830TIP3    H2 8434   0.930   1.716   0.681
 2831TIP3   OH2 8435   5.849   7.708   6.495
 2831TIP3    H1 8436   5.812   7.620   6.492
 2831TIP3    H2 8437   5.772   7.765   6.506
 2832TIP3   OH2 8438   1.222   6.309   2.446
 2832TIP3    H1 8439   1.220   6.403   2.463
 2832TIP3    H2 8440   1.238   6.302   2.352
 2833TIP3   OH2 8441   6.199   4.023   5.908
 2833TIP3    H1 8442   6.161   4.062   5.830
 2833TIP3    H2 8443   6.123   4.001   5.963
 2834TIP3   OH2 8444   0.143   7.261   1.255
 2834TIP3    H1 8445   0.098   7.292   1.177
 2834TIP3    H2 8446   0.218   7.320   1.264
 2835TIP3   OH2 8447   7.297   0.859   2.384
 2835TIP3    H1 8448   7.323   0.855   2.476
 2835TIP3    H2 8449   7.214   0.907   2.385
 2836TIP3   OH2 8450   4.906   5.897   2.384
 2836TIP3    H1 8451   4.815   5.882   2.411
 2836TIP3    H2 8452   4.905   5.983   2.343
 2837TIP3   OH2 8453   2.077   0.515   2.787
 2837TIP3    H1 8454   2.104   0.489   2.875
 2837TIP3    H2 8455   2.087   0.436   2.735
 2838TIP3   OH2 8456   0.134   4.094   3.798
 2838TIP3    H1 8457   0.159   4.088   3.890
 2838TIP3    H2 8458   0.059   4.154   3.798
 2839TIP3   OH2 8459   4.291   4.324   5.454
 2839TIP3    H1 8460   4.260   4.244   5.497
 2839TIP3    H2 8461   4.255   4.319   5.366
 2840TIP3   OH2 8462   6.775   1.580   1.729
 2840TIP3    H1 8463   6.846   1.544   1.676
 2840TIP3    H2 8464   6.769   1.672   1.702
 2841TIP3   OH2 8465   5.851   0.604   6.448
 2841TIP3    H1 8466   5.887   0.543   6.513
 2841TIP3    H2 8467   5.771   0.561   6.417
 2842TIP3   OH2 8468   5.620   0.103   6.374
 2842TIP3    H1 8469   5.658   0.061   6.452
 2842TIP3    H2 8470   5.693   0.109   6.312
 2843TIP3   OH2 8471   3.028   0.706   4.343
 2843TIP3    H1 8472   3.022   0.756   4.261
 2843TIP3    H2 8473   3.052   0.770   4.409
 2844TIP3   OH2 8474   2.724   1.870   5.651
 2844TIP3    H1 8475   2.714   1.821   5.569
 2844TIP3    H2 8476   2.707   1.961   5.626
 2845TIP3   OH2 8477   8.203   4.271   3.816
 2845TIP3    H1 8478   8.156   4.292   3.897
 2845TIP3    H2 8479   8.184   4.345   3.758
 2846TIP3   OH2 8480   7.612   3.705   5.386
 2846TIP3    H1 8481   7.566   3.788   5.400
 2846TIP3    H2 8482   7.542   3.641   5.376
 2847TIP3   OH2 8483   0.603   7.361   6.230
 2847TIP3    H1 8484   0.676   7.325   6.179
 2847TIP3    H2 8485   0.534   7.376   6.166
 2848TIP3   OH2 8486   5.013   1.887   1.094
 2848TIP3    H1 8487   5.057   1.839   1.024
 2848TIP3    H2 8488   4.975   1.819   1.150
 2849TIP3   OH2 8489   7.692   3.441   6.406
 2849TIP3    H1 8490   7.759   3.440   6.474
 2849TIP3    H2 8491   7.636   3.366   6.425
 2850TIP3   OH2 8492   7.143   4.853   1.674
 2850TIP3    H1 8493   7.118   4.846   1.766
 2850TIP3    H2 8494   7.155   4.762   1.645
 2851TIP3   OH2 8495   5.815   7.417   4.147
 2851TIP3    H1 8496   5.864   7.335   4.135
 2851TIP3    H2 8497   5.724   7.392   4.133
 2852TIP3   OH2 8498   7.014   7.195   1.333
 2852TIP3    H1 8499   7.008   7.114   1.283
 2852TIP3    H2 8500   7.108   7.205   1.351
 2853TIP3   OH2 8501   6.177   4.037   6.267
 2853TIP3    H1 8502   6.105   4.034   6.330
 2853TIP3    H2 8503   6.133   4.054   6.183
 2854TIP3   OH2 8504   4.727   2.223   6.165
 2854TIP3    H1 8505   4.741   2.302   6.114
 2854TIP3    H2 8506   4.651   2.181   6.125
 2855TIP3   OH2 8507   6.755   7.585   0.938
 2855TIP3    H1 8508   6.804   7.506   0.918
 2855TIP3    H2 8509   6.727   7.574   1.029
 2856TIP3   OH2 8510   7.335   7.089   0.035
 2856TIP3    H1 8511   7.313   6.996   0.039
 2856TIP3    H2 8512   7.412   7.094  -0.021
 2857TIP3   OH2 8513   5.699   6.272   5.213
 2857TIP3    H1 8514   5.677   6.194   5.162
 2857TIP3    H2 8515   5.794   6.282   5.202
 2858TIP3   OH2 8516   6.016   0.951   4.515
 2858TIP3    H1 8517   6.082   1.005   4.558
 2858TIP3    H2 8518   6.066   0.890   4.460
 2859TIP3   OH2 8519   6.083   1.694   3.019
 2859TIP3    H1 8520   6.079   1.603   2.989
 2859TIP3    H2 8521   6.152   1.694   3.085
 2860TIP3   OH2 8522   4.575   3.031   3.640
 2860TIP3    H1 8523   4.565   3.042   3.546
 2860TIP3    H2 8524   4.652   2.975   3.650
 2861TIP3   OH2 8525   5.715   6.027   2.646
 2861TIP3    H1 8526   5.754   6.058   2.564
 2861TIP3    H2 8527   5.621   6.019   2.627
 2862TIP3   OH2 8528   4.611   0.208   0.668
 2862TIP3    H1 8529   4.610   0.254   0.584
 2862TIP3    H2 8530   4.609   0.277   0.734
 2863TIP3   OH2 8531   6.775   7.175   3.458
 2863TIP3    H1 8532   6.767   7.270   3.462
 2863TIP3    H2 8533   6.842   7.154   3.522
 2864TIP3   OH2 8534   6.394   4.158   6.387
 2864TIP3    H1 8535   6.400   4.161   6.483
 2864TIP3    H2 8536   6.326   4.094   6.369
 2865TIP3   OH2 8537   3.921   2.939   0.626
 2865TIP3    H1 8538   3.878   3.024   0.627
 2865TIP3    H2 8539   4.012   2.958   0.648
 2866TIP3   OH2 8540   2.842   1.859   2.304
 2866TIP3    H1 8541   2.880   1.795   2.363
 2866TIP3    H2 8542   2.908   1.929   2.299
 2867TIP3   OH2 8543   0.198   5.844   5.453
 2867TIP3    H1 8544   0.222   5.827   5.543
 2867TIP3    H2 8545   0.103   5.860   5.456
 2868TIP3   OH2 8546   5.335   6.184   1.010
 2868TIP3    H1 8547   5.249   6.225   1.002
 2868TIP3    H2 8548   5.317   6.098   1.048
 2869TIP3   OH2 8549   2.157   1.557   2.054
 2869TIP3    H1 8550   2.208   1.629   2.091
 2869TIP3    H2 8551   2.138   1.585   1.965
 2870TIP3   OH2 8552   8.159   6.924   2.900
 2870TIP3    H1 8553   8.204   6.933   2.983
 2870TIP3    H2 8554   8.068   6.947   2.919
 2871TIP3   OH2 8555   1.529   3.688   4.751
 2871TIP3    H1 8556   1.534   3.609   4.803
 2871TIP3    H2 8557   1.548   3.759   4.813
 2872TIP3   OH2 8558   6.512   1.688   6.644
 2872TIP3    H1 8559   6.591   1.647   6.680
 2872TIP3    H2 8560   6.536   1.780   6.631
 2873TIP3   OH2 8561   2.343   4.549   5.004
 2873TIP3    H1 8562   2.329   4.582   4.916
 2873TIP3    H2 8563   2.418   4.490   4.996
 2874TIP3   OH2 8564   3.868   2.866   2.133
 2874TIP3    H1 8565   3.939   2.927   2.113
 2874TIP3    H2 8566   3.912   2.783   2.150
 2875TIP3   OH2 8567   7.850   5.675   4.275
 2875TIP3    H1 8568   7.795   5.659   4.351
 2875TIP3    H2 8569   7.790   5.698   4.205
 2876TIP3   OH2 8570   0.575   4.000   2.372
 2876TIP3    H1 8571   0.549   3.908   2.363
 2876TIP3    H2 8572   0.591   4.029   2.282
 2877TIP3   OH2 8573   4.361   5.224   5.124
 2877TIP3    H1 8574   4.319   5.169   5.058
 2877TIP3    H2 8575   4.445   5.249   5.085
 2878TIP3   OH2 8576   0.905   6.332   3.181
 2878TIP3    H1 8577   0.826   6.283   3.201
 2878TIP3    H2 8578   0.968   6.306   3.248
 2879TIP3   OH2 8579   2.380   7.606   6.071
 2879TIP3    H1 8580   2.457   7.657   6.046
 2879TIP3    H2 8581   2.415   7.521   6.097
 2880TIP3   OH2 8582   0.350   7.092   0.013
 2880TIP3    H1 8583   0.259   7.120   0.029
 2880TIP3    H2 8584   0.383   7.069   0.100
 2881TIP3   OH2 8585   0.277   1.471   2.615
 2881TIP3    H1 8586   0.251   1.409   2.548
 2881TIP3    H2 8587   0.204   1.533   2.620
 2882TIP3   OH2 8588   1.735   2.745   1.702
 2882TIP3    H1 8589   1.790   2.688   1.755
 2882TIP3    H2 8590   1.728   2.701   1.618
 2883TIP3   OH2 8591   5.940   0.792   6.292
 2883TIP3    H1 8592   5.912   0.721   6.350
 2883TIP3    H2 8593   5.988   0.852   6.348
 2884TIP3   OH2 8594   0.794   2.892   5.825
 2884TIP3    H1 8595   0.853   2.968   5.825
 2884TIP3    H2 8596   0.846   2.822   5.786
 2885TIP3   OH2 8597   2.361   5.128   6.408
 2885TIP3    H1 8598   2.446   5.170   6.401
 2885TIP3    H2 8599   2.300   5.199   6.427
 2886TIP3   OH2 8600   3.590   1.283   6.720
 2886TIP3    H1 8601   3.585   1.220   6.792
 2886TIP3    H2 8602   3.677   1.269   6.682
 2887TIP3   OH2 8603   3.307   6.161   2.396
 2887TIP3    H1 8604   3.237   6.096   2.392
 2887TIP3    H2 8605   3.383   6.117   2.359
 2888TIP3   OH2 8606   6.770   3.246   5.415
 2888TIP3    H1 8607   6.802   3.336   5.405
 2888TIP3    H2 8608   6.682   3.256   5.452
 2889TIP3   OH2 8609   1.596   0.292   1.328
 2889TIP3    H1 8610   1.614   0.223   1.264
 2889TIP3    H2 8611   1.504   0.316   1.313
 2890TIP3   OH2 8612   0.328   5.685   5.777
 2890TIP3    H1 8613   0.410   5.682   5.827
 2890TIP3    H2 8614   0.354   5.672   5.686
 2891TIP3   OH2 8615   7.983   6.433   5.538
 2891TIP3    H1 8616   7.922   6.465   5.605
 2891TIP3    H2 8617   8.058   6.491   5.545
 2892TIP3   OH2 8618   4.288   7.139   2.135
 2892TIP3    H1 8619   4.275   7.143   2.040
 2892TIP3    H2 8620   4.382   7.156   2.146
 2893TIP3   OH2 8621   8.026   0.046   0.570
 2893TIP3    H1 8622   8.096   0.083   0.624
 2893TIP3    H2 8623   7.972  -0.004   0.632
 2894TIP3   OH2 8624   3.144   5.931   4.477
 2894TIP3    H1 8625   3.122   5.928   4.570
 2894TIP3    H2 8626   3.186   6.016   4.465
 2895TIP3   OH2 8627   2.059   7.825   0.866
 2895TIP3    H1 8628   2.015   7.740   0.852
 2895TIP3    H2 8629   2.055   7.838   0.961
 2896TIP3   OH2 8630   6.780   4.565   4.353
 2896TIP3    H1 8631   6.799   4.629   4.421
 2896TIP3    H2 8632   6.691   4.536   4.372
 2897TIP3   OH2 8633   2.063   5.626   2.547
 2897TIP3    H1 8634   2.025   5.672   2.622
 2897TIP3    H2 8635   2.107   5.695   2.496
 2898TIP3   OH2 8636   6.585   3.696   5.358
 2898TIP3    H1 8637   6.546   3.744   5.285
 2898TIP3    H2 8638   6.510   3.671   5.412
 2899TIP3   OH2 8639   0.392   1.034   0.987
 2899TIP3    H1 8640   0.330   1.003   0.921
 2899TIP3    H2 8641   0.467   1.064   0.937
 2900TIP3   OH2 8642   0.058   7.080   5.094
 2900TIP3    H1 8643   0.020   7.071   5.181
 2900TIP3    H2 8644   0.111   7.001   5.083
 2901TIP3   OH2 8645   0.275   0.976   4.178
 2901TIP3    H1 8646   0.355   0.941   4.216
 2901TIP3    H2 8647   0.285   1.071   4.185
 2902TIP3   OH2 8648   4.245   1.483   1.277
 2902TIP3    H1 8649   4.163   1.450   1.240
 2902TIP3    H2 8650   4.251   1.442   1.363
 2903TIP3   OH2 8651   3.435   4.123   5.575
 2903TIP3    H1 8652   3.400   4.186   5.638
 2903TIP3    H2 8653   3.442   4.172   5.493
 2904TIP3   OH2 8654   5.393   4.683   2.249
 2904TIP3    H1 8655   5.317   4.627   2.266
 2904TIP3    H2 8656   5.356   4.768   2.225
 2905TIP3   OH2 8657   7.675   6.555   0.339
 2905TIP3    H1 8658   7.727   6.477   0.321
 2905TIP3    H2 8659   7.694   6.614   0.266
 2906TIP3   OH2 8660   2.399   4.814   2.033
 2906TIP3    H1 8661   2.380   4.906   2.049
 2906TIP3    H2 8662   2.420   4.778   2.119
 2907TIP3   OH2 8663   6.074   7.435   3.792
 2907TIP3    H1 8664   6.088   7.468   3.881
 2907TIP3    H2 8665   6.110   7.346   3.793
 2908TIP3   OH2 8666   1.499   2.544   6.038
 2908TIP3    H1 8667   1.478   2.631   6.004
 2908TIP3    H2 8668   1.594   2.545   6.048
 2909TIP3   OH2 8669   7.558   3.681   2.266
 2909TIP3    H1 8670   7.486   3.692   2.204
 2909TIP3    H2 8671   7.606   3.605   2.234
 2910TIP3   OH2 8672   5.632   0.530   3.281
 2910TIP3    H1 8673   5.596   0.617   3.268
 2910TIP3    H2 8674   5.588   0.497   3.359
 2911TIP3   OH2 8675   3.893   0.426   4.131
 2911TIP3    H1 8676   3.803   0.401   4.149
 2911TIP3    H2 8677   3.918   0.482   4.205
 2912TIP3   OH2 8678   6.782   6.592   4.455
 2912TIP3    H1 8679   6.878   6.601   4.460
 2912TIP3    H2 8680   6.761   6.525   4.519
 2913TIP3   OH2 8681   6.246   7.146   3.768
 2913TIP3    H1 8682   6.306   7.162   3.841
 2913TIP3    H2 8683   6.256   7.222   3.712
 2914TIP3   OH2 8684   2.590   3.841   4.353
 2914TIP3    H1 8685   2.515   3.814   4.406
 2914TIP3    H2 8686   2.625   3.758   4.318
 2915TIP3   OH2 8687   5.910   6.214   3.657
 2915TIP3    H1 8688   5.895   6.205   3.563
 2915TIP3    H2 8689   5.860   6.141   3.696
 2916TIP3   OH2 8690   2.587   1.497   5.648
 2916TIP3    H1 8691   2.600   1.464   5.737
 2916TIP3    H2 8692   2.675   1.517   5.616
 2917TIP3   OH2 8693   6.182   3.123   3.340
 2917TIP3    H1 8694   6.160   3.180   3.266
 2917TIP3    H2 8695   6.123   3.151   3.410
 2918TIP3   OH2 8696   0.917   5.260   3.080
 2918TIP3    H1 8697   0.852   5.325   3.052
 2918TIP3    H2 8698   0.981   5.311   3.130
 2919TIP3   OH2 8699   4.344   7.078   3.782
 2919TIP3    H1 8700   4.255   7.069   3.746
 2919TIP3    H2 8701   4.388   6.997   3.755
 2920TIP3   OH2 8702   5.311   4.820   3.625
 2920TIP3    H1 8703   5.284   4.775   3.545
 2920TIP3    H2 8704   5.373   4.887   3.594
 2921TIP3   OH2 8705   5.683   1.798   1.754
 2921TIP3    H1 8706   5.658   1.891   1.749
 2921TIP3    H2 8707   5.727   1.790   1.839
 2922TIP3   OH2 8708   7.304   5.557   0.480
 2922TIP3    H1 8709   7.392   5.592   0.463
 2922TIP3    H2 8710   7.287   5.499   0.406
 2923TIP3   OH2 8711   1.919   4.026   5.257
 2923TIP3    H1 8712   1.933   3.997   5.347
 2923TIP3    H2 8713   1.840   4.079   5.260
 2924TIP3   OH2 8714   1.234   6.981   1.392
 2924TIP3    H1 8715   1.303   6.946   1.337
 2924TIP3    H2 8716   1.182   6.905   1.417
 2925TIP3   OH2 8717   4.635   5.254   6.558
 2925TIP3    H1 8718   4.702   5.303   6.606
 2925TIP3    H2 8719   4.611   5.311   6.485
 2926TIP3   OH2 8720   2.072   2.290   0.789
 2926TIP3    H1 8721   2.101   2.316   0.877
 2926TIP3    H2 8722   1.982   2.322   0.783
 2927TIP3   OH2 8723   3.214   6.214   2.982
 2927TIP3    H1 8724   3.215   6.294   2.931
 2927TIP3    H2 8725   3.154   6.232   3.054
 2928TIP3   OH2 8726   7.039   6.079   4.092
 2928TIP3    H1 8727   6.944   6.094   4.095
 2928TIP3    H2 8728   7.047   5.989   4.061
 2929TIP3   OH2 8729   7.046   3.215   6.506
 2929TIP3    H1 8730   7.054   3.224   6.411
 2929TIP3    H2 8731   7.004   3.130   6.518
 2930TIP3   OH2 8732   6.728   1.752   0.532
 2930TIP3    H1 8733   6.715   1.671   0.482
 2930TIP3    H2 8734   6.808   1.790   0.494
 2931TIP3   OH2 8735   3.923   5.605   3.082
 2931TIP3    H1 8736   3.916   5.518   3.043
 2931TIP3    H2 8737   3.861   5.604   3.155
 2932TIP3   OH2 8738   4.643   5.014   3.531
 2932TIP3    H1 8739   4.700   4.956   3.583
 2932TIP3    H2 8740   4.599   4.956   3.470
 2933TIP3   OH2 8741   7.115   1.995   2.534
 2933TIP3    H1 8742   7.026   2.005   2.569
 2933TIP3    H2 8743   7.142   2.083   2.510
 2934TIP3   OH2 8744   1.254   3.572   1.969
 2934TIP3    H1 8745   1.320   3.510   2.000
 2934TIP3    H2 8746   1.232   3.625   2.045
 2935TIP3   OH2 8747   6.644   5.457   1.078
 2935TIP3    H1 8748   6.715   5.478   1.017
 2935TIP3    H2 8749   6.661   5.512   1.155
 2936TIP3   OH2 8750   1.930   4.552   5.305
 2936TIP3    H1 8751   2.019   4.547   5.270
 2936TIP3    H2 8752   1.881   4.486   5.256
 2937TIP3   OH2 8753   5.522   5.064   3.592
 2937TIP3    H1 8754   5.505   5.117   3.514
 2937TIP3    H2 8755   5.611   5.089   3.619
 2938TIP3   OH2 8756   8.016   2.433   1.331
 2938TIP3    H1 8757   8.036   2.363   1.269
 2938TIP3    H2 8758   8.059   2.406   1.412
 2939TIP3   OH2 8759   6.414   6.879   0.474
 2939TIP3    H1 8760   6.500   6.850   0.506
 2939TIP3    H2 8761   6.382   6.805   0.422
 2940TIP3   OH2 8762   4.737   1.890   4.166
 2940TIP3    H1 8763   4.790   1.965   4.138
 2940TIP3    H2 8764   4.758   1.821   4.104
 2941TIP3   OH2 8765   2.399   6.439   4.551
 2941TIP3    H1 8766   2.305   6.442   4.565
 2941TIP3    H2 8767   2.432   6.380   4.619
 2942TIP3   OH2 8768   2.543   1.066   2.491
 2942TIP3    H1 8769   2.635   1.041   2.496
 2942TIP3    H2 8770   2.520   1.054   2.399
 2943TIP3   OH2 8771   1.598   4.444   4.602
 2943TIP3    H1 8772   1.526   4.495   4.639
 2943TIP3    H2 8773   1.665   4.444   4.670
 2944TIP3   OH2 8774   8.032   0.893   4.959
 2944TIP3    H1 8775   8.030   0.982   4.924
 2944TIP3    H2 8776   8.078   0.901   5.042
 2945TIP3   OH2 8777   7.629   3.345   6.098
 2945TIP3    H1 8778   7.691   3.318   6.166
 2945TIP3    H2 8779   7.678   3.409   6.046
 2946TIP3   OH2 8780   3.188   7.829   1.946
 2946TIP3    H1 8781   3.264   7.775   1.968
 2946TIP3    H2 8782   3.196   7.845   1.852
 2947TIP3   OH2 8783   4.888   4.386   5.057
 2947TIP3    H1 8784   4.803   4.353   5.027
 2947TIP3    H2 8785   4.916   4.324   5.124
 2948TIP3   OH2 8786   4.049   2.736   0.148
 2948TIP3    H1 8787   4.077   2.788   0.073
 2948TIP3    H2 8788   4.041   2.647   0.113
 2949TIP3   OH2 8789   1.218   6.579   2.825
 2949TIP3    H1 8790   1.173   6.527   2.758
 2949TIP3    H2 8791   1.204   6.529   2.906
 2950TIP3   OH2 8792   1.947   5.645   4.681
 2950TIP3    H1 8793   1.967   5.634   4.774
 2950TIP3    H2 8794   1.852   5.647   4.677
 2951TIP3   OH2 8795   1.092   2.216   3.477
 2951TIP3    H1 8796   1.144   2.279   3.429
 2951TIP3    H2 8797   1.079   2.143   3.416
 2952TIP3   OH2 8798   4.079   6.826   0.799
 2952TIP3    H1 8799   4.041   6.763   0.861
 2952TIP3    H2 8800   4.045   6.800   0.714
 2953TIP3   OH2 8801   6.359   5.336   6.728
 2953TIP3    H1 8802   6.396   5.258   6.769
 2953TIP3    H2 8803   6.434   5.395   6.716
 2954TIP3   OH2 8804   6.798   3.382   3.464
 2954TIP3    H1 8805   6.886   3.391   3.501
 2954TIP3    H2 8806   6.789   3.288   3.446
 2955TIP3   OH2 8807   6.892   4.970   6.560
 2955TIP3    H1 8808   6.899   5.034   6.489
 2955TIP3    H2 8809   6.975   4.978   6.607
 2956TIP3   OH2 8810   7.639   7.504   3.910
 2956TIP3    H1 8811   7.549   7.534   3.894
 2956TIP3    H2 8812   7.652   7.519   4.004
 2957TIP3   OH2 8813   4.364   2.910   5.368
 2957TIP3    H1 8814   4.449   2.944   5.342
 2957TIP3    H2 8815   4.341   2.847   5.300
 2958TIP3   OH2 8816   4.280   7.458   2.588
 2958TIP3    H1 8817   4.345   7.389   2.600
 2958TIP3    H2 8818   4.199   7.420   2.621
 2959TIP3   OH2 8819   6.280   5.113   1.884
 2959TIP3    H1 8820   6.255   5.177   1.817
 2959TIP3    H2 8821   6.233   5.033   1.861
 2960TIP3   OH2 8822   5.972   5.302   2.052
 2960TIP3    H1 8823   5.909   5.374   2.040
 2960TIP3    H2 8824   6.054   5.338   2.019
 2961TIP3   OH2 8825   5.747   1.022   5.446
 2961TIP3    H1 8826   5.773   0.937   5.409
 2961TIP3    H2 8827   5.821   1.079   5.427
 2962TIP3   OH2 8828   7.909   4.476   5.856
 2962TIP3    H1 8829   7.932   4.416   5.785
 2962TIP3    H2 8830   7.831   4.438   5.895
 2963TIP3   OH2 8831   6.824   0.040   6.263
 2963TIP3    H1 8832   6.914   0.067   6.281
 2963TIP3    H2 8833   6.830  -0.055   6.251
 2964TIP3   OH2 8834   7.055   6.604   4.536
 2964TIP3    H1 8835   7.058   6.662   4.612
 2964TIP3    H2 8836   7.111   6.531   4.560
 2965TIP3   OH2 8837   4.499   1.798   1.865
 2965TIP3    H1 8838   4.447   1.866   1.823
 2965TIP3    H2 8839   4.434   1.739   1.903
 2966TIP3   OH2 8840   3.613   6.275   1.627
 2966TIP3    H1 8841   3.666   6.335   1.575
 2966TIP3    H2 8842   3.676   6.211   1.662
 2967TIP3   OH2 8843   5.017   2.449   5.112
 2967TIP3    H1 8844   4.998   2.475   5.202
 2967TIP3    H2 8845   4.960   2.504   5.059
 2968TIP3   OH2 8846   2.442   3.491   4.201
 2968TIP3    H1 8847   2.395   3.574   4.211
 2968TIP3    H2 8848   2.462   3.463   4.290
 2969TIP3   OH2 8849   3.946   6.021   0.020
 2969TIP3    H1 8850   3.904   6.014   0.105
 2969TIP3    H2 8851   3.950   5.932  -0.013
 2970TIP3   OH2 8852   6.793   7.671   1.446
 2970TIP3    H1 8853   6.840   7.746   1.483
 2970TIP3    H2 8854   6.859   7.602   1.440
 2971TIP3   OH2 8855   0.136   1.786   2.118
 2971TIP3    H1 8856   0.073   1.853   2.146
 2971TIP3    H2 8857   0.084   1.706   2.109
 2972TIP3   OH2 8858   4.354   5.674   3.567
 2972TIP3    H1 8859   4.296   5.627   3.507
 2972TIP3    H2 8860   4.356   5.620   3.646
 2973TIP3   OH2 8861   1.463   5.956   0.719
 2973TIP3    H1 8862   1.406   6.027   0.689
 2973TIP3    H2 8863   1.406   5.879   0.723
 2974TIP3   OH2 8864   0.321   1.577   0.270
 2974TIP3    H1 8865   0.256   1.524   0.223
 2974TIP3    H2 8866   0.269   1.635   0.325
 2975TIP3   OH2 8867   3.885   1.595   5.982
 2975TIP3    H1 8868   3.848   1.678   5.952
 2975TIP3    H2 8869   3.961   1.620   6.035
 2976TIP3   OH2 8870   5.713   7.812   2.848
 2976TIP3    H1 8871   5.675   7.817   2.760
 2976TIP3    H2 8872   5.793   7.760   2.837
 2977TIP3   OH2 8873   4.480   7.505   2.086
 2977TIP3    H1 8874   4.558   7.488   2.139
 2977TIP3    H2 8875   4.407   7.478   2.142
 2978TIP3   OH2 8876   3.033   2.830   3.055
 2978TIP3    H1 8877   3.058   2.738   3.051
 2978TIP3    H2 8878   3.030   2.859   2.964
 2979TIP3   OH2 8879   7.480   1.907   5.025
 2979TIP3    H1 8880   7.496   1.967   4.952
 2979TIP3    H2 8881   7.502   1.958   5.103
 2980TIP3   OH2 8882   2.084   5.751   1.241
 2980TIP3    H1 8883   2.113   5.797   1.320
 2980TIP3    H2 8884   2.164   5.728   1.195
 2981TIP3   OH2 8885   3.914   3.698   0.383
 2981TIP3    H1 8886   3.909   3.603   0.389
 2981TIP3    H2 8887   4.000   3.716   0.345
 2982TIP3   OH2 8888   2.090   6.172   1.179
 2982TIP3    H1 8889   2.048   6.258   1.176
 2982TIP3    H2 8890   2.110   6.153   1.087
 2983TIP3   OH2 8891   3.205   4.463   4.010
 2983TIP3    H1 8892   3.272   4.517   3.968
 2983TIP3    H2 8893   3.254   4.398   4.059
 2984TIP3   OH2 8894   3.989   3.834   5.034
 2984TIP3    H1 8895   3.978   3.860   4.942
 2984TIP3    H2 8896   3.906   3.792   5.057
 2985TIP3   OH2 8897   6.059   2.332   6.140
 2985TIP3    H1 8898   5.997   2.398   6.170
 2985TIP3    H2 8899   6.083   2.361   6.052
 2986TIP3   OH2 8900   5.142   4.474   5.461
 2986TIP3    H1 8901   5.153   4.566   5.436
 2986TIP3    H2 8902   5.216   4.429   5.420
 2987TIP3   OH2 8903   2.530   6.004   2.888
 2987TIP3    H1 8904   2.551   5.911   2.881
 2987TIP3    H2 8905   2.450   6.013   2.836
 2988TIP3   OH2 8906   6.356   3.655   5.505
 2988TIP3    H1 8907   6.333   3.708   5.582
 2988TIP3    H2 8908   6.321   3.568   5.524
 2989TIP3   OH2 8909   1.342   2.445   6.743
 2989TIP3    H1 8910   1.340   2.356   6.708
 2989TIP3    H2 8911   1.392   2.439   6.824
 2990TIP3   OH2 8912   2.230   6.474   1.219
 2990TIP3    H1 8913   2.262   6.391   1.254
 2990TIP3    H2 8914   2.307   6.514   1.179
 2991TIP3   OH2 8915   2.196   3.663   2.016
 2991TIP3    H1 8916   2.131   3.658   1.946
 2991TIP3    H2 8917   2.165   3.601   2.082
 2992TIP3   OH2 8918   3.232   0.858   3.704
 2992TIP3    H1 8919   3.323   0.881   3.686
 2992TIP3    H2 8920   3.181   0.931   3.667
 2993TIP3   OH2 8921   2.907   7.251   5.616
 2993TIP3    H1 8922   2.834   7.191   5.635
 2993TIP3    H2 8923   2.974   7.227   5.681
 2994TIP3   OH2 8924   6.532   0.015   4.095
 2994TIP3    H1 8925   6.558  -0.024   4.179
 2994TIP3    H2 8926   6.612   0.012   4.042
 2995TIP3   OH2 8927   1.537   2.649   5.675
 2995TIP3    H1 8928   1.575   2.725   5.629
 2995TIP3    H2 8929   1.612   2.595   5.697
 2996TIP3   OH2 8930   5.617   1.041   2.918
 2996TIP3    H1 8931   5.572   0.958   2.902
 2996TIP3    H2 8932   5.671   1.024   2.996
 2997TIP3   OH2 8933   0.256   5.818   1.442
 2997TIP3    H1 8934   0.310   5.759   1.494
 2997TIP3    H2 8935   0.189   5.849   1.502
 2998TIP3   OH2 8936   7.014   2.648   6.636
 2998TIP3    H1 8937   7.077   2.642   6.564
 2998TIP3    H2 8938   7.027   2.567   6.686
 2999TIP3   OH2 8939   2.599   6.135   0.793
 2999TIP3    H1 8940   2.567   6.143   0.883
 2999TIP3    H2 8941   2.592   6.223   0.757
 3000TIP3   OH2 8942   0.059   4.094   3.530
 3000TIP3    H1 8943   0.088   4.008   3.497
 3000TIP3    H2 8944   0.090   4.096   3.620
 3001TIP3   OH2 8945   5.655   5.435   1.293
 3001TIP3    H1 8946   5.719   5.386   1.241
 3001TIP3    H2 8947   5.659   5.524   1.258
 3002TIP3   OH2 8948   5.708   3.040   2.173
 3002TIP3    H1 8949   5.670   2.954   2.190
 3002TIP3    H2 8950   5.727   3.041   2.080
 3003TIP3   OH2 8951   8.202   7.176   3.225
 3003TIP3    H1 8952   8.280   7.193   3.278
 3003TIP3    H2 8953   8.194   7.080   3.223
 3004TIP3   OH2 8954   1.228   1.599   1.960
 3004TIP3    H1 8955   1.165   1.670   1.970
 3004TIP3    H2 8956   1.240   1.564   2.048
 3005TIP3   OH2 8957   6.274   2.154   6.127
 3005TIP3    H1 8958   6.225   2.090   6.074
 3005TIP3    H2 8959   6.210   2.221   6.148
 3006TIP3   OH2 8960   1.478   6.469   3.957
 3006TIP3    H1 8961   1.394   6.467   4.003
 3006TIP3    H2 8962   1.503   6.562   3.959
 3007TIP3   OH2 8963   4.636   4.280   5.043
 3007TIP3    H1 8964   4.571   4.257   4.976
 3007TIP3    H2 8965   4.589   4.269   5.126
 3008TIP3   OH2 8966   3.235   2.639   3.666
 3008TIP3    H1 8967   3.290   2.592   3.603
 3008TIP3    H2 8968   3.164   2.578   3.686
 3009TIP3   OH2 8969   2.170   0.989   6.028
 3009TIP3    H1 8970   2.136   0.999   6.117
 3009TIP3    H2 8971   2.245   1.048   6.023
 3010TIP3   OH2 8972   1.491   5.815   1.127
 3010TIP3    H1 8973   1.523   5.755   1.060
 3010TIP3    H2 8974   1.404   5.840   1.097
 3011TIP3   OH2 8975   7.685   2.719   0.875
 3011TIP3    H1 8976   7.768   2.742   0.834
 3011TIP3    H2 8977   7.680   2.776   0.952
 3012TIP3   OH2 8978   2.953   6.939   2.367
 3012TIP3    H1 8979   3.029   6.997   2.367
 3012TIP3    H2 8980   2.927   6.934   2.459
 3013TIP3   OH2 8981   1.472   6.526   0.419
 3013TIP3    H1 8982   1.447   6.451   0.474
 3013TIP3    H2 8983   1.508   6.590   0.480
 3014TIP3   OH2 8984   2.145   4.419   5.959
 3014TIP3    H1 8985   2.063   4.434   5.912
 3014TIP3    H2 8986   2.181   4.507   5.973
 3015TIP3   OH2 8987   0.660   6.810   5.412
 3015TIP3    H1 8988   0.575   6.854   5.422
 3015TIP3    H2 8989   0.669   6.757   5.491
 3016TIP3   OH2 8990   7.842   2.218   6.496
 3016TIP3    H1 8991   7.760   2.260   6.472
 3016TIP3    H2 8992   7.902   2.291   6.511
 3017TIP3   OH2 8993   0.823   6.322   3.888
 3017TIP3    H1 8994   0.858   6.410   3.901
 3017TIP3    H2 8995   0.746   6.318   3.946
 3018TIP3   OH2 8996   8.044   5.376   3.121
 3018TIP3    H1 8997   8.108   5.429   3.168
 3018TIP3    H2 8998   8.021   5.428   3.044
 3019TIP3   OH2 8999   3.605   5.692   2.528
 3019TIP3    H1 9000   3.582   5.614   2.578
 3019TIP3    H2 9001   3.528   5.749   2.537
 3020TIP3   OH2 9002   1.151   4.193   4.153
 3020TIP3    H1 9003   1.140   4.172   4.246
 3020TIP3    H2 9004   1.094   4.269   4.139
 3021TIP3   OH2 9005   3.037   5.305   0.812
 3021TIP3    H1 9006   3.116   5.329   0.859
 3021TIP3    H2 9007   3.019   5.215   0.840
 3022TIP3   OH2 9008   1.791   3.083   0.818
 3022TIP3    H1 9009   1.822   3.173   0.821
 3022TIP3    H2 9010   1.870   3.030   0.829
 3023TIP3   OH2 9011   6.709   2.117   3.371
 3023TIP3    H1 9012   6.652   2.067   3.429
 3023TIP3    H2 9013   6.716   2.203   3.412
 3024TIP3   OH2 9014   5.192   0.987   4.728
 3024TIP3    H1 9015   5.166   1.072   4.763
 3024TIP3    H2 9016   5.150   0.983   4.643
 3025TIP3   OH2 9017   0.320   7.241   6.615
 3025TIP3    H1 9018   0.355   7.166   6.569
 3025TIP3    H2 9019   0.375   7.315   6.588
 3026TIP3   OH2 9020   1.035   1.186   3.625
 3026TIP3    H1 9021   1.053   1.280   3.616
 3026TIP3    H2 9022   1.027   1.155   3.534
 3027TIP3   OH2 9023   7.587   1.800   4.148
 3027TIP3    H1 9024   7.630   1.802   4.234
 3027TIP3    H2 9025   7.631   1.869   4.098
 3028TIP3   OH2 9026   4.335   0.703   3.805
 3028TIP3    H1 9027   4.363   0.682   3.894
 3028TIP3    H2 9028   4.241   0.683   3.803
 3029TIP3   OH2 9029   6.205   3.141   4.364
 3029TIP3    H1 9030   6.263   3.108   4.433
 3029TIP3    H2 9031   6.154   3.209   4.407
 3030TIP3   OH2 9032   6.165   7.002   1.838
 3030TIP3    H1 9033   6.139   6.916   1.870
 3030TIP3    H2 9034   6.125   7.008   1.752
 3031TIP3   OH2 9035   2.377   4.239   0.618
 3031TIP3    H1 9036   2.341   4.196   0.696
 3031TIP3    H2 9037   2.381   4.332   0.643
 3032TIP3   OH2 9038   4.213   7.026   3.163
 3032TIP3    H1 9039   4.283   6.967   3.190
 3032TIP3    H2 9040   4.133   6.973   3.171
 3033TIP3   OH2 9041   5.196   3.370   5.720
 3033TIP3    H1 9042   5.226   3.283   5.695
 3033TIP3    H2 9043   5.265   3.429   5.689
 3034TIP3   OH2 9044   4.801   1.634   3.402
 3034TIP3    H1 9045   4.879   1.652   3.350
 3034TIP3    H2 9046   4.807   1.696   3.475
 3035TIP3   OH2 9047   2.524   1.573   2.771
 3035TIP3    H1 9048   2.476   1.575   2.854
 3035TIP3    H2 9049   2.466   1.619   2.709
 3036TIP3   OH2 9050   4.098   3.375   3.735
 3036TIP3    H1 9051   4.024   3.318   3.756
 3036TIP3    H2 9052   4.172   3.336   3.782
 3037TIP3   OH2 9053   2.794   5.665   2.040
 3037TIP3    H1 9054   2.880   5.697   2.013
 3037TIP3    H2 9055   2.733   5.708   1.980
 3038TIP3   OH2 9056   4.210   6.403   4.181
 3038TIP3    H1 9057   4.178   6.390   4.092
 3038TIP3    H2 9058   4.158   6.476   4.215
 3039TIP3   OH2 9059   5.586   6.228   4.070
 3039TIP3    H1 9060   5.577   6.315   4.110
 3039TIP3    H2 9061   5.543   6.237   3.985
 3040TIP3   OH2 9062   8.179   7.477   1.039
 3040TIP3    H1 9063   8.175   7.493   0.945
 3040TIP3    H2 9064   8.211   7.387   1.046
 3041TIP3   OH2 9065   7.884   5.882   0.706
 3041TIP3    H1 9066   7.790   5.872   0.698
 3041TIP3    H2 9067   7.918   5.792   0.702
 3042TIP3   OH2 9068   1.567   4.379   1.922
 3042TIP3    H1 9069   1.513   4.313   1.879
 3042TIP3    H2 9070   1.552   4.459   1.872
 3043TIP3   OH2 9071   5.451   7.357   6.001
 3043TIP3    H1 9072   5.481   7.424   5.939
 3043TIP3    H2 9073   5.471   7.393   6.087
 3044TIP3   OH2 9074   8.172   1.402   0.990
 3044TIP3    H1 9075   8.222   1.432   0.914
 3044TIP3    H2 9076   8.239   1.378   1.054
 3045TIP3   OH2 9077   8.030   4.641   4.866
 3045TIP3    H1 9078   8.039   4.737   4.868
 3045TIP3    H2 9079   8.043   4.618   4.774
 3046TIP3   OH2 9080   5.579   5.452   5.646
 3046TIP3    H1 9081   5.519   5.525   5.661
 3046TIP3    H2 9082   5.532   5.395   5.585
 3047TIP3   OH2 9083   4.897   0.300   0.743
 3047TIP3    H1 9084   4.816   0.271   0.700
 3047TIP3    H2 9085   4.902   0.394   0.723
 3048TIP3   OH2 9086   0.830   3.828   0.101
 3048TIP3    H1 9087   0.873   3.790   0.177
 3048TIP3    H2 9088   0.902   3.855   0.043
 3049TIP3   OH2 9089   1.441   7.323   4.727
 3049TIP3    H1 9090   1.418   7.271   4.650
 3049TIP3    H2 9091   1.368   7.311   4.787
 3050TIP3   OH2 9092   1.817   1.747   5.554
 3050TIP3    H1 9093   1.817   1.712   5.643
 3050TIP3    H2 9094   1.746   1.699   5.509
 3051TIP3   OH2 9095   4.183   4.489   1.588
 3051TIP3    H1 9096   4.106   4.432   1.593
 3051TIP3    H2 9097   4.242   4.456   1.656
 3052TIP3   OH2 9098   4.393   1.080   3.390
 3052TIP3    H1 9099   4.359   1.162   3.354
 3052TIP3    H2 9100   4.315   1.030   3.415
 3053TIP3   OH2 9101   6.339   7.549   5.582
 3053TIP3    H1 9102   6.295   7.628   5.551
 3053TIP3    H2 9103   6.431   7.575   5.589
 3054TIP3   OH2 9104   6.061   6.909   3.549
 3054TIP3    H1 9105   5.975   6.939   3.519
 3054TIP3    H2 9106   6.043   6.861   3.629
 3055TIP3   OH2 9107   7.302   3.503   3.479
 3055TIP3    H1 9108   7.329   3.509   3.571
 3055TIP3    H2 9109   7.381   3.526   3.430
 3056TIP3   OH2 9110   3.407   2.083   1.763
 3056TIP3    H1 9111   3.313   2.102   1.763
 3056TIP3    H2 9112   3.437   2.114   1.678
 3057TIP3   OH2 9113   7.633   6.103   0.226
 3057TIP3    H1 9114   7.557   6.094   0.285
 3057TIP3    H2 9115   7.627   6.027   0.168
 3058TIP3   OH2 9116   0.803   2.814   1.110
 3058TIP3    H1 9117   0.898   2.822   1.115
 3058TIP3    H2 9118   0.784   2.818   1.016
 3059TIP3   OH2 9119   8.174   7.179   2.517
 3059TIP3    H1 9120   8.243   7.238   2.487
 3059TIP3    H2 9121   8.222   7.105   2.556
 3060TIP3   OH2 9122   6.942   5.319   3.876
 3060TIP3    H1 9123   7.021   5.355   3.916
 3060TIP3    H2 9124   6.899   5.271   3.947
 3061TIP3   OH2 9125   7.291   6.242   4.125
 3061TIP3    H1 9126   7.225   6.173   4.120
 3061TIP3    H2 9127   7.251   6.312   4.176
 3062TIP3   OH2 9128   5.662   6.137   5.438
 3062TIP3    H1 9129   5.677   6.198   5.366
 3062TIP3    H2 9130   5.569   6.115   5.432
 3063TIP3   OH2 9131   7.466   0.039   6.324
 3063TIP3    H1 9132   7.391   0.003   6.370
 3063TIP3    H2 9133   7.483   0.123   6.367
 3064TIP3   OH2 9134   3.469   3.656   6.051
 3064TIP3    H1 9135   3.447   3.749   6.040
 3064TIP3    H2 9136   3.389   3.616   6.083
 3065TIP3   OH2 9137   5.580   6.359   6.423
 3065TIP3    H1 9138   5.534   6.441   6.406
 3065TIP3    H2 9139   5.558   6.303   6.349
 3066TIP3   OH2 9140   7.004   2.982   2.105
 3066TIP3    H1 9141   7.077   3.044   2.095
 3066TIP3    H2 9142   6.926   3.037   2.109
 3067TIP3   OH2 9143   0.754   2.162   5.214
 3067TIP3    H1 9144   0.667   2.132   5.241
 3067TIP3    H2 9145   0.757   2.143   5.120
 3068TIP3   OH2 9146   3.653   1.598   5.003
 3068TIP3    H1 9147   3.578   1.578   4.946
 3068TIP3    H2 9148   3.673   1.515   5.046
 3069TIP3   OH2 9149   0.797   2.921   2.468
 3069TIP3    H1 9150   0.709   2.885   2.482
 3069TIP3    H2 9151   0.816   2.968   2.549
 3070TIP3   OH2 9152   0.290   1.591   1.849
 3070TIP3    H1 9153   0.283   1.497   1.830
 3070TIP3    H2 9154   0.222   1.631   1.794
 3071TIP3   OH2 9155   2.871   1.560   2.221
 3071TIP3    H1 9156   2.780   1.562   2.253
 3071TIP3    H2 9157   2.920   1.519   2.292
 3072TIP3   OH2 9158   1.982   5.417   5.919
 3072TIP3    H1 9159   2.051   5.368   5.875
 3072TIP3    H2 9160   1.937   5.352   5.974
 3073TIP3   OH2 9161   6.248   5.704   0.758
 3073TIP3    H1 9162   6.211   5.622   0.725
 3073TIP3    H2 9163   6.241   5.764   0.684
 3074TIP3   OH2 9164   3.537   6.261   3.822
 3074TIP3    H1 9165   3.489   6.256   3.905
 3074TIP3    H2 9166   3.580   6.175   3.815
 3075TIP3   OH2 9167   2.991   3.399   4.117
 3075TIP3    H1 9168   2.909   3.368   4.154
 3075TIP3    H2 9169   3.014   3.334   4.050
 3076TIP3   OH2 9170   1.956   5.231   2.011
 3076TIP3    H1 9171   2.023   5.260   2.072
 3076TIP3    H2 9172   1.874   5.261   2.049
 3077TIP3   OH2 9173   4.450   7.227   5.374
 3077TIP3    H1 9174   4.436   7.156   5.312
 3077TIP3    H2 9175   4.370   7.231   5.426
 3078TIP3   OH2 9176   7.891   0.363   2.823
 3078TIP3    H1 9177   7.955   0.340   2.755
 3078TIP3    H2 9178   7.825   0.414   2.777
 3079TIP3   OH2 9179   5.499   6.640   3.569
 3079TIP3    H1 9180   5.528   6.555   3.538
 3079TIP3    H2 9181   5.483   6.628   3.662
 3080TIP3   OH2 9182   8.296   3.159   2.380
 3080TIP3    H1 9183   8.255   3.073   2.393
 3080TIP3    H2 9184   8.235   3.206   2.323
 3081TIP3   OH2 9185   3.109   3.156   2.418
 3081TIP3    H1 9186   3.181   3.165   2.356
 3081TIP3    H2 9187   3.033   3.194   2.373
 3082TIP3   OH2 9188   6.851   7.317   0.773
 3082TIP3    H1 9189   6.945   7.322   0.790
 3082TIP3    H2 9190   6.844   7.275   0.687
 3083TIP3   OH2 9191   1.598   2.686   4.705
 3083TIP3    H1 9192   1.590   2.601   4.749
 3083TIP3    H2 9193   1.608   2.749   4.776
 3084TIP3   OH2 9194   2.015   1.623   3.582
 3084TIP3    H1 9195   1.977   1.537   3.600
 3084TIP3    H2 9196   1.941   1.679   3.560
 3085TIP3   OH2 9197   6.223   5.169   2.662
 3085TIP3    H1 9198   6.291   5.231   2.690
 3085TIP3    H2 9199   6.249   5.086   2.703
 3086TIP3   OH2 9200   2.106   4.830   5.409
 3086TIP3    H1 9201   2.169   4.797   5.344
 3086TIP3    H2 9202   2.021   4.820   5.367
 3087TIP3   OH2 9203   4.454   1.447   0.946
 3087TIP3    H1 9204   4.421   1.361   0.971
 3087TIP3    H2 9205   4.396   1.474   0.874
 3088TIP3   OH2 9206   2.650   1.122   4.377
 3088TIP3    H1 9207   2.699   1.200   4.351
 3088TIP3    H2 9208   2.716   1.052   4.379
 3089TIP3   OH2 9209   1.515   1.950   2.575
 3089TIP3    H1 9210   1.580   1.896   2.530
 3089TIP3    H2 9211   1.470   1.996   2.505
 3090TIP3   OH2 9212   4.483   4.851   3.359
 3090TIP3    H1 9213   4.487   4.769   3.310
 3090TIP3    H2 9214   4.398   4.849   3.402
 3091TIP3   OH2 9215   3.571   1.016   1.869
 3091TIP3    H1 9216   3.582   0.928   1.903
 3091TIP3    H2 9217   3.598   1.010   1.777
 3092TIP3   OH2 9218   2.671   5.286   5.368
 3092TIP3    H1 9219   2.711   5.285   5.281
 3092TIP3    H2 9220   2.630   5.372   5.375
 3093TIP3   OH2 9221   7.378   4.413   0.580
 3093TIP3    H1 9222   7.289   4.383   0.562
 3093TIP3    H2 9223   7.426   4.396   0.498
 3094TIP3   OH2 9224   5.936   2.722   0.422
 3094TIP3    H1 9225   5.929   2.718   0.517
 3094TIP3    H2 9226   5.925   2.632   0.393
 3095TIP3   OH2 9227   4.994   5.433   5.490
 3095TIP3    H1 9228   4.992   5.509   5.547
 3095TIP3    H2 9229   5.057   5.456   5.421
 3096TIP3   OH2 9230   2.427   5.134   0.657
 3096TIP3    H1 9231   2.379   5.189   0.718
 3096TIP3    H2 9232   2.453   5.058   0.709
 3097TIP3   OH2 9233   0.322   4.948   3.535
 3097TIP3    H1 9234   0.245   4.988   3.495
 3097TIP3    H2 9235   0.388   5.017   3.535
 3098TIP3   OH2 9236   2.370   0.896   1.826
 3098TIP3    H1 9237   2.326   0.932   1.750
 3098TIP3    H2 9238   2.340   0.805   1.831
 3099TIP3   OH2 9239   4.830   1.181   0.182
 3099TIP3    H1 9240   4.847   1.174   0.276
 3099TIP3    H2 9241   4.895   1.243   0.151
 3100TIP3   OH2 9242   1.090   0.578   2.847
 3100TIP3    H1 9243   1.172   0.577   2.797
 3100TIP3    H2 9244   1.052   0.663   2.830
 3101TIP3   OH2 9245   0.837   0.294   1.555
 3101TIP3    H1 9246   0.920   0.248   1.565
 3101TIP3    H2 9247   0.853   0.381   1.592
 3102TIP3   OH2 9248   0.513   2.179   2.073
 3102TIP3    H1 9249   0.511   2.093   2.114
 3102TIP3    H2 9250   0.592   2.221   2.109
 3103TIP3   OH2 9251   0.151   6.149   2.487
 3103TIP3    H1 9252   0.056   6.146   2.489
 3103TIP3    H2 9253   0.177   6.078   2.428
 3104TIP3   OH2 9254   5.293   5.270   2.822
 3104TIP3    H1 9255   5.222   5.330   2.844
 3104TIP3    H2 9256   5.250   5.186   2.809
 3105TIP3   OH2 9257   1.650   1.833   1.089
 3105TIP3    H1 9258   1.628   1.818   0.997
 3105TIP3    H2 9259   1.649   1.928   1.098
 3106TIP3   OH2 9260   6.778   5.867   3.514
 3106TIP3    H1 9261   6.742   5.947   3.478
 3106TIP3    H2 9262   6.747   5.798   3.456
 3107TIP3   OH2 9263   8.070   1.141   5.715
 3107TIP3    H1 9264   8.071   1.072   5.782
 3107TIP3    H2 9265   8.148   1.194   5.734
 3108TIP3   OH2 9266   4.636   6.213   2.965
 3108TIP3    H1 9267   4.579   6.211   2.889
 3108TIP3    H2 9268   4.721   6.240   2.930
 3109TIP3   OH2 9269   6.222   7.623   4.182
 3109TIP3    H1 9270   6.312   7.623   4.214
 3109TIP3    H2 9271   6.177   7.687   4.237
 3110TIP3   OH2 9272   2.754   4.255   4.867
 3110TIP3    H1 9273   2.809   4.316   4.915
 3110TIP3    H2 9274   2.814   4.188   4.834
 3111TIP3   OH2 9275   6.661   2.772   3.991
 3111TIP3    H1 9276   6.587   2.780   3.930
 3111TIP3    H2 9277   6.644   2.837   4.059
 3112TIP3   OH2 9278   4.069   0.014   3.877
 3112TIP3    H1 9279   4.084   0.014   3.783
 3112TIP3    H2 9280   4.045   0.104   3.899
 3113TIP3   OH2 9281   7.508   2.010   2.464
 3113TIP3    H1 9282   7.457   2.074   2.414
 3113TIP3    H2 9283   7.593   2.008   2.420
 3114TIP3   OH2 9284   6.194   0.772   5.061
 3114TIP3    H1 9285   6.145   0.854   5.052
 3114TIP3    H2 9286   6.200   0.759   5.156
 3115TIP3   OH2 9287   1.093   2.020   3.276
 3115TIP3    H1 9288   1.063   2.036   3.186
 3115TIP3    H2 9289   1.110   1.926   3.279
 3116TIP3   OH2 9290   7.984   7.766   1.538
 3116TIP3    H1 9291   8.038   7.845   1.525
 3116TIP3    H2 9292   7.910   7.796   1.590
 3117TIP3   OH2 9293   1.368   0.840   4.760
 3117TIP3    H1 9294   1.309   0.856   4.686
 3117TIP3    H2 9295   1.320   0.780   4.817
 3118TIP3   OH2 9296   5.263   7.277   5.080
 3118TIP3    H1 9297   5.339   7.333   5.097
 3118TIP3    H2 9298   5.291   7.219   5.009
 3119TIP3   OH2 9299   2.963   1.934   3.245
 3119TIP3    H1 9300   3.014   1.928   3.164
 3119TIP3    H2 9301   2.980   1.851   3.290
 3120TIP3   OH2 9302   6.843   3.244   6.710
 3120TIP3    H1 9303   6.833   3.339   6.704
 3120TIP3    H2 9304   6.933   3.228   6.683
 3121TIP3   OH2 9305   6.867   5.995   6.280
 3121TIP3    H1 9306   6.902   6.083   6.265
 3121TIP3    H2 9307   6.863   5.986   6.375
 3122TIP3   OH2 9308   7.467   0.476   3.026
 3122TIP3    H1 9309   7.558   0.487   2.997
 3122TIP3    H2 9310   7.473   0.414   3.099
 3123TIP3   OH2 9311   3.473   1.768   0.829
 3123TIP3    H1 9312   3.533   1.701   0.861
 3123TIP3    H2 9313   3.511   1.851   0.859
 3124TIP3   OH2 9314   2.395   0.725   3.439
 3124TIP3    H1 9315   2.365   0.802   3.391
 3124TIP3    H2 9316   2.490   0.726   3.429
 3125TIP3   OH2 9317   7.582   4.675   1.194
 3125TIP3    H1 9318   7.600   4.718   1.277
 3125TIP3    H2 9319   7.625   4.729   1.128
 3126TIP3   OH2 9320   4.276   3.437   3.524
 3126TIP3    H1 9321   4.231   3.442   3.608
 3126TIP3    H2 9322   4.298   3.345   3.513
 3127TIP3   OH2 9323   2.925   0.031   5.537
 3127TIP3    H1 9324   2.964   0.100   5.483
 3127TIP3    H2 9325   2.850   0.001   5.486
 3128TIP3   OH2 9326   6.597   0.462   3.907
 3128TIP3    H1 9327   6.531   0.526   3.881
 3128TIP3    H2 9328   6.546   0.384   3.932
 3129TIP3   OH2 9329   6.809   7.044   0.286
 3129TIP3    H1 9330   6.717   7.019   0.276
 3129TIP3    H2 9331   6.837   7.068   0.198
 3130TIP3   OH2 9332   2.164   7.358   6.190
 3130TIP3    H1 9333   2.131   7.376   6.103
 3130TIP3    H2 9334   2.210   7.438   6.216
 3131TIP3   OH2 9335   5.217   1.817   1.516
 3131TIP3    H1 9336   5.128   1.852   1.519
 3131TIP3    H2 9337   5.212   1.734   1.563
 3132TIP3   OH2 9338   3.816   5.270   3.213
 3132TIP3    H1 9339   3.757   5.298   3.283
 3132TIP3    H2 9340   3.899   5.314   3.233
 3133TIP3   OH2 9341   0.485   5.114   0.175
 3133TIP3    H1 9342   0.499   5.171   0.099
 3133TIP3    H2 9343   0.396   5.080   0.162
 3134TIP3   OH2 9344   6.134   5.037   1.439
 3134TIP3    H1 9345   6.203   5.073   1.495
 3134TIP3    H2 9346   6.081   4.983   1.499
 3135TIP3   OH2 9347   2.255   1.771   6.145
 3135TIP3    H1 9348   2.295   1.818   6.219
 3135TIP3    H2 9349   2.245   1.838   6.078
 3136TIP3   OH2 9350   7.820   0.436   1.310
 3136TIP3    H1 9351   7.850   0.527   1.316
 3136TIP3    H2 9352   7.743   0.432   1.367
 3137TIP3   OH2 9353   2.041   5.305   5.127
 3137TIP3    H1 9354   2.116   5.363   5.138
 3137TIP3    H2 9355   2.028   5.264   5.212
 3138TIP3   OH2 9356   6.390   6.658   4.144
 3138TIP3    H1 9357   6.475   6.622   4.169
 3138TIP3    H2 9358   6.359   6.704   4.222
 3139TIP3   OH2 9359   2.340   6.487   0.515
 3139TIP3    H1 9360   2.292   6.551   0.567
 3139TIP3    H2 9361   2.393   6.541   0.456
 3140TIP3   OH2 9362   6.148   3.151   0.409
 3140TIP3    H1 9363   6.192   3.102   0.478
 3140TIP3    H2 9364   6.095   3.086   0.364
 3141TIP3   OH2 9365   2.874   6.229   1.633
 3141TIP3    H1 9366   2.820   6.287   1.688
 3141TIP3    H2 9367   2.833   6.143   1.642
 3142TIP3   OH2 9368   6.413   7.487   1.701
 3142TIP3    H1 9369   6.331   7.439   1.712
 3142TIP3    H2 9370   6.418   7.545   1.777
 3143TIP3   OH2 9371   6.473   6.871   6.590
 3143TIP3    H1 9372   6.490   6.908   6.677
 3143TIP3    H2 9373   6.462   6.777   6.607
 3144TIP3   OH2 9374   5.873   6.689   3.170
 3144TIP3    H1 9375   5.862   6.782   3.154
 3144TIP3    H2 9376   5.958   6.682   3.212
 3145TIP3   OH2 9377   4.894   3.236   5.663
 3145TIP3    H1 9378   4.879   3.329   5.682
 3145TIP3    H2 9379   4.808   3.203   5.638
 3146TIP3   OH2 9380   3.012   5.774   1.862
 3146TIP3    H1 9381   2.933   5.815   1.825
 3146TIP3    H2 9382   3.060   5.846   1.902
 3147TIP3   OH2 9383   0.290   1.474   3.735
 3147TIP3    H1 9384   0.277   1.567   3.717
 3147TIP3    H2 9385   0.301   1.469   3.830
 3148TIP3   OH2 9386   4.173   1.057   1.868
 3148TIP3    H1 9387   4.239   1.122   1.891
 3148TIP3    H2 9388   4.222   0.987   1.824
 3149TIP3   OH2 9389   7.458   6.158   5.828
 3149TIP3    H1 9390   7.491   6.222   5.764
 3149TIP3    H2 9391   7.533   6.140   5.885
 3150TIP3   OH2 9392   1.292   5.171   0.562
 3150TIP3    H1 9393   1.320   5.225   0.488
 3150TIP3    H2 9394   1.216   5.217   0.597
 3151TIP3   OH2 9395   0.960   6.886   1.754
 3151TIP3    H1 9396   1.051   6.868   1.730
 3151TIP3    H2 9397   0.964   6.915   1.845
 3152TIP3   OH2 9398   0.681   3.525   2.721
 3152TIP3    H1 9399   0.631   3.484   2.791
 3152TIP3    H2 9400   0.730   3.596   2.764
 3153TIP3   OH2 9401   7.815   1.696   5.383
 3153TIP3    H1 9402   7.887   1.637   5.404
 3153TIP3    H2 9403   7.817   1.762   5.452
 3154TIP3   OH2 9404   2.239   6.913   3.315
 3154TIP3    H1 9405   2.221   6.980   3.249
 3154TIP3    H2 9406   2.186   6.838   3.289
 3155TIP3   OH2 9407   2.868   2.703   2.727
 3155TIP3    H1 9408   2.929   2.647   2.678
 3155TIP3    H2 9409   2.794   2.715   2.667
 3156TIP3   OH2 9410   7.630   0.642   4.137
 3156TIP3    H1 9411   7.627   0.604   4.225
 3156TIP3    H2 9412   7.676   0.578   4.084
 3157TIP3   OH2 9413   0.779   0.054   3.897
 3157TIP3    H1 9414   0.691   0.064   3.935
 3157TIP3    H2 9415   0.807   0.144   3.880
 3158TIP3   OH2 9416   2.864   4.502   6.528
 3158TIP3    H1 9417   2.905   4.488   6.443
 3158TIP3    H2 9418   2.809   4.425   6.541
 3159TIP3   OH2 9419   6.499   2.250   4.786
 3159TIP3    H1 9420   6.576   2.306   4.778
 3159TIP3    H2 9421   6.533   2.166   4.817
 3160TIP3   OH2 9422   0.464   1.678   5.270
 3160TIP3    H1 9423   0.452   1.753   5.212
 3160TIP3    H2 9424   0.554   1.649   5.253
 3161TIP3   OH2 9425   6.499   3.311   0.475
 3161TIP3    H1 9426   6.511   3.309   0.570
 3161TIP3    H2 9427   6.542   3.231   0.444
 3162TIP3   OH2 9428   6.074   6.181   4.671
 3162TIP3    H1 9429   6.073   6.114   4.739
 3162TIP3    H2 9430   6.146   6.239   4.696
 3163TIP3   OH2 9431   3.051   3.783   6.604
 3163TIP3    H1 9432   3.069   3.814   6.515
 3163TIP3    H2 9433   3.118   3.824   6.658
 3164TIP3   OH2 9434   7.580   2.148   1.232
 3164TIP3    H1 9435   7.549   2.189   1.152
 3164TIP3    H2 9436   7.587   2.220   1.295
 3165TIP3   OH2 9437   0.279   5.846   0.526
 3165TIP3    H1 9438   0.325   5.794   0.460
 3165TIP3    H2 9439   0.326   5.929   0.529
 3166TIP3   OH2 9440   5.314   4.365   0.610
 3166TIP3    H1 9441   5.311   4.279   0.567
 3166TIP3    H2 9442   5.347   4.346   0.698
 3167TIP3   OH2 9443   5.205   1.289   4.326
 3167TIP3    H1 9444   5.178   1.278   4.235
 3167TIP3    H2 9445   5.175   1.210   4.370
 3168TIP3   OH2 9446   3.114   1.940   5.256
 3168TIP3    H1 9447   3.186   1.995   5.224
 3168TIP3    H2 9448   3.119   1.948   5.351
 3169TIP3   OH2 9449   6.596   5.833   5.346
 3169TIP3    H1 9450   6.565   5.771   5.279
 3169TIP3    H2 9451   6.559   5.800   5.428
 3170TIP3   OH2 9452   7.233   0.654   5.711
 3170TIP3    H1 9453   7.225   0.597   5.635
 3170TIP3    H2 9454   7.143   0.662   5.745
 3171TIP3   OH2 9455   7.838   6.760   0.920
 3171TIP3    H1 9456   7.849   6.706   0.999
 3171TIP3    H2 9457   7.928   6.781   0.894
 3172TIP3   OH2 9458   6.795   6.573   2.735
 3172TIP3    H1 9459   6.766   6.484   2.751
 3172TIP3    H2 9460   6.860   6.590   2.803
 3173TIP3   OH2 9461   6.511   0.272   2.990
 3173TIP3    H1 9462   6.492   0.178   2.990
 3173TIP3    H2 9463   6.605   0.278   2.975
 3174TIP3   OH2 9464   4.573   0.874   2.946
 3174TIP3    H1 9465   4.515   0.801   2.967
 3174TIP3    H2 9466   4.554   0.940   3.012
 3175TIP3   OH2 9467   6.486   1.696   6.112
 3175TIP3    H1 9468   6.533   1.644   6.047
 3175TIP3    H2 9469   6.494   1.647   6.193
 3176TIP3   OH2 9470   6.614   0.139   4.600
 3176TIP3    H1 9471   6.610   0.087   4.681
 3176TIP3    H2 9472   6.646   0.225   4.629
 3177TIP3   OH2 9473   0.096   1.929   6.376
 3177TIP3    H1 9474   0.160   1.870   6.336
 3177TIP3    H2 9475   0.123   1.936   6.467
 3178TIP3   OH2 9476   3.878   2.530   1.381
 3178TIP3    H1 9477   3.888   2.461   1.447
 3178TIP3    H2 9478   3.960   2.579   1.384
 3179TIP3   OH2 9479   3.631   4.909   2.300
 3179TIP3    H1 9480   3.553   4.945   2.342
 3179TIP3    H2 9481   3.671   4.854   2.368
 3180TIP3   OH2 9482   4.634   7.452   5.740
 3180TIP3    H1 9483   4.595   7.439   5.653
 3180TIP3    H2 9484   4.588   7.390   5.796
 3181TIP3   OH2 9485   1.162   5.980   1.792
 3181TIP3    H1 9486   1.168   6.036   1.870
 3181TIP3    H2 9487   1.115   5.903   1.822
 3182TIP3   OH2 9488   6.437   2.025   5.507
 3182TIP3    H1 9489   6.436   2.120   5.520
 3182TIP3    H2 9490   6.406   1.989   5.590
 3183TIP3   OH2 9491   6.931   2.672   6.183
 3183TIP3    H1 9492   6.983   2.603   6.223
 3183TIP3    H2 9493   6.863   2.625   6.135
 3184TIP3   OH2 9494   0.893   4.832   6.398
 3184TIP3    H1 9495   0.844   4.877   6.329
 3184TIP3    H2 9496   0.829   4.776   6.441
 3185TIP3   OH2 9497   6.822   5.348   2.360
 3185TIP3    H1 9498   6.890   5.377   2.299
 3185TIP3    H2 9499   6.832   5.253   2.363
 3186TIP3   OH2 9500   7.934   7.446   4.364
 3186TIP3    H1 9501   7.870   7.512   4.389
 3186TIP3    H2 9502   7.903   7.365   4.406
 3187TIP3   OH2 9503   8.262   1.249   6.723
 3187TIP3    H1 9504   8.251   1.328   6.776
 3187TIP3    H2 9505   8.329   1.199   6.769
 3188TIP3   OH2 9506   0.653   6.570   4.893
 3188TIP3    H1 9507   0.689   6.488   4.926
 3188TIP3    H2 9508   0.631   6.620   4.971
 3189TIP3   OH2 9509   3.797   4.563   0.412
 3189TIP3    H1 9510   3.759   4.650   0.421
 3189TIP3    H2 9511   3.846   4.566   0.330
 3190TIP3   OH2 9512   1.298   5.082   3.333
 3190TIP3    H1 9513   1.371   5.112   3.387
 3190TIP3    H2 9514   1.226   5.139   3.357
 3191TIP3   OH2 9515   5.416   3.711   1.291
 3191TIP3    H1 9516   5.387   3.802   1.286
 3191TIP3    H2 9517   5.397   3.685   1.381
 3192TIP3   OH2 9518   6.121   2.329   5.822
 3192TIP3    H1 9519   6.171   2.330   5.740
 3192TIP3    H2 9520   6.094   2.238   5.832
 3193TIP3   OH2 9521   6.741   0.627   1.177
 3193TIP3    H1 9522   6.754   0.654   1.086
 3193TIP3    H2 9523   6.795   0.549   1.188
 3194TIP3   OH2 9524   0.814   3.991   5.351
 3194TIP3    H1 9525   0.882   4.030   5.297
 3194TIP3    H2 9526   0.777   4.064   5.400
 3195TIP3   OH2 9527   7.510   1.616   2.452
 3195TIP3    H1 9528   7.432   1.668   2.471
 3195TIP3    H2 9529   7.551   1.601   2.537
 3196TIP3   OH2 9530   3.884   3.692   5.876
 3196TIP3    H1 9531   3.968   3.735   5.885
 3196TIP3    H2 9532   3.869   3.688   5.782
 3197TIP3   OH2 9533   6.614   7.122   2.415
 3197TIP3    H1 9534   6.622   7.067   2.337
 3197TIP3    H2 9535   6.578   7.063   2.482
 3198TIP3   OH2 9536   5.780   4.524   3.791
 3198TIP3    H1 9537   5.824   4.596   3.746
 3198TIP3    H2 9538   5.697   4.514   3.743
 3199TIP3   OH2 9539   7.017   1.486   1.629
 3199TIP3    H1 9540   7.031   1.401   1.589
 3199TIP3    H2 9541   7.041   1.549   1.560
 3200TIP3   OH2 9542   4.597   4.738   4.832
 3200TIP3    H1 9543   4.679   4.691   4.817
 3200TIP3    H2 9544   4.538   4.706   4.765
 3201TIP3   OH2 9545   4.495   4.325   3.648
 3201TIP3    H1 9546   4.431   4.384   3.689
 3201TIP3    H2 9547   4.451   4.291   3.571
 3202TIP3   OH2 9548   3.895   3.378   1.933
 3202TIP3    H1 9549   3.910   3.448   1.996
 3202TIP3    H2 9550   3.800   3.375   1.921
 3203TIP3   OH2 9551   6.230   6.092   1.667
 3203TIP3    H1 9552   6.144   6.085   1.709
 3203TIP3    H2 9553   6.291   6.100   1.740
 3204TIP3   OH2 9554   3.015   2.260   5.928
 3204TIP3    H1 9555   2.991   2.248   6.019
 3204TIP3    H2 9556   3.109   2.240   5.924
 3205TIP3   OH2 9557   3.947   4.334   5.438
 3205TIP3    H1 9558   3.990   4.369   5.360
 3205TIP3    H2 9559   3.905   4.253   5.408
 3206TIP3   OH2 9560   4.409   6.152   0.999
 3206TIP3    H1 9561   4.423   6.143   1.093
 3206TIP3    H2 9562   4.487   6.199   0.967
 3207TIP3   OH2 9563   2.816   2.106   1.447
 3207TIP3    H1 9564   2.844   2.147   1.529
 3207TIP3    H2 9565   2.757   2.170   1.407
 3208TIP3   OH2 9566   5.614   1.994   0.700
 3208TIP3    H1 9567   5.665   2.034   0.770
 3208TIP3    H2 9568   5.674   1.930   0.661
 3209TIP3   OH2 9569   7.297   3.457   5.879
 3209TIP3    H1 9570   7.338   3.434   5.963
 3209TIP3    H2 9571   7.338   3.539   5.854
 3210TIP3   OH2 9572   6.276   1.504   2.324
 3210TIP3    H1 9573   6.257   1.411   2.329
 3210TIP3    H2 9574   6.280   1.533   2.416
 3211TIP3   OH2 9575   2.357   0.655   6.726
 3211TIP3    H1 9576   2.410   0.632   6.803
 3211TIP3    H2 9577   2.291   0.586   6.721
 3212TIP3   OH2 9578   7.744   7.236   2.076
 3212TIP3    H1 9579   7.767   7.216   1.985
 3212TIP3    H2 9580   7.792   7.316   2.096
 3213TIP3   OH2 9581   2.065   3.569   0.511
 3213TIP3    H1 9582   2.007   3.530   0.576
 3213TIP3    H2 9583   2.139   3.509   0.505
 3214TIP3   OH2 9584   1.345   0.610   0.685
 3214TIP3    H1 9585   1.312   0.520   0.684
 3214TIP3    H2 9586   1.302   0.653   0.612
 3215TIP3   OH2 9587   0.545   5.543   2.358
 3215TIP3    H1 9588   0.633   5.548   2.320
 3215TIP3    H2 9589   0.554   5.481   2.431
 3216TIP3   OH2 9590   7.555   7.248   5.033
 3216TIP3    H1 9591   7.518   7.196   5.105
 3216TIP3    H2 9592   7.645   7.215   5.025
 3217TIP3   OH2 9593   6.345   3.065   4.580
 3217TIP3    H1 9594   6.437   3.054   4.558
 3217TIP3    H2 9595   6.346   3.112   4.664
 3218TIP3   OH2 9596   2.609   0.632   3.184
 3218TIP3    H1 9597   2.566   0.717   3.195
 3218TIP3    H2 9598   2.619   0.599   3.273
 3219TIP3   OH2 9599   8.018   1.784   3.123
 3219TIP3    H1 9600   7.979   1.699   3.142
 3219TIP3    H2 9601   7.947   1.847   3.141
 3220TIP3   OH2 9602   5.844   0.339   4.217
 3220TIP3    H1 9603   5.823   0.432   4.209
 3220TIP3    H2 9604   5.939   0.336   4.228
 3221TIP3   OH2 9605   7.062   1.082   4.912
 3221TIP3    H1 9606   7.019   1.108   4.994
 3221TIP3    H2 9607   7.005   1.014   4.876
 3222TIP3   OH2 9608   5.936   1.610   4.062
 3222TIP3    H1 9609   5.914   1.697   4.095
 3222TIP3    H2 9610   5.854   1.561   4.066
 3223TIP3   OH2 9611   6.196   5.038   3.093
 3223TIP3    H1 9612   6.257   5.065   3.161
 3223TIP3    H2 9613   6.249   4.985   3.034
 3224TIP3   OH2 9614   0.320   5.289   4.441
 3224TIP3    H1 9615   0.260   5.355   4.475
 3224TIP3    H2 9616   0.366   5.256   4.519
 3225TIP3   OH2 9617   5.052   1.353   0.132
 3225TIP3    H1 9618   5.145   1.356   0.109
 3225TIP3    H2 9619   5.049   1.391   0.220
 3226TIP3   OH2 9620   4.467   3.683   5.641
 3226TIP3    H1 9621   4.377   3.654   5.650
 3226TIP3    H2 9622   4.461   3.768   5.597
 3227TIP3   OH2 9623   5.745   0.400   3.065
 3227TIP3    H1 9624   5.724   0.453   3.142
 3227TIP3    H2 9625   5.726   0.457   2.991
 3228TIP3   OH2 9626   3.601   2.477   6.311
 3228TIP3    H1 9627   3.538   2.410   6.334
 3228TIP3    H2 9628   3.668   2.432   6.260
 3229TIP3   OH2 9629   7.069   5.915   1.805
 3229TIP3    H1 9630   7.151   5.931   1.851
 3229TIP3    H2 9631   7.015   5.992   1.825
 3230TIP3   OH2 9632   7.583   4.352   2.750
 3230TIP3    H1 9633   7.610   4.262   2.768
 3230TIP3    H2 9634   7.499   4.344   2.705
 3231TIP3   OH2 9635   7.994   6.666   4.164
 3231TIP3    H1 9636   8.027   6.724   4.096
 3231TIP3    H2 9637   7.931   6.609   4.119
 3232TIP3   OH2 9638   7.686   7.175   0.334
 3232TIP3    H1 9639   7.750   7.209   0.397
 3232TIP3    H2 9640   7.725   7.191   0.248
 3233TIP3   OH2 9641   3.703   3.881   1.872
 3233TIP3    H1 9642   3.647   3.825   1.926
 3233TIP3    H2 9643   3.770   3.821   1.838
 3234TIP3   OH2 9644   3.650   3.680   1.139
 3234TIP3    H1 9645   3.738   3.654   1.113
 3234TIP3    H2 9646   3.608   3.598   1.165
 3235TIP3   OH2 9647   0.439   3.933   4.225
 3235TIP3    H1 9648   0.461   3.977   4.307
 3235TIP3    H2 9649   0.462   3.841   4.240
 3236TIP3   OH2 9650   7.732   3.485   1.188
 3236TIP3    H1 9651   7.698   3.400   1.217
 3236TIP3    H2 9652   7.654   3.534   1.162
 3237TIP3   OH2 9653   5.167   5.814   4.208
 3237TIP3    H1 9654   5.085   5.857   4.232
 3237TIP3    H2 9655   5.163   5.729   4.252
 3238TIP3   OH2 9656   2.588   4.894   2.831
 3238TIP3    H1 9657   2.642   4.957   2.879
 3238TIP3    H2 9658   2.612   4.908   2.739
 3239TIP3   OH2 9659   6.371   0.135   0.410
 3239TIP3    H1 9660   6.368   0.111   0.502
 3239TIP3    H2 9661   6.280   0.154   0.388
 3240TIP3   OH2 9662   5.933   5.403   1.494
 3240TIP3    H1 9663   5.938   5.499   1.497
 3240TIP3    H2 9664   6.001   5.378   1.431
 3241TIP3   OH2 9665   4.905   4.226   0.517
 3241TIP3    H1 9666   4.941   4.312   0.538
 3241TIP3    H2 9667   4.828   4.246   0.463
 3242TIP3   OH2 9668   3.575   3.914   6.184
 3242TIP3    H1 9669   3.663   3.879   6.167
 3242TIP3    H2 9670   3.543   3.863   6.258
 3243TIP3   OH2 9671   6.192   5.608   1.064
 3243TIP3    H1 9672   6.260   5.553   1.101
 3243TIP3    H2 9673   6.233   5.649   0.988
 3244TIP3   OH2 9674   2.608   6.122   5.763
 3244TIP3    H1 9675   2.553   6.061   5.812
 3244TIP3    H2 9676   2.670   6.155   5.827
 3245TIP3   OH2 9677   4.977   5.431   1.259
 3245TIP3    H1 9678   4.935   5.415   1.343
 3245TIP3    H2 9679   4.906   5.464   1.203
 3246TIP3   OH2 9680   8.297   6.581   1.364
 3246TIP3    H1 9681   8.277   6.519   1.294
 3246TIP3    H2 9682   8.214   6.627   1.379
 3247TIP3   OH2 9683   8.086   7.200   4.977
 3247TIP3    H1 9684   8.120   7.200   4.888
 3247TIP3    H2 9685   8.144   7.139   5.024
 3248TIP3   OH2 9686   2.576   7.605   5.889
 3248TIP3    H1 9687   2.614   7.682   5.844
 3248TIP3    H2 9688   2.649   7.544   5.895
 3249TIP3   OH2 9689   6.673   5.131   5.816
 3249TIP3    H1 9690   6.737   5.195   5.786
 3249TIP3    H2 9691   6.708   5.100   5.900
 3250TIP3   OH2 9692   3.652   0.682   5.073
 3250TIP3    H1 9693   3.632   0.766   5.114
 3250TIP3    H2 9694   3.715   0.703   5.004
 3251TIP3   OH2 9695   7.548   4.678   2.331
 3251TIP3    H1 9696   7.523   4.607   2.391
 3251TIP3    H2 9697   7.583   4.633   2.254
 3252TIP3   OH2 9698   4.800   6.428   2.457
 3252TIP3    H1 9699   4.775   6.345   2.497
 3252TIP3    H2 9700   4.823   6.485   2.531
 3253TIP3   OH2 9701   1.379   2.225   3.040
 3253TIP3    H1 9702   1.473   2.242   3.030
 3253TIP3    H2 9703   1.352   2.280   3.113
 3254TIP3   OH2 9704   7.490   2.248   4.271
 3254TIP3    H1 9705   7.464   2.170   4.321
 3254TIP3    H2 9706   7.571   2.277   4.313
 3255TIP3   OH2 9707   5.003   0.987   4.998
 3255TIP3    H1 9708   5.037   0.918   4.941
 3255TIP3    H2 9709   4.974   1.056   4.939
 3256TIP3   OH2 9710   4.098   6.061   1.772
 3256TIP3    H1 9711   4.112   6.155   1.763
 3256TIP3    H2 9712   4.104   6.027   1.683
 3257TIP3   OH2 9713   4.014   4.066   5.150
 3257TIP3    H1 9714   3.928   4.108   5.149
 3257TIP3    H2 9715   3.998   3.976   5.121
 3258TIP3   OH2 9716   0.057   0.419   5.328
 3258TIP3    H1 9717   0.009   0.343   5.360
 3258TIP3    H2 9718   0.145   0.387   5.311
 3259TIP3   OH2 9719   6.217   5.751   3.685
 3259TIP3    H1 9720   6.271   5.731   3.761
 3259TIP3    H2 9721   6.252   5.833   3.651
 3260TIP3   OH2 9722   6.721   0.766   3.650
 3260TIP3    H1 9723   6.682   0.848   3.617
 3260TIP3    H2 9724   6.813   0.772   3.625
 3261TIP3   OH2 9725   2.532   3.925   5.372
 3261TIP3    H1 9726   2.540   3.908   5.278
 3261TIP3    H2 9727   2.557   4.017   5.382
 3262TIP3   OH2 9728   1.436   4.363   4.342
 3262TIP3    H1 9729   1.368   4.396   4.284
 3262TIP3    H2 9730   1.395   4.361   4.429
 3263TIP3   OH2 9731   5.947   5.886   4.275
 3263TIP3    H1 9732   6.023   5.829   4.284
 3263TIP3    H2 9733   5.982   5.974   4.287
 3264TIP3   OH2 9734   2.719   4.843   4.323
 3264TIP3    H1 9735   2.646   4.814   4.377
 3264TIP3    H2 9736   2.796   4.801   4.361
 3265TIP3   OH2 9737   4.479   4.494   0.254
 3265TIP3    H1 9738   4.442   4.512   0.168
 3265TIP3    H2 9739   4.532   4.571   0.275
 3266TIP3   OH2 9740   0.911   0.042   4.153
 3266TIP3    H1 9741   0.924  -0.043   4.194
 3266TIP3    H2 9742   0.860   0.023   4.074
 3267TIP3   OH2 9743   5.944   4.770   2.918
 3267TIP3    H1 9744   5.923   4.676   2.911
 3267TIP3    H2 9745   6.020   4.782   2.861
 3268TIP3   OH2 9746   5.336   1.523   0.327
 3268TIP3    H1 9747   5.303   1.469   0.256
 3268TIP3    H2 9748   5.295   1.608   0.315
 3269TIP3   OH2 9749   6.268   2.659   1.495
 3269TIP3    H1 9750   6.184   2.620   1.470
 3269TIP3    H2 9751   6.322   2.584   1.519
 3270TIP3   OH2 9752   6.708   5.284   2.041
 3270TIP3    H1 9753   6.785   5.324   2.000
 3270TIP3    H2 9754   6.701   5.199   1.999
 3271TIP3   OH2 9755   7.014   1.914   5.350
 3271TIP3    H1 9756   6.958   1.947   5.280
 3271TIP3    H2 9757   7.103   1.927   5.318
 3272TIP3   OH2 9758   2.710   1.763   5.940
 3272TIP3    H1 9759   2.754   1.814   5.872
 3272TIP3    H2 9760   2.618   1.765   5.915
 3273TIP3   OH2 9761   1.044   1.128   2.831
 3273TIP3    H1 9762   1.085   1.049   2.867
 3273TIP3    H2 9763   1.015   1.101   2.743
 3274TIP3   OH2 9764   1.095   3.564   4.898
 3274TIP3    H1 9765   1.146   3.538   4.975
 3274TIP3    H2 9766   1.122   3.502   4.830
 3275TIP3   OH2 9767   3.055   3.694   1.782
 3275TIP3    H1 9768   3.002   3.690   1.861
 3275TIP3    H2 9769   3.141   3.723   1.812
 3276TIP3   OH2 9770   3.115   2.147   0.304
 3276TIP3    H1 9771   3.171   2.086   0.351
 3276TIP3    H2 9772   3.034   2.098   0.288
 3277TIP3   OH2 9773   3.989   5.302   6.336
 3277TIP3    H1 9774   3.928   5.272   6.269
 3277TIP3    H2 9775   3.937   5.361   6.391
 3278TIP3   OH2 9776   5.053   1.480   0.602
 3278TIP3    H1 9777   5.090   1.458   0.687
 3278TIP3    H2 9778   4.988   1.548   0.620
 3279TIP3   OH2 9779   4.722   4.424   1.457
 3279TIP3    H1 9780   4.689   4.336   1.440
 3279TIP3    H2 9781   4.650   4.469   1.502
 3280TIP3   OH2 9782   8.015   6.473   0.741
 3280TIP3    H1 9783   8.020   6.535   0.669
 3280TIP3    H2 9784   7.932   6.428   0.729
 3281TIP3   OH2 9785   7.719   0.070   1.004
 3281TIP3    H1 9786   7.782   0.106   1.066
 3281TIP3    H2 9787   7.671   0.146   0.971
 3282TIP3   OH2 9788   1.904   2.630   0.547
 3282TIP3    H1 9789   1.838   2.699   0.549
 3282TIP3    H2 9790   1.987   2.676   0.534
 3283TIP3   OH2 9791   4.722   7.065   6.123
 3283TIP3    H1 9792   4.741   7.148   6.079
 3283TIP3    H2 9793   4.647   7.030   6.076
 3284TIP3   OH2 9794   7.655   1.798   6.642
 3284TIP3    H1 9795   7.734   1.807   6.696
 3284TIP3    H2 9796   7.641   1.885   6.605
 3285TIP3   OH2 9797   0.457   0.956   3.902
 3285TIP3    H1 9798   0.466   0.929   3.811
 3285TIP3    H2 9799   0.363   0.954   3.919
 3286TIP3   OH2 9800   0.591   4.209   4.236
 3286TIP3    H1 9801   0.515   4.267   4.246
 3286TIP3    H2 9802   0.555   4.121   4.239
 3287TIP3   OH2 9803   1.001   0.905   0.082
 3287TIP3    H1 9804   1.081   0.852   0.079
 3287TIP3    H2 9805   0.970   0.896   0.172
 3288TIP3   OH2 9806   7.840   0.533   0.972
 3288TIP3    H1 9807   7.897   0.468   1.012
 3288TIP3    H2 9808   7.898   0.605   0.948
 3289TIP3   OH2 9809   5.721   1.208   2.719
 3289TIP3    H1 9810   5.802   1.249   2.750
 3289TIP3    H2 9811   5.689   1.158   2.794
 3290TIP3   OH2 9812   3.885   5.062   2.916
 3290TIP3    H1 9813   3.923   5.035   2.832
 3290TIP3    H2 9814   3.790   5.060   2.900
 3291TIP3   OH2 9815   1.136   6.714   1.995
 3291TIP3    H1 9816   1.075   6.657   1.948
 3291TIP3    H2 9817   1.221   6.671   1.986
 3292TIP3   OH2 9818   0.586   5.318   0.376
 3292TIP3    H1 9819   0.549   5.375   0.309
 3292TIP3    H2 9820   0.537   5.236   0.367
 3293TIP3   OH2 9821   7.518   1.000   3.092
 3293TIP3    H1 9822   7.434   1.045   3.091
 3293TIP3    H2 9823   7.581   1.066   3.121
 3294TIP3   OH2 9824   1.274   3.165   0.666
 3294TIP3    H1 9825   1.266   3.172   0.571
 3294TIP3    H2 9826   1.244   3.250   0.699
 3295TIP3   OH2 9827   3.078   1.036   3.555
 3295TIP3    H1 9828   3.032   1.096   3.496
 3295TIP3    H2 9829   3.143   1.091   3.599
 3296TIP3   OH2 9830   6.329   3.550   0.389
 3296TIP3    H1 9831   6.243   3.518   0.417
 3296TIP3    H2 9832   6.390   3.482   0.417
 3297TIP3   OH2 9833   4.841   7.248   4.971
 3297TIP3    H1 9834   4.825   7.304   4.895
 3297TIP3    H2 9835   4.759   7.250   5.020
 3298TIP3   OH2 9836   0.640   1.996   4.163
 3298TIP3    H1 9837   0.617   1.903   4.153
 3298TIP3    H2 9838   0.718   1.995   4.219
 3299TIP3   OH2 9839   0.316   3.707   4.594
 3299TIP3    H1 9840   0.241   3.765   4.584
 3299TIP3    H2 9841   0.355   3.732   4.678
 3300TIP3   OH2 9842   6.912   1.598   1.057
 3300TIP3    H1 9843   6.976   1.527   1.052
 3300TIP3    H2 9844   6.902   1.629   0.967
 3301TIP3   OH2 9845   0.594   7.326   0.314
 3301TIP3    H1 9846   0.598   7.232   0.298
 3301TIP3    H2 9847   0.676   7.361   0.278
 3302TIP3   OH2 9848   2.219   3.595   4.569
 3302TIP3    H1 9849   2.157   3.631   4.506
 3302TIP3    H2 9850   2.270   3.671   4.599
 3303TIP3   OH2 9851   6.031   1.217   0.837
 3303TIP3    H1 9852   6.059   1.169   0.758
 3303TIP3    H2 9853   6.065   1.306   0.823
 3304TIP3   OH2 9854   0.976   4.589   1.696
 3304TIP3    H1 9855   0.903   4.545   1.739
 3304TIP3    H2 9856   1.054   4.549   1.735
 3305TIP3   OH2 9857   1.047   5.223   5.300
 3305TIP3    H1 9858   1.081   5.166   5.369
 3305TIP3    H2 9859   0.990   5.166   5.248
 3306TIP3   OH2 9860   1.347   7.630   0.034
 3306TIP3    H1 9861   1.406   7.701   0.007
 3306TIP3    H2 9862   1.329   7.582  -0.047
 3307TIP3   OH2 9863   6.352   5.483   1.234
 3307TIP3    H1 9864   6.394   5.417   1.289
 3307TIP3    H2 9865   6.404   5.563   1.248
 3308TIP3   OH2 9866   3.120   2.886   6.511
 3308TIP3    H1 9867   3.139   2.812   6.453
 3308TIP3    H2 9868   3.065   2.848   6.580
 3309TIP3   OH2 9869   2.943   2.470   2.590
 3309TIP3    H1 9870   3.037   2.480   2.581
 3309TIP3    H2 9871   2.914   2.440   2.504
 3310TIP3   OH2 9872   2.073   4.286   2.046
 3310TIP3    H1 9873   2.043   4.377   2.042
 3310TIP3    H2 9874   2.077   4.259   1.954
 3311TIP3   OH2 9875   7.672   7.378   6.380
 3311TIP3    H1 9876   7.722   7.396   6.300
 3311TIP3    H2 9877   7.590   7.426   6.368
 3312TIP3   OH2 9878   2.292   1.403   2.527
 3312TIP3    H1 9879   2.383   1.381   2.510
 3312TIP3    H2 9880   2.295   1.485   2.576
 3313TIP3   OH2 9881   2.849   5.662   0.402
 3313TIP3    H1 9882   2.913   5.699   0.340
 3313TIP3    H2 9883   2.771   5.718   0.391
 3314TIP3   OH2 9884   3.740   3.182   6.347
 3314TIP3    H1 9885   3.713   3.113   6.408
 3314TIP3    H2 9886   3.822   3.150   6.309
 3315TIP3   OH2 9887   1.819   2.107   5.099
 3315TIP3    H1 9888   1.748   2.046   5.084
 3315TIP3    H2 9889   1.898   2.052   5.103
 3316TIP3   OH2 9890   6.336   4.283   3.987
 3316TIP3    H1 9891   6.356   4.374   4.004
 3316TIP3    H2 9892   6.324   4.278   3.892
 3317TIP3   OH2 9893   4.903   1.191   1.248
 3317TIP3    H1 9894   4.993   1.161   1.233
 3317TIP3    H2 9895   4.888   1.176   1.341
 3318TIP3   OH2 9896   6.747   6.874   3.604
 3318TIP3    H1 9897   6.690   6.835   3.670
 3318TIP3    H2 9898   6.795   6.942   3.652
 3319TIP3   OH2 9899   2.680   0.150   5.654
 3319TIP3    H1 9900   2.708   0.231   5.612
 3319TIP3    H2 9901   2.731   0.082   5.611
 3320TIP3   OH2 9902   7.964   3.121   3.882
 3320TIP3    H1 9903   7.988   3.182   3.952
 3320TIP3    H2 9904   8.045   3.109   3.832
 3321TIP3   OH2 9905   2.145   3.542   1.441
 3321TIP3    H1 9906   2.122   3.472   1.502
 3321TIP3    H2 9907   2.131   3.503   1.354
 3322TIP3   OH2 9908   6.992   3.285   4.038
 3322TIP3    H1 9909   6.963   3.373   4.013
 3322TIP3    H2 9910   6.948   3.268   4.121
 3323TIP3   OH2 9911   3.592   0.347   2.574
 3323TIP3    H1 9912   3.558   0.381   2.491
 3323TIP3    H2 9913   3.583   0.421   2.635
 3324TIP3   OH2 9914   2.706   6.175   5.479
 3324TIP3    H1 9915   2.801   6.181   5.483
 3324TIP3    H2 9916   2.677   6.181   5.570
 3325TIP3   OH2 9917   4.772   3.782   3.839
 3325TIP3    H1 9918   4.864   3.785   3.816
 3325TIP3    H2 9919   4.726   3.813   3.761
 3326TIP3   OH2 9920   0.233   3.941   0.742
 3326TIP3    H1 9921   0.231   3.949   0.646
 3326TIP3    H2 9922   0.326   3.934   0.763
 3327TIP3   OH2 9923   0.307   5.110   2.016
 3327TIP3    H1 9924   0.215   5.088   2.029
 3327TIP3    H2 9925   0.336   5.053   1.946
 3328TIP3   OH2 9926   5.336   6.407   3.810
 3328TIP3    H1 9927   5.417   6.371   3.774
 3328TIP3    H2 9928   5.275   6.333   3.810
 3329TIP3   OH2 9929   4.419   6.804   3.037
 3329TIP3    H1 9930   4.360   6.763   2.974
 3329TIP3    H2 9931   4.454   6.880   2.991
 3330TIP3   OH2 9932   1.603   2.114   2.762
 3330TIP3    H1 9933   1.572   2.043   2.705
 3330TIP3    H2 9934   1.674   2.155   2.714
 3331TIP3   OH2 9935   6.662   3.245   1.573
 3331TIP3    H1 9936   6.744   3.287   1.601
 3331TIP3    H2 9937   6.616   3.312   1.524
 3332TIP3   OH2 9938   5.857   2.162   4.470
 3332TIP3    H1 9939   5.828   2.183   4.381
 3332TIP3    H2 9940   5.779   2.125   4.512
 3333TIP3   OH2 9941   2.100   6.763   5.357
 3333TIP3    H1 9942   2.099   6.851   5.393
 3333TIP3    H2 9943   2.191   6.735   5.365
 3334TIP3   OH2 9944   1.164   1.633   1.149
 3334TIP3    H1 9945   1.078   1.674   1.141
 3334TIP3    H2 9946   1.177   1.588   1.065
 3335TIP3   OH2 9947   4.786   0.952   6.254
 3335TIP3    H1 9948   4.772   0.963   6.348
 3335TIP3    H2 9949   4.699   0.962   6.216
 3336TIP3   OH2 9950   1.545   1.251   5.689
 3336TIP3    H1 9951   1.472   1.266   5.749
 3336TIP3    H2 9952   1.617   1.222   5.746
 3337TIP3   OH2 9953   7.751   1.093   6.625
 3337TIP3    H1 9954   7.841   1.105   6.657
 3337TIP3    H2 9955   7.714   1.181   6.624
 3338TIP3   OH2 9956   7.251   6.939   3.563
 3338TIP3    H1 9957   7.206   6.955   3.480
 3338TIP3    H2 9958   7.241   6.845   3.577
 3339TIP3   OH2 9959   4.817   3.657   5.117
 3339TIP3    H1 9960   4.753   3.727   5.104
 3339TIP3    H2 9961   4.894   3.702   5.151
 3340TIP3   OH2 9962   4.123   5.698   1.801
 3340TIP3    H1 9963   4.081   5.687   1.716
 3340TIP3    H2 9964   4.105   5.617   1.848
 3341TIP3   OH2 9965   5.483   1.815   4.528
 3341TIP3    H1 9966   5.549   1.755   4.493
 3341TIP3    H2 9967   5.463   1.781   4.615
 3342TIP3   OH2 9968   0.661   7.734   5.586
 3342TIP3    H1 9969   0.725   7.712   5.654
 3342TIP3    H2 9970   0.581   7.755   5.634
 3343TIP3   OH2 9971   5.184   1.239   6.261
 3343TIP3    H1 9972   5.121   1.309   6.276
 3343TIP3    H2 9973   5.131   1.162   6.238
 3344TIP3   OH2 9974   3.482   2.611   2.392
 3344TIP3    H1 9975   3.518   2.664   2.462
 3344TIP3    H2 9976   3.398   2.579   2.426
 3345TIP3   OH2 9977   5.997   1.282   4.297
 3345TIP3    H1 9978   5.923   1.343   4.303
 3345TIP3    H2 9979   6.069   1.336   4.263
 3346TIP3   OH2 9980   5.194   5.030   0.726
 3346TIP3    H1 9981   5.164   4.969   0.659
 3346TIP3    H2 9982   5.118   5.042   0.783
 3347TIP3   OH2 9983   7.393   1.492   3.737
 3347TIP3    H1 9984   7.481   1.531   3.733
 3347TIP3    H2 9985   7.407   1.406   3.777
 3348TIP3   OH2 9986   6.764   6.386   0.388
 3348TIP3    H1 9987   6.750   6.352   0.477
 3348TIP3    H2 9988   6.723   6.472   0.388
 3349TIP3   OH2 9989   6.074   3.279   2.832
 3349TIP3    H1 9990   6.112   3.354   2.787
 3349TIP3    H2 9991   6.101   3.203   2.780
 3350TIP3   OH2 9992   0.794   3.251   1.908
 3350TIP3    H1 9993   0.748   3.316   1.855
 3350TIP3    H2 9994   0.836   3.302   1.977
 3351TIP3   OH2 9995   1.404   4.149   1.259
 3351TIP3    H1 9996   1.338   4.195   1.311
 3351TIP3    H2 9997   1.487   4.189   1.286
 3352TIP3   OH2 9998   2.178   1.487   2.834
 3352TIP3    H1 9999   2.212   1.540   2.761
 3352TIP3    H210000   2.250   1.483   2.896
 3353TIP3   OH210001   3.193   5.552   4.943
 3353TIP3    H110002   3.119   5.592   4.897
 3353TIP3    H210003   3.249   5.517   4.875
 3354TIP3   OH210004   2.451   1.624   6.629
 3354TIP3    H110005   2.419   1.637   6.718
 3354TIP3    H210006   2.511   1.549   6.636
 3355TIP3   OH210007   3.259   3.234   0.756
 3355TIP3    H110008   3.189   3.281   0.802
 3355TIP3    H210009   3.258   3.271   0.667
 3356TIP3   OH210010   4.206   0.064   5.669
 3356TIP3    H110011   4.286   0.031   5.709
 3356TIP3    H210012   4.213   0.159   5.674
 3357TIP3   OH210013   6.056   6.661   5.763
 3357TIP3    H110014   6.053   6.715   5.684
 3357TIP3    H210015   5.964   6.639   5.780
 3358TIP3   OH210016   0.224   2.272   6.790
 3358TIP3    H110017   0.278   2.273   6.711
 3358TIP3    H210018   0.208   2.179   6.807
 3359TIP3   OH210019   2.058   0.162   3.116
 3359TIP3    H110020   2.102   0.199   3.039
 3359TIP3    H210021   1.970   0.140   3.086
 3360TIP3   OH210022   1.595   2.149   0.328
 3360TIP3    H110023   1.500   2.160   0.332
 3360TIP3    H210024   1.611   2.109   0.243
 3361TIP3   OH210025   8.012   0.957   2.662
 3361TIP3    H110026   8.040   1.023   2.599
 3361TIP3    H210027   8.092   0.913   2.689
 3362TIP3   OH210028   1.663   6.927   0.966
 3362TIP3    H110029   1.576   6.888   0.963
 3362TIP3    H210030   1.720   6.855   0.993
 3363TIP3   OH210031   2.820   1.471   2.528
 3363TIP3    H110032   2.825   1.550   2.583
 3363TIP3    H210033   2.828   1.398   2.590
 3364TIP3   OH210034   4.498   2.759   4.748
 3364TIP3    H110035   4.451   2.798   4.674
 3364TIP3    H210036   4.472   2.667   4.747
 3365TIP3   OH210037   1.187  -0.016   2.322
 3365TIP3    H110038   1.164   0.065   2.367
 3365TIP3    H210039   1.164  -0.085   2.384
 3366TIP3   OH210040   4.604   6.364   0.992
 3366TIP3    H110041   4.666   6.384   0.922
 3366TIP3    H210042   4.655   6.377   1.073
 3367TIP3   OH210043   5.887   0.518   1.763
 3367TIP3    H110044   5.875   0.536   1.670
 3367TIP3    H210045   5.962   0.572   1.789
 3368TIP3   OH210046   3.172   5.123   1.997
 3368TIP3    H110047   3.221   5.103   2.077
 3368TIP3    H210048   3.161   5.039   1.954
 3369TIP3   OH210049   4.450   3.983   5.886
 3369TIP3    H110050   4.518   4.035   5.842
 3369TIP3    H210051   4.375   4.042   5.891
 3370TIP3   OH210052   5.534   1.031   5.225
 3370TIP3    H110053   5.570   0.964   5.167
 3370TIP3    H210054   5.587   1.024   5.305
 3371TIP3   OH210055   3.444   6.577   3.580
 3371TIP3    H110056   3.430   6.653   3.524
 3371TIP3    H210057   3.493   6.515   3.525
 3372TIP3   OH210058   2.227   4.233   1.296
 3372TIP3    H110059   2.176   4.186   1.230
 3372TIP3    H210060   2.206   4.188   1.378
 3373TIP3   OH210061   6.697   1.450   3.934
 3373TIP3    H110062   6.620   1.406   3.969
 3373TIP3    H210063   6.669   1.540   3.919
 3374TIP3   OH210064   5.024   6.113   6.051
 3374TIP3    H110065   4.993   6.028   6.019
 3374TIP3    H210066   5.113   6.096   6.083
 3375TIP3   OH210067   1.577   3.967   2.275
 3375TIP3    H110068   1.577   3.899   2.343
 3375TIP3    H210069   1.524   3.931   2.205
 3376TIP3   OH210070   3.008   5.675   3.380
 3376TIP3    H110071   2.962   5.634   3.453
 3376TIP3    H210072   3.000   5.769   3.396
 3377TIP3   OH210073   3.456   5.520   1.240
 3377TIP3    H110074   3.407   5.450   1.284
 3377TIP3    H210075   3.506   5.476   1.171
 3378TIP3   OH210076   6.925   5.161   5.477
 3378TIP3    H110077   7.007   5.211   5.475
 3378TIP3    H210078   6.858   5.228   5.493
 3379TIP3   OH210079   3.890   4.204   6.333
 3379TIP3    H110080   3.945   4.274   6.368
 3379TIP3    H210081   3.880   4.143   6.406
 3380TIP3   OH210082   8.097   1.265   3.254
 3380TIP3    H110083   8.080   1.176   3.223
 3380TIP3    H210084   8.143   1.253   3.338
 3381TIP3   OH210085   6.174   1.948   5.986
 3381TIP3    H110086   6.159   1.854   5.997
 3381TIP3    H210087   6.105   1.975   5.926
 3382TIP3   OH210088   3.839   3.801   6.122
 3382TIP3    H110089   3.841   3.791   6.027
 3382TIP3    H210090   3.795   3.722   6.154
 3383TIP3   OH210091   2.479   1.794   2.447
 3383TIP3    H110092   2.503   1.871   2.499
 3383TIP3    H210093   2.406   1.754   2.495
 3384TIP3   OH210094   1.563   7.154   1.364
 3384TIP3    H110095   1.601   7.222   1.420
 3384TIP3    H210096   1.479   7.134   1.404
 3385TIP3   OH210097   8.297   3.512   5.221
 3385TIP3    H110098   8.225   3.563   5.258
 3385TIP3    H210099   8.353   3.493   5.297
 3386TIP3   OH210100   0.200   4.639   5.504
 3386TIP3    H110101   0.291   4.621   5.478
 3386TIP3    H210102   0.165   4.554   5.530
 3387TIP3   OH210103   1.132   4.513   4.854
 3387TIP3    H110104   1.067   4.569   4.896
 3387TIP3    H210105   1.129   4.537   4.761
 3388TIP3   OH210106   1.722   7.634   2.214
 3388TIP3    H110107   1.666   7.579   2.269
 3388TIP3    H210108   1.676   7.639   2.130
 3389TIP3   OH210109   6.967   5.961   1.356
 3389TIP3    H110110   6.986   5.909   1.278
 3389TIP3    H210111   6.925   6.040   1.322
 3390TIP3   OH210112   2.950   6.438   6.013
 3390TIP3    H110113   3.040   6.470   6.019
 3390TIP3    H210114   2.897   6.507   6.053
 3391TIP3   OH210115   2.567   7.760   4.276
 3391TIP3    H110116   2.647   7.811   4.287
 3391TIP3    H210117   2.573   7.725   4.188
 3392TIP3   OH210118   1.162   3.427   2.455
 3392TIP3    H110119   1.098   3.364   2.422
 3392TIP3    H210120   1.246   3.382   2.450
 3393TIP3   OH210121   7.336   4.193   4.044
 3393TIP3    H110122   7.272   4.208   3.974
 3393TIP3    H210123   7.421   4.209   4.002
 3394TIP3   OH210124   0.733   7.360   4.595
 3394TIP3    H110125   0.674   7.403   4.534
 3394TIP3    H210126   0.679   7.346   4.674
 3395TIP3   OH210127   4.579   7.757   3.496
 3395TIP3    H110128   4.537   7.819   3.435
 3395TIP3    H210129   4.520   7.682   3.497
 3396TIP3   OH210130   1.413   1.982   0.675
 3396TIP3    H110131   1.431   1.929   0.598
 3396TIP3    H210132   1.352   1.930   0.727
 3397TIP3   OH210133   3.923   1.397   0.874
 3397TIP3    H110134   3.886   1.350   0.949
 3397TIP3    H210135   4.016   1.374   0.875
 3398TIP3   OH210136   1.346   4.914   3.587
 3398TIP3    H110137   1.314   4.917   3.497
 3398TIP3    H210138   1.280   4.963   3.637
 3399TIP3   OH210139   3.692   2.665   0.677
 3399TIP3    H110140   3.769   2.669   0.735
 3399TIP3    H210141   3.718   2.714   0.600
 3400TIP3   OH210142   7.957   6.545   2.494
 3400TIP3    H110143   7.915   6.460   2.505
 3400TIP3    H210144   7.885   6.606   2.480
 3401TIP3   OH210145   3.966   7.089   5.780
 3401TIP3    H110146   3.894   7.148   5.806
 3401TIP3    H210147   4.030   7.097   5.850
 3402TIP3   OH210148   3.217   2.539   1.877
 3402TIP3    H110149   3.255   2.527   1.790
 3402TIP3    H210150   3.282   2.590   1.925
 3403TIP3   OH210151   8.011   4.488   0.237
 3403TIP3    H110152   8.085   4.522   0.287
 3403TIP3    H210153   8.019   4.392   0.244
 3404TIP3   OH210154   3.527   3.783   4.515
 3404TIP3    H110155   3.469   3.711   4.490
 3404TIP3    H210156   3.584   3.746   4.582
 3405TIP3   OH210157   3.678   4.760   2.771
 3405TIP3    H110158   3.720   4.757   2.684
 3405TIP3    H210159   3.663   4.853   2.787
 3406TIP3   OH210160   1.629   4.001   6.246
 3406TIP3    H110161   1.714   3.969   6.218
 3406TIP3    H210162   1.648   4.077   6.301
 3407TIP3   OH210163   7.590   6.678   3.479
 3407TIP3    H110164   7.634   6.763   3.488
 3407TIP3    H210165   7.575   6.650   3.569
 3408TIP3   OH210166   7.594   7.106   6.518
 3408TIP3    H110167   7.589   7.194   6.480
 3408TIP3    H210168   7.504   7.082   6.537
 3409TIP3   OH210169   6.377   0.172   1.533
 3409TIP3    H110170   6.370   0.188   1.439
 3409TIP3    H210171   6.423   0.089   1.540
 3410TIP3   OH210172   4.605   2.316   1.614
 3410TIP3    H110173   4.672   2.261   1.654
 3410TIP3    H210174   4.644   2.344   1.531
 3411TIP3   OH210175   1.585   1.364   2.649
 3411TIP3    H110176   1.625   1.397   2.569
 3411TIP3    H210177   1.609   1.271   2.651
 3412TIP3   OH210178   3.243   7.460   4.588
 3412TIP3    H110179   3.337   7.443   4.589
 3412TIP3    H210180   3.233   7.533   4.526
 3413TIP3   OH210181   6.874   0.409   3.624
 3413TIP3    H110182   6.790   0.363   3.620
 3413TIP3    H210183   6.864   0.470   3.697
 3414TIP3   OH210184   7.772   6.284   2.496
 3414TIP3    H110185   7.804   6.196   2.516
 3414TIP3    H210186   7.678   6.279   2.510
 3415TIP3   OH210187   5.050   0.840   3.323
 3415TIP3    H110188   4.956   0.830   3.308
 3415TIP3    H210189   5.065   0.799   3.409
 3416TIP3   OH210190   7.630   0.179   0.556
 3416TIP3    H110191   7.714   0.157   0.516
 3416TIP3    H210192   7.652   0.236   0.629
 3417TIP3   OH210193   0.425   0.091   3.172
 3417TIP3    H110194   0.353   0.139   3.131
 3417TIP3    H210195   0.483   0.158   3.206
 3418TIP3   OH210196   5.266   1.435   2.335
 3418TIP3    H110197   5.192   1.396   2.383
 3418TIP3    H210198   5.327   1.462   2.403
 3419TIP3   OH210199   7.281   4.185   1.671
 3419TIP3    H110200   7.327   4.152   1.594
 3419TIP3    H210201   7.258   4.106   1.720
 3420TIP3   OH210202   8.096   6.787   6.062
 3420TIP3    H110203   8.019   6.841   6.078
 3420TIP3    H210204   8.149   6.796   6.142
 3421TIP3   OH210205   6.158   7.334   1.197
 3421TIP3    H110206   6.194   7.352   1.284
 3421TIP3    H210207   6.150   7.421   1.157
 3422TIP3   OH210208   1.968   2.286   0.195
 3422TIP3    H110209   1.946   2.210   0.141
 3422TIP3    H210210   1.915   2.357   0.158
 3423TIP3   OH210211   0.217   6.556   5.250
 3423TIP3    H110212   0.220   6.566   5.155
 3423TIP3    H210213   0.308   6.562   5.278
 3424TIP3   OH210214   5.521   3.841   0.122
 3424TIP3    H110215   5.564   3.766   0.082
 3424TIP3    H210216   5.574   3.916   0.095
 3425TIP3   OH210217   6.400   1.486   5.491
 3425TIP3    H110218   6.388   1.499   5.397
 3425TIP3    H210219   6.380   1.572   5.529
 3426TIP3   OH210220   8.130   6.207   1.526
 3426TIP3    H110221   8.054   6.264   1.540
 3426TIP3    H210222   8.204   6.268   1.519
 3427TIP3   OH210223   6.984   1.550   0.309
 3427TIP3    H110224   6.932   1.472   0.325
 3427TIP3    H210225   6.926   1.608   0.259
 3428TIP3   OH210226   0.377   1.231   4.198
 3428TIP3    H110227   0.459   1.196   4.164
 3428TIP3    H210228   0.386   1.227   4.294
 3429TIP3   OH210229   2.795   1.084   5.104
 3429TIP3    H110230   2.784   1.179   5.105
 3429TIP3    H210231   2.755   1.056   5.021
 3430TIP3   OH210232   2.437   1.108   5.724
 3430TIP3    H110233   2.396   1.166   5.661
 3430TIP3    H210234   2.465   1.165   5.795
 3431TIP3   OH210235   2.385   1.356   1.694
 3431TIP3    H110236   2.468   1.317   1.720
 3431TIP3    H210237   2.320   1.287   1.708
 3432TIP3   OH210238   6.568   7.367   1.182
 3432TIP3    H110239   6.623   7.335   1.111
 3432TIP3    H210240   6.536   7.452   1.152
 3433TIP3   OH210241   7.818   6.440   6.579
 3433TIP3    H110242   7.864   6.433   6.495
 3433TIP3    H210243   7.754   6.368   6.576
 3434TIP3   OH210244   1.063   0.986   5.695
 3434TIP3    H110245   1.144   0.965   5.742
 3434TIP3    H210246   0.997   0.931   5.736
 3435TIP3   OH210247   7.701   4.821   0.971
 3435TIP3    H110248   7.632   4.885   0.955
 3435TIP3    H210249   7.710   4.774   0.887
 3436TIP3   OH210250   7.025   6.658   0.698
 3436TIP3    H110251   7.046   6.645   0.606
 3436TIP3    H210252   7.054   6.748   0.717
 3437TIP3   OH210253   4.957   3.152   3.143
 3437TIP3    H110254   4.889   3.093   3.176
 3437TIP3    H210255   4.964   3.220   3.211
 3438TIP3   OH210256   6.016   0.716   6.656
 3438TIP3    H110257   6.030   0.811   6.660
 3438TIP3    H210258   5.921   0.706   6.658
 3439TIP3   OH210259   0.899   2.077   2.113
 3439TIP3    H110260   0.857   2.162   2.127
 3439TIP3    H210261   0.832   2.025   2.068
 3440TIP3   OH210262   7.128   1.933   4.246
 3440TIP3    H110263   7.173   1.872   4.188
 3440TIP3    H210264   7.038   1.936   4.213
 3441TIP3   OH210265   3.676   2.050   5.278
 3441TIP3    H110266   3.654   2.103   5.201
 3441TIP3    H210267   3.679   1.960   5.245
 3442TIP3   OH210268   6.422   1.188   4.425
 3442TIP3    H110269   6.367   1.186   4.347
 3442TIP3    H210270   6.444   1.280   4.437
 3443TIP3   OH210271   4.978   1.788   0.694
 3443TIP3    H110272   5.050   1.785   0.757
 3443TIP3    H210273   4.917   1.720   0.725
 3444TIP3   OH210274   4.216   0.572   1.809
 3444TIP3    H110275   4.131   0.534   1.789
 3444TIP3    H210276   4.269   0.498   1.839
 3445TIP3   OH210277   1.347   4.559   2.939
 3445TIP3    H110278   1.312   4.543   2.852
 3445TIP3    H210279   1.410   4.488   2.953
 3446TIP3   OH210280  -0.008   4.071   0.789
 3446TIP3    H110281   0.074   4.025   0.770
 3446TIP3    H210282  -0.023   4.127   0.712
 3447TIP3   OH210283   8.192   0.742   2.105
 3447TIP3    H110284   8.205   0.662   2.157
 3447TIP3    H210285   8.260   0.802   2.135
 3448TIP3   OH210286   0.870   0.254   6.115
 3448TIP3    H110287   0.871   0.179   6.174
 3448TIP3    H210288   0.874   0.330   6.173
 3449TIP3   OH210289   4.942   2.343   3.425
 3449TIP3    H110290   4.949   2.434   3.453
 3449TIP3    H210291   5.010   2.333   3.359
 3450TIP3   OH210292   7.959   4.392   4.915
 3450TIP3    H110293   7.997   4.355   4.995
 3450TIP3    H210294   7.959   4.487   4.930
 3451TIP3   OH210295   1.662   3.218   6.024
 3451TIP3    H110296   1.705   3.152   5.970
 3451TIP3    H210297   1.660   3.297   5.969
 3452TIP3   OH210298   0.284   7.390   0.507
 3452TIP3    H110299   0.308   7.394   0.599
 3452TIP3    H210300   0.300   7.298   0.482
 3453TIP3   OH210301   4.060   2.695   6.635
 3453TIP3    H110302   4.034   2.785   6.656
 3453TIP3    H210303   4.151   2.703   6.607
 3454TIP3   OH210304   1.379   4.735   6.705
 3454TIP3    H110305   1.430   4.724   6.625
 3454TIP3    H210306   1.359   4.646   6.734
 3455TIP3   OH210307   3.382   3.936   5.988
 3455TIP3    H110308   3.429   3.969   6.064
 3455TIP3    H210309   3.447   3.937   5.917
 3456TIP3   OH210310   2.124   2.196   4.490
 3456TIP3    H110311   2.045   2.164   4.447
 3456TIP3    H210312   2.099   2.281   4.525
 3457TIP3   OH210313   6.635   1.507   2.611
 3457TIP3    H110314   6.566   1.520   2.546
 3457TIP3    H210315   6.589   1.510   2.695
 3458TIP3   OH210316   6.956   0.282   4.879
 3458TIP3    H110317   7.049   0.288   4.859
 3458TIP3    H210318   6.943   0.342   4.953
 3459TIP3   OH210319   3.915   2.216   4.255
 3459TIP3    H110320   3.968   2.141   4.228
 3459TIP3    H210321   3.868   2.185   4.333
 3460TIP3   OH210322   7.795   5.961   4.398
 3460TIP3    H110323   7.824   6.030   4.338
 3460TIP3    H210324   7.872   5.906   4.411
 3461TIP3   OH210325   3.005   0.699   6.234
 3461TIP3    H110326   2.967   0.661   6.313
 3461TIP3    H210327   3.071   0.761   6.267
 3462TIP3   OH210328   7.513   7.354   3.642
 3462TIP3    H110329   7.421   7.329   3.630
 3462TIP3    H210330   7.563   7.278   3.613
 3463TIP3   OH210331   7.603   5.885   0.676
 3463TIP3    H110332   7.543   5.907   0.605
 3463TIP3    H210333   7.563   5.810   0.719
 3464TIP3   OH210334   2.776   5.941   1.711
 3464TIP3    H110335   2.755   5.920   1.802
 3464TIP3    H210336   2.691   5.953   1.668
 3465TIP3   OH210337   3.162   1.280   1.401
 3465TIP3    H110338   3.225   1.333   1.354
 3465TIP3    H210339   3.097   1.342   1.433
 3466TIP3   OH210340   6.966   7.096   2.101
 3466TIP3    H110341   6.974   7.177   2.151
 3466TIP3    H210342   6.881   7.060   2.125
 3467TIP3   OH210343   0.137   1.991   3.164
 3467TIP3    H110344   0.117   1.901   3.192
 3467TIP3    H210345   0.081   2.046   3.218
 3468TIP3   OH210346   3.810   1.377   5.166
 3468TIP3    H110347   3.896   1.336   5.153
 3468TIP3    H210348   3.753   1.304   5.192
 3469TIP3   OH210349   7.292   5.570   5.440
 3469TIP3    H110350   7.358   5.633   5.467
 3469TIP3    H210351   7.240   5.615   5.373
 3470TIP3   OH210352   6.091   2.017   4.369
 3470TIP3    H110353   6.026   2.071   4.413
 3470TIP3    H210354   6.145   1.982   4.440
 3471TIP3   OH210355   3.628   5.070   4.032
 3471TIP3    H110356   3.673   5.130   3.974
 3471TIP3    H210357   3.682   4.990   4.030
 3472TIP3   OH210358   7.105   4.393   0.796
 3472TIP3    H110359   7.114   4.376   0.702
 3472TIP3    H210360   7.016   4.368   0.816
 3473TIP3   OH210361   0.827   4.632   5.907
 3473TIP3    H110362   0.786   4.718   5.891
 3473TIP3    H210363   0.796   4.608   5.994
 3474TIP3   OH210364   5.790   4.257   2.014
 3474TIP3    H110365   5.727   4.208   2.066
 3474TIP3    H210366   5.874   4.213   2.031
 3475TIP3   OH210367   6.796   7.043   1.756
 3475TIP3    H110368   6.735   7.115   1.771
 3475TIP3    H210369   6.838   7.064   1.672
 3476TIP3   OH210370   4.991   1.435   3.598
 3476TIP3    H110371   4.946   1.398   3.522
 3476TIP3    H210372   5.075   1.466   3.564
 3477TIP3   OH210373   7.578   1.078   4.060
 3477TIP3    H110374   7.604   0.989   4.082
 3477TIP3    H210375   7.499   1.067   4.006
 3478TIP3   OH210376   5.605   6.548   6.010
 3478TIP3    H110377   5.575   6.633   6.042
 3478TIP3    H210378   5.684   6.529   6.061
 3479TIP3   OH210379   3.783   0.574   6.238
 3479TIP3    H110380   3.815   0.651   6.192
 3479TIP3    H210381   3.696   0.599   6.269
 3480TIP3   OH210382   1.439   1.795   1.288
 3480TIP3    H110383   1.388   1.717   1.267
 3480TIP3    H210384   1.498   1.805   1.213
 3481TIP3   OH210385   5.835   7.357   1.065
 3481TIP3    H110386   5.818   7.275   1.112
 3481TIP3    H210387   5.869   7.416   1.132
 3482TIP3   OH210388   1.288   3.444   5.104
 3482TIP3    H110389   1.317   3.512   5.164
 3482TIP3    H210390   1.234   3.386   5.157
 3483TIP3   OH210391   0.098   2.688   4.298
 3483TIP3    H110392   0.087   2.707   4.391
 3483TIP3    H210393   0.161   2.616   4.295
 3484TIP3   OH210394   4.797   6.336   4.412
 3484TIP3    H110395   4.849   6.413   4.386
 3484TIP3    H210396   4.794   6.341   4.507
 3485TIP3   OH210397   2.517   4.069   2.448
 3485TIP3    H110398   2.457   4.143   2.461
 3485TIP3    H210399   2.497   4.037   2.360
 3486TIP3   OH210400   5.656   7.685   2.558
 3486TIP3    H110401   5.748   7.686   2.584
 3486TIP3    H210402   5.615   7.622   2.617
 3487TIP3   OH210403   2.422   6.323   6.417
 3487TIP3    H110404   2.453   6.372   6.493
 3487TIP3    H210405   2.371   6.386   6.366
 3488TIP3   OH210406   0.353   6.222   0.160
 3488TIP3    H110407   0.268   6.231   0.203
 3488TIP3    H210408   0.340   6.261   0.073
 3489TIP3   OH210409   2.783   3.782   5.431
 3489TIP3    H110410   2.695   3.753   5.453
 3489TIP3    H210411   2.786   3.874   5.456
 3490TIP3   OH210412   7.039   3.931   2.678
 3490TIP3    H110413   7.015   3.871   2.749
 3490TIP3    H210414   6.957   3.973   2.653
 3491TIP3   OH210415   3.182   1.445   0.814
 3491TIP3    H110416   3.089   1.421   0.807
 3491TIP3    H210417   3.213   1.446   0.724
 3492TIP3   OH210418   6.644   5.053   4.034
 3492TIP3    H110419   6.726   5.028   3.993
 3492TIP3    H210420   6.585   5.073   3.962
 3493TIP3   OH210421   6.612   7.739   6.479
 3493TIP3    H110422   6.640   7.715   6.567
 3493TIP3    H210423   6.690   7.727   6.425
 3494TIP3   OH210424   1.965   2.952   5.435
 3494TIP3    H110425   1.994   3.004   5.510
 3494TIP3    H210426   2.047   2.924   5.393
 3495TIP3   OH210427   0.481   1.864   3.116
 3495TIP3    H110428   0.447   1.925   3.182
 3495TIP3    H210429   0.551   1.817   3.162
 3496TIP3   OH210430   7.644   3.942   2.590
 3496TIP3    H110431   7.709   3.975   2.527
 3496TIP3    H210432   7.667   3.985   2.672
 3497TIP3   OH210433   2.150   6.874   3.582
 3497TIP3    H110434   2.199   6.873   3.663
 3497TIP3    H210435   2.216   6.868   3.513
 3498TIP3   OH210436   0.719   6.480   5.410
 3498TIP3    H110437   0.807   6.475   5.372
 3498TIP3    H210438   0.723   6.553   5.472
 3499TIP3   OH210439   0.058   3.024   6.547
 3499TIP3    H110440   0.017   2.949   6.503
 3499TIP3    H210441   0.054   3.094   6.483
 3500TIP3   OH210442   1.078   2.288   1.548
 3500TIP3    H110443   1.048   2.373   1.580
 3500TIP3    H210444   1.027   2.273   1.468
 3501TIP3   OH210445   6.886   2.080   5.543
 3501TIP3    H110446   6.948   2.110   5.610
 3501TIP3    H210447   6.942   2.039   5.477
 3502TIP3   OH210448   7.348   0.263   3.737
 3502TIP3    H110449   7.357   0.342   3.791
 3502TIP3    H210450   7.283   0.210   3.784
 3503TIP3   OH210451   2.655   3.533   4.868
 3503TIP3    H110452   2.694   3.499   4.949
 3503TIP3    H210453   2.560   3.531   4.885
 3504TIP3   OH210454   4.947   5.896   3.701
 3504TIP3    H110455   5.009   5.916   3.771
 3504TIP3    H210456   4.863   5.887   3.745
 3505TIP3   OH210457   5.848   5.163   5.983
 3505TIP3    H110458   5.770   5.219   5.978
 3505TIP3    H210459   5.852   5.134   6.074
 3506TIP3   OH210460   3.848   2.131   1.977
 3506TIP3    H110461   3.820   2.116   2.068
 3506TIP3    H210462   3.804   2.212   1.951
 3507TIP3   OH210463   5.340   3.651   4.300
 3507TIP3    H110464   5.344   3.704   4.380
 3507TIP3    H210465   5.339   3.560   4.331
 3508TIP3   OH210466   8.291   0.113   3.308
 3508TIP3    H110467   8.244   0.075   3.233
 3508TIP3    H210468   8.248   0.196   3.324
 3509TIP3   OH210469   1.920   2.613   1.827
 3509TIP3    H110470   1.974   2.651   1.897
 3509TIP3    H210471   1.983   2.584   1.761
 3510TIP3   OH210472   2.171   7.554   0.861
 3510TIP3    H110473   2.165   7.595   0.947
 3510TIP3    H210474   2.080   7.537   0.837
 3511TIP3   OH210475   0.961   4.983   1.414
 3511TIP3    H110476   1.035   5.039   1.440
 3511TIP3    H210477   0.958   4.991   1.319
 3512TIP3   OH210478   4.969   2.626   3.148
 3512TIP3    H110479   5.043   2.620   3.209
 3512TIP3    H210480   4.935   2.715   3.161
 3513TIP3   OH210481   0.178   0.948   5.179
 3513TIP3    H110482   0.134   0.891   5.242
 3513TIP3    H210483   0.234   0.890   5.128
 3514TIP3   OH210484   5.820   4.004   4.201
 3514TIP3    H110485   5.847   4.000   4.293
 3514TIP3    H210486   5.744   4.063   4.201
 3515TIP3   OH210487   6.748   3.660   4.402
 3515TIP3    H110488   6.715   3.663   4.313
 3515TIP3    H210489   6.734   3.749   4.436
 3516TIP3   OH210490   6.707   5.475   4.922
 3516TIP3    H110491   6.714   5.392   4.875
 3516TIP3    H210492   6.614   5.497   4.917
 3517TIP3   OH210493   4.642   3.877   2.075
 3517TIP3    H110494   4.553   3.846   2.088
 3517TIP3    H210495   4.666   3.842   1.989
 3518TIP3   OH210496   4.821   4.075   2.148
 3518TIP3    H110497   4.770   3.999   2.120
 3518TIP3    H210498   4.910   4.042   2.160
 3519TIP3   OH210499   2.148   7.610   5.344
 3519TIP3    H110500   2.125   7.666   5.270
 3519TIP3    H210501   2.206   7.544   5.307
 3520TIP3   OH210502   6.280   3.575   1.957
 3520TIP3    H110503   6.229   3.623   1.892
 3520TIP3    H210504   6.366   3.617   1.956
 3521TIP3   OH210505   5.219   4.482   2.281
 3521TIP3    H110506   5.259   4.395   2.285
 3521TIP3    H210507   5.138   4.473   2.331
 3522TIP3   OH210508   3.563   0.076   2.629
 3522TIP3    H110509   3.607   0.001   2.588
 3522TIP3    H210510   3.593   0.152   2.579
 3523TIP3   OH210511   7.975   7.269   0.467
 3523TIP3    H110512   8.003   7.341   0.410
 3523TIP3    H210513   8.057   7.237   0.505
 3524TIP3   OH210514   3.276   2.281   0.116
 3524TIP3    H110515   3.287   2.223   0.041
 3524TIP3    H210516   3.230   2.227   0.181
 3525TIP3   OH210517   1.955   6.373   4.446
 3525TIP3    H110518   2.039   6.394   4.406
 3525TIP3    H210519   1.952   6.277   4.449
 3526TIP3   OH210520   2.481   3.167   1.443
 3526TIP3    H110521   2.462   3.107   1.515
 3526TIP3    H210522   2.428   3.244   1.461
 3527TIP3   OH210523   4.966   0.963   5.888
 3527TIP3    H110524   5.004   1.030   5.831
 3527TIP3    H210525   4.996   0.880   5.850
 3528TIP3   OH210526   5.245   3.100   2.662
 3528TIP3    H110527   5.231   3.007   2.646
 3528TIP3    H210528   5.339   3.112   2.654
 3529TIP3   OH210529   5.083   0.210   4.567
 3529TIP3    H110530   5.077   0.199   4.472
 3529TIP3    H210531   5.007   0.265   4.589
 3530TIP3   OH210532   0.475   0.622   1.317
 3530TIP3    H110533   0.424   0.546   1.347
 3530TIP3    H210534   0.474   0.683   1.391
 3531TIP3   OH210535   7.581   5.227   1.823
 3531TIP3    H110536   7.493   5.192   1.838
 3531TIP3    H210537   7.568   5.300   1.762
 3532TIP3   OH210538   7.074   2.857   0.983
 3532TIP3    H110539   7.064   2.945   1.020
 3532TIP3    H210540   6.993   2.812   1.006
 3533TIP3   OH210541   5.100   4.162   1.050
 3533TIP3    H110542   5.112   4.098   0.980
 3533TIP3    H210543   5.087   4.245   1.004
 3534TIP3   OH210544   7.271   5.394   0.267
 3534TIP3    H110545   7.270   5.316   0.321
 3534TIP3    H210546   7.331   5.373   0.195
 3535TIP3   OH210547   2.763   3.769   6.342
 3535TIP3    H110548   2.811   3.810   6.270
 3535TIP3    H210549   2.829   3.757   6.411
 3536TIP3   OH210550   7.032   4.449   3.685
 3536TIP3    H110551   7.047   4.426   3.593
 3536TIP3    H210552   7.060   4.541   3.691
 3537TIP3   OH210553   0.825   6.929   3.371
 3537TIP3    H110554   0.917   6.937   3.347
 3537TIP3    H210555   0.792   7.019   3.370
 3538TIP3   OH210556   8.059   7.777   3.055
 3538TIP3    H110557   8.059   7.738   2.967
 3538TIP3    H210558   8.152   7.788   3.076
 3539TIP3   OH210559   0.620   0.583   4.680
 3539TIP3    H110560   0.525   0.592   4.676
 3539TIP3    H210561   0.652   0.644   4.613
 3540TIP3   OH210562   4.236   3.896   2.760
 3540TIP3    H110563   4.209   3.824   2.817
 3540TIP3    H210564   4.174   3.966   2.779
 3541TIP3   OH210565   7.626   3.248   1.280
 3541TIP3    H110566   7.534   3.258   1.254
 3541TIP3    H210567   7.636   3.154   1.295
 3542TIP3   OH210568   0.951   6.177   0.648
 3542TIP3    H110569   0.970   6.254   0.702
 3542TIP3    H210570   0.872   6.139   0.688
 3543TIP3   OH210571   8.148   6.958   4.354
 3543TIP3    H110572   8.180   7.041   4.319
 3543TIP3    H210573   8.221   6.897   4.341
 3544TIP3   OH210574   5.970   4.142   3.495
 3544TIP3    H110575   6.031   4.097   3.436
 3544TIP3    H210576   6.017   4.221   3.522
 3545TIP3   OH210577   0.103   2.181   1.707
 3545TIP3    H110578   0.146   2.112   1.656
 3545TIP3    H210579   0.161   2.196   1.781
 3546TIP3   OH210580   6.070   5.767   1.255
 3546TIP3    H110581   6.124   5.693   1.228
 3546TIP3    H210582   6.071   5.827   1.180
 3547TIP3   OH210583   6.859   1.527   3.471
 3547TIP3    H110584   6.954   1.529   3.481
 3547TIP3    H210585   6.836   1.615   3.440
 3548TIP3   OH210586   0.386   1.193   4.497
 3548TIP3    H110587   0.427   1.276   4.522
 3548TIP3    H210588   0.292   1.209   4.508
 3549TIP3   OH210589   6.269   6.283   1.121
 3549TIP3    H110590   6.361   6.267   1.099
 3549TIP3    H210591   6.271   6.317   1.211
 3550TIP3   OH210592   2.107   5.898   4.643
 3550TIP3    H110593   2.095   5.848   4.724
 3550TIP3    H210594   2.018   5.913   4.612
 3551TIP3   OH210595   3.051   7.703   2.972
 3551TIP3    H110596   3.109   7.759   3.024
 3551TIP3    H210597   3.061   7.616   3.010
 3552TIP3   OH210598   1.944   3.678   6.050
 3552TIP3    H110599   2.027   3.630   6.052
 3552TIP3    H210600   1.897   3.641   5.975
 3553TIP3   OH210601   3.691   5.300   4.747
 3553TIP3    H110602   3.719   5.212   4.772
 3553TIP3    H210603   3.717   5.355   4.821
 3554TIP3   OH210604   1.159   1.627   0.197
 3554TIP3    H110605   1.117   1.555   0.243
 3554TIP3    H210606   1.150   1.702   0.256
 3555TIP3   OH210607   6.454   3.481   0.128
 3555TIP3    H110608   6.467   3.393   0.092
 3555TIP3    H210609   6.422   3.465   0.217
 3556TIP3   OH210610   6.827   4.722   0.333
 3556TIP3    H110611   6.856   4.636   0.365
 3556TIP3    H210612   6.814   4.709   0.239
 3557TIP3   OH210613   0.247   4.122   2.139
 3557TIP3    H110614   0.198   4.061   2.195
 3557TIP3    H210615   0.181   4.185   2.109
 3558TIP3   OH210616   1.036   7.667   0.749
 3558TIP3    H110617   1.001   7.756   0.745
 3558TIP3    H210618   1.128   7.679   0.770
 3559TIP3   OH210619   1.227   6.824   1.679
 3559TIP3    H110620   1.316   6.839   1.647
 3559TIP3    H210621   1.190   6.760   1.618
 3560TIP3   OH210622   2.646   3.899   0.807
 3560TIP3    H110623   2.632   3.811   0.772
 3560TIP3    H210624   2.635   3.957   0.731
 3561TIP3   OH210625   6.744   0.236   0.253
 3561TIP3    H110626   6.711   0.261   0.339
 3561TIP3    H210627   6.685   0.280   0.191
 3562TIP3   OH210628   6.647   2.797   2.579
 3562TIP3    H110629   6.633   2.703   2.573
 3562TIP3    H210630   6.596   2.834   2.506
 3563TIP3   OH210631   4.681   0.608   2.420
 3563TIP3    H110632   4.658   0.694   2.455
 3563TIP3    H210633   4.771   0.593   2.449
 3564TIP3   OH210634   4.354   2.511   6.056
 3564TIP3    H110635   4.282   2.447   6.056
 3564TIP3    H210636   4.379   2.518   6.148
 3565TIP3   OH210637   5.378   4.245   4.463
 3565TIP3    H110638   5.422   4.193   4.396
 3565TIP3    H210639   5.433   4.323   4.473
 3566TIP3   OH210640   7.055   4.624   1.464
 3566TIP3    H110641   7.127   4.658   1.411
 3566TIP3    H210642   6.987   4.690   1.457
 3567TIP3   OH210643   3.468   2.089   5.455
 3567TIP3    H110644   3.526   2.086   5.379
 3567TIP3    H210645   3.447   1.997   5.472
 3568TIP3   OH210646   3.711   3.360   0.874
 3568TIP3    H110647   3.776   3.296   0.846
 3568TIP3    H210648   3.671   3.391   0.793
 3569TIP3   OH210649   4.465   4.531   5.325
 3569TIP3    H110650   4.391   4.504   5.379
 3569TIP3    H210651   4.509   4.449   5.302
 3570TIP3   OH210652   1.520   6.410   1.151
 3570TIP3    H110653   1.565   6.494   1.159
 3570TIP3    H210654   1.579   6.348   1.194
 3571TIP3   OH210655   0.608   5.053   3.418
 3571TIP3    H110656   0.618   5.120   3.485
 3571TIP3    H210657   0.658   4.978   3.450
 3572TIP3   OH210658   4.784   4.016   1.589
 3572TIP3    H110659   4.772   4.068   1.509
 3572TIP3    H210660   4.770   3.926   1.561
 3573TIP3   OH210661   7.981   1.773   0.843
 3573TIP3    H110662   7.999   1.686   0.879
 3573TIP3    H210663   7.890   1.791   0.867
 3574TIP3   OH210664   0.300   2.125   6.252
 3574TIP3    H110665   0.349   2.052   6.290
 3574TIP3    H210666   0.361   2.165   6.190
 3575TIP3   OH210667   5.736   5.164   3.243
 3575TIP3    H110668   5.782   5.244   3.268
 3575TIP3    H210669   5.653   5.168   3.291
 3576TIP3   OH210670   4.053   7.564   6.341
 3576TIP3    H110671   4.120   7.501   6.368
 3576TIP3    H210672   4.006   7.520   6.270
 3577TIP3   OH210673   7.779   3.424   3.081
 3577TIP3    H110674   7.736   3.451   3.000
 3577TIP3    H210675   7.825   3.503   3.110
 3578TIP3   OH210676   3.371   3.645   4.112
 3578TIP3    H110677   3.290   3.666   4.159
 3578TIP3    H210678   3.424   3.597   4.176
 3579TIP3   OH210679   1.703   1.935   3.764
 3579TIP3    H110680   1.655   2.018   3.763
 3579TIP3    H210681   1.781   1.952   3.711
 3580TIP3   OH210682   7.397   1.985   4.274
 3580TIP3    H110683   7.303   2.002   4.264
 3580TIP3    H210684   7.413   1.908   4.219
 3581TIP3   OH210685   7.904   3.014   2.088
 3581TIP3    H110686   7.949   3.070   2.025
 3581TIP3    H210687   7.974   2.964   2.130
 3582TIP3   OH210688   7.109   6.627   0.122
 3582TIP3    H110689   7.155   6.553   0.083
 3582TIP3    H210690   7.020   6.594   0.138
 3583TIP3   OH210691   4.951   4.848   4.509
 3583TIP3    H110692   4.865   4.889   4.518
 3583TIP3    H210693   5.008   4.920   4.481
 3584TIP3   OH210694   0.179   5.234   0.482
 3584TIP3    H110695   0.137   5.229   0.568
 3584TIP3    H210696   0.218   5.147   0.471
 3585TIP3   OH210697   0.080   3.301   4.596
 3585TIP3    H110698   0.126   3.330   4.517
 3585TIP3    H210699   0.120   3.352   4.666
 3586TIP3   OH210700   0.614   2.592   2.770
 3586TIP3    H110701   0.691   2.544   2.801
 3586TIP3    H210702   0.540   2.535   2.790
 3587TIP3   OH210703   4.198   5.188   2.463
 3587TIP3    H110704   4.218   5.142   2.545
 3587TIP3    H210705   4.156   5.123   2.408
 3588TIP3   OH210706   7.174   5.348   5.522
 3588TIP3    H110707   7.222   5.415   5.474
 3588TIP3    H210708   7.242   5.287   5.552
 3589TIP3   OH210709   7.281   3.389   6.502
 3589TIP3    H110710   7.357   3.332   6.488
 3589TIP3    H210711   7.208   3.328   6.510
 3590TIP3   OH210712   3.352   5.535   3.769
 3590TIP3    H110713   3.359   5.549   3.863
 3590TIP3    H210714   3.431   5.487   3.745
 3591TIP3   OH210715   2.081   5.146   0.489
 3591TIP3    H110716   2.048   5.057   0.491
 3591TIP3    H210717   2.128   5.156   0.572
 3592TIP3   OH210718   8.008   1.170   4.880
 3592TIP3    H110719   8.094   1.211   4.877
 3592TIP3    H210720   7.952   1.234   4.924
 3593TIP3   OH210721   0.035   2.238   0.226
 3593TIP3    H110722   0.125   2.268   0.238
 3593TIP3    H210723   0.024   2.169   0.292
 3594TIP3   OH210724   0.001   5.232   2.090
 3594TIP3    H110725  -0.013   5.308   2.146
 3594TIP3    H210726   0.046   5.266   2.013
 3595TIP3   OH210727   1.404   7.543   3.128
 3595TIP3    H110728   1.325   7.562   3.179
 3595TIP3    H210729   1.381   7.566   3.038
 3596TIP3   OH210730   0.016   6.491   4.028
 3596TIP3    H110731  -0.007   6.464   4.117
 3596TIP3    H210732   0.001   6.413   3.975
 3597TIP3   OH210733   6.122   3.846   4.220
 3597TIP3    H110734   6.147   3.866   4.310
 3597TIP3    H210735   6.172   3.767   4.198
 3598TIP3   OH210736   5.298   0.981   6.099
 3598TIP3    H110737   5.364   1.042   6.067
 3598TIP3    H210738   5.215   1.013   6.063
 3599TIP3   OH210739   6.200   2.973   6.178
 3599TIP3    H110740   6.145   2.990   6.101
 3599TIP3    H210741   6.187   2.879   6.196
 3600TIP3   OH210742   5.442   6.314   1.773
 3600TIP3    H110743   5.349   6.292   1.769
 3600TIP3    H210744   5.469   6.319   1.681
 3601TIP3   OH210745   3.441   6.165   0.648
 3601TIP3    H110746   3.480   6.252   0.638
 3601TIP3    H210747   3.356   6.171   0.604
 3602TIP3   OH210748   3.647   1.773   5.610
 3602TIP3    H110749   3.678   1.706   5.549
 3602TIP3    H210750   3.553   1.781   5.591
 3603TIP3   OH210751   1.838   7.149   5.054
 3603TIP3    H110752   1.781   7.223   5.071
 3603TIP3    H210753   1.786   7.090   5.000
 3604TIP3   OH210754   4.985   4.481   2.446
 3604TIP3    H110755   5.006   4.572   2.465
 3604TIP3    H210756   5.016   4.433   2.523
 3605TIP3   OH210757   5.604   5.085   3.022
 3605TIP3    H110758   5.674   5.100   3.085
 3605TIP3    H210759   5.558   5.169   3.016
 3606TIP3   OH210760   0.821   2.242   0.079
 3606TIP3    H110761   0.905   2.287   0.076
 3606TIP3    H210762   0.825   2.189   0.158
 3607TIP3   OH210763   4.423   4.153   0.217
 3607TIP3    H110764   4.389   4.101   0.144
 3607TIP3    H210765   4.396   4.243   0.197
 3608TIP3   OH210766   4.799   6.909   2.629
 3608TIP3    H110767   4.730   6.928   2.565
 3608TIP3    H210768   4.876   6.892   2.575
 3609TIP3   OH210769   1.101   7.066   2.267
 3609TIP3    H110770   1.043   6.996   2.296
 3609TIP3    H210771   1.125   7.112   2.348
 3610TIP3   OH210772   5.163   7.122   4.002
 3610TIP3    H110773   5.137   7.037   4.037
 3610TIP3    H210774   5.108   7.134   3.925
 3611TIP3   OH210775   4.639   4.579   3.208
 3611TIP3    H110776   4.577   4.599   3.278
 3611TIP3    H210777   4.674   4.664   3.182
 3612TIP3   OH210778   7.348   4.584   3.933
 3612TIP3    H110779   7.259   4.551   3.942
 3612TIP3    H210780   7.347   4.669   3.976
 3613TIP3   OH210781   6.203   1.511   6.713
 3613TIP3    H110782   6.193   1.558   6.796
 3613TIP3    H210783   6.238   1.576   6.652
 3614TIP3   OH210784   4.281   4.294   2.920
 3614TIP3    H110785   4.252   4.378   2.885
 3614TIP3    H210786   4.366   4.312   2.961
 3615TIP3   OH210787   2.270   5.427   3.891
 3615TIP3    H110788   2.250   5.371   3.966
 3615TIP3    H210789   2.345   5.384   3.849
 3616TIP3   OH210790   4.916   7.368   1.818
 3616TIP3    H110791   4.911   7.442   1.757
 3616TIP3    H210792   4.921   7.291   1.762
 3617TIP3   OH210793   1.905   5.371   2.487
 3617TIP3    H110794   1.994   5.337   2.473
 3617TIP3    H210795   1.918   5.460   2.518
 3618TIP3   OH210796   0.635   3.389   0.119
 3618TIP3    H110797   0.636   3.468   0.066
 3618TIP3    H210798   0.563   3.337   0.083
 3619TIP3   OH210799   7.812   4.625   3.501
 3619TIP3    H110800   7.716   4.619   3.501
 3619TIP3    H210801   7.831   4.691   3.435
 3620TIP3   OH210802   4.377   6.830   1.832
 3620TIP3    H110803   4.303   6.816   1.892
 3620TIP3    H210804   4.375   6.924   1.814
 3621TIP3   OH210805   0.889   7.763   2.890
 3621TIP3    H110806   0.911   7.735   2.801
 3621TIP3    H210807   0.842   7.845   2.879
 3622TIP3   OH210808   6.163   0.867   1.661
 3622TIP3    H110809   6.170   0.773   1.678
 3622TIP3    H210810   6.210   0.881   1.579
 3623TIP3   OH210811   1.090   7.564   4.379
 3623TIP3    H110812   1.087   7.505   4.304
 3623TIP3    H210813   1.042   7.642   4.349
 3624TIP3   OH210814   7.128   3.013   5.115
 3624TIP3    H110815   7.053   2.995   5.172
 3624TIP3    H210816   7.090   3.055   5.038
 3625TIP3   OH210817   0.170   2.824   0.671
 3625TIP3    H110818   0.084   2.866   0.664
 3625TIP3    H210819   0.212   2.866   0.746
 3626TIP3   OH210820   4.644   2.389   1.929
 3626TIP3    H110821   4.700   2.355   1.859
 3626TIP3    H210822   4.614   2.311   1.976
 3627TIP3   OH210823   4.653   5.832   3.568
 3627TIP3    H110824   4.615   5.780   3.638
 3627TIP3    H210825   4.699   5.903   3.613
 3628TIP3   OH210826   7.766   1.132   3.419
 3628TIP3    H110827   7.751   1.182   3.339
 3628TIP3    H210828   7.774   1.041   3.390
 3629TIP3   OH210829   2.761   3.393   1.625
 3629TIP3    H110830   2.787   3.388   1.533
 3629TIP3    H210831   2.787   3.309   1.662
 3630TIP3   OH210832   2.530   6.269   2.794
 3630TIP3    H110833   2.469   6.238   2.860
 3630TIP3    H210834   2.565   6.189   2.754
 3631TIP3   OH210835   4.615   7.462   2.360
 3631TIP3    H110836   4.658   7.419   2.435
 3631TIP3    H210837   4.522   7.444   2.373
 3632TIP3   OH210838   4.482   7.265   4.675
 3632TIP3    H110839   4.542   7.337   4.654
 3632TIP3    H210840   4.540   7.194   4.704
 3633TIP3   OH210841   4.292   6.257   1.690
 3633TIP3    H110842   4.360   6.212   1.640
 3633TIP3    H210843   4.340   6.303   1.760
 3634TIP3   OH210844   0.824   2.934   0.411
 3634TIP3    H110845   0.858   2.857   0.457
 3634TIP3    H210846   0.861   3.009   0.459
 3635TIP3   OH210847   6.986   1.194   3.147
 3635TIP3    H110848   6.978   1.290   3.152
 3635TIP3    H210849   6.909   1.162   3.194
 3636TIP3   OH210850   3.075   2.704   5.492
 3636TIP3    H110851   3.093   2.717   5.399
 3636TIP3    H210852   3.156   2.666   5.527
 3637TIP3   OH210853   7.495   3.317   2.747
 3637TIP3    H110854   7.440   3.394   2.732
 3637TIP3    H210855   7.581   3.351   2.770
 3638TIP3   OH210856   3.549   1.044   0.490
 3638TIP3    H110857   3.485   0.975   0.472
 3638TIP3    H210858   3.589   1.061   0.404
 3639TIP3   OH210859   2.974   2.764   1.291
 3639TIP3    H110860   3.008   2.781   1.203
 3639TIP3    H210861   3.049   2.778   1.349
 3640TIP3   OH210862   5.373   3.846   3.815
 3640TIP3    H110863   5.332   3.764   3.844
 3640TIP3    H210864   5.423   3.822   3.738
 3641TIP3   OH210865   1.852   2.518   0.824
 3641TIP3    H110866   1.929   2.530   0.880
 3641TIP3    H210867   1.884   2.540   0.736
 3642TIP3   OH210868   3.192   6.178   0.496
 3642TIP3    H110869   3.150   6.107   0.448
 3642TIP3    H210870   3.137   6.255   0.479
 3643TIP3   OH210871   6.082   1.125   6.184
 3643TIP3    H110872   6.089   1.194   6.118
 3643TIP3    H210873   6.030   1.056   6.142
 3644TIP3   OH210874   3.879   3.444   6.149
 3644TIP3    H110875   3.914   3.513   6.092
 3644TIP3    H210876   3.820   3.490   6.208
 3645TIP3   OH210877   4.281   4.478   3.765
 3645TIP3    H110878   4.251   4.531   3.691
 3645TIP3    H210879   4.225   4.504   3.837
 3646TIP3   OH210880   2.822   3.740   5.910
 3646TIP3    H110881   2.781   3.802   5.848
 3646TIP3    H210882   2.909   3.776   5.926
 3647TIP3   OH210883   7.515   5.338   0.505
 3647TIP3    H110884   7.577   5.289   0.558
 3647TIP3    H210885   7.437   5.283   0.502
 3648TIP3   OH210886   2.987   4.817   5.119
 3648TIP3    H110887   3.005   4.729   5.086
 3648TIP3    H210888   3.000   4.874   5.043
 3649TIP3   OH210889   0.908   3.802   6.016
 3649TIP3    H110890   0.867   3.757   5.942
 3649TIP3    H210891   0.959   3.734   6.060
 3650TIP3   OH210892   7.569   0.439   5.121
 3650TIP3    H110893   7.539   0.350   5.137
 3650TIP3    H210894   7.656   0.443   5.160
 3651TIP3   OH210895   6.682   2.536   0.880
 3651TIP3    H110896   6.691   2.452   0.834
 3651TIP3    H210897   6.600   2.573   0.847
 3652TIP3   OH210898   2.520   2.940   1.658
 3652TIP3    H110899   2.516   2.937   1.754
 3652TIP3    H210900   2.611   2.959   1.639
 3653TIP3   OH210901   4.238   0.782   6.313
 3653TIP3    H110902   4.293   0.742   6.381
 3653TIP3    H210903   4.174   0.715   6.291
 3654TIP3   OH210904   4.296   1.002   2.649
 3654TIP3    H110905   4.363   1.048   2.599
 3654TIP3    H210906   4.291   0.915   2.609
 3655TIP3   OH210907   4.400   0.284   3.202
 3655TIP3    H110908   4.371   0.322   3.119
 3655TIP3    H210909   4.414   0.360   3.259
 3656TIP3   OH210910   2.130   2.470   2.202
 3656TIP3    H110911   2.134   2.525   2.280
 3656TIP3    H210912   2.087   2.390   2.231
 3657TIP3   OH210913   8.078   6.056   2.852
 3657TIP3    H110914   8.122   6.064   2.937
 3657TIP3    H210915   8.017   5.982   2.863
 3658TIP3   OH210916   7.876   7.087   2.391
 3658TIP3    H110917   7.928   7.056   2.465
 3658TIP3    H210918   7.816   7.152   2.429
 3659TIP3   OH210919   5.365   6.607   1.749
 3659TIP3    H110920   5.435   6.543   1.733
 3659TIP3    H210921   5.291   6.553   1.779
 3660TIP3   OH210922   7.179   2.198   1.646
 3660TIP3    H110923   7.254   2.145   1.673
 3660TIP3    H210924   7.205   2.233   1.561
 3661TIP3   OH210925   1.303   1.354   0.387
 3661TIP3    H110926   1.290   1.263   0.412
 3661TIP3    H210927   1.350   1.393   0.461
 3662TIP3   OH210928   4.022   2.922   3.128
 3662TIP3    H110929   4.008   2.828   3.116
 3662TIP3    H210930   3.974   2.962   3.056
 3663TIP3   OH210931   4.670   2.991   5.279
 3663TIP3    H110932   4.601   3.034   5.229
 3663TIP3    H210933   4.736   3.059   5.293
 3664TIP3   OH210934   4.691   4.661   3.888
 3664TIP3    H110935   4.728   4.703   3.810
 3664TIP3    H210936   4.682   4.569   3.864
 3665TIP3   OH210937   6.298   3.294   3.866
 3665TIP3    H110938   6.238   3.368   3.872
 3665TIP3    H210939   6.312   3.267   3.956
 3666TIP3   OH210940   1.185   3.660   2.240
 3666TIP3    H110941   1.259   3.708   2.277
 3666TIP3    H210942   1.173   3.586   2.299
 3667TIP3   OH210943   4.537   6.724   2.672
 3667TIP3    H110944   4.603   6.759   2.732
 3667TIP3    H210945   4.582   6.718   2.588
 3668TIP3   OH210946   4.257   5.964   1.962
 3668TIP3    H110947   4.196   5.901   2.002
 3668TIP3    H210948   4.203   6.019   1.906
 3669TIP3   OH210949   4.611   2.315   2.436
 3669TIP3    H110950   4.521   2.285   2.445
 3669TIP3    H210951   4.660   2.236   2.414
 3670TIP3   OH210952   7.524   0.494   2.247
 3670TIP3    H110953   7.585   0.525   2.180
 3670TIP3    H210954   7.442   0.540   2.228
 3671TIP3   OH210955   2.511   0.687   5.449
 3671TIP3    H110956   2.471   0.720   5.368
 3671TIP3    H210957   2.540   0.599   5.427
 3672TIP3   OH210958   3.934   0.273   6.343
 3672TIP3    H110959   3.906   0.182   6.334
 3672TIP3    H210960   3.965   0.297   6.256
 3673TIP3   OH210961   3.705   2.632   6.524
 3673TIP3    H110962   3.672   2.570   6.458
 3673TIP3    H210963   3.752   2.697   6.473
 3674TIP3   OH210964   1.623   3.415   2.671
 3674TIP3    H110965   1.575   3.335   2.697
 3674TIP3    H210966   1.713   3.386   2.659
 3675TIP3   OH210967   4.144   3.682   4.242
 3675TIP3    H110968   4.230   3.640   4.243
 3675TIP3    H210969   4.091   3.629   4.182
 3676TIP3   OH210970   0.084   1.230   0.525
 3676TIP3    H110971   0.170   1.274   0.522
 3676TIP3    H210972   0.082   1.188   0.611
 3677TIP3   OH210973   0.496   5.573   4.621
 3677TIP3    H110974   0.423   5.552   4.679
 3677TIP3    H210975   0.458   5.633   4.556
 3678TIP3   OH210976   3.173   2.953   3.591
 3678TIP3    H110977   3.128   2.879   3.630
 3678TIP3    H210978   3.223   2.916   3.518
 3679TIP3   OH210979   4.485   7.720   1.030
 3679TIP3    H110980   4.471   7.647   0.970
 3679TIP3    H210981   4.580   7.729   1.035
 3680TIP3   OH210982   3.861   5.418   4.553
 3680TIP3    H110983   3.870   5.336   4.503
 3680TIP3    H210984   3.855   5.389   4.644
 3681TIP3   OH210985   1.571   0.198   3.565
 3681TIP3    H110986   1.618   0.147   3.499
 3681TIP3    H210987   1.507   0.137   3.601
 3682TIP3   OH210988   0.579   1.725   3.432
 3682TIP3    H110989   0.647   1.666   3.400
 3682TIP3    H210990   0.497   1.676   3.422
 3683TIP3   OH210991   4.689   7.728   4.321
 3683TIP3    H110992   4.768   7.779   4.299
 3683TIP3    H210993   4.687   7.659   4.254
 3684TIP3   OH210994   0.053   3.360   6.053
 3684TIP3    H110995   0.132   3.338   6.103
 3684TIP3    H210996   0.084   3.415   5.981
 3685TIP3   OH210997   8.051   7.848   0.507
 3685TIP3    H110998   7.964   7.809   0.520
 3685TIP3    H210999   8.097   7.785   0.451
 3686TIP3   OH211000   5.185   2.229   2.522
 3686TIP3    H111001   5.241   2.208   2.447
 3686TIP3    H211002   5.219   2.312   2.554
 3687TIP3   OH211003   6.675   7.677   5.839
 3687TIP3    H111004   6.665   7.583   5.823
 3687TIP3    H211005   6.609   7.697   5.905
 3688TIP3   OH211006   3.349   6.919   0.311
 3688TIP3    H111007   3.376   7.002   0.272
 3688TIP3    H211008   3.378   6.852   0.249
 3689TIP3   OH211009   7.331   4.653   4.862
 3689TIP3    H111010   7.338   4.675   4.955
 3689TIP3    H211011   7.264   4.584   4.859
 3690TIP3   OH211012   0.443   7.369   2.170
 3690TIP3    H111013   0.416   7.330   2.087
 3690TIP3    H211014   0.431   7.299   2.235
 3691TIP3   OH211015   4.708   0.180   3.199
 3691TIP3    H111016   4.668   0.211   3.281
 3691TIP3    H211017   4.701   0.085   3.204
 3692TIP3   OH211018   4.242   5.601   3.274
 3692TIP3    H111019   4.282   5.656   3.206
 3692TIP3    H211020   4.191   5.662   3.327
 3693TIP3   OH211021   8.215   4.235   2.635
 3693TIP3    H111022   8.255   4.300   2.692
 3693TIP3    H211023   8.151   4.285   2.583
 3694TIP3   OH211024   7.416   1.501   4.661
 3694TIP3    H111025   7.452   1.414   4.641
 3694TIP3    H211026   7.373   1.490   4.746
 3695TIP3   OH211027   6.258   6.920   0.694
 3695TIP3    H111028   6.277   7.006   0.731
 3695TIP3    H211029   6.292   6.924   0.605
 3696TIP3   OH211030   6.413   4.912   6.002
 3696TIP3    H111031   6.384   5.003   5.996
 3696TIP3    H211032   6.412   4.893   6.096
 3697TIP3   OH211033   5.140   2.299   1.975
 3697TIP3    H111034   5.161   2.391   1.959
 3697TIP3    H211035   5.052   2.300   2.012
 3698TIP3   OH211036   4.849   3.665   0.561
 3698TIP3    H111037   4.779   3.689   0.500
 3698TIP3    H211038   4.930   3.681   0.513
 3699TIP3   OH211039   3.657   3.196   4.222
 3699TIP3    H111040   3.650   3.104   4.196
 3699TIP3    H211041   3.731   3.229   4.171
 3700TIP3   OH211042   0.760   3.269   4.015
 3700TIP3    H111043   0.829   3.211   3.982
 3700TIP3    H211044   0.683   3.212   4.024
 3701TIP3   OH211045   5.772   5.150   6.463
 3701TIP3    H111046   5.734   5.236   6.444
 3701TIP3    H211047   5.845   5.169   6.522
 3702TIP3   OH211048   4.604   5.392   5.470
 3702TIP3    H111049   4.570   5.371   5.557
 3702TIP3    H211050   4.568   5.323   5.413
 3703TIP3   OH211051   1.924   5.123   4.950
 3703TIP3    H111052   1.973   5.174   5.013
 3703TIP3    H211053   1.983   5.052   4.925
 3704TIP3   OH211054   7.121   6.004   3.615
 3704TIP3    H111055   7.159   6.061   3.548
 3704TIP3    H211056   7.122   6.057   3.695
 3705TIP3   OH211057   8.116   4.121   2.863
 3705TIP3    H111058   8.140   4.029   2.853
 3705TIP3    H211059   8.132   4.160   2.777
 3706TIP3   OH211060   6.816   3.483   0.138
 3706TIP3    H111061   6.726   3.455   0.126
 3706TIP3    H211062   6.866   3.432   0.074
 3707TIP3   OH211063   2.854   4.303   6.201
 3707TIP3    H111064   2.814   4.312   6.114
 3707TIP3    H211065   2.861   4.209   6.214
 3708TIP3   OH211066   6.538   6.411   3.983
 3708TIP3    H111067   6.584   6.450   4.058
 3708TIP3    H211068   6.484   6.341   4.021
 3709TIP3   OH211069   4.590   7.407   3.309
 3709TIP3    H111070   4.537   7.471   3.356
 3709TIP3    H211071   4.545   7.396   3.225
 3710TIP3   OH211072   3.476   3.070   0.106
 3710TIP3    H111073   3.497   2.984   0.071
 3710TIP3    H211074   3.552   3.125   0.084
 3711TIP3   OH211075   6.626   1.684   5.504
 3711TIP3    H111076   6.682   1.732   5.565
 3711TIP3    H211077   6.591   1.751   5.445
 3712TIP3   OH211078   0.555   3.241   5.101
 3712TIP3    H111079   0.526   3.233   5.011
 3712TIP3    H211080   0.525   3.161   5.144
 3713TIP3   OH211081   5.230   6.890   5.001
 3713TIP3    H111082   5.183   6.867   4.921
 3713TIP3    H211083   5.258   6.981   4.988
 3714TIP3   OH211084   2.715   1.379   5.045
 3714TIP3    H111085   2.640   1.340   5.001
 3714TIP3    H211086   2.680   1.459   5.086
 3715TIP3   OH211087   6.819   5.377   3.377
 3715TIP3    H111088   6.774   5.344   3.299
 3715TIP3    H211089   6.855   5.298   3.418
 3716TIP3   OH211090   8.313   6.126   0.795
 3716TIP3    H111091   8.353   6.170   0.870
 3716TIP3    H211092   8.259   6.057   0.834
 3717TIP3   OH211093   7.428   1.710   0.778
 3717TIP3    H111094   7.400   1.794   0.741
 3717TIP3    H211095   7.376   1.701   0.857
 3718TIP3   OH211096   4.864   2.709   0.246
 3718TIP3    H111097   4.892   2.756   0.324
 3718TIP3    H211098   4.786   2.756   0.216
 3719TIP3   OH211099   6.262   5.206   2.154
 3719TIP3    H111100   6.258   5.156   2.072
 3719TIP3    H211101   6.331   5.271   2.140
 3720TIP3   OH211102   1.410   6.031   4.274
 3720TIP3    H111103   1.376   6.092   4.209
 3720TIP3    H211104   1.491   6.072   4.306
 3721TIP3   OH211105   8.257   5.169   1.414
 3721TIP3    H111106   8.198   5.096   1.400
 3721TIP3    H211107   8.310   5.172   1.334
 3722TIP3   OH211108   2.640   7.177   2.083
 3722TIP3    H111109   2.619   7.144   1.996
 3722TIP3    H211110   2.733   7.158   2.095
 3723TIP3   OH211111   2.760   1.081   0.273
 3723TIP3    H111112   2.675   1.040   0.288
 3723TIP3    H211113   2.744   1.175   0.287
 3724TIP3   OH211114   7.561   5.057   0.408
 3724TIP3    H111115   7.615   5.122   0.365
 3724TIP3    H211116   7.471   5.090   0.398
 3725TIP3   OH211117   4.431   7.745   6.450
 3725TIP3    H111118   4.426   7.840   6.437
 3725TIP3    H211119   4.460   7.735   6.541
 3726TIP3   OH211120   3.570   4.959   1.994
 3726TIP3    H111121   3.505   5.018   2.033
 3726TIP3    H211122   3.642   4.959   2.056
 3727TIP3   OH211123   7.366   4.979   1.603
 3727TIP3    H111124   7.418   4.909   1.643
 3727TIP3    H211125   7.277   4.962   1.633
 3728TIP3   OH211126   7.460   5.044   4.381
 3728TIP3    H111127   7.416   5.063   4.298
 3728TIP3    H211128   7.553   5.054   4.363
 3729TIP3   OH211129   4.931   5.468   4.083
 3729TIP3    H111130   4.934   5.557   4.116
 3729TIP3    H211131   4.890   5.418   4.153
 3730TIP3   OH211132   1.752   2.802   6.628
 3730TIP3    H111133   1.734   2.712   6.600
 3730TIP3    H211134   1.668   2.837   6.655
 3731TIP3   OH211135   3.416   1.629   4.606
 3731TIP3    H111136   3.330   1.665   4.585
 3731TIP3    H211137   3.477   1.676   4.549
 3732TIP3   OH211138   7.268   7.452   0.640
 3732TIP3    H111139   7.343   7.487   0.592
 3732TIP3    H211140   7.192   7.491   0.597
 3733TIP3   OH211141   7.603   0.664   2.684
 3733TIP3    H111142   7.510   0.686   2.695
 3733TIP3    H211143   7.631   0.634   2.770
 3734TIP3   OH211144   2.770   7.331   0.879
 3734TIP3    H111145   2.746   7.364   0.793
 3734TIP3    H211146   2.761   7.236   0.872
 3735TIP3   OH211147   2.673   1.831   3.710
 3735TIP3    H111148   2.767   1.851   3.704
 3735TIP3    H211149   2.630   1.909   3.676
 3736TIP3   OH211150   0.869   1.815   6.724
 3736TIP3    H111151   0.895   1.751   6.789
 3736TIP3    H211152   0.950   1.854   6.693
 3737TIP3   OH211153   0.898   1.025   2.609
 3737TIP3    H111154   0.857   0.996   2.528
 3737TIP3    H211155   0.852   1.106   2.631
 3738TIP3   OH211156   5.124   2.093   3.510
 3738TIP3    H111157   5.143   2.000   3.494
 3738TIP3    H211158   5.103   2.129   3.424
 3739TIP3   OH211159   6.504   1.222   3.343
 3739TIP3    H111160   6.538   1.280   3.410
 3739TIP3    H211161   6.565   1.229   3.270
 3740TIP3   OH211162   3.918   1.134   1.818
 3740TIP3    H111163   3.875   1.054   1.848
 3740TIP3    H211164   4.010   1.110   1.810
 3741TIP3   OH211165   2.624   2.447   2.649
 3741TIP3    H111166   2.695   2.452   2.585
 3741TIP3    H211167   2.544   2.439   2.596
 3742TIP3   OH211168   3.013   5.327   1.189
 3742TIP3    H111169   3.100   5.299   1.217
 3742TIP3    H211170   3.001   5.413   1.230
 3743TIP3   OH211171   2.601   6.777   2.642
 3743TIP3    H111172   2.670   6.710   2.642
 3743TIP3    H211173   2.558   6.766   2.727
 3744TIP3   OH211174   4.800   2.776   1.799
 3744TIP3    H111175   4.740   2.723   1.852
 3744TIP3    H211176   4.819   2.852   1.853
 3745TIP3   OH211177   0.690   1.665   1.740
 3745TIP3    H111178   0.633   1.672   1.816
 3745TIP3    H211179   0.773   1.632   1.775
 3746TIP3   OH211180   2.287   2.305   4.751
 3746TIP3    H111181   2.253   2.234   4.697
 3746TIP3    H211182   2.238   2.382   4.724
 3747TIP3   OH211183   1.312   7.130   3.266
 3747TIP3    H111184   1.392   7.082   3.288
 3747TIP3    H211185   1.323   7.154   3.174
 3748TIP3   OH211186   4.972   5.127   5.965
 3748TIP3    H111187   4.927   5.113   5.882
 3748TIP3    H211188   4.937   5.058   6.022
 3749TIP3   OH211189   5.583   1.490   3.017
 3749TIP3    H111190   5.644   1.533   3.078
 3749TIP3    H211191   5.581   1.399   3.045
 3750TIP3   OH211192   1.470   1.809   6.369
 3750TIP3    H111193   1.549   1.770   6.332
 3750TIP3    H211194   1.425   1.847   6.293
 3751TIP3   OH211195   1.037   1.304   6.596
 3751TIP3    H111196   1.061   1.217   6.629
 3751TIP3    H211197   0.948   1.294   6.562
 3752TIP3   OH211198   4.936   3.600   0.923
 3752TIP3    H111199   5.001   3.594   0.853
 3752TIP3    H211200   4.857   3.633   0.880
 3753TIP3   OH211201   0.924   4.068   6.404
 3753TIP3    H111202   0.945   4.114   6.485
 3753TIP3    H211203   0.944   4.131   6.335
 3754TIP3   OH211204   3.557   2.745   3.086
 3754TIP3    H111205   3.645   2.711   3.069
 3754TIP3    H211206   3.522   2.687   3.154
 3755TIP3   OH211207   7.973   2.208   3.102
 3755TIP3    H111208   8.046   2.269   3.109
 3755TIP3    H211209   8.008   2.133   3.055
 3756TIP3   OH211210   1.475   7.633   5.547
 3756TIP3    H111211   1.537   7.592   5.607
 3756TIP3    H211212   1.467   7.723   5.578
 3757TIP3   OH211213   2.417   0.845   2.089
 3757TIP3    H111214   2.396   0.925   2.137
 3757TIP3    H211215   2.424   0.873   1.998
 3758TIP3   OH211216   5.031   7.422   5.118
 3758TIP3    H111217   5.103   7.363   5.141
 3758TIP3    H211218   4.972   7.367   5.066
 3759TIP3   OH211219   0.326   0.867   4.520
 3759TIP3    H111220   0.403   0.905   4.478
 3759TIP3    H211221   0.285   0.813   4.452
 3760TIP3   OH211222   0.151   0.867   6.282
 3760TIP3    H111223   0.109   0.882   6.367
 3760TIP3    H211224   0.077   0.853   6.222
 3761TIP3   OH211225   0.181   0.861   5.706
 3761TIP3    H111226   0.205   0.930   5.645
 3761TIP3    H211227   0.145   0.907   5.782
 3762TIP3   OH211228   8.022   4.913   2.640
 3762TIP3    H111229   8.044   4.954   2.557
 3762TIP3    H211230   7.974   4.833   2.616
 3763TIP3   OH211231   2.899   6.582   4.244
 3763TIP3    H111232   2.847   6.573   4.324
 3763TIP3    H211233   2.837   6.613   4.178
 3764TIP3   OH211234   0.423   7.513   3.898
 3764TIP3    H111235   0.451   7.451   3.830
 3764TIP3    H211236   0.412   7.596   3.851
 3765TIP3   OH211237   3.845   3.730   3.849
 3765TIP3    H111238   3.824   3.687   3.766
 3765TIP3    H211239   3.776   3.701   3.909
 3766TIP3   OH211240   4.626   5.450   6.032
 3766TIP3    H111241   4.597   5.539   6.015
 3766TIP3    H211242   4.623   5.440   6.127
 3767TIP3   OH211243   2.405   1.299   4.912
 3767TIP3    H111244   2.446   1.277   4.828
 3767TIP3    H211245   2.322   1.341   4.888
 3768TIP3   OH211246   6.092   6.234   2.765
 3768TIP3    H111247   6.099   6.203   2.855
 3768TIP3    H211248   6.092   6.329   2.772
 3769TIP3   OH211249   5.084   5.729   2.487
 3769TIP3    H111250   5.014   5.707   2.549
 3769TIP3    H211251   5.050   5.805   2.439
 3770TIP3   OH211252   0.381   5.868   0.809
 3770TIP3    H111253   0.322   5.859   0.734
 3770TIP3    H211254   0.357   5.797   0.868
 3771TIP3   OH211255   1.294   7.508   1.305
 3771TIP3    H111256   1.298   7.496   1.399
 3771TIP3    H211257   1.201   7.519   1.286
 3772TIP3   OH211258   4.650   5.710   0.693
 3772TIP3    H111259   4.716   5.651   0.729
 3772TIP3    H211260   4.691   5.750   0.617
 3773TIP3   OH211261   0.931   5.547   4.733
 3773TIP3    H111262   1.018   5.577   4.707
 3773TIP3    H211263   0.947   5.467   4.782
 3774TIP3   OH211264   0.319   5.342   0.803
 3774TIP3    H111265   0.409   5.369   0.784
 3774TIP3    H211266   0.292   5.292   0.726
 3775TIP3   OH211267   5.446   5.352   5.407
 3775TIP3    H111268   5.378   5.417   5.393
 3775TIP3    H211269   5.398   5.273   5.434
 3776TIP3   OH211270   4.882   1.483   6.039
 3776TIP3    H111271   4.828   1.555   6.071
 3776TIP3    H211272   4.953   1.525   5.992
 3777TIP3   OH211273   2.473   6.654   4.412
 3777TIP3    H111274   2.443   6.584   4.470
 3777TIP3    H211275   2.450   6.735   4.459
 3778TIP3   OH211276   7.643   6.284   3.852
 3778TIP3    H111277   7.689   6.311   3.773
 3778TIP3    H211278   7.708   6.235   3.902
 3779TIP3   OH211279   7.189   0.630   3.714
 3779TIP3    H111280   7.203   0.566   3.644
 3779TIP3    H211281   7.241   0.597   3.788
 3780TIP3   OH211282   7.681   1.379   2.059
 3780TIP3    H111283   7.756   1.330   2.094
 3780TIP3    H211284   7.708   1.470   2.064
 3781TIP3   OH211285   2.662   0.260   4.946
 3781TIP3    H111286   2.750   0.298   4.952
 3781TIP3    H211287   2.658   0.224   4.857
 3782TIP3   OH211288   7.016   7.676   5.268
 3782TIP3    H111289   7.022   7.591   5.311
 3782TIP3    H211290   6.925   7.704   5.284
 3783TIP3   OH211291   1.801   0.378   3.908
 3783TIP3    H111292   1.707   0.396   3.909
 3783TIP3    H211293   1.816   0.331   3.826
 3784TIP3   OH211294   1.572   1.270   3.286
 3784TIP3    H111295   1.487   1.231   3.264
 3784TIP3    H211296   1.575   1.268   3.382
 3785TIP3   OH211297   5.580   1.581   2.175
 3785TIP3    H111298   5.665   1.548   2.145
 3785TIP3    H211299   5.528   1.502   2.190
 3786TIP3   OH211300   4.593   1.734   6.672
 3786TIP3    H111301   4.565   1.775   6.754
 3786TIP3    H211302   4.612   1.643   6.696
 3787TIP3   OH211303   1.716   6.607   5.865
 3787TIP3    H111304   1.679   6.611   5.777
 3787TIP3    H211305   1.754   6.694   5.879
 3788TIP3   OH211306   2.632   2.826   4.563
 3788TIP3    H111307   2.662   2.785   4.645
 3788TIP3    H211308   2.578   2.760   4.521
 3789TIP3   OH211309   3.792   1.837   4.883
 3789TIP3    H111310   3.710   1.869   4.846
 3789TIP3    H211311   3.765   1.771   4.947
 3790TIP3   OH211312   7.944   4.599   2.009
 3790TIP3    H111313   7.989   4.514   2.005
 3790TIP3    H211314   8.013   4.663   1.993
 3791TIP3   OH211315   5.783   3.735   5.811
 3791TIP3    H111316   5.860   3.682   5.834
 3791TIP3    H211317   5.792   3.752   5.718
 3792TIP3   OH211318   7.632   7.080   6.032
 3792TIP3    H111319   7.580   7.033   6.097
 3792TIP3    H211320   7.723   7.070   6.061
 3793TIP3   OH211321   4.627   2.330   5.126
 3793TIP3    H111322   4.611   2.300   5.216
 3793TIP3    H211323   4.707   2.285   5.100
 3794TIP3   OH211324   0.047   5.960   4.945
 3794TIP3    H111325   0.010   5.948   5.032
 3794TIP3    H211326   0.055   5.872   4.909
 3795TIP3   OH211327   2.922   7.271   3.068
 3795TIP3    H111328   2.866   7.333   3.022
 3795TIP3    H211329   2.962   7.219   2.998
 3796TIP3   OH211330   6.447   3.995   6.081
 3796TIP3    H111331   6.385   4.032   6.017
 3796TIP3    H211332   6.420   4.033   6.164
 3797TIP3   OH211333   4.798   4.125   4.650
 3797TIP3    H111334   4.833   4.213   4.645
 3797TIP3    H211335   4.871   4.068   4.626
 3798TIP3   OH211336   5.573   7.553   6.170
 3798TIP3    H111337   5.593   7.607   6.094
 3798TIP3    H211338   5.658   7.532   6.209
 3799TIP3   OH211339   2.965   3.077   6.400
 3799TIP3    H111340   2.910   3.014   6.355
 3799TIP3    H211341   3.025   3.024   6.452
 3800TIP3   OH211342   1.833   0.865   6.243
 3800TIP3    H111343   1.910   0.911   6.276
 3800TIP3    H211344   1.859   0.832   6.158
 3801TIP3   OH211345   1.894   7.127   2.080
 3801TIP3    H111346   1.872   7.218   2.101
 3801TIP3    H211347   1.810   7.081   2.085
 3802TIP3   OH211348   4.140   0.718   0.413
 3802TIP3    H111349   4.231   0.721   0.440
 3802TIP3    H211350   4.102   0.645   0.461
 3803TIP3   OH211351   6.131   2.342   5.091
 3803TIP3    H111352   6.173   2.280   5.151
 3803TIP3    H211353   6.148   2.307   5.004
 3804TIP3   OH211354   7.768   5.798   4.717
 3804TIP3    H111355   7.830   5.813   4.646
 3804TIP3    H211356   7.682   5.820   4.680
 3805TIP3   OH211357   0.537   0.695   1.779
 3805TIP3    H111358   0.517   0.690   1.686
 3805TIP3    H211359   0.460   0.734   1.819
 3806TIP3   OH211360   7.224   0.247   4.900
 3806TIP3    H111361   7.244   0.159   4.868
 3806TIP3    H211362   7.186   0.233   4.987
 3807TIP3   OH211363   1.683   3.425   5.276
 3807TIP3    H111364   1.724   3.368   5.211
 3807TIP3    H211365   1.729   3.509   5.268
 3808TIP3   OH211366   5.076   0.150   6.377
 3808TIP3    H111367   5.076   0.139   6.282
 3808TIP3    H211368   5.169   0.152   6.401
 3809TIP3   OH211369   7.904   0.290   3.825
 3809TIP3    H111370   7.984   0.239   3.833
 3809TIP3    H211371   7.833   0.226   3.826
 3810TIP3   OH211372   6.099   3.047   6.444
 3810TIP3    H111373   6.133   3.009   6.363
 3810TIP3    H211374   6.174   3.090   6.484
 3811TIP3   OH211375   2.206   4.760   1.189
 3811TIP3    H111376   2.298   4.783   1.202
 3811TIP3    H211377   2.157   4.833   1.228
 3812TIP3   OH211378   1.812   0.189   0.879
 3812TIP3    H111379   1.844   0.271   0.917
 3812TIP3    H211380   1.830   0.123   0.947
 3813TIP3   OH211381   6.843   7.788   4.314
 3813TIP3    H111382   6.798   7.775   4.398
 3813TIP3    H211383   6.932   7.756   4.329
 3814TIP3   OH211384   1.584   0.987   3.410
 3814TIP3    H111385   1.508   1.044   3.416
 3814TIP3    H211386   1.659   1.045   3.421
 3815TIP3   OH211387   7.722   6.987   4.635
 3815TIP3    H111388   7.758   6.932   4.565
 3815TIP3    H211389   7.782   6.974   4.708
 3816TIP3   OH211390   6.731   0.329   4.741
 3816TIP3    H111391   6.815   0.304   4.779
 3816TIP3    H211392   6.686   0.379   4.809
 3817TIP3   OH211393   2.704   0.095   6.481
 3817TIP3    H111394   2.793   0.060   6.482
 3817TIP3    H211395   2.713   0.185   6.513
 3818TIP3   OH211396   0.239   4.321   0.917
 3818TIP3    H111397   0.277   4.311   1.004
 3818TIP3    H211398   0.295   4.268   0.860
 3819TIP3   OH211399   6.601   1.015   3.593
 3819TIP3    H111400   6.513   1.008   3.628
 3819TIP3    H211401   6.614   1.109   3.578
 3820TIP3   OH211402   0.111   7.501   4.394
 3820TIP3    H111403   0.117   7.468   4.304
 3820TIP3    H211404   0.177   7.569   4.399
 3821TIP3   OH211405   3.965   5.424   2.475
 3821TIP3    H111406   4.048   5.378   2.460
 3821TIP3    H211407   3.983   5.479   2.551
 3822TIP3   OH211408   5.816   3.154   3.387
 3822TIP3    H111409   5.807   3.059   3.393
 3822TIP3    H211410   5.729   3.185   3.361
 3823TIP3   OH211411   3.472   1.507   4.843
 3823TIP3    H111412   3.456   1.549   4.759
 3823TIP3    H211413   3.431   1.421   4.835
 3824TIP3   OH211414   1.009   3.173   5.071
 3824TIP3    H111415   0.967   3.185   4.986
 3824TIP3    H211416   0.947   3.121   5.122
 3825TIP3   OH211417   7.459   6.157   6.555
 3825TIP3    H111418   7.536   6.204   6.523
 3825TIP3    H211419   7.485   6.065   6.555
 3826TIP3   OH211420   3.918   1.738   1.187
 3826TIP3    H111421   3.960   1.787   1.116
 3826TIP3    H211422   3.903   1.651   1.150
 3827TIP3   OH211423   4.273   7.407   4.777
 3827TIP3    H111424   4.340   7.454   4.826
 3827TIP3    H211425   4.319   7.331   4.741
 3828TIP3   OH211426   7.569   4.444   6.616
 3828TIP3    H111427   7.656   4.412   6.592
 3828TIP3    H211428   7.532   4.374   6.670
 3829TIP3   OH211429   4.683   0.857   5.335
 3829TIP3    H111430   4.755   0.849   5.271
 3829TIP3    H211431   4.727   0.859   5.420
 3830TIP3   OH211432   3.853   5.269   1.207
 3830TIP3    H111433   3.892   5.229   1.285
 3830TIP3    H211434   3.900   5.229   1.134
 3831TIP3   OH211435   2.480   5.001   0.021
 3831TIP3    H111436   2.564   5.034   0.053
 3831TIP3    H211437   2.439   4.960   0.097
 3832TIP3   OH211438   7.062   3.752   2.112
 3832TIP3    H111439   7.152   3.743   2.082
 3832TIP3    H211440   7.067   3.746   2.208
 3833TIP3   OH211441   4.453   5.217   3.457
 3833TIP3    H111442   4.379   5.188   3.511
 3833TIP3    H211443   4.527   5.221   3.519
 3834TIP3   OH211444   7.657   7.802   2.547
 3834TIP3    H111445   7.739   7.851   2.544
 3834TIP3    H211446   7.592   7.865   2.579
 3835TIP3   OH211447   5.784   1.755   6.058
 3835TIP3    H111448   5.866   1.710   6.039
 3835TIP3    H211449   5.743   1.766   5.972
 3836TIP3   OH211450   2.690   0.376   1.963
 3836TIP3    H111451   2.629   0.450   1.956
 3836TIP3    H211452   2.773   0.416   1.990
 3837TIP3   OH211453   2.837   6.413   0.075
 3837TIP3    H111454   2.803   6.482   0.017
 3837TIP3    H211455   2.890   6.357   0.018
 3838TIP3   OH211456   2.273   3.778   1.500
 3838TIP3    H111457   2.231   3.693   1.482
 3838TIP3    H211458   2.364   3.765   1.473
 3839TIP3   OH211459   3.605   4.529   0.915
 3839TIP3    H111460   3.548   4.536   0.992
 3839TIP3    H211461   3.666   4.459   0.937
 3840TIP3   OH211462   4.494   3.680   0.130
 3840TIP3    H111463   4.504   3.763   0.177
 3840TIP3    H211464   4.423   3.696   0.068
 3841TIP3   OH211465   6.244   3.273   5.380
 3841TIP3    H111466   6.291   3.297   5.459
 3841TIP3    H211467   6.308   3.284   5.310
 3842TIP3   OH211468   0.030   1.433   0.775
 3842TIP3    H111469   0.033   1.407   0.683
 3842TIP3    H211470   0.023   1.528   0.773
 3843TIP3   OH211471   3.914   4.505   2.729
 3843TIP3    H111472   3.852   4.444   2.769
 3843TIP3    H211473   3.862   4.553   2.664
 3844TIP3   OH211474   6.865   4.002   0.005
 3844TIP3    H111475   6.917   3.946  -0.052
 3844TIP3    H211476   6.922   4.077   0.024
 3845TIP3   OH211477   2.324   5.733   1.708
 3845TIP3    H111478   2.244   5.681   1.716
 3845TIP3    H211479   2.364   5.702   1.626
 3846TIP3   OH211480   3.732   6.361   3.074
 3846TIP3    H111481   3.706   6.279   3.032
 3846TIP3    H211482   3.823   6.374   3.047
 3847TIP3   OH211483   1.454   2.780   5.909
 3847TIP3    H111484   1.475   2.782   5.816
 3847TIP3    H211485   1.463   2.871   5.938
 3848TIP3   OH211486   1.617   6.967   4.636
 3848TIP3    H111487   1.578   7.015   4.563
 3848TIP3    H211488   1.711   6.968   4.618
 3849TIP3   OH211489   6.097   4.373   0.493
 3849TIP3    H111490   6.142   4.330   0.565
 3849TIP3    H211491   6.088   4.305   0.426
 3850TIP3   OH211492   3.369   5.196   1.066
 3850TIP3    H111493   3.365   5.133   1.139
 3850TIP3    H211494   3.312   5.268   1.094
 3851TIP3   OH211495   0.626   4.259   4.802
 3851TIP3    H111496   0.704   4.260   4.746
 3851TIP3    H211497   0.659   4.233   4.888
 3852TIP3   OH211498   6.000   3.353   2.113
 3852TIP3    H111499   5.992   3.296   2.189
 3852TIP3    H211500   5.958   3.306   2.041
 3853TIP3   OH211501   1.836   2.984   1.560
 3853TIP3    H111502   1.779   3.021   1.493
 3853TIP3    H211503   1.784   2.913   1.599
 3854TIP3   OH211504   0.751   2.049   4.936
 3854TIP3    H111505   0.711   2.017   4.855
 3854TIP3    H211506   0.806   2.122   4.908
 3855TIP3   OH211507   0.689   3.617   5.778
 3855TIP3    H111508   0.709   3.691   5.721
 3855TIP3    H211509   0.685   3.655   5.866
 3856TIP3   OH211510   2.925   5.294   6.002
 3856TIP3    H111511   2.884   5.375   5.971
 3856TIP3    H211512   2.890   5.281   6.090
 3857TIP3   OH211513   3.891   3.462   1.313
 3857TIP3    H111514   3.829   3.391   1.300
 3857TIP3    H211515   3.903   3.500   1.226
 3858TIP3   OH211516   5.612   5.914   3.262
 3858TIP3    H111517   5.582   6.003   3.284
 3858TIP3    H211518   5.665   5.887   3.337
 3859TIP3   OH211519   0.979   2.565   4.603
 3859TIP3    H111520   0.973   2.501   4.531
 3859TIP3    H211521   1.072   2.588   4.606
 3860TIP3   OH211522   8.161   2.489   4.153
 3860TIP3    H111523   8.181   2.468   4.062
 3860TIP3    H211524   8.235   2.543   4.181
 3861TIP3   OH211525   2.947   7.652   6.097
 3861TIP3    H111526   2.896   7.722   6.055
 3861TIP3    H211527   3.031   7.692   6.116
 3862TIP3   OH211528   1.866   4.534   3.034
 3862TIP3    H111529   1.828   4.447   3.019
 3862TIP3    H211530   1.948   4.516   3.080
 3863TIP3   OH211531   6.000   6.683   4.562
 3863TIP3    H111532   6.014   6.618   4.630
 3863TIP3    H211533   6.073   6.744   4.571
 3864TIP3   OH211534   5.781   0.299   1.508
 3864TIP3    H111535   5.696   0.329   1.539
 3864TIP3    H211536   5.826   0.378   1.479
 3865TIP3   OH211537   0.490   3.471   5.655
 3865TIP3    H111538   0.560   3.509   5.708
 3865TIP3    H211539   0.533   3.403   5.603
 3866TIP3   OH211540   3.377   3.654   2.728
 3866TIP3    H111541   3.343   3.743   2.732
 3866TIP3    H211542   3.431   3.653   2.649
 3867TIP3   OH211543   2.336   5.970   2.676
 3867TIP3    H111544   2.400   5.995   2.609
 3867TIP3    H211545   2.262   5.935   2.627
 3868TIP3   OH211546   6.587   4.272   4.981
 3868TIP3    H111547   6.639   4.204   5.025
 3868TIP3    H211548   6.572   4.237   4.894
 3869TIP3   OH211549   0.034   2.220   4.565
 3869TIP3    H111550   0.040   2.223   4.470
 3869TIP3    H211551   0.124   2.230   4.595
 3870TIP3   OH211552   5.351   2.136   1.507
 3870TIP3    H111553   5.330   2.212   1.453
 3870TIP3    H211554   5.344   2.062   1.447
 3871TIP3   OH211555   2.843   6.569   3.115
 3871TIP3    H111556   2.866   6.495   3.060
 3871TIP3    H211557   2.880   6.548   3.201
 3872TIP3   OH211558   5.714   1.979   0.435
 3872TIP3    H111559   5.760   1.909   0.482
 3872TIP3    H211560   5.622   1.966   0.456
 3873TIP3   OH211561   7.980   2.653   3.923
 3873TIP3    H111562   7.952   2.615   3.840
 3873TIP3    H211563   7.943   2.595   3.990
 3874TIP3   OH211564   3.830   5.231   2.661
 3874TIP3    H111565   3.856   5.141   2.679
 3874TIP3    H211566   3.879   5.255   2.582
 3875TIP3   OH211567   0.631   0.516   4.953
 3875TIP3    H111568   0.714   0.473   4.977
 3875TIP3    H211569   0.624   0.503   4.859
 3876TIP3   OH211570   0.630   5.849   4.600
 3876TIP3    H111571   0.552   5.902   4.579
 3876TIP3    H211572   0.696   5.914   4.625
 3877TIP3   OH211573   7.616   6.472   4.444
 3877TIP3    H111574   7.642   6.487   4.535
 3877TIP3    H211575   7.697   6.451   4.399
 3878TIP3   OH211576   3.335   0.606   2.177
 3878TIP3    H111577   3.242   0.590   2.165
 3878TIP3    H211578   3.359   0.555   2.254
 3879TIP3   OH211579   5.523   0.277   5.319
 3879TIP3    H111580   5.518   0.328   5.400
 3879TIP3    H211581   5.550   0.341   5.253
 3880TIP3   OH211582   2.566   0.147   3.756
 3880TIP3    H111583   2.589   0.229   3.713
 3880TIP3    H211584   2.600   0.079   3.696
 3881TIP3   OH211585   3.571   5.518   4.248
 3881TIP3    H111586   3.636   5.448   4.253
 3881TIP3    H211587   3.518   5.496   4.171
 3882TIP3   OH211588   2.152   4.011   4.465
 3882TIP3    H111589   2.162   3.938   4.405
 3882TIP3    H211590   2.124   4.084   4.410
 3883TIP3   OH211591   0.242   2.150   0.859
 3883TIP3    H111592   0.255   2.243   0.878
 3883TIP3    H211593   0.151   2.143   0.831
 3884TIP3   OH211594   6.027   3.323   4.468
 3884TIP3    H111595   5.977   3.279   4.538
 3884TIP3    H211596   6.066   3.399   4.511
 3885TIP3   OH211597   0.531   2.972   5.208
 3885TIP3    H111598   0.573   2.889   5.229
 3885TIP3    H211599   0.437   2.952   5.209
 3886TIP3   OH211600   3.770   6.462   5.364
 3886TIP3    H111601   3.682   6.499   5.357
 3886TIP3    H211602   3.756   6.370   5.385
 3887TIP3   OH211603   7.425   2.667   4.378
 3887TIP3    H111604   7.355   2.732   4.377
 3887TIP3    H211605   7.417   2.622   4.294
 3888TIP3   OH211606   7.393   1.604   1.585
 3888TIP3    H111607   7.377   1.543   1.513
 3888TIP3    H211608   7.434   1.550   1.653
 3889TIP3   OH211609   4.529   3.025   3.075
 3889TIP3    H111610   4.565   3.059   2.993
 3889TIP3    H211611   4.448   3.074   3.087
 3890TIP3   OH211612   0.294   3.148   0.574
 3890TIP3    H111613   0.321   3.126   0.663
 3890TIP3    H211614   0.218   3.205   0.586
 3891TIP3   OH211615   3.499   5.050   3.717
 3891TIP3    H111616   3.477   5.143   3.717
 3891TIP3    H211617   3.588   5.046   3.682
 3892TIP3   OH211618   1.153   3.619   0.662
 3892TIP3    H111619   1.128   3.660   0.745
 3892TIP3    H211620   1.071   3.613   0.613
 3893TIP3   OH211621   2.689   1.047   4.842
 3893TIP3    H111622   2.716   1.007   4.760
 3893TIP3    H211623   2.686   1.141   4.823
 3894TIP3   OH211624   6.709   1.148   6.634
 3894TIP3    H111625   6.700   1.113   6.723
 3894TIP3    H211626   6.760   1.082   6.587
 3895TIP3   OH211627   0.859   4.285   0.013
 3895TIP3    H111628   0.874   4.256   0.103
 3895TIP3    H211629   0.778   4.335   0.017
 3896TIP3   OH211630   3.354   5.734   4.375
 3896TIP3    H111631   3.272   5.782   4.386
 3896TIP3    H211632   3.376   5.745   4.283
 3897TIP3   OH211633   1.260   4.304   1.702
 3897TIP3    H111634   1.312   4.230   1.735
 3897TIP3    H211635   1.174   4.266   1.684
 3898TIP3   OH211636   1.806   6.253   1.835
 3898TIP3    H111637   1.717   6.230   1.863
 3898TIP3    H211638   1.811   6.223   1.744
 3899TIP3   OH211639   3.215   7.275   1.787
 3899TIP3    H111640   3.277   7.336   1.826
 3899TIP3    H211641   3.157   7.329   1.734
 3900TIP3   OH211642   7.551   6.716   3.122
 3900TIP3    H111643   7.481   6.704   3.057
 3900TIP3    H211644   7.543   6.807   3.150
 3901TIP3   OH211645   3.289   3.583   6.493
 3901TIP3    H111646   3.248   3.619   6.414
 3901TIP3    H211647   3.241   3.503   6.510
 3902TIP3   OH211648   3.554   7.539   3.504
 3902TIP3    H111649   3.598   7.599   3.564
 3902TIP3    H211650   3.481   7.503   3.554
 3903TIP3   OH211651   7.001   7.499   4.787
 3903TIP3    H111652   6.933   7.466   4.729
 3903TIP3    H211653   7.076   7.442   4.771
 3904TIP3   OH211654   6.486   5.087   4.557
 3904TIP3    H111655   6.490   4.992   4.552
 3904TIP3    H211656   6.403   5.105   4.601
 3905TIP3   OH211657   5.503   4.578   0.753
 3905TIP3    H111658   5.500   4.511   0.821
 3905TIP3    H211659   5.594   4.578   0.722
 3906TIP3   OH211660   0.348   3.093   0.825
 3906TIP3    H111661   0.342   3.077   0.919
 3906TIP3    H211662   0.439   3.071   0.803
 3907TIP3   OH211663   3.263   2.443   6.560
 3907TIP3    H111664   3.293   2.504   6.492
 3907TIP3    H211665   3.172   2.426   6.539
 3908TIP3   OH211666   3.342   1.128   2.803
 3908TIP3    H111667   3.305   1.182   2.733
 3908TIP3    H211668   3.427   1.168   2.822
 3909TIP3   OH211669   6.494   2.821   5.135
 3909TIP3    H111670   6.477   2.739   5.090
 3909TIP3    H211671   6.575   2.854   5.096
 3910TIP3   OH211672   4.354   6.160   6.740
 3910TIP3    H111673   4.376   6.074   6.776
 3910TIP3    H211674   4.272   6.145   6.692
 3911TIP3   OH211675   0.309   7.547   1.598
 3911TIP3    H111676   0.287   7.617   1.536
 3911TIP3    H211677   0.395   7.572   1.633
 3912TIP3   OH211678   3.699   7.471   4.143
 3912TIP3    H111679   3.728   7.383   4.166
 3912TIP3    H211680   3.626   7.489   4.203
 3913TIP3   OH211681   0.380   1.298   1.169
 3913TIP3    H111682   0.332   1.350   1.104
 3913TIP3    H211683   0.396   1.360   1.241
 3914TIP3   OH211684   6.769   6.904   1.038
 3914TIP3    H111685   6.734   6.875   1.122
 3914TIP3    H211686   6.693   6.903   0.979
 3915TIP3   OH211687   5.878   2.469   0.332
 3915TIP3    H111688   5.919   2.394   0.291
 3915TIP3    H211689   5.793   2.478   0.289
 3916TIP3   OH211690   4.115   0.211   1.850
 3916TIP3    H111691   4.052   0.237   1.918
 3916TIP3    H211692   4.191   0.181   1.899
 3917TIP3   OH211693   5.830   3.480   3.658
 3917TIP3    H111694   5.798   3.501   3.746
 3917TIP3    H211695   5.899   3.543   3.642
 3918TIP3   OH211696   5.492   7.000   6.546
 3918TIP3    H111697   5.566   6.941   6.554
 3918TIP3    H211698   5.464   7.015   6.637
 3919TIP3   OH211699   4.594   2.670   1.934
 3919TIP3    H111700   4.518   2.684   1.992
 3919TIP3    H211701   4.601   2.574   1.926
 3920TIP3   OH211702   3.765   7.810   3.002
 3920TIP3    H111703   3.850   7.787   2.965
 3920TIP3    H211704   3.706   7.741   2.971
 3921TIP3   OH211705   7.195   4.601   4.498
 3921TIP3    H111706   7.165   4.642   4.579
 3921TIP3    H211707   7.290   4.615   4.498
 3922TIP3   OH211708   0.484   0.340   4.004
 3922TIP3    H111709   0.497   0.247   3.985
 3922TIP3    H211710   0.572   0.373   4.025
 3923TIP3   OH211711   2.940   0.178   3.789
 3923TIP3    H111712   3.017   0.215   3.746
 3923TIP3    H211713   2.931   0.228   3.870
 3924TIP3   OH211714   3.904   4.648   1.380
 3924TIP3    H111715   3.810   4.641   1.398
 3924TIP3    H211716   3.938   4.560   1.392
 3925TIP3   OH211717   7.045   1.068   6.341
 3925TIP3    H111718   7.060   0.978   6.372
 3925TIP3    H211719   6.972   1.060   6.279
 3926TIP3   OH211720   6.937   1.409   0.704
 3926TIP3    H111721   6.945   1.315   0.691
 3926TIP3    H211722   6.860   1.419   0.761
 3927TIP3   OH211723   4.359   0.460   5.809
 3927TIP3    H111724   4.332   0.540   5.854
 3927TIP3    H211725   4.287   0.440   5.749
 3928TIP3   OH211726   4.820   2.142   2.750
 3928TIP3    H111727   4.760   2.093   2.694
 3928TIP3    H211728   4.795   2.234   2.736
 3929TIP3   OH211729   0.311   4.943   4.519
 3929TIP3    H111730   0.381   4.994   4.478
 3929TIP3    H211731   0.335   4.940   4.612
 3930TIP3   OH211732   0.097   4.707   5.075
 3930TIP3    H111733   0.192   4.702   5.087
 3930TIP3    H211734   0.064   4.624   5.110
 3931TIP3   OH211735   3.593   7.214   3.392
 3931TIP3    H111736   3.624   7.127   3.420
 3931TIP3    H211737   3.567   7.257   3.474
 3932TIP3   OH211738   6.705   6.717   3.961
 3932TIP3    H111739   6.760   6.660   4.015
 3932TIP3    H211740   6.768   6.770   3.911
 3933TIP3   OH211741   2.747   6.698   6.418
 3933TIP3    H111742   2.809   6.673   6.350
 3933TIP3    H211743   2.761   6.632   6.487
 3934TIP3   OH211744   6.502   6.381   5.376
 3934TIP3    H111745   6.582   6.417   5.412
 3934TIP3    H211746   6.437   6.451   5.386
 3935TIP3   OH211747   1.353   6.170   2.214
 3935TIP3    H111748   1.421   6.140   2.154
 3935TIP3    H211749   1.351   6.104   2.283
 3936TIP3   OH211750   1.165   1.806   0.760
 3936TIP3    H111751   1.177   1.797   0.855
 3936TIP3    H211752   1.087   1.861   0.751
 3937TIP3   OH211753   7.934   1.624   3.803
 3937TIP3    H111754   7.947   1.530   3.787
 3937TIP3    H211755   7.874   1.627   3.877
 3938TIP3   OH211756   4.702   0.602   5.659
 3938TIP3    H111757   4.703   0.591   5.754
 3938TIP3    H211758   4.778   0.552   5.629
 3939TIP3   OH211759   4.952   3.357   2.285
 3939TIP3    H111760   4.906   3.332   2.365
 3939TIP3    H211761   5.045   3.345   2.305
 3940TIP3   OH211762   6.166   0.331   3.886
 3940TIP3    H111763   6.192   0.301   3.798
 3940TIP3    H211764   6.097   0.395   3.870
 3941TIP3   OH211765   3.395   7.630   6.676
 3941TIP3    H111766   3.448   7.670   6.745
 3941TIP3    H211767   3.332   7.699   6.652
 3942TIP3   OH211768   2.805   3.850   6.773
 3942TIP3    H111769   2.840   3.836   6.685
 3942TIP3    H211770   2.830   3.939   6.795
 3943TIP3   OH211771   1.633   6.337   0.279
 3943TIP3    H111772   1.563   6.377   0.330
 3943TIP3    H211773   1.671   6.272   0.339
 3944TIP3   OH211774   7.774   6.131   3.082
 3944TIP3    H111775   7.761   6.099   2.992
 3944TIP3    H211776   7.746   6.058   3.137
 3945TIP3   OH211777   5.008   4.665   0.328
 3945TIP3    H111778   5.098   4.633   0.319
 3945TIP3    H211779   4.992   4.715   0.248
 3946TIP3   OH211780   2.777   1.778   4.923
 3946TIP3    H111781   2.846   1.721   4.888
 3946TIP3    H211782   2.798   1.865   4.889
 3947TIP3   OH211783   1.150   1.792   1.666
 3947TIP3    H111784   1.181   1.883   1.671
 3947TIP3    H211785   1.077   1.789   1.727
 3948TIP3   OH211786   3.132   0.872   4.915
 3948TIP3    H111787   3.195   0.874   4.987
 3948TIP3    H211788   3.153   0.950   4.864
 3949TIP3   OH211789   8.164   4.427   2.926
 3949TIP3    H111790   8.147   4.333   2.928
 3949TIP3    H211791   8.193   4.445   2.837
 3950TIP3   OH211792   4.502   6.637   0.955
 3950TIP3    H111793   4.567   6.672   1.016
 3950TIP3    H211794   4.488   6.547   0.984
 3951TIP3   OH211795   8.203   4.535   0.437
 3951TIP3    H111796   8.118   4.556   0.476
 3951TIP3    H211797   8.259   4.513   0.511
 3952TIP3   OH211798   7.396   3.815   2.676
 3952TIP3    H111799   7.317   3.866   2.689
 3952TIP3    H211800   7.450   3.868   2.618
 3953TIP3   OH211801   0.491   1.657   1.547
 3953TIP3    H111802   0.431   1.711   1.599
 3953TIP3    H211803   0.570   1.650   1.601
 3954TIP3   OH211804   8.204   4.800   2.813
 3954TIP3    H111805   8.207   4.707   2.792
 3954TIP3    H211806   8.142   4.837   2.751
 3955TIP3   OH211807   3.949   5.705   0.310
 3955TIP3    H111808   3.951   5.670   0.399
 3955TIP3    H211809   4.021   5.660   0.266
 3956TIP3   OH211810   2.655   7.557   2.501
 3956TIP3    H111811   2.594   7.495   2.539
 3956TIP3    H211812   2.724   7.566   2.567
 3957TIP3   OH211813   1.145   1.601   2.894
 3957TIP3    H111814   1.240   1.593   2.886
 3957TIP3    H211815   1.128   1.695   2.890
 3958TIP3   OH211816   2.458   6.226   5.342
 3958TIP3    H111817   2.538   6.222   5.395
 3958TIP3    H211818   2.475   6.296   5.279
 3959TIP3   OH211819   2.857   0.455   5.228
 3959TIP3    H111820   2.830   0.385   5.169
 3959TIP3    H211821   2.788   0.521   5.219
 3960TIP3   OH211822   6.015   4.993   5.852
 3960TIP3    H111823   6.033   5.047   5.775
 3960TIP3    H211824   5.956   5.046   5.906
 3961TIP3   OH211825   4.312   4.805   5.854
 3961TIP3    H111826   4.231   4.856   5.858
 3961TIP3    H211827   4.328   4.779   5.945
 3962TIP3   OH211828   3.444   2.301   6.421
 3962TIP3    H111829   3.423   2.329   6.510
 3962TIP3    H211830   3.489   2.218   6.432
 3963TIP3   OH211831   5.777   6.490   0.450
 3963TIP3    H111832   5.712   6.491   0.521
 3963TIP3    H211833   5.857   6.457   0.492
 3964TIP3   OH211834   0.830   4.356   2.546
 3964TIP3    H111835   0.822   4.398   2.461
 3964TIP3    H211836   0.745   4.372   2.589
 3965TIP3   OH211837   1.671   0.321   3.034
 3965TIP3    H111838   1.732   0.250   3.014
 3965TIP3    H211839   1.705   0.396   2.984
 3966TIP3   OH211840   5.886   7.575   1.640
 3966TIP3    H111841   5.938   7.596   1.718
 3966TIP3    H211842   5.922   7.630   1.571
 3967TIP3   OH211843   0.529   2.206   3.269
 3967TIP3    H111844   0.465   2.272   3.296
 3967TIP3    H211845   0.533   2.145   3.343
 3968TIP3   OH211846   7.208   3.229   3.891
 3968TIP3    H111847   7.147   3.231   3.964
 3968TIP3    H211848   7.287   3.188   3.926
 3969TIP3   OH211849   0.238   0.607   0.378
 3969TIP3    H111850   0.315   0.577   0.427
 3969TIP3    H211851   0.244   0.702   0.380
 3970TIP3   OH211852   7.540   5.303   2.631
 3970TIP3    H111853   7.616   5.248   2.611
 3970TIP3    H211854   7.527   5.292   2.726
 3971TIP3   OH211855   6.219   4.871   5.519
 3971TIP3    H111856   6.180   4.947   5.562
 3971TIP3    H211857   6.292   4.846   5.576
 3972TIP3   OH211858   6.035   5.077   5.586
 3972TIP3    H111859   6.042   5.115   5.499
 3972TIP3    H211860   5.941   5.069   5.602
 3973TIP3   OH211861   5.269   1.582   3.182
 3973TIP3    H111862   5.259   1.559   3.274
 3973TIP3    H211863   5.278   1.498   3.137
 3974TIP3   OH211864   7.173   6.119   3.143
 3974TIP3    H111865   7.263   6.141   3.123
 3974TIP3    H211866   7.133   6.100   3.058
 3975TIP3   OH211867   1.391   2.631   2.455
 3975TIP3    H111868   1.382   2.726   2.455
 3975TIP3    H211869   1.482   2.616   2.431
 3976TIP3   OH211870   6.226   4.243   2.157
 3976TIP3    H111871   6.261   4.202   2.237
 3976TIP3    H211872   6.132   4.225   2.160
 3977TIP3   OH211873   7.606   4.437  -0.005
 3977TIP3    H111874   7.695   4.473  -0.006
 3977TIP3    H211875   7.557   4.494   0.054
 3978TIP3   OH211876   1.042   6.954   5.293
 3978TIP3    H111877   1.109   6.983   5.354
 3978TIP3    H211878   1.004   6.876   5.334
 3979TIP3   OH211879   8.155   1.198   4.410
 3979TIP3    H111880   8.201   1.281   4.402
 3979TIP3    H211881   8.221   1.137   4.444
 3980TIP3   OH211882   5.196   3.749   6.406
 3980TIP3    H111883   5.183   3.844   6.413
 3980TIP3    H211884   5.135   3.712   6.470
 3981TIP3   OH211885   0.321   1.418   4.018
 3981TIP3    H111886   0.276   1.473   4.081
 3981TIP3    H211887   0.359   1.347   4.072
 3982TIP3   OH211888   1.622   5.654   6.392
 3982TIP3    H111889   1.609   5.708   6.314
 3982TIP3    H211890   1.591   5.567   6.366
 3983TIP3   OH211891   1.720   0.486   6.204
 3983TIP3    H111892   1.699   0.525   6.119
 3983TIP3    H211893   1.767   0.555   6.250
 3984TIP3   OH211894   3.254   5.426   0.919
 3984TIP3    H111895   3.216   5.511   0.945
 3984TIP3    H211896   3.315   5.447   0.849
 3985TIP3   OH211897   5.417   5.056   4.634
 3985TIP3    H111898   5.434   5.104   4.552
 3985TIP3    H211899   5.482   5.090   4.695
 3986TIP3   OH211900   2.132   3.213   2.454
 3986TIP3    H111901   2.199   3.164   2.407
 3986TIP3    H211902   2.090   3.267   2.386
 3987TIP3   OH211903   7.855   4.097   5.865
 3987TIP3    H111904   7.796   4.169   5.843
 3987TIP3    H211905   7.940   4.124   5.829
 3988TIP3   OH211906   0.107   3.796   3.751
 3988TIP3    H111907   0.193   3.758   3.769
 3988TIP3    H211908   0.122   3.890   3.750
 3989TIP3   OH211909   1.920   5.649   0.119
 3989TIP3    H111910   1.962   5.678   0.201
 3989TIP3    H211911   1.929   5.724   0.060
 3990TIP3   OH211912   6.059   7.617   6.360
 3990TIP3    H111913   5.976   7.626   6.406
 3990TIP3    H211914   6.123   7.597   6.428
 3991TIP3   OH211915   7.876   0.135   6.287
 3991TIP3    H111916   7.788   0.142   6.250
 3991TIP3    H211917   7.932   0.112   6.213
 3992TIP3   OH211918   6.972   4.448   5.726
 3992TIP3    H111919   6.960   4.533   5.683
 3992TIP3    H211920   7.005   4.391   5.657
 3993TIP3   OH211921   2.406   0.451   0.970
 3993TIP3    H111922   2.439   0.404   1.046
 3993TIP3    H211923   2.430   0.396   0.896
 3994TIP3   OH211924   0.749   3.527   5.455
 3994TIP3    H111925   0.678   3.582   5.489
 3994TIP3    H211926   0.752   3.547   5.362
 3995TIP3   OH211927   1.950   3.768   3.009
 3995TIP3    H111928   2.013   3.748   3.079
 3995TIP3    H211929   1.921   3.682   2.977
 3996TIP3   OH211930   3.001   4.520   0.938
 3996TIP3    H111931   3.008   4.478   0.852
 3996TIP3    H211932   3.044   4.459   0.998
 3997TIP3   OH211933   2.983   3.472   0.712
 3997TIP3    H111934   3.028   3.389   0.695
 3997TIP3    H211935   2.891   3.454   0.692
 3998TIP3   OH211936   7.254   7.804   0.710
 3998TIP3    H111937   7.180   7.777   0.765
 3998TIP3    H211938   7.303   7.865   0.766
 3999TIP3   OH211939   6.773   7.401   0.275
 3999TIP3    H111940   6.733   7.475   0.230
 3999TIP3    H211941   6.866   7.423   0.279
 4000TIP3   OH211942   2.456   7.394   5.493
 4000TIP3    H111943   2.468   7.471   5.438
 4000TIP3    H211944   2.516   7.329   5.457
 4001TIP3   OH211945   0.940   4.519   5.355
 4001TIP3    H111946   0.915   4.463   5.281
 4001TIP3    H211947   1.002   4.581   5.317
 4002TIP3   OH211948   5.262   0.109   0.537
 4002TIP3    H111949   5.358   0.115   0.530
 4002TIP3    H211950   5.245   0.106   0.631
 4003TIP3   OH211951   3.401   2.901   5.348
 4003TIP3    H111952   3.374   2.865   5.432
 4003TIP3    H211953   3.439   2.986   5.370
 4004TIP3   OH211954   6.983   4.390   4.351
 4004TIP3    H111955   7.060   4.448   4.359
 4004TIP3    H211956   6.914   4.447   4.319
 4005TIP3   OH211957   6.236   5.754   3.294
 4005TIP3    H111958   6.264   5.785   3.208
 4005TIP3    H211959   6.294   5.680   3.313
 4006TIP3   OH211960   1.605   3.844   2.530
 4006TIP3    H111961   1.518   3.810   2.510
 4006TIP3    H211962   1.589   3.932   2.564
 4007TIP3   OH211963   7.976   2.216   5.713
 4007TIP3    H111964   7.974   2.187   5.804
 4007TIP3    H211965   8.062   2.257   5.704
 4008TIP3   OH211966   4.156   2.225   1.569
 4008TIP3    H111967   4.214   2.190   1.502
 4008TIP3    H211968   4.214   2.242   1.644
 4009TIP3   OH211969   5.945   1.118   0.257
 4009TIP3    H111970   6.037   1.111   0.280
 4009TIP3    H211971   5.936   1.205   0.218
 4010TIP3   OH211972   3.633   6.388   4.077
 4010TIP3    H111973   3.621   6.458   4.013
 4010TIP3    H211974   3.643   6.433   4.161
 4011TIP3   OH211975   0.786   1.839   1.564
 4011TIP3    H111976   0.818   1.784   1.492
 4011TIP3    H211977   0.745   1.777   1.624
 4012TIP3   OH211978   3.172   0.053   4.690
 4012TIP3    H111979   3.183   0.015   4.604
 4012TIP3    H211980   3.224   0.133   4.688
 4013TIP3   OH211981   5.249   0.406   1.806
 4013TIP3    H111982   5.327   0.389   1.858
 4013TIP3    H211983   5.228   0.321   1.766
 4014TIP3   OH211984   1.201   0.342   0.675
 4014TIP3    H111985   1.135   0.368   0.610
 4014TIP3    H211986   1.172   0.255   0.704
 4015TIP3   OH211987   0.496   4.302   6.431
 4015TIP3    H111988   0.518   4.393   6.450
 4015TIP3    H211989   0.436   4.277   6.502
 4016TIP3   OH211990   7.602   2.907   1.096
 4016TIP3    H111991   7.541   2.834   1.087
 4016TIP3    H211992   7.603   2.927   1.189
 4017TIP3   OH211993   8.101   4.154   2.290
 4017TIP3    H111994   8.026   4.168   2.348
 4017TIP3    H211995   8.166   4.218   2.318
 4018TIP3   OH211996   1.680   3.493   0.064
 4018TIP3    H111997   1.696   3.505   0.158
 4018TIP3    H211998   1.593   3.454   0.060
 4019TIP3   OH211999   3.240   6.897   5.842
 4019TIP3    H112000   3.330   6.866   5.831
 4019TIP3    H212001   3.192   6.820   5.873
 4020TIP3   OH212002   0.834   2.863   3.130
 4020TIP3    H112003   0.812   2.793   3.069
 4020TIP3    H212004   0.814   2.943   3.082
 4021TIP3   OH212005   3.368   0.940   4.609
 4021TIP3    H112006   3.422   0.964   4.684
 4021TIP3    H212007   3.426   0.888   4.553
 4022TIP3   OH212008   7.899   4.826   2.346
 4022TIP3    H112009   7.833   4.872   2.398
 4022TIP3    H212010   7.970   4.889   2.335
 4023TIP3   OH212011   6.566   7.489   5.306
 4023TIP3    H112012   6.587   7.471   5.398
 4023TIP3    H212013   6.501   7.558   5.309
 4024TIP3   OH212014   6.989   5.495   5.163
 4024TIP3    H112015   7.043   5.551   5.107
 4024TIP3    H212016   6.975   5.547   5.242
 4025TIP3   OH212017   3.174   5.238   5.060
 4025TIP3    H112018   3.089   5.262   5.023
 4025TIP3    H212019   3.235   5.304   5.027
 4026TIP3   OH212020   6.106   7.253   3.499
 4026TIP3    H112021   6.179   7.288   3.551
 4026TIP3    H212022   6.028   7.273   3.550
 4027TIP3   OH212023   1.157   5.363   6.017
 4027TIP3    H112024   1.128   5.411   5.939
 4027TIP3    H212025   1.132   5.272   5.999
 4028TIP3   OH212026   2.739   5.420   1.392
 4028TIP3    H112027   2.734   5.515   1.382
 4028TIP3    H212028   2.828   5.404   1.424
 4029TIP3   OH212029   4.340   6.296   3.915
 4029TIP3    H112030   4.245   6.299   3.925
 4029TIP3    H212031   4.367   6.388   3.916
 4030TIP3   OH212032   7.924   3.498   0.231
 4030TIP3    H112033   8.015   3.471   0.235
 4030TIP3    H212034   7.875   3.417   0.219
 4031TIP3   OH212035   7.953   6.015   0.284
 4031TIP3    H112036   7.899   5.943   0.316
 4031TIP3    H212037   7.932   6.089   0.341
 4032TIP3   OH212038   0.174   5.558   3.876
 4032TIP3    H112039   0.112   5.530   3.809
 4032TIP3    H212040   0.124   5.620   3.930
 4033TIP3   OH212041   3.455   1.009   0.737
 4033TIP3    H112042   3.378   1.066   0.745
 4033TIP3    H212043   3.488   1.025   0.649
 4034TIP3   OH212044   5.003   0.425   6.302
 4034TIP3    H112045   4.990   0.426   6.207
 4034TIP3    H212046   5.040   0.339   6.319
 4035TIP3   OH212047   1.154   4.699   1.012
 4035TIP3    H112048   1.136   4.612   1.049
 4035TIP3    H212049   1.075   4.721   0.963
 4036TIP3   OH212050   7.262   3.863   5.662
 4036TIP3    H112051   7.354   3.839   5.662
 4036TIP3    H212052   7.243   3.884   5.570
 4037TIP3   OH212053   6.239   6.820   4.611
 4037TIP3    H112054   6.291   6.899   4.627
 4037TIP3    H212055   6.243   6.807   4.516
 4038TIP3   OH212056   4.231   5.441   5.226
 4038TIP3    H112057   4.296   5.507   5.249
 4038TIP3    H212058   4.281   5.373   5.181
 4039TIP3   OH212059   7.678   0.593   6.031
 4039TIP3    H112060   7.624   0.671   6.019
 4039TIP3    H212061   7.766   0.628   6.045
 4040TIP3   OH212062   1.316   4.619   2.384
 4040TIP3    H112063   1.238   4.601   2.436
 4040TIP3    H212064   1.294   4.590   2.296
 4041TIP3   OH212065   7.501   4.937   5.837
 4041TIP3    H112066   7.480   4.864   5.779
 4041TIP3    H212067   7.585   4.969   5.806
 4042TIP3   OH212068   7.866   5.389   2.020
 4042TIP3    H112069   7.878   5.402   1.926
 4042TIP3    H212070   7.814   5.464   2.048
 4043TIP3   OH212071   4.787   6.557   4.647
 4043TIP3    H112072   4.852   6.510   4.698
 4043TIP3    H212073   4.717   6.494   4.633
 4044TIP3   OH212074   2.335   1.835   5.080
 4044TIP3    H112075   2.399   1.843   5.151
 4044TIP3    H212076   2.295   1.749   5.094
 4045TIP3   OH212077   5.983   5.927   2.134
 4045TIP3    H112078   5.960   5.835   2.149
 4045TIP3    H212079   6.037   5.925   2.054
 4046TIP3   OH212080   3.008   7.078   1.801
 4046TIP3    H112081   2.946   7.151   1.805
 4046TIP3    H212082   3.094   7.120   1.801
 4047TIP3   OH212083   1.229   4.608   3.432
 4047TIP3    H112084   1.302   4.667   3.451
 4047TIP3    H212085   1.212   4.621   3.339
 4048TIP3   OH212086   2.594   7.614   0.095
 4048TIP3    H112087   2.562   7.559   0.166
 4048TIP3    H212088   2.593   7.703   0.131
 4049TIP3   OH212089   8.069   2.980   2.963
 4049TIP3    H112090   8.024   3.065   2.963
 4049TIP3    H212091   8.080   2.958   2.871
 4050TIP3   OH212092   2.681   3.064   4.436
 4050TIP3    H112093   2.593   3.078   4.401
 4050TIP3    H212094   2.678   2.977   4.474
 4051TIP3   OH212095   2.988   3.504   0.110
 4051TIP3    H112096   3.062   3.532   0.057
 4051TIP3    H212097   2.952   3.428   0.063
 4052TIP3   OH212098   8.003   4.347   1.855
 4052TIP3    H112099   7.946   4.327   1.782
 4052TIP3    H212100   8.064   4.274   1.859
 4053TIP3   OH212101   5.827   6.384   1.796
 4053TIP3    H112102   5.750   6.435   1.770
 4053TIP3    H212103   5.887   6.450   1.832
 4054TIP3   OH212104   5.455   2.648   6.017
 4054TIP3    H112105   5.432   2.636   6.109
 4054TIP3    H212106   5.447   2.742   6.001
 4055TIP3   OH212107   6.297   1.848   0.226
 4055TIP3    H112108   6.349   1.768   0.221
 4055TIP3    H212109   6.285   1.863   0.319
 4056TIP3   OH212110   3.605   3.408   4.659
 4056TIP3    H112111   3.648   3.353   4.724
 4056TIP3    H212112   3.552   3.348   4.607
 4057TIP3   OH212113   4.430   5.012   6.561
 4057TIP3    H112114   4.400   4.989   6.474
 4057TIP3    H212115   4.429   5.108   6.562
 4058TIP3   OH212116   2.837   0.401   1.452
 4058TIP3    H112117   2.872   0.340   1.387
 4058TIP3    H212118   2.855   0.488   1.416
 4059TIP3   OH212119   4.055   4.576   4.301
 4059TIP3    H112120   3.975   4.614   4.336
 4059TIP3    H212121   4.025   4.503   4.246
 4060TIP3   OH212122   3.536   3.553   2.928
 4060TIP3    H112123   3.505   3.593   2.848
 4060TIP3    H212124   3.506   3.611   2.998
 4061TIP3   OH212125   3.065   1.135   3.957
 4061TIP3    H112126   3.077   1.228   3.935
 4061TIP3    H212127   2.982   1.112   3.916
 4062TIP3   OH212128   4.054   4.566   4.700
 4062TIP3    H112129   4.008   4.623   4.761
 4062TIP3    H212130   4.147   4.580   4.719
 4063TIP3   OH212131   4.152   6.068   5.751
 4063TIP3    H112132   4.222   6.133   5.758
 4063TIP3    H212133   4.117   6.062   5.840
 4064TIP3   OH212134   6.887   5.709   6.298
 4064TIP3    H112135   6.853   5.792   6.332
 4064TIP3    H212136   6.926   5.666   6.374
 4065TIP3   OH212137   1.140   3.183   2.315
 4065TIP3    H112138   1.058   3.217   2.279
 4065TIP3    H212139   1.186   3.149   2.238
 4066TIP3   OH212140   4.321   2.002   1.790
 4066TIP3    H112141   4.227   2.008   1.808
 4066TIP3    H212142   4.347   2.092   1.768
 4067TIP3   OH212143   7.648   2.938   6.548
 4067TIP3    H112144   7.582   2.954   6.480
 4067TIP3    H212145   7.613   2.864   6.598
 4068TIP3   OH212146   4.861   6.534   5.823
 4068TIP3    H112147   4.852   6.554   5.730
 4068TIP3    H212148   4.800   6.593   5.866
 4069TIP3   OH212149   1.949   0.863   1.912
 4069TIP3    H112150   1.924   0.916   1.988
 4069TIP3    H212151   2.004   0.794   1.948
 4070TIP3   OH212152   0.443   4.775   3.115
 4070TIP3    H112153   0.507   4.736   3.175
 4070TIP3    H212154   0.358   4.750   3.152
 4071TIP3   OH212155   0.932   5.244   0.399
 4071TIP3    H112156   1.026   5.234   0.379
 4071TIP3    H212157   0.890   5.174   0.349
 4072TIP3   OH212158   7.514   1.888   3.092
 4072TIP3    H112159   7.492   1.847   3.175
 4072TIP3    H212160   7.494   1.981   3.104
 4073TIP3   OH212161   3.641   5.624   4.797
 4073TIP3    H112162   3.611   5.589   4.714
 4073TIP3    H212163   3.590   5.704   4.809
 4074TIP3   OH212164   1.405   5.675   2.341
 4074TIP3    H112165   1.366   5.656   2.256
 4074TIP3    H212166   1.385   5.598   2.395
 4075TIP3   OH212167   3.726   6.782   5.411
 4075TIP3    H112168   3.675   6.731   5.349
 4075TIP3    H212169   3.675   6.861   5.425
 4076TIP3   OH212170   4.862   2.235   5.038
 4076TIP3    H112171   4.903   2.151   5.063
 4076TIP3    H212172   4.928   2.301   5.061
 4077TIP3   OH212173   1.117   7.572   5.841
 4077TIP3    H112174   1.043   7.547   5.895
 4077TIP3    H212175   1.159   7.643   5.889
 4078TIP3   OH212176   3.615   0.314   1.602
 4078TIP3    H112177   3.536   0.347   1.559
 4078TIP3    H212178   3.616   0.358   1.687
 4079TIP3   OH212179   3.922   6.284   2.454
 4079TIP3    H112180   3.841   6.296   2.503
 4079TIP3    H212181   3.987   6.263   2.521
 4080TIP3   OH212182   0.765   5.289   2.264
 4080TIP3    H112183   0.764   5.333   2.179
 4080TIP3    H212184   0.858   5.286   2.289
 4081TIP3   OH212185   7.404   1.024   0.448
 4081TIP3    H112186   7.425   0.932   0.460
 4081TIP3    H212187   7.458   1.070   0.512
 4082TIP3   OH212188   1.976   4.011   3.258
 4082TIP3    H112189   1.912   3.994   3.327
 4082TIP3    H212190   2.021   4.090   3.286
 4083TIP3   OH212191   6.553   3.689   6.667
 4083TIP3    H112192   6.614   3.637   6.614
 4083TIP3    H212193   6.482   3.628   6.688
 4084TIP3   OH212194   0.275   1.741   1.175
 4084TIP3    H112195   0.287   1.826   1.133
 4084TIP3    H212196   0.364   1.710   1.191
 4085TIP3   OH212197   1.362   4.093   6.185
 4085TIP3    H112198   1.454   4.068   6.175
 4085TIP3    H212199   1.363   4.161   6.252
 4086TIP3   OH212200   5.821   0.160   2.657
 4086TIP3    H112201   5.813   0.214   2.578
 4086TIP3    H212202   5.745   0.185   2.711
 4087TIP3   OH212203   3.112   1.159   4.487
 4087TIP3    H112204   3.152   1.128   4.406
 4087TIP3    H212205   3.111   1.254   4.479
 4088TIP3   OH212206   7.854   2.957   1.040
 4088TIP3    H112207   7.871   3.048   1.066
 4088TIP3    H212208   7.773   2.934   1.087
 4089TIP3   OH212209   2.483   1.720   1.308
 4089TIP3    H112210   2.490   1.634   1.351
 4089TIP3    H212211   2.390   1.740   1.310
 4090TIP3   OH212212   0.311   3.524   5.042
 4090TIP3    H112213   0.262   3.605   5.050
 4090TIP3    H212214   0.391   3.538   5.091
 4091TIP3   OH212215   2.197   1.814   4.175
 4091TIP3    H112216   2.290   1.834   4.174
 4091TIP3    H212217   2.182   1.773   4.260
 4092TIP3   OH212218   4.897   1.429   2.919
 4092TIP3    H112219   4.812   1.468   2.936
 4092TIP3    H212220   4.879   1.337   2.903
 4093TIP3   OH212221   4.217   0.369   2.209
 4093TIP3    H112222   4.222   0.315   2.288
 4093TIP3    H212223   4.206   0.458   2.243
 4094TIP3   OH212224   4.555   1.859   3.603
 4094TIP3    H112225   4.558   1.780   3.656
 4094TIP3    H212226   4.589   1.928   3.661
 4095TIP3   OH212227   0.430   6.889   6.228
 4095TIP3    H112228   0.491   6.818   6.211
 4095TIP3    H212229   0.431   6.898   6.324
 4096TIP3   OH212230   3.035   6.842   0.603
 4096TIP3    H112231   3.054   6.840   0.509
 4096TIP3    H212232   2.955   6.789   0.612
 4097TIP3   OH212233   6.576   3.208   5.630
 4097TIP3    H112234   6.501   3.262   5.653
 4097TIP3    H212235   6.603   3.168   5.712
 4098TIP3   OH212236   6.648   4.560   1.743
 4098TIP3    H112237   6.641   4.632   1.681
 4098TIP3    H212238   6.740   4.558   1.768
 4099TIP3   OH212239   7.120   3.453   3.767
 4099TIP3    H112240   7.202   3.503   3.761
 4099TIP3    H212241   7.144   3.375   3.817
 4100TIP3   OH212242   4.818   2.463   6.751
 4100TIP3    H112243   4.906   2.456   6.786
 4100TIP3    H212244   4.787   2.372   6.745
 4101TIP3   OH212245   6.574   7.077   4.910
 4101TIP3    H112246   6.653   7.025   4.893
 4101TIP3    H212247   6.576   7.145   4.842
 4102TIP3   OH212248   2.630   5.480   3.579
 4102TIP3    H112249   2.590   5.547   3.634
 4102TIP3    H212250   2.721   5.508   3.570
 4103TIP3   OH212251   3.592   4.147   3.248
 4103TIP3    H112252   3.547   4.152   3.164
 4103TIP3    H212253   3.527   4.108   3.307
 4104TIP3   OH212254   5.401   3.405   2.781
 4104TIP3    H112255   5.311   3.372   2.782
 4104TIP3    H212256   5.455   3.328   2.795
 4105TIP3   OH212257   5.668   5.884   6.142
 4105TIP3    H112258   5.648   5.834   6.063
 4105TIP3    H212259   5.708   5.965   6.110
 4106TIP3   OH212260   1.004   6.940   2.717
 4106TIP3    H112261   1.032   6.893   2.796
 4106TIP3    H212262   0.931   6.889   2.683
 4107TIP3   OH212263   5.042   3.762   2.858
 4107TIP3    H112264   5.128   3.800   2.837
 4107TIP3    H212265   5.039   3.762   2.953
 4108TIP3   OH212266   7.344   2.322   2.778
 4108TIP3    H112267   7.278   2.390   2.791
 4108TIP3    H212268   7.423   2.370   2.753
 4109TIP3   OH212269   7.753   2.987   2.861
 4109TIP3    H112270   7.720   2.920   2.802
 4109TIP3    H212271   7.682   3.001   2.924
 4110TIP3   OH212272   7.503   5.195   6.203
 4110TIP3    H112273   7.567   5.213   6.272
 4110TIP3    H212274   7.452   5.275   6.196
 4111TIP3   OH212275   1.966   2.728   2.995
 4111TIP3    H112276   2.054   2.764   2.993
 4111TIP3    H212277   1.969   2.660   3.062
 4112TIP3   OH212278   3.803   4.683   4.392
 4112TIP3    H112279   3.856   4.750   4.436
 4112TIP3    H212280   3.746   4.648   4.461
 4113TIP3   OH212281   0.577   5.139   1.252
 4113TIP3    H112282   0.547   5.180   1.171
 4113TIP3    H212283   0.608   5.212   1.305
 4114TIP3   OH212284   7.324   0.514   6.231
 4114TIP3    H112285   7.320   0.438   6.173
 4114TIP3    H212286   7.416   0.520   6.255
 4115TIP3   OH212287   0.752   0.868   0.622
 4115TIP3    H112288   0.823   0.803   0.621
 4115TIP3    H212289   0.728   0.876   0.714
 4116TIP3   OH212290   2.202   3.536   0.954
 4116TIP3    H112291   2.237   3.590   1.025
 4116TIP3    H212292   2.112   3.567   0.942
 4117TIP3   OH212293   7.333   1.582   2.096
 4117TIP3    H112294   7.317   1.547   2.008
 4117TIP3    H212295   7.409   1.640   2.086
 4118TIP3   OH212296   5.061   1.582   5.858
 4118TIP3    H112297   5.029   1.587   5.768
 4118TIP3    H212298   5.142   1.633   5.857
 4119TIP3   OH212299   6.943   1.866   0.371
 4119TIP3    H112300   6.898   1.938   0.328
 4119TIP3    H212301   6.995   1.826   0.302
 4120TIP3   OH212302   5.011   5.276   2.891
 4120TIP3    H112303   4.981   5.319   2.971
 4120TIP3    H212304   4.971   5.189   2.894
 4121TIP3   OH212305   5.048   4.326   2.047
 4121TIP3    H112306   5.043   4.304   1.954
 4121TIP3    H212307   5.022   4.418   2.051
 4122TIP3   OH212308   2.177   5.222   3.016
 4122TIP3    H112309   2.093   5.221   2.971
 4122TIP3    H212310   2.157   5.258   3.103
 4123TIP3   OH212311   2.634   7.534   4.565
 4123TIP3    H112312   2.684   7.497   4.492
 4123TIP3    H212313   2.547   7.551   4.528
 4124TIP3   OH212314   1.402   7.114   1.633
 4124TIP3    H112315   1.350   7.079   1.560
 4124TIP3    H212316   1.492   7.094   1.610
 4125TIP3   OH212317   1.060   0.085   4.968
 4125TIP3    H112318   1.087   0.001   4.929
 4125TIP3    H212319   1.036   0.139   4.892
 4126TIP3   OH212320   0.577   7.176   1.553
 4126TIP3    H112321   0.594   7.154   1.645
 4126TIP3    H212322   0.483   7.192   1.550
 4127TIP3   OH212323   3.739   3.661   4.680
 4127TIP3    H112324   3.712   3.569   4.680
 4127TIP3    H212325   3.795   3.670   4.604
 4128TIP3   OH212326   7.636   1.608   3.699
 4128TIP3    H112327   7.631   1.692   3.652
 4128TIP3    H212328   7.726   1.606   3.733
 4129TIP3   OH212329   4.769   3.474   6.639
 4129TIP3    H112330   4.710   3.494   6.712
 4129TIP3    H212331   4.782   3.380   6.643
 4130TIP3   OH212332   4.726   6.723   6.557
 4130TIP3    H112333   4.701   6.634   6.581
 4130TIP3    H212334   4.822   6.724   6.564
 4131TIP3   OH212335   7.900   2.420   6.080
 4131TIP3    H112336   7.978   2.425   6.136
 4131TIP3    H212337   7.854   2.503   6.096
 4132TIP3   OH212338   1.288   7.037   2.701
 4132TIP3    H112339   1.314   6.957   2.748
 4132TIP3    H212340   1.261   7.007   2.615
 4133TIP3   OH212341   3.250   2.686   0.283
 4133TIP3    H112342   3.161   2.658   0.262
 4133TIP3    H212343   3.266   2.651   0.371
 4134TIP3   OH212344   6.806   6.364   3.891
 4134TIP3    H112345   6.716   6.395   3.883
 4134TIP3    H212346   6.841   6.412   3.966
 4135TIP3   OH212347   1.888   5.823   1.803
 4135TIP3    H112348   1.837   5.743   1.815
 4135TIP3    H212349   1.921   5.818   1.713
 4136TIP3   OH212350   4.807   7.671   5.752
 4136TIP3    H112351   4.728   7.615   5.753
 4136TIP3    H212352   4.836   7.672   5.843
 4137TIP3   OH212353   7.943   2.680   2.629
 4137TIP3    H112354   7.932   2.670   2.724
 4137TIP3    H212355   8.021   2.736   2.620
 4138TIP3   OH212356   1.829   2.852   3.539
 4138TIP3    H112357   1.852   2.833   3.630
 4138TIP3    H212358   1.773   2.780   3.513
 4139TIP3   OH212359   7.958   6.043   2.556
 4139TIP3    H112360   7.949   5.976   2.488
 4139TIP3    H212361   8.002   5.999   2.628
 4140TIP3   OH212362   4.425   1.135   5.450
 4140TIP3    H112363   4.508   1.123   5.496
 4140TIP3    H212364   4.440   1.098   5.363
 4141TIP3   OH212365   3.920   3.405   0.386
 4141TIP3    H112366   4.010   3.436   0.399
 4141TIP3    H212367   3.929   3.311   0.371
 4142TIP3   OH212368   7.790   4.766   2.872
 4142TIP3    H112369   7.854   4.808   2.930
 4142TIP3    H212370   7.837   4.753   2.790
 4143TIP3   OH212371   0.550   0.686   0.893
 4143TIP3    H112372   0.633   0.734   0.882
 4143TIP3    H212373   0.497   0.745   0.947
 4144TIP3   OH212374   0.882   0.886   3.071
 4144TIP3    H112375   0.812   0.896   3.135
 4144TIP3    H212376   0.949   0.836   3.116
 4145TIP3   OH212377   6.786   2.792   0.252
 4145TIP3    H112378   6.849   2.779   0.181
 4145TIP3    H212379   6.755   2.881   0.240
 4146TIP3   OH212380   0.553   3.739   0.368
 4146TIP3    H112381   0.480   3.690   0.330
 4146TIP3    H212382   0.581   3.686   0.443
 4147TIP3   OH212383   7.744   5.826   0.294
 4147TIP3    H112384   7.718   5.849   0.205
 4147TIP3    H212385   7.679   5.762   0.323
 4148TIP3   OH212386   7.946   2.299   1.843
 4148TIP3    H112387   7.902   2.375   1.882
 4148TIP3    H212388   7.909   2.224   1.889
 4149TIP3   OH212389   3.529   4.709   0.210
 4149TIP3    H112390   3.620   4.738   0.195
 4149TIP3    H212391   3.497   4.768   0.278
 4150TIP3   OH212392   1.619   4.683   5.820
 4150TIP3    H112393   1.558   4.610   5.824
 4150TIP3    H212394   1.669   4.677   5.901
 4151TIP3   OH212395   1.454   2.727   5.391
 4151TIP3    H112396   1.398   2.691   5.460
 4151TIP3    H212397   1.530   2.762   5.437
 4152TIP3   OH212398   3.405   2.163   2.945
 4152TIP3    H112399   3.448   2.078   2.951
 4152TIP3    H212400   3.414   2.188   2.853
 4153TIP3   OH212401   6.916   0.973   3.887
 4153TIP3    H112402   6.918   1.048   3.947
 4153TIP3    H212403   6.825   0.965   3.860
 4154TIP3   OH212404   4.928   7.018   5.382
 4154TIP3    H112405   4.864   7.089   5.376
 4154TIP3    H212406   4.985   7.031   5.307
 4155TIP3   OH212407   6.473   3.860   4.654
 4155TIP3    H112408   6.489   3.873   4.561
 4155TIP3    H212409   6.478   3.765   4.665
 4156TIP3   OH212410   1.060   7.757   3.102
 4156TIP3    H112411   1.004   7.755   3.025
 4156TIP3    H212412   1.117   7.833   3.088
 4157TIP3   OH212413   3.752   0.849   6.089
 4157TIP3    H112414   3.698   0.886   6.019
 4157TIP3    H212415   3.699   0.859   6.168
 4158TIP3   OH212416   0.880   0.136   6.730
 4158TIP3    H112417   0.839   0.068   6.783
 4158TIP3    H212418   0.819   0.151   6.658
 4159TIP3   OH212419   7.899   0.449   6.690
 4159TIP3    H112420   7.930   0.378   6.746
 4159TIP3    H212421   7.927   0.423   6.602
 4160TIP3   OH212422   4.615   7.795   2.218
 4160TIP3    H112423   4.549   7.805   2.287
 4160TIP3    H212424   4.583   7.721   2.166
 4161TIP3   OH212425   6.530   4.440   4.291
 4161TIP3    H112426   6.514   4.459   4.198
 4161TIP3    H212427   6.444   4.449   4.332
 4162TIP3   OH212428   4.287   0.329   3.825
 4162TIP3    H112429   4.374   0.358   3.853
 4162TIP3    H212430   4.302   0.246   3.780
 4163TIP3   OH212431   2.645   3.430   2.393
 4163TIP3    H112432   2.584   3.498   2.364
 4163TIP3    H212433   2.731   3.472   2.390
 4164TIP3   OH212434   0.374   5.441   4.019
 4164TIP3    H112435   0.316   5.471   3.948
 4164TIP3    H212436   0.366   5.345   4.017
 4165TIP3   OH212437   7.198   2.465   3.676
 4165TIP3    H112438   7.214   2.476   3.770
 4165TIP3    H212439   7.132   2.531   3.655
 4166TIP3   OH212440   1.012   4.031  -0.004
 4166TIP3    H112441   0.962   4.095  -0.055
 4166TIP3    H212442   1.007   4.064   0.086
 4167TIP3   OH212443   8.055   2.071   2.681
 4167TIP3    H112444   7.980   2.068   2.741
 4167TIP3    H212445   8.060   2.162   2.654
 4168TIP3   OH212446   7.671   1.585   6.011
 4168TIP3    H112447   7.681   1.574   6.105
 4168TIP3    H212448   7.598   1.647   6.002
 4169TIP3   OH212449   0.348   3.721   5.327
 4169TIP3    H112450   0.410   3.794   5.335
 4169TIP3    H212451   0.336   3.691   5.417
 4170TIP3   OH212452   5.258   5.167   3.810
 4170TIP3    H112453   5.285   5.190   3.722
 4170TIP3    H212454   5.171   5.128   3.800
 4171TIP3   OH212455   6.038   2.017   2.206
 4171TIP3    H112456   5.986   2.006   2.126
 4171TIP3    H212457   5.980   2.066   2.265
 4172TIP3   OH212458   6.514   2.160   4.175
 4172TIP3    H112459   6.496   2.151   4.081
 4172TIP3    H212460   6.433   2.194   4.212
 4173TIP3   OH212461   1.180   1.829   4.097
 4173TIP3    H112462   1.195   1.854   4.188
 4173TIP3    H212463   1.086   1.818   4.090
 4174TIP3   OH212464   3.519   3.979   1.677
 4174TIP3    H112465   3.583   3.967   1.748
 4174TIP3    H212466   3.530   3.903   1.621
 4175TIP3   OH212467   7.591   5.126   6.674
 4175TIP3    H112468   7.552   5.104   6.758
 4175TIP3    H212469   7.594   5.042   6.626
 4176TIP3   OH212470   8.148   3.592   6.605
 4176TIP3    H112471   8.123   3.650   6.533
 4176TIP3    H212472   8.133   3.644   6.684
 4177TIP3   OH212473   8.258   4.459   5.009
 4177TIP3    H112474   8.306   4.484   4.930
 4177TIP3    H212475   8.180   4.514   5.008
 4178TIP3   OH212476   4.204   3.331   1.626
 4178TIP3    H112477   4.187   3.324   1.532
 4178TIP3    H212478   4.294   3.365   1.632
 4179TIP3   OH212479   0.093   2.492   2.486
 4179TIP3    H112480   0.169   2.541   2.517
 4179TIP3    H212481   0.100   2.408   2.531
 4180TIP3   OH212482   7.451   4.393   3.705
 4180TIP3    H112483   7.508   4.328   3.746
 4180TIP3    H212484   7.392   4.420   3.775
 4181TIP3   OH212485   7.738   7.674   1.081
 4181TIP3    H112486   7.672   7.605   1.082
 4181TIP3    H212487   7.746   7.701   1.172
 4182TIP3   OH212488   4.052   6.678   2.534
 4182TIP3    H112489   4.143   6.697   2.513
 4182TIP3    H212490   4.020   6.625   2.460
 4183TIP3   OH212491   8.037   5.982   5.043
 4183TIP3    H112492   8.031   5.984   5.139
 4183TIP3    H212493   8.071   5.894   5.024
 4184TIP3   OH212494   2.158   5.265   5.789
 4184TIP3    H112495   2.253   5.270   5.788
 4184TIP3    H212496   2.137   5.186   5.741
 4185TIP3   OH212497   0.555   3.885   1.022
 4185TIP3    H112498   0.548   3.884   0.926
 4185TIP3    H212499   0.649   3.892   1.039
 4186TIP3   OH212500   1.910   6.411   5.814
 4186TIP3    H112501   1.841   6.474   5.834
 4186TIP3    H212502   1.981   6.465   5.779
 4187TIP3   OH212503   3.981   6.525   5.198
 4187TIP3    H112504   3.902   6.516   5.251
 4187TIP3    H212505   3.951   6.514   5.108
 4188TIP3   OH212506   4.360   5.963   2.821
 4188TIP3    H112507   4.408   6.042   2.795
 4188TIP3    H212508   4.395   5.894   2.764
 4189TIP3   OH212509   3.502   1.377   4.406
 4189TIP3    H112510   3.567   1.390   4.474
 4189TIP3    H212511   3.490   1.463   4.367
 4190TIP3   OH212512   3.221   7.534   2.084
 4190TIP3    H112513   3.263   7.452   2.110
 4190TIP3    H212514   3.294   7.590   2.056
 4191TIP3   OH212515   8.274   3.887   0.477
 4191TIP3    H112516   8.241   3.864   0.390
 4191TIP3    H212517   8.316   3.807   0.508
 4192TIP3   OH212518   3.545   3.772   1.507
 4192TIP3    H112519   3.621   3.801   1.457
 4192TIP3    H212520   3.544   3.677   1.498
 4193TIP3   OH212521   1.607   0.296   6.577
 4193TIP3    H112522   1.570   0.346   6.650
 4193TIP3    H212523   1.698   0.280   6.602
 4194TIP3   OH212524   5.025   3.412   0.258
 4194TIP3    H112525   4.989   3.363   0.185
 4194TIP3    H212526   4.983   3.374   0.336
 4195TIP3   OH212527   4.331   0.331   2.713
 4195TIP3    H112528   4.367   0.243   2.702
 4195TIP3    H212529   4.407   0.388   2.707
 4196TIP3   OH212530   7.536   1.988   0.486
 4196TIP3    H112531   7.512   2.009   0.576
 4196TIP3    H212532   7.631   1.981   0.488
 4197TIP3   OH212533   7.638   3.971   0.081
 4197TIP3    H112534   7.664   3.884   0.112
 4197TIP3    H212535   7.660   3.970  -0.013
 4198TIP3   OH212536   0.986   5.500   5.359
 4198TIP3    H112537   0.997   5.408   5.334
 4198TIP3    H212538   0.899   5.523   5.328
 4199TIP3   OH212539   1.994   0.642   4.357
 4199TIP3    H112540   1.993   0.711   4.424
 4199TIP3    H212541   1.918   0.662   4.302
 4200TIP3   OH212542   0.830   2.583   6.297
 4200TIP3    H112543   0.926   2.581   6.299
 4200TIP3    H212544   0.807   2.658   6.351
 4201TIP3   OH212545   6.159   2.022   6.447
 4201TIP3    H112546   6.248   1.992   6.466
 4201TIP3    H212547   6.119   1.950   6.398
 4202TIP3   OH212548   0.802   1.258   0.780
 4202TIP3    H112549   0.822   1.228   0.691
 4202TIP3    H212550   0.718   1.217   0.801
 4203TIP3   OH212551   5.298   7.272   1.474
 4203TIP3    H112552   5.383   7.236   1.447
 4203TIP3    H212553   5.303   7.275   1.569
 4204TIP3   OH212554   0.326   1.900   2.312
 4204TIP3    H112555   0.408   1.919   2.267
 4204TIP3    H212556   0.268   1.868   2.243
 4205TIP3   OH212557   2.518   2.203   5.735
 4205TIP3    H112558   2.589   2.234   5.792
 4205TIP3    H212559   2.563   2.173   5.656
 4206TIP3   OH212560   8.196   4.451   5.607
 4206TIP3    H112561   8.260   4.392   5.647
 4206TIP3    H212562   8.187   4.523   5.670
 4207TIP3   OH212563   1.000   3.802   1.605
 4207TIP3    H112564   1.024   3.721   1.559
 4207TIP3    H212565   0.936   3.844   1.548
 4208TIP3   OH212566   7.993   0.727   6.688
 4208TIP3    H112567   7.917   0.781   6.666
 4208TIP3    H212568   7.955   0.645   6.719
 4209TIP3   OH212569   6.757   1.823   5.698
 4209TIP3    H112570   6.841   1.830   5.653
 4209TIP3    H212571   6.742   1.911   5.733
 4210TIP3   OH212572   6.358   4.834   1.592
 4210TIP3    H112573   6.289   4.772   1.573
 4210TIP3    H212574   6.378   4.821   1.684
 4211TIP3   OH212575   8.068   3.947   6.614
 4211TIP3    H112576   8.053   4.010   6.543
 4211TIP3    H212577   7.994   3.887   6.610
 4212TIP3   OH212578   1.175   7.215   4.717
 4212TIP3    H112579   1.107   7.283   4.723
 4212TIP3    H212580   1.191   7.205   4.623
 4213TIP3   OH212581  -0.021   0.842   0.388
 4213TIP3    H112582   0.044   0.773   0.402
 4213TIP3    H212583  -0.059   0.822   0.302
 4214TIP3   OH212584   0.730   1.769   6.489
 4214TIP3    H112585   0.694   1.681   6.480
 4214TIP3    H212586   0.762   1.772   6.580
 4215TIP3   OH212587   8.139   2.576   0.103
 4215TIP3    H112588   8.232   2.559   0.118
 4215TIP3    H212589   8.098   2.490   0.104
 4216TIP3   OH212590   2.307   6.547   5.507
 4216TIP3    H112591   2.371   6.476   5.501
 4216TIP3    H212592   2.355   6.619   5.548
 4217TIP3   OH212593   6.986   2.483   4.954
 4217TIP3    H112594   6.984   2.429   5.032
 4217TIP3    H212595   6.912   2.542   4.964
 4218TIP3   OH212596   6.772   5.800   2.711
 4218TIP3    H112597   6.733   5.866   2.653
 4218TIP3    H212598   6.861   5.789   2.678
 4219TIP3   OH212599   6.131   1.445   0.369
 4219TIP3    H112600   6.190   1.514   0.399
 4219TIP3    H212601   6.050   1.491   0.346
 4220TIP3   OH212602   2.984   1.702   6.555
 4220TIP3    H112603   3.040   1.655   6.617
 4220TIP3    H212604   3.045   1.743   6.495
 4221TIP3   OH212605   3.238   6.496   5.641
 4221TIP3    H112606   3.302   6.438   5.683
 4221TIP3    H212607   3.284   6.579   5.630
 4222TIP3   OH212608   0.054   5.122   0.141
 4222TIP3    H112609   0.111   5.193   0.170
 4222TIP3    H212610  -0.021   5.125   0.200
 4223TIP3   OH212611   1.499   0.691   4.455
 4223TIP3    H112612   1.539   0.630   4.518
 4223TIP3    H212613   1.489   0.639   4.375
 4224TIP3   OH212614   3.530   4.542   5.699
 4224TIP3    H112615   3.595   4.504   5.641
 4224TIP3    H212616   3.480   4.467   5.733
 4225TIP3   OH212617   7.285   4.234   1.213
 4225TIP3    H112618   7.213   4.290   1.243
 4225TIP3    H212619   7.354   4.296   1.188
 4226TIP3   OH212620   3.758   7.062   0.142
 4226TIP3    H112621   3.700   6.989   0.123
 4226TIP3    H212622   3.824   7.060   0.073
 4227TIP3   OH212623   3.865   3.914   4.784
 4227TIP3    H112624   3.825   3.836   4.745
 4227TIP3    H212625   3.896   3.964   4.709
 4228TIP3   OH212626   7.040   0.623   2.441
 4228TIP3    H112627   6.996   0.646   2.359
 4228TIP3    H212628   7.038   0.704   2.492
 4229TIP3   OH212629   4.259   0.177   2.418
 4229TIP3    H112630   4.211   0.103   2.456
 4229TIP3    H212631   4.283   0.232   2.492
 4230TIP3   OH212632   5.721   3.209   5.221
 4230TIP3    H112633   5.750   3.123   5.189
 4230TIP3    H212634   5.799   3.247   5.261
 4231TIP3   OH212635   6.630   2.784   4.356
 4231TIP3    H112636   6.543   2.806   4.322
 4231TIP3    H212637   6.638   2.689   4.341
 4232TIP3   OH212638   0.404   1.019   2.194
 4232TIP3    H112639   0.376   1.076   2.265
 4232TIP3    H212640   0.331   1.020   2.132
 4233TIP3   OH212641   7.121   4.853   1.976
 4233TIP3    H112642   7.116   4.871   2.070
 4233TIP3    H212643   7.172   4.772   1.970
 4234TIP3   OH212644   0.896   0.149   6.404
 4234TIP3    H112645   0.971   0.106   6.445
 4234TIP3    H212646   0.916   0.243   6.410
 4235TIP3   OH212647   5.621   3.900   3.987
 4235TIP3    H112648   5.530   3.915   3.960
 4235TIP3    H212649   5.614   3.863   4.074
 4236TIP3   OH212650   4.695   4.881   6.220
 4236TIP3    H112651   4.633   4.928   6.163
 4236TIP3    H212652   4.772   4.867   6.165
 4237TIP3   OH212653   5.582   2.929   3.632
 4237TIP3    H112654   5.580   2.936   3.536
 4237TIP3    H212655   5.614   3.014   3.661
 4238TIP3   OH212656   5.601   2.384   2.534
 4238TIP3    H112657   5.648   2.367   2.452
 4238TIP3    H212658   5.566   2.298   2.559
 4239TIP3   OH212659   5.988   0.365   6.543
 4239TIP3    H112660   6.069   0.344   6.496
 4239TIP3    H212661   5.943   0.282   6.554
 4240TIP3   OH212662   1.710   5.321   5.969
 4240TIP3    H112663   1.679   5.409   5.949
 4240TIP3    H212664   1.658   5.263   5.912
 4241TIP3   OH212665   2.645   1.325   0.387
 4241TIP3    H112666   2.639   1.373   0.470
 4241TIP3    H212667   2.572   1.359   0.335
 4242TIP3   OH212668   5.852   2.092   2.444
 4242TIP3    H112669   5.946   2.105   2.462
 4242TIP3    H212670   5.815   2.068   2.529
 4243TIP3   OH212671   1.058   2.976   1.123
 4243TIP3    H112672   1.107   2.946   1.199
 4243TIP3    H212673   1.108   3.049   1.088
 4244TIP3   OH212674   0.870   4.525   0.350
 4244TIP3    H112675   0.841   4.575   0.427
 4244TIP3    H212676   0.848   4.581   0.276
 4245TIP3   OH212677   5.534   7.502   5.792
 4245TIP3    H112678   5.462   7.556   5.759
 4245TIP3    H212679   5.527   7.420   5.743
 4246TIP3   OH212680   3.282   6.803   0.712
 4246TIP3    H112681   3.269   6.864   0.785
 4246TIP3    H212682   3.196   6.793   0.673
 4247TIP3   OH212683   7.585   1.176   2.351
 4247TIP3    H112684   7.567   1.094   2.305
 4247TIP3    H212685   7.528   1.173   2.428
 4248TIP3   OH212686   5.043   2.035   1.381
 4248TIP3    H112687   5.053   1.997   1.294
 4248TIP3    H212688   4.968   1.989   1.419
 4249TIP3   OH212689   7.778   5.304   4.950
 4249TIP3    H112690   7.819   5.221   4.971
 4249TIP3    H212691   7.819   5.331   4.868
 4250TIP3   OH212692   0.317   4.447   0.595
 4250TIP3    H112693   0.373   4.421   0.667
 4250TIP3    H212694   0.362   4.521   0.554
 4251TIP3   OH212695   2.563   4.837   6.230
 4251TIP3    H112696   2.577   4.896   6.156
 4251TIP3    H212697   2.646   4.791   6.239
 4252TIP3   OH212698   7.802   4.826   4.732
 4252TIP3    H112699   7.723   4.809   4.784
 4252TIP3    H212700   7.769   4.843   4.644
 4253TIP3   OH212701   3.423   3.244   2.343
 4253TIP3    H112702   3.371   3.250   2.263
 4253TIP3    H212703   3.510   3.215   2.314
 4254TIP3   OH212704   8.254   0.645   2.856
 4254TIP3    H112705   8.175   0.672   2.902
 4254TIP3    H212706   8.294   0.579   2.913
 4255TIP3   OH212707   4.306   2.952   0.117
 4255TIP3    H112708   4.377   2.940   0.054
 4255TIP3    H212709   4.326   2.891   0.188
 4256TIP3   OH212710   1.501   2.054   1.658
 4256TIP3    H112711   1.495   1.963   1.686
 4256TIP3    H212712   1.472   2.104   1.735
 4257TIP3   OH212713   3.176   7.506   2.609
 4257TIP3    H112714   3.172   7.452   2.688
 4257TIP3    H212715   3.254   7.559   2.620
 4258TIP3   OH212716   7.346   1.459   1.332
 4258TIP3    H112717   7.288   1.385   1.314
 4258TIP3    H212718   7.355   1.503   1.247
 4259TIP3   OH212719   5.163   4.885   5.766
 4259TIP3    H112720   5.177   4.818   5.832
 4259TIP3    H212721   5.233   4.870   5.701
 4260TIP3   OH212722   2.697   0.590   2.259
 4260TIP3    H112723   2.605   0.585   2.283
 4260TIP3    H212724   2.731   0.501   2.271
 4261TIP3   OH212725   1.103   4.641   0.718
 4261TIP3    H112726   1.109   4.732   0.688
 4261TIP3    H212727   1.180   4.629   0.773
 4262TIP3   OH212728  -0.010   7.229   0.563
 4262TIP3    H112729  -0.007   7.222   0.467
 4262TIP3    H212730   0.081   7.222   0.590
 4263TIP3   OH212731   5.596   2.872   6.252
 4263TIP3    H112732   5.537   2.902   6.183
 4263TIP3    H212733   5.668   2.934   6.249
 4264TIP3   OH212734   3.748   3.761   0.161
 4264TIP3    H112735   3.769   3.768   0.254
 4264TIP3    H212736   3.666   3.810   0.152
 4265TIP3   OH212737   2.175   4.031   1.496
 4265TIP3    H112738   2.213   3.944   1.504
 4265TIP3    H212739   2.239   4.089   1.537
 4266TIP3   OH212740   2.631   3.711   3.391
 4266TIP3    H112741   2.552   3.672   3.353
 4266TIP3    H212742   2.605   3.739   3.478
 4267TIP3   OH212743   3.042   0.187   0.303
 4267TIP3    H112744   3.133   0.159   0.319
 4267TIP3    H212745   3.034   0.271   0.348
 4268TIP3   OH212746   5.371   2.141   4.846
 4268TIP3    H112747   5.407   2.053   4.840
 4268TIP3    H212748   5.389   2.181   4.761
 4269TIP3   OH212749   0.774   1.109   2.985
 4269TIP3    H112750   0.699   1.102   3.044
 4269TIP3    H212751   0.808   1.019   2.980
 4270TIP3   OH212752   2.410   5.337   3.332
 4270TIP3    H112753   2.481   5.279   3.360
 4270TIP3    H212754   2.330   5.286   3.344
 4271TIP3   OH212755   6.432   3.353   0.773
 4271TIP3    H112756   6.434   3.449   0.766
 4271TIP3    H212757   6.339   3.331   0.769
 4272TIP3   OH212758   4.780   4.696   1.274
 4272TIP3    H112759   4.760   4.618   1.222
 4272TIP3    H212760   4.841   4.746   1.220
 4273TIP3   OH212761   6.062   0.368   3.576
 4273TIP3    H112762   6.060   0.415   3.492
 4273TIP3    H212763   6.135   0.307   3.567
 4274TIP3   OH212764   6.192   4.819   5.242
 4274TIP3    H112765   6.240   4.757   5.186
 4274TIP3    H212766   6.242   4.820   5.324
 4275TIP3   OH212767   4.436   3.479   1.645
 4275TIP3    H112768   4.489   3.411   1.687
 4275TIP3    H212769   4.465   3.479   1.554
 4276TIP3   OH212770   2.000   3.758   6.764
 4276TIP3    H112771   1.920   3.793   6.726
 4276TIP3    H212772   2.071   3.801   6.717
 4277TIP3   OH212773   0.587   4.110   6.112
 4277TIP3    H112774   0.509   4.151   6.148
 4277TIP3    H212775   0.557   4.025   6.078
 4278TIP3   OH212776   0.153   6.890   0.258
 4278TIP3    H112777   0.132   6.982   0.243
 4278TIP3    H212778   0.068   6.847   0.271
 4279TIP3   OH212779   3.982   5.348   5.363
 4279TIP3    H112780   3.928   5.427   5.355
 4279TIP3    H212781   4.065   5.371   5.321
 4280TIP3   OH212782   7.044   4.372   5.469
 4280TIP3    H112783   7.112   4.306   5.484
 4280TIP3    H212784   7.002   4.345   5.387
 4281TIP3   OH212785   7.604   3.384   2.183
 4281TIP3    H112786   7.617   3.295   2.150
 4281TIP3    H212787   7.600   3.438   2.104
 4282TIP3   OH212788   4.097   0.353   1.603
 4282TIP3    H112789   4.119   0.285   1.540
 4282TIP3    H212790   4.109   0.311   1.689
 4283TIP3   OH212791   5.797   3.029   6.310
 4283TIP3    H112792   5.892   3.040   6.298
 4283TIP3    H212793   5.780   3.061   6.398
 4284TIP3   OH212794   1.775   6.347   5.059
 4284TIP3    H112795   1.801   6.301   4.979
 4284TIP3    H212796   1.682   6.327   5.069
 4285TIP3   OH212797   4.291   7.724   6.188
 4285TIP3    H112798   4.313   7.816   6.170
 4285TIP3    H212799   4.338   7.704   6.269
 4286TIP3   OH212800   6.720   3.249   2.537
 4286TIP3    H112801   6.799   3.290   2.503
 4286TIP3    H212802   6.678   3.209   2.461
 4287TIP3   OH212803   2.442   7.670   5.099
 4287TIP3    H112804   2.367   7.616   5.073
 4287TIP3    H212805   2.511   7.646   5.038
 4288TIP3   OH212806   3.011   0.732   5.155
 4288TIP3    H112807   3.076   0.732   5.085
 4288TIP3    H212808   2.975   0.644   5.156
 4289TIP3   OH212809   1.112   2.939   4.059
 4289TIP3    H112810   1.061   2.915   4.136
 4289TIP3    H212811   1.201   2.910   4.079
 4290TIP3   OH212812   4.876   1.855   2.148
 4290TIP3    H112813   4.959   1.902   2.155
 4290TIP3    H212814   4.901   1.762   2.154
 4291TIP3   OH212815   0.488   0.341   0.146
 4291TIP3    H112816   0.475   0.387   0.063
 4291TIP3    H212817   0.534   0.404   0.202
 4292TIP3   OH212818   2.006   1.994   5.618
 4292TIP3    H112819   2.057   2.074   5.631
 4292TIP3    H212820   2.004   1.952   5.704
 4293TIP3   OH212821   5.030   3.406   6.425
 4293TIP3    H112822   5.041   3.310   6.424
 4293TIP3    H212823   5.111   3.438   6.465
 4294TIP3   OH212824   2.774   0.329   2.246
 4294TIP3    H112825   2.758   0.305   2.155
 4294TIP3    H212826   2.820   0.254   2.283
 4295TIP3   OH212827   2.395   5.486   3.064
 4295TIP3    H112828   2.371   5.427   2.993
 4295TIP3    H212829   2.422   5.429   3.136
 4296TIP3   OH212830   0.559   0.309   1.629
 4296TIP3    H112831   0.654   0.320   1.626
 4296TIP3    H212832   0.543   0.221   1.595
 4297TIP3   OH212833   1.514   2.835   2.797
 4297TIP3    H112834   1.509   2.753   2.847
 4297TIP3    H212835   1.581   2.886   2.842
 4298TIP3   OH212836   8.208   0.382   1.854
 4298TIP3    H112837   8.141   0.360   1.919
 4298TIP3    H212838   8.270   0.309   1.857
 4299TIP3   OH212839   6.131   0.710   3.740
 4299TIP3    H112840   6.092   0.780   3.792
 4299TIP3    H212841   6.059   0.648   3.727
 4300TIP3   OH212842   6.594   7.646   0.732
 4300TIP3    H112843   6.646   7.618   0.657
 4300TIP3    H212844   6.650   7.628   0.808
 4301TIP3   OH212845   1.362   1.938   5.889
 4301TIP3    H112846   1.371   2.008   5.825
 4301TIP3    H212847   1.424   1.871   5.860
 4302TIP3   OH212848   6.795   3.682   6.037
 4302TIP3    H112849   6.858   3.728   6.093
 4302TIP3    H212850   6.746   3.626   6.098
 4303TIP3   OH212851   3.763   2.988   6.117
 4303TIP3    H112852   3.707   2.928   6.164
 4303TIP3    H212853   3.852   2.964   6.144
 4304TIP3   OH212854   5.113   6.005   3.961
 4304TIP3    H112855   5.119   5.921   4.006
 4304TIP3    H212856   5.094   6.069   4.029
 4305TIP3   OH212857   0.252   4.522  -0.015
 4305TIP3    H112858   0.315   4.518   0.058
 4305TIP3    H212859   0.207   4.438  -0.012
 4306TIP3   OH212860   2.234   4.471   3.376
 4306TIP3    H112861   2.190   4.555   3.363
 4306TIP3    H212862   2.323   4.494   3.402
 4307TIP3   OH212863   7.499   1.265   1.122
 4307TIP3    H112864   7.469   1.189   1.073
 4307TIP3    H212865   7.441   1.336   1.094
 4308TIP3   OH212866   1.943   0.651   6.455
 4308TIP3    H112867   2.001   0.685   6.523
 4308TIP3    H212868   1.983   0.678   6.373
 4309TIP3   OH212869   4.821   0.465   5.161
 4309TIP3    H112870   4.900   0.500   5.119
 4309TIP3    H212871   4.851   0.387   5.207
 4310TIP3   OH212872   3.122   2.861   4.677
 4310TIP3    H112873   3.169   2.943   4.665
 4310TIP3    H212874   3.065   2.854   4.601
 4311TIP3   OH212875   5.613   6.516   0.699
 4311TIP3    H112876   5.602   6.430   0.739
 4311TIP3    H212877   5.626   6.576   0.773
 4312TIP3   OH212878   4.001   2.416   2.991
 4312TIP3    H112879   4.036   2.374   3.070
 4312TIP3    H212880   4.077   2.459   2.952
 4313TIP3   OH212881   2.527   6.031   1.640
 4313TIP3    H112882   2.440   6.057   1.669
 4313TIP3    H212883   2.515   6.011   1.547
 4314TIP3   OH212884   2.726   6.056   4.198
 4314TIP3    H112885   2.717   5.975   4.147
 4314TIP3    H212886   2.796   6.104   4.155
 4315TIP3   OH212887   5.096   6.193   2.944
 4315TIP3    H112888   5.159   6.264   2.931
 4315TIP3    H212889   5.091   6.182   3.039
 4316TIP3   OH212890   4.577   0.635   3.703
 4316TIP3    H112891   4.505   0.659   3.762
 4316TIP3    H212892   4.645   0.700   3.721
 4317TIP3   OH212893   3.103   3.667   0.569
 4317TIP3    H112894   3.070   3.594   0.622
 4317TIP3    H212895   3.115   3.739   0.632
 4318TIP3   OH212896   0.626   2.692   2.285
 4318TIP3    H112897   0.571   2.699   2.362
 4318TIP3    H212898   0.715   2.692   2.319
 4319TIP3   OH212899   3.936   5.044   5.161
 4319TIP3    H112900   4.020   5.026   5.204
 4319TIP3    H212901   3.936   5.140   5.150
 4320TIP3   OH212902   6.079   6.534   6.300
 4320TIP3    H112903   5.993   6.494   6.312
 4320TIP3    H212904   6.137   6.461   6.280
 4321TIP3   OH212905   0.878   5.045   5.136
 4321TIP3    H112906   0.933   4.983   5.087
 4321TIP3    H212907   0.822   5.084   5.069
 4322TIP3   OH212908   7.535   2.607   1.207
 4322TIP3    H112909   7.629   2.625   1.207
 4322TIP3    H212910   7.502   2.648   1.127
 4323TIP3   OH212911   6.201   1.392   0.722
 4323TIP3    H112912   6.120   1.423   0.683
 4323TIP3    H212913   6.261   1.381   0.648
 4324TIP3   OH212914   4.860   4.085   5.197
 4324TIP3    H112915   4.884   4.145   5.268
 4324TIP3    H212916   4.892   4.000   5.226
 4325TIP3   OH212917   1.918   5.137   3.327
 4325TIP3    H112918   1.889   5.119   3.417
 4325TIP3    H212919   1.843   5.112   3.273
 4326TIP3   OH212920   4.190   0.989   3.152
 4326TIP3    H112921   4.209   1.080   3.131
 4326TIP3    H212922   4.169   0.948   3.068
 4327TIP3   OH212923   6.642   5.735   5.896
 4327TIP3    H112924   6.728   5.694   5.902
 4327TIP3    H212925   6.638   5.793   5.972
 4328TIP3   OH212926   6.899   2.447   4.364
 4328TIP3    H112927   6.811   2.467   4.331
 4328TIP3    H212928   6.958   2.489   4.302
 4329TIP3   OH212929   3.765   4.108   2.028
 4329TIP3    H112930   3.799   4.073   2.110
 4329TIP3    H212931   3.774   4.037   1.965
 4330TIP3   OH212932   6.479   2.692   0.773
 4330TIP3    H112933   6.511   2.782   0.768
 4330TIP3    H212934   6.480   2.661   0.682
 4331TIP3   OH212935   2.637   0.837   0.110
 4331TIP3    H112936   2.578   0.897   0.156
 4331TIP3    H212937   2.707   0.893   0.077
 4332TIP3   OH212938   0.574   4.016   1.290
 4332TIP3    H112939   0.551   3.939   1.239
 4332TIP3    H212940   0.496   4.035   1.342
 4333TIP3   OH212941   7.975   5.430   2.840
 4333TIP3    H112942   8.016   5.360   2.790
 4333TIP3    H212943   8.023   5.509   2.815
 4334TIP3   OH212944   3.269   5.277   2.403
 4334TIP3    H112945   3.345   5.312   2.356
 4334TIP3    H212946   3.270   5.323   2.487
 4335TIP3   OH212947   4.875   0.779   5.127
 4335TIP3    H112948   4.926   0.725   5.186
 4335TIP3    H212949   4.919   0.864   5.127
 4336TIP3   OH212950   2.950   5.739   5.146
 4336TIP3    H112951   3.033   5.786   5.151
 4336TIP3    H212952   2.914   5.764   5.061
 4337TIP3   OH212953   5.695   1.651   2.762
 4337TIP3    H112954   5.660   1.599   2.834
 4337TIP3    H212955   5.618   1.690   2.721
 4338TIP3   OH212956   8.033   5.508   4.111
 4338TIP3    H112957   7.985   5.574   4.162
 4338TIP3    H212958   8.001   5.424   4.144
 4339TIP3   OH212959   1.368   7.652   2.155
 4339TIP3    H112960   1.400   7.569   2.190
 4339TIP3    H212961   1.418   7.665   2.074
 4340TIP3   OH212962   2.709   0.842   1.089
 4340TIP3    H112963   2.633   0.858   1.144
 4340TIP3    H212964   2.679   0.780   1.023
 4341TIP3   OH212965   4.409   4.426   2.591
 4341TIP3    H112966   4.472   4.495   2.608
 4341TIP3    H212967   4.413   4.413   2.496
 4342TIP3   OH212968   1.102   5.569   2.777
 4342TIP3    H112969   1.032   5.542   2.717
 4342TIP3    H212970   1.146   5.487   2.801
 4343TIP3   OH212971   3.638   2.130   3.256
 4343TIP3    H112972   3.722   2.136   3.303
 4343TIP3    H212973   3.573   2.116   3.325
 4344TIP3   OH212974   2.501   2.526   4.502
 4344TIP3    H112975   2.469   2.448   4.457
 4344TIP3    H212976   2.579   2.497   4.549
 4345TIP3   OH212977   3.993   5.382   5.976
 4345TIP3    H112978   4.046   5.432   5.914
 4345TIP3    H212979   3.974   5.300   5.930
 4346TIP3   OH212980   7.300   6.427   5.366
 4346TIP3    H112981   7.298   6.505   5.310
 4346TIP3    H212982   7.270   6.356   5.310
 4347TIP3   OH212983   7.385   7.512   1.698
 4347TIP3    H112984   7.376   7.486   1.607
 4347TIP3    H212985   7.307   7.476   1.741
 4348TIP3   OH212986   5.409   4.788   4.665
 4348TIP3    H112987   5.384   4.763   4.754
 4348TIP3    H212988   5.392   4.882   4.661
 4349TIP3   OH212989   4.065   5.373   5.609
 4349TIP3    H112990   4.049   5.342   5.520
 4349TIP3    H212991   3.991   5.432   5.627
 4350TIP3   OH212992   6.814   0.610   0.886
 4350TIP3    H112993   6.888   0.670   0.876
 4350TIP3    H212994   6.848   0.524   0.860
 4351TIP3   OH212995   6.322   2.747   0.001
 4351TIP3    H112996   6.387   2.747   0.071
 4351TIP3    H212997   6.260   2.817   0.026
 4352TIP3   OH212998   6.658   1.195   0.680
 4352TIP3    H112999   6.582   1.238   0.641
 4352TIP3    H213000   6.722   1.190   0.609
 4353TIP3   OH213001   7.833   5.273   0.503
 4353TIP3    H113002   7.820   5.359   0.465
 4353TIP3    H213003   7.794   5.212   0.440
 4354TIP3   OH213004   0.862   7.686   4.244
 4354TIP3    H113005   0.889   7.702   4.154
 4354TIP3    H213006   0.829   7.770   4.275
 4355TIP3   OH213007   4.418   5.434   4.903
 4355TIP3    H113008   4.505   5.474   4.901
 4355TIP3    H213009   4.359   5.507   4.882
 4356TIP3   OH213010   5.556   2.197   4.207
 4356TIP3    H113011   5.647   2.188   4.235
 4356TIP3    H213012   5.558   2.182   4.113
 4357TIP3   OH213013   2.182   2.632   2.439
 4357TIP3    H113014   2.157   2.699   2.503
 4357TIP3    H213015   2.256   2.587   2.479
 4358TIP3   OH213016   0.396   6.720   0.117
 4358TIP3    H113017   0.464   6.784   0.099
 4358TIP3    H213018   0.318   6.772   0.136
 4359TIP3   OH213019   4.191   6.335   0.878
 4359TIP3    H113020   4.239   6.329   0.960
 4359TIP3    H213021   4.103   6.364   0.903
 4360TIP3   OH213022   4.168   3.536   3.160
 4360TIP3    H113023   4.105   3.521   3.230
 4360TIP3    H213024   4.159   3.459   3.103
 4361TIP3   OH213025   1.062   5.711   1.915
 4361TIP3    H113026   0.972   5.702   1.883
 4361TIP3    H213027   1.055   5.773   1.988
 4362TIP3   OH213028   3.253   6.092   5.814
 4362TIP3    H113029   3.160   6.097   5.792
 4362TIP3    H213030   3.284   6.013   5.770
 4363TIP3   OH213031   1.797   7.198   5.815
 4363TIP3    H113032   1.703   7.200   5.834
 4363TIP3    H213033   1.837   7.248   5.886
 4364TIP3   OH213034   1.604   2.084   4.277
 4364TIP3    H113035   1.593   2.021   4.349
 4364TIP3    H213036   1.602   2.031   4.198
 4365TIP3   OH213037   0.505   0.169   6.159
 4365TIP3    H113038   0.564   0.115   6.107
 4365TIP3    H213039   0.433   0.110   6.183
 4366TIP3   OH213040   6.300   4.519   0.361
 4366TIP3    H113041   6.300   4.465   0.440
 4366TIP3    H213042   6.330   4.460   0.291
 4367TIP3   OH213043   5.939   3.964   6.402
 4367TIP3    H113044   5.890   3.918   6.334
 4367TIP3    H213045   5.880   4.034   6.431
 4368TIP3   OH213046   6.827   2.945   4.924
 4368TIP3    H113047   6.874   2.910   4.848
 4368TIP3    H213048   6.852   2.888   4.996
 4369TIP3   OH213049   5.368   2.025   0.461
 4369TIP3    H113050   5.401   1.936   0.466
 4369TIP3    H213051   5.329   2.041   0.548
 4370TIP3   OH213052   6.046   2.278   4.652
 4370TIP3    H113053   5.997   2.322   4.721
 4370TIP3    H213054   5.980   2.248   4.590
 4371TIP3   OH213055   6.518   2.967   3.102
 4371TIP3    H113056   6.501   2.990   3.010
 4371TIP3    H213057   6.527   3.051   3.147
 4372TIP3   OH213058   4.559   3.738   5.909
 4372TIP3    H113059   4.528   3.827   5.928
 4372TIP3    H213060   4.541   3.725   5.816
 4373TIP3   OH213061   1.061   4.062   3.138
 4373TIP3    H113062   1.098   4.132   3.084
 4373TIP3    H213063   1.012   4.007   3.076
 4374TIP3   OH213064   0.080   1.739   3.267
 4374TIP3    H113065  -0.003   1.765   3.308
 4374TIP3    H213066   0.059   1.657   3.222
 4375TIP3   OH213067   4.978   2.195   6.267
 4375TIP3    H113068   4.887   2.195   6.236
 4375TIP3    H213069   5.026   2.142   6.202
 4376TIP3   OH213070   7.956   7.477   4.711
 4376TIP3    H113071   7.975   7.530   4.789
 4376TIP3    H213072   8.041   7.455   4.676
 4377TIP3   OH213073   1.818   1.396   3.282
 4377TIP3    H113074   1.733   1.358   3.262
 4377TIP3    H213075   1.846   1.437   3.200
 4378TIP3   OH213076   2.358   7.016   2.309
 4378TIP3    H113077   2.422   7.086   2.296
 4378TIP3    H213078   2.274   7.061   2.318
 4379TIP3   OH213079   4.805   5.907   1.243
 4379TIP3    H113080   4.833   5.893   1.334
 4379TIP3    H213081   4.810   5.821   1.203
 4380TIP3   OH213082   2.183   2.451   5.638
 4380TIP3    H113083   2.247   2.422   5.572
 4380TIP3    H213084   2.117   2.499   5.587
 4381TIP3   OH213085   3.854   1.481   2.529
 4381TIP3    H113086   3.852   1.533   2.609
 4381TIP3    H213087   3.811   1.536   2.464
 4382TIP3   OH213088   4.523   4.799   2.821
 4382TIP3    H113089   4.606   4.759   2.846
 4382TIP3    H213090   4.519   4.880   2.871
 4383TIP3   OH213091   7.581   7.002   1.449
 4383TIP3    H113092   7.660   6.948   1.460
 4383TIP3    H213093   7.612   7.079   1.402
 4384TIP3   OH213094   7.989   2.230   5.429
 4384TIP3    H113095   7.977   2.191   5.516
 4384TIP3    H213096   7.956   2.320   5.439
 4385TIP3   OH213097   7.935   2.663   5.679
 4385TIP3    H113098   7.962   2.752   5.658
 4385TIP3    H213099   7.849   2.673   5.720
 4386TIP3   OH213100   2.555   2.286   3.611
 4386TIP3    H113101   2.536   2.336   3.690
 4386TIP3    H213102   2.620   2.339   3.564
 4387TIP3   OH213103   1.643   7.516   6.148
 4387TIP3    H113104   1.550   7.537   6.139
 4387TIP3    H213105   1.659   7.518   6.242
 4388TIP3   OH213106   1.689   1.076   5.481
 4388TIP3    H113107   1.753   1.034   5.539
 4388TIP3    H213108   1.627   1.118   5.541
 4389TIP3   OH213109   3.903   5.265   2.006
 4389TIP3    H113110   3.840   5.335   2.025
 4389TIP3    H213111   3.872   5.190   2.057
 4390TIP3   OH213112   2.100   3.861   4.962
 4390TIP3    H113113   2.036   3.906   4.908
 4390TIP3    H213114   2.159   3.819   4.900
 4391TIP3   OH213115   1.244   4.776   4.309
 4391TIP3    H113116   1.266   4.694   4.266
 4391TIP3    H213117   1.177   4.816   4.252
 4392TIP3   OH213118   2.673   1.182   1.291
 4392TIP3    H113119   2.696   1.274   1.277
 4392TIP3    H213120   2.756   1.138   1.308
 4393TIP3   OH213121   7.201   5.639   2.444
 4393TIP3    H113122   7.226   5.558   2.487
 4393TIP3    H213123   7.160   5.611   2.362
 4394TIP3   OH213124   1.647   5.513   4.084
 4394TIP3    H113125   1.711   5.466   4.030
 4394TIP3    H213126   1.662   5.480   4.173
 4395TIP3   OH213127   6.166   5.675   1.665
 4395TIP3    H113128   6.114   5.691   1.587
 4395TIP3    H213129   6.102   5.655   1.733
 4396TIP3   OH213130   2.174   5.918   4.039
 4396TIP3    H113131   2.081   5.895   4.046
 4396TIP3    H213132   2.208   5.857   3.973
 4397TIP3   OH213133   5.180   6.219   6.288
 4397TIP3    H113134   5.167   6.314   6.295
 4397TIP3    H213135   5.214   6.205   6.200
 4398TIP3   OH213136   3.704   5.987   6.631
 4398TIP3    H113137   3.655   5.981   6.548
 4398TIP3    H213138   3.658   6.053   6.681
 4399TIP3   OH213139   3.670   4.829   5.022
 4399TIP3    H113140   3.587   4.783   5.013
 4399TIP3    H213141   3.672   4.856   5.114
 4400TIP3   OH213142   2.732   5.446   3.247
 4400TIP3    H113143   2.658   5.431   3.306
 4400TIP3    H213144   2.798   5.382   3.274
 4401TIP3   OH213145   6.721   0.545   4.164
 4401TIP3    H113146   6.662   0.513   4.095
 4401TIP3    H213147   6.748   0.467   4.211
 4402TIP3   OH213148   3.136   3.588   4.267
 4402TIP3    H113149   3.053   3.617   4.306
 4402TIP3    H213150   3.110   3.531   4.195
 4403TIP3   OH213151   7.553   5.803   3.656
 4403TIP3    H113152   7.537   5.820   3.749
 4403TIP3    H213153   7.506   5.873   3.610
 4404TIP3   OH213154   8.001   6.451   1.810
 4404TIP3    H113155   7.928   6.513   1.809
 4404TIP3    H213156   7.997   6.411   1.896
 4405TIP3   OH213157   8.281   0.417   5.718
 4405TIP3    H113158   8.219   0.432   5.790
 4405TIP3    H213159   8.355   0.474   5.738
 4406TIP3   OH213160   6.173   3.687   1.335
 4406TIP3    H113161   6.193   3.649   1.249
 4406TIP3    H213162   6.243   3.656   1.392
 4407TIP3   OH213163   8.260   2.961   5.640
 4407TIP3    H113164   8.302   2.876   5.654
 4407TIP3    H213165   8.174   2.953   5.680
 4408TIP3   OH213166   4.055   4.193   1.709
 4408TIP3    H113167   4.039   4.172   1.616
 4408TIP3    H213168   4.033   4.112   1.755
 4409TIP3   OH213169   4.492   2.858   1.642
 4409TIP3    H113170   4.509   2.924   1.574
 4409TIP3    H213171   4.578   2.839   1.678
 4410TIP3   OH213172   2.806   3.524   4.642
 4410TIP3    H113173   2.746   3.522   4.716
 4410TIP3    H213174   2.815   3.432   4.616
 4411TIP3   OH213175   1.556   6.925   5.154
 4411TIP3    H113176   1.593   6.945   5.068
 4411TIP3    H213177   1.498   6.851   5.139
 4412TIP3   OH213178   7.014   6.932   4.918
 4412TIP3    H113179   7.094   6.983   4.922
 4412TIP3    H213180   6.972   6.947   5.003
 4413TIP3   OH213181   2.254   7.308   3.518
 4413TIP3    H113182   2.232   7.294   3.610
 4413TIP3    H213183   2.321   7.241   3.499
 4414TIP3   OH213184   6.502   3.211   1.004
 4414TIP3    H113185   6.482   3.239   0.915
 4414TIP3    H213186   6.593   3.183   1.001
 4415TIP3   OH213187   7.005   5.424   0.206
 4415TIP3    H113188   7.006   5.332   0.179
 4415TIP3    H213189   7.095   5.443   0.231
 4416TIP3   OH213190   1.651   3.265   0.540
 4416TIP3    H113191   1.616   3.189   0.492
 4416TIP3    H213192   1.635   3.339   0.482
 4417TIP3   OH213193   0.450   6.954   2.495
 4417TIP3    H113194   0.489   6.867   2.501
 4417TIP3    H213195   0.382   6.953   2.563
 4418TIP3   OH213196   6.627   0.814   6.352
 4418TIP3    H113197   6.549   0.758   6.352
 4418TIP3    H213198   6.662   0.805   6.441
 4419TIP3   OH213199   2.413   6.862   4.598
 4419TIP3    H113200   2.421   6.944   4.646
 4419TIP3    H213201   2.430   6.794   4.664
 4420TIP3   OH213202   5.773   7.448   4.595
 4420TIP3    H113203   5.867   7.436   4.610
 4420TIP3    H213204   5.767   7.531   4.546
 4421TIP3   OH213205   4.333   7.634   6.720
 4421TIP3    H113206   4.261   7.650   6.781
 4421TIP3    H213207   4.382   7.562   6.757
 4422TIP3   OH213208   2.761   0.778   4.049
 4422TIP3    H113209   2.727   0.866   4.034
 4422TIP3    H213210   2.840   0.773   3.995
 4423TIP3   OH213211   0.915   1.785   4.934
 4423TIP3    H113212   1.002   1.825   4.935
 4423TIP3    H213213   0.854   1.858   4.939
 4424TIP3   OH213214   1.410   3.771   4.241
 4424TIP3    H113215   1.466   3.804   4.171
 4424TIP3    H213216   1.386   3.683   4.215
 4425TIP3   OH213217   4.533   0.684   5.462
 4425TIP3    H113218   4.585   0.643   5.531
 4425TIP3    H213219   4.597   0.724   5.404
 4426TIP3   OH213220   7.610   4.141   2.153
 4426TIP3    H113221   7.624   4.191   2.072
 4426TIP3    H213222   7.638   4.052   2.131
 4427TIP3   OH213223   0.388  -0.004   1.828
 4427TIP3    H113224   0.418   0.087   1.837
 4427TIP3    H213225   0.466  -0.056   1.846
 4428TIP3   OH213226   1.721   6.441   4.332
 4428TIP3    H113227   1.785   6.429   4.402
 4428TIP3    H213228   1.772   6.434   4.251
 4429TIP3   OH213229   7.738   0.887   6.110
 4429TIP3    H113230   7.736   0.840   6.193
 4429TIP3    H213231   7.744   0.979   6.134
 4430TIP3   OH213232   1.460   6.543   4.287
 4430TIP3    H113233   1.469   6.586   4.372
 4430TIP3    H213234   1.535   6.485   4.281
 4431TIP3   OH213235   0.054   6.233   5.192
 4431TIP3    H113236   0.130   6.256   5.138
 4431TIP3    H213237   0.067   6.282   5.273
 4432TIP3   OH213238   0.755   0.083   4.750
 4432TIP3    H113239   0.805   0.164   4.738
 4432TIP3    H213240   0.762   0.038   4.666
 4433TIP3   OH213241   5.832   5.442   0.364
 4433TIP3    H113242   5.915   5.411   0.327
 4433TIP3    H213243   5.805   5.372   0.424
 4434TIP3   OH213244   3.828   0.602   5.916
 4434TIP3    H113245   3.846   0.647   5.834
 4434TIP3    H213246   3.792   0.670   5.973
 4435TIP3   OH213247   3.592   1.357   2.594
 4435TIP3    H113248   3.685   1.368   2.575
 4435TIP3    H213249   3.575   1.417   2.666
 4436TIP3   OH213250   2.217   3.307   0.581
 4436TIP3    H113251   2.219   3.214   0.603
 4436TIP3    H213252   2.238   3.309   0.487
 4437TIP3   OH213253   1.979   4.703   1.061
 4437TIP3    H113254   2.054   4.712   1.121
 4437TIP3    H213255   2.016   4.718   0.974
 4438TIP3   OH213256   7.251   6.624   3.587
 4438TIP3    H113257   7.273   6.646   3.677
 4438TIP3    H213258   7.241   6.528   3.588
 4439TIP3   OH213259   3.206   1.500   5.651
 4439TIP3    H113260   3.287   1.534   5.689
 4439TIP3    H213261   3.144   1.572   5.660
 4440TIP3   OH213262   6.867   4.858   0.780
 4440TIP3    H113263   6.844   4.853   0.873
 4440TIP3    H213264   6.800   4.806   0.735
 4441TIP3   OH213265   7.424   7.518   2.405
 4441TIP3    H113266   7.397   7.560   2.487
 4441TIP3    H213267   7.433   7.426   2.427
 4442TIP3   OH213268   3.109   0.938   0.552
 4442TIP3    H113269   3.021   0.974   0.545
 4442TIP3    H213270   3.111   0.898   0.639
 4443TIP3   OH213271   3.346   6.813   3.393
 4443TIP3    H113272   3.290   6.854   3.459
 4443TIP3    H213273   3.428   6.863   3.396
 4444TIP3   OH213274   4.052   3.477   5.086
 4444TIP3    H113275   4.146   3.471   5.067
 4444TIP3    H213276   4.012   3.411   5.028
 4445TIP3   OH213277   0.329   2.584   2.204
 4445TIP3    H113278   0.238   2.598   2.178
 4445TIP3    H213279   0.380   2.636   2.141
 4446TIP3   OH213280   5.408   4.764   2.610
 4446TIP3    H113281   5.445   4.721   2.687
 4446TIP3    H213282   5.453   4.848   2.604
 4447TIP3   OH213283   2.179   2.758   1.154
 4447TIP3    H113284   2.133   2.700   1.214
 4447TIP3    H213285   2.110   2.804   1.106
 4448TIP3   OH213286   3.506   6.643   4.471
 4448TIP3    H113287   3.435   6.645   4.535
 4448TIP3    H213288   3.573   6.701   4.507
 4449TIP3   OH213289   6.227   1.456   0.113
 4449TIP3    H113290   6.183   1.447   0.197
 4449TIP3    H213291   6.186   1.532   0.073
 4450TIP3   OH213292   4.077   0.499   3.277
 4450TIP3    H113293   4.002   0.527   3.224
 4450TIP3    H213294   4.038   0.470   3.359
 4451TIP3   OH213295   6.646   4.301   1.913
 4451TIP3    H113296   6.634   4.379   1.859
 4451TIP3    H213297   6.656   4.334   2.002
 4452TIP3   OH213298   1.900   4.447   5.795
 4452TIP3    H113299   1.936   4.479   5.713
 4452TIP3    H213300   1.805   4.459   5.787
 4453TIP3   OH213301   1.223   5.529   5.123
 4453TIP3    H113302   1.309   5.572   5.122
 4453TIP3    H213303   1.164   5.592   5.082
 4454TIP3   OH213304   5.295   2.667   5.167
 4454TIP3    H113305   5.336   2.662   5.080
 4454TIP3    H213306   5.322   2.752   5.201
 4455TIP3   OH213307   1.428   2.342   1.576
 4455TIP3    H113308   1.395   2.321   1.663
 4455TIP3    H213309   1.424   2.259   1.529
 4456TIP3   OH213310   5.944   3.324   5.297
 4456TIP3    H113311   6.023   3.309   5.349
 4456TIP3    H213312   5.954   3.412   5.262
 4457TIP3   OH213313   3.107   5.411   5.350
 4457TIP3    H113314   3.140   5.362   5.274
 4457TIP3    H213315   3.138   5.362   5.426
 4458TIP3   OH213316   7.732   7.511   4.890
 4458TIP3    H113317   7.722   7.421   4.860
 4458TIP3    H213318   7.779   7.555   4.819
 4459TIP3   OH213319   6.627   7.230   4.688
 4459TIP3    H113320   6.584   7.313   4.665
 4459TIP3    H213321   6.719   7.244   4.665
 4460TIP3   OH213322   3.633   5.924   1.347
 4460TIP3    H113323   3.613   6.005   1.301
 4460TIP3    H213324   3.554   5.870   1.335
 4461TIP3   OH213325   1.397   4.021   3.562
 4461TIP3    H113326   1.374   3.969   3.485
 4461TIP3    H213327   1.360   4.108   3.543
 4462TIP3   OH213328   1.529   2.940   6.693
 4462TIP3    H113329   1.575   3.024   6.682
 4462TIP3    H213330   1.458   2.960   6.754
 4463TIP3   OH213331   5.318   3.125   4.023
 4463TIP3    H113332   5.351   3.119   4.112
 4463TIP3    H213333   5.228   3.093   4.028
 4464TIP3   OH213334   1.827   0.981   0.455
 4464TIP3    H113335   1.751   1.001   0.400
 4464TIP3    H213336   1.902   1.004   0.401
 4465TIP3   OH213337   5.141   7.346   6.131
 4465TIP3    H113338   5.220   7.319   6.177
 4465TIP3    H213339   5.161   7.331   6.038
 4466TIP3   OH213340   7.803   1.559   4.892
 4466TIP3    H113341   7.846   1.509   4.961
 4466TIP3    H213342   7.799   1.499   4.818
 4467TIP3   OH213343   1.787   1.791   4.991
 4467TIP3    H113344   1.753   1.841   4.917
 4467TIP3    H213345   1.710   1.772   5.044
 4468TIP3   OH213346   5.991   1.135   1.088
 4468TIP3    H113347   5.898   1.113   1.090
 4468TIP3    H213348   6.007   1.162   0.997
 4469TIP3   OH213349   0.179   2.274   3.667
 4469TIP3    H113350   0.194   2.282   3.573
 4469TIP3    H213351   0.085   2.291   3.677
 4470TIP3   OH213352   0.659   6.186   0.975
 4470TIP3    H113353   0.612   6.113   1.014
 4470TIP3    H213354   0.631   6.263   1.024
 4471TIP3   OH213355   1.127   3.618   3.424
 4471TIP3    H113356   1.115   3.697   3.370
 4471TIP3    H213357   1.192   3.644   3.490
 4472TIP3   OH213358   0.760   7.319   4.987
 4472TIP3    H113359   0.699   7.347   5.056
 4472TIP3    H213360   0.831   7.382   4.991
 4473TIP3   OH213361   0.903   5.599   1.539
 4473TIP3    H113362   0.909   5.687   1.502
 4473TIP3    H213363   0.991   5.563   1.528
 4474TIP3   OH213364   5.810   2.023   6.144
 4474TIP3    H113365   5.819   1.928   6.134
 4474TIP3    H213366   5.720   2.041   6.116
 4475TIP3   OH213367   2.336   2.198   3.421
 4475TIP3    H113368   2.390   2.235   3.491
 4475TIP3    H213369   2.296   2.275   3.379
 4476TIP3   OH213370   0.326   3.279   6.671
 4476TIP3    H113371   0.233   3.271   6.651
 4476TIP3    H213372   0.370   3.233   6.600
 4477TIP3   OH213373   3.365   3.327   2.998
 4477TIP3    H113374   3.297   3.373   2.950
 4477TIP3    H213375   3.441   3.386   2.996
 4478TIP3   OH213376   8.293   4.467   1.295
 4478TIP3    H113377   8.243   4.526   1.351
 4478TIP3    H213378   8.293   4.509   1.209
 4479TIP3   OH213379   7.632   7.704   2.283
 4479TIP3    H113380   7.573   7.631   2.306
 4479TIP3    H213381   7.658   7.740   2.368
 4480TIP3   OH213382   8.066   7.539   2.186
 4480TIP3    H113383   8.037   7.588   2.109
 4480TIP3    H213384   8.013   7.460   2.185
 4481TIP3   OH213385   4.747   4.397   2.806
 4481TIP3    H113386   4.768   4.318   2.757
 4481TIP3    H213387   4.817   4.404   2.871
 4482TIP3   OH213388   2.197   6.172   3.642
 4482TIP3    H113389   2.255   6.114   3.691
 4482TIP3    H213390   2.115   6.125   3.636
 4483TIP3   OH213391   5.786   2.594   2.594
 4483TIP3    H113392   5.859   2.555   2.642
 4483TIP3    H213393   5.739   2.519   2.557
 4484TIP3   OH213394   3.991   2.692   3.442
 4484TIP3    H113395   4.026   2.635   3.511
 4484TIP3    H213396   3.932   2.751   3.489
 4485TIP3   OH213397   6.073   0.184   5.941
 4485TIP3    H113398   6.150   0.189   5.998
 4485TIP3    H213399   6.048   0.092   5.941
 4486TIP3   OH213400   7.821   2.362   1.563
 4486TIP3    H113401   7.904   2.397   1.532
 4486TIP3    H213402   7.843   2.314   1.643
 4487TIP3   OH213403   4.504   1.023   0.924
 4487TIP3    H113404   4.575   1.051   0.982
 4487TIP3    H213405   4.445   1.098   0.919
 4488TIP3   OH213406   2.655   5.378   5.099
 4488TIP3    H113407   2.607   5.460   5.095
 4488TIP3    H213408   2.611   5.321   5.035
 4489TIP3   OH213409   3.453   6.797   4.812
 4489TIP3    H113410   3.398   6.718   4.811
 4489TIP3    H213411   3.413   6.855   4.747
 4490TIP3   OH213412   1.989   4.785   2.471
 4490TIP3    H113413   2.006   4.760   2.562
 4490TIP3    H213414   2.075   4.803   2.434
 4491TIP3   OH213415   7.554   1.725   5.292
 4491TIP3    H113416   7.639   1.717   5.336
 4491TIP3    H213417   7.567   1.687   5.206
 4492TIP3   OH213418   5.994   5.523   5.304
 4492TIP3    H113419   6.080   5.501   5.340
 4492TIP3    H213420   5.932   5.498   5.373
 4493TIP3   OH213421   5.244   5.418   3.935
 4493TIP3    H113422   5.198   5.500   3.917
 4493TIP3    H213423   5.216   5.359   3.865
 4494TIP3   OH213424   6.041   6.592   6.655
 4494TIP3    H113425   6.018   6.675   6.696
 4494TIP3    H213426   5.983   6.585   6.580
 4495TIP3   OH213427   2.153   7.697   1.103
 4495TIP3    H113428   2.062   7.720   1.119
 4495TIP3    H213429   2.176   7.637   1.174
 4496TIP3   OH213430   0.422   7.432   2.869
 4496TIP3    H113431   0.332   7.464   2.883
 4496TIP3    H213432   0.448   7.469   2.785
 4497TIP3   OH213433   0.871   0.862   0.336
 4497TIP3    H113434   0.848   0.842   0.426
 4497TIP3    H213435   0.801   0.823   0.284
 4498TIP3   OH213436   7.366   6.715   2.430
 4498TIP3    H113437   7.340   6.761   2.350
 4498TIP3    H213438   7.412   6.637   2.399
 4499TIP3   OH213439   3.540   0.462   4.762
 4499TIP3    H113440   3.542   0.367   4.765
 4499TIP3    H213441   3.521   0.489   4.851
 4500TIP3   OH213442   2.791   0.384   5.519
 4500TIP3    H113443   2.825   0.437   5.591
 4500TIP3    H213444   2.856   0.394   5.449
 4501TIP3   OH213445   3.936   0.260   2.070
 4501TIP3    H113446   3.970   0.195   2.132
 4501TIP3    H213447   3.920   0.338   2.123
 4502TIP3   OH213448   5.598   2.878   3.144
 4502TIP3    H113449   5.678   2.882   3.090
 4502TIP3    H213450   5.527   2.877   3.080
 4503TIP3   OH213451   1.026   0.960   4.785
 4503TIP3    H113452   1.111   0.992   4.817
 4503TIP3    H213453   1.048   0.884   4.731
 4504TIP3   OH213454   5.274   7.728   0.056
 4504TIP3    H113455   5.356   7.722   0.007
 4504TIP3    H213456   5.265   7.821   0.077
 4505TIP3   OH213457   7.838   1.061   2.355
 4505TIP3    H113458   7.866   1.019   2.436
 4505TIP3    H213459   7.746   1.083   2.370
 4506TIP3   OH213460   5.198   1.367   5.135
 4506TIP3    H113461   5.121   1.331   5.181
 4506TIP3    H213462   5.272   1.342   5.189
 4507TIP3   OH213463   1.547   6.526   1.746
 4507TIP3    H113464   1.527   6.512   1.654
 4507TIP3    H213465   1.642   6.520   1.751
 4508TIP3   OH213466   4.962   6.370   3.868
 4508TIP3    H113467   4.977   6.319   3.947
 4508TIP3    H213468   4.915   6.448   3.897
 4509TIP3   OH213469   3.683   7.711   4.349
 4509TIP3    H113470   3.625   7.699   4.424
 4509TIP3    H213471   3.771   7.693   4.384
 4510TIP3   OH213472   4.677   2.763   3.084
 4510TIP3    H113473   4.706   2.840   3.133
 4510TIP3    H213474   4.586   2.781   3.062
 4511TIP3   OH213475   7.945   7.236   4.022
 4511TIP3    H113476   7.912   7.248   4.111
 4511TIP3    H213477   7.866   7.226   3.969
 4512TIP3   OH213478   3.288   5.573   4.700
 4512TIP3    H113479   3.327   5.553   4.614
 4512TIP3    H213480   3.326   5.657   4.724
 4513TIP3   OH213481   5.687   4.761   3.052
 4513TIP3    H113482   5.708   4.835   3.108
 4513TIP3    H213483   5.769   4.741   3.007
 4514TIP3   OH213484   3.484   6.601   1.775
 4514TIP3    H113485   3.569   6.643   1.780
 4514TIP3    H213486   3.484   6.538   1.846
 4515TIP3   OH213487   2.355   1.539   1.458
 4515TIP3    H113488   2.370   1.458   1.507
 4515TIP3    H213489   2.384   1.608   1.517
 4516TIP3   OH213490   1.418   0.272   1.869
 4516TIP3    H113491   1.498   0.220   1.877
 4516TIP3    H213492   1.442   0.344   1.812
 4517TIP3   OH213493   5.064   0.307   0.100
 4517TIP3    H113494   5.089   0.224   0.059
 4517TIP3    H213495   5.089   0.297   0.192
 4518TIP3   OH213496   4.089   6.179   1.150
 4518TIP3    H113497   4.053   6.253   1.102
 4518TIP3    H213498   4.164   6.215   1.197
 4519TIP3   OH213499   5.073   0.749   0.563
 4519TIP3    H113500   4.997   0.693   0.546
 4519TIP3    H213501   5.129   0.697   0.621
 4520TIP3   OH213502   7.745   0.757   2.460
 4520TIP3    H113503   7.697   0.744   2.542
 4520TIP3    H213504   7.836   0.737   2.483
 4521TIP3   OH213505   3.468   5.584   1.520
 4521TIP3    H113506   3.475   5.545   1.432
 4521TIP3    H213507   3.479   5.510   1.579
 4522TIP3   OH213508   5.333   2.427   2.623
 4522TIP3    H113509   5.326   2.498   2.687
 4522TIP3    H213510   5.421   2.438   2.586
 4523TIP3   OH213511   8.104   3.752   2.216
 4523TIP3    H113512   8.041   3.693   2.174
 4523TIP3    H213513   8.107   3.828   2.159
 4524TIP3   OH213514   5.239   0.253   3.044
 4524TIP3    H113515   5.326   0.288   3.060
 4524TIP3    H213516   5.243   0.216   2.956
 4525TIP3   OH213517   7.207   1.438   0.761
 4525TIP3    H113518   7.232   1.491   0.837
 4525TIP3    H213519   7.111   1.438   0.762
 4526TIP3   OH213520   2.936   0.477   3.667
 4526TIP3    H113521   2.860   0.422   3.686
 4526TIP3    H213522   2.929   0.550   3.728
 4527TIP3   OH213523   3.382   5.827   2.586
 4527TIP3    H113524   3.313   5.893   2.578
 4527TIP3    H213525   3.344   5.759   2.641
 4528TIP3   OH213526   3.860   0.134   0.999
 4528TIP3    H113527   3.793   0.144   0.932
 4528TIP3    H213528   3.903   0.220   1.003
 4529TIP3   OH213529   8.194   2.351   1.007
 4529TIP3    H113530   8.130   2.302   1.059
 4529TIP3    H213531   8.273   2.350   1.061
 4530TIP3   OH213532   6.001   6.178   3.038
 4530TIP3    H113533   6.004   6.096   3.088
 4530TIP3    H213534   6.028   6.245   3.100
 4531TIP3   OH213535   0.684   3.817   4.598
 4531TIP3    H113536   0.670   3.738   4.650
 4531TIP3    H213537   0.759   3.795   4.542
 4532TIP3   OH213538   0.503   2.932   4.471
 4532TIP3    H113539   0.559   2.980   4.533
 4532TIP3    H213540   0.448   2.999   4.431
 4533TIP3   OH213541   1.158   2.064   5.647
 4533TIP3    H113542   1.119   1.982   5.677
 4533TIP3    H213543   1.092   2.101   5.588
 4534TIP3   OH213544   8.158   6.916   4.875
 4534TIP3    H113545   8.217   6.865   4.931
 4534TIP3    H213546   8.169   6.876   4.788
 4535TIP3   OH213547   0.829   1.710   5.741
 4535TIP3    H113548   0.845   1.768   5.815
 4535TIP3    H213549   0.781   1.764   5.678
 4536TIP3   OH213550   3.526   1.265   0.276
 4536TIP3    H113551   3.574   1.336   0.318
 4536TIP3    H213552   3.594   1.206   0.242
 4537TIP3   OH213553   7.886   4.106   6.482
 4537TIP3    H113554   7.802   4.105   6.526
 4537TIP3    H213555   7.882   4.181   6.423
 4538TIP3   OH213556   2.949   6.644   3.622
 4538TIP3    H113557   2.927   6.676   3.710
 4538TIP3    H213558   2.974   6.722   3.574
 4539TIP3   OH213559   6.427   4.711   4.817
 4539TIP3    H113560   6.337   4.682   4.832
 4539TIP3    H213561   6.481   4.651   4.869
 4540TIP3   OH213562   3.886   5.416   0.464
 4540TIP3    H113563   3.919   5.494   0.509
 4540TIP3    H213564   3.799   5.440   0.434
 4541TIP3   OH213565   5.966   3.728   0.496
 4541TIP3    H113566   5.940   3.692   0.581
 4541TIP3    H213567   6.027   3.798   0.518
 4542TIP3   OH213568   3.562   0.126   2.288
 4542TIP3    H113569   3.542   0.139   2.195
 4542TIP3    H213570   3.643   0.175   2.302
 4543TIP3   OH213571   7.636   1.283   0.492
 4543TIP3    H113572   7.576   1.292   0.419
 4543TIP3    H213573   7.718   1.253   0.453
 4544TIP3   OH213574   6.484   7.621   4.274
 4544TIP3    H113575   6.507   7.533   4.305
 4544TIP3    H213576   6.463   7.670   4.353
 4545TIP3   OH213577   6.908   0.999   1.912
 4545TIP3    H113578   6.877   1.041   1.832
 4545TIP3    H213579   6.843   0.931   1.930
 4546TIP3   OH213580   0.614   6.430   6.563
 4546TIP3    H113581   0.687   6.491   6.574
 4546TIP3    H213582   0.571   6.430   6.649
 4547TIP3   OH213583   3.057   3.002   3.287
 4547TIP3    H113584   3.147   2.992   3.315
 4547TIP3    H213585   3.049   2.945   3.210
 4548TIP3   OH213586   3.369   1.703   5.817
 4548TIP3    H113587   3.329   1.781   5.778
 4548TIP3    H213588   3.399   1.732   5.904
 4549TIP3   OH213589   0.909   5.879   1.460
 4549TIP3    H113590   0.917   5.899   1.553
 4549TIP3    H213591   0.862   5.954   1.423
 4550TIP3   OH213592   0.801   2.913   5.009
 4550TIP3    H113593   0.757   2.828   5.011
 4550TIP3    H213594   0.780   2.953   5.093
 4551TIP3   OH213595   0.178   0.258   6.070
 4551TIP3    H113596   0.243   0.315   6.029
 4551TIP3    H213597   0.230   0.195   6.120
 4552TIP3   OH213598   4.020   3.400   4.795
 4552TIP3    H113599   3.997   3.333   4.858
 4552TIP3    H213600   3.987   3.367   4.711
 4553TIP3   OH213601   5.686   1.438   5.746
 4553TIP3    H113602   5.674   1.416   5.654
 4553TIP3    H213603   5.781   1.432   5.759
 4554TIP3   OH213604   7.181   4.062   6.371
 4554TIP3    H113605   7.119   4.133   6.351
 4554TIP3    H213606   7.246   4.068   6.301
 4555TIP3   OH213607   3.220   7.730   6.071
 4555TIP3    H113608   3.291   7.674   6.101
 4555TIP3    H213609   3.211   7.710   5.978
 4556TIP3   OH213610   2.765   7.384   5.423
 4556TIP3    H113611   2.793   7.350   5.508
 4556TIP3    H213612   2.693   7.327   5.397
 4557TIP3   OH213613   2.997   4.598   4.177
 4557TIP3    H113614   2.962   4.510   4.193
 4557TIP3    H213615   3.086   4.583   4.145
 4558TIP3   OH213616   4.531   1.473   2.747
 4558TIP3    H113617   4.598   1.412   2.715
 4558TIP3    H213618   4.502   1.520   2.669
 4559TIP3   OH213619   1.615   2.724   1.153
 4559TIP3    H113620   1.534   2.676   1.169
 4559TIP3    H213621   1.612   2.797   1.215
 4560TIP3   OH213622   5.603   7.252   3.793
 4560TIP3    H113623   5.686   7.288   3.761
 4560TIP3    H213624   5.544   7.327   3.798
 4561TIP3   OH213625   7.874   0.489   5.478
 4561TIP3    H113626   7.817   0.492   5.555
 4561TIP3    H213627   7.956   0.528   5.507
 4562TIP3   OH213628   0.182   5.801   3.025
 4562TIP3    H113629   0.259   5.858   3.026
 4562TIP3    H213630   0.112   5.858   2.993
 4563TIP3   OH213631   0.310   7.118   2.784
 4563TIP3    H113632   0.237   7.082   2.834
 4563TIP3    H213633   0.347   7.186   2.840
 4564TIP3   OH213634   1.229   0.698   0.452
 4564TIP3    H113635   1.200   0.630   0.391
 4564TIP3    H213636   1.293   0.749   0.403
 4565TIP3   OH213637   6.512   2.105   3.566
 4565TIP3    H113638   6.537   2.179   3.622
 4565TIP3    H213639   6.430   2.073   3.604
 4566TIP3   OH213640   7.306   3.525   2.143
 4566TIP3    H113641   7.354   3.557   2.067
 4566TIP3    H213642   7.226   3.486   2.106
 4567TIP3   OH213643   0.660   7.320   3.854
 4567TIP3    H113644   0.581   7.285   3.894
 4567TIP3    H213645   0.683   7.256   3.787
 4568TIP3   OH213646   2.141   0.782   3.575
 4568TIP3    H113647   2.198   0.850   3.608
 4568TIP3    H213648   2.186   0.748   3.497
 4569TIP3   OH213649   4.662   2.603   4.227
 4569TIP3    H113650   4.585   2.616   4.170
 4569TIP3    H213651   4.699   2.520   4.199
 4570TIP3   OH213652   6.364   0.612   3.527
 4570TIP3    H113653   6.280   0.655   3.546
 4570TIP3    H213654   6.339   0.532   3.480
 4571TIP3   OH213655   5.200   0.055   3.652
 4571TIP3    H113656   5.126   0.015   3.697
 4571TIP3    H213657   5.195   0.021   3.563
 4572TIP3   OH213658   2.098   3.656   2.690
 4572TIP3    H113659   2.146   3.640   2.609
 4572TIP3    H213660   2.155   3.623   2.759
 4573TIP3   OH213661   7.616   1.699   5.686
 4573TIP3    H113662   7.602   1.792   5.668
 4573TIP3    H213663   7.650   1.698   5.776
 4574TIP3   OH213664   0.414   3.224   0.031
 4574TIP3    H113665   0.370   3.261  -0.045
 4574TIP3    H213666   0.345   3.217   0.097
 4575TIP3   OH213667   0.765   1.600   6.103
 4575TIP3    H113668   0.789   1.546   6.027
 4575TIP3    H213669   0.748   1.687   6.067
 4576TIP3   OH213670   7.168   1.482   0.084
 4576TIP3    H113671   7.202   1.402   0.124
 4576TIP3    H213672   7.090   1.503   0.135
 4577TIP3   OH213673   4.962   7.233   0.474
 4577TIP3    H113674   4.945   7.271   0.388
 4577TIP3    H213675   5.011   7.153   0.456
 4578TIP3   OH213676   0.541   3.595   4.866
 4578TIP3    H113677   0.490   3.522   4.902
 4578TIP3    H213678   0.477   3.665   4.854
 4579TIP3   OH213679   0.713   0.054   1.513
 4579TIP3    H113680   0.740   0.141   1.540
 4579TIP3    H213681   0.794   0.010   1.489
 4580TIP3   OH213682   4.880   2.257   2.219
 4580TIP3    H113683   4.838   2.202   2.285
 4580TIP3    H213684   4.964   2.214   2.202
 4581TIP3   OH213685   1.735   1.631   3.442
 4581TIP3    H113686   1.648   1.597   3.464
 4581TIP3    H213687   1.781   1.556   3.403
 4582TIP3   OH213688   7.567  -0.011   2.475
 4582TIP3    H113689   7.501   0.047   2.512
 4582TIP3    H213690   7.549  -0.011   2.381
 4583TIP3   OH213691   5.866   5.285   4.694
 4583TIP3    H113692   5.889   5.216   4.755
 4583TIP3    H213693   5.886   5.248   4.608
 4584TIP3   OH213694   0.346   3.700   1.034
 4584TIP3    H113695   0.348   3.613   1.074
 4584TIP3    H213696   0.422   3.745   1.071
 4585TIP3   OH213697   3.571   0.328   0.939
 4585TIP3    H113698   3.520   0.409   0.948
 4585TIP3    H213699   3.628   0.328   1.016
 4586TIP3   OH213700   3.547   1.275   3.665
 4586TIP3    H113701   3.615   1.215   3.633
 4586TIP3    H213702   3.580   1.362   3.644
 4587TIP3   OH213703   2.520   0.948   0.337
 4587TIP3    H113704   2.457   0.878   0.316
 4587TIP3    H213705   2.478   0.999   0.406
 4588TIP3   OH213706   6.014   6.159   4.325
 4588TIP3    H113707   5.974   6.228   4.378
 4588TIP3    H213708   6.104   6.191   4.310
 4589TIP3   OH213709   7.890   2.132   0.332
 4589TIP3    H113710   7.951   2.067   0.298
 4589TIP3    H213711   7.866   2.099   0.419
 4590TIP3   OH213712   6.347   1.777   2.802
 4590TIP3    H113713   6.289   1.766   2.727
 4590TIP3    H213714   6.403   1.699   2.799
 4591TIP3   OH213715   4.663   1.435   1.461
 4591TIP3    H113716   4.629   1.434   1.372
 4591TIP3    H213717   4.644   1.523   1.493
 4592TIP3   OH213718   0.163   1.240   3.317
 4592TIP3    H113719   0.165   1.326   3.358
 4592TIP3    H213720   0.087   1.241   3.260
 4593TIP3   OH213721   6.340   3.707   4.972
 4593TIP3    H113722   6.406   3.638   4.981
 4593TIP3    H213723   6.369   3.758   4.896
 4594TIP3   OH213724   2.263   1.347   4.433
 4594TIP3    H113725   2.184   1.337   4.486
 4594TIP3    H213726   2.232   1.373   4.347
 4595TIP3   OH213727   0.518   2.722   0.740
 4595TIP3    H113728   0.467   2.741   0.819
 4595TIP3    H213729   0.504   2.799   0.684
 4596TIP3   OH213730   6.521   7.014   2.650
 4596TIP3    H113731   6.556   6.927   2.669
 4596TIP3    H213732   6.441   7.018   2.703
 4597TIP3   OH213733   2.802   5.876   0.090
 4597TIP3    H113734   2.859   5.857   0.016
 4597TIP3    H213735   2.716   5.844   0.063
 4598TIP3   OH213736   4.906   7.696   1.383
 4598TIP3    H113737   4.976   7.648   1.339
 4598TIP3    H213738   4.895   7.776   1.331
 4599TIP3   OH213739   7.172   7.250   2.779
 4599TIP3    H113740   7.137   7.207   2.857
 4599TIP3    H213741   7.239   7.190   2.746
 4600TIP3   OH213742   4.689   2.001   3.785
 4600TIP3    H113743   4.659   2.088   3.810
 4600TIP3    H213744   4.781   2.013   3.761
 4601TIP3   OH213745   7.129   1.213   2.166
 4601TIP3    H113746   7.106   1.186   2.255
 4601TIP3    H213747   7.219   1.245   2.173
 4602TIP3   OH213748   4.037   1.782   3.148
 4602TIP3    H113749   4.096   1.707   3.144
 4602TIP3    H213750   4.079   1.849   3.093
 4603TIP3   OH213751   7.321   4.611   1.664
 4603TIP3    H113752   7.362   4.568   1.589
 4603TIP3    H213753   7.369   4.579   1.740
 4604TIP3   OH213754   4.783   3.923   0.055
 4604TIP3    H113755   4.865   3.873   0.058
 4604TIP3    H213756   4.808   4.006   0.016
 4605TIP3   OH213757   2.349   5.678   5.609
 4605TIP3    H113758   2.377   5.695   5.519
 4605TIP3    H213759   2.320   5.764   5.641
 4606TIP3   OH213760   4.342   4.276   4.463
 4606TIP3    H113761   4.371   4.362   4.493
 4606TIP3    H213762   4.397   4.214   4.511
 4607TIP3   OH213763   5.938   6.968   5.674
 4607TIP3    H113764   5.864   6.999   5.728
 4607TIP3    H213765   6.013   7.017   5.707
 4608TIP3   OH213766   4.365   4.259   3.411
 4608TIP3    H113767   4.316   4.285   3.333
 4608TIP3    H213768   4.376   4.164   3.402
 4609TIP3   OH213769   1.384   5.789   5.201
 4609TIP3    H113770   1.351   5.767   5.288
 4609TIP3    H213771   1.338   5.870   5.178
 4610TIP3   OH213772   7.192   6.198   0.232
 4610TIP3    H113773   7.125   6.174   0.297
 4610TIP3    H213774   7.217   6.287   0.255
 4611TIP3   OH213775   1.405   6.272   3.740
 4611TIP3    H113776   1.312   6.279   3.717
 4611TIP3    H213777   1.418   6.338   3.808
 4612TIP3   OH213778   7.047   6.905   6.535
 4612TIP3    H113779   7.049   6.826   6.481
 4612TIP3    H213780   6.991   6.966   6.487
 4613TIP3   OH213781   8.100   7.544   4.144
 4613TIP3    H113782   8.132   7.620   4.192
 4613TIP3    H213783   8.030   7.509   4.200
 4614TIP3   OH213784   4.306   5.505   2.817
 4614TIP3    H113785   4.319   5.438   2.885
 4614TIP3    H213786   4.213   5.526   2.822
 4615TIP3   OH213787   2.443   6.794   5.598
 4615TIP3    H113788   2.437   6.846   5.517
 4615TIP3    H213789   2.525   6.745   5.589
 4616TIP3   OH213790   7.502   3.530   4.356
 4616TIP3    H113791   7.479   3.487   4.273
 4616TIP3    H213792   7.439   3.495   4.419
 4617TIP3   OH213793   2.336   1.809   5.379
 4617TIP3    H113794   2.271   1.747   5.412
 4617TIP3    H213795   2.417   1.786   5.422
 4618TIP3   OH213796   1.124   1.336   2.461
 4618TIP3    H113797   1.154   1.282   2.388
 4618TIP3    H213798   1.200   1.344   2.519
 4619TIP3   OH213799   7.563   6.907   0.353
 4619TIP3    H113800   7.626   6.870   0.292
 4619TIP3    H213801   7.577   7.002   0.347
 4620TIP3   OH213802   6.176   7.343   1.711
 4620TIP3    H113803   6.121   7.274   1.747
 4620TIP3    H213804   6.157   7.341   1.617
 4621TIP3   OH213805   4.834   4.578   4.820
 4621TIP3    H113806   4.818   4.540   4.906
 4621TIP3    H213807   4.898   4.647   4.836
 4622TIP3   OH213808   0.345   3.406   1.127
 4622TIP3    H113809   0.350   3.377   1.219
 4622TIP3    H213810   0.251   3.411   1.109
 4623TIP3   OH213811   1.851   2.823   5.090
 4623TIP3    H113812   1.760   2.853   5.087
 4623TIP3    H213813   1.849   2.739   5.044
 4624TIP3   OH213814   5.309   6.003   3.093
 4624TIP3    H113815   5.388   6.052   3.071
 4624TIP3    H213816   5.249   6.069   3.129
 4625TIP3   OH213817   2.078   5.109   3.871
 4625TIP3    H113818   2.150   5.124   3.933
 4625TIP3    H213819   2.024   5.043   3.914
 4626TIP3   OH213820   7.551   5.827   5.787
 4626TIP3    H113821   7.603   5.904   5.765
 4626TIP3    H213822   7.607   5.776   5.846
 4627TIP3   OH213823   4.231   6.833   1.158
 4627TIP3    H113824   4.252   6.917   1.198
 4627TIP3    H213825   4.297   6.821   1.090
 4628TIP3   OH213826   5.062   7.705   2.992
 4628TIP3    H113827   4.975   7.690   2.955
 4628TIP3    H213828   5.118   7.726   2.916
 4629TIP3   OH213829   3.311   0.263   2.095
 4629TIP3    H113830   3.218   0.276   2.076
 4629TIP3    H213831   3.327   0.170   2.075
 4630TIP3   OH213832   5.245   3.549   5.127
 4630TIP3    H113833   5.193   3.538   5.206
 4630TIP3    H213834   5.333   3.569   5.159
 4631TIP3   OH213835   4.394   0.740   1.989
 4631TIP3    H113836   4.402   0.682   2.064
 4631TIP3    H213837   4.361   0.684   1.918
 4632TIP3   OH213838   1.378   7.784   2.559
 4632TIP3    H113839   1.343   7.808   2.645
 4632TIP3    H213840   1.330   7.704   2.536
 4633TIP3   OH213841   7.689   6.144   5.976
 4633TIP3    H113842   7.694   6.233   6.012
 4633TIP3    H213843   7.719   6.153   5.886
 4634TIP3   OH213844   5.588   5.953   0.673
 4634TIP3    H113845   5.618   5.930   0.585
 4634TIP3    H213846   5.517   5.892   0.691
 4635TIP3   OH213847   7.158   5.271   4.937
 4635TIP3    H113848   7.084   5.224   4.976
 4635TIP3    H213849   7.213   5.295   5.012
 4636TIP3   OH213850   7.022   7.371   5.319
 4636TIP3    H113851   7.062   7.386   5.234
 4636TIP3    H213852   6.929   7.355   5.299
 4637TIP3   OH213853   6.127   0.722   1.388
 4637TIP3    H113854   6.211   0.769   1.384
 4637TIP3    H213855   6.073   0.765   1.322
 4638TIP3   OH213856   1.466   6.297   6.158
 4638TIP3    H113857   1.554   6.328   6.139
 4638TIP3    H213858   1.463   6.208   6.121
 4639TIP3   OH213859   5.179   5.185   2.244
 4639TIP3    H113860   5.106   5.172   2.184
 4639TIP3    H213861   5.257   5.161   2.194
 4640TIP3   OH213862   7.275   6.441   6.410
 4640TIP3    H113863   7.350   6.432   6.470
 4640TIP3    H213864   7.278   6.360   6.358
 4641TIP3   OH213865   0.365   6.839   1.218
 4641TIP3    H113866   0.389   6.928   1.191
 4641TIP3    H213867   0.448   6.798   1.242
 4642TIP3   OH213868   3.951   5.017   6.556
 4642TIP3    H113869   4.003   5.003   6.635
 4642TIP3    H213870   4.015   5.035   6.488
 4643TIP3   OH213871   6.308   0.892   2.227
 4643TIP3    H113872   6.353   0.813   2.196
 4643TIP3    H213873   6.369   0.963   2.209
 4644TIP3   OH213874   5.815   4.291   1.252
 4644TIP3    H113875   5.808   4.346   1.174
 4644TIP3    H213876   5.761   4.335   1.318
 4645TIP3   OH213877   6.099   0.445   1.189
 4645TIP3    H113878   6.061   0.505   1.125
 4645TIP3    H213879   6.133   0.502   1.258
 4646TIP3   OH213880   8.055   5.348   3.710
 4646TIP3    H113881   8.108   5.280   3.752
 4646TIP3    H213882   8.068   5.426   3.764
 4647TIP3   OH213883   5.969   5.292   6.216
 4647TIP3    H113884   5.927   5.246   6.289
 4647TIP3    H213885   5.926   5.378   6.215
 4648TIP3   OH213886   3.912   6.560   0.603
 4648TIP3    H113887   3.928   6.510   0.523
 4648TIP3    H213888   3.936   6.650   0.581
 4649TIP3   OH213889   6.138   0.542   4.879
 4649TIP3    H113890   6.141   0.589   4.962
 4649TIP3    H213891   6.073   0.473   4.892
 4650TIP3   OH213892   7.702   5.682   1.639
 4650TIP3    H113893   7.685   5.660   1.547
 4650TIP3    H213894   7.617   5.709   1.674
 4651TIP3   OH213895   5.412   5.061   6.393
 4651TIP3    H113896   5.431   5.124   6.324
 4651TIP3    H213897   5.318   5.043   6.383
 4652TIP3   OH213898   7.414   2.157   6.499
 4652TIP3    H113899   7.453   2.244   6.509
 4652TIP3    H213900   7.487   2.100   6.477
 4653TIP3   OH213901   3.057   0.275   2.461
 4653TIP3    H113902   3.002   0.293   2.537
 4653TIP3    H213903   3.143   0.254   2.498
 4654TIP3   OH213904   3.703   3.452   0.231
 4654TIP3    H113905   3.750   3.458   0.147
 4654TIP3    H213906   3.770   3.425   0.294
 4655TIP3   OH213907   8.136   0.700   3.210
 4655TIP3    H113908   8.110   0.613   3.180
 4655TIP3    H213909   8.213   0.685   3.264
 4656TIP3   OH213910   2.704   3.834   4.822
 4656TIP3    H113911   2.695   3.740   4.804
 4656TIP3    H213912   2.783   3.860   4.774
 4657TIP3   OH213913   0.207   3.089   3.673
 4657TIP3    H113914   0.296   3.102   3.638
 4657TIP3    H213915   0.221   3.041   3.754
 4658TIP3   OH213916   5.708   6.379   2.587
 4658TIP3    H113917   5.714   6.421   2.673
 4658TIP3    H213918   5.796   6.386   2.550
 4659TIP3   OH213919   1.314   6.307   5.847
 4659TIP3    H113920   1.305   6.399   5.821
 4659TIP3    H213921   1.266   6.258   5.779
 4660TIP3   OH213922   1.095   4.062   1.662
 4660TIP3    H113923   1.004   4.051   1.688
 4660TIP3    H213924   1.134   3.976   1.672
 4661TIP3   OH213925   3.893   3.219   3.811
 4661TIP3    H113926   3.804   3.188   3.824
 4661TIP3    H213927   3.936   3.149   3.762
 4662TIP3   OH213928   0.337   0.412   5.745
 4662TIP3    H113929   0.275   0.351   5.704
 4662TIP3    H213930   0.291   0.496   5.747
 4663TIP3   OH213931   4.028   0.552   6.382
 4663TIP3    H113932   3.943   0.551   6.338
 4663TIP3    H213933   4.058   0.461   6.381
 4664TIP3   OH213934   4.732   2.357   1.364
 4664TIP3    H113935   4.824   2.377   1.350
 4664TIP3    H213936   4.699   2.333   1.277
 4665TIP3   OH213937   0.417   4.144   1.053
 4665TIP3    H113938   0.510   4.165   1.053
 4665TIP3    H213939   0.412   4.054   1.020
 4666TIP3   OH213940   2.203   6.655   0.693
 4666TIP3    H113941   2.140   6.724   0.672
 4666TIP3    H213942   2.182   6.631   0.784
 4667TIP3   OH213943   7.685   5.796   3.997
 4667TIP3    H113944   7.666   5.709   3.960
 4667TIP3    H213945   7.607   5.848   3.977
 4668TIP3   OH213946   3.940   5.145   0.192
 4668TIP3    H113947   3.988   5.197   0.128
 4668TIP3    H213948   3.928   5.060   0.149
 4669TIP3   OH213949   3.487   5.778   6.184
 4669TIP3    H113950   3.457   5.687   6.194
 4669TIP3    H213951   3.407   5.828   6.167
 4670TIP3   OH213952   1.047   7.617   0.250
 4670TIP3    H113953   1.073   7.696   0.203
 4670TIP3    H213954   1.024   7.648   0.338
 4671TIP3   OH213955   2.693   0.834   6.262
 4671TIP3    H113956   2.671   0.883   6.341
 4671TIP3    H213957   2.784   0.856   6.244
 4672TIP3   OH213958   2.725   6.129   2.621
 4672TIP3    H113959   2.764   6.145   2.535
 4672TIP3    H213960   2.699   6.037   2.619
 4673TIP3   OH213961   3.275   2.735   6.157
 4673TIP3    H113962   3.245   2.818   6.119
 4673TIP3    H213963   3.196   2.682   6.165
 4674TIP3   OH213964   5.094   2.006   2.180
 4674TIP3    H113965   5.159   1.995   2.111
 4674TIP3    H213966   5.141   2.048   2.252
 4675TIP3   OH213967   8.093   2.304   6.703
 4675TIP3    H113968   8.064   2.349   6.782
 4675TIP3    H213969   8.160   2.361   6.665
 4676TIP3   OH213970   0.045   0.126   6.359
 4676TIP3    H113971   0.099   0.121   6.438
 4676TIP3    H213972   0.044   0.219   6.336
 4677TIP3   OH213973   8.268   2.886   3.843
 4677TIP3    H113974   8.222   2.902   3.926
 4677TIP3    H213975   8.259   2.792   3.829
 4678TIP3   OH213976   1.725   4.387   4.123
 4678TIP3    H113977   1.747   4.320   4.058
 4678TIP3    H213978   1.808   4.431   4.141
 4679TIP3   OH213979   6.058   1.083   0.586
 4679TIP3    H113980   6.100   1.111   0.505
 4679TIP3    H213981   6.070   0.988   0.588
 4680TIP3   OH213982   7.231   0.998   2.008
 4680TIP3    H113983   7.139   0.988   1.983
 4680TIP3    H213984   7.232   1.072   2.068
 4681TIP3   OH213985   5.811   4.643   4.752
 4681TIP3    H113986   5.763   4.592   4.687
 4681TIP3    H213987   5.823   4.583   4.826
 4682TIP3   OH213988   6.063   6.476   0.496
 4682TIP3    H113989   6.102   6.562   0.507
 4682TIP3    H213990   6.136   6.420   0.467
 4683TIP3   OH213991   2.220   3.060   2.810
 4683TIP3    H113992   2.143   3.081   2.757
 4683TIP3    H213993   2.284   3.128   2.788
 4684TIP3   OH213994   3.059   4.792   4.642
 4684TIP3    H113995   3.059   4.887   4.633
 4684TIP3    H213996   2.995   4.761   4.578
 4685TIP3   OH213997   3.310   4.063   0.259
 4685TIP3    H113998   3.240   4.037   0.198
 4685TIP3    H213999   3.265   4.118   0.324
 4686TIP3   OH214000   5.981   2.512   5.459
 4686TIP3    H114001   5.962   2.528   5.366
 4686TIP3    H214002   5.911   2.454   5.488
 4687TIP3   OH214003   1.029   5.918   6.724
 4687TIP3    H114004   1.022   6.005   6.684
 4687TIP3    H214005   1.027   5.857   6.650
 4688TIP3   OH214006   8.230   2.951   0.680
 4688TIP3    H114007   8.151   2.940   0.627
 4688TIP3    H214008   8.199   2.992   0.761
 4689TIP3   OH214009   3.025   1.215   1.044
 4689TIP3    H114010   3.056   1.295   1.087
 4689TIP3    H214011   2.995   1.244   0.958
 4690TIP3   OH214012   7.445   4.861   0.814
 4690TIP3    H114013   7.478   4.902   0.734
 4690TIP3    H214014   7.473   4.770   0.808
 4691TIP3   OH214015   5.701   1.043   1.040
 4691TIP3    H114016   5.639   0.998   1.097
 4691TIP3    H214017   5.658   1.124   1.015
 4692TIP3   OH214018   2.288   3.024   5.323
 4692TIP3    H114019   2.249   3.070   5.398
 4692TIP3    H214020   2.221   3.030   5.254
 4693TIP3   OH214021   1.907   1.976   6.210
 4693TIP3    H114022   1.985   1.988   6.264
 4693TIP3    H214023   1.874   2.064   6.195
 4694TIP3   OH214024   7.750   5.170   2.149
 4694TIP3    H114025   7.747   5.207   2.061
 4694TIP3    H214026   7.745   5.075   2.135
 4695TIP3   OH214027   6.093   6.741   0.092
 4695TIP3    H114028   6.032   6.686   0.140
 4695TIP3    H214029   6.131   6.683   0.026
 4696TIP3   OH214030   4.594   3.609   0.905
 4696TIP3    H114031   4.584   3.524   0.863
 4696TIP3    H214032   4.530   3.608   0.977
 4697TIP3   OH214033   7.264   4.478   4.256
 4697TIP3    H114034   7.240   4.534   4.329
 4697TIP3    H214035   7.211   4.510   4.183
 4698TIP3   OH214036   7.849   4.221   3.129
 4698TIP3    H114037   7.813   4.239   3.042
 4698TIP3    H214038   7.775   4.232   3.189
 4699TIP3   OH214039   1.374   3.580   4.064
 4699TIP3    H114040   1.287   3.541   4.069
 4699TIP3    H214041   1.372   3.631   3.983
 4700TIP3   OH214042   1.147   7.385   6.185
 4700TIP3    H114043   1.082   7.422   6.126
 4700TIP3    H214044   1.231   7.410   6.148
 4701TIP3   OH214045   2.630   1.592   1.804
 4701TIP3    H114046   2.654   1.682   1.826
 4701TIP3    H214047   2.624   1.548   1.889
 4702TIP3   OH214048   0.617   1.183   3.333
 4702TIP3    H114049   0.591   1.246   3.266
 4702TIP3    H214050   0.634   1.237   3.411
 4703TIP3   OH214051   5.846   7.804   3.715
 4703TIP3    H114052   5.823   7.888   3.675
 4703TIP3    H214053   5.766   7.752   3.710
 4704TIP3   OH214054   1.419   5.175   1.286
 4704TIP3    H114055   1.448   5.227   1.211
 4704TIP3    H214056   1.500   5.136   1.320
 4705TIP3   OH214057   7.720   2.671   4.345
 4705TIP3    H114058   7.632   2.654   4.377
 4705TIP3    H214059   7.728   2.766   4.346
 4706TIP3   OH214060   0.994   2.286   1.274
 4706TIP3    H114061   0.908   2.266   1.238
 4706TIP3    H214062   1.022   2.365   1.229
 4707TIP3   OH214063   6.046   2.403   6.568
 4707TIP3    H114064   5.962   2.415   6.614
 4707TIP3    H214065   6.102   2.472   6.604
 4708TIP3   OH214066   7.358   0.533   1.086
 4708TIP3    H114067   7.359   0.532   1.181
 4708TIP3    H214068   7.286   0.475   1.062
 4709TIP3   OH214069   3.349   6.389   1.918
 4709TIP3    H114070   3.285   6.402   1.848
 4709TIP3    H214071   3.298   6.359   1.993
 4710TIP3   OH214072   3.120   6.821   5.268
 4710TIP3    H114073   3.184   6.756   5.238
 4710TIP3    H214074   3.042   6.769   5.288
 4711TIP3   OH214075   3.949   0.717   1.185
 4711TIP3    H114076   3.931   0.663   1.262
 4711TIP3    H214077   3.867   0.720   1.137
 4712TIP3   OH214078   4.065   6.908   2.769
 4712TIP3    H114079   3.985   6.935   2.724
 4712TIP3    H214080   4.135   6.950   2.720
 4713TIP3   OH214081   0.423   4.035   6.396
 4713TIP3    H114082   0.477   4.111   6.414
 4713TIP3    H214083   0.391   4.007   6.482
 4714TIP3   OH214084   2.686   7.662   5.542
 4714TIP3    H114085   2.628   7.639   5.470
 4714TIP3    H214086   2.751   7.592   5.545
 4715TIP3   OH214087   4.001   6.389   4.921
 4715TIP3    H114088   4.071   6.339   4.878
 4715TIP3    H214089   3.947   6.323   4.963
 4716TIP3   OH214090   2.783   0.799   0.454
 4716TIP3    H114091   2.786   0.844   0.538
 4716TIP3    H214092   2.731   0.857   0.398
 4717TIP3   OH214093   1.056   0.737   3.207
 4717TIP3    H114094   1.058   0.646   3.180
 4717TIP3    H214095   1.146   0.756   3.234
 4718TIP3   OH214096   0.079   3.346   1.312
 4718TIP3    H114097   0.079   3.407   1.239
 4718TIP3    H214098   0.038   3.267   1.277
 4719TIP3   OH214099   4.689   1.176   5.597
 4719TIP3    H114100   4.713   1.260   5.638
 4719TIP3    H214101   4.735   1.110   5.649
 4720TIP3   OH214102   3.029   2.658   6.113
 4720TIP3    H114103   3.017   2.750   6.139
 4720TIP3    H214104   3.069   2.663   6.027
 4721TIP3   OH214105   3.531   0.913   6.744
 4721TIP3    H114106   3.573   0.856   6.808
 4721TIP3    H214107   3.601   0.935   6.682
 4722TIP3   OH214108   2.792   6.989   2.660
 4722TIP3    H114109   2.717   6.953   2.612
 4722TIP3    H214110   2.858   6.919   2.656
 4723TIP3   OH214111   4.378   1.922   3.372
 4723TIP3    H114112   4.415   1.908   3.459
 4723TIP3    H214113   4.425   1.862   3.315
 4724TIP3   OH214114   2.889   4.110   3.334
 4724TIP3    H114115   2.958   4.055   3.297
 4724TIP3    H214116   2.879   4.079   3.424
 4725TIP3   OH214117   7.120   7.445   1.729
 4725TIP3    H114118   7.085   7.368   1.773
 4725TIP3    H214119   7.101   7.517   1.790
 4726TIP3   OH214120   2.522   7.806   2.572
 4726TIP3    H114121   2.586   7.735   2.582
 4726TIP3    H214122   2.439   7.760   2.555
 4727TIP3   OH214123   7.891   2.108   2.050
 4727TIP3    H114124   7.925   2.131   2.137
 4727TIP3    H214125   7.803   2.074   2.067
 4728TIP3   OH214126   3.037   3.816   2.542
 4728TIP3    H114127   2.999   3.747   2.596
 4728TIP3    H214128   2.965   3.846   2.487
 4729TIP3   OH214129   0.975   5.116   4.709
 4729TIP3    H114130   0.901   5.140   4.654
 4729TIP3    H214131   0.947   5.036   4.755
 4730TIP3   OH214132   6.708   2.245   4.446
 4730TIP3    H114133   6.708   2.180   4.376
 4730TIP3    H214134   6.795   2.285   4.441
 4731TIP3   OH214135   5.884   7.755   2.372
 4731TIP3    H114136   5.888   7.794   2.285
 4731TIP3    H214137   5.844   7.823   2.427
 4732TIP3   OH214138   6.006   5.476   3.516
 4732TIP3    H114139   5.929   5.493   3.461
 4732TIP3    H214140   6.038   5.563   3.540
 4733TIP3   OH214141   0.913   5.038   0.211
 4733TIP3    H114142   0.851   4.979   0.255
 4733TIP3    H214143   0.859   5.086   0.148
 4734TIP3   OH214144   5.790   4.956   4.347
 4734TIP3    H114145   5.720   5.022   4.344
 4734TIP3    H214146   5.865   4.999   4.306
 4735TIP3   OH214147   7.576   6.755   0.834
 4735TIP3    H114148   7.589   6.823   0.768
 4735TIP3    H214149   7.663   6.740   0.871
 4736TIP3   OH214150   5.126   2.957   6.055
 4736TIP3    H114151   5.047   2.994   6.017
 4736TIP3    H214152   5.103   2.866   6.074
 4737TIP3   OH214153   7.748   5.778   5.264
 4737TIP3    H114154   7.734   5.872   5.279
 4737TIP3    H214155   7.784   5.773   5.176
 4738TIP3   OH214156   4.073   7.660   6.000
 4738TIP3    H114157   4.121   7.733   5.962
 4738TIP3    H214158   4.125   7.632   6.075
 4739TIP3   OH214159   3.227   6.368   3.606
 4739TIP3    H114160   3.136   6.396   3.617
 4739TIP3    H214161   3.277   6.449   3.607
 4740TIP3   OH214162   5.267   3.471   6.576
 4740TIP3    H114163   5.293   3.415   6.649
 4740TIP3    H214164   5.334   3.539   6.573
 4741TIP3   OH214165   1.278   7.629   2.860
 4741TIP3    H114166   1.361   7.588   2.836
 4741TIP3    H214167   1.302   7.693   2.928
 4742TIP3   OH214168   5.070   6.127   3.233
 4742TIP3    H114169   5.097   6.075   3.308
 4742TIP3    H214170   4.975   6.114   3.227
 4743TIP3   OH214171   0.469   4.621   5.762
 4743TIP3    H114172   0.561   4.645   5.754
 4743TIP3    H214173   0.466   4.528   5.739
 4744TIP3   OH214174   7.714   0.159   3.949
 4744TIP3    H114175   7.725   0.093   4.017
 4744TIP3    H214176   7.667   0.114   3.879
 4745TIP3   OH214177   1.938   2.954   0.049
 4745TIP3    H114178   1.852   2.979   0.084
 4745TIP3    H214179   1.918   2.900  -0.028
 4746TIP3   OH214180   8.352   6.304   3.308
 4746TIP3    H114181   8.313   6.340   3.228
 4746TIP3    H214182   8.316   6.358   3.379
 4747TIP3   OH214183   5.179   0.351   3.484
 4747TIP3    H114184   5.241   0.283   3.459
 4747TIP3    H214185   5.093   0.309   3.476
 4748TIP3   OH214186   2.753   4.425   1.867
 4748TIP3    H114187   2.686   4.461   1.810
 4748TIP3    H214188   2.764   4.491   1.936
 4749TIP3   OH214189   3.591   5.177   6.447
 4749TIP3    H114190   3.639   5.203   6.525
 4749TIP3    H214191   3.651   5.119   6.399
 4750TIP3   OH214192   7.529   4.653   1.946
 4750TIP3    H114193   7.575   4.604   2.014
 4750TIP3    H214194   7.437   4.651   1.973
 4751TIP3   OH214195   0.019   4.557   6.228
 4751TIP3    H114196   0.014   4.623   6.159
 4751TIP3    H214197   0.111   4.529   6.227
 4752TIP3   OH214198   2.108   4.316   0.442
 4752TIP3    H114199   2.105   4.288   0.534
 4752TIP3    H214200   2.034   4.271   0.401
 4753TIP3   OH214201   2.076   3.526   3.129
 4753TIP3    H114202   2.132   3.449   3.118
 4753TIP3    H214203   2.137   3.599   3.143
 4754TIP3   OH214204   7.351   2.219   3.702
 4754TIP3    H114205   7.407   2.203   3.778
 4754TIP3    H214206   7.306   2.301   3.723
 4755TIP3   OH214207   1.519   0.935   1.547
 4755TIP3    H114208   1.580   0.882   1.495
 4755TIP3    H214209   1.540   0.913   1.638
 4756TIP3   OH214210   7.358   4.192   0.827
 4756TIP3    H114211   7.331   4.283   0.812
 4756TIP3    H214212   7.452   4.191   0.811
 4757TIP3   OH214213   0.490   5.143   4.283
 4757TIP3    H114214   0.583   5.165   4.279
 4757TIP3    H214215   0.454   5.204   4.347
 4758TIP3   OH214216   2.855   3.044   4.795
 4758TIP3    H114217   2.813   2.962   4.769
 4758TIP3    H214218   2.847   3.046   4.891
 4759TIP3   OH214219   5.354   4.049   1.869
 4759TIP3    H114220   5.297   4.102   1.813
 4759TIP3    H214221   5.441   4.058   1.831
 4760TIP3   OH214222   6.086   7.660   4.574
 4760TIP3    H114223   6.085   7.574   4.615
 4760TIP3    H214224   6.177   7.671   4.544
 4761TIP3   OH214225   3.967   0.502   1.836
 4761TIP3    H114226   3.904   0.444   1.792
 4761TIP3    H214227   3.970   0.470   1.926
 4762TIP3   OH214228   1.094   0.862   4.222
 4762TIP3    H114229   1.027   0.820   4.168
 4762TIP3    H214230   1.172   0.809   4.209
 4763TIP3   OH214231   5.088   5.820   3.258
 4763TIP3    H114232   5.164   5.860   3.301
 4763TIP3    H214233   5.022   5.813   3.328
 4764TIP3   OH214234   1.819   6.648   4.517
 4764TIP3    H114235   1.775   6.666   4.434
 4764TIP3    H214236   1.913   6.651   4.495
 4765TIP3   OH214237   0.270   6.533   1.916
 4765TIP3    H114238   0.344   6.558   1.972
 4765TIP3    H214239   0.239   6.450   1.954
 4766TIP3   OH214240   6.924   6.577   4.048
 4766TIP3    H114241   7.001   6.607   3.999
 4766TIP3    H214242   6.959   6.550   4.133
 4767TIP3   OH214243   6.102   7.155   5.953
 4767TIP3    H114244   6.140   7.174   5.867
 4767TIP3    H214245   6.177   7.128   6.006
 4768TIP3   OH214246   5.107   3.125   6.657
 4768TIP3    H114247   5.197   3.152   6.676
 4768TIP3    H214248   5.116   3.039   6.615
 4769TIP3   OH214249   6.714   4.026   6.261
 4769TIP3    H114250   6.643   3.969   6.290
 4769TIP3    H214251   6.715   4.098   6.324
 4770TIP3   OH214252   6.664   2.058   5.822
 4770TIP3    H114253   6.633   2.050   5.731
 4770TIP3    H214254   6.616   2.134   5.856
 4771TIP3   OH214255   8.239   0.811   6.745
 4771TIP3    H114256   8.149   0.780   6.744
 4771TIP3    H214257   8.262   0.817   6.838
 4772TIP3   OH214258   2.260   0.600   4.306
 4772TIP3    H114259   2.167   0.613   4.321
 4772TIP3    H214260   2.297   0.585   4.393
 4773TIP3   OH214261   3.088   0.809   2.835
 4773TIP3    H114262   3.014   0.836   2.890
 4773TIP3    H214263   3.072   0.717   2.817
 4774TIP3   OH214264   5.292   3.666   4.748
 4774TIP3    H114265   5.345   3.671   4.827
 4774TIP3    H214266   5.337   3.603   4.692
 4775TIP3   OH214267   2.243   2.829   2.968
 4775TIP3    H114268   2.236   2.914   2.925
 4775TIP3    H214269   2.332   2.829   3.004
 4776TIP3   OH214270   0.248   0.633   0.765
 4776TIP3    H114271   0.312   0.599   0.702
 4776TIP3    H214272   0.256   0.728   0.758
 4777TIP3   OH214273   6.108   4.802   2.535
 4777TIP3    H114274   6.110   4.728   2.473
 4777TIP3    H214275   6.089   4.762   2.619
 4778TIP3   OH214276   3.060   7.510   1.865
 4778TIP3    H114277   3.100   7.514   1.952
 4778TIP3    H214278   3.122   7.554   1.807
 4779TIP3   OH214279   7.166   0.998   4.423
 4779TIP3    H114280   7.204   0.919   4.462
 4779TIP3    H214281   7.139   0.971   4.335
 4780TIP3   OH214282   6.982   1.718   1.461
 4780TIP3    H114283   7.037   1.753   1.531
 4780TIP3    H214284   7.040   1.713   1.385
 4781TIP3   OH214285   5.080   3.715   4.560
 4781TIP3    H114286   5.163   3.721   4.606
 4781TIP3    H214287   5.071   3.623   4.537
 4782TIP3   OH214288   6.834   7.509   4.139
 4782TIP3    H114289   6.809   7.593   4.178
 4782TIP3    H214290   6.911   7.528   4.086
 4783TIP3   OH214291   5.383   5.340   5.976
 4783TIP3    H114292   5.303   5.319   5.928
 4783TIP3    H214293   5.359   5.331   6.068
 4784TIP3   OH214294   7.246   2.424   4.481
 4784TIP3    H114295   7.241   2.388   4.393
 4784TIP3    H214296   7.337   2.410   4.508
 4785TIP3   OH214297   8.131   1.663   1.568
 4785TIP3    H114298   8.039   1.691   1.566
 4785TIP3    H214299   8.126   1.568   1.579
 4786TIP3   OH214300   8.083   4.183   0.276
 4786TIP3    H114301   8.045   4.222   0.198
 4786TIP3    H214302   8.008   4.164   0.333
 4787TIP3   OH214303   2.544   5.685   4.855
 4787TIP3    H114304   2.558   5.635   4.935
 4787TIP3    H214305   2.599   5.762   4.865
 4788TIP3   OH214306   3.164   1.508   1.994
 4788TIP3    H114307   3.089   1.460   1.958
 4788TIP3    H214308   3.214   1.534   1.917
 4789TIP3   OH214309   3.786   4.339   0.764
 4789TIP3    H114310   3.820   4.263   0.811
 4789TIP3    H214311   3.860   4.399   0.760
 4790TIP3   OH214312   4.429   6.160   2.056
 4790TIP3    H114313   4.360   6.107   2.015
 4790TIP3    H214314   4.500   6.160   1.992
 4791TIP3   OH214315   2.956   2.802   4.444
 4791TIP3    H114316   3.010   2.750   4.385
 4791TIP3    H214317   2.895   2.848   4.386
 4792TIP3   OH214318   6.858   0.205   5.514
 4792TIP3    H114319   6.812   0.121   5.524
 4792TIP3    H214320   6.948   0.187   5.543
 4793TIP3   OH214321   2.331   5.604   0.034
 4793TIP3    H114322   2.409   5.554   0.009
 4793TIP3    H214323   2.322   5.590   0.129
 4794TIP3   OH214324   0.142   2.155   3.921
 4794TIP3    H114325   0.235   2.138   3.936
 4794TIP3    H214326   0.138   2.248   3.899
 4795TIP3   OH214327   6.752   7.539   0.539
 4795TIP3    H114328   6.724   7.588   0.462
 4795TIP3    H214329   6.790   7.458   0.505
 4796TIP3   OH214330   0.167   4.863   3.836
 4796TIP3    H114331   0.121   4.892   3.915
 4796TIP3    H214332   0.202   4.944   3.798
 4797TIP3   OH214333   1.709   1.477   5.425
 4797TIP3    H114334   1.777   1.451   5.488
 4797TIP3    H214335   1.641   1.412   5.435
 4798TIP3   OH214336   4.162   3.497   0.538
 4798TIP3    H114337   4.172   3.575   0.592
 4798TIP3    H214338   4.229   3.506   0.470
 4799TIP3   OH214339   2.498   3.717   0.401
 4799TIP3    H114340   2.474   3.733   0.310
 4799TIP3    H214341   2.554   3.639   0.398
 4800TIP3   OH214342   7.142   3.416   3.254
 4800TIP3    H114343   7.208   3.436   3.320
 4800TIP3    H214344   7.125   3.322   3.265
 4801TIP3   OH214345   4.313   7.294   1.423
 4801TIP3    H114346   4.326   7.338   1.506
 4801TIP3    H214347   4.329   7.361   1.357
 4802TIP3   OH214348   6.794   3.301   0.924
 4802TIP3    H114349   6.812   3.392   0.949
 4802TIP3    H214350   6.765   3.306   0.833
 4803TIP3   OH214351   5.839   2.866   1.497
 4803TIP3    H114352   5.912   2.866   1.559
 4803TIP3    H214353   5.847   2.949   1.451
 4804TIP3   OH214354   0.337   6.318   2.360
 4804TIP3    H114355   0.304   6.392   2.411
 4804TIP3    H214356   0.274   6.248   2.376
 4805TIP3   OH214357   1.805   7.317   6.051
 4805TIP3    H114358   1.895   7.345   6.069
 4805TIP3    H214359   1.750   7.386   6.088
 4806TIP3   OH214360   4.459   2.298   1.358
 4806TIP3    H114361   4.478   2.305   1.451
 4806TIP3    H214362   4.379   2.244   1.354
 4807TIP3   OH214363   5.189   4.426   3.137
 4807TIP3    H114364   5.225   4.475   3.063
 4807TIP3    H214365   5.259   4.423   3.201
 4808TIP3   OH214366   2.612   6.615   2.386
 4808TIP3    H114367   2.570   6.700   2.400
 4808TIP3    H214368   2.558   6.553   2.435
 4809TIP3   OH214369   6.827   6.021   4.672
 4809TIP3    H114370   6.874   5.938   4.671
 4809TIP3    H214371   6.896   6.087   4.673
 4810TIP3   OH214372   1.726   4.682   4.920
 4810TIP3    H114373   1.795   4.748   4.927
 4810TIP3    H214374   1.645   4.733   4.915
 4811TIP3   OH214375   1.569   3.387   3.524
 4811TIP3    H114376   1.557   3.307   3.472
 4811TIP3    H214377   1.499   3.384   3.589
 4812TIP3   OH214378   2.410   2.252   4.486
 4812TIP3    H114379   2.318   2.234   4.502
 4812TIP3    H214380   2.455   2.225   4.566
 4813TIP3   OH214381   1.097   5.828   2.690
 4813TIP3    H114382   1.190   5.848   2.703
 4813TIP3    H214383   1.087   5.737   2.717
 4814TIP3   OH214384   7.433   2.843   4.079
 4814TIP3    H114385   7.382   2.765   4.102
 4814TIP3    H214386   7.455   2.832   3.987
 4815TIP3   OH214387   4.625   7.510   5.056
 4815TIP3    H114388   4.584   7.511   4.969
 4815TIP3    H214389   4.572   7.447   5.106
 4816TIP3   OH214390   5.596   4.408   5.771
 4816TIP3    H114391   5.655   4.437   5.841
 4816TIP3    H214392   5.598   4.312   5.777
 4817TIP3   OH214393   2.576   2.127   6.063
 4817TIP3    H114394   2.556   2.185   6.136
 4817TIP3    H214395   2.672   2.123   6.061
 4818TIP3   OH214396   6.275   0.459   2.870
 4818TIP3    H114397   6.342   0.392   2.853
 4818TIP3    H214398   6.238   0.479   2.785
 4819TIP3   OH214399   4.533   1.037   5.024
 4819TIP3    H114400   4.502   1.013   5.112
 4819TIP3    H214401   4.491   1.121   5.006
 4820TIP3   OH214402   3.024   2.371   2.338
 4820TIP3    H114403   3.058   2.426   2.268
 4820TIP3    H214404   3.060   2.284   2.320
 4821TIP3   OH214405   1.661   0.794   1.331
 4821TIP3    H114406   1.709   0.723   1.373
 4821TIP3    H214407   1.721   0.868   1.331
 4822TIP3   OH214408   6.217   6.896   2.516
 4822TIP3    H114409   6.187   6.983   2.489
 4822TIP3    H214410   6.275   6.867   2.445
 4823TIP3   OH214411   2.277   7.758   2.386
 4823TIP3    H114412   2.312   7.846   2.374
 4823TIP3    H214413   2.185   7.765   2.361
 4824TIP3   OH214414   7.625   6.820   4.899
 4824TIP3    H114415   7.668   6.734   4.898
 4824TIP3    H214416   7.594   6.832   4.809
 4825TIP3   OH214417   0.655   2.097   6.121
 4825TIP3    H114418   0.596   2.129   6.053
 4825TIP3    H214419   0.700   2.175   6.154
 4826TIP3   OH214420   5.845   1.372   0.182
 4826TIP3    H114421   5.858   1.466   0.174
 4826TIP3    H214422   5.762   1.363   0.229
 4827TIP3   OH214423   5.490   1.179   4.199
 4827TIP3    H114424   5.526   1.134   4.276
 4827TIP3    H214425   5.488   1.271   4.224
 4828TIP3   OH214426   7.866   2.729   5.319
 4828TIP3    H114427   7.818   2.805   5.286
 4828TIP3    H214428   7.831   2.715   5.407
 4829TIP3   OH214429   6.812   5.940   0.416
 4829TIP3    H114430   6.806   5.884   0.339
 4829TIP3    H214431   6.769   5.890   0.485
 4830TIP3   OH214432   1.625   3.596   3.676
 4830TIP3    H114433   1.616   3.540   3.599
 4830TIP3    H214434   1.699   3.653   3.655
 4831TIP3   OH214435   5.070   4.464   0.570
 4831TIP3    H114436   5.090   4.475   0.477
 4831TIP3    H214437   5.151   4.433   0.610
 4832TIP3   OH214438   3.810   7.258   5.968
 4832TIP3    H114439   3.876   7.301   6.021
 4832TIP3    H214440   3.770   7.194   6.026
 4833TIP3   OH214441   4.527   1.121   2.562
 4833TIP3    H114442   4.503   1.189   2.499
 4833TIP3    H214443   4.623   1.125   2.565
 4834TIP3   OH214444   5.731   3.793   0.891
 4834TIP3    H114445   5.731   3.764   0.982
 4834TIP3    H214446   5.642   3.776   0.860
 4835TIP3   OH214447   1.839   3.804   5.462
 4835TIP3    H114448   1.748   3.826   5.441
 4835TIP3    H214449   1.862   3.862   5.535
 4836TIP3   OH214450   2.637   2.981   0.272
 4836TIP3    H114451   2.642   3.026   0.187
 4836TIP3    H214452   2.599   3.047   0.331
 4837TIP3   OH214453   0.812   3.350   1.209
 4837TIP3    H114454   0.804   3.258   1.186
 4837TIP3    H214455   0.889   3.381   1.161
 4838TIP3   OH214456   6.316   4.756   6.466
 4838TIP3    H114457   6.238   4.757   6.411
 4838TIP3    H214458   6.325   4.846   6.497
 4839TIP3   OH214459   6.100   7.731   2.194
 4839TIP3    H114460   6.072   7.684   2.115
 4839TIP3    H214461   6.055   7.816   2.188
 4840TIP3   OH214462   5.261   2.082   3.035
 4840TIP3    H114463   5.192   2.017   3.044
 4840TIP3    H214464   5.298   2.065   2.948
 4841TIP3   OH214465   0.789   0.475   5.927
 4841TIP3    H114466   0.717   0.452   5.867
 4841TIP3    H214467   0.811   0.392   5.970
 4842TIP3   OH214468   2.273   0.970   3.358
 4842TIP3    H114469   2.196   0.956   3.302
 4842TIP3    H214470   2.256   1.054   3.401
 4843TIP3   OH214471   3.535   1.721   3.625
 4843TIP3    H114472   3.532   1.666   3.703
 4843TIP3    H214473   3.625   1.752   3.620
 4844TIP3   OH214474   5.584   6.189   2.405
 4844TIP3    H114475   5.647   6.126   2.369
 4844TIP3    H214476   5.627   6.222   2.484
 4845TIP3   OH214477   4.654   3.772   2.880
 4845TIP3    H114478   4.673   3.817   2.963
 4845TIP3    H214479   4.609   3.839   2.827
 4846TIP3   OH214480   3.064   4.572   3.445
 4846TIP3    H114481   3.075   4.638   3.376
 4846TIP3    H214482   3.092   4.490   3.404
 4847TIP3   OH214483   3.905   1.071   5.533
 4847TIP3    H114484   3.991   1.082   5.494
 4847TIP3    H214485   3.911   0.989   5.582
 4848TIP3   OH214486   3.295   7.140   3.910
 4848TIP3    H114487   3.264   7.129   4.000
 4848TIP3    H214488   3.290   7.052   3.872
 4849TIP3   OH214489   2.549   3.517   3.701
 4849TIP3    H114490   2.523   3.426   3.693
 4849TIP3    H214491   2.556   3.532   3.795
 4850TIP3   OH214492   3.066   3.263   1.427
 4850TIP3    H114493   3.050   3.291   1.518
 4850TIP3    H214494   3.009   3.187   1.415
 4851TIP3   OH214495   3.386   1.671   0.447
 4851TIP3    H114496   3.370   1.581   0.475
 4851TIP3    H214497   3.359   1.724   0.522
 4852TIP3   OH214498   6.814   3.575   2.380
 4852TIP3    H114499   6.734   3.562   2.330
 4852TIP3    H214500   6.876   3.512   2.343
 4853TIP3   OH214501   2.655   5.613   0.608
 4853TIP3    H114502   2.659   5.654   0.522
 4853TIP3    H214503   2.620   5.682   0.665
 4854TIP3   OH214504   3.716   7.707   1.118
 4854TIP3    H114505   3.633   7.676   1.081
 4854TIP3    H214506   3.718   7.672   1.207
 4855TIP3   OH214507   6.924   5.776   4.979
 4855TIP3    H114508   7.008   5.730   4.986
 4855TIP3    H214509   6.949   5.868   4.966
 4856TIP3   OH214510   8.185   3.797   4.894
 4856TIP3    H114511   8.264   3.851   4.890
 4856TIP3    H214512   8.197   3.731   4.826
 4857TIP3   OH214513   0.975   5.928   0.342
 4857TIP3    H114514   1.048   5.972   0.299
 4857TIP3    H214515   0.997   5.930   0.435
 4858TIP3   OH214516   0.628   5.797   0.919
 4858TIP3    H114517   0.666   5.731   0.861
 4858TIP3    H214518   0.555   5.833   0.869
 4859TIP3   OH214519   4.006   5.068   1.129
 4859TIP3    H114520   4.072   5.018   1.081
 4859TIP3    H214521   3.990   5.017   1.208
 4860TIP3   OH214522   6.236   2.711   6.204
 4860TIP3    H114523   6.182   2.680   6.131
 4860TIP3    H214524   6.229   2.642   6.270
 4861TIP3   OH214525   5.079   7.805   2.264
 4861TIP3    H114526   5.034   7.723   2.244
 4861TIP3    H214527   5.011   7.859   2.305
 4862TIP3   OH214528   2.219   3.259   3.410
 4862TIP3    H114529   2.154   3.195   3.441
 4862TIP3    H214530   2.198   3.271   3.318
 4863TIP3   OH214531   8.050   0.402   1.601
 4863TIP3    H114532   7.975   0.457   1.580
 4863TIP3    H214533   8.062   0.412   1.696
 4864TIP3   OH214534   7.543   0.394   3.344
 4864TIP3    H114535   7.563   0.358   3.430
 4864TIP3    H214536   7.511   0.320   3.294
 4865TIP3   OH214537   6.711   5.000   5.416
 4865TIP3    H114538   6.683   5.009   5.324
 4865TIP3    H214539   6.792   5.051   5.421
 4866TIP3   OH214540   4.968   2.305   5.757
 4866TIP3    H114541   5.037   2.295   5.692
 4866TIP3    H214542   4.900   2.355   5.713
 4867TIP3   OH214543   0.042   4.949   4.774
 4867TIP3    H114544  -0.011   4.943   4.853
 4867TIP3    H214545   0.133   4.945   4.805
 4868TIP3   OH214546   3.626   6.882   3.339
 4868TIP3    H114547   3.648   6.796   3.303
 4868TIP3    H214548   3.662   6.881   3.428
 4869TIP3   OH214549   4.489   6.426   4.850
 4869TIP3    H114550   4.450   6.462   4.930
 4869TIP3    H214551   4.434   6.351   4.828
 4870TIP3   OH214552   6.969   1.747   5.549
 4870TIP3    H114553   6.931   1.670   5.506
 4870TIP3    H214554   6.984   1.809   5.478
 4871TIP3   OH214555   5.046   4.161   2.356
 4871TIP3    H114556   5.033   4.105   2.279
 4871TIP3    H214557   4.976   4.226   2.351
 4872TIP3   OH214558   4.198   2.106   2.744
 4872TIP3    H114559   4.250   2.097   2.824
 4872TIP3    H214560   4.202   2.019   2.704
 4873TIP3   OH214561   3.393   0.575   4.153
 4873TIP3    H114562   3.393   0.666   4.126
 4873TIP3    H214563   3.486   0.552   4.158
 4874TIP3   OH214564   7.039   1.715   2.034
 4874TIP3    H114565   7.112   1.657   2.011
 4874TIP3    H214566   7.024   1.768   1.956
 4875TIP3   OH214567   5.078   0.035   1.394
 4875TIP3    H114568   5.163   0.020   1.354
 4875TIP3    H214569   5.098   0.072   1.480
 4876TIP3   OH214570   4.925   7.573   1.619
 4876TIP3    H114571   4.835   7.583   1.650
 4876TIP3    H214572   4.924   7.607   1.530
 4877TIP3   OH214573   4.498   6.554   5.110
 4877TIP3    H114574   4.426   6.494   5.127
 4877TIP3    H214575   4.576   6.509   5.143
 4878TIP3   OH214576   2.737   7.202   1.419
 4878TIP3    H114577   2.643   7.196   1.437
 4878TIP3    H214578   2.764   7.284   1.459
 4879TIP3   OH214579   2.793   7.603   3.114
 4879TIP3    H114580   2.842   7.655   3.178
 4879TIP3    H214581   2.724   7.661   3.083
 4880TIP3   OH214582   5.415   1.765   0.040
 4880TIP3    H114583   5.465   1.830   0.090
 4880TIP3    H214584   5.327   1.802   0.035
 4881TIP3   OH214585   5.679   1.724   2.438
 4881TIP3    H114586   5.593   1.728   2.481
 4881TIP3    H214587   5.663   1.677   2.356
 4882TIP3   OH214588   1.754   3.036   2.680
 4882TIP3    H114589   1.738   3.037   2.775
 4882TIP3    H214590   1.780   2.946   2.661
 4883TIP3   OH214591   8.266   5.925   2.622
 4883TIP3    H114592   8.331   5.861   2.652
 4883TIP3    H214593   8.241   5.972   2.702
 4884TIP3   OH214594   8.019   7.310   1.966
 4884TIP3    H114595   8.065   7.344   1.889
 4884TIP3    H214596   7.943   7.264   1.930
 4885TIP3   OH214597   1.803   3.077   5.841
 4885TIP3    H114598   1.898   3.069   5.829
 4885TIP3    H214599   1.778   3.151   5.785
 4886TIP3   OH214600   4.405   6.810   6.702
 4886TIP3    H114601   4.347   6.734   6.693
 4886TIP3    H214602   4.453   6.813   6.619
 4887TIP3   OH214603   3.003   7.342   0.217
 4887TIP3    H114604   3.007   7.363   0.311
 4887TIP3    H214605   2.969   7.422   0.176
 4888TIP3   OH214606   2.932   7.147   2.120
 4888TIP3    H114607   2.932   7.155   2.025
 4888TIP3    H214608   2.992   7.074   2.138
 4889TIP3   OH214609   8.029   1.564   2.770
 4889TIP3    H114610   8.015   1.533   2.681
 4889TIP3    H214611   8.070   1.650   2.760
 4890TIP3   OH214612   8.030   1.816   5.683
 4890TIP3    H114613   7.968   1.852   5.620
 4890TIP3    H214614   8.016   1.721   5.678
 4891TIP3   OH214615   5.151   6.028   2.608
 4891TIP3    H114616   5.072   6.008   2.557
 4891TIP3    H214617   5.137   5.985   2.692
 4892TIP3   OH214618   3.508   0.357   3.190
 4892TIP3    H114619   3.419   0.347   3.224
 4892TIP3    H214620   3.512   0.446   3.157
 4893TIP3   OH214621   4.501   5.934   6.401
 4893TIP3    H114622   4.497   5.861   6.463
 4893TIP3    H214623   4.508   5.892   6.315
 4894TIP3   OH214624   0.183   3.677   4.314
 4894TIP3    H114625   0.261   3.654   4.262
 4894TIP3    H214626   0.185   3.618   4.388
 4895TIP3   OH214627   4.694   7.515   4.112
 4895TIP3    H114628   4.720   7.438   4.162
 4895TIP3    H214629   4.769   7.533   4.055
 4896TIP3   OH214630   5.483   6.148   1.287
 4896TIP3    H114631   5.542   6.120   1.217
 4896TIP3    H214632   5.487   6.244   1.284
 4897TIP3   OH214633   3.829   0.452   5.572
 4897TIP3    H114634   3.828   0.545   5.597
 4897TIP3    H214635   3.737   0.430   5.561
 4898TIP3   OH214636   7.123   0.374   3.255
 4898TIP3    H114637   7.185   0.402   3.323
 4898TIP3    H214638   7.037   0.384   3.296
 4899TIP3   OH214639   8.028   0.752   3.541
 4899TIP3    H114640   8.010   0.806   3.618
 4899TIP3    H214641   8.121   0.732   3.548
 4900TIP3   OH214642   1.606   5.859   1.590
 4900TIP3    H114643   1.657   5.935   1.615
 4900TIP3    H214644   1.567   5.883   1.506
 4901TIP3   OH214645   6.995   4.265   6.384
 4901TIP3    H114646   6.934   4.203   6.425
 4901TIP3    H214647   7.049   4.297   6.456
 4902TIP3   OH214648   2.414   5.932   0.245
 4902TIP3    H114649   2.329   5.964   0.276
 4902TIP3    H214650   2.409   5.941   0.149
 4903TIP3   OH214651   1.847   3.819   0.519
 4903TIP3    H114652   1.800   3.902   0.522
 4903TIP3    H214653   1.940   3.843   0.521
 4904TIP3   OH214654   3.085   2.234   3.696
 4904TIP3    H114655   3.099   2.265   3.606
 4904TIP3    H214656   3.034   2.154   3.686
 4905TIP3   OH214657   4.344   4.585   3.299
 4905TIP3    H114658   4.294   4.634   3.234
 4905TIP3    H214659   4.311   4.495   3.292
 4906TIP3   OH214660   0.949   0.900   6.125
 4906TIP3    H114661   0.897   0.820   6.121
 4906TIP3    H214662   1.035   0.871   6.155
 4907TIP3   OH214663   4.004   0.993   2.441
 4907TIP3    H114664   4.064   1.055   2.398
 4907TIP3    H214665   3.939   1.049   2.484
 4908TIP3   OH214666   3.541   2.076   0.049
 4908TIP3    H114667   3.618   2.033   0.012
 4908TIP3    H214668   3.550   2.067   0.143
 4909TIP3   OH214669   5.469   4.863  -0.003
 4909TIP3    H114670   5.544   4.805  -0.011
 4909TIP3    H214671   5.396   4.814  -0.041
 4910TIP3   OH214672   5.195   3.024   4.490
 4910TIP3    H114673   5.148   2.942   4.475
 4910TIP3    H214674   5.203   3.029   4.586
 4911TIP3   OH214675   7.498   6.771   1.206
 4911TIP3    H114676   7.549   6.700   1.165
 4911TIP3    H214677   7.564   6.838   1.226
 4912TIP3   OH214678   4.240   2.143   4.623
 4912TIP3    H114679   4.306   2.160   4.691
 4912TIP3    H214680   4.207   2.056   4.643
 4913TIP3   OH214681   1.840   5.229   1.323
 4913TIP3    H114682   1.785   5.159   1.358
 4913TIP3    H214683   1.860   5.201   1.233
 4914TIP3   OH214684   4.106   3.222   0.606
 4914TIP3    H114685   4.109   3.318   0.601
 4914TIP3    H214686   4.182   3.192   0.558
 4915TIP3   OH214687   7.705   5.625   1.967
 4915TIP3    H114688   7.613   5.603   1.979
 4915TIP3    H214689   7.724   5.599   1.877
 4916TIP3   OH214690   2.348   2.430   4.231
 4916TIP3    H114691   2.293   2.381   4.292
 4916TIP3    H214692   2.286   2.473   4.172
 4917TIP3   OH214693   5.027   3.694   1.740
 4917TIP3    H114694   5.012   3.613   1.691
 4917TIP3    H214695   5.122   3.701   1.745
 4918TIP3   OH214696   5.576   1.768   0.951
 4918TIP3    H114697   5.533   1.824   0.887
 4918TIP3    H214698   5.658   1.813   0.971
 4919TIP3   OH214699   7.398   6.105   0.534
 4919TIP3    H114700   7.430   6.192   0.511
 4919TIP3    H214701   7.381   6.110   0.629
 4920TIP3   OH214702   3.832   1.565   6.485
 4920TIP3    H114703   3.924   1.575   6.459
 4920TIP3    H214704   3.835   1.557   6.580
 4921TIP3   OH214705   3.475   0.932   3.608
 4921TIP3    H114706   3.438   0.940   3.520
 4921TIP3    H214707   3.560   0.977   3.602
 4922TIP3   OH214708   4.192   6.893   4.142
 4922TIP3    H114709   4.143   6.918   4.063
 4922TIP3    H214710   4.183   6.969   4.200
 4923TIP3   OH214711   3.765   0.850   0.569
 4923TIP3    H114712   3.691   0.911   0.561
 4923TIP3    H214713   3.729   0.765   0.545
 4924TIP3   OH214714   2.053   2.583   1.367
 4924TIP3    H114715   2.019   2.522   1.433
 4924TIP3    H214716   1.985   2.585   1.299
 4925TIP3   OH214717   1.118   1.996   4.590
 4925TIP3    H114718   1.152   2.077   4.628
 4925TIP3    H214719   1.029   1.989   4.625
 4926TIP3   OH214720   7.072   7.778   6.193
 4926TIP3    H114721   7.023   7.822   6.263
 4926TIP3    H214722   7.013   7.781   6.118
 4927TIP3   OH214723   2.649   3.878   5.746
 4927TIP3    H114724   2.636   3.972   5.736
 4927TIP3    H214725   2.620   3.841   5.663
 4928TIP3   OH214726   2.928   0.611   0.265
 4928TIP3    H114727   2.873   0.682   0.297
 4928TIP3    H214728   3.017   0.647   0.265
 4929TIP3   OH214729   1.632   0.898   3.685
 4929TIP3    H114730   1.722   0.883   3.658
 4929TIP3    H214731   1.580   0.883   3.606
 4930TIP3   OH214732   7.033   2.222   5.791
 4930TIP3    H114733   7.001   2.230   5.881
 4930TIP3    H214734   7.100   2.154   5.795
 4931TIP3   OH214735   5.815   4.002   3.194
 4931TIP3    H114736   5.871   4.076   3.219
 4931TIP3    H214737   5.727   4.039   3.189
 4932TIP3   OH214738   1.483   4.812   2.668
 4932TIP3    H114739   1.411   4.838   2.726
 4932TIP3    H214740   1.559   4.860   2.700
 4933TIP3   OH214741   1.335   2.303   2.233
 4933TIP3    H114742   1.349   2.324   2.141
 4933TIP3    H214743   1.241   2.290   2.241
 4934TIP3   OH214744   1.777   1.046   1.403
 4934TIP3    H114745   1.796   1.061   1.495
 4934TIP3    H214746   1.771   1.134   1.365
 4935TIP3   OH214747   0.702   7.105   5.878
 4935TIP3    H114748   0.719   7.014   5.855
 4935TIP3    H214749   0.665   7.144   5.798
 4936TIP3   OH214750   6.970   2.537   1.243
 4936TIP3    H114751   7.024   2.537   1.164
 4936TIP3    H214752   6.886   2.502   1.215
 4937TIP3   OH214753   1.138   1.831   2.425
 4937TIP3    H114754   1.215   1.832   2.368
 4937TIP3    H214755   1.111   1.740   2.428
 4938TIP3   OH214756   6.295   4.472   4.449
 4938TIP3    H114757   6.239   4.455   4.525
 4938TIP3    H214758   6.263   4.554   4.413
 4939TIP3   OH214759   1.525   4.093   2.620
 4939TIP3    H114760   1.512   4.149   2.544
 4939TIP3    H214761   1.509   4.149   2.696
 4940TIP3   OH214762   6.167   1.491   4.272
 4940TIP3    H114763   6.156   1.564   4.211
 4940TIP3    H214764   6.173   1.533   4.358
 4941TIP3   OH214765   3.770   3.345   5.675
 4941TIP3    H114766   3.763   3.368   5.582
 4941TIP3    H214767   3.746   3.426   5.721
 4942TIP3   OH214768   5.643   2.036   6.442
 4942TIP3    H114769   5.725   2.081   6.421
 4942TIP3    H214770   5.598   2.027   6.358
 4943TIP3   OH214771   6.973   5.521   4.866
 4943TIP3    H114772   7.025   5.503   4.945
 4943TIP3    H214773   6.882   5.516   4.896
 4944TIP3   OH214774   7.159   0.602   4.753
 4944TIP3    H114775   7.167   0.516   4.710
 4944TIP3    H214776   7.202   0.591   4.838
 4945TIP3   OH214777   6.817   0.233   6.686
 4945TIP3    H114778   6.734   0.211   6.728
 4945TIP3    H214779   6.830   0.326   6.706
 4946TIP3   OH214780   2.510   5.252   3.773
 4946TIP3    H114781   2.491   5.158   3.769
 4946TIP3    H214782   2.602   5.259   3.747
 4947TIP3   OH214783   1.583   5.279   4.200
 4947TIP3    H114784   1.643   5.206   4.186
 4947TIP3    H214785   1.498   5.238   4.215
 4948TIP3   OH214786   7.497   5.028   4.671
 4948TIP3    H114787   7.516   4.972   4.746
 4948TIP3    H214788   7.547   4.988   4.599
 4949TIP3   OH214789   1.974   7.679   2.401
 4949TIP3    H114790   1.954   7.711   2.488
 4949TIP3    H214791   2.001   7.588   2.414
 4950TIP3   OH214792   0.838   3.922   1.038
 4950TIP3    H114793   0.847   3.827   1.048
 4950TIP3    H214794   0.911   3.959   1.087
 4951TIP3   OH214795   4.165   2.144   0.502
 4951TIP3    H114796   4.133   2.135   0.592
 4951TIP3    H214797   4.139   2.063   0.458
 4952TIP3   OH214798   3.908   2.130   3.386
 4952TIP3    H114799   3.876   2.173   3.465
 4952TIP3    H214800   3.954   2.052   3.417
 4953TIP3   OH214801   1.631   6.314   0.020
 4953TIP3    H114802   1.543   6.276   0.026
 4953TIP3    H214803   1.644   6.358   0.104
 4954TIP3   OH214804   6.362   4.783   3.605
 4954TIP3    H114805   6.292   4.720   3.623
 4954TIP3    H214806   6.319   4.853   3.556
 4955TIP3   OH214807   1.384   2.146   4.956
 4955TIP3    H114808   1.400   2.107   4.870
 4955TIP3    H214809   1.392   2.240   4.942
 4956TIP3   OH214810   1.017   6.488   1.079
 4956TIP3    H114811   0.968   6.537   1.146
 4956TIP3    H214812   1.108   6.512   1.096
 4957TIP3   OH214813   7.977   6.248   1.217
 4957TIP3    H114814   8.057   6.285   1.254
 4957TIP3    H214815   7.974   6.283   1.128
 4958TIP3   OH214816   7.370   4.750   5.109
 4958TIP3    H114817   7.388   4.843   5.125
 4958TIP3    H214818   7.352   4.714   5.195
 4959TIP3   OH214819   7.663   5.696   6.601
 4959TIP3    H114820   7.590   5.757   6.614
 4959TIP3    H214821   7.622   5.612   6.582
 4960TIP3   OH214822   5.159   4.629   2.027
 4960TIP3    H114823   5.200   4.572   2.091
 4960TIP3    H214824   5.167   4.717   2.065
 4961TIP3   OH214825   7.821   1.859   5.138
 4961TIP3    H114826   7.820   1.953   5.156
 4961TIP3    H214827   7.809   1.817   5.223
 4962TIP3   OH214828   7.508   1.135   6.154
 4962TIP3    H114829   7.590   1.138   6.203
 4962TIP3    H214830   7.509   1.214   6.101
 4963TIP3   OH214831   2.786   6.629   0.440
 4963TIP3    H114832   2.816   6.639   0.531
 4963TIP3    H214833   2.790   6.718   0.405
 4964TIP3   OH214834   0.830   2.353   6.533
 4964TIP3    H114835   0.760   2.354   6.598
 4964TIP3    H214836   0.866   2.441   6.534
 4965TIP3   OH214837   1.990   4.012   3.614
 4965TIP3    H114838   1.998   4.104   3.588
 4965TIP3    H214839   2.068   3.970   3.578
 4966TIP3   OH214840   4.551   0.568   6.708
 4966TIP3    H114841   4.539   0.479   6.674
 4966TIP3    H214842   4.496   0.571   6.786
 4967TIP3   OH214843   2.591   4.211   0.050
 4967TIP3    H114844   2.653   4.155   0.097
 4967TIP3    H214845   2.601   4.186  -0.042
 4968TIP3   OH214846   7.470   4.555   0.803
 4968TIP3    H114847   7.430   4.516   0.726
 4968TIP3    H214848   7.556   4.513   0.809
 4969TIP3   OH214849   2.379   4.474   0.727
 4969TIP3    H114850   2.345   4.548   0.776
 4969TIP3    H214851   2.447   4.511   0.670
 4970TIP3   OH214852   1.371   0.138   2.778
 4970TIP3    H114853   1.365   0.077   2.851
 4970TIP3    H214854   1.287   0.184   2.778
 4971TIP3   OH214855   4.805   5.914   4.749
 4971TIP3    H114856   4.804   5.838   4.691
 4971TIP3    H214857   4.861   5.888   4.822
 4972TIP3   OH214858   7.218   7.131   0.991
 4972TIP3    H114859   7.162   7.057   1.017
 4972TIP3    H214860   7.306   7.093   0.984
 4973TIP3   OH214861   1.301   3.123   2.097
 4973TIP3    H114862   1.260   3.039   2.074
 4973TIP3    H214863   1.392   3.100   2.118
 4974TIP3   OH214864   0.184   2.377   4.858
 4974TIP3    H114865   0.165   2.427   4.778
 4974TIP3    H214866   0.100   2.370   4.902
 4975TIP3   OH214867   5.578   2.502   6.435
 4975TIP3    H114868   5.493   2.546   6.442
 4975TIP3    H214869   5.639   2.572   6.413
 4976TIP3   OH214870   2.096   2.000   1.873
 4976TIP3    H114871   2.119   2.001   1.780
 4976TIP3    H214872   2.073   1.909   1.892
 4977TIP3   OH214873   2.922   6.514   3.365
 4977TIP3    H114874   2.843   6.465   3.390
 4977TIP3    H214875   2.947   6.560   3.445
 4978TIP3   OH214876   5.578   0.722   4.031
 4978TIP3    H114877   5.495   0.678   4.044
 4978TIP3    H214878   5.577   0.794   4.094
 4979TIP3   OH214879   6.335   3.379   5.644
 4979TIP3    H114880   6.260   3.321   5.654
 4979TIP3    H214881   6.343   3.423   5.729
 4980TIP3   OH214882   0.563   2.052   4.512
 4980TIP3    H114883   0.569   2.126   4.453
 4980TIP3    H214884   0.519   1.984   4.461
 4981TIP3   OH214885   5.185   6.251   0.515
 4981TIP3    H114886   5.211   6.202   0.593
 4981TIP3    H214887   5.253   6.233   0.451
 4982TIP3   OH214888   3.261   5.360   6.587
 4982TIP3    H114889   3.337   5.401   6.546
 4982TIP3    H214890   3.219   5.431   6.636
 4983TIP3   OH214891   5.519   7.578   4.601
 4983TIP3    H114892   5.522   7.548   4.510
 4983TIP3    H214893   5.459   7.652   4.600
 4984TIP3   OH214894   0.088   7.773   1.603
 4984TIP3    H114895   0.154   7.803   1.541
 4984TIP3    H214896   0.053   7.693   1.563
 4985TIP3   OH214897   7.562   1.819   1.524
 4985TIP3    H114898   7.477   1.776   1.532
 4985TIP3    H214899   7.625   1.747   1.516
 4986TIP3   OH214900   3.533   5.594   2.121
 4986TIP3    H114901   3.571   5.666   2.072
 4986TIP3    H214902   3.578   5.516   2.088
 4987TIP3   OH214903   2.783   1.423   3.544
 4987TIP3    H114904   2.805   1.498   3.598
 4987TIP3    H214905   2.689   1.429   3.531
 4988TIP3   OH214906   8.179   6.935   1.900
 4988TIP3    H114907   8.152   6.849   1.930
 4988TIP3    H214908   8.213   6.979   1.978
 4989TIP3   OH214909   7.563   0.905   2.310
 4989TIP3    H114910   7.475   0.902   2.346
 4989TIP3    H214911   7.615   0.851   2.370
 4990TIP3   OH214912   1.750   3.711   4.191
 4990TIP3    H114913   1.690   3.749   4.126
 4990TIP3    H214914   1.826   3.682   4.140
 4991TIP3   OH214915   2.381   6.583   1.648
 4991TIP3    H114916   2.468   6.621   1.661
 4991TIP3    H214917   2.398   6.494   1.618
 4992TIP3   OH214918   6.544   7.171   5.548
 4992TIP3    H114919   6.573   7.130   5.630
 4992TIP3    H214920   6.532   7.098   5.488
 4993TIP3   OH214921   7.216   7.110   0.512
 4993TIP3    H114922   7.271   7.163   0.454
 4993TIP3    H214923   7.158   7.172   0.554
 4994TIP3   OH214924   2.237   7.696   3.748
 4994TIP3    H114925   2.306   7.640   3.712
 4994TIP3    H214926   2.201   7.646   3.821
 4995TIP3   OH214927   6.725   0.985   4.771
 4995TIP3    H114928   6.809   1.031   4.760
 4995TIP3    H214929   6.712   0.938   4.689
 4996TIP3   OH214930   5.061   3.937   2.202
 4996TIP3    H114931   5.049   3.870   2.134
 4996TIP3    H214932   5.081   3.887   2.281
 4997TIP3   OH214933   2.512   1.611   6.298
 4997TIP3    H114934   2.433   1.579   6.255
 4997TIP3    H214935   2.582   1.554   6.264
 4998TIP3   OH214936   6.216   0.174   6.538
 4998TIP3    H114937   6.305   0.208   6.550
 4998TIP3    H214938   6.215   0.144   6.447
 4999TIP3   OH214939   7.379   4.047   1.437
 4999TIP3    H114940   7.399   3.963   1.397
 4999TIP3    H214941   7.348   4.102   1.365
 5000TIP3   OH214942   5.570   4.244   2.413
 5000TIP3    H114943   5.476   4.244   2.426
 5000TIP3    H214944   5.604   4.310   2.473
 5001TIP3   OH214945   3.084   4.800   0.949
 5001TIP3    H114946   3.007   4.746   0.968
 5001TIP3    H214947   3.120   4.763   0.869
 5002TIP3   OH214948   1.745   5.184   2.337
 5002TIP3    H114949   1.785   5.258   2.382
 5002TIP3    H214950   1.744   5.114   2.402
 5003TIP3   OH214951   8.175   0.857   6.126
 5003TIP3    H114952   8.119   0.857   6.204
 5003TIP3    H214953   8.162   0.770   6.088
 5004TIP3   OH214954   6.367   1.661   1.081
 5004TIP3    H114955   6.458   1.672   1.106
 5004TIP3    H214956   6.334   1.751   1.072
 5005TIP3   OH214957   5.251   4.428   6.017
 5005TIP3    H114958   5.236   4.414   5.924
 5005TIP3    H214959   5.188   4.369   6.060
 5006TIP3   OH214960   4.937   6.110   6.548
 5006TIP3    H114961   5.017   6.099   6.600
 5006TIP3    H214962   4.918   6.204   6.554
 5007TIP3   OH214963   3.244   6.344   2.196
 5007TIP3    H114964   3.164   6.397   2.194
 5007TIP3    H214965   3.227   6.277   2.263
 5008TIP3   OH214966   7.585   2.376   6.510
 5008TIP3    H114967   7.555   2.428   6.435
 5008TIP3    H214968   7.566   2.431   6.586
 5009TIP3   OH214969   6.339   2.216   3.962
 5009TIP3    H114970   6.294   2.274   4.023
 5009TIP3    H214971   6.269   2.177   3.909
 5010TIP3   OH214972   6.700   0.627   5.243
 5010TIP3    H114973   6.689   0.704   5.298
 5010TIP3    H214974   6.640   0.562   5.279
 5011TIP3   OH214975   4.380   4.059   3.049
 5011TIP3    H114976   4.472   4.062   3.024
 5011TIP3    H214977   4.335   4.102   2.976
 5012TIP3   OH214978   7.134   5.777   0.212
 5012TIP3    H114979   7.128   5.794   0.306
 5012TIP3    H214980   7.217   5.731   0.201
 5013TIP3   OH214981   7.712   2.384  -0.013
 5013TIP3    H114982   7.769   2.450  -0.052
 5013TIP3    H214983   7.728   2.391   0.081
 5014TIP3   OH214984   1.398   4.118   0.990
 5014TIP3    H114985   1.398   4.118   1.085
 5014TIP3    H214986   1.412   4.210   0.965
 5015TIP3   OH214987   8.221   0.073   2.893
 5015TIP3    H114988   8.172   0.029   2.824
 5015TIP3    H214989   8.310   0.038   2.886
 5016TIP3   OH214990   5.471   5.660   3.368
 5016TIP3    H114991   5.512   5.623   3.290
 5016TIP3    H214992   5.522   5.624   3.441
 5017TIP3   OH214993   4.645   0.304   2.635
 5017TIP3    H114994   4.729   0.262   2.618
 5017TIP3    H214995   4.654   0.339   2.724
 5018TIP3   OH214996   3.626   3.011   3.037
 5018TIP3    H114997   3.538   3.047   3.024
 5018TIP3    H214998   3.612   2.933   3.090
 5019TIP3   OH214999   5.847   4.179   5.801
 5019TIP3    H115000   5.911   4.136   5.745
 5019TIP3    H215001   5.899   4.227   5.866
 5020TIP3   OH215002   7.208   0.906   0.177
 5020TIP3    H115003   7.297   0.942   0.176
 5020TIP3    H215004   7.152   0.981   0.154
 5021TIP3   OH215005   2.061   7.399   4.495
 5021TIP3    H115006   2.107   7.437   4.570
 5021TIP3    H215007   2.070   7.465   4.426
 5022TIP3   OH215008   5.947   1.044   4.214
 5022TIP3    H115009   5.988   1.106   4.274
 5022TIP3    H215010   5.990   0.961   4.233
 5023TIP3   OH215011   2.331   5.365   5.246
 5023TIP3    H115012   2.267   5.303   5.282
 5023TIP3    H215013   2.379   5.398   5.322
 5024TIP3   OH215014   1.054   5.112   3.503
 5024TIP3    H115015   0.986   5.180   3.498
 5024TIP3    H215016   1.015   5.036   3.461
 5025TIP3   OH215017   7.268   4.635   2.870
 5025TIP3    H115018   7.222   4.604   2.948
 5025TIP3    H215019   7.351   4.670   2.903
 5026TIP3   OH215020   3.627   7.025   1.293
 5026TIP3    H115021   3.591   6.995   1.376
 5026TIP3    H215022   3.660   6.946   1.251
 5027TIP3   OH215023   5.531   6.726   3.837
 5027TIP3    H115024   5.477   6.754   3.911
 5027TIP3    H215025   5.575   6.806   3.809
 5028TIP3   OH215026   5.574   7.306   4.773
 5028TIP3    H115027   5.642   7.325   4.838
 5028TIP3    H215028   5.575   7.382   4.714
 5029TIP3   OH215029   1.931   6.403   1.153
 5029TIP3    H115030   1.903   6.356   1.074
 5029TIP3    H215031   1.910   6.495   1.135
 5030TIP3   OH215032   6.015   3.224   3.936
 5030TIP3    H115033   6.002   3.131   3.955
 5030TIP3    H215034   6.110   3.232   3.923
 5031TIP3   OH215035   4.846   3.499   5.684
 5031TIP3    H115036   4.891   3.533   5.606
 5031TIP3    H215037   4.754   3.497   5.658
 5032TIP3   OH215038   0.201   7.310   3.270
 5032TIP3    H115039   0.292   7.327   3.247
 5032TIP3    H215040   0.199   7.217   3.290
 5033TIP3   OH215041   5.661   3.011   4.734
 5033TIP3    H115042   5.606   2.962   4.672
 5033TIP3    H215043   5.626   2.990   4.820
 5034TIP3   OH215044   1.552   6.195   5.673
 5034TIP3    H115045   1.495   6.270   5.687
 5034TIP3    H215046   1.596   6.213   5.590
 5035TIP3   OH215047   7.697   0.992   2.043
 5035TIP3    H115048   7.761   1.045   2.090
 5035TIP3    H215049   7.657   0.937   2.110
 5036TIP3   OH215050   6.399   4.190   3.579
 5036TIP3    H115051   6.360   4.203   3.493
 5036TIP3    H215052   6.439   4.103   3.575
 5037TIP3   OH215053   7.332   4.025   3.723
 5037TIP3    H115054   7.413   4.015   3.672
 5037TIP3    H215055   7.263   4.029   3.657
 5038TIP3   OH215056   4.975   0.280   1.006
 5038TIP3    H115057   4.914   0.265   0.933
 5038TIP3    H215058   4.956   0.369   1.035
 5039TIP3   OH215059   6.341   1.083   1.682
 5039TIP3    H115060   6.288   1.004   1.685
 5039TIP3    H215061   6.322   1.128   1.764
 5040TIP3   OH215062   5.133   1.293   1.592
 5040TIP3    H115063   5.045   1.262   1.574
 5040TIP3    H215064   5.178   1.217   1.631
 5041TIP3   OH215065   2.901   4.099   5.092
 5041TIP3    H115066   2.928   4.121   5.002
 5041TIP3    H215067   2.891   4.004   5.091
 5042TIP3   OH215068   7.728   0.250   5.580
 5042TIP3    H115069   7.811   0.278   5.540
 5042TIP3    H215070   7.721   0.157   5.558
 5043TIP3   OH215071   7.780   0.860   4.091
 5043TIP3    H115072   7.714   0.790   4.091
 5043TIP3    H215073   7.855   0.821   4.136
 5044TIP3   OH215074   6.025   1.639   6.017
 5044TIP3    H115075   6.120   1.647   6.009
 5044TIP3    H215076   6.012   1.574   6.085
 5045TIP3   OH215077   5.819   7.040   3.468
 5045TIP3    H115078   5.736   6.994   3.462
 5045TIP3    H215079   5.813   7.090   3.549
 5046TIP3   OH215080   2.444   4.155   6.239
 5046TIP3    H115081   2.394   4.237   6.233
 5046TIP3    H215082   2.434   4.114   6.153
 5047TIP3   OH215083   2.606   4.142   1.783
 5047TIP3    H115084   2.648   4.227   1.799
 5047TIP3    H215085   2.678   4.084   1.758
 5048TIP3   OH215086   4.982   6.509   1.280
 5048TIP3    H115087   4.983   6.467   1.367
 5048TIP3    H215088   4.929   6.587   1.292
 5049TIP3   OH215089   4.867   6.293   2.864
 5049TIP3    H115090   4.951   6.259   2.897
 5049TIP3    H215091   4.871   6.277   2.769
 5050TIP3   OH215092   2.935   2.287   0.636
 5050TIP3    H115093   2.876   2.362   0.642
 5050TIP3    H215094   3.020   2.322   0.663
 5051TIP3   OH215095   4.302   3.096   0.465
 5051TIP3    H115096   4.362   3.035   0.508
 5051TIP3    H215097   4.246   3.040   0.411
 5052TIP3   OH215098   2.482   0.634   4.812
 5052TIP3    H115099   2.558   0.681   4.847
 5052TIP3    H215100   2.465   0.565   4.876
 5053TIP3   OH215101   3.334   1.428   0.595
 5053TIP3    H115102   3.427   1.410   0.604
 5053TIP3    H215103   3.298   1.353   0.548
 5054TIP3   OH215104   4.504   0.551   2.751
 5054TIP3    H115105   4.480   0.560   2.843
 5054TIP3    H215106   4.599   0.562   2.750
 5055TIP3   OH215107   4.647   5.596   2.569
 5055TIP3    H115108   4.647   5.513   2.617
 5055TIP3    H215109   4.715   5.648   2.611
 5056TIP3   OH215110   6.339   1.708   3.814
 5056TIP3    H115111   6.406   1.660   3.863
 5056TIP3    H215112   6.381   1.790   3.790
 5057TIP3   OH215113   3.484   6.521   3.856
 5057TIP3    H115114   3.497   6.428   3.841
 5057TIP3    H215115   3.457   6.556   3.771
 5058TIP3   OH215116   1.002   4.359   5.615
 5058TIP3    H115117   1.095   4.339   5.604
 5058TIP3    H215118   0.978   4.404   5.533
 5059TIP3   OH215119   3.145   6.023   1.635
 5059TIP3    H115120   3.150   6.088   1.706
 5059TIP3    H215121   3.219   6.044   1.579
 5060TIP3   OH215122   5.593   5.244   6.156
 5060TIP3    H115123   5.501   5.269   6.167
 5060TIP3    H215124   5.641   5.306   6.211
 5061TIP3   OH215125   6.512   0.955   5.606
 5061TIP3    H115126   6.581   0.959   5.672
 5061TIP3    H215127   6.476   1.044   5.605
 5062TIP3   OH215128   0.667   4.576   5.075
 5062TIP3    H115129   0.591   4.603   5.127
 5062TIP3    H215130   0.651   4.614   4.989
 5063TIP3   OH215131   6.593   0.362   5.474
 5063TIP3    H115132   6.676   0.321   5.497
 5063TIP3    H215133   6.575   0.424   5.544
 5064TIP3   OH215134   4.587   6.111   2.274
 5064TIP3    H115135   4.670   6.075   2.244
 5064TIP3    H215136   4.542   6.137   2.194
 5065TIP3   OH215137   4.315   2.434   3.358
 5065TIP3    H115138   4.366   2.382   3.419
 5065TIP3    H215139   4.369   2.437   3.279
 5066TIP3   OH215140   5.971   0.063   6.696
 5066TIP3    H115141   6.056   0.097   6.665
 5066TIP3    H215142   5.972   0.078   6.790
 5067TIP3   OH215143   2.334   5.500   2.045
 5067TIP3    H115144   2.279   5.438   1.998
 5067TIP3    H215145   2.399   5.529   1.980
 5068TIP3   OH215146   4.971   2.661   3.750
 5068TIP3    H115147   4.913   2.637   3.821
 5068TIP3    H215148   5.059   2.645   3.784
 5069TIP3   OH215149   4.476   5.813   1.838
 5069TIP3    H115150   4.403   5.848   1.890
 5069TIP3    H215151   4.457   5.720   1.831
 5070TIP3   OH215152   2.063   0.495   1.822
 5070TIP3    H115153   1.977   0.485   1.864
 5070TIP3    H215154   2.049   0.467   1.732
 5071TIP3   OH215155   7.155   7.228   5.519
 5071TIP3    H115156   7.099   7.165   5.565
 5071TIP3    H215157   7.099   7.262   5.449
 5072TIP3   OH215158   2.464   0.916   4.896
 5072TIP3    H115159   2.428   0.889   4.812
 5072TIP3    H215160   2.551   0.949   4.875
 5073TIP3   OH215161   6.657   3.944   3.599
 5073TIP3    H115162   6.678   3.852   3.611
 5073TIP3    H215163   6.738   3.990   3.620
 5074TIP3   OH215164   1.394   5.280   2.342
 5074TIP3    H115165   1.446   5.230   2.405
 5074TIP3    H215166   1.347   5.213   2.293
 5075TIP3   OH215167   2.070   2.284   6.691
 5075TIP3    H115168   2.083   2.207   6.745
 5075TIP3    H215169   2.004   2.336   6.738
 5076TIP3   OH215170   2.654   0.473   0.147
 5076TIP3    H115171   2.690   0.410   0.210
 5076TIP3    H215172   2.665   0.558   0.190
 5077TIP3   OH215173   0.121   0.073   6.630
 5077TIP3    H115174   0.136   0.144   6.692
 5077TIP3    H215175   0.038   0.034   6.656
 5078TIP3   OH215176   6.675   4.596   5.563
 5078TIP3    H115177   6.660   4.520   5.619
 5078TIP3    H215178   6.721   4.561   5.487
 5079TIP3   OH215179   4.062   3.691   5.440
 5079TIP3    H115180   4.008   3.762   5.474
 5079TIP3    H215181   4.001   3.618   5.426
 5080TIP3   OH215182   1.803   2.383   3.166
 5080TIP3    H115183   1.797   2.288   3.159
 5080TIP3    H215184   1.807   2.413   3.075
 5081TIP3   OH215185   3.624   2.873   6.316
 5081TIP3    H115186   3.638   2.898   6.408
 5081TIP3    H215187   3.535   2.903   6.297
 5082TIP3   OH215188   5.494   0.487   2.353
 5082TIP3    H115189   5.485   0.404   2.399
 5082TIP3    H215190   5.589   0.500   2.345
 5083TIP3   OH215191   0.500   5.792   2.145
 5083TIP3    H115192   0.427   5.762   2.199
 5083TIP3    H215193   0.483   5.754   2.058
 5084TIP3   OH215194   4.175   7.405   0.652
 5084TIP3    H115195   4.216   7.435   0.571
 5084TIP3    H215196   4.091   7.369   0.624
 5085TIP3   OH215197   1.457   2.700   3.906
 5085TIP3    H115198   1.373   2.705   3.859
 5085TIP3    H215199   1.494   2.788   3.897
 5086TIP3   OH215200   3.477   2.354   1.030
 5086TIP3    H115201   3.469   2.429   0.971
 5086TIP3    H215202   3.413   2.291   0.998
 5087TIP3   OH215203   4.412   6.108   4.585
 5087TIP3    H115204   4.480   6.081   4.647
 5087TIP3    H215205   4.460   6.137   4.507
 5088TIP3   OH215206   1.276   4.275   5.692
 5088TIP3    H115207   1.370   4.257   5.698
 5088TIP3    H215208   1.251   4.301   5.781
 5089TIP3   OH215209   4.169   1.299   5.404
 5089TIP3    H115210   4.191   1.392   5.404
 5089TIP3    H215211   4.252   1.254   5.415
 5090TIP3   OH215212   2.943   7.580   4.295
 5090TIP3    H115213   2.917   7.507   4.351
 5090TIP3    H215214   2.891   7.569   4.215
 5091TIP3   OH215215   0.383   5.624   4.881
 5091TIP3    H115216   0.378   5.713   4.916
 5091TIP3    H215217   0.390   5.568   4.959
 5092TIP3   OH215218   5.531   5.718   4.843
 5092TIP3    H115219   5.563   5.694   4.756
 5092TIP3    H215220   5.575   5.656   4.902
 5093TIP3   OH215221   0.945   5.324   6.232
 5093TIP3    H115222   0.986   5.239   6.243
 5093TIP3    H215223   1.009   5.386   6.267
 5094TIP3   OH215224   4.688   4.093   3.989
 5094TIP3    H115225   4.621   4.051   3.936
 5094TIP3    H215226   4.755   4.121   3.927
 5095TIP3   OH215227   6.912   0.364   5.289
 5095TIP3    H115228   6.939   0.389   5.377
 5095TIP3    H215229   6.869   0.279   5.300
 5096TIP3   OH215230   8.152   0.859   5.207
 5096TIP3    H115231   8.206   0.788   5.243
 5096TIP3    H215232   8.212   0.933   5.200
 5097TIP3   OH215233   0.652   2.380   3.939
 5097TIP3    H115234   0.621   2.462   3.979
 5097TIP3    H215235   0.583   2.356   3.878
 5098TIP3   OH215236   0.650   1.035   2.065
 5098TIP3    H115237   0.674   1.128   2.064
 5098TIP3    H215238   0.568   1.032   2.113
 5099TIP3   OH215239   7.361   6.011   6.121
 5099TIP3    H115240   7.356   5.935   6.063
 5099TIP3    H215241   7.289   5.998   6.183
 5100TIP3   OH215242   2.059   2.391   1.035
 5100TIP3    H115243   2.025   2.303   1.053
 5100TIP3    H215244   1.999   2.450   1.079
 5101TIP3   OH215245   5.776   2.029   2.704
 5101TIP3    H115246   5.849   1.976   2.734
 5101TIP3    H215247   5.701   1.998   2.755
 5102TIP3   OH215248   0.998   6.234   5.117
 5102TIP3    H115249   1.041   6.295   5.177
 5102TIP3    H215250   1.026   6.147   5.145
 5103TIP3   OH215251   0.681   5.477   1.716
 5103TIP3    H115252   0.765   5.486   1.672
 5103TIP3    H215253   0.675   5.384   1.740
 5104TIP3   OH215254   6.663   5.716   3.923
 5104TIP3    H115255   6.733   5.666   3.880
 5104TIP3    H215256   6.639   5.662   3.998
 5105TIP3   OH215257   0.178   3.225   0.189
 5105TIP3    H115258   0.112   3.261   0.130
 5105TIP3    H215259   0.128   3.192   0.264
 5106TIP3   OH215260   5.273   0.426   6.471
 5106TIP3    H115261   5.185   0.456   6.446
 5106TIP3    H215262   5.287   0.348   6.418
 5107TIP3   OH215263   2.580   3.139   3.217
 5107TIP3    H115264   2.667   3.121   3.180
 5107TIP3    H215265   2.572   3.234   3.215
 5108TIP3   OH215266   3.252   0.879   5.402
 5108TIP3    H115267   3.214   0.830   5.475
 5108TIP3    H215268   3.177   0.897   5.344
 5109TIP3   OH215269   4.656   1.938   2.649
 5109TIP3    H115270   4.723   1.871   2.641
 5109TIP3    H215271   4.582   1.904   2.598
 5110TIP3   OH215272   4.610   5.155   3.813
 5110TIP3    H115273   4.547   5.104   3.761
 5110TIP3    H215274   4.657   5.089   3.865
 5111TIP3   OH215275   3.989   7.402   4.107
 5111TIP3    H115276   3.943   7.487   4.109
 5111TIP3    H215277   3.943   7.353   4.039
 5112TIP3   OH215278   3.386   1.213   1.065
 5112TIP3    H115279   3.413   1.149   0.999
 5112TIP3    H215280   3.455   1.210   1.131
 5113TIP3   OH215281   0.727   6.104   0.338
 5113TIP3    H115282   0.812   6.060   0.345
 5113TIP3    H215283   0.744   6.182   0.284
 5114TIP3   OH215284   4.107   4.984   2.319
 5114TIP3    H115285   4.053   4.912   2.353
 5114TIP3    H215286   4.125   4.960   2.228
 5115TIP3   OH215287   2.365   4.023   6.474
 5115TIP3    H115288   2.345   4.060   6.560
 5115TIP3    H215289   2.394   4.098   6.422
 5116TIP3   OH215290   4.649   6.616   3.032
 5116TIP3    H115291   4.571   6.656   2.996
 5116TIP3    H215292   4.722   6.656   2.984
 5117TIP3   OH215293   7.318   4.312   5.207
 5117TIP3    H115294   7.311   4.266   5.290
 5117TIP3    H215295   7.333   4.242   5.142
 5118TIP3   OH215296   2.823   5.563   5.621
 5118TIP3    H115297   2.737   5.605   5.625
 5118TIP3    H215298   2.852   5.578   5.530
 5119TIP3   OH215299   5.009   7.468   0.612
 5119TIP3    H115300   4.985   7.387   0.568
 5119TIP3    H215301   5.030   7.442   0.702
 5120TIP3   OH215302   4.283   1.910   5.761
 5120TIP3    H115303   4.273   1.949   5.675
 5120TIP3    H215304   4.235   1.828   5.756
 5121TIP3   OH215305   0.270   4.596   3.523
 5121TIP3    H115306   0.186   4.638   3.543
 5121TIP3    H215307   0.335   4.648   3.571
 5122TIP3   OH215308   0.435   0.799   0.005
 5122TIP3    H115309   0.509   0.764   0.054
 5122TIP3    H215310   0.460   0.790  -0.087
 5123TIP3   OH215311   6.919   2.949   3.998
 5123TIP3    H115312   6.872   2.935   4.080
 5123TIP3    H215313   6.972   3.028   4.014
 5124TIP3   OH215314   2.914   3.509   2.352
 5124TIP3    H115315   2.940   3.571   2.420
 5124TIP3    H215316   2.984   3.515   2.287
 5125TIP3   OH215317   6.845   4.224   0.427
 5125TIP3    H115318   6.838   4.160   0.356
 5125TIP3    H215319   6.839   4.173   0.507
 5126TIP3   OH215320   5.550   2.758   1.035
 5126TIP3    H115321   5.641   2.774   1.011
 5126TIP3    H215322   5.548   2.764   1.130
 5127TIP3   OH215323   1.816   2.061   5.902
 5127TIP3    H115324   1.775   2.108   5.974
 5127TIP3    H215325   1.785   2.105   5.823
 5128TIP3   OH215326   7.801   1.241   4.132
 5128TIP3    H115327   7.868   1.172   4.138
 5128TIP3    H215328   7.725   1.197   4.095
 5129TIP3   OH215329   7.438   2.145   3.458
 5129TIP3    H115330   7.346   2.152   3.433
 5129TIP3    H215331   7.441   2.181   3.547
 5130TIP3   OH215332   6.605   1.845   3.269
 5130TIP3    H115333   6.601   1.829   3.175
 5130TIP3    H215334   6.697   1.834   3.292
 5131TIP3   OH215335   7.445   5.705   5.062
 5131TIP3    H115336   7.526   5.671   5.023
 5131TIP3    H215337   7.460   5.799   5.070
 5132TIP3   OH215338   3.623   4.874   3.479
 5132TIP3    H115339   3.633   4.783   3.450
 5132TIP3    H215340   3.543   4.874   3.532
 5133TIP3   OH215341   1.399   2.600   1.931
 5133TIP3    H115342   1.339   2.580   1.859
 5133TIP3    H215343   1.351   2.576   2.010
 5134TIP3   OH215344   1.591   5.408   5.581
 5134TIP3    H115345   1.580   5.503   5.587
 5134TIP3    H215346   1.680   5.393   5.612
 5135TIP3   OH215347   6.627   6.809   5.466
 5135TIP3    H115348   6.643   6.841   5.378
 5135TIP3    H215349   6.547   6.757   5.459
 5136TIP3   OH215350   4.127   1.856   4.688
 5136TIP3    H115351   4.182   1.842   4.765
 5136TIP3    H215352   4.181   1.827   4.614
 5137TIP3   OH215353   1.286   4.338   6.007
 5137TIP3    H115354   1.210   4.390   5.981
 5137TIP3    H215355   1.255   4.284   6.079
 5138TIP3   OH215356   0.778   3.320   0.336
 5138TIP3    H115357   0.706   3.324   0.399
 5138TIP3    H215358   0.748   3.373   0.262
 5139TIP3   OH215359   4.546   1.664   0.272
 5139TIP3    H115360   4.625   1.653   0.219
 5139TIP3    H215361   4.571   1.730   0.337
 5140TIP3   OH215362   1.065   5.873   4.705
 5140TIP3    H115363   1.073   5.828   4.621
 5140TIP3    H215364   1.001   5.942   4.689
 5141TIP3   OH215365   1.088   4.635   6.737
 5141TIP3    H115366   1.116   4.568   6.799
 5141TIP3    H215367   0.993   4.642   6.749
 5142TIP3   OH215368   2.420   1.898   6.590
 5142TIP3    H115369   2.454   1.813   6.617
 5142TIP3    H215370   2.430   1.899   6.495
 5143TIP3   OH215371   5.764   4.820   1.736
 5143TIP3    H115372   5.831   4.820   1.667
 5143TIP3    H215373   5.687   4.858   1.693
 5144TIP3   OH215374   5.593   4.481   3.589
 5144TIP3    H115375   5.584   4.541   3.515
 5144TIP3    H215376   5.533   4.409   3.569
 5145TIP3   OH215377   4.758   4.839   3.197
 5145TIP3    H115378   4.836   4.828   3.251
 5145TIP3    H215379   4.741   4.933   3.198
 5146TIP3   OH215380   6.356   1.469   3.575
 5146TIP3    H115381   6.350   1.473   3.671
 5146TIP3    H215382   6.379   1.557   3.549
 5147TIP3   OH215383   4.465   4.202   5.247
 5147TIP3    H115384   4.436   4.141   5.179
 5147TIP3    H215385   4.407   4.187   5.321
 5148TIP3   OH215386   8.221   5.398   6.086
 5148TIP3    H115387   8.127   5.381   6.070
 5148TIP3    H215388   8.239   5.355   6.169
 5149TIP3   OH215389   3.498   0.898   4.860
 5149TIP3    H115390   3.441   0.846   4.917
 5149TIP3    H215391   3.570   0.839   4.837
 5150TIP3   OH215392   7.113   7.316   3.380
 5150TIP3    H115393   7.152   7.379   3.319
 5150TIP3    H215394   7.024   7.304   3.349
 5151TIP3   OH215395   0.139   1.158   0.794
 5151TIP3    H115396   0.221   1.199   0.821
 5151TIP3    H215397   0.078   1.175   0.866
 5152TIP3   OH215398   0.254   0.199   0.564
 5152TIP3    H115399   0.171   0.246   0.562
 5152TIP3    H215400   0.283   0.203   0.655
 5153TIP3   OH215401   5.198   6.437   6.445
 5153TIP3    H115402   5.250   6.374   6.495
 5153TIP3    H215403   5.109   6.426   6.477
 5154TIP3   OH215404   0.405   4.535   2.878
 5154TIP3    H115405   0.323   4.552   2.924
 5154TIP3    H215406   0.416   4.610   2.819
 5155TIP3   OH215407   7.770   3.355   5.400
 5155TIP3    H115408   7.765   3.326   5.309
 5155TIP3    H215409   7.839   3.422   5.400
 5156TIP3   OH215410   2.623   2.018   0.510
 5156TIP3    H115411   2.609   2.091   0.450
 5156TIP3    H215412   2.630   2.060   0.597
 5157TIP3   OH215413   1.546   6.443   2.875
 5157TIP3    H115414   1.551   6.359   2.921
 5157TIP3    H215415   1.622   6.492   2.906
 5158TIP3   OH215416   6.772   3.061   0.194
 5158TIP3    H115417   6.676   3.060   0.196
 5158TIP3    H215418   6.794   3.062   0.101
 5159TIP3   OH215419   4.577   7.012   2.483
 5159TIP3    H115420   4.577   7.022   2.388
 5159TIP3    H215421   4.598   7.100   2.516
 5160TIP3   OH215422   7.181   3.259   5.719
 5160TIP3    H115423   7.203   3.310   5.797
 5160TIP3    H215424   7.159   3.324   5.653
 5161TIP3   OH215425   2.849   5.114   3.124
 5161TIP3    H115426   2.928   5.113   3.178
 5161TIP3    H215427   2.800   5.037   3.152
 5162TIP3   OH215428   1.315   6.227   4.955
 5162TIP3    H115429   1.287   6.169   4.884
 5162TIP3    H215430   1.316   6.314   4.916
 5163TIP3   OH215431   5.202   0.657   4.239
 5163TIP3    H115432   5.282   0.700   4.267
 5163TIP3    H215433   5.220   0.563   4.247
 5164TIP3   OH215434   6.706   3.731   0.798
 5164TIP3    H115435   6.632   3.673   0.777
 5164TIP3    H215436   6.745   3.751   0.713
 5165TIP3   OH215437   4.745   3.543   5.939
 5165TIP3    H115438   4.665   3.587   5.967
 5165TIP3    H215439   4.752   3.563   5.846
 5166TIP3   OH215440   0.836   1.944   3.418
 5166TIP3    H115441   0.825   1.982   3.330
 5166TIP3    H215442   0.751   1.957   3.460
 5167TIP3   OH215443   1.520   6.880   0.575
 5167TIP3    H115444   1.579   6.820   0.530
 5167TIP3    H215445   1.578   6.938   0.625
 5168TIP3   OH215446   0.054   5.549   3.644
 5168TIP3    H115447   0.056   5.455   3.623
 5168TIP3    H215448  -0.038   5.573   3.634
 5169TIP3   OH215449   4.563   0.082   2.468
 5169TIP3    H115450   4.585   0.157   2.525
 5169TIP3    H215451   4.524   0.018   2.527
 5170TIP3   OH215452   6.337   6.797   3.530
 5170TIP3    H115453   6.334   6.719   3.475
 5170TIP3    H215454   6.246   6.821   3.544
 5171TIP3   OH215455   2.434   2.662   4.756
 5171TIP3    H115456   2.455   2.590   4.696
 5171TIP3    H215457   2.338   2.661   4.761
 5172TIP3   OH215458   1.705   3.113   6.310
 5172TIP3    H115459   1.615   3.104   6.277
 5172TIP3    H215460   1.760   3.103   6.233
 5173TIP3   OH215461   7.739   6.362   2.841
 5173TIP3    H115462   7.681   6.289   2.821
 5173TIP3    H215463   7.688   6.440   2.817
 5174TIP3   OH215464   6.603   6.364   0.142
 5174TIP3    H115465   6.638   6.300   0.204
 5174TIP3    H215466   6.559   6.430   0.196
 5175TIP3   OH215467   6.991   2.332   0.544
 5175TIP3    H115468   7.009   2.416   0.502
 5175TIP3    H215469   7.054   2.271   0.506
 5176TIP3   OH215470   5.224   1.134   0.274
 5176TIP3    H115471   5.258   1.125   0.184
 5176TIP3    H215472   5.302   1.144   0.328
 5177TIP3   OH215473   3.901   5.708   4.769
 5177TIP3    H115474   3.821   5.666   4.801
 5177TIP3    H215475   3.883   5.727   4.677
 5178TIP3   OH215476   1.693   5.990   0.863
 5178TIP3    H115477   1.610   5.974   0.817
 5178TIP3    H215478   1.761   5.961   0.802
 5179TIP3   OH215479   5.231   7.489   0.454
 5179TIP3    H115480   5.166   7.479   0.523
 5179TIP3    H215481   5.308   7.442   0.486
 5180TIP3   OH215482   7.679   1.548   2.655
 5180TIP3    H115483   7.713   1.494   2.584
 5180TIP3    H215484   7.641   1.485   2.717
 5181TIP3   OH215485   6.643   6.147   3.488
 5181TIP3    H115486   6.560   6.159   3.534
 5181TIP3    H215487   6.709   6.180   3.549
 5182TIP3   OH215488   7.812   2.887   2.407
 5182TIP3    H115489   7.745   2.939   2.362
 5182TIP3    H215490   7.766   2.851   2.483
 5183TIP3   OH215491   2.356   3.806   2.665
 5183TIP3    H115492   2.319   3.784   2.579
 5183TIP3    H215493   2.405   3.887   2.650
 5184TIP3   OH215494   4.796   0.488   0.290
 5184TIP3    H115495   4.832   0.399   0.299
 5184TIP3    H215496   4.868   0.538   0.253
 5185TIP3   OH215497   3.941   1.617   4.433
 5185TIP3    H115498   4.022   1.577   4.464
 5185TIP3    H215499   3.894   1.544   4.392
 5186TIP3   OH215500   5.053   6.936   3.451
 5186TIP3    H115501   5.119   6.870   3.470
 5186TIP3    H215502   5.049   6.990   3.530
 5187TIP3   OH215503   6.517   6.384   6.443
 5187TIP3    H115504   6.533   6.383   6.538
 5187TIP3    H215505   6.573   6.315   6.409
 5188TIP3   OH215506   3.203   7.287   2.772
 5188TIP3    H115507   3.242   7.203   2.749
 5188TIP3    H215508   3.115   7.266   2.802
 5189TIP3   OH215509   8.037   3.024   2.338
 5189TIP3    H115510   8.012   2.933   2.351
 5189TIP3    H215511   7.960   3.065   2.299
 5190TIP3   OH215512   0.843   5.250   1.558
 5190TIP3    H115513   0.782   5.175   1.556
 5190TIP3    H215514   0.829   5.293   1.473
 5191TIP3   OH215515   0.178   6.033   3.322
 5191TIP3    H115516   0.265   5.995   3.331
 5191TIP3    H215517   0.193   6.127   3.319
 5192TIP3   OH215518   2.493   2.195   3.893
 5192TIP3    H115519   2.406   2.204   3.931
 5192TIP3    H215520   2.531   2.283   3.900
 5193TIP3   OH215521   1.664   5.433   1.231
 5193TIP3    H115522   1.721   5.367   1.270
 5193TIP3    H215523   1.723   5.498   1.193
 5194TIP3   OH215524   2.882   3.235   2.284
 5194TIP3    H115525   2.836   3.213   2.202
 5194TIP3    H215526   2.858   3.326   2.301
 5195TIP3   OH215527   2.879   6.517   0.913
 5195TIP3    H115528   2.913   6.494   0.999
 5195TIP3    H215529   2.784   6.521   0.924
 5196TIP3   OH215530   7.222   3.481   0.423
 5196TIP3    H115531   7.245   3.522   0.340
 5196TIP3    H215532   7.132   3.450   0.411
 5197TIP3   OH215533   6.193   6.406   0.901
 5197TIP3    H115534   6.195   6.330   0.843
 5197TIP3    H215535   6.203   6.369   0.989
 5198TIP3   OH215536   5.639   4.603   1.263
 5198TIP3    H115537   5.598   4.608   1.350
 5198TIP3    H215538   5.573   4.561   1.208
 5199TIP3   OH215539   3.478   1.445   1.960
 5199TIP3    H115540   3.518   1.370   2.002
 5199TIP3    H215541   3.408   1.408   1.906
 5200TIP3   OH215542   7.301   4.609   3.409
 5200TIP3    H115543   7.206   4.600   3.406
 5200TIP3    H215544   7.331   4.566   3.329
 5201TIP3   OH215545   6.505   6.285   3.666
 5201TIP3    H115546   6.434   6.297   3.730
 5201TIP3    H215547   6.547   6.370   3.660
 5202TIP3   OH215548   6.547   7.086   1.523
 5202TIP3    H115549   6.510   7.101   1.436
 5202TIP3    H215550   6.637   7.119   1.517
 5203TIP3   OH215551   1.219   1.484   5.803
 5203TIP3    H115552   1.153   1.420   5.774
 5203TIP3    H215553   1.245   1.528   5.722
 5204TIP3   OH215554   5.496   5.616   4.129
 5204TIP3    H115555   5.438   5.691   4.113
 5204TIP3    H215556   5.503   5.573   4.043
 5205TIP3   OH215557   7.796   1.781   2.642
 5205TIP3    H115558   7.743   1.701   2.649
 5205TIP3    H215559   7.735   1.852   2.662
 5206TIP3   OH215560   6.284   2.623   2.170
 5206TIP3    H115561   6.281   2.680   2.093
 5206TIP3    H215562   6.302   2.536   2.134
 5207TIP3   OH215563   1.724   6.375   2.235
 5207TIP3    H115564   1.691   6.358   2.323
 5207TIP3    H215565   1.799   6.317   2.226
 5208TIP3   OH215566   0.357   2.160   4.887
 5208TIP3    H115567   0.296   2.229   4.864
 5208TIP3    H215568   0.424   2.203   4.941
 5209TIP3   OH215569   1.112   1.816   0.391
 5209TIP3    H115570   1.022   1.846   0.385
 5209TIP3    H215571   1.119   1.778   0.479
 5210TIP3   OH215572   4.454   5.170   4.508
 5210TIP3    H115573   4.465   5.082   4.546
 5210TIP3    H215574   4.511   5.170   4.431
 5211TIP3   OH215575   5.684   6.224   0.737
 5211TIP3    H115576   5.767   6.253   0.700
 5211TIP3    H215577   5.676   6.133   0.708
 5212TIP3   OH215578   5.838   6.332   4.444
 5212TIP3    H115579   5.755   6.294   4.416
 5212TIP3    H215580   5.818   6.378   4.525
 5213TIP3   OH215581   2.997   3.110   4.288
 5213TIP3    H115582   3.037   3.167   4.222
 5213TIP3    H215583   2.907   3.141   4.294
 5214TIP3   OH215584   1.686   5.631   2.633
 5214TIP3    H115585   1.768   5.611   2.677
 5214TIP3    H215586   1.708   5.634   2.540
 5215TIP3   OH215587   5.617   4.140   5.664
 5215TIP3    H115588   5.598   4.047   5.676
 5215TIP3    H215589   5.699   4.154   5.712
 5216TIP3   OH215590   4.407   4.737   2.446
 5216TIP3    H115591   4.414   4.833   2.444
 5216TIP3    H215592   4.476   4.707   2.387
 5217TIP3   OH215593   0.899   1.893   4.106
 5217TIP3    H115594   0.872   1.917   4.017
 5217TIP3    H215595   0.909   1.977   4.151
 5218TIP3   OH215596   5.276   6.866   2.724
 5218TIP3    H115597   5.350   6.817   2.759
 5218TIP3    H215598   5.209   6.860   2.791
 5219TIP3   OH215599   1.958   6.252   3.867
 5219TIP3    H115600   1.999   6.179   3.914
 5219TIP3    H215601   1.871   6.220   3.844
 5220TIP3   OH215602   0.959   6.535   1.918
 5220TIP3    H115603   0.952   6.444   1.890
 5220TIP3    H215604   0.869   6.567   1.921
 5221TIP3   OH215605   6.638   4.235   2.357
 5221TIP3    H115606   6.647   4.141   2.338
 5221TIP3    H215607   6.597   4.238   2.443
 5222TIP3   OH215608   6.413   4.423   3.711
 5222TIP3    H115609   6.404   4.341   3.661
 5222TIP3    H215610   6.507   4.432   3.726
 5223TIP3   OH215611   7.416   5.719   0.171
 5223TIP3    H115612   7.437   5.807   0.203
 5223TIP3    H215613   7.481   5.663   0.213
 5224TIP3   OH215614   3.135   3.489   4.586
 5224TIP3    H115615   3.041   3.504   4.597
 5224TIP3    H215616   3.151   3.505   4.493
 5225TIP3   OH215617   5.057   0.368   6.020
 5225TIP3    H115618   5.145   0.387   5.988
 5225TIP3    H215619   5.061   0.276   6.048
 5226TIP3   OH215620   7.316   0.142   1.381
 5226TIP3    H115621   7.374   0.152   1.306
 5226TIP3    H215622   7.249   0.081   1.351
 5227TIP3   OH215623   4.883   1.554   5.263
 5227TIP3    H115624   4.801   1.600   5.279
 5227TIP3    H215625   4.857   1.472   5.221
 5228TIP3   OH215626   3.907   2.021   1.581
 5228TIP3    H115627   3.955   2.029   1.664
 5228TIP3    H215628   3.964   1.967   1.526
 5229TIP3   OH215629   5.490   1.887   4.901
 5229TIP3    H115630   5.464   1.905   4.991
 5229TIP3    H215631   5.585   1.896   4.901
 5230TIP3   OH215632   4.530   0.403   2.371
 5230TIP3    H115633   4.564   0.488   2.400
 5230TIP3    H215634   4.575   0.339   2.427
 5231TIP3   OH215635   0.920   6.995   0.125
 5231TIP3    H115636   1.010   6.963   0.133
 5231TIP3    H215637   0.870   6.944   0.189
 5232TIP3   OH215638  -0.023   3.625   5.637
 5232TIP3    H115639   0.046   3.576   5.682
 5232TIP3    H215640   0.025   3.688   5.582
 5233TIP3   OH215641   2.790   5.914   5.922
 5233TIP3    H115642   2.695   5.905   5.913
 5233TIP3    H215643   2.810   5.878   6.008
 5234TIP3   OH215644   0.078   4.783   1.211
 5234TIP3    H115645   0.111   4.713   1.154
 5234TIP3    H215646   0.156   4.821   1.250
 5235TIP3   OH215647   5.545   3.628   0.342
 5235TIP3    H115648   5.463   3.591   0.374
 5235TIP3    H215649   5.518   3.697   0.281
 5236TIP3   OH215650   1.043   2.443   1.044
 5236TIP3    H115651   0.957   2.452   1.002
 5236TIP3    H215652   1.076   2.359   1.013
 5237TIP3   OH215653   1.941   4.819   4.996
 5237TIP3    H115654   2.036   4.813   4.989
 5237TIP3    H215655   1.923   4.821   5.090
 5238TIP3   OH215656   3.979   4.349   5.714
 5238TIP3    H115657   3.958   4.349   5.621
 5238TIP3    H215658   3.990   4.256   5.736
 5239TIP3   OH215659   3.527   5.357   5.036
 5239TIP3    H115660   3.483   5.362   4.950
 5239TIP3    H215661   3.588   5.431   5.036
 5240TIP3   OH215662   0.902   0.410   5.243
 5240TIP3    H115663   0.864   0.482   5.295
 5240TIP3    H215664   0.988   0.395   5.283
 5241TIP3   OH215665   5.327   7.319   4.166
 5241TIP3    H115666   5.318   7.305   4.260
 5241TIP3    H215667   5.272   7.252   4.125
 5242TIP3   OH215668   5.846   1.469   2.117
 5242TIP3    H115669   5.905   1.414   2.065
 5242TIP3    H215670   5.846   1.428   2.204
 5243TIP3   OH215671   2.162   5.259   3.291
 5243TIP3    H115672   2.079   5.215   3.308
 5243TIP3    H215673   2.146   5.351   3.313
 5244TIP3   OH215674   4.860   7.655   6.029
 5244TIP3    H115675   4.793   7.592   6.055
 5244TIP3    H215676   4.926   7.651   6.098
 5245TIP3   OH215677   2.399   4.441   1.416
 5245TIP3    H115678   2.343   4.517   1.433
 5245TIP3    H215679   2.338   4.373   1.387
 5246TIP3   OH215680   2.096   6.079   5.428
 5246TIP3    H115681   2.175   6.120   5.393
 5246TIP3    H215682   2.024   6.119   5.380
 5247TIP3   OH215683   1.927   1.393   1.565
 5247TIP3    H115684   1.953   1.346   1.485
 5247TIP3    H215685   1.939   1.329   1.635
 5248TIP3   OH215686   3.916   6.260   3.584
 5248TIP3    H115687   3.824   6.287   3.576
 5248TIP3    H215688   3.958   6.296   3.506
 5249TIP3   OH215689   1.385   1.561   4.234
 5249TIP3    H115690   1.464   1.563   4.180
 5249TIP3    H215691   1.321   1.512   4.182
 5250TIP3   OH215692   4.738   2.096   2.366
 5250TIP3    H115693   4.730   2.014   2.317
 5250TIP3    H215694   4.745   2.070   2.457
 5251TIP3   OH215695   0.016   7.242   0.986
 5251TIP3    H115696   0.078   7.313   1.003
 5251TIP3    H215697   0.061   7.185   0.924
 5252TIP3   OH215698   1.784   2.610   6.104
 5252TIP3    H115699   1.873   2.607   6.140
 5252TIP3    H215700   1.736   2.544   6.154
 5253TIP3   OH215701   1.429   7.723   4.525
 5253TIP3    H115702   1.395   7.704   4.612
 5253TIP3    H215703   1.524   7.715   4.534
 5254TIP3   OH215704   5.431   6.379   5.181
 5254TIP3    H115705   5.451   6.472   5.170
 5254TIP3    H215706   5.516   6.335   5.174
 5255TIP3   OH215707   7.949   0.565   1.931
 5255TIP3    H115708   7.891   0.619   1.985
 5255TIP3    H215709   7.937   0.476   1.965
 5256TIP3   OH215710   0.934   3.090   3.840
 5256TIP3    H115711   0.977   3.050   3.916
 5256TIP3    H215712   0.912   3.017   3.783
 5257TIP3   OH215713   4.573   2.776   6.702
 5257TIP3    H115714   4.623   2.809   6.628
 5257TIP3    H215715   4.550   2.853   6.753
 5258TIP3   OH215716   7.490   6.904   1.807
 5258TIP3    H115717   7.505   6.952   1.889
 5258TIP3    H215718   7.420   6.953   1.763
 5259TIP3   OH215719   3.353   0.954   5.728
 5259TIP3    H115720   3.411   1.027   5.707
 5259TIP3    H215721   3.394   0.878   5.686
 5260TIP3   OH215722   0.884   6.491   0.490
 5260TIP3    H115723   0.922   6.529   0.411
 5260TIP3    H215724   0.850   6.406   0.461
 5261TIP3   OH215725   4.714   2.203   6.730
 5261TIP3    H115726   4.762   2.126   6.760
 5261TIP3    H215727   4.623   2.185   6.752
 5262TIP3   OH215728   7.225   1.402   5.387
 5262TIP3    H115729   7.290   1.458   5.429
 5262TIP3    H215730   7.269   1.318   5.377
 5263TIP3   OH215731   4.539   1.504   6.100
 5263TIP3    H115732   4.610   1.568   6.088
 5263TIP3    H215733   4.582   1.428   6.139
 5264TIP3   OH215734   0.335   5.257   3.321
 5264TIP3    H115735   0.322   5.327   3.258
 5264TIP3    H215736   0.391   5.194   3.277
 5265TIP3   OH215737   4.191   1.003   5.758
 5265TIP3    H115738   4.237   0.927   5.792
 5265TIP3    H215739   4.104   0.999   5.798
 5266TIP3   OH215740   0.202   6.349   1.028
 5266TIP3    H115741   0.234   6.396   1.104
 5266TIP3    H215742   0.279   6.341   0.971
 5267TIP3   OH215743   0.938   7.221   4.409
 5267TIP3    H115744   0.895   7.140   4.439
 5267TIP3    H215745   0.865   7.280   4.388
 5268TIP3   OH215746   6.933   5.145   0.809
 5268TIP3    H115747   6.905   5.055   0.794
 5268TIP3    H215748   6.853   5.197   0.798
 5269TIP3   OH215749   4.344   6.865   0.885
 5269TIP3    H115750   4.387   6.780   0.882
 5269TIP3    H215751   4.282   6.863   0.812
 5270TIP3   OH215752   0.050   2.363   2.200
 5270TIP3    H115753  -0.028   2.311   2.178
 5270TIP3    H215754   0.098   2.308   2.261
 5271TIP3   OH215755   1.999   6.680   6.269
 5271TIP3    H115756   1.935   6.720   6.210
 5271TIP3    H215757   2.030   6.603   6.222
 5272TIP3   OH215758   5.085   0.984   3.723
 5272TIP3    H115759   5.084   1.069   3.767
 5272TIP3    H215760   5.026   0.995   3.649
 5273TIP3   OH215761   1.872   2.810   0.876
 5273TIP3    H115762   1.951   2.762   0.900
 5273TIP3    H215763   1.834   2.759   0.805
 5274TIP3   OH215764   3.846   0.325   4.719
 5274TIP3    H115765   3.826   0.367   4.803
 5274TIP3    H215766   3.832   0.231   4.736
 5275TIP3   OH215767   5.706   6.637   0.930
 5275TIP3    H115768   5.801   6.631   0.913
 5275TIP3    H215769   5.696   6.611   1.021
 5276TIP3   OH215770   1.213   4.532   1.821
 5276TIP3    H115771   1.221   4.499   1.911
 5276TIP3    H215772   1.217   4.453   1.767
 5277TIP3   OH215773   7.587   6.909   5.175
 5277TIP3    H115774   7.626   6.899   5.088
 5277TIP3    H215775   7.612   6.830   5.223
 5278TIP3   OH215776   5.221   4.175   1.625
 5278TIP3    H115777   5.309   4.187   1.588
 5278TIP3    H215778   5.181   4.106   1.573
 5279TIP3   OH215779   2.262   7.067   6.135
 5279TIP3    H115780   2.342   7.103   6.173
 5279TIP3    H215781   2.225   7.140   6.085
 5280TIP3   OH215782   4.099   2.400   1.908
 5280TIP3    H115783   4.145   2.349   1.976
 5280TIP3    H215784   4.166   2.460   1.875
 5281TIP3   OH215785   1.351   6.537   1.417
 5281TIP3    H115786   1.336   6.454   1.371
 5281TIP3    H215787   1.440   6.562   1.393
 5282TIP3   OH215788   3.883   2.707   0.952
 5282TIP3    H115789   3.867   2.785   0.899
 5282TIP3    H215790   3.977   2.707   0.968
 5283TIP3   OH215791   5.425   3.034   2.351
 5283TIP3    H115792   5.490   3.089   2.308
 5283TIP3    H215793   5.466   3.009   2.434
 5284TIP3   OH215794   3.480   3.456   0.067
 5284TIP3    H115795   3.521   3.425  -0.014
 5284TIP3    H215796   3.554   3.473   0.126
 5285TIP3   OH215797   6.013   3.200   5.611
 5285TIP3    H115798   6.031   3.194   5.705
 5285TIP3    H215799   5.938   3.259   5.605
 5286TIP3   OH215800   4.296   0.076   4.076
 5286TIP3    H115801   4.384   0.096   4.043
 5286TIP3    H215802   4.244   0.060   3.998
 5287TIP3   OH215803   5.905   0.829   1.985
 5287TIP3    H115804   5.963   0.772   2.036
 5287TIP3    H215805   5.818   0.790   1.995
 5288TIP3   OH215806   6.153   2.322   3.039
 5288TIP3    H115807   6.149   2.414   3.014
 5288TIP3    H215808   6.104   2.277   2.970
 5289TIP3   OH215809   1.825   6.039   1.637
 5289TIP3    H115810   1.867   5.978   1.697
 5289TIP3    H215811   1.875   6.030   1.555
 5290TIP3   OH215812   0.737   3.940   2.024
 5290TIP3    H115813   0.764   3.896   2.105
 5290TIP3    H215814   0.721   4.030   2.050
 5291TIP3   OH215815   3.842   3.502   4.372
 5291TIP3    H115816   3.873   3.423   4.416
 5291TIP3    H215817   3.908   3.568   4.392
 5292TIP3   OH215818   3.649   6.209   5.911
 5292TIP3    H115819   3.615   6.119   5.917
 5292TIP3    H215820   3.733   6.205   5.956
 5293TIP3   OH215821   7.600   2.288   0.695
 5293TIP3    H115822   7.650   2.360   0.654
 5293TIP3    H215823   7.520   2.282   0.643
 5294TIP3   OH215824   1.960   2.473   4.252
 5294TIP3    H115825   1.879   2.498   4.209
 5294TIP3    H215826   1.936   2.399   4.307
 5295TIP3   OH215827   4.967   2.182   0.598
 5295TIP3    H115828   4.991   2.168   0.506
 5295TIP3    H215829   4.947   2.275   0.605
 5296TIP3   OH215830   1.080   0.446   6.506
 5296TIP3    H115831   1.143   0.493   6.453
 5296TIP3    H215832   0.998   0.494   6.494
 5297TIP3   OH215833   7.980   1.834   1.139
 5297TIP3    H115834   8.070   1.861   1.153
 5297TIP3    H215835   7.985   1.745   1.106
 5298TIP3   OH215836   7.397   4.028   4.548
 5298TIP3    H115837   7.417   4.112   4.507
 5298TIP3    H215838   7.467   4.015   4.611
 5299TIP3   OH215839   3.120   7.129   4.144
 5299TIP3    H115840   3.164   7.105   4.226
 5299TIP3    H215841   3.027   7.124   4.164
 5300TIP3   OH215842   6.761   5.392   5.450
 5300TIP3    H115843   6.697   5.385   5.380
 5300TIP3    H215844   6.808   5.474   5.432
 5301TIP3   OH215845   4.927   6.414   1.550
 5301TIP3    H115846   4.893   6.326   1.561
 5301TIP3    H215847   4.886   6.464   1.621
 5302TIP3   OH215848   0.339   3.788   4.857
 5302TIP3    H115849   0.254   3.808   4.897
 5302TIP3    H215850   0.385   3.872   4.856
 5303TIP3   OH215851   4.147   6.926   1.516
 5303TIP3    H115852   4.210   6.957   1.451
 5303TIP3    H215853   4.062   6.938   1.474
 5304TIP3   OH215854   7.882   5.092   4.604
 5304TIP3    H115855   7.883   5.012   4.657
 5304TIP3    H215856   7.962   5.086   4.551
 5305TIP3   OH215857   5.248   4.318   2.851
 5305TIP3    H115858   5.263   4.407   2.884
 5305TIP3    H215859   5.333   4.275   2.858
 5306TIP3   OH215860   6.503   4.741   6.237
 5306TIP3    H115861   6.504   4.647   6.218
 5306TIP3    H215862   6.440   4.751   6.308
 5307TIP3   OH215863   1.680   4.751   3.612
 5307TIP3    H115864   1.671   4.758   3.517
 5307TIP3    H215865   1.630   4.672   3.636
 5308TIP3   OH215866   0.526   2.909   2.098
 5308TIP3    H115867   0.552   2.858   2.174
 5308TIP3    H215868   0.494   2.845   2.035
 5309TIP3   OH215869   2.171   0.870   4.233
 5309TIP3    H115870   2.193   0.912   4.316
 5309TIP3    H215871   2.083   0.835   4.246
 5310TIP3   OH215872   1.595   0.349   5.461
 5310TIP3    H115873   1.622   0.261   5.437
 5310TIP3    H215874   1.657   0.406   5.416
 5311TIP3   OH215875   3.591   7.684   3.253
 5311TIP3    H115876   3.603   7.630   3.175
 5311TIP3    H215877   3.564   7.623   3.321
 5312TIP3   OH215878   5.665   5.576   5.026
 5312TIP3    H115879   5.693   5.571   5.117
 5312TIP3    H215880   5.688   5.491   4.988
 5313TIP3   OH215881   3.471   3.250   0.938
 5313TIP3    H115882   3.549   3.295   0.906
 5313TIP3    H215883   3.414   3.245   0.862
 5314TIP3   OH215884   6.208   7.712   2.890
 5314TIP3    H115885   6.184   7.791   2.842
 5314TIP3    H215886   6.125   7.679   2.925
 5315TIP3   OH215887   3.002   4.267   2.782
 5315TIP3    H115888   2.973   4.199   2.722
 5315TIP3    H215889   2.991   4.229   2.870
 5316TIP3   OH215890   8.250   0.802   2.410
 5316TIP3    H115891   8.238   0.717   2.367
 5316TIP3    H215892   8.240   0.784   2.503
 5317TIP3   OH215893   3.890   6.564   3.713
 5317TIP3    H115894   3.890   6.479   3.669
 5317TIP3    H215895   3.947   6.619   3.660
 5318TIP3   OH215896   6.703   3.108   5.857
 5318TIP3    H115897   6.727   3.026   5.900
 5318TIP3    H215898   6.767   3.172   5.889
 5319TIP3   OH215899   1.881   4.084   4.552
 5319TIP3    H115900   1.793   4.115   4.531
 5319TIP3    H215901   1.937   4.123   4.486
 5320TIP3   OH215902   0.509   6.829   2.823
 5320TIP3    H115903   0.567   6.846   2.897
 5320TIP3    H215904   0.551   6.758   2.775
 5321TIP3   OH215905   2.634   1.186   6.193
 5321TIP3    H115906   2.604   1.105   6.234
 5321TIP3    H215907   2.665   1.160   6.107
 5322TIP3   OH215908   5.350   2.125   6.522
 5322TIP3    H115909   5.382   2.193   6.463
 5322TIP3    H215910   5.367   2.160   6.610
 5323TIP3   OH215911   1.611   2.390   2.645
 5323TIP3    H115912   1.540   2.339   2.684
 5323TIP3    H215913   1.592   2.391   2.551
 5324TIP3   OH215914   0.425   0.494   0.540
 5324TIP3    H115915   0.427   0.421   0.601
 5324TIP3    H215916   0.515   0.504   0.510
 5325TIP3   OH215917   0.296   6.005   4.728
 5325TIP3    H115918   0.307   6.015   4.823
 5325TIP3    H215919   0.281   5.911   4.717
 5326TIP3   OH215920   2.894   4.869   4.092
 5326TIP3    H115921   2.959   4.802   4.111
 5326TIP3    H215922   2.828   4.860   4.161
 5327TIP3   OH215923   4.652   4.912   0.778
 5327TIP3    H115924   4.685   4.875   0.859
 5327TIP3    H215925   4.729   4.951   0.736
 5328TIP3   OH215926   2.559   1.948   1.186
 5328TIP3    H115927   2.539   1.995   1.266
 5328TIP3    H215928   2.537   1.857   1.205
 5329TIP3   OH215929   1.722   6.952   3.868
 5329TIP3    H115930   1.749   6.992   3.785
 5329TIP3    H215931   1.720   7.026   3.930
 5330TIP3   OH215932   0.803   3.081   1.160
 5330TIP3    H115933   0.882   3.057   1.210
 5330TIP3    H215934   0.774   2.999   1.120
 5331TIP3   OH215935   2.263   6.954   5.732
 5331TIP3    H115936   2.344   6.913   5.701
 5331TIP3    H215937   2.247   7.026   5.672
 5332TIP3   OH215938   2.154   6.672   4.088
 5332TIP3    H115939   2.237   6.634   4.059
 5332TIP3    H215940   2.087   6.624   4.040
 5333TIP3   OH215941   3.694   5.236   6.685
 5333TIP3    H115942   3.767   5.202   6.736
 5333TIP3    H215943   3.616   5.205   6.731
 5334TIP3   OH215944   1.477   3.179   5.285
 5334TIP3    H115945   1.469   3.223   5.369
 5334TIP3    H215946   1.515   3.245   5.227
 5335TIP3   OH215947   6.496   5.491   5.598
 5335TIP3    H115948   6.507   5.582   5.624
 5335TIP3    H215949   6.581   5.465   5.563
 5336TIP3   OH215950   2.208   2.453   1.935
 5336TIP3    H115951   2.283   2.398   1.913
 5336TIP3    H215952   2.213   2.463   2.030
 5337TIP3   OH215953   0.448   5.485   3.131
 5337TIP3    H115954   0.501   5.563   3.149
 5337TIP3    H215955   0.359   5.518   3.121
 5338TIP3   OH215956   4.822   2.394   3.149
 5338TIP3    H115957   4.880   2.470   3.140
 5338TIP3    H215958   4.878   2.318   3.134
 5339TIP3   OH215959   3.449   5.164   2.998
 5339TIP3    H115960   3.451   5.211   2.915
 5339TIP3    H215961   3.412   5.078   2.977
 5340TIP3   OH215962   3.367   0.577   0.257
 5340TIP3    H115963   3.314   0.655   0.273
 5340TIP3    H215964   3.349   0.554   0.166
 5341TIP3   OH215965   2.163   1.123   4.136
 5341TIP3    H115966   2.155   1.031   4.163
 5341TIP3    H215967   2.134   1.123   4.045
 5342TIP3   OH215968   4.431   6.465   2.774
 5342TIP3    H115969   4.350   6.502   2.808
 5342TIP3    H215970   4.472   6.536   2.726
 5343TIP3   OH215971   7.900   3.723   3.926
 5343TIP3    H115972   7.953   3.696   4.001
 5343TIP3    H215973   7.964   3.755   3.862
 5344TIP3   OH215974   2.794   3.382   5.527
 5344TIP3    H115975   2.743   3.409   5.602
 5344TIP3    H215976   2.795   3.286   5.531
 5345TIP3   OH215977   6.949   0.723   5.431
 5345TIP3    H115978   6.854   0.732   5.432
 5345TIP3    H215979   6.974   0.728   5.339
 5346TIP3   OH215980   3.024   3.255   0.905
 5346TIP3    H115981   3.066   3.205   0.975
 5346TIP3    H215982   3.001   3.339   0.946
 5347TIP3   OH215983   5.407   1.938   3.824
 5347TIP3    H115984   5.356   1.999   3.877
 5347TIP3    H215985   5.498   1.961   3.842
 5348TIP3   OH215986   4.962   6.374   6.583
 5348TIP3    H115987   5.013   6.383   6.664
 5348TIP3    H215988   4.873   6.399   6.609
 5349TIP3   OH215989   3.601   1.757   3.173
 5349TIP3    H115990   3.521   1.797   3.140
 5349TIP3    H215991   3.625   1.693   3.107
 5350TIP3   OH215992   1.135   0.660   5.803
 5350TIP3    H115993   1.041   0.663   5.819
 5350TIP3    H215994   1.168   0.742   5.841
 5351TIP3   OH215995   0.456   0.164   2.190
 5351TIP3    H115996   0.504   0.246   2.204
 5351TIP3    H215997   0.376   0.191   2.144
 5352TIP3   OH215998   6.954   2.583   0.066
 5352TIP3    H115999   6.885   2.552   0.124
 5352TIP3    H216000   6.927   2.555  -0.022
 5353TIP3   OH216001   4.587   4.876   1.787
 5353TIP3    H116002   4.610   4.954   1.837
 5353TIP3    H216003   4.524   4.908   1.721
 5354TIP3   OH216004   6.293   7.360   6.320
 5354TIP3    H116005   6.286   7.366   6.224
 5354TIP3    H216006   6.240   7.433   6.352
 5355TIP3   OH216007   2.254   3.637   5.175
 5355TIP3    H116008   2.329   3.635   5.235
 5355TIP3    H216009   2.292   3.612   5.090
 5356TIP3   OH216010   4.849   3.539   6.264
 5356TIP3    H116011   4.917   3.511   6.325
 5356TIP3    H216012   4.799   3.605   6.312
 5357TIP3   OH216013   2.005   1.674   0.485
 5357TIP3    H116014   1.999   1.751   0.541
 5357TIP3    H216015   2.071   1.698   0.419
 5358TIP3   OH216016   5.649   0.319   2.800
 5358TIP3    H116017   5.728   0.368   2.824
 5358TIP3    H216018   5.579   0.385   2.801
 5359TIP3   OH216019   5.471   7.779   5.482
 5359TIP3    H116020   5.425   7.711   5.532
 5359TIP3    H216021   5.553   7.738   5.455
 5360TIP3   OH216022   2.369   0.173   2.674
 5360TIP3    H116023   2.381   0.266   2.690
 5360TIP3    H216024   2.458   0.136   2.679
 5361TIP3   OH216025   6.743   2.310   1.566
 5361TIP3    H116026   6.832   2.342   1.553
 5361TIP3    H216027   6.691   2.361   1.503
 5362TIP3   OH216028   6.785   4.389   5.343
 5362TIP3    H116029   6.810   4.415   5.255
 5362TIP3    H216030   6.690   4.382   5.340
 5363TIP3   OH216031   5.115   4.128   3.110
 5363TIP3    H116032   5.117   4.218   3.079
 5363TIP3    H216033   5.067   4.132   3.193
 5364TIP3   OH216034   5.138   0.609   3.196
 5364TIP3    H116035   5.154   0.684   3.254
 5364TIP3    H216036   5.095   0.544   3.252
 5365TIP3   OH216037   5.805   5.164   1.427
 5365TIP3    H116038   5.891   5.121   1.425
 5365TIP3    H216039   5.826   5.258   1.426
 5366TIP3   OH216040   0.315   4.266   1.768
 5366TIP3    H116041   0.341   4.177   1.790
 5366TIP3    H216042   0.392   4.319   1.788
 5367TIP3   OH216043   0.832   1.516   0.891
 5367TIP3    H116044   0.888   1.545   0.819
 5367TIP3    H216045   0.814   1.424   0.872
 5368TIP3   OH216046   0.391   7.337   3.658
 5368TIP3    H116047   0.391   7.244   3.634
 5368TIP3    H216048   0.478   7.368   3.635
 5369TIP3   OH216049   5.868   6.771   2.291
 5369TIP3    H116050   5.932   6.842   2.285
 5369TIP3    H216051   5.899   6.705   2.228
 5370TIP3   OH216052   3.410   1.426   1.380
 5370TIP3    H116053   3.489   1.408   1.329
 5370TIP3    H216054   3.409   1.521   1.389
 5371TIP3   OH216055   6.117   4.615   2.736
 5371TIP3    H116056   6.123   4.535   2.684
 5371TIP3    H216057   6.201   4.620   2.781
 5372TIP3   OH216058   3.504   0.592   6.198
 5372TIP3    H116059   3.416   0.561   6.218
 5372TIP3    H216060   3.493   0.680   6.164
 5373TIP3   OH216061   8.034   1.382   3.610
 5373TIP3    H116062   7.956   1.336   3.641
 5373TIP3    H216063   8.000   1.463   3.572
 5374TIP3   OH216064   2.782   2.618   3.701
 5374TIP3    H116065   2.708   2.562   3.725
 5374TIP3    H216066   2.856   2.583   3.750
 5375TIP3   OH216067   6.481   7.083   5.157
 5375TIP3    H116068   6.430   7.011   5.194
 5375TIP3    H216069   6.515   7.050   5.075
 5376TIP3   OH216070   7.057   3.729   4.085
 5376TIP3    H116071   7.091   3.757   4.169
 5376TIP3    H216072   7.098   3.788   4.021
 5377TIP3   OH216073   0.137   4.536   4.802
 5377TIP3    H116074   0.092   4.620   4.802
 5377TIP3    H216075   0.221   4.552   4.760
 5378TIP3   OH216076   4.227   3.565   5.661
 5378TIP3    H116077   4.198   3.474   5.668
 5378TIP3    H216078   4.163   3.605   5.602
 5379TIP3   OH216079   6.491   5.508   0.526
 5379TIP3    H116080   6.469   5.543   0.439
 5379TIP3    H216081   6.538   5.427   0.509
 5380TIP3   OH216082   6.879   2.084   2.647
 5380TIP3    H116083   6.829   2.002   2.644
 5380TIP3    H216084   6.853   2.125   2.729
 5381TIP3   OH216085   5.756   0.259   0.463
 5381TIP3    H116086   5.708   0.244   0.545
 5381TIP3    H216087   5.691   0.301   0.406
 5382TIP3   OH216088   1.748   5.589   0.713
 5382TIP3    H116089   1.828   5.593   0.659
 5382TIP3    H216090   1.678   5.572   0.650
 5383TIP3   OH216091   6.376   0.629   1.046
 5383TIP3    H116092   6.429   0.654   0.971
 5383TIP3    H216093   6.312   0.700   1.056
 5384TIP3   OH216094   2.518   3.686   5.541
 5384TIP3    H116095   2.526   3.608   5.486
 5384TIP3    H216096   2.490   3.755   5.481
 5385TIP3   OH216097   5.294   6.960   0.326
 5385TIP3    H116098   5.297   6.871   0.292
 5385TIP3    H216099   5.374   7.001   0.293
 5386TIP3   OH216100   1.214   0.859   2.994
 5386TIP3    H116101   1.280   0.794   2.970
 5386TIP3    H216102   1.133   0.826   2.955
 5387TIP3   OH216103   4.823   5.538   0.768
 5387TIP3    H116104   4.820   5.489   0.685
 5387TIP3    H216105   4.789   5.477   0.833
 5388TIP3   OH216106   1.300   4.530   4.186
 5388TIP3    H116107   1.295   4.574   4.101
 5388TIP3    H216108   1.209   4.512   4.209
 5389TIP3   OH216109   2.435   4.828   4.776
 5389TIP3    H116110   2.450   4.734   4.783
 5389TIP3    H216111   2.367   4.837   4.709
 5390TIP3   OH216112   4.457   6.252   6.071
 5390TIP3    H116113   4.477   6.341   6.044
 5390TIP3    H216114   4.510   6.238   6.150
 5391TIP3   OH216115   3.637   6.061   4.593
 5391TIP3    H116116   3.669   5.979   4.555
 5391TIP3    H216117   3.665   6.129   4.531
 5392TIP3   OH216118   4.612   4.742   0.215
 5392TIP3    H116119   4.621   4.819   0.159
 5392TIP3    H216120   4.679   4.754   0.282
 5393TIP3   OH216121   2.468   0.850   1.188
 5393TIP3    H116122   2.402   0.831   1.254
 5393TIP3    H216123   2.461   0.945   1.173
 5394TIP3   OH216124   3.137   6.290   5.141
 5394TIP3    H116125   3.082   6.213   5.125
 5394TIP3    H216126   3.079   6.353   5.183
 5395TIP3   OH216127   2.008   5.795   6.494
 5395TIP3    H116128   1.988   5.742   6.417
 5395TIP3    H216129   2.089   5.757   6.529
 5396TIP3   OH216130   1.495   5.964   2.415
 5396TIP3    H116131   1.468   5.875   2.393
 5396TIP3    H216132   1.466   5.976   2.506
 5397TIP3   OH216133   1.772   0.557   2.889
 5397TIP3    H116134   1.708   0.592   2.828
 5397TIP3    H216135   1.856   0.586   2.856
 5398TIP3   OH216136   7.522   4.798   0.507
 5398TIP3    H116137   7.572   4.864   0.459
 5398TIP3    H216138   7.585   4.761   0.568
 5399TIP3   OH216139   1.541   1.697   3.803
 5399TIP3    H116140   1.607   1.760   3.776
 5399TIP3    H216141   1.464   1.750   3.825
 5400TIP3   OH216142   6.396   0.348   1.733
 5400TIP3    H116143   6.383   0.278   1.668
 5400TIP3    H216144   6.373   0.307   1.816
 5401TIP3   OH216145   6.951   2.796   4.709
 5401TIP3    H116146   6.992   2.723   4.662
 5401TIP3    H216147   7.018   2.864   4.711
 5402TIP3   OH216148   0.751   6.621   2.927
 5402TIP3    H116149   0.819   6.675   2.966
 5402TIP3    H216150   0.782   6.603   2.838
 5403TIP3   OH216151   7.745   2.044   2.345
 5403TIP3    H116152   7.801   1.966   2.351
 5403TIP3    H216153   7.786   2.108   2.404
 5404TIP3   OH216154   4.017   3.045   2.348
 5404TIP3    H116155   3.957   3.007   2.411
 5404TIP3    H216156   4.102   3.045   2.392
 5405TIP3   OH216157   6.208   2.484   0.597
 5405TIP3    H116158   6.295   2.464   0.561
 5405TIP3    H216159   6.177   2.558   0.545
 5406TIP3   OH216160   3.446   5.860   0.083
 5406TIP3    H116161   3.475   5.882   0.172
 5406TIP3    H216162   3.524   5.823   0.041
 5407TIP3   OH216163   5.685   2.547   2.103
 5407TIP3    H116164   5.628   2.489   2.054
 5407TIP3    H216165   5.715   2.495   2.178
 5408TIP3   OH216166   5.223   5.296   4.182
 5408TIP3    H116167   5.310   5.294   4.223
 5408TIP3    H216168   5.235   5.344   4.101
 5409TIP3   OH216169   6.021   1.028   1.827
 5409TIP3    H116170   6.008   0.958   1.890
 5409TIP3    H216171   6.055   0.984   1.749
 5410TIP3   OH216172   4.490   0.428   1.879
 5410TIP3    H116173   4.452   0.340   1.876
 5410TIP3    H216174   4.489   0.451   1.972
 5411TIP3   OH216175   6.915   3.427   3.075
 5411TIP3    H116176   6.994   3.438   3.128
 5411TIP3    H216177   6.848   3.476   3.123
 5412TIP3   OH216178   7.916   0.708   1.313
 5412TIP3    H116179   8.004   0.704   1.350
 5412TIP3    H216180   7.931   0.713   1.218
 5413TIP3   OH216181   4.809   7.210   2.006
 5413TIP3    H116182   4.833   7.282   1.947
 5413TIP3    H216183   4.886   7.198   2.062
 5414TIP3   OH216184   2.423   4.075   5.991
 5414TIP3    H116185   2.434   3.984   5.963
 5414TIP3    H216186   2.335   4.099   5.961
 5415TIP3   OH216187   0.139   2.296   1.156
 5415TIP3    H116188   0.206   2.343   1.206
 5415TIP3    H216189   0.111   2.225   1.214
 5416TIP3   OH216190   8.142   3.529   3.808
 5416TIP3    H116191   8.109   3.492   3.726
 5416TIP3    H216192   8.165   3.619   3.786
 5417TIP3   OH216193   7.133   2.812   0.709
 5417TIP3    H116194   7.102   2.833   0.797
 5417TIP3    H216195   7.174   2.726   0.718
 5418TIP3   OH216196   3.803   1.908   3.881
 5418TIP3    H116197   3.833   1.970   3.947
 5418TIP3    H216198   3.821   1.952   3.797
 5419TIP3   OH216199   2.409   1.250   3.735
 5419TIP3    H116200   2.362   1.324   3.772
 5419TIP3    H216201   2.456   1.212   3.809
 5420TIP3   OH216202   2.249   1.608   1.747
 5420TIP3    H116203   2.298   1.675   1.699
 5420TIP3    H216204   2.308   1.533   1.750
 5421TIP3   OH216205   6.405   5.995   0.731
 5421TIP3    H116206   6.495   5.965   0.745
 5421TIP3    H216207   6.365   5.993   0.818
 5422TIP3   OH216208   5.472   1.118   0.407
 5422TIP3    H116209   5.566   1.109   0.390
 5422TIP3    H216210   5.454   1.050   0.472
 5423TIP3   OH216211   4.526   6.526   5.426
 5423TIP3    H116212   4.536   6.613   5.390
 5423TIP3    H216213   4.529   6.468   5.350
 5424TIP3   OH216214   6.478   0.478   1.473
 5424TIP3    H116215   6.439   0.394   1.495
 5424TIP3    H216216   6.490   0.475   1.378
 5425TIP3   OH216217   4.821   5.836   1.505
 5425TIP3    H116218   4.811   5.778   1.581
 5425TIP3    H216219   4.732   5.867   1.486
 5426TIP3   OH216220   7.358   3.097   1.371
 5426TIP3    H116221   7.382   3.063   1.457
 5426TIP3    H216222   7.295   3.033   1.337
 5427TIP3   OH216223   4.943   5.369   2.643
 5427TIP3    H116224   4.853   5.341   2.657
 5427TIP3    H216225   4.979   5.379   2.732
 5428TIP3   OH216226   6.319   6.244   5.746
 5428TIP3    H116227   6.320   6.273   5.837
 5428TIP3    H216228   6.245   6.292   5.706
 5429TIP3   OH216229   5.946   1.459   6.211
 5429TIP3    H116230   6.015   1.398   6.239
 5429TIP3    H216231   5.870   1.403   6.194
 5430TIP3   OH216232   7.955   3.052   4.398
 5430TIP3    H116233   8.037   3.102   4.396
 5430TIP3    H216234   7.983   2.962   4.414
 5431TIP3   OH216235   0.350   5.357   5.363
 5431TIP3    H116236   0.348   5.274   5.411
 5431TIP3    H216237   0.417   5.409   5.407
 5432TIP3   OH216238   3.494   6.176   2.637
 5432TIP3    H116239   3.434   6.194   2.565
 5432TIP3    H216240   3.550   6.106   2.604
 5433TIP3   OH216241   6.888   0.309   4.326
 5433TIP3    H116242   6.968   0.284   4.279
 5433TIP3    H216243   6.831   0.233   4.317
 5434TIP3   OH216244   3.506   6.822   5.782
 5434TIP3    H116245   3.589   6.865   5.800
 5434TIP3    H216246   3.503   6.747   5.842
 5435TIP3   OH216247   5.792   7.357   2.914
 5435TIP3    H116248   5.882   7.327   2.906
 5435TIP3    H216249   5.798   7.442   2.958
 5436TIP3   OH216250   0.070   0.960   3.406
 5436TIP3    H116251   0.164   0.975   3.397
 5436TIP3    H216252   0.036   1.044   3.439
 5437TIP3   OH216253   2.139   7.384   2.991
 5437TIP3    H116254   2.198   7.382   2.915
 5437TIP3    H216255   2.134   7.477   3.014
 5438TIP3   OH216256   1.311   7.385   5.481
 5438TIP3    H116257   1.258   7.363   5.558
 5438TIP3    H216258   1.320   7.480   5.485
 5439TIP3   OH216259   1.172   2.702   0.459
 5439TIP3    H116260   1.131   2.707   0.373
 5439TIP3    H216261   1.145   2.617   0.494
 5440TIP3   OH216262   5.244   6.474   4.154
 5440TIP3    H116263   5.309   6.487   4.084
 5440TIP3    H216264   5.269   6.390   4.194
 5441TIP3   OH216265   4.101   0.960   1.269
 5441TIP3    H116266   4.054   0.879   1.250
 5441TIP3    H216267   4.061   0.993   1.349
 5442TIP3   OH216268   5.719   2.172   2.037
 5442TIP3    H116269   5.742   2.085   2.005
 5442TIP3    H216270   5.711   2.226   1.958
 5443TIP3   OH216271   2.480   5.641   3.341
 5443TIP3    H116272   2.445   5.553   3.332
 5443TIP3    H216273   2.407   5.693   3.374
 5444TIP3   OH216274   6.558   2.123   2.489
 5444TIP3    H116275   6.541   2.031   2.473
 5444TIP3    H216276   6.645   2.139   2.451
 5445TIP3   OH216277   6.140   5.320   1.357
 5445TIP3    H116278   6.157   5.227   1.348
 5445TIP3    H216279   6.197   5.362   1.292
 5446TIP3   OH216280   1.798   6.098   4.909
 5446TIP3    H116281   1.849   6.126   4.832
 5446TIP3    H216282   1.711   6.077   4.874
 5447TIP3   OH216283   1.021   0.343   5.482
 5447TIP3    H116284   1.080   0.418   5.479
 5447TIP3    H216285   1.071   0.271   5.442
 5448TIP3   OH216286   2.492   5.377   1.125
 5448TIP3    H116287   2.534   5.462   1.110
 5448TIP3    H216288   2.562   5.321   1.159
 5449TIP3   OH216289   4.483   0.170   2.210
 5449TIP3    H116290   4.498   0.262   2.191
 5449TIP3    H216291   4.420   0.170   2.283
 5450TIP3   OH216292   0.849   1.111   1.715
 5450TIP3    H116293   0.803   1.193   1.727
 5450TIP3    H216294   0.786   1.043   1.738
 5451TIP3   OH216295   0.496   6.969   4.873
 5451TIP3    H116296   0.524   7.048   4.828
 5451TIP3    H216297   0.483   6.997   4.964
 5452TIP3   OH216298   1.890   6.204   0.966
 5452TIP3    H116299   1.979   6.167   0.968
 5452TIP3    H216300   1.872   6.218   0.873
 5453TIP3   OH216301   7.733   1.013   1.516
 5453TIP3    H116302   7.714   0.977   1.603
 5453TIP3    H216303   7.697   1.101   1.519
 5454TIP3   OH216304   3.804   4.770   6.217
 5454TIP3    H116305   3.750   4.692   6.205
 5454TIP3    H216306   3.892   4.737   6.232
 5455TIP3   OH216307   1.375   5.557   4.341
 5455TIP3    H116308   1.366   5.591   4.252
 5455TIP3    H216309   1.419   5.473   4.329
 5456TIP3   OH216310   2.248   1.729   0.739
 5456TIP3    H116311   2.166   1.767   0.709
 5456TIP3    H216312   2.238   1.723   0.834
 5457TIP3   OH216313   4.681   0.299   5.585
 5457TIP3    H116314   4.727   0.373   5.544
 5457TIP3    H216315   4.706   0.223   5.533
 5458TIP3   OH216316   2.388   0.548   0.432
 5458TIP3    H116317   2.370   0.455   0.416
 5458TIP3    H216318   2.392   0.588   0.346
 5459TIP3   OH216319   0.359   2.820   0.188
 5459TIP3    H116320   0.386   2.734   0.220
 5459TIP3    H216321   0.441   2.870   0.184
 5460TIP3   OH216322   6.593   7.245   0.083
 5460TIP3    H116323   6.611   7.195   0.003
 5460TIP3    H216324   6.675   7.245   0.131
 5461TIP3   OH216325   4.866   4.348   5.702
 5461TIP3    H116326   4.867   4.359   5.797
 5461TIP3    H216327   4.817   4.423   5.669
 5462TIP3   OH216328   4.229   7.367   6.471
 5462TIP3    H116329   4.239   7.303   6.542
 5462TIP3    H216330   4.315   7.409   6.465
 5463TIP3   OH216331   6.745   5.177   6.801
 5463TIP3    H116332   6.667   5.131   6.831
 5463TIP3    H216333   6.723   5.207   6.713
 5464TIP3   OH216334   7.263   5.920   1.372
 5464TIP3    H116335   7.231   6.008   1.355
 5464TIP3    H216336   7.194   5.878   1.422
 5465TIP3   OH216337   4.915   2.153   3.008
 5465TIP3    H116338   4.861   2.161   2.929
 5465TIP3    H216339   5.002   2.182   2.980
 5466TIP3   OH216340   0.938   7.087   3.779
 5466TIP3    H116341   0.979   7.174   3.779
 5466TIP3    H216342   1.009   7.028   3.805
 5467TIP3   OH216343   1.845   2.173   0.460
 5467TIP3    H116344   1.839   2.149   0.552
 5467TIP3    H216345   1.759   2.154   0.424
 5468TIP3   OH216346   5.141   7.690   0.312
 5468TIP3    H116347   5.195   7.673   0.234
 5468TIP3    H216348   5.180   7.635   0.380
 5469TIP3   OH216349   1.439   7.134   1.915
 5469TIP3    H116350   1.372   7.087   1.965
 5469TIP3    H216351   1.430   7.101   1.825
 5470TIP3   OH216352   7.078   1.760   4.616
 5470TIP3    H116353   7.171   1.738   4.610
 5470TIP3    H216354   7.038   1.681   4.653
 5471TIP3   OH216355   1.943   6.422   0.369
 5471TIP3    H116356   1.912   6.331   0.364
 5471TIP3    H216357   1.864   6.473   0.386
 5472TIP3   OH216358   3.637   1.513   6.062
 5472TIP3    H116359   3.722   1.520   6.019
 5472TIP3    H216360   3.656   1.523   6.155
 5473TIP3   OH216361   6.259   7.032   3.382
 5473TIP3    H116362   6.332   7.005   3.437
 5473TIP3    H216363   6.186   7.045   3.443
 5474TIP3   OH216364   5.144   3.991   6.523
 5474TIP3    H116365   5.184   4.057   6.580
 5474TIP3    H216366   5.067   3.961   6.571
 5475TIP3   OH216367   4.505   4.886   6.797
 5475TIP3    H116368   4.551   4.807   6.768
 5475TIP3    H216369   4.456   4.914   6.719
 5476TIP3   OH216370   8.170   3.076   0.905
 5476TIP3    H116371   8.156   2.992   0.950
 5476TIP3    H216372   8.110   3.137   0.950
 5477TIP3   OH216373   5.456   6.563   4.606
 5477TIP3    H116374   5.448   6.494   4.673
 5477TIP3    H216375   5.537   6.609   4.630
 5478TIP3   OH216376   2.128   2.405   3.431
 5478TIP3    H116377   2.057   2.341   3.427
 5478TIP3    H216378   2.117   2.458   3.352
 5479TIP3   OH216379   4.125   7.346   6.083
 5479TIP3    H116380   4.143   7.283   6.153
 5479TIP3    H216381   4.173   7.312   6.008
 5480TIP3   OH216382   2.340   7.128   1.329
 5480TIP3    H116383   2.378   7.046   1.357
 5480TIP3    H216384   2.260   7.137   1.381
 5481TIP3   OH216385   5.523   4.303   1.873
 5481TIP3    H116386   5.576   4.295   1.953
 5481TIP3    H216387   5.527   4.396   1.852
 5482TIP3   OH216388   2.531   4.650   0.412
 5482TIP3    H116389   2.499   4.575   0.361
 5482TIP3    H216390   2.623   4.630   0.428
 5483TIP3   OH216391   6.012   4.284   2.886
 5483TIP3    H116392   6.034   4.320   2.801
 5483TIP3    H216393   6.041   4.193   2.882
 5484TIP3   OH216394   6.060   4.925   1.765
 5484TIP3    H116395   6.058   4.884   1.678
 5484TIP3    H216396   5.989   4.989   1.762
 5485TIP3   OH216397   2.999   7.755   0.981
 5485TIP3    H116398   2.943   7.810   1.036
 5485TIP3    H216399   3.048   7.701   1.042
 5486TIP3   OH216400   6.150   3.581   4.603
 5486TIP3    H116401   6.234   3.568   4.559
 5486TIP3    H216402   6.162   3.541   4.689
 5487TIP3   OH216403   0.726   2.365   4.546
 5487TIP3    H116404   0.756   2.274   4.541
 5487TIP3    H216405   0.767   2.407   4.470
 5488TIP3   OH216406   4.241   5.874   5.491
 5488TIP3    H116407   4.236   5.967   5.472
 5488TIP3    H216408   4.300   5.867   5.565
 5489TIP3   OH216409   3.081   4.222   6.418
 5489TIP3    H116410   3.017   4.244   6.350
 5489TIP3    H216411   3.030   4.175   6.485
 5490TIP3   OH216412   5.602   2.840   4.359
 5490TIP3    H116413   5.578   2.791   4.438
 5490TIP3    H216414   5.698   2.845   4.363
 5491TIP3   OH216415   4.103   7.649   4.694
 5491TIP3    H116416   4.152   7.570   4.717
 5491TIP3    H216417   4.113   7.707   4.769
 5492TIP3   OH216418   7.673   5.471   4.086
 5492TIP3    H116419   7.628   5.403   4.036
 5492TIP3    H216420   7.744   5.425   4.131
 5493TIP3   OH216421   0.605   2.756   1.457
 5493TIP3    H116422   0.592   2.715   1.542
 5493TIP3    H216423   0.662   2.831   1.476
 5494TIP3   OH216424   7.648   2.715   2.915
 5494TIP3    H116425   7.559   2.737   2.942
 5494TIP3    H216426   7.640   2.686   2.825
 5495TIP3   OH216427   4.372   2.968   2.064
 5495TIP3    H116428   4.413   3.018   2.135
 5495TIP3    H216429   4.398   2.878   2.081
 5496TIP3   OH216430   7.772   5.140   6.079
 5496TIP3    H116431   7.686   5.151   6.120
 5496TIP3    H216432   7.753   5.134   5.985
 5497TIP3   OH216433   4.999   3.639   6.618
 5497TIP3    H116434   4.921   3.584   6.623
 5497TIP3    H216435   5.071   3.580   6.637
 5498TIP3   OH216436   3.204   7.645   0.079
 5498TIP3    H116437   3.224   7.566   0.029
 5498TIP3    H216438   3.286   7.666   0.124
 5499TIP3   OH216439   0.520   4.407   2.582
 5499TIP3    H116440   0.430   4.378   2.573
 5499TIP3    H216441   0.562   4.341   2.638
 5500TIP3   OH216442   7.197   6.393   4.636
 5500TIP3    H116443   7.273   6.412   4.690
 5500TIP3    H216444   7.232   6.350   4.558
 5501TIP3   OH216445   3.681   3.605   6.214
 5501TIP3    H116446   3.629   3.619   6.293
 5501TIP3    H216447   3.617   3.598   6.143
 5502TIP3   OH216448   6.333   2.000   3.283
 5502TIP3    H116449   6.361   2.039   3.200
 5502TIP3    H216450   6.388   2.042   3.349
 5503TIP3   OH216451   2.151   1.704   5.530
 5503TIP3    H116452   2.064   1.736   5.555
 5503TIP3    H216453   2.183   1.658   5.607
 5504TIP3   OH216454   2.383   0.073   3.263
 5504TIP3    H116455   2.435   0.030   3.195
 5504TIP3    H216456   2.408   0.028   3.344
 5505TIP3   OH216457   2.055   2.077   4.168
 5505TIP3    H116458   2.055   1.991   4.125
 5505TIP3    H216459   2.131   2.074   4.226
 5506TIP3   OH216460   3.753   3.468   3.266
 5506TIP3    H116461   3.720   3.379   3.266
 5506TIP3    H216462   3.840   3.462   3.305
 5507TIP3   OH216463   3.202   4.787   1.230
 5507TIP3    H116464   3.125   4.792   1.287
 5507TIP3    H216465   3.166   4.781   1.141
 5508TIP3   OH216466   1.750   6.907   1.318
 5508TIP3    H116467   1.804   6.984   1.336
 5508TIP3    H216468   1.801   6.858   1.253
 5509TIP3   OH216469   6.220   2.734   4.011
 5509TIP3    H116470   6.304   2.687   4.010
 5509TIP3    H216471   6.156   2.669   4.040
 5510TIP3   OH216472   3.303   4.416   6.349
 5510TIP3    H116473   3.241   4.343   6.341
 5510TIP3    H216474   3.389   4.376   6.333
 5511TIP3   OH216475   0.148   3.115   4.107
 5511TIP3    H116476   0.200   3.049   4.060
 5511TIP3    H216477   0.110   3.169   4.038
 5512TIP3   OH216478   2.815   1.605   5.515
 5512TIP3    H116479   2.771   1.669   5.459
 5512TIP3    H216480   2.897   1.586   5.470
 5513TIP3   OH216481   2.341   1.362   5.546
 5513TIP3    H116482   2.329   1.360   5.451
 5513TIP3    H216483   2.423   1.410   5.559
 5514TIP3   OH216484   0.529   7.805   6.148
 5514TIP3    H116485   0.441   7.768   6.159
 5514TIP3    H216486   0.515   7.900   6.144
 5515TIP3   OH216487   3.217   1.937   5.807
 5515TIP3    H116488   3.232   2.010   5.866
 5515TIP3    H216489   3.145   1.888   5.846
 5516TIP3   OH216490   7.706   4.193   0.327
 5516TIP3    H116491   7.723   4.177   0.234
 5516TIP3    H216492   7.788   4.171   0.370
 5517TIP3   OH216493   0.054   5.723   4.041
 5517TIP3    H116494   0.072   5.689   4.129
 5517TIP3    H216495   0.013   5.808   4.055
 5518TIP3   OH216496   2.030   2.588   6.270
 5518TIP3    H116497   2.051   2.495   6.258
 5518TIP3    H216498   1.992   2.592   6.357
 5519TIP3   OH216499   7.790   2.727   4.613
 5519TIP3    H116500   7.806   2.669   4.687
 5519TIP3    H216501   7.739   2.799   4.649
 5520TIP3   OH216502   8.285   7.451   5.746
 5520TIP3    H116503   8.218   7.491   5.690
 5520TIP3    H216504   8.329   7.388   5.690
 5521TIP3   OH216505   6.372   6.944   2.859
 5521TIP3    H116506   6.371   6.945   2.954
 5521TIP3    H216507   6.389   6.853   2.836
 5522TIP3   OH216508   4.088   1.459   6.460
 5522TIP3    H116509   4.070   1.406   6.383
 5522TIP3    H216510   4.177   1.434   6.486
 5523TIP3   OH216511   3.445   4.150   2.131
 5523TIP3    H116512   3.392   4.187   2.061
 5523TIP3    H216513   3.520   4.111   2.087
 5524TIP3   OH216514   4.579   4.202   2.646
 5524TIP3    H116515   4.612   4.191   2.557
 5524TIP3    H216516   4.526   4.281   2.643
 5525TIP3   OH216517   4.792   6.878   2.216
 5525TIP3    H116518   4.800   6.830   2.133
 5525TIP3    H216519   4.855   6.950   2.208
 5526TIP3   OH216520   2.462   1.865   4.083
 5526TIP3    H116521   2.529   1.927   4.057
 5526TIP3    H216522   2.413   1.845   4.003
 5527TIP3   OH216523   5.892   0.016   0.481
 5527TIP3    H116524   5.831   0.087   0.503
 5527TIP3    H216525   5.853  -0.026   0.405
 5528TIP3   OH216526   4.260   3.770   5.012
 5528TIP3    H116527   4.172   3.804   5.026
 5528TIP3    H216528   4.297   3.762   5.100
 5529TIP3   OH216529   1.349   7.656   1.766
 5529TIP3    H116530   1.299   7.576   1.785
 5529TIP3    H216531   1.283   7.724   1.753
 5530TIP3   OH216532   2.339   3.387   1.541
 5530TIP3    H116533   2.327   3.475   1.578
 5530TIP3    H216534   2.272   3.381   1.473
 5531TIP3   OH216535   6.482   1.705   1.477
 5531TIP3    H116536   6.405   1.700   1.420
 5531TIP3    H216537   6.537   1.632   1.449
 5532TIP3   OH216538   1.657   2.124   4.633
 5532TIP3    H116539   1.659   2.064   4.558
 5532TIP3    H216540   1.625   2.070   4.706
 5533TIP3   OH216541   3.630   3.345   1.910
 5533TIP3    H116542   3.543   3.342   1.951
 5533TIP3    H216543   3.622   3.410   1.841
 5534TIP3   OH216544   8.163   4.274   0.939
 5534TIP3    H116545   8.238   4.221   0.912
 5534TIP3    H216546   8.140   4.243   1.026
 5535TIP3   OH216547   7.000   7.216   2.559
 5535TIP3    H116548   6.969   7.128   2.580
 5535TIP3    H216549   7.038   7.247   2.642
 5536TIP3   OH216550   1.477   3.512   6.470
 5536TIP3    H116551   1.549   3.478   6.418
 5536TIP3    H216552   1.495   3.606   6.478
 5537TIP3   OH216553   7.267   6.437   2.387
 5537TIP3    H116554   7.209   6.362   2.395
 5537TIP3    H216555   7.244   6.477   2.303
 5538TIP3   OH216556   6.952   3.602   6.416
 5538TIP3    H116557   7.029   3.612   6.472
 5538TIP3    H216558   6.915   3.690   6.410
 5539TIP3   OH216559   1.904   5.892   6.090
 5539TIP3    H116560   1.819   5.887   6.045
 5539TIP3    H216561   1.968   5.894   6.019
 5540TIP3   OH216562   5.735   1.289   1.585
 5540TIP3    H116563   5.697   1.214   1.632
 5540TIP3    H216564   5.776   1.342   1.654
 5541TIP3   OH216565   1.281   1.039   1.024
 5541TIP3    H116566   1.200   1.062   0.977
 5541TIP3    H216567   1.297   0.948   1.000
 5542TIP3   OH216568   6.870   0.257   0.542
 5542TIP3    H116569   6.779   0.276   0.563
 5542TIP3    H216570   6.916   0.340   0.555
 5543TIP3   OH216571   1.869   4.149   6.027
 5543TIP3    H116572   1.873   4.068   6.079
 5543TIP3    H216573   1.834   4.214   6.087
 5544TIP3   OH216574   0.107   2.840   0.281
 5544TIP3    H116575   0.199   2.847   0.258
 5544TIP3    H216576   0.060   2.862   0.201
 5545TIP3   OH216577   4.824   5.849   6.222
 5545TIP3    H116578   4.786   5.937   6.217
 5545TIP3    H216579   4.913   5.863   6.253
 5546TIP3   OH216580   3.254   1.741   0.676
 5546TIP3    H116581   3.174   1.741   0.729
 5546TIP3    H216582   3.325   1.751   0.741
 5547TIP3   OH216583   3.082   3.754   5.970
 5547TIP3    H116584   3.128   3.752   5.885
 5547TIP3    H216585   3.151   3.768   6.034
 5548TIP3   OH216586   5.178   0.553   2.658
 5548TIP3    H116587   5.124   0.481   2.692
 5548TIP3    H216588   5.188   0.532   2.565
 5549TIP3   OH216589   7.566   7.019   2.063
 5549TIP3    H116590   7.624   7.091   2.088
 5549TIP3    H216591   7.599   6.943   2.110
 5550TIP3   OH216592   3.937   6.357   1.004
 5550TIP3    H116593   3.861   6.363   0.946
 5550TIP3    H216594   3.923   6.425   1.070
 5551TIP3   OH216595   6.030   1.273   2.001
 5551TIP3    H116596   6.119   1.306   1.985
 5551TIP3    H216597   6.021   1.199   1.941
 5552TIP3   OH216598   3.322   2.248   3.858
 5552TIP3    H116599   3.372   2.171   3.832
 5552TIP3    H216600   3.236   2.236   3.818
 5553TIP3   OH216601   0.210   4.710   4.200
 5553TIP3    H116602   0.173   4.727   4.113
 5553TIP3    H216603   0.300   4.682   4.182
 5554TIP3   OH216604   2.327   4.310   6.509
 5554TIP3    H116605   2.388   4.383   6.517
 5554TIP3    H216606   2.243   4.352   6.487
 5555TIP3   OH216607   3.048   4.361   3.241
 5555TIP3    H116608   3.061   4.361   3.146
 5555TIP3    H216609   2.990   4.288   3.258
 5556TIP3   OH216610   7.879   3.181   0.546
 5556TIP3    H116611   7.831   3.225   0.616
 5556TIP3    H216612   7.822   3.189   0.470
 5557TIP3   OH216613   7.306   1.759   4.055
 5557TIP3    H116614   7.281   1.697   3.987
 5557TIP3    H216615   7.399   1.740   4.072
 5558TIP3   OH216616   2.454   5.205   2.942
 5558TIP3    H116617   2.363   5.213   2.969
 5558TIP3    H216618   2.486   5.126   2.986
 5559TIP3   OH216619   8.174   5.180   4.059
 5559TIP3    H116620   8.231   5.256   4.052
 5559TIP3    H216621   8.184   5.134   3.975
 5560TIP3   OH216622   1.105   1.457   3.624
 5560TIP3    H116623   1.052   1.524   3.668
 5560TIP3    H216624   1.180   1.445   3.682
 5561TIP3   OH216625   4.887   1.039   3.557
 5561TIP3    H116626   4.856   0.986   3.484
 5561TIP3    H216627   4.813   1.097   3.577
 5562TIP3   OH216628   3.143   4.078   6.077
 5562TIP3    H116629   3.162   4.170   6.063
 5562TIP3    H216630   3.196   4.032   6.011
 5563TIP3   OH216631   7.060   5.804   1.563
 5563TIP3    H116632   7.023   5.867   1.501
 5563TIP3    H216633   7.059   5.850   1.647
 5564TIP3   OH216634   4.293   6.077   4.261
 5564TIP3    H116635   4.372   6.108   4.305
 5564TIP3    H216636   4.257   6.154   4.218
 5565TIP3   OH216637   5.946   7.611   1.215
 5565TIP3    H116638   6.040   7.624   1.198
 5565TIP3    H216639   5.938   7.618   1.310
 5566TIP3   OH216640   1.704   3.929   4.362
 5566TIP3    H116641   1.710   3.921   4.457
 5566TIP3    H216642   1.730   3.843   4.329
 5567TIP3   OH216643   1.743   7.343   1.454
 5567TIP3    H116644   1.758   7.418   1.397
 5567TIP3    H216645   1.698   7.380   1.530
 5568TIP3   OH216646   2.576   0.499   2.964
 5568TIP3    H116647   2.611   0.516   3.051
 5568TIP3    H216648   2.483   0.482   2.979
 5569TIP3   OH216649   2.497   2.027   3.618
 5569TIP3    H116650   2.479   2.058   3.530
 5569TIP3    H216651   2.502   2.107   3.671
 5570TIP3   OH216652   7.491   7.089   3.484
 5570TIP3    H116653   7.397   7.099   3.499
 5570TIP3    H216654   7.523   7.042   3.561
 5571TIP3   OH216655   7.621   1.989   5.706
 5571TIP3    H116656   7.616   2.041   5.786
 5571TIP3    H216657   7.556   2.028   5.648
 5572TIP3   OH216658   2.567   3.450   5.370
 5572TIP3    H116659   2.632   3.404   5.424
 5572TIP3    H216660   2.525   3.380   5.320
 5573TIP3   OH216661   7.661   4.767   4.499
 5573TIP3    H116662   7.748   4.743   4.467
 5573TIP3    H216663   7.622   4.817   4.427
 5574TIP3   OH216664   6.067   0.166   1.374
 5574TIP3    H116665   6.156   0.174   1.338
 5574TIP3    H216666   6.011   0.201   1.305
 5575TIP3   OH216667   2.954   1.897   0.246
 5575TIP3    H116668   2.907   1.831   0.197
 5575TIP3    H216669   2.920   1.890   0.335
 5576TIP3   OH216670   7.448   1.970   6.756
 5576TIP3    H116671   7.372   2.024   6.776
 5576TIP3    H216672   7.506   2.028   6.707
 5577TIP3   OH216673   2.700   4.943   0.513
 5577TIP3    H116674   2.639   4.934   0.587
 5577TIP3    H216675   2.696   4.858   0.469
 5578TIP3   OH216676   5.901   5.712   2.598
 5578TIP3    H116677   5.806   5.724   2.600
 5578TIP3    H216678   5.935   5.799   2.577
 5579TIP3   OH216679   2.629   4.235   0.762
 5579TIP3    H116680   2.576   4.212   0.685
 5579TIP3    H216681   2.568   4.233   0.835
 5580TIP3   OH216682   1.441   0.186   0.740
 5580TIP3    H116683   1.436   0.224   0.827
 5580TIP3    H216684   1.518   0.227   0.700
 5581TIP3   OH216685   6.599   4.940   4.873
 5581TIP3    H116686   6.663   4.874   4.846
 5581TIP3    H216687   6.514   4.904   4.846
 5582TIP3   OH216688   0.394   7.065   4.362
 5582TIP3    H116689   0.417   7.156   4.382
 5582TIP3    H216690   0.406   7.019   4.445
 5583TIP3   OH216691   5.876   4.926   3.206
 5583TIP3    H116692   5.856   5.017   3.224
 5583TIP3    H216693   5.925   4.928   3.124
 5584TIP3   OH216694   4.390   1.644   6.486
 5584TIP3    H116695   4.449   1.620   6.558
 5584TIP3    H216696   4.376   1.738   6.497
 5585TIP3   OH216697   0.320   6.395   3.404
 5585TIP3    H116698   0.259   6.338   3.357
 5585TIP3    H216699   0.312   6.480   3.360
 5586TIP3   OH216700   5.583   5.578   5.319
 5586TIP3    H116701   5.614   5.608   5.404
 5586TIP3    H216702   5.546   5.491   5.336
 5587TIP3   OH216703   2.935   4.295   4.141
 5587TIP3    H116704   2.937   4.202   4.121
 5587TIP3    H216705   2.979   4.303   4.225
 5588TIP3   OH216706   5.401   2.687   0.349
 5588TIP3    H116707   5.358   2.671   0.265
 5588TIP3    H216708   5.493   2.699   0.327
 5589TIP3   OH216709   4.545   1.950   5.628
 5589TIP3    H116710   4.453   1.964   5.650
 5589TIP3    H216711   4.543   1.924   5.536
 5590TIP3   OH216712   1.261   6.517   4.706
 5590TIP3    H116713   1.301   6.525   4.619
 5590TIP3    H216714   1.336   6.514   4.766
 5591TIP3   OH216715   7.599   2.820   1.615
 5591TIP3    H116716   7.546   2.745   1.641
 5591TIP3    H216717   7.687   2.801   1.648
 5592TIP3   OH216718   7.699   3.342   1.859
 5592TIP3    H116719   7.665   3.334   1.770
 5592TIP3    H216720   7.662   3.424   1.892
 5593TIP3   OH216721   8.223   1.387   5.868
 5593TIP3    H116722   8.256   1.428   5.788
 5593TIP3    H216723   8.144   1.437   5.889
 5594TIP3   OH216724   3.201   6.690   2.160
 5594TIP3    H116725   3.146   6.613   2.175
 5594TIP3    H216726   3.226   6.683   2.068
 5595TIP3   OH216727   3.082   7.481   3.422
 5595TIP3    H116728   3.022   7.426   3.472
 5595TIP3    H216729   3.165   7.434   3.423
 5596TIP3   OH216730   0.190   7.785   0.172
 5596TIP3    H116731   0.270   7.735   0.186
 5596TIP3    H216732   0.212   7.874   0.199
 5597TIP3   OH216733   5.993   7.316   0.857
 5597TIP3    H116734   5.927   7.326   0.926
 5597TIP3    H216735   6.036   7.401   0.852
 5598TIP3   OH216736   3.082   6.905   3.151
 5598TIP3    H116737   3.147   6.968   3.118
 5598TIP3    H216738   3.123   6.820   3.138
 5599TIP3   OH216739   0.302   3.521   1.848
 5599TIP3    H116740   0.327   3.611   1.832
 5599TIP3    H216741   0.320   3.507   1.941
 5600TIP3   OH216742   4.736   7.415   0.647
 5600TIP3    H116743   4.744   7.445   0.738
 5600TIP3    H216744   4.796   7.471   0.599
 5601TIP3   OH216745   3.539   3.309   3.569
 5601TIP3    H116746   3.526   3.221   3.606
 5601TIP3    H216747   3.564   3.292   3.478
 5602TIP3   OH216748   5.987   3.871   5.229
 5602TIP3    H116749   6.068   3.854   5.277
 5602TIP3    H216750   6.007   3.846   5.139
 5603TIP3   OH216751   6.060   0.817   0.587
 5603TIP3    H116752   5.993   0.752   0.606
 5603TIP3    H216753   6.094   0.792   0.501
 5604TIP3   OH216754   5.381   6.558   0.921
 5604TIP3    H116755   5.340   6.549   1.007
 5604TIP3    H216756   5.452   6.493   0.921
 5605TIP3   OH216757   3.578   5.475   0.368
 5605TIP3    H116758   3.520   5.547   0.392
 5605TIP3    H216759   3.542   5.399   0.413
 5606TIP3   OH216760   7.879   0.560   3.812
 5606TIP3    H116761   7.795   0.571   3.767
 5606TIP3    H216762   7.896   0.466   3.809
 5607TIP3   OH216763   6.454   5.576   1.490
 5607TIP3    H116764   6.533   5.614   1.528
 5607TIP3    H216765   6.434   5.631   1.414
 5608TIP3   OH216766   7.587   0.303   0.957
 5608TIP3    H116767   7.539   0.332   0.879
 5608TIP3    H216768   7.622   0.383   0.995
 5609TIP3   OH216769   3.837   6.696   0.250
 5609TIP3    H116770   3.817   6.741   0.168
 5609TIP3    H216771   3.836   6.765   0.317
 5610TIP3   OH216772   6.376   7.640   1.926
 5610TIP3    H116773   6.407   7.725   1.894
 5610TIP3    H216774   6.424   7.626   2.008
 5611TIP3   OH216775   7.145   7.593   0.047
 5611TIP3    H116776   7.078   7.625   0.108
 5611TIP3    H216777   7.097   7.538  -0.015
 5612TIP3   OH216778   2.396   7.208   2.785
 5612TIP3    H116779   2.420   7.157   2.708
 5612TIP3    H216780   2.403   7.147   2.858
 5613TIP3   OH216781   4.357   1.797   6.016
 5613TIP3    H116782   4.373   1.839   5.932
 5613TIP3    H216783   4.396   1.856   6.080
 5614TIP3   OH216784   4.628   7.161   5.082
 5614TIP3    H116785   4.644   7.068   5.066
 5614TIP3    H216786   4.534   7.172   5.070
 5615TIP3   OH216787   4.913   4.643   4.086
 5615TIP3    H116788   4.871   4.618   4.004
 5615TIP3    H216789   5.002   4.665   4.062
 5616TIP3   OH216790   4.797   1.338   3.403
 5616TIP3    H116791   4.845   1.324   3.322
 5616TIP3    H216792   4.790   1.433   3.411
 5617TIP3   OH216793   6.105   0.355   4.290
 5617TIP3    H116794   6.157   0.424   4.249
 5617TIP3    H216795   6.169   0.291   4.320
 5618TIP3   OH216796  -0.035   2.806   2.079
 5618TIP3    H116797   0.027   2.819   2.151
 5618TIP3    H216798  -0.089   2.733   2.108
 5619TIP3   OH216799   0.501   7.805   3.025
 5619TIP3    H116800   0.415   7.769   3.005
 5619TIP3    H216801   0.562   7.748   2.977
 5620TIP3   OH216802   6.707   1.450   2.006
 5620TIP3    H116803   6.756   1.495   1.937
 5620TIP3    H216804   6.764   1.456   2.082
 5621TIP3   OH216805   2.152   3.377   5.235
 5621TIP3    H116806   2.191   3.421   5.159
 5621TIP3    H216807   2.131   3.449   5.295
 5622TIP3   OH216808   4.755   1.815   2.388
 5622TIP3    H116809   4.821   1.814   2.319
 5622TIP3    H216810   4.804   1.802   2.469
 5623TIP3   OH216811   0.788   4.995   6.214
 5623TIP3    H116812   0.769   5.083   6.246
 5623TIP3    H216813   0.827   5.008   6.128
 5624TIP3   OH216814   3.243   4.843   5.491
 5624TIP3    H116815   3.172   4.874   5.545
 5624TIP3    H216816   3.318   4.835   5.551
 5625TIP3   OH216817   6.843   1.275   6.172
 5625TIP3    H116818   6.809   1.186   6.164
 5625TIP3    H216819   6.790   1.315   6.241
 5626TIP3   OH216820   8.257   2.136   5.813
 5626TIP3    H116821   8.250   2.083   5.734
 5626TIP3    H216822   8.267   2.226   5.781
 5627TIP3   OH216823   5.195   1.777   2.676
 5627TIP3    H116824   5.164   1.728   2.752
 5627TIP3    H216825   5.184   1.869   2.701
 5628TIP3   OH216826   7.899   2.232   3.667
 5628TIP3    H116827   7.831   2.297   3.651
 5628TIP3    H216828   7.945   2.263   3.745
 5629TIP3   OH216829   0.636   0.120   4.390
 5629TIP3    H116830   0.674   0.206   4.408
 5629TIP3    H216831   0.704   0.058   4.417
 5630TIP3   OH216832   6.592   2.564   3.113
 5630TIP3    H116833   6.604   2.654   3.144
 5630TIP3    H216834   6.551   2.518   3.186
 5631TIP3   OH216835   3.478   7.553   5.062
 5631TIP3    H116836   3.559   7.592   5.096
 5631TIP3    H216837   3.439   7.510   5.138
 5632TIP3   OH216838   7.465   4.185   0.018
 5632TIP3    H116839   7.538   4.133   0.050
 5632TIP3    H216840   7.504   4.270  -0.003
 5633TIP3   OH216841   6.727   6.625   2.197
 5633TIP3    H116842   6.765   6.712   2.209
 5633TIP3    H216843   6.715   6.616   2.103
 5634TIP3   OH216844   5.202   1.742   0.274
 5634TIP3    H116845   5.140   1.789   0.330
 5634TIP3    H216846   5.183   1.773   0.185
 5635TIP3   OH216847   5.070   5.925   6.359
 5635TIP3    H116848   5.137   5.894   6.421
 5635TIP3    H216849   5.004   5.967   6.415
 5636TIP3   OH216850   6.761   5.962   4.072
 5636TIP3    H116851   6.712   5.881   4.073
 5636TIP3    H216852   6.726   6.011   3.998
 5637TIP3   OH216853   1.197   3.416   1.230
 5637TIP3    H116854   1.125   3.425   1.167
 5637TIP3    H216855   1.180   3.484   1.295
 5638TIP3   OH216856   6.930   5.231   5.101
 5638TIP3    H116857   6.972   5.310   5.135
 5638TIP3    H216858   6.916   5.176   5.178
 5639TIP3   OH216859   6.415   4.888   3.867
 5639TIP3    H116860   6.419   4.982   3.848
 5639TIP3    H216861   6.407   4.847   3.780
 5640TIP3   OH216862   6.403   5.214   2.946
 5640TIP3    H116863   6.342   5.139   2.943
 5640TIP3    H216864   6.485   5.179   2.911
 5641TIP3   OH216865   8.315   3.643   6.138
 5641TIP3    H116866   8.228   3.678   6.156
 5641TIP3    H216867   8.300   3.554   6.107
 5642TIP3   OH216868   4.506   1.118   4.379
 5642TIP3    H116869   4.569   1.055   4.412
 5642TIP3    H216870   4.544   1.204   4.399
 5643TIP3   OH216871   6.819   1.099   1.017
 5643TIP3    H116872   6.867   1.178   0.991
 5643TIP3    H216873   6.887   1.041   1.053
 5644TIP3   OH216874   2.824   4.900   5.370
 5644TIP3    H116875   2.811   4.820   5.421
 5644TIP3    H216876   2.859   4.871   5.286
 5645TIP3   OH216877   1.403   0.235   1.025
 5645TIP3    H116878   1.488   0.192   1.036
 5645TIP3    H216879   1.342   0.181   1.074
 5646TIP3   OH216880   5.140   6.984   5.882
 5646TIP3    H116881   5.105   6.968   5.969
 5646TIP3    H216882   5.137   7.079   5.871
 5647TIP3   OH216883   1.652   0.056   5.432
 5647TIP3    H116884   1.570   0.076   5.477
 5647TIP3    H216885   1.626   0.005   5.355
 5648TIP3   OH216886   7.059   3.339   2.601
 5648TIP3    H116887   7.113   3.265   2.628
 5648TIP3    H216888   7.038   3.322   2.509
 5649TIP3   OH216889   5.430   4.512   4.653
 5649TIP3    H116890   5.420   4.607   4.660
 5649TIP3    H216891   5.351   4.477   4.694
 5650TIP3   OH216892   0.870   0.329   3.829
 5650TIP3    H116893   0.827   0.396   3.776
 5650TIP3    H216894   0.943   0.298   3.775
 5651TIP3   OH216895   5.823   2.061   3.082
 5651TIP3    H116896   5.760   2.025   3.020
 5651TIP3    H216897   5.907   2.027   3.053
 5652TIP3   OH216898   4.101   4.325   6.474
 5652TIP3    H116899   4.117   4.325   6.569
 5652TIP3    H216900   4.174   4.375   6.438
 5653TIP3   OH216901   4.205   2.240   4.962
 5653TIP3    H116902   4.122   2.261   4.919
 5653TIP3    H216903   4.228   2.320   5.009
 5654TIP3   OH216904   3.376   5.521   2.620
 5654TIP3    H116905   3.333   5.561   2.543
 5654TIP3    H216906   3.306   5.513   2.684
 5655TIP3   OH216907   4.425   6.563   5.667
 5655TIP3    H116908   4.342   6.588   5.627
 5655TIP3    H216909   4.484   6.547   5.592
 5656TIP3   OH216910   7.947   7.681   0.876
 5656TIP3    H116911   7.880   7.651   0.938
 5656TIP3    H216912   7.972   7.602   0.828
 5657TIP3   OH216913   2.198   6.609   2.070
 5657TIP3    H116914   2.109   6.578   2.051
 5657TIP3    H216915   2.232   6.548   2.135
 5658TIP3   OH216916   1.909   2.579   5.444
 5658TIP3    H116917   1.935   2.495   5.406
 5658TIP3    H216918   1.818   2.590   5.418
 5659TIP3   OH216919   0.530   0.334   6.392
 5659TIP3    H116920   0.442   0.353   6.424
 5659TIP3    H216921   0.517   0.294   6.306
 5660TIP3   OH216922   2.527   4.982   3.076
 5660TIP3    H116923   2.542   4.905   3.022
 5660TIP3    H216924   2.548   4.954   3.165
 5661TIP3   OH216925   0.604   3.128   4.734
 5661TIP3    H116926   0.541   3.073   4.781
 5661TIP3    H216927   0.575   3.217   4.752
 5662TIP3   OH216928   8.098   0.658   5.632
 5662TIP3    H116929   8.139   0.716   5.568
 5662TIP3    H216930   8.169   0.603   5.664
 5663TIP3   OH216931   5.732   4.808   5.958
 5663TIP3    H116932   5.728   4.854   6.042
 5663TIP3    H216933   5.689   4.866   5.896
 5664TIP3   OH216934   0.307   4.653   1.041
 5664TIP3    H116935   0.387   4.603   1.058
 5664TIP3    H216936   0.335   4.744   1.042
 5665TIP3   OH216937   1.908   5.526   1.862
 5665TIP3    H116938   1.916   5.479   1.945
 5665TIP3    H216939   1.814   5.534   1.847
 5666TIP3   OH216940   7.702   2.183   4.634
 5666TIP3    H116941   7.651   2.106   4.609
 5666TIP3    H216942   7.786   2.172   4.588
 5667TIP3   OH216943   5.787   5.738   0.883
 5667TIP3    H116944   5.826   5.714   0.799
 5667TIP3    H216945   5.694   5.716   0.872
 5668TIP3   OH216946   2.255   6.208   4.763
 5668TIP3    H116947   2.294   6.183   4.679
 5668TIP3    H216948   2.296   6.292   4.785
 5669TIP3   OH216949   4.476   4.084   0.767
 5669TIP3    H116950   4.449   4.146   0.699
 5669TIP3    H216951   4.559   4.119   0.800
 5670TIP3   OH216952   2.312   0.337   4.824
 5670TIP3    H116953   2.312   0.260   4.882
 5670TIP3    H216954   2.300   0.411   4.883
 5671TIP3   OH216955   1.641   3.187   6.596
 5671TIP3    H116956   1.704   3.199   6.525
 5671TIP3    H216957   1.556   3.187   6.553
 5672TIP3   OH216958   0.064   1.002   5.936
 5672TIP3    H116959   0.149   0.978   5.974
 5672TIP3    H216960   0.000   0.958   5.992
 5673TIP3   OH216961   0.455   3.085   3.552
 5673TIP3    H116962   0.492   3.003   3.587
 5673TIP3    H216963   0.499   3.154   3.602
 5674TIP3   OH216964   8.138   3.529   0.867
 5674TIP3    H116965   8.064   3.494   0.817
 5674TIP3    H216966   8.100   3.557   0.950
 5675TIP3   OH216967   5.969   2.755   0.001
 5675TIP3    H116968   6.026   2.830  -0.013
 5675TIP3    H216969   5.903   2.786   0.063
 5676TIP3   OH216970   0.529   3.376   3.672
 5676TIP3    H116971   0.559   3.432   3.744
 5676TIP3    H216972   0.464   3.428   3.626
 5677TIP3   OH216973   6.843   3.541   5.369
 5677TIP3    H116974   6.780   3.597   5.325
 5677TIP3    H216975   6.913   3.600   5.396
 5678TIP3   OH216976   2.391   5.163   0.396
 5678TIP3    H116977   2.408   5.157   0.490
 5678TIP3    H216978   2.315   5.107   0.382
 5679TIP3   OH216979   0.188   2.621   0.488
 5679TIP3    H116980   0.200   2.688   0.555
 5679TIP3    H216981   0.146   2.668   0.415
 5680TIP3   OH216982   0.979   0.279   4.762
 5680TIP3    H116983   1.064   0.314   4.734
 5680TIP3    H216984   0.915   0.322   4.706
 5681TIP3   OH216985   6.172   4.968   0.646
 5681TIP3    H116986   6.146   5.058   0.626
 5681TIP3    H216987   6.118   4.944   0.722
 5682TIP3   OH216988   3.715   0.077   1.505
 5682TIP3    H116989   3.679   0.154   1.548
 5682TIP3    H216990   3.746   0.021   1.577
 5683TIP3   OH216991   3.983   0.922   4.727
 5683TIP3    H116992   3.957   0.922   4.635
 5683TIP3    H216993   4.049   0.852   4.733
 5684TIP3   OH216994   6.157   7.147   2.391
 5684TIP3    H116995   6.062   7.157   2.397
 5684TIP3    H216996   6.182   7.203   2.318
 5685TIP3   OH216997   6.441   5.557   4.925
 5685TIP3    H116998   6.469   5.647   4.910
 5685TIP3    H216999   6.352   5.553   4.892
 5686TIP3   OH217000   6.325   7.701   4.926
 5686TIP3    H117001   6.310   7.764   4.856
 5686TIP3    H217002   6.420   7.698   4.936
 5687TIP3   OH217003   5.249   0.157   3.944
 5687TIP3    H117004   5.253   0.214   3.868
 5687TIP3    H217005   5.319   0.188   4.001
 5688TIP3   OH217006   8.084   6.335   0.986
 5688TIP3    H117007   8.079   6.363   0.895
 5688TIP3    H217008   8.083   6.239   0.982
 5689TIP3   OH217009   0.062   2.531   1.988
 5689TIP3    H117010   0.048   2.515   2.082
 5689TIP3    H217011   0.002   2.472   1.944
 5690TIP3   OH217012   5.132   3.749   0.492
 5690TIP3    H117013   5.166   3.837   0.477
 5690TIP3    H217014   5.176   3.695   0.427
 5691TIP3   OH217015   2.188   7.822   4.949
 5691TIP3    H117016   2.197   7.797   4.857
 5691TIP3    H217017   2.112   7.773   4.980
 5692TIP3   OH217018   5.941   3.401   0.965
 5692TIP3    H117019   5.987   3.346   0.901
 5692TIP3    H217020   5.971   3.490   0.947
 5693TIP3   OH217021   0.837   5.250   6.669
 5693TIP3    H117022   0.800   5.273   6.755
 5693TIP3    H217023   0.793   5.169   6.645
 5694TIP3   OH217024   7.304   2.941   1.832
 5694TIP3    H117025   7.271   2.872   1.774
 5694TIP3    H217026   7.225   2.977   1.873
 5695TIP3   OH217027   5.392   5.988   4.270
 5695TIP3    H117028   5.308   5.944   4.256
 5695TIP3    H217029   5.372   6.081   4.255
 5696TIP3   OH217030   4.579   6.484   4.269
 5696TIP3    H117031   4.514   6.457   4.334
 5696TIP3    H217032   4.603   6.573   4.293
 5697TIP3   OH217033   4.506   5.705   1.272
 5697TIP3    H117034   4.444   5.656   1.217
 5697TIP3    H217035   4.583   5.716   1.216
 5698TIP3   OH217036   0.495   7.587   3.342
 5698TIP3    H117037   0.526   7.558   3.428
 5698TIP3    H217038   0.481   7.507   3.293
 5699TIP3   OH217039   2.273   4.644   3.956
 5699TIP3    H117040   2.351   4.589   3.947
 5699TIP3    H217041   2.276   4.676   4.046
 5700TIP3   OH217042   3.408   5.836   1.617
 5700TIP3    H117043   3.374   5.822   1.706
 5700TIP3    H217044   3.420   5.748   1.582
 5701TIP3   OH217045   0.818   0.424   6.342
 5701TIP3    H117046   0.724   0.405   6.343
 5701TIP3    H217047   0.830   0.493   6.408
 5702TIP3   OH217048   3.745   2.657   1.187
 5702TIP3    H117049   3.790   2.607   1.255
 5702TIP3    H217050   3.806   2.661   1.114
 5703TIP3   OH217051   3.309   0.203   2.559
 5703TIP3    H117052   3.343   0.233   2.643
 5703TIP3    H217053   3.369   0.133   2.533
 5704TIP3   OH217054   1.430   4.816   0.267
 5704TIP3    H117055   1.379   4.888   0.231
 5704TIP3    H217056   1.508   4.858   0.304
 5705TIP3   OH217057   0.073   5.393   2.865
 5705TIP3    H117058   0.038   5.311   2.901
 5705TIP3    H217059   0.039   5.397   2.776
 5706TIP3   OH217060   0.111   5.165   5.115
 5706TIP3    H117061   0.046   5.141   5.049
 5706TIP3    H217062   0.073   5.242   5.158
 5707TIP3   OH217063   1.774   5.892   4.640
 5707TIP3    H117064   1.758   5.877   4.734
 5707TIP3    H217065   1.735   5.816   4.597
 5708TIP3   OH217066   4.597   0.557   1.672
 5708TIP3    H117067   4.522   0.566   1.613
 5708TIP3    H217068   4.559   0.525   1.754
 5709TIP3   OH217069   5.600   1.357   5.457
 5709TIP3    H117070   5.673   1.376   5.398
 5709TIP3    H217071   5.523   1.355   5.400
 5710TIP3   OH217072   5.853   4.134   0.291
 5710TIP3    H117073   5.811   4.053   0.262
 5710TIP3    H217074   5.944   4.126   0.260
 5711TIP3   OH217075   1.660   2.540   3.883
 5711TIP3    H117076   1.597   2.609   3.862
 5711TIP3    H217077   1.619   2.491   3.954
 5712TIP3   OH217078   4.105   0.936   2.103
 5712TIP3    H117079   4.123   0.960   2.012
 5712TIP3    H217080   4.113   1.018   2.151
 5713TIP3   OH217081   7.901   2.687   3.445
 5713TIP3    H117082   7.898   2.779   3.473
 5713TIP3    H217083   7.883   2.691   3.351
 5714TIP3   OH217084   4.760   6.445   3.225
 5714TIP3    H117085   4.731   6.498   3.151
 5714TIP3    H217086   4.841   6.403   3.195
 5715TIP3   OH217087   6.460   3.904   2.093
 5715TIP3    H117088   6.386   3.857   2.131
 5715TIP3    H217089   6.425   3.991   2.072
 5716TIP3   OH217090   0.687   1.198   5.068
 5716TIP3    H117091   0.600   1.159   5.053
 5716TIP3    H217092   0.747   1.142   5.019
 5717TIP3   OH217093   2.871   6.444   3.903
 5717TIP3    H117094   2.931   6.409   3.969
 5717TIP3    H217095   2.872   6.539   3.917
 5718TIP3   OH217096   0.331   1.223   6.753
 5718TIP3    H117097   0.291   1.298   6.796
 5718TIP3    H217098   0.259   1.162   6.739
 5719TIP3   OH217099   0.419   4.158   5.503
 5719TIP3    H117100   0.329   4.129   5.513
 5719TIP3    H217101   0.425   4.187   5.412
 5720TIP3   OH217102   0.510   1.219   0.228
 5720TIP3    H117103   0.589   1.189   0.274
 5720TIP3    H217104   0.468   1.138   0.198
 5721TIP3   OH217105   0.111   3.932   6.665
 5721TIP3    H117106   0.113   3.881   6.584
 5721TIP3    H217107   0.023   3.919   6.699
 5722TIP3   OH217108   3.616   4.978   4.485
 5722TIP3    H117109   3.695   5.003   4.436
 5722TIP3    H217110   3.610   5.042   4.556
 5723TIP3   OH217111   3.118   0.872   4.543
 5723TIP3    H117112   3.212   0.879   4.555
 5723TIP3    H217113   3.090   0.962   4.524
 5724TIP3   OH217114   2.477   5.553   6.692
 5724TIP3    H117115   2.485   5.643   6.726
 5724TIP3    H217116   2.410   5.513   6.748
 5725TIP3   OH217117   7.575   6.349   6.406
 5725TIP3    H117118   7.651   6.332   6.351
 5725TIP3    H217119   7.501   6.317   6.354
 5726TIP3   OH217120   5.958   4.621   6.747
 5726TIP3    H117121   5.947   4.697   6.689
 5726TIP3    H217122   5.998   4.554   6.692
 5727TIP3   OH217123   1.050   7.699   3.964
 5727TIP3    H117124   0.996   7.748   3.903
 5727TIP3    H217125   1.120   7.663   3.910
 5728TIP3   OH217126   1.868   4.371   1.845
 5728TIP3    H117127   1.777   4.351   1.870
 5728TIP3    H217128   1.884   4.318   1.767
 5729TIP3   OH217129   6.625   6.510   1.323
 5729TIP3    H117130   6.590   6.430   1.284
 5729TIP3    H217131   6.575   6.522   1.404
 5730TIP3   OH217132   8.129   6.377   6.624
 5730TIP3    H117133   8.040   6.378   6.659
 5730TIP3    H217134   8.127   6.441   6.553
 5731TIP3   OH217135   8.182   7.410   4.507
 5731TIP3    H117136   8.243   7.470   4.465
 5731TIP3    H217137   8.099   7.425   4.462
 5732TIP3   OH217138   4.321   1.608   2.546
 5732TIP3    H117139   4.247   1.632   2.489
 5732TIP3    H217140   4.398   1.621   2.491
 5733TIP3   OH217141   8.030   4.734   3.716
 5733TIP3    H117142   7.988   4.805   3.765
 5733TIP3    H217143   7.960   4.670   3.701
 5734TIP3   OH217144   6.942   2.271   6.049
 5734TIP3    H117145   6.970   2.220   6.125
 5734TIP3    H217146   6.847   2.261   6.046
 5735TIP3   OH217147   6.705   4.231   4.435
 5735TIP3    H117148   6.635   4.283   4.395
 5735TIP3    H217149   6.746   4.291   4.497
 5736TIP3   OH217150   7.307   1.883   0.632
 5736TIP3    H117151   7.236   1.928   0.586
 5736TIP3    H217152   7.326   1.806   0.579
 5737TIP3   OH217153   2.814   6.032   0.934
 5737TIP3    H117154   2.901   6.012   0.902
 5737TIP3    H217155   2.770   6.075   0.860
 5738TIP3   OH217156   0.548   7.714   5.898
 5738TIP3    H117157   0.546   7.726   5.993
 5738TIP3    H217158   0.514   7.796   5.862
 5739TIP3   OH217159   6.694   2.505   3.933
 5739TIP3    H117160   6.708   2.600   3.928
 5739TIP3    H217161   6.777   2.467   3.907
 5740TIP3   OH217162   1.124   2.902   2.850
 5740TIP3    H117163   1.211   2.940   2.840
 5740TIP3    H217164   1.064   2.977   2.845
 5741TIP3   OH217165   0.320   2.959   3.906
 5741TIP3    H117166   0.312   2.908   3.987
 5741TIP3    H217167   0.382   2.909   3.853
 5742TIP3   OH217168   0.848   0.803   3.795
 5742TIP3    H117169   0.808   0.886   3.769
 5742TIP3    H217170   0.868   0.760   3.712
 5743TIP3   OH217171   5.293   2.396   1.397
 5743TIP3    H117172   5.244   2.471   1.433
 5743TIP3    H217173   5.312   2.421   1.307
 5744TIP3   OH217174   6.193   3.238   1.885
 5744TIP3    H117175   6.104   3.204   1.889
 5744TIP3    H217176   6.184   3.332   1.898
 5745TIP3   OH217177   1.165   4.448   1.170
 5745TIP3    H117178   1.196   4.437   1.259
 5745TIP3    H217179   1.070   4.451   1.177
 5746TIP3   OH217180   5.132   4.234   3.837
 5746TIP3    H117181   5.181   4.274   3.909
 5746TIP3    H217182   5.197   4.185   3.787
 5747TIP3   OH217183   7.382   2.020   1.410
 5747TIP3    H117184   7.436   1.952   1.451
 5747TIP3    H217185   7.435   2.053   1.338
 5748TIP3   OH217186   7.075   7.767   4.657
 5748TIP3    H117187   7.011   7.837   4.670
 5748TIP3    H217188   7.058   7.705   4.728
 5749TIP3   OH217189   6.550   4.495   1.433
 5749TIP3    H117190   6.617   4.427   1.434
 5749TIP3    H217191   6.591   4.569   1.478
 5750TIP3   OH217192   6.309   2.576   4.739
 5750TIP3    H117193   6.378   2.577   4.806
 5750TIP3    H217194   6.234   2.537   4.784
 5751TIP3   OH217195   7.544   0.625   4.657
 5751TIP3    H117196   7.619   0.611   4.715
 5751TIP3    H217197   7.480   0.558   4.682
 5752TIP3   OH217198   3.044   5.726   0.221
 5752TIP3    H117199   3.088   5.811   0.211
 5752TIP3    H217200   3.002   5.711   0.137
 5753TIP3   OH217201   3.229   4.637   2.186
 5753TIP3    H117202   3.158   4.572   2.185
 5753TIP3    H217203   3.264   4.633   2.275
 5754TIP3   OH217204   1.913   5.286   6.656
 5754TIP3    H117205   1.827   5.245   6.641
 5754TIP3    H217206   1.909   5.368   6.608
 5755TIP3   OH217207   2.332   6.047   1.193
 5755TIP3    H117208   2.238   6.031   1.192
 5755TIP3    H217209   2.344   6.118   1.257
 5756TIP3   OH217210   1.676   7.066   5.358
 5756TIP3    H117211   1.638   7.019   5.284
 5756TIP3    H217212   1.634   7.028   5.435
 5757TIP3   OH217213   5.709   5.789   1.378
 5757TIP3    H117214   5.630   5.802   1.431
 5757TIP3    H217215   5.680   5.738   1.303
 5758TIP3   OH217216   2.675   5.929   1.964
 5758TIP3    H117217   2.595   5.901   1.920
 5758TIP3    H217218   2.649   5.938   2.056
 5759TIP3   OH217219   6.176   2.824   2.343
 5759TIP3    H117220   6.090   2.784   2.353
 5759TIP3    H217221   6.213   2.783   2.264
 5760TIP3   OH217222   4.205   0.118   1.215
 5760TIP3    H117223   4.146   0.050   1.182
 5760TIP3    H217224   4.146   0.184   1.253
 5761TIP3   OH217225   7.021   3.616   3.568
 5761TIP3    H117226   7.062   3.658   3.493
 5761TIP3    H217227   7.076   3.540   3.586
 5762TIP3   OH217228   3.676   7.694   2.303
 5762TIP3    H117229   3.588   7.721   2.329
 5762TIP3    H217230   3.663   7.612   2.256
 5763TIP3   OH217231   4.109   7.676   1.336
 5763TIP3    H117232   4.014   7.661   1.334
 5763TIP3    H217233   4.140   7.642   1.252
 5764TIP3   OH217234   3.738   2.839   0.456
 5764TIP3    H117235   3.770   2.845   0.366
 5764TIP3    H217236   3.815   2.857   0.510
 5765TIP3   OH217237   5.872   0.149   3.134
 5765TIP3    H117238   5.823   0.231   3.124
 5765TIP3    H217239   5.847   0.116   3.220
 5766TIP3   OH217240   2.123   6.662   6.724
 5766TIP3    H117241   2.045   6.608   6.741
 5766TIP3    H217242   2.145   6.644   6.633
 5767TIP3   OH217243   4.851   0.580   0.867
 5767TIP3    H117244   4.773   0.525   0.871
 5767TIP3    H217245   4.835   0.639   0.794
 5768TIP3   OH217246   2.672   7.230   0.253
 5768TIP3    H117247   2.757   7.192   0.229
 5768TIP3    H217248   2.691   7.323   0.267
 5769TIP3   OH217249   1.156   2.894   6.527
 5769TIP3    H117250   1.191   2.832   6.591
 5769TIP3    H217251   1.233   2.934   6.487
 5770TIP3   OH217252   7.505   4.237   3.468
 5770TIP3    H117253   7.538   4.166   3.523
 5770TIP3    H217254   7.481   4.306   3.530
 5771TIP3   OH217255   1.484   5.419   2.121
 5771TIP3    H117256   1.413   5.441   2.061
 5771TIP3    H217257   1.441   5.384   2.199
 5772TIP3   OH217258   3.656   2.954   4.827
 5772TIP3    H117259   3.625   2.894   4.759
 5772TIP3    H217260   3.578   2.972   4.879
 5773TIP3   OH217261   7.604   6.668   6.255
 5773TIP3    H117262   7.553   6.656   6.336
 5773TIP3    H217263   7.544   6.641   6.185
 5774TIP3   OH217264   2.582   5.280   2.062
 5774TIP3    H117265   2.559   5.369   2.034
 5774TIP3    H217266   2.646   5.250   1.998
 5775TIP3   OH217267   0.423   1.334   0.751
 5775TIP3    H117268   0.467   1.409   0.791
 5775TIP3    H217269   0.411   1.360   0.660
 5776TIP3   OH217270   7.059   7.656   1.896
 5776TIP3    H117271   7.061   7.640   1.990
 5776TIP3    H217272   7.114   7.734   1.883
 5777TIP3   OH217273   7.539   0.152   2.066
 5777TIP3    H117274   7.576   0.072   2.031
 5777TIP3    H217275   7.468   0.123   2.123
 5778TIP3   OH217276   5.767   1.942   4.884
 5778TIP3    H117277   5.815   1.879   4.830
 5778TIP3    H217278   5.833   2.005   4.912
 5779TIP3   OH217279   6.020   4.229   0.943
 5779TIP3    H117280   5.949   4.232   1.007
 5779TIP3    H217281   5.979   4.256   0.860
 5780TIP3   OH217282   5.501   0.700   5.698
 5780TIP3    H117283   5.477   0.676   5.608
 5780TIP3    H217284   5.426   0.749   5.731
 5781TIP3   OH217285   3.922   0.497   0.137
 5781TIP3    H117286   3.897   0.584   0.168
 5781TIP3    H217287   3.853   0.440   0.171
 5782TIP3   OH217288   1.094   1.141   4.232
 5782TIP3    H117289   1.110   1.170   4.322
 5782TIP3    H217290   1.095   1.046   4.237
 5783TIP3   OH217291   2.991   2.854   2.435
 5783TIP3    H117292   3.007   2.851   2.529
 5783TIP3    H217293   3.073   2.884   2.397
 5784TIP3   OH217294   7.119   5.827   3.984
 5784TIP3    H117295   7.067   5.812   3.905
 5784TIP3    H217296   7.172   5.749   3.994
 5785TIP3   OH217297   4.686   3.982   0.512
 5785TIP3    H117298   4.613   4.042   0.496
 5785TIP3    H217299   4.653   3.921   0.578
 5786TIP3   OH217300   6.010   3.638   5.610
 5786TIP3    H117301   5.959   3.719   5.600
 5786TIP3    H217302   6.088   3.665   5.657
 5787TIP3   OH217303   4.274   0.183   4.799
 5787TIP3    H117304   4.234   0.267   4.775
 5787TIP3    H217305   4.339   0.167   4.731
 5788TIP3   OH217306   3.044   3.776   0.302
 5788TIP3    H117307   3.066   3.695   0.256
 5788TIP3    H217308   3.057   3.756   0.394
 5789TIP3   OH217309   6.246   1.242   3.476
 5789TIP3    H117310   6.271   1.332   3.500
 5789TIP3    H217311   6.320   1.210   3.425
 5790TIP3   OH217312   5.057   5.939   1.955
 5790TIP3    H117313   4.974   5.924   1.910
 5790TIP3    H217314   5.086   5.852   1.981
 5791TIP3   OH217315   0.455   5.693   5.234
 5791TIP3    H117316   0.526   5.653   5.185
 5791TIP3    H217317   0.498   5.749   5.299
 5792TIP3   OH217318   0.832   4.356   4.319
 5792TIP3    H117319   0.817   4.283   4.378
 5792TIP3    H217320   0.760   4.352   4.256
 5793TIP3   OH217321   0.393   2.104   2.851
 5793TIP3    H117322   0.339   2.025   2.852
 5793TIP3    H217323   0.429   2.107   2.762
 5794TIP3   OH217324   2.174   0.691   6.076
 5794TIP3    H117325   2.261   0.661   6.103
 5794TIP3    H217326   2.189   0.776   6.035
 5795TIP3   OH217327   3.385   0.126   1.020
 5795TIP3    H117328   3.303   0.158   0.983
 5795TIP3    H217329   3.450   0.192   0.995
 5796TIP3   OH217330   1.141   2.750   3.087
 5796TIP3    H117331   1.129   2.795   3.003
 5796TIP3    H217332   1.095   2.804   3.150
 5797TIP3   OH217333   0.617   4.473   3.991
 5797TIP3    H117334   0.604   4.458   3.898
 5797TIP3    H217335   0.599   4.388   4.032
 5798TIP3   OH217336   3.520   0.046   6.690
 5798TIP3    H117337   3.498   0.118   6.630
 5798TIP3    H217338   3.566  -0.017   6.636
 5799TIP3   OH217339   3.159   0.744   0.242
 5799TIP3    H117340   3.157   0.718   0.150
 5799TIP3    H217341   3.145   0.839   0.241
 5800TIP3   OH217342   3.810   4.690   1.849
 5800TIP3    H117343   3.743   4.625   1.829
 5800TIP3    H217344   3.794   4.712   1.941
 5801TIP3   OH217345   1.405   5.259   3.707
 5801TIP3    H117346   1.337   5.194   3.722
 5801TIP3    H217347   1.484   5.222   3.748
 5802TIP3   OH217348   2.854   4.570   0.167
 5802TIP3    H117349   2.852   4.653   0.216
 5802TIP3    H217350   2.908   4.512   0.222
 5803TIP3   OH217351   0.591   4.688   3.322
 5803TIP3    H117352   0.575   4.597   3.346
 5803TIP3    H217353   0.594   4.734   3.406
 5804TIP3   OH217354   3.336   0.662   1.278
 5804TIP3    H117355   3.386   0.702   1.206
 5804TIP3    H217356   3.352   0.719   1.353
 5805TIP3   OH217357   0.468   1.569   2.795
 5805TIP3    H117358   0.414   1.515   2.737
 5805TIP3    H217359   0.502   1.638   2.738
 5806TIP3   OH217360   3.862   7.632   5.070
 5806TIP3    H117361   3.864   7.536   5.074
 5806TIP3    H217362   3.869   7.653   4.977
 5807TIP3   OH217363   5.108   5.038   0.009
 5807TIP3    H117364   5.139   5.099   0.076
 5807TIP3    H217365   5.054   5.091  -0.049
 5808TIP3   OH217366   6.034   2.942   4.222
 5808TIP3    H117367   6.113   2.992   4.239
 5808TIP3    H217368   6.014   2.959   4.130
 5809TIP3   OH217369   7.827   1.352   0.226
 5809TIP3    H117370   7.919   1.336   0.245
 5809TIP3    H217371   7.827   1.435   0.177
 5810TIP3   OH217372   3.916   4.728   3.045
 5810TIP3    H117373   3.877   4.776   2.971
 5810TIP3    H217374   3.901   4.785   3.121
 5811TIP3   OH217375   5.572   2.547   5.403
 5811TIP3    H117376   5.490   2.500   5.386
 5811TIP3    H217377   5.584   2.601   5.325
 5812TIP3   OH217378   0.058   6.738   6.499
 5812TIP3    H117379   0.045   6.826   6.534
 5812TIP3    H217380  -0.029   6.710   6.471
 5813TIP3   OH217381   4.104   2.692   1.375
 5813TIP3    H117382   4.145   2.665   1.293
 5813TIP3    H217383   4.159   2.763   1.407
 5814TIP3   OH217384   7.248   7.017   1.766
 5814TIP3    H117385   7.266   7.108   1.744
 5814TIP3    H217386   7.207   6.982   1.687
 5815TIP3   OH217387   2.693   0.112   6.141
 5815TIP3    H117388   2.631   0.174   6.102
 5815TIP3    H217389   2.733   0.069   6.065
 5816TIP3   OH217390   1.458   4.314   2.915
 5816TIP3    H117391   1.440   4.240   2.973
 5816TIP3    H217392   1.388   4.310   2.849
 5817TIP3   OH217393   6.818   4.001   2.991
 5817TIP3    H117394   6.781   4.079   3.033
 5817TIP3    H217395   6.831   4.027   2.899
 5818TIP3   OH217396   2.864   4.209   0.051
 5818TIP3    H117397   2.874   4.267   0.126
 5818TIP3    H217398   2.846   4.267  -0.023
 5819TIP3   OH217399   2.259   6.426   3.653
 5819TIP3    H117400   2.167   6.453   3.661
 5819TIP3    H217401   2.255   6.330   3.656
 5820TIP3   OH217402   5.106   2.596   4.149
 5820TIP3    H117403   5.179   2.655   4.128
 5820TIP3    H217404   5.069   2.633   4.230
 5821TIP3   OH217405   6.240   3.875   3.647
 5821TIP3    H117406   6.297   3.914   3.580
 5821TIP3    H217407   6.294   3.807   3.687
 5822TIP3   OH217408   6.290   2.313   3.532
 5822TIP3    H117409   6.220   2.303   3.468
 5822TIP3    H217410   6.309   2.223   3.560
 5823TIP3   OH217411   5.838   7.350   3.681
 5823TIP3    H117412   5.917   7.393   3.715
 5823TIP3    H217413   5.801   7.413   3.620
 5824TIP3   OH217414   0.745   4.273   6.326
 5824TIP3    H117415   0.658   4.281   6.365
 5824TIP3    H217416   0.771   4.182   6.342
 5825TIP3   OH217417   6.475   6.146   4.061
 5825TIP3    H117418   6.513   6.128   3.974
 5825TIP3    H217419   6.393   6.096   4.061
 5826TIP3   OH217420   6.664   1.225   0.169
 5826TIP3    H117421   6.711   1.298   0.129
 5826TIP3    H217422   6.667   1.156   0.103
 5827TIP3   OH217423   6.185   4.355   2.661
 5827TIP3    H117424   6.134   4.319   2.589
 5827TIP3    H217425   6.275   4.329   2.642
 5828TIP3   OH217426   0.195   1.317   5.475
 5828TIP3    H117427   0.230   1.389   5.423
 5828TIP3    H217428   0.226   1.238   5.431
 5829TIP3   OH217429   5.793   5.887   2.863
 5829TIP3    H117430   5.775   5.936   2.783
 5829TIP3    H217431   5.888   5.878   2.865
 5830TIP3   OH217432   8.084   4.923   3.260
 5830TIP3    H117433   8.124   4.855   3.314
 5830TIP3    H217434   7.990   4.907   3.265
 5831TIP3   OH217435   4.626   0.134   1.425
 5831TIP3    H117436   4.677   0.198   1.476
 5831TIP3    H217437   4.686   0.061   1.412
 5832TIP3   OH217438   2.290   4.570   5.481
 5832TIP3    H117439   2.309   4.633   5.411
 5832TIP3    H217440   2.324   4.486   5.448
 5833TIP3   OH217441   4.581   7.154   6.366
 5833TIP3    H117442   4.624   7.130   6.284
 5833TIP3    H217443   4.571   7.249   6.361
 5834TIP3   OH217444   6.333   2.878   6.632
 5834TIP3    H117445   6.366   2.936   6.564
 5834TIP3    H217446   6.292   2.936   6.696
 5835TIP3   OH217447   7.346   6.665   3.335
 5835TIP3    H117448   7.304   6.640   3.418
 5835TIP3    H217449   7.433   6.694   3.361
 5836TIP3   OH217450   5.349   4.928   2.935
 5836TIP3    H117451   5.297   4.892   3.006
 5836TIP3    H217452   5.440   4.917   2.963
 5837TIP3   OH217453   5.329   2.541   4.428
 5837TIP3    H117454   5.306   2.630   4.400
 5837TIP3    H217455   5.246   2.500   4.451
 5838TIP3   OH217456   3.380   2.677   4.219
 5838TIP3    H117457   3.468   2.713   4.231
 5838TIP3    H217458   3.369   2.672   4.125
 5839TIP3   OH217459   5.733   6.946   1.974
 5839TIP3    H117460   5.683   7.024   1.996
 5839TIP3    H217461   5.810   6.979   1.927
 5840TIP3   OH217462   1.768   6.607   2.928
 5840TIP3    H117463   1.810   6.647   3.004
 5840TIP3    H217464   1.720   6.678   2.887
 5841TIP3   OH217465   5.422   1.395   4.515
 5841TIP3    H117466   5.375   1.313   4.499
 5841TIP3    H217467   5.409   1.447   4.436
 5842TIP3   OH217468   6.313   5.295   5.660
 5842TIP3    H117469   6.289   5.266   5.571
 5842TIP3    H217470   6.393   5.346   5.648
 5843TIP3   OH217471   1.853   2.362   2.152
 5843TIP3    H117472   1.911   2.342   2.078
 5843TIP3    H217473   1.797   2.432   2.120
 5844TIP3   OH217474   6.918   6.163   1.551
 5844TIP3    H117475   6.972   6.092   1.517
 5844TIP3    H217476   6.976   6.239   1.552
 5845TIP3   OH217477   1.482   5.448   2.669
 5845TIP3    H117478   1.552   5.512   2.682
 5845TIP3    H217479   1.494   5.385   2.741
 5846TIP3   OH217480   3.687   0.650   0.801
 5846TIP3    H117481   3.782   0.656   0.787
 5846TIP3    H217482   3.677   0.648   0.896
 5847TIP3   OH217483   0.582   5.743   5.862
 5847TIP3    H117484   0.599   5.690   5.940
 5847TIP3    H217485   0.641   5.708   5.795
 5848TIP3   OH217486   6.022  -0.013   0.927
 5848TIP3    H117487   5.937   0.025   0.951
 5848TIP3    H217488   6.001  -0.073   0.855
 5849TIP3   OH217489   2.105   4.996   2.252
 5849TIP3    H117490   2.053   5.071   2.223
 5849TIP3    H217491   2.095   4.932   2.182
 5850TIP3   OH217492   3.818   1.838   6.559
 5850TIP3    H117493   3.834   1.771   6.493
 5850TIP3    H217494   3.863   1.916   6.525
 5851TIP3   OH217495   7.052   5.142   1.251
 5851TIP3    H117496   7.072   5.203   1.322
 5851TIP3    H217497   7.053   5.196   1.172
 5852TIP3   OH217498   1.097   4.510   2.506
 5852TIP3    H117499   1.061   4.536   2.422
 5852TIP3    H217500   1.096   4.414   2.505
 5853TIP3   OH217501   6.438   5.438   3.922
 5853TIP3    H117502   6.354   5.423   3.966
 5853TIP3    H217503   6.495   5.473   3.990
 5854TIP3   OH217504   5.087   2.258   1.098
 5854TIP3    H117505   5.051   2.244   1.010
 5854TIP3    H217506   5.150   2.188   1.110
 5855TIP3   OH217507   2.941   0.838   3.807
 5855TIP3    H117508   3.022   0.888   3.794
 5855TIP3    H217509   2.885   0.863   3.734
 5856TIP3   OH217510   5.991   6.061   5.915
 5856TIP3    H117511   5.984   6.021   5.828
 5856TIP3    H217512   6.046   6.001   5.965
 5857TIP3   OH217513   3.042   6.862   2.671
 5857TIP3    H117514   3.067   6.820   2.753
 5857TIP3    H217515   3.124   6.870   2.622
 5858TIP3   OH217516   1.500   2.352   2.030
 5858TIP3    H117517   1.574   2.291   2.018
 5858TIP3    H217518   1.534   2.436   1.999
 5859TIP3   OH217519   0.350   1.064   6.234
 5859TIP3    H117520   0.288   0.991   6.231
 5859TIP3    H217521   0.397   1.051   6.316
 5860TIP3   OH217522   7.196   6.456   1.098
 5860TIP3    H117523   7.194   6.434   1.005
 5860TIP3    H217524   7.104   6.462   1.123
 5861TIP3   OH217525   6.797   7.518   2.800
 5861TIP3    H117526   6.711   7.547   2.833
 5861TIP3    H217527   6.782   7.428   2.772
 5862TIP3   OH217528   2.134   4.659   0.795
 5862TIP3    H117529   2.190   4.737   0.791
 5862TIP3    H217530   2.058   4.682   0.742
 5863TIP3   OH217531   3.460   6.314   4.793
 5863TIP3    H117532   3.497   6.388   4.746
 5863TIP3    H217533   3.520   6.299   4.867
 5864TIP3   OH217534   0.171   6.648   0.679
 5864TIP3    H117535   0.137   6.633   0.590
 5864TIP3    H217536   0.107   6.605   0.736
 5865TIP3   OH217537   0.819   0.627   5.390
 5865TIP3    H117538   0.879   0.684   5.439
 5865TIP3    H217539   0.743   0.618   5.449
 5866TIP3   OH217540   6.463   5.205   6.195
 5866TIP3    H117541   6.414   5.213   6.113
 5866TIP3    H217542   6.544   5.254   6.180
 5867TIP3   OH217543   5.612   6.766   3.247
 5867TIP3    H117544   5.704   6.739   3.246
 5867TIP3    H217545   5.604   6.818   3.327
 5868TIP3   OH217546   2.979   2.127   5.661
 5868TIP3    H117547   3.064   2.164   5.636
 5868TIP3    H217548   2.957   2.171   5.743
 5869TIP3   OH217549   4.058   5.972   1.524
 5869TIP3    H117550   4.107   5.915   1.466
 5869TIP3    H217551   3.989   5.917   1.561
 5870TIP3   OH217552   5.805   4.543   5.584
 5870TIP3    H117553   5.849   4.625   5.607
 5870TIP3    H217554   5.736   4.534   5.650
 5871TIP3   OH217555   5.720   3.419   6.414
 5871TIP3    H117556   5.710   3.376   6.499
 5871TIP3    H217557   5.635   3.410   6.372
 5872TIP3   OH217558   4.824   2.894   3.633
 5872TIP3    H117559   4.903   2.946   3.619
 5872TIP3    H217560   4.851   2.825   3.694
 5873TIP3   OH217561   5.648   3.604   6.019
 5873TIP3    H117562   5.684   3.668   5.958
 5873TIP3    H217563   5.725   3.563   6.059
 5874TIP3   OH217564   5.951   0.299   5.329
 5874TIP3    H117565   6.009   0.261   5.395
 5874TIP3    H217566   5.994   0.279   5.246
 5875TIP3   OH217567   2.513   3.309   1.741
 5875TIP3    H117568   2.428   3.333   1.704
 5875TIP3    H217569   2.578   3.346   1.681
 5876TIP3   OH217570   7.760   4.428   3.763
 5876TIP3    H117571   7.763   4.425   3.668
 5876TIP3    H217572   7.766   4.336   3.790
 5877TIP3   OH217573   7.575   0.169   5.117
 5877TIP3    H117574   7.497   0.114   5.113
 5877TIP3    H217575   7.613   0.164   5.029
 5878TIP3   OH217576   4.821   4.476   0.293
 5878TIP3    H117577   4.825   4.434   0.207
 5878TIP3    H217578   4.870   4.557   0.282
 5879TIP3   OH217579   4.094   7.747   3.720
 5879TIP3    H117580   4.120   7.664   3.680
 5879TIP3    H217581   4.079   7.806   3.646
 5880TIP3   OH217582   3.925   7.074   5.484
 5880TIP3    H117583   3.997   7.063   5.546
 5880TIP3    H217584   3.921   7.168   5.468
 5881TIP3   OH217585   0.270   2.287   5.484
 5881TIP3    H117586   0.253   2.358   5.546
 5881TIP3    H217587   0.357   2.255   5.507
 5882TIP3   OH217588   1.328   3.770   3.096
 5882TIP3    H117589   1.293   3.813   3.019
 5882TIP3    H217590   1.404   3.722   3.064
 5883TIP3   OH217591   8.160   7.058   5.293
 5883TIP3    H117592   8.069   7.049   5.267
 5883TIP3    H217593   8.157   7.114   5.371
 5884TIP3   OH217594   0.508   1.658   0.078
 5884TIP3    H117595   0.583   1.646   0.136
 5884TIP3    H217596   0.431   1.650   0.135
 5885TIP3   OH217597   4.156   2.679   4.247
 5885TIP3    H117598   4.238   2.634   4.226
 5885TIP3    H217599   4.087   2.617   4.221
 5886TIP3   OH217600   0.370   0.229   4.513
 5886TIP3    H117601   0.432   0.197   4.448
 5886TIP3    H217602   0.292   0.253   4.463
 5887TIP3   OH217603   4.685   5.834   0.469
 5887TIP3    H117604   4.710   5.926   0.459
 5887TIP3    H217605   4.623   5.819   0.398
 5888TIP3   OH217606   7.719   4.431   0.815
 5888TIP3    H117607   7.709   4.386   0.899
 5888TIP3    H217608   7.780   4.502   0.833
 5889TIP3   OH217609   3.807   7.605   1.413
 5889TIP3    H117610   3.869   7.543   1.451
 5889TIP3    H217611   3.775   7.656   1.488
 5890TIP3   OH217612   7.117   4.703   6.444
 5890TIP3    H117613   7.145   4.626   6.494
 5890TIP3    H217614   7.056   4.749   6.502
 5891TIP3   OH217615   5.474   4.184   2.851
 5891TIP3    H117616   5.468   4.122   2.778
 5891TIP3    H217617   5.482   4.129   2.928
 5892TIP3   OH217618   1.011   7.586   5.305
 5892TIP3    H117619   0.936   7.641   5.323
 5892TIP3    H217620   1.068   7.598   5.381
 5893TIP3   OH217621   7.854   3.075   5.463
 5893TIP3    H117622   7.792   3.147   5.451
 5893TIP3    H217623   7.883   3.054   5.374
 5894TIP3   OH217624   1.219   1.541   5.540
 5894TIP3    H117625   1.168   1.462   5.524
 5894TIP3    H217626   1.243   1.573   5.453
 5895TIP3   OH217627   7.194   7.240   5.948
 5895TIP3    H117628   7.148   7.293   5.883
 5895TIP3    H217629   7.286   7.250   5.926
 5896TIP3   OH217630   0.180   4.380   6.428
 5896TIP3    H117631   0.128   4.303   6.406
 5896TIP3    H217632   0.228   4.400   6.348
 5897TIP3   OH217633   7.844   6.296   6.328
 5897TIP3    H117634   7.898   6.348   6.268
 5897TIP3    H217635   7.861   6.205   6.303
 5898TIP3   OH217636   8.158   3.890   5.858
 5898TIP3    H117637   8.252   3.875   5.866
 5898TIP3    H217638   8.135   3.938   5.938
 5899TIP3   OH217639   1.237   2.902   0.766
 5899TIP3    H117640   1.281   2.849   0.700
 5899TIP3    H217641   1.251   2.992   0.737
 5900TIP3   OH217642   5.188   1.036   2.927
 5900TIP3    H117643   5.158   1.043   3.018
 5900TIP3    H217644   5.109   1.020   2.876
 5901TIP3   OH217645   0.923   7.235   5.553
 5901TIP3    H117646   0.925   7.255   5.459
 5901TIP3    H217647   1.008   7.266   5.585
 5902TIP3   OH217648   2.130   5.420   2.802
 5902TIP3    H117649   2.180   5.493   2.766
 5902TIP3    H217650   2.196   5.358   2.832
 5903TIP3   OH217651   1.357   5.459   4.849
 5903TIP3    H117652   1.268   5.440   4.880
 5903TIP3    H217653   1.413   5.403   4.903
 5904TIP3   OH217654   1.585   4.638   4.075
 5904TIP3    H117655   1.620   4.568   4.130
 5904TIP3    H217656   1.492   4.615   4.064
 5905TIP3   OH217657   2.240   5.665   4.258
 5905TIP3    H117658   2.230   5.685   4.165
 5905TIP3    H217659   2.154   5.683   4.296
 5906TIP3   OH217660   0.084   1.666   1.675
 5906TIP3    H117661   0.078   1.755   1.710
 5906TIP3    H217662  -0.005   1.647   1.643
 5907TIP3   OH217663   3.245   4.220   3.836
 5907TIP3    H117664   3.220   4.135   3.873
 5907TIP3    H217665   3.215   4.284   3.900
 5908TIP3   OH217666   4.223   3.883   3.972
 5908TIP3    H117667   4.308   3.889   3.928
 5908TIP3    H217668   4.188   3.797   3.947
 5909TIP3   OH217669   1.767   0.800   3.234
 5909TIP3    H117670   1.687   0.831   3.276
 5909TIP3    H217671   1.756   0.705   3.226
 5910TIP3   OH217672   1.772   1.571   6.433
 5910TIP3    H117673   1.702   1.624   6.395
 5910TIP3    H217674   1.849   1.592   6.380
 5911TIP3   OH217675   3.922   2.198   3.852
 5911TIP3    H117676   3.921   2.285   3.812
 5911TIP3    H217677   4.000   2.156   3.814
 5912TIP3   OH217678   6.138   4.524   2.380
 5912TIP3    H117679   6.233   4.516   2.384
 5912TIP3    H217680   6.106   4.442   2.418
 5913TIP3   OH217681   3.681   4.003   0.807
 5913TIP3    H117682   3.668   4.008   0.902
 5913TIP3    H217683   3.776   3.999   0.796
 5914TIP3   OH217684   1.241   6.897   4.528
 5914TIP3    H117685   1.216   6.978   4.483
 5914TIP3    H217686   1.221   6.914   4.620
 5915TIP3   OH217687   6.519   6.667   5.011
 5915TIP3    H117688   6.439   6.712   5.039
 5915TIP3    H217689   6.500   6.574   5.022
 5916TIP3   OH217690   5.151   6.048   0.230
 5916TIP3    H117691   5.193   6.006   0.155
 5916TIP3    H217692   5.200   6.016   0.306
 5917TIP3   OH217693   5.582   5.271   0.331
 5917TIP3    H117694   5.630   5.309   0.257
 5917TIP3    H217695   5.519   5.211   0.291
 5918TIP3   OH217696   3.363   6.775   4.275
 5918TIP3    H117697   3.403   6.735   4.352
 5918TIP3    H217698   3.319   6.853   4.308
 5919TIP3   OH217699   3.142   3.625   5.709
 5919TIP3    H117700   3.058   3.650   5.670
 5919TIP3    H217701   3.177   3.560   5.649
 5920TIP3   OH217702   5.331   6.957   6.297
 5920TIP3    H117703   5.368   6.965   6.385
 5920TIP3    H217704   5.334   6.863   6.278
 5921TIP3   OH217705   3.821   7.293   3.902
 5921TIP3    H117706   3.856   7.237   3.833
 5921TIP3    H217707   3.732   7.262   3.916
 5922TIP3   OH217708   2.772   7.807   6.703
 5922TIP3    H117709   2.821   7.778   6.780
 5922TIP3    H217710   2.748   7.725   6.659
 5923TIP3   OH217711   5.791   5.391   0.674
 5923TIP3    H117712   5.697   5.394   0.657
 5923TIP3    H217713   5.801   5.322   0.739
 5924TIP3   OH217714   5.576   5.894   2.102
 5924TIP3    H117715   5.494   5.872   2.146
 5924TIP3    H217716   5.549   5.937   2.021
 5925TIP3   OH217717   2.614   5.810   0.393
 5925TIP3    H117718   2.543   5.863   0.357
 5925TIP3    H217719   2.631   5.847   0.480
 5926TIP3   OH217720   2.763   4.534   3.415
 5926TIP3    H117721   2.811   4.510   3.494
 5926TIP3    H217722   2.731   4.451   3.380
 5927TIP3   OH217723   0.443   0.091   0.207
 5927TIP3    H117724   0.454   0.183   0.180
 5927TIP3    H217725   0.477   0.089   0.297
 5928TIP3   OH217726   1.133   6.819   6.666
 5928TIP3    H117727   1.047   6.859   6.653
 5928TIP3    H217728   1.161   6.794   6.579
 5929TIP3   OH217729   5.036   1.219   4.810
 5929TIP3    H117730   5.056   1.304   4.850
 5929TIP3    H217731   4.967   1.239   4.746
 5930TIP3   OH217732   3.555   1.837   2.779
 5930TIP3    H117733   3.579   1.918   2.825
 5930TIP3    H217734   3.536   1.865   2.690
 5931TIP3   OH217735   3.263   0.347   0.415
 5931TIP3    H117736   3.279   0.392   0.331
 5931TIP3    H217737   3.274   0.416   0.481
 5932TIP3   OH217738   6.855   2.942   3.737
 5932TIP3    H117739   6.853   2.925   3.831
 5932TIP3    H217740   6.945   2.972   3.721
 5933TIP3   OH217741   5.417   1.291   3.790
 5933TIP3    H117742   5.364   1.360   3.829
 5933TIP3    H217743   5.402   1.215   3.846
 5934TIP3   OH217744   5.256   2.909   0.717
 5934TIP3    H117745   5.347   2.926   0.740
 5934TIP3    H217746   5.248   2.942   0.627
 5935TIP3   OH217747   3.927   0.753   3.548
 5935TIP3    H117748   3.898   0.684   3.488
 5935TIP3    H217749   3.975   0.815   3.493
 5936TIP3   OH217750   7.306   4.690   6.242
 5936TIP3    H117751   7.261   4.619   6.195
 5936TIP3    H217752   7.235   4.745   6.274
 5937TIP3   OH217753   7.906   5.138   6.661
 5937TIP3    H117754   7.901   5.043   6.656
 5937TIP3    H217755   7.828   5.163   6.711
 5938TIP3   OH217756   1.981   6.673   3.708
 5938TIP3    H117757   1.948   6.636   3.626
 5938TIP3    H217758   2.045   6.739   3.681
 5939TIP3   OH217759   8.270   3.208   3.046
 5939TIP3    H117760   8.188   3.175   3.083
 5939TIP3    H217761   8.277   3.163   2.961
 5940TIP3   OH217762   1.445   0.801   0.319
 5940TIP3    H117763   1.501   0.877   0.338
 5940TIP3    H217764   1.504   0.738   0.277
 5941TIP3   OH217765   0.468   0.044   6.702
 5941TIP3    H117766   0.428   0.004   6.624
 5941TIP3    H217767   0.543   0.093   6.668
 5942TIP3   OH217768   2.640   1.426   0.638
 5942TIP3    H117769   2.715   1.441   0.695
 5942TIP3    H217770   2.583   1.368   0.689
 5943TIP3   OH217771   2.234   3.094   3.772
 5943TIP3    H117772   2.192   3.102   3.858
 5943TIP3    H217773   2.281   3.010   3.776
 5944TIP3   OH217774   6.964   1.475   5.372
 5944TIP3    H117775   7.057   1.462   5.358
 5944TIP3    H217776   6.945   1.427   5.453
 5945TIP3   OH217777   2.999   4.516   6.309
 5945TIP3    H117778   2.971   4.439   6.259
 5945TIP3    H217779   3.094   4.518   6.299
 5946TIP3   OH217780   7.140   7.052   2.968
 5946TIP3    H117781   7.211   7.023   3.025
 5946TIP3    H217782   7.114   6.973   2.919
 5947TIP3   OH217783   4.238   1.033   4.350
 5947TIP3    H117784   4.324   1.068   4.374
 5947TIP3    H217785   4.245   0.940   4.368
 5948TIP3   OH217786   7.346   3.842   3.123
 5948TIP3    H117787   7.311   3.858   3.036
 5948TIP3    H217788   7.293   3.898   3.180
 5949TIP3   OH217789   7.253   2.591   5.074
 5949TIP3    H117790   7.348   2.599   5.085
 5949TIP3    H217791   7.237   2.621   4.984
 5950TIP3   OH217792   2.715   0.273   0.325
 5950TIP3    H117793   2.645   0.209   0.315
 5950TIP3    H217794   2.795   0.223   0.316
 5951TIP3   OH217795   5.746   5.345   2.767
 5951TIP3    H117796   5.790   5.402   2.830
 5951TIP3    H217797   5.799   5.265   2.767
 5952TIP3   OH217798   0.703   4.589   5.528
 5952TIP3    H117799   0.623   4.594   5.475
 5952TIP3    H217800   0.774   4.585   5.464
 5953TIP3   OH217801   1.641   6.624   3.375
 5953TIP3    H117802   1.646   6.691   3.444
 5953TIP3    H217803   1.637   6.541   3.422
 5954TIP3   OH217804   7.339   5.150   3.067
 5954TIP3    H117805   7.289   5.075   3.035
 5954TIP3    H217806   7.282   5.225   3.048
 5955TIP3   OH217807   1.164   3.885   5.131
 5955TIP3    H117808   1.259   3.873   5.134
 5955TIP3    H217809   1.152   3.980   5.133
 5956TIP3   OH217810   2.237   3.790   0.462
 5956TIP3    H117811   2.188   3.708   0.449
 5956TIP3    H217812   2.327   3.767   0.439
 5957TIP3   OH217813   1.237   6.554   0.272
 5957TIP3    H117814   1.314   6.562   0.328
 5957TIP3    H217815   1.262   6.598   0.190
 5958TIP3   OH217816   4.324   3.152   3.509
 5958TIP3    H117817   4.295   3.067   3.543
 5958TIP3    H217818   4.402   3.131   3.457
 5959TIP3   OH217819   3.828   2.632   3.106
 5959TIP3    H117820   3.897   2.577   3.069
 5959TIP3    H217821   3.809   2.592   3.191
 5960TIP3   OH217822   4.570   6.827   5.574
 5960TIP3    H117823   4.614   6.808   5.492
 5960TIP3    H217824   4.479   6.801   5.559
 5961TIP3   OH217825   1.641   5.682   5.618
 5961TIP3    H117826   1.721   5.710   5.664
 5961TIP3    H217827   1.586   5.760   5.615
 5962TIP3   OH217828   6.915   4.436   5.101
 5962TIP3    H117829   6.855   4.503   5.068
 5962TIP3    H217830   7.002   4.470   5.079
 5963TIP3   OH217831   2.450   4.823   6.765
 5963TIP3    H117832   2.486   4.805   6.678
 5963TIP3    H217833   2.411   4.910   6.757
 5964TIP3   OH217834   7.668   0.234   2.346
 5964TIP3    H117835   7.660   0.301   2.414
 5964TIP3    H217836   7.603   0.260   2.281
 5965TIP3   OH217837   4.031   6.600   2.799
 5965TIP3    H117838   4.002   6.616   2.709
 5965TIP3    H217839   4.106   6.658   2.811
 5966TIP3   OH217840   3.501   5.961   5.931
 5966TIP3    H117841   3.420   5.975   5.980
 5966TIP3    H217842   3.521   5.868   5.944
 5967TIP3   OH217843   0.226   5.946   5.716
 5967TIP3    H117844   0.319   5.969   5.721
 5967TIP3    H217845   0.210   5.892   5.794
 5968TIP3   OH217846   7.853   1.938   4.001
 5968TIP3    H117847   7.868   2.022   4.045
 5968TIP3    H217848   7.869   1.957   3.908
 5969TIP3   OH217849   2.597   7.184   5.376
 5969TIP3    H117850   2.673   7.131   5.399
 5969TIP3    H217851   2.523   7.124   5.384
 5970TIP3   OH217852   5.119   6.531   0.827
 5970TIP3    H117853   5.200   6.573   0.855
 5970TIP3    H217854   5.117   6.544   0.732
 5971TIP3   OH217855   5.623   5.412   2.197
 5971TIP3    H117856   5.541   5.463   2.193
 5971TIP3    H217857   5.603   5.340   2.257
 5972TIP3   OH217858   5.890   2.456   5.723
 5972TIP3    H117859   5.947   2.388   5.758
 5972TIP3    H217860   5.841   2.413   5.653
 5973TIP3   OH217861   4.311   6.906   3.489
 5973TIP3    H117862   4.336   6.841   3.556
 5973TIP3    H217863   4.270   6.854   3.420
 5974TIP3   OH217864   6.309   1.214   1.984
 5974TIP3    H117865   6.375   1.260   1.933
 5974TIP3    H217866   6.358   1.176   2.058
 5975TIP3   OH217867   8.055   6.359   6.117
 5975TIP3    H117868   8.143   6.376   6.151
 5975TIP3    H217869   8.059   6.270   6.083
 5976TIP3   OH217870   3.579   5.352   1.671
 5976TIP3    H117871   3.653   5.411   1.688
 5976TIP3    H217872   3.609   5.266   1.699
 5977TIP3   OH217873   6.486   2.187   2.761
 5977TIP3    H117874   6.519   2.170   2.673
 5977TIP3    H217875   6.561   2.222   2.809
 5978TIP3   OH217876   2.023   0.725   2.612
 5978TIP3    H117877   2.056   0.645   2.653
 5978TIP3    H217878   2.010   0.786   2.685
 5979TIP3   OH217879   8.062   6.385   0.006
 5979TIP3    H117880   8.057   6.292   0.028
 5979TIP3    H217881   8.000   6.427   0.066
 5980TIP3   OH217882   5.243   2.841   2.542
 5980TIP3    H117883   5.327   2.803   2.514
 5980TIP3    H217884   5.197   2.860   2.460
 5981TIP3   OH217885   5.465   7.091   2.591
 5981TIP3    H117886   5.402   7.105   2.663
 5981TIP3    H217887   5.505   7.007   2.612
 5982TIP3   OH217888   2.537   3.482   6.388
 5982TIP3    H117889   2.470   3.487   6.456
 5982TIP3    H217890   2.524   3.561   6.336
 5983TIP3   OH217891   0.784   2.710   0.831
 5983TIP3    H117892   0.694   2.723   0.803
 5983TIP3    H217893   0.837   2.728   0.753
 5984TIP3   OH217894   5.213   0.560   2.397
 5984TIP3    H117895   5.240   0.642   2.357
 5984TIP3    H217896   5.269   0.494   2.357
 5985TIP3   OH217897   1.678   6.761   4.318
 5985TIP3    H117898   1.612   6.795   4.379
 5985TIP3    H217899   1.636   6.686   4.276
 5986TIP3   OH217900   0.543   4.573   6.465
 5986TIP3    H117901   0.471   4.619   6.509
 5986TIP3    H217902   0.535   4.598   6.373
 5987TIP3   OH217903   2.011   0.276   5.529
 5987TIP3    H117904   1.950   0.218   5.574
 5987TIP3    H217905   2.078   0.218   5.493
 5988TIP3   OH217906   7.120   3.783   4.791
 5988TIP3    H117907   7.149   3.875   4.793
 5988TIP3    H217908   7.088   3.771   4.701
 5989TIP3   OH217909   0.730   2.374   0.621
 5989TIP3    H117910   0.753   2.439   0.554
 5989TIP3    H217911   0.634   2.372   0.621
 5990TIP3   OH217912   3.662   4.558   5.241
 5990TIP3    H117913   3.686   4.544   5.149
 5990TIP3    H217914   3.732   4.612   5.276
 5991TIP3   OH217915   1.532   0.723   3.495
 5991TIP3    H117916   1.581   0.790   3.447
 5991TIP3    H217917   1.501   0.663   3.427
 5992TIP3   OH217918   0.869   2.496   3.860
 5992TIP3    H117919   0.928   2.441   3.809
 5992TIP3    H217920   0.788   2.444   3.866
 5993TIP3   OH217921   2.356   4.676   6.181
 5993TIP3    H117922   2.431   4.735   6.173
 5993TIP3    H217923   2.322   4.692   6.269
 5994TIP3   OH217924   2.052   6.860   2.553
 5994TIP3    H117925   2.001   6.940   2.541
 5994TIP3    H217926   1.995   6.803   2.604
 5995TIP3   OH217927   3.942   2.068   5.180
 5995TIP3    H117928   3.848   2.073   5.199
 5995TIP3    H217929   3.948   2.086   5.086
 5996TIP3   OH217930   6.060   4.057   0.555
 5996TIP3    H117931   6.127   3.991   0.539
 5996TIP3    H217932   6.059   4.111   0.476
 5997TIP3   OH217933   7.875   4.686   2.598
 5997TIP3    H117934   7.841   4.730   2.521
 5997TIP3    H217935   7.817   4.611   2.611
 5998TIP3   OH217936   1.588   2.618   0.498
 5998TIP3    H117937   1.503   2.581   0.474
 5998TIP3    H217938   1.650   2.546   0.482
 5999TIP3   OH217939   2.970  -0.039   4.887
 5999TIP3    H117940   3.058  -0.017   4.856
 5999TIP3    H217941   2.921  -0.059   4.808
 6000TIP3   OH217942   3.748   0.961   6.564
 6000TIP3    H117943   3.827   0.915   6.534
 6000TIP3    H217944   3.762   1.052   6.539
 6001TIP3   OH217945   5.755   1.153   0.464
 6001TIP3    H117946   5.839   1.134   0.421
 6001TIP3    H217947   5.779   1.176   0.554
 6002TIP3   OH217948   5.768   0.327   0.973
 6002TIP3    H117949   5.784   0.375   0.891
 6002TIP3    H217950   5.690   0.368   1.010
 6003TIP3   OH217951   6.135   7.135   5.302
 6003TIP3    H117952   6.177   7.054   5.329
 6003TIP3    H217953   6.162   7.199   5.368
 6004TIP3   OH217954   7.403   5.614   1.997
 6004TIP3    H117955   7.410   5.593   2.090
 6004TIP3    H217956   7.395   5.709   1.995
 6005TIP3   OH217957   5.784   5.682   0.235
 6005TIP3    H117958   5.831   5.598   0.237
 6005TIP3    H217959   5.836   5.740   0.291
 6006TIP3   OH217960   7.816   1.762   0.606
 6006TIP3    H117961   7.746   1.697   0.610
 6006TIP3    H217962   7.870   1.743   0.683
 6007TIP3   OH217963   6.794   5.109   1.166
 6007TIP3    H117964   6.817   5.169   1.095
 6007TIP3    H217965   6.872   5.104   1.221
 6008TIP3   OH217966   7.770   3.421   4.149
 6008TIP3    H117967   7.699   3.378   4.100
 6008TIP3    H217968   7.846   3.414   4.092
 6009TIP3   OH217969   4.127   0.412   4.663
 6009TIP3    H117970   4.055   0.364   4.622
 6009TIP3    H217971   4.084   0.479   4.716
 6010TIP3   OH217972   7.311   5.415   2.552
 6010TIP3    H117973   7.395   5.369   2.549
 6010TIP3    H217974   7.305   5.449   2.641
 6011TIP3   OH217975   6.977   5.586   3.411
 6011TIP3    H117976   6.917   5.511   3.417
 6011TIP3    H217977   7.059   5.548   3.379
 6012TIP3   OH217978   7.970   5.922   5.852
 6012TIP3    H117979   8.002   5.963   5.933
 6012TIP3    H217980   7.902   5.862   5.881
 6013TIP3   OH217981   2.466   7.617   5.361
 6013TIP3    H117982   2.474   7.708   5.391
 6013TIP3    H217983   2.443   7.625   5.268
 6014TIP3   OH217984   2.786   2.831   6.599
 6014TIP3    H117985   2.691   2.842   6.593
 6014TIP3    H217986   2.798   2.760   6.663
 6015TIP3   OH217987   6.510   6.703   4.755
 6015TIP3    H117988   6.502   6.797   4.769
 6015TIP3    H217989   6.533   6.668   4.842
 6016TIP3   OH217990   1.462  -0.051   0.243
 6016TIP3    H117991   1.415   0.029   0.217
 6016TIP3    H217992   1.501  -0.029   0.327
 6017TIP3   OH217993   7.436   6.151   3.060
 6017TIP3    H117994   7.478   6.157   2.974
 6017TIP3    H217995   7.441   6.058   3.082
 6018TIP3   OH217996   3.607   5.722   5.326
 6018TIP3    H117997   3.580   5.647   5.272
 6018TIP3    H217998   3.600   5.690   5.416
 6019TIP3   OH217999   7.956   4.750   6.334
 6019TIP3    H118000   7.897   4.818   6.303
 6019TIP3    H218001   7.969   4.692   6.258
 6020TIP3   OH218002   6.017   3.388   4.207
 6020TIP3    H118003   5.985   3.478   4.213
 6020TIP3    H218004   6.011   3.354   4.296
 6021TIP3   OH218005   7.663   4.848   2.498
 6021TIP3    H118006   7.629   4.794   2.426
 6021TIP3    H218007   7.600   4.835   2.569
 6022TIP3   OH218008   7.547   2.765   3.824
 6022TIP3    H118009   7.566   2.676   3.853
 6022TIP3    H218010   7.630   2.812   3.833
 6023TIP3   OH218011   4.361   1.415   1.574
 6023TIP3    H118012   4.421   1.483   1.543
 6023TIP3    H218013   4.415   1.337   1.585
 6024TIP3   OH218014   5.358   5.107   5.520
 6024TIP3    H118015   5.361   5.131   5.613
 6024TIP3    H218016   5.331   5.016   5.520
 6025TIP3   OH218017   5.814   3.478   4.005
 6025TIP3    H118018   5.770   3.529   4.073
 6025TIP3    H218019   5.848   3.401   4.051
 6026TIP3   OH218020   0.810   5.526   0.392
 6026TIP3    H118021   0.832   5.434   0.401
 6026TIP3    H218022   0.732   5.538   0.447
 6027TIP3   OH218023   2.085   7.739   3.491
 6027TIP3    H118024   2.147   7.678   3.452
 6027TIP3    H218025   2.084   7.716   3.584
 6028TIP3   OH218026   5.643   3.154   3.753
 6028TIP3    H118027   5.710   3.217   3.726
 6028TIP3    H218028   5.578   3.208   3.799
 6029TIP3   OH218029   6.820   1.324   2.549
 6029TIP3    H118030   6.843   1.271   2.625
 6029TIP3    H218031   6.776   1.401   2.586
 6030TIP3   OH218032   5.426   1.213   5.636
 6030TIP3    H118033   5.462   1.125   5.632
 6030TIP3    H218034   5.469   1.260   5.564
 6031TIP3   OH218035   1.206   4.266   4.973
 6031TIP3    H118036   1.169   4.197   4.918
 6031TIP3    H218037   1.185   4.347   4.927
 6032TIP3   OH218038   7.591   1.590   0.591
 6032TIP3    H118039   7.579   1.497   0.610
 6032TIP3    H218040   7.528   1.635   0.648
 6033TIP3   OH218041   5.025   5.647   5.889
 6033TIP3    H118042   5.040   5.558   5.857
 6033TIP3    H218043   5.017   5.637   5.984
 6034TIP3   OH218044   6.449   0.106   5.834
 6034TIP3    H118045   6.395   0.079   5.908
 6034TIP3    H218046   6.400   0.177   5.793
 6035TIP3   OH218047   2.309   4.804   2.822
 6035TIP3    H118048   2.293   4.860   2.898
 6035TIP3    H218049   2.386   4.753   2.847
 6036TIP3   OH218050   2.538   2.483   3.820
 6036TIP3    H118051   2.457   2.515   3.780
 6036TIP3    H218052   2.542   2.528   3.905
 6037TIP3   OH218053   0.141   0.473   0.151
 6037TIP3    H118054   0.125   0.528   0.074
 6037TIP3    H218055   0.200   0.525   0.206
 6038TIP3   OH218056   0.277   1.513   5.810
 6038TIP3    H118057   0.292   1.420   5.792
 6038TIP3    H218058   0.217   1.541   5.740
 6039TIP3   OH218059   1.889   6.629   2.633
 6039TIP3    H118060   1.896   6.625   2.729
 6039TIP3    H218061   1.965   6.581   2.602
 6040TIP3   OH218062   4.080   2.787   1.869
 6040TIP3    H118063   4.100   2.829   1.952
 6040TIP3    H218064   4.157   2.732   1.851
 6041TIP3   OH218065   3.187   0.284   3.389
 6041TIP3    H118066   3.143   0.200   3.377
 6041TIP3    H218067   3.186   0.325   3.303
 6042TIP3   OH218068   3.250   0.398   5.566
 6042TIP3    H118069   3.317   0.350   5.517
 6042TIP3    H218070   3.196   0.441   5.500
 6043TIP3   OH218071   1.825   1.294   6.407
 6043TIP3    H118072   1.810   1.386   6.430
 6043TIP3    H218073   1.738   1.259   6.387
 6044TIP3   OH218074   2.618   4.643   5.360
 6044TIP3    H118075   2.572   4.666   5.279
 6044TIP3    H218076   2.577   4.696   5.428
 6045TIP3   OH218077   6.340   4.968   4.292
 6045TIP3    H118078   6.398   5.007   4.358
 6045TIP3    H218079   6.398   4.924   4.231
 6046TIP3   OH218080   5.516   0.017   0.347
 6046TIP3    H118081   5.606   0.000   0.317
 6046TIP3    H218082   5.478   0.071   0.278
 6047TIP3   OH218083   4.743   0.102   6.149
 6047TIP3    H118084   4.649   0.088   6.153
 6047TIP3    H218085   4.781   0.016   6.166
 6048TIP3   OH218086   4.362   1.116   1.645
 6048TIP3    H118087   4.352   1.024   1.668
 6048TIP3    H218088   4.439   1.145   1.693
 6049TIP3   OH218089   3.188   3.459   2.386
 6049TIP3    H118090   3.129   3.412   2.444
 6049TIP3    H218091   3.226   3.391   2.330
 6050TIP3   OH218092   2.483   1.231   4.552
 6050TIP3    H118093   2.534   1.183   4.487
 6050TIP3    H218094   2.414   1.274   4.502
 6051TIP3   OH218095   1.593   5.581   0.478
 6051TIP3    H118096   1.642   5.499   0.469
 6051TIP3    H218097   1.547   5.590   0.395
 6052TIP3   OH218098   7.935   6.645   2.745
 6052TIP3    H118099   7.954   6.605   2.660
 6052TIP3    H218100   7.879   6.720   2.725
 6053TIP3   OH218101   5.654   3.549   2.139
 6053TIP3    H118102   5.601   3.539   2.217
 6053TIP3    H218103   5.695   3.463   2.127
 6054TIP3   OH218104   2.949   0.969   1.135
 6054TIP3    H118105   2.866   0.947   1.091
 6054TIP3    H218106   2.986   1.040   1.083
 6055TIP3   OH218107   4.599   1.124   4.103
 6055TIP3    H118108   4.541   1.198   4.086
 6055TIP3    H218109   4.581   1.100   4.194
 6056TIP3   OH218110   1.154   1.932   6.442
 6056TIP3    H118111   1.223   1.872   6.468
 6056TIP3    H218112   1.106   1.950   6.523
 6057TIP3   OH218113   7.971   0.319   6.437
 6057TIP3    H118114   7.927   0.245   6.396
 6057TIP3    H218115   7.969   0.388   6.370
 6058TIP3   OH218116   3.539   4.782   3.214
 6058TIP3    H118117   3.583   4.713   3.263
 6058TIP3    H218118   3.595   4.859   3.226
 6059TIP3   OH218119   2.568   2.911   3.940
 6059TIP3    H118120   2.505   2.903   3.868
 6059TIP3    H218121   2.652   2.888   3.900
 6060TIP3   OH218122   1.930   3.367   4.143
 6060TIP3    H118123   2.024   3.350   4.130
 6060TIP3    H218124   1.912   3.336   4.231
 6061TIP3   OH218125   0.813   4.679   2.721
 6061TIP3    H118126   0.797   4.625   2.644
 6061TIP3    H218127   0.766   4.636   2.792
 6062TIP3   OH218128   8.164   3.610   1.186
 6062TIP3    H118129   8.080   3.627   1.144
 6062TIP3    H218130   8.189   3.693   1.225
 6063TIP3   OH218131   2.179   2.323   2.857
 6063TIP3    H118132   2.139   2.376   2.789
 6063TIP3    H218133   2.272   2.321   2.835
 6064TIP3   OH218134   0.697   3.868   4.948
 6064TIP3    H118135   0.655   3.782   4.950
 6064TIP3    H218136   0.784   3.853   4.984
 6065TIP3   OH218137   5.794   1.392   4.903
 6065TIP3    H118138   5.725   1.396   4.836
 6065TIP3    H218139   5.811   1.483   4.926
 6066TIP3   OH218140   6.703   1.349   0.934
 6066TIP3    H118141   6.733   1.319   1.019
 6066TIP3    H218142   6.717   1.275   0.875
 6067TIP3   OH218143   3.802   5.752   3.868
 6067TIP3    H118144   3.871   5.694   3.835
 6067TIP3    H218145   3.818   5.759   3.962
 6068TIP3   OH218146   4.207   7.088   1.294
 6068TIP3    H118147   4.112   7.099   1.293
 6068TIP3    H218148   4.241   7.171   1.328
 6069TIP3   OH218149   7.601   5.912   6.173
 6069TIP3    H118150   7.642   5.931   6.088
 6069TIP3    H218151   7.517   5.956   6.169
 6070TIP3   OH218152   2.202   7.511   1.327
 6070TIP3    H118153   2.179   7.473   1.412
 6070TIP3    H218154   2.297   7.515   1.327
 6071TIP3   OH218155   8.003   7.429   0.206
 6071TIP3    H118156   7.920   7.390   0.178
 6071TIP3    H218157   8.070   7.378   0.159
 6072TIP3   OH218158   7.873   5.503   0.383
 6072TIP3    H118159   7.817   5.570   0.344
 6072TIP3    H218160   7.957   5.513   0.339
 6073TIP3   OH218161   0.500   7.672   1.763
 6073TIP3    H118162   0.444   7.749   1.757
 6073TIP3    H218163   0.589   7.706   1.756
 6074TIP3   OH218164   7.456   4.909   3.790
 6074TIP3    H118165   7.372   4.875   3.761
 6074TIP3    H218166   7.516   4.892   3.718
 6075TIP3   OH218167   5.177   2.126   5.157
 6075TIP3    H118168   5.258   2.086   5.125
 6075TIP3    H218169   5.194   2.220   5.156
 6076TIP3   OH218170   7.299   1.270   5.819
 6076TIP3    H118171   7.261   1.356   5.840
 6076TIP3    H218172   7.249   1.208   5.872
 6077TIP3   OH218173   0.464   6.997   0.240
 6077TIP3    H118174   0.401   7.052   0.286
 6077TIP3    H218175   0.548   7.019   0.280
 6078TIP3   OH218176   7.437   3.939   0.460
 6078TIP3    H118177   7.373   3.983   0.516
 6078TIP3    H218178   7.482   4.010   0.415
 6079TIP3   OH218179   6.290   4.556   6.173
 6079TIP3    H118180   6.242   4.478   6.202
 6079TIP3    H218181   6.232   4.629   6.196
 6080TIP3   OH218182   0.902   3.484   4.429
 6080TIP3    H118183   0.829   3.488   4.367
 6080TIP3    H218184   0.864   3.447   4.509
 6081TIP3   OH218185   2.180   0.914   4.524
 6081TIP3    H118186   2.162   0.879   4.611
 6081TIP3    H218187   2.135   0.998   4.522
 6082TIP3   OH218188   5.590   1.466   5.115
 6082TIP3    H118189   5.663   1.513   5.076
 6082TIP3    H218190   5.592   1.380   5.072
 6083TIP3   OH218191   2.110   1.966   3.821
 6083TIP3    H118192   2.051   1.906   3.866
 6083TIP3    H218193   2.186   1.912   3.800
 6084TIP3   OH218194   7.687   2.823   0.202
 6084TIP3    H118195   7.608   2.831   0.254
 6084TIP3    H218196   7.659   2.779   0.122
 6085TIP3   OH218197   1.365   3.107   1.531
 6085TIP3    H118198   1.395   3.018   1.551
 6085TIP3    H218199   1.293   3.122   1.593
 6086TIP3   OH218200   8.089   6.275   5.364
 6086TIP3    H118201   8.184   6.283   5.377
 6086TIP3    H218202   8.051   6.296   5.450
 6087TIP3   OH218203   3.666   4.337   4.112
 6087TIP3    H118204   3.746   4.298   4.146
 6087TIP3    H218205   3.595   4.292   4.158
 6088TIP3   OH218206   2.550   5.915   1.323
 6088TIP3    H118207   2.484   5.968   1.278
 6088TIP3    H218208   2.632   5.962   1.309
 6089TIP3   OH218209   3.983   6.782   4.806
 6089TIP3    H118210   4.038   6.711   4.842
 6089TIP3    H218211   3.940   6.820   4.883
 6090TIP3   OH218212   2.715   6.850   0.309
 6090TIP3    H118213   2.634   6.901   0.311
 6090TIP3    H218214   2.754   6.870   0.224
 6091TIP3   OH218215   1.911   0.284   5.122
 6091TIP3    H118216   1.999   0.308   5.093
 6091TIP3    H218217   1.905   0.317   5.212
 6092TIP3   OH218218   0.873   0.997   5.019
 6092TIP3    H118219   0.907   0.968   4.934
 6092TIP3    H218220   0.848   0.916   5.063
 6093TIP3   OH218221   3.582   4.920   1.457
 6093TIP3    H118222   3.582   4.826   1.438
 6093TIP3    H218223   3.649   4.930   1.525
 6094TIP3   OH218224   5.092   1.802   4.044
 6094TIP3    H118225   5.057   1.764   4.125
 6094TIP3    H218226   5.095   1.896   4.061
 6095TIP3   OH218227   7.457   4.593   4.604
 6095TIP3    H118228   7.455   4.630   4.692
 6095TIP3    H218229   7.507   4.657   4.552
 6096TIP3   OH218230   6.460   1.256   6.415
 6096TIP3    H118231   6.423   1.171   6.389
 6096TIP3    H218232   6.492   1.241   6.505
 6097TIP3   OH218233   4.566   5.442   6.329
 6097TIP3    H118234   4.473   5.466   6.328
 6097TIP3    H218235   4.609   5.518   6.369
 6098TIP3   OH218236   8.035   6.180   5.772
 6098TIP3    H118237   8.126   6.151   5.777
 6098TIP3    H218238   7.984   6.101   5.787
 6099TIP3   OH218239   7.493   2.781   2.247
 6099TIP3    H118240   7.483   2.837   2.324
 6099TIP3    H218241   7.506   2.842   2.174
 6100TIP3   OH218242   5.941   1.476   0.679
 6100TIP3    H118243   5.849   1.474   0.652
 6100TIP3    H218244   5.954   1.564   0.715
 6101TIP3   OH218245   0.661   7.833   2.014
 6101TIP3    H118246   0.724   7.774   2.054
 6101TIP3    H218247   0.678   7.827   1.920
 6102TIP3   OH218248   5.822   4.215   4.605
 6102TIP3    H118249   5.812   4.156   4.530
 6102TIP3    H218250   5.754   4.280   4.593
 6103TIP3   OH218251   3.322   3.020   1.313
 6103TIP3    H118252   3.380   2.949   1.286
 6103TIP3    H218253   3.271   2.982   1.385
 6104TIP3   OH218254   7.406   1.058   1.403
 6104TIP3    H118255   7.383   1.030   1.492
 6104TIP3    H218256   7.485   1.110   1.415
 6105TIP3   OH218257   2.108   6.016   2.994
 6105TIP3    H118258   2.024   6.055   2.967
 6105TIP3    H218259   2.114   5.935   2.943
 6106TIP3   OH218260   1.298   7.216   5.267
 6106TIP3    H118261   1.293   7.159   5.344
 6106TIP3    H218262   1.302   7.304   5.303
 6107TIP3   OH218263   5.323   7.351   2.107
 6107TIP3    H118264   5.229   7.365   2.097
 6107TIP3    H218265   5.333   7.322   2.198
 6108TIP3   OH218266   7.437   2.903   4.559
 6108TIP3    H118267   7.393   2.893   4.475
 6108TIP3    H218268   7.523   2.941   4.537
 6109TIP3   OH218269   2.542   4.360   5.939
 6109TIP3    H118270   2.539   4.451   5.911
 6109TIP3    H218271   2.503   4.360   6.027
 6110TIP3   OH218272   3.308   1.089   1.893
 6110TIP3    H118273   3.275   1.091   1.983
 6110TIP3    H218274   3.402   1.072   1.903
 6111TIP3   OH218275   4.739   6.976   3.312
 6111TIP3    H118276   4.735   6.919   3.388
 6111TIP3    H218277   4.649   7.004   3.299
 6112TIP3   OH218278   1.757   4.834   1.177
 6112TIP3    H118279   1.796   4.912   1.138
 6112TIP3    H218280   1.830   4.772   1.185
 6113TIP3   OH218281   5.790   2.105   0.877
 6113TIP3    H118282   5.877   2.066   0.873
 6113TIP3    H218283   5.781   2.135   0.968
 6114TIP3   OH218284   3.411   6.232   3.442
 6114TIP3    H118285   3.338   6.262   3.497
 6114TIP3    H218286   3.406   6.137   3.446
 6115TIP3   OH218287   0.943   6.147   3.702
 6115TIP3    H118288   0.864   6.161   3.649
 6115TIP3    H218289   0.916   6.165   3.792
 6116TIP3   OH218290   5.852   6.259   4.045
 6116TIP3    H118291   5.871   6.223   4.132
 6116TIP3    H218292   5.757   6.257   4.038
 6117TIP3   OH218293   0.893   6.942   2.353
 6117TIP3    H118294   0.871   6.928   2.446
 6117TIP3    H218295   0.816   6.986   2.317
 6118TIP3   OH218296   0.131   4.241   4.073
 6118TIP3    H118297   0.201   4.274   4.130
 6118TIP3    H218298   0.077   4.318   4.054
 6119TIP3   OH218299   4.901   0.478   5.528
 6119TIP3    H118300   4.917   0.540   5.457
 6119TIP3    H218301   4.926   0.393   5.491
 6120TIP3   OH218302   3.227   6.640   3.183
 6120TIP3    H118303   3.267   6.553   3.179
 6120TIP3    H218304   3.257   6.677   3.266
 6121TIP3   OH218305   8.045   6.695   0.574
 6121TIP3    H118306   7.956   6.720   0.548
 6121TIP3    H218307   8.079   6.772   0.620
 6122TIP3   OH218308   4.591   1.213   1.743
 6122TIP3    H118309   4.658   1.166   1.693
 6122TIP3    H218310   4.638   1.288   1.780
 6123TIP3   OH218311   0.821   0.096   0.893
 6123TIP3    H118312   0.879   0.115   0.967
 6123TIP3    H218313   0.757   0.035   0.927
 6124TIP3   OH218314   2.210   3.302   3.115
 6124TIP3    H118315   2.277   3.295   3.046
 6124TIP3    H218316   2.140   3.243   3.087
 6125TIP3   OH218317   7.785   7.437   6.125
 6125TIP3    H118318   7.748   7.481   6.048
 6125TIP3    H218319   7.880   7.447   6.115
 6126TIP3   OH218320   1.865   2.792   2.741
 6126TIP3    H118321   1.848   2.716   2.685
 6126TIP3    H218322   1.907   2.756   2.819
 6127TIP3   OH218323   2.383   4.462   2.019
 6127TIP3    H118324   2.378   4.546   1.973
 6127TIP3    H218325   2.331   4.402   1.966
 6128TIP3   OH218326   4.072   1.402   1.520
 6128TIP3    H118327   4.141   1.444   1.572
 6128TIP3    H218328   4.020   1.476   1.486
 6129TIP3   OH218329   3.440   7.432   4.309
 6129TIP3    H118330   3.388   7.510   4.290
 6129TIP3    H218331   3.483   7.452   4.392
 6130TIP3   OH218332   1.087   0.207   1.470
 6130TIP3    H118333   1.163   0.149   1.479
 6130TIP3    H218334   1.125   0.294   1.453
 6131TIP3   OH218335   1.995   1.397   0.586
 6131TIP3    H118336   2.078   1.351   0.597
 6131TIP3    H218337   2.018   1.478   0.540
 6132TIP3   OH218338   2.115   4.827   2.047
 6132TIP3    H118339   2.210   4.820   2.040
 6132TIP3    H218340   2.083   4.738   2.035
 6133TIP3   OH218341   0.151   1.099   3.687
 6133TIP3    H118342   0.066   1.136   3.662
 6133TIP3    H218343   0.145   1.085   3.781
 6134TIP3   OH218344   7.831   3.804   1.293
 6134TIP3    H118345   7.750   3.765   1.323
 6134TIP3    H218346   7.868   3.740   1.232
 6135TIP3   OH218347   3.568   4.288   3.549
 6135TIP3    H118348   3.570   4.227   3.623
 6135TIP3    H218349   3.565   4.232   3.471
 6136TIP3   OH218350   5.652   3.320   6.661
 6136TIP3    H118351   5.665   3.406   6.700
 6136TIP3    H218352   5.565   3.293   6.690
 6137TIP3   OH218353   2.819   1.008   2.556
 6137TIP3    H118354   2.836   0.914   2.547
 6137TIP3    H218355   2.777   1.016   2.642
 6138TIP3   OH218356   2.379   3.349   2.899
 6138TIP3    H118357   2.459   3.298   2.890
 6138TIP3    H218358   2.342   3.351   2.811
 6139TIP3   OH218359   1.692   5.754   4.260
 6139TIP3    H118360   1.664   5.737   4.170
 6139TIP3    H218361   1.751   5.829   4.253
 6140TIP3   OH218362   6.069   7.646   3.309
 6140TIP3    H118363   6.045   7.655   3.401
 6140TIP3    H218364   6.045   7.731   3.270
 6141TIP3   OH218365   5.920   5.551   1.111
 6141TIP3    H118366   6.010   5.573   1.136
 6141TIP3    H218367   5.901   5.609   1.037
 6142TIP3   OH218368   4.282   3.060   2.918
 6142TIP3    H118369   4.278   3.130   2.983
 6142TIP3    H218370   4.263   3.103   2.834
 6143TIP3   OH218371   5.145   3.202   6.239
 6143TIP3    H118372   5.187   3.181   6.156
 6143TIP3    H218373   5.114   3.292   6.229
 6144TIP3   OH218374   4.014   6.139   4.417
 6144TIP3    H118375   4.104   6.120   4.445
 6144TIP3    H218376   4.012   6.113   4.325
 6145TIP3   OH218377   8.220   4.475   4.055
 6145TIP3    H118378   8.140   4.519   4.027
 6145TIP3    H218379   8.290   4.521   4.008
 6146TIP3   OH218380   4.772   6.492   4.951
 6146TIP3    H118381   4.683   6.486   4.916
 6146TIP3    H218382   4.813   6.408   4.928
 6147TIP3   OH218383   2.212   2.152   1.321
 6147TIP3    H118384   2.137   2.093   1.331
 6147TIP3    H218385   2.244   2.135   1.233
 6148TIP3   OH218386   7.075   0.204   6.573
 6148TIP3    H118387   7.128   0.142   6.622
 6148TIP3    H218388   6.986   0.191   6.605
 6149TIP3   OH218389   7.069   3.285   0.085
 6149TIP3    H118390   6.985   3.288   0.040
 6149TIP3    H218391   7.099   3.195   0.074
 6150TIP3   OH218392   3.252   5.082   3.180
 6150TIP3    H118393   3.284   5.160   3.134
 6150TIP3    H218394   3.262   5.011   3.117
 6151TIP3   OH218395   3.928   7.112   0.788
 6151TIP3    H118396   3.837   7.089   0.767
 6151TIP3    H218397   3.966   7.031   0.820
 6152TIP3   OH218398   1.157   0.890   0.772
 6152TIP3    H118399   1.109   0.972   0.782
 6152TIP3    H218400   1.106   0.840   0.708
 6153TIP3   OH218401   6.800   3.730   1.469
 6153TIP3    H118402   6.781   3.817   1.436
 6153TIP3    H218403   6.892   3.733   1.495
 6154TIP3   OH218404   0.163   2.863   1.863
 6154TIP3    H118405   0.094   2.836   1.924
 6154TIP3    H218406   0.175   2.956   1.879
 6155TIP3   OH218407   2.237   2.956   6.266
 6155TIP3    H118408   2.208   2.957   6.358
 6155TIP3    H218409   2.198   3.035   6.228
 6156TIP3   OH218410   7.856   4.021   6.128
 6156TIP3    H118411   7.899   4.081   6.190
 6156TIP3    H218412   7.871   4.060   6.042
 6157TIP3   OH218413   3.664   6.044   0.533
 6157TIP3    H118414   3.598   6.109   0.556
 6157TIP3    H218415   3.747   6.085   0.555
 6158TIP3   OH218416   4.121   1.461   4.558
 6158TIP3    H118417   4.052   1.431   4.618
 6158TIP3    H218418   4.107   1.410   4.478
 6159TIP3   OH218419   3.549   6.794   2.728
 6159TIP3    H118420   3.561   6.722   2.666
 6159TIP3    H218421   3.539   6.751   2.813
 6160TIP3   OH218422   7.352   1.246   3.841
 6160TIP3    H118423   7.292   1.219   3.772
 6160TIP3    H218424   7.341   1.181   3.910
 6161TIP3   OH218425   3.000   5.103   5.504
 6161TIP3    H118426   2.945   5.047   5.450
 6161TIP3    H218427   2.939   5.165   5.544
 6162TIP3   OH218428   6.440   7.013   4.585
 6162TIP3    H118429   6.488   7.088   4.620
 6162TIP3    H218430   6.508   6.956   4.549
 6163TIP3   OH218431   6.688   3.137   3.439
 6163TIP3    H118432   6.625   3.111   3.372
 6163TIP3    H218433   6.649   3.108   3.521
 6164TIP3   OH218434   0.978   0.819   2.810
 6164TIP3    H118435   0.908   0.799   2.873
 6164TIP3    H218436   0.934   0.868   2.740
 6165TIP3   OH218437   2.707   3.466   2.786
 6165TIP3    H118438   2.767   3.437   2.856
 6165TIP3    H218439   2.680   3.386   2.743
 6166TIP3   OH218440   2.730   3.094   6.592
 6166TIP3    H118441   2.676   3.095   6.512
 6166TIP3    H218442   2.775   3.009   6.589
 6167TIP3   OH218443   3.630   7.529   5.545
 6167TIP3    H118444   3.551   7.499   5.590
 6167TIP3    H218445   3.647   7.616   5.583
 6168TIP3   OH218446   2.374   7.828   0.149
 6168TIP3    H118447   2.297   7.785   0.113
 6168TIP3    H218448   2.364   7.820   0.244
 6169TIP3   OH218449   4.372   2.687   2.122
 6169TIP3    H118450   4.301   2.622   2.129
 6169TIP3    H218451   4.419   2.680   2.205
 6170TIP3   OH218452   1.414   0.400   2.941
 6170TIP3    H118453   1.381   0.323   2.895
 6170TIP3    H218454   1.502   0.375   2.970
 6171TIP3   OH218455   6.985   4.716   3.513
 6171TIP3    H118456   6.919   4.660   3.470
 6171TIP3    H218457   6.938   4.797   3.532
 6172TIP3   OH218458   3.432   1.673   2.157
 6172TIP3    H118459   3.463   1.645   2.242
 6172TIP3    H218460   3.472   1.612   2.095
 6173TIP3   OH218461   6.714   1.605   4.494
 6173TIP3    H118462   6.743   1.694   4.473
 6173TIP3    H218463   6.713   1.602   4.590
 6174TIP3   OH218464   1.178   6.162   5.630
 6174TIP3    H118465   1.131   6.245   5.621
 6174TIP3    H218466   1.181   6.126   5.541
 6175TIP3   OH218467   8.160   4.891   0.306
 6175TIP3    H118468   8.066   4.896   0.290
 6175TIP3    H218469   8.187   4.809   0.265
 6176TIP3   OH218470   4.092   3.917   3.618
 6176TIP3    H118471   4.147   3.854   3.571
 6176TIP3    H218472   4.028   3.863   3.664
 6177TIP3   OH218473   4.937   5.128   0.366
 6177TIP3    H118474   5.019   5.079   0.366
 6177TIP3    H218475   4.964   5.219   0.381
 6178TIP3   OH218476   1.370   2.248   4.384
 6178TIP3    H118477   1.430   2.190   4.338
 6178TIP3    H218478   1.421   2.280   4.459
 6179TIP3   OH218479   7.953   2.670   0.688
 6179TIP3    H118480   7.956   2.758   0.651
 6179TIP3    H218481   8.039   2.632   0.668
 6180TIP3   OH218482   7.367   5.451   6.155
 6180TIP3    H118483   7.437   5.514   6.171
 6180TIP3    H218484   7.305   5.464   6.227
 6181TIP3   OH218485   4.555   4.962   5.019
 6181TIP3    H118486   4.467   4.989   4.992
 6181TIP3    H218487   4.593   4.924   4.940
 6182TIP3   OH218488   6.270   2.974   4.990
 6182TIP3    H118489   6.201   2.953   4.927
 6182TIP3    H218490   6.255   2.914   5.063
 6183TIP3   OH218491   0.684   7.444   0.605
 6183TIP3    H118492   0.765   7.395   0.596
 6183TIP3    H218493   0.632   7.417   0.529
 6184TIP3   OH218494   2.935   1.345   1.993
 6184TIP3    H118495   2.860   1.342   1.934
 6184TIP3    H218496   2.908   1.406   2.062
 6185TIP3   OH218497   6.094   4.492   1.337
 6185TIP3    H118498   6.034   4.563   1.314
 6185TIP3    H218499   6.148   4.481   1.259
 6186TIP3   OH218500   2.467   6.433   2.057
 6186TIP3    H118501   2.419   6.504   2.098
 6186TIP3    H218502   2.406   6.396   1.993
 6187TIP3   OH218503   1.556   5.179   0.152
 6187TIP3    H118504   1.506   5.258   0.129
 6187TIP3    H218505   1.647   5.206   0.144
 6188TIP3   OH218506   3.041   6.072   1.163
 6188TIP3    H118507   3.101   6.093   1.235
 6188TIP3    H218508   3.061   6.136   1.095
 6189TIP3   OH218509   7.432   1.488   6.397
 6189TIP3    H118510   7.463   1.572   6.429
 6189TIP3    H218511   7.472   1.423   6.455
 6190TIP3   OH218512   0.254   3.041   5.538
 6190TIP3    H118513   0.162   3.016   5.534
 6190TIP3    H218514   0.295   2.972   5.590
 6191TIP3   OH218515   6.879   2.047   5.165
 6191TIP3    H118516   6.875   2.140   5.143
 6191TIP3    H218517   6.905   2.004   5.084
 6192TIP3   OH218518   3.778   3.978   2.467
 6192TIP3    H118519   3.691   3.943   2.486
 6192TIP3    H218520   3.839   3.911   2.497
 6193TIP3   OH218521   0.465   6.259   2.099
 6193TIP3    H118522   0.398   6.274   2.165
 6193TIP3    H218523   0.509   6.179   2.128
 6194TIP3   OH218524   7.689   6.643   2.498
 6194TIP3    H118525   7.668   6.725   2.543
 6194TIP3    H218526   7.615   6.585   2.517
 6195TIP3   OH218527   0.968   4.209   6.620
 6195TIP3    H118528   0.949   4.288   6.671
 6195TIP3    H218529   0.983   4.141   6.686
 6196TIP3   OH218530   4.938   7.675   5.044
 6196TIP3    H118531   4.951   7.742   5.111
 6196TIP3    H218532   4.951   7.592   5.090
 6197TIP3   OH218533   1.263   6.699   6.436
 6197TIP3    H118534   1.332   6.698   6.501
 6197TIP3    H218535   1.308   6.687   6.352
 6198TIP3   OH218536   5.359   2.286   1.759
 6198TIP3    H118537   5.355   2.250   1.670
 6198TIP3    H218538   5.323   2.217   1.815
 6199TIP3   OH218539   4.866   6.597   0.626
 6199TIP3    H118540   4.950   6.583   0.582
 6199TIP3    H218541   4.801   6.557   0.568
 6200TIP3   OH218542   1.342   5.579   1.200
 6200TIP3    H118543   1.395   5.656   1.220
 6200TIP3    H218544   1.403   5.505   1.211
 6201TIP3   OH218545   3.344   1.482   3.744
 6201TIP3    H118546   3.387   1.406   3.783
 6201TIP3    H218547   3.308   1.530   3.819
 6202TIP3   OH218548   6.141   2.643   6.627
 6202TIP3    H118549   6.068   2.678   6.576
 6202TIP3    H218550   6.205   2.714   6.628
 6203TIP3   OH218551   3.980   5.484   3.766
 6203TIP3    H118552   3.985   5.407   3.711
 6203TIP3    H218553   4.070   5.500   3.794
 6204TIP3   OH218554   7.671   6.962   5.785
 6204TIP3    H118555   7.658   7.028   5.852
 6204TIP3    H218556   7.607   6.894   5.804
 6205TIP3   OH218557   8.148   1.810   5.937
 6205TIP3    H118558   8.117   1.815   5.846
 6205TIP3    H218559   8.106   1.731   5.971
 6206TIP3   OH218560   0.251   4.778   6.239
 6206TIP3    H118561   0.216   4.811   6.322
 6206TIP3    H218562   0.257   4.856   6.183
 6207TIP3   OH218563   2.583   0.874   3.329
 6207TIP3    H118564   2.663   0.888   3.277
 6207TIP3    H218565   2.586   0.942   3.396
 6208TIP3   OH218566   4.891   6.063   5.113
 6208TIP3    H118567   4.876   5.976   5.150
 6208TIP3    H218568   4.981   6.060   5.082
 6209TIP3   OH218569   6.048   4.296   5.944
 6209TIP3    H118570   6.040   4.385   5.910
 6209TIP3    H218571   6.137   4.269   5.923
 6210TIP3   OH218572   7.135   6.889   1.544
 6210TIP3    H118573   7.188   6.907   1.467
 6210TIP3    H218574   7.189   6.831   1.598
 6211TIP3   OH218575   0.518   0.018   5.875
 6211TIP3    H118576   0.577   0.090   5.896
 6211TIP3    H218577   0.503   0.025   5.781
 6212TIP3   OH218578   1.074   7.822   6.670
 6212TIP3    H118579   1.158   7.814   6.717
 6212TIP3    H218580   1.015   7.763   6.717
 6213TIP3   OH218581   0.196   3.927   5.533
 6213TIP3    H118582   0.216   3.939   5.440
 6213TIP3    H218583   0.182   3.833   5.542
 6214TIP3   OH218584   6.077   1.549   3.827
 6214TIP3    H118585   6.034   1.556   3.912
 6214TIP3    H218586   6.170   1.563   3.847
 6215TIP3   OH218587   6.367   2.839   4.257
 6215TIP3    H118588   6.306   2.820   4.328
 6215TIP3    H218589   6.312   2.834   4.178
 6216TIP3   OH218590   7.223   1.367   3.315
 6216TIP3    H118591   7.285   1.306   3.356
 6216TIP3    H218592   7.194   1.322   3.236
 6217TIP3   OH218593   1.000   4.484   6.399
 6217TIP3    H118594   0.918   4.503   6.444
 6217TIP3    H218595   1.052   4.563   6.410
 6218TIP3   OH218596   4.513   6.133   1.588
 6218TIP3    H118597   4.552   6.115   1.674
 6218TIP3    H218598   4.499   6.046   1.550
 6219TIP3   OH218599   4.408   0.068   5.307
 6219TIP3    H118600   4.431   0.082   5.215
 6219TIP3    H218601   4.340   0.133   5.325
 6220TIP3   OH218602   6.017   3.644   0.208
 6220TIP3    H118603   6.095   3.588   0.216
 6220TIP3    H218604   6.008   3.685   0.294
 6221TIP3   OH218605   7.766   4.322   1.991
 6221TIP3    H118606   7.850   4.347   1.952
 6221TIP3    H218607   7.700   4.361   1.934
 6222TIP3   OH218608   7.693   1.815   3.506
 6222TIP3    H118609   7.671   1.896   3.459
 6222TIP3    H218610   7.667   1.745   3.447
 6223TIP3   OH218611   6.916   0.079   2.991
 6223TIP3    H118612   6.927   0.036   3.076
 6223TIP3    H218613   6.875   0.163   3.012
 6224TIP3   OH218614   5.130   6.513   0.547
 6224TIP3    H118615   5.221   6.544   0.543
 6224TIP3    H218616   5.134   6.421   0.519
 6225TIP3   OH218617   0.776   5.815   5.248
 6225TIP3    H118618   0.722   5.852   5.318
 6225TIP3    H218619   0.785   5.722   5.271
 6226TIP3   OH218620   2.036   1.337   2.111
 6226TIP3    H118621   2.108   1.273   2.115
 6226TIP3    H218622   2.075   1.415   2.072
 6227TIP3   OH218623   6.499   0.551   2.616
 6227TIP3    H118624   6.405   0.570   2.610
 6227TIP3    H218625   6.505   0.476   2.675
 6228TIP3   OH218626   4.770   6.966   1.813
 6228TIP3    H118627   4.717   7.018   1.752
 6228TIP3    H218628   4.830   7.030   1.853
 6229TIP3   OH218629   5.031   4.975   2.355
 6229TIP3    H118630   4.941   4.997   2.330
 6229TIP3    H218631   5.048   5.027   2.433
 6230TIP3   OH218632   1.666   3.113   0.127
 6230TIP3    H118633   1.624   3.035   0.091
 6230TIP3    H218634   1.665   3.100   0.221
 6231TIP3   OH218635   3.429   5.844   3.730
 6231TIP3    H118636   3.414   5.752   3.710
 6231TIP3    H218637   3.394   5.856   3.818
 6232TIP3   OH218638   6.279   1.404   6.259
 6232TIP3    H118639   6.281   1.498   6.281
 6232TIP3    H218640   6.340   1.364   6.322
 6233TIP3   OH218641   6.406   4.154   6.681
 6233TIP3    H118642   6.388   4.063   6.658
 6233TIP3    H218643   6.478   4.148   6.745
 6234TIP3   OH218644   4.962   6.979   5.053
 6234TIP3    H118645   5.042   6.944   5.012
 6234TIP3    H218646   4.927   7.041   4.989
 6235TIP3   OH218647   0.465   3.207   5.992
 6235TIP3    H118648   0.387   3.174   5.946
 6235TIP3    H218649   0.514   3.128   6.014
 6236TIP3   OH218650   6.792   0.859   2.244
 6236TIP3    H118651   6.806   0.798   2.316
 6236TIP3    H218652   6.747   0.933   2.284
 6237TIP3   OH218653   0.356   1.587   2.176
 6237TIP3    H118654   0.325   1.530   2.105
 6237TIP3    H218655   0.277   1.632   2.207
 6238TIP3   OH218656   7.726   5.221   0.253
 6238TIP3    H118657   7.807   5.261   0.222
 6238TIP3    H218658   7.698   5.163   0.182
 6239TIP3   OH218659   3.057   6.337   0.262
 6239TIP3    H118660   3.089   6.272   0.200
 6239TIP3    H218661   2.971   6.363   0.228
 6240TIP3   OH218662   0.569   3.323   0.513
 6240TIP3    H118663   0.500   3.276   0.467
 6240TIP3    H218664   0.529   3.346   0.597
 6241TIP3   OH218665   0.199   7.138   3.943
 6241TIP3    H118666   0.188   7.229   3.918
 6241TIP3    H218667   0.111   7.101   3.941
 6242TIP3   OH218668   8.045   5.465   5.134
 6242TIP3    H118669   8.088   5.542   5.172
 6242TIP3    H218670   7.952   5.477   5.154
 6243TIP3   OH218671   2.686   0.542   6.787
 6243TIP3    H118672   2.622   0.471   6.784
 6243TIP3    H218673   2.688   0.575   6.697
 6244TIP3   OH218674   6.716   4.401   5.768
 6244TIP3    H118675   6.810   4.417   5.765
 6244TIP3    H218676   6.704   4.342   5.842
 6245TIP3   OH218677   7.991   2.736   2.230
 6245TIP3    H118678   8.063   2.726   2.294
 6245TIP3    H218679   7.918   2.769   2.282
 6246TIP3   OH218680   4.954   7.414   3.733
 6246TIP3    H118681   4.885   7.449   3.677
 6246TIP3    H218682   5.029   7.403   3.675
 6247TIP3   OH218683   2.625   6.997   1.013
 6247TIP3    H118684   2.541   7.038   1.032
 6247TIP3    H218685   2.621   6.913   1.058
 6248TIP3   OH218686   4.197   4.615   6.663
 6248TIP3    H118687   4.148   4.644   6.740
 6248TIP3    H218688   4.145   4.644   6.588
 6249TIP3   OH218689   0.340   2.418   0.900
 6249TIP3    H118690   0.265   2.473   0.922
 6249TIP3    H218691   0.409   2.446   0.961
 6250TIP3   OH218692   4.553   7.215   1.314
 6250TIP3    H118693   4.609   7.280   1.357
 6250TIP3    H218694   4.470   7.220   1.361
 6251TIP3   OH218695   8.084   3.208   0.234
 6251TIP3    H118696   8.141   3.207   0.311
 6251TIP3    H218697   8.051   3.119   0.226
 6252TIP3   OH218698   4.624   3.566   2.445
 6252TIP3    H118699   4.691   3.584   2.379
 6252TIP3    H218700   4.602   3.652   2.481
 6253TIP3   OH218701   5.308   3.769   5.881
 6253TIP3    H118702   5.320   3.732   5.968
 6253TIP3    H218703   5.244   3.711   5.839
 6254TIP3   OH218704   7.776   4.303   2.301
 6254TIP3    H118705   7.711   4.259   2.247
 6254TIP3    H218706   7.797   4.240   2.370
 6255TIP3   OH218707   2.118   2.808   0.468
 6255TIP3    H118708   2.200   2.854   0.487
 6255TIP3    H218709   2.137   2.758   0.389
 6256TIP3   OH218710   6.860   0.351   1.962
 6256TIP3    H118711   6.904   0.433   1.938
 6256TIP3    H218712   6.801   0.334   1.888
 6257TIP3   OH218713   3.509   2.862   3.996
 6257TIP3    H118714   3.589   2.811   3.982
 6257TIP3    H218715   3.519   2.939   3.941
 6258TIP3   OH218716   1.347   3.951   2.826
 6258TIP3    H118717   1.429   3.902   2.828
 6258TIP3    H218718   1.350   4.006   2.905
 6259TIP3   OH218719   5.173   6.285   1.585
 6259TIP3    H118720   5.141   6.198   1.566
 6259TIP3    H218721   5.095   6.337   1.602
 6260TIP3   OH218722   6.226   0.979   5.243
 6260TIP3    H118723   6.158   1.001   5.179
 6260TIP3    H218724   6.300   1.035   5.220
 6261TIP3   OH218725   2.271   0.410   6.659
 6261TIP3    H118726   2.261   0.460   6.578
 6261TIP3    H218727   2.221   0.330   6.644
 6262TIP3   OH218728   5.950   7.729   5.205
 6262TIP3    H118729   5.880   7.734   5.139
 6262TIP3    H218730   5.995   7.813   5.197
 6263TIP3   OH218731   2.934   3.575   2.675
 6263TIP3    H118732   2.853   3.551   2.721
 6263TIP3    H218733   3.004   3.543   2.732
 6264TIP3   OH218734   2.173   6.190   1.851
 6264TIP3    H118735   2.181   6.286   1.847
 6264TIP3    H218736   2.082   6.175   1.874
 6265TIP3   OH218737   1.630   2.452   6.601
 6265TIP3    H118738   1.555   2.461   6.541
 6265TIP3    H218739   1.662   2.363   6.585
 6266TIP3   OH218740   3.873   3.284   4.087
 6266TIP3    H118741   3.884   3.285   3.992
 6266TIP3    H218742   3.962   3.294   4.121
 6267TIP3   OH218743   6.817   4.193   4.811
 6267TIP3    H118744   6.734   4.167   4.772
 6267TIP3    H218745   6.860   4.245   4.744
 6268TIP3   OH218746   4.796   6.665   3.442
 6268TIP3    H118747   4.886   6.680   3.414
 6268TIP3    H218748   4.766   6.590   3.389
 6269TIP3   OH218749   2.070   4.473   5.102
 6269TIP3    H118750   2.145   4.513   5.057
 6269TIP3    H218751   2.095   4.381   5.114
 6270TIP3   OH218752   1.482   5.107   6.688
 6270TIP3    H118753   1.428   5.091   6.610
 6270TIP3    H218754   1.430   5.072   6.760
 6271TIP3   OH218755   3.091   1.604   0.511
 6271TIP3    H118756   3.171   1.641   0.550
 6271TIP3    H218757   3.021   1.629   0.572
 6272TIP3   OH218758   6.676   0.253   5.812
 6272TIP3    H118759   6.660   0.281   5.902
 6272TIP3    H218760   6.613   0.182   5.798
 6273TIP3   OH218761   5.794   1.800   5.360
 6273TIP3    H118762   5.707   1.818   5.326
 6273TIP3    H218763   5.794   1.706   5.377
 6274TIP3   OH218764   5.909   2.798   3.046
 6274TIP3    H118765   5.878   2.712   3.075
 6274TIP3    H218766   5.931   2.844   3.127
 6275TIP3   OH218767   6.478   3.790   1.437
 6275TIP3    H118768   6.469   3.856   1.368
 6275TIP3    H218769   6.570   3.764   1.434
 6276TIP3   OH218770   8.071   4.388   6.210
 6276TIP3    H118771   8.044   4.470   6.170
 6276TIP3    H218772   8.156   4.407   6.250
 6277TIP3   OH218773   0.708   7.126   6.633
 6277TIP3    H118774   0.691   7.212   6.671
 6277TIP3    H218775   0.691   7.137   6.540
 6278TIP3   OH218776   2.238   0.548   0.679
 6278TIP3    H118777   2.289   0.549   0.598
 6278TIP3    H218778   2.291   0.495   0.739
 6279TIP3   OH218779   4.110   5.081   3.285
 6279TIP3    H118780   4.137   5.047   3.370
 6279TIP3    H218781   4.087   5.173   3.303
 6280TIP3   OH218782   4.712   2.411   2.665
 6280TIP3    H118783   4.678   2.406   2.576
 6280TIP3    H218784   4.700   2.503   2.690
 6281TIP3   OH218785   4.219   7.515   0.398
 6281TIP3    H118786   4.245   7.550   0.313
 6281TIP3    H218787   4.123   7.513   0.395
 6282TIP3   OH218788   3.073   5.255   3.720
 6282TIP3    H118789   3.066   5.292   3.807
 6282TIP3    H218790   3.066   5.160   3.733
 6283TIP3   OH218791   0.150   0.177   1.653
 6283TIP3    H118792   0.160   0.083   1.662
 6283TIP3    H218793   0.201   0.199   1.575
 6284TIP3   OH218794   3.696   1.549   0.848
 6284TIP3    H118795   3.753   1.472   0.841
 6284TIP3    H218796   3.607   1.512   0.848
 6285TIP3   OH218797   4.716   2.206   0.158
 6285TIP3    H118798   4.639   2.238   0.111
 6285TIP3    H218799   4.755   2.285   0.196
 6286TIP3   OH218800   3.058   3.961   1.252
 6286TIP3    H118801   3.000   3.890   1.224
 6286TIP3    H218802   3.031   3.981   1.341
 6287TIP3   OH218803   5.229   7.782   2.015
 6287TIP3    H118804   5.146   7.801   1.972
 6287TIP3    H218805   5.214   7.803   2.107
 6288TIP3   OH218806   0.406   5.719   0.324
 6288TIP3    H118807   0.338   5.705   0.258
 6288TIP3    H218808   0.459   5.791   0.290
 6289TIP3   OH218809   0.538   2.464   1.107
 6289TIP3    H118810   0.621   2.501   1.075
 6289TIP3    H218811   0.551   2.452   1.201
 6290TIP3   OH218812   1.311   2.339   6.132
 6290TIP3    H118813   1.286   2.296   6.051
 6290TIP3    H218814   1.376   2.404   6.106
 6291TIP3   OH218815   0.384   7.654   2.304
 6291TIP3    H118816   0.474   7.686   2.296
 6291TIP3    H218817   0.368   7.608   2.221
 6292TIP3   OH218818   3.620   1.057   0.943
 6292TIP3    H118819   3.693   0.996   0.936
 6292TIP3    H218820   3.558   1.028   0.876
 6293TIP3   OH218821   2.510   3.950   1.261
 6293TIP3    H118822   2.507   4.041   1.288
 6293TIP3    H218823   2.512   3.900   1.343
 6294TIP3   OH218824   3.119   2.762   5.869
 6294TIP3    H118825   3.032   2.782   5.834
 6294TIP3    H218826   3.178   2.823   5.823
 6295TIP3   OH218827   0.162   3.839   3.440
 6295TIP3    H118828   0.241   3.804   3.480
 6295TIP3    H218829   0.091   3.785   3.476
 6296TIP3   OH218830   5.954   7.695   3.006
 6296TIP3    H118831   5.932   7.760   3.073
 6296TIP3    H218832   5.966   7.613   3.053
 6297TIP3   OH218833   0.472   6.584   2.115
 6297TIP3    H118834   0.525   6.529   2.173
 6297TIP3    H218835   0.434   6.650   2.173
 6298TIP3   OH218836   7.540   7.345   2.683
 6298TIP3    H118837   7.605   7.415   2.669
 6298TIP3    H218838   7.545   7.292   2.604
 6299TIP3   OH218839   0.060   4.493   6.771
 6299TIP3    H118840  -0.009   4.518   6.709
 6299TIP3    H218841   0.024   4.419   6.820
 6300TIP3   OH218842   2.458   6.842   0.483
 6300TIP3    H118843   2.518   6.894   0.536
 6300TIP3    H218844   2.378   6.895   0.479
 6301TIP3   OH218845   1.032   5.464   2.486
 6301TIP3    H118846   1.123   5.456   2.516
 6301TIP3    H218847   1.026   5.407   2.410
 6302TIP3   OH218848   4.794   3.733   1.537
 6302TIP3    H118849   4.792   3.641   1.563
 6302TIP3    H218850   4.873   3.741   1.483
 6303TIP3   OH218851   0.736   4.388   5.730
 6303TIP3    H118852   0.828   4.365   5.741
 6303TIP3    H218853   0.737   4.465   5.674
 6304TIP3   OH218854   6.445   7.676   0.212
 6304TIP3    H118855   6.515   7.710   0.268
 6304TIP3    H218856   6.430   7.587   0.243
 6305TIP3   OH218857   1.711   6.961   6.586
 6305TIP3    H118858   1.793   6.915   6.571
 6305TIP3    H218859   1.702   6.963   6.682
 6306TIP3   OH218860   6.503   6.850   3.743
 6306TIP3    H118861   6.481   6.882   3.831
 6306TIP3    H218862   6.420   6.854   3.695
 6307TIP3   OH218863   1.687   0.830   1.780
 6307TIP3    H118864   1.630   0.854   1.854
 6307TIP3    H218865   1.774   0.819   1.819
 6308TIP3   OH218866   1.179   4.303   4.451
 6308TIP3    H118867   1.110   4.238   4.436
 6308TIP3    H218868   1.132   4.380   4.483
 6309TIP3   OH218869   5.140   1.276   2.581
 6309TIP3    H118870   5.113   1.185   2.572
 6309TIP3    H218871   5.226   1.273   2.623
 6310TIP3   OH218872   5.398   7.115   4.930
 6310TIP3    H118873   5.456   7.041   4.950
 6310TIP3    H218874   5.455   7.178   4.885
 6311TIP3   OH218875   4.354   3.025   1.802
 6311TIP3    H118876   4.378   2.944   1.757
 6311TIP3    H218877   4.345   3.001   1.894
 6312TIP3   OH218878   4.512   0.990   1.968
 6312TIP3    H118879   4.590   0.985   1.912
 6312TIP3    H218880   4.474   0.902   1.963
 6313TIP3   OH218881   2.103   7.591   6.398
 6313TIP3    H118882   2.158   7.565   6.472
 6313TIP3    H218883   2.014   7.592   6.434
 6314TIP3   OH218884   5.998   0.293   0.249
 6314TIP3    H118885   6.038   0.209   0.270
 6314TIP3    H218886   5.904   0.274   0.243
 6315TIP3   OH218887   4.536   2.564   5.857
 6315TIP3    H118888   4.496   2.616   5.787
 6315TIP3    H218889   4.467   2.555   5.923
 6316TIP3   OH218890   1.577   2.814   1.415
 6316TIP3    H118891   1.630   2.734   1.418
 6316TIP3    H218892   1.548   2.827   1.506
 6317TIP3   OH218893   7.677   7.448   1.587
 6317TIP3    H118894   7.694   7.496   1.668
 6317TIP3    H218895   7.758   7.456   1.537
 6318TIP3   OH218896   4.417   4.384   2.310
 6318TIP3    H118897   4.364   4.457   2.279
 6318TIP3    H218898   4.506   4.419   2.314
 6319TIP3   OH218899   3.446   6.164   5.542
 6319TIP3    H118900   3.419   6.223   5.613
 6319TIP3    H218901   3.367   6.152   5.490
 6320TIP3   OH218902   5.209   7.387   4.711
 6320TIP3    H118903   5.190   7.467   4.761
 6320TIP3    H218904   5.304   7.381   4.711
 6321TIP3   OH218905   6.979   3.895   3.574
 6321TIP3    H118906   7.036   3.821   3.558
 6321TIP3    H218907   6.971   3.900   3.669
 6322TIP3   OH218908   4.156   1.540   3.139
 6322TIP3    H118909   4.178   1.466   3.196
 6322TIP3    H218910   4.238   1.560   3.092
 6323TIP3   OH218911   2.069   4.888   0.604
 6323TIP3    H118912   2.144   4.828   0.608
 6323TIP3    H218913   1.998   4.833   0.570
 6324TIP3   OH218914   0.734   4.827   3.536
 6324TIP3    H118915   0.720   4.799   3.626
 6324TIP3    H218916   0.794   4.762   3.500
 6325TIP3   OH218917   2.517   7.704   3.980
 6325TIP3    H118918   2.476   7.789   3.990
 6325TIP3    H218919   2.594   7.720   3.925
 6326TIP3   OH218920   0.069   7.373   4.750
 6326TIP3    H118921   0.033   7.314   4.684
 6326TIP3    H218922   0.081   7.456   4.704
 6327TIP3   OH218923   7.760   1.650   2.046
 6327TIP3    H118924   7.730   1.674   1.958
 6327TIP3    H218925   7.848   1.687   2.052
 6328TIP3   OH218926   1.787   7.366   2.126
 6328TIP3    H118927   1.851   7.418   2.078
 6328TIP3    H218928   1.763   7.419   2.202
 6329TIP3   OH218929   5.548   2.280   3.142
 6329TIP3    H118930   5.478   2.220   3.164
 6329TIP3    H218931   5.505   2.350   3.093
 6330TIP3   OH218932   2.032   1.217   5.593
 6330TIP3    H118933   2.084   1.266   5.656
 6330TIP3    H218934   2.095   1.158   5.551
 6331TIP3   OH218935   6.778   2.742   2.911
 6331TIP3    H118936   6.742   2.677   2.971
 6331TIP3    H218937   6.701   2.782   2.870
 6332TIP3   OH218938   1.953   1.046   0.897
 6332TIP3    H118939   1.995   0.968   0.931
 6332TIP3    H218940   1.878   1.014   0.847
 6333TIP3   OH218941   4.097   4.680   1.871
 6333TIP3    H118942   4.125   4.646   1.786
 6333TIP3    H218943   4.003   4.697   1.860
 6334TIP3   OH218944   1.433   3.637   1.433
 6334TIP3    H118945   1.484   3.715   1.410
 6334TIP3    H218946   1.498   3.567   1.442
 6335TIP3   OH218947   8.103   7.666   0.305
 6335TIP3    H118948   8.047   7.593   0.277
 6335TIP3    H218949   8.191   7.631   0.303
 6336TIP3   OH218950   2.469   4.829   3.270
 6336TIP3    H118951   2.457   4.864   3.359
 6336TIP3    H218952   2.465   4.734   3.281
 6337TIP3   OH218953   5.349   7.800   1.273
 6337TIP3    H118954   5.334   7.710   1.303
 6337TIP3    H218955   5.363   7.849   1.354
 6338TIP3   OH218956   7.749   0.056   3.221
 6338TIP3    H118957   7.775   0.038   3.130
 6338TIP3    H218958   7.716  -0.027   3.254
 6339TIP3   OH218959   0.683   4.155   5.515
 6339TIP3    H118960   0.590   4.153   5.538
 6339TIP3    H218961   0.717   4.232   5.559
 6340TIP3   OH218962   7.690   2.856   5.546
 6340TIP3    H118963   7.699   2.870   5.640
 6340TIP3    H218964   7.761   2.907   5.508
 6341TIP3   OH218965   5.805   4.166   5.390
 6341TIP3    H118966   5.742   4.233   5.416
 6341TIP3    H218967   5.752   4.096   5.352
 6342TIP3   OH218968   5.353   4.204   1.149
 6342TIP3    H118969   5.263   4.197   1.116
 6342TIP3    H218970   5.370   4.119   1.189
 6343TIP3   OH218971   7.546   5.626   6.263
 6343TIP3    H118972   7.545   5.721   6.255
 6343TIP3    H218973   7.528   5.609   6.356
 6344TIP3   OH218974   3.186   5.922   5.174
 6344TIP3    H118975   3.179   5.964   5.088
 6344TIP3    H218976   3.218   5.834   5.155
 6345TIP3   OH218977   2.187   1.343   5.805
 6345TIP3    H118978   2.226   1.429   5.787
 6345TIP3    H218979   2.254   1.297   5.857
 6346TIP3   OH218980   1.095   0.299   1.754
 6346TIP3    H118981   1.112   0.393   1.750
 6346TIP3    H218982   1.182   0.259   1.756
 6347TIP3   OH218983   1.438   4.238   2.363
 6347TIP3    H118984   1.474   4.162   2.317
 6347TIP3    H218985   1.490   4.312   2.332
 6348TIP3   OH218986   2.629   5.169   1.299
 6348TIP3    H118987   2.638   5.250   1.350
 6348TIP3    H218988   2.584   5.108   1.357
 6349TIP3   OH218989   3.187   3.143   1.101
 6349TIP3    H118990   3.250   3.210   1.073
 6349TIP3    H218991   3.233   3.095   1.170
 6350TIP3   OH218992   6.198   5.363   4.796
 6350TIP3    H118993   6.114   5.392   4.761
 6350TIP3    H218994   6.218   5.281   4.750
 6351TIP3   OH218995   0.210   3.973   4.050
 6351TIP3    H118996   0.174   4.056   4.081
 6351TIP3    H218997   0.267   3.943   4.120
 6352TIP3   OH218998   1.309   1.854   5.075
 6352TIP3    H118999   1.318   1.779   5.016
 6352TIP3    H219000   1.223   1.890   5.055
 6353TIP3   OH219001   7.648   2.022   6.449
 6353TIP3    H119002   7.720   2.077   6.478
 6353TIP3    H219003   7.664   2.009   6.355
 6354TIP3   OH219004   6.796   1.068   5.711
 6354TIP3    H119005   6.718   1.123   5.713
 6354TIP3    H219006   6.843   1.091   5.791
 6355TIP3   OH219007   8.181   2.706   3.092
 6355TIP3    H119008   8.174   2.777   3.156
 6355TIP3    H219009   8.202   2.751   3.010
 6356TIP3   OH219010   2.103   6.879   1.175
 6356TIP3    H119011   2.078   6.971   1.172
 6356TIP3    H219012   2.021   6.831   1.162
 6357TIP3   OH219013   4.993   3.430   2.037
 6357TIP3    H119014   5.083   3.400   2.025
 6357TIP3    H219015   4.968   3.398   2.124
 6358TIP3   OH219016   4.631   6.731   1.885
 6358TIP3    H119017   4.548   6.769   1.855
 6358TIP3    H219018   4.694   6.803   1.879
 6359TIP3   OH219019   7.886   3.231   1.351
 6359TIP3    H119020   7.804   3.241   1.303
 6359TIP3    H219021   7.860   3.193   1.435
 6360TIP3   OH219022   1.523   2.046   1.390
 6360TIP3    H119023   1.493   2.054   1.481
 6360TIP3    H219024   1.465   1.980   1.352
 6361TIP3   OH219025   5.818   3.310   2.914
 6361TIP3    H119026   5.819   3.405   2.903
 6361TIP3    H219027   5.904   3.281   2.883
 6362TIP3   OH219028   2.475   2.406   2.879
 6362TIP3    H119029   2.532   2.369   2.813
 6362TIP3    H219030   2.452   2.492   2.846
 6363TIP3   OH219031   7.204   3.072   2.981
 6363TIP3    H119032   7.149   3.150   2.985
 6363TIP3    H219033   7.150   3.006   2.939
 6364TIP3   OH219034   6.643   2.435   3.609
 6364TIP3    H119035   6.582   2.389   3.667
 6364TIP3    H219036   6.729   2.420   3.647
 6365TIP3   OH219037   4.253   2.770   6.263
 6365TIP3    H119038   4.309   2.825   6.209
 6365TIP3    H219039   4.309   2.741   6.336
 6366TIP3   OH219040   7.244   7.148   2.347
 6366TIP3    H119041   7.248   7.220   2.284
 6366TIP3    H219042   7.174   7.173   2.408
 6367TIP3   OH219043   3.539   4.158   3.822
 6367TIP3    H119044   3.589   4.136   3.901
 6367TIP3    H219045   3.452   4.181   3.855
 6368TIP3   OH219046   0.794   6.623   1.677
 6368TIP3    H119047   0.856   6.695   1.677
 6368TIP3    H219048   0.843   6.549   1.640
 6369TIP3   OH219049   3.920   3.793   6.555
 6369TIP3    H119050   3.971   3.809   6.476
 6369TIP3    H219051   3.885   3.704   6.544
 6370TIP3   OH219052   2.445   0.830   5.691
 6370TIP3    H119053   2.461   0.924   5.685
 6370TIP3    H219054   2.471   0.796   5.605
 6371TIP3   OH219055   1.198   4.547   5.756
 6371TIP3    H119056   1.107   4.564   5.734
 6371TIP3    H219057   1.246   4.562   5.674
 6372TIP3   OH219058   1.085   0.516   4.212
 6372TIP3    H119059   1.050   0.564   4.137
 6372TIP3    H219060   1.157   0.464   4.175
 6373TIP3   OH219061   5.958   3.663   4.408
 6373TIP3    H119062   6.029   3.657   4.472
 6373TIP3    H219063   5.986   3.732   4.348
 6374TIP3   OH219064   0.263   3.800   6.165
 6374TIP3    H119065   0.225   3.713   6.156
 6374TIP3    H219066   0.232   3.830   6.250
 6375TIP3   OH219067   0.328   4.457   6.201
 6375TIP3    H119068   0.410   4.409   6.191
 6375TIP3    H219069   0.310   4.492   6.113
 6376TIP3   OH219070   1.376   0.181   5.912
 6376TIP3    H119071   1.467   0.192   5.882
 6376TIP3    H219072   1.323   0.222   5.844
 6377TIP3   OH219073   4.506   7.222   5.823
 6377TIP3    H119074   4.551   7.181   5.749
 6377TIP3    H219075   4.499   7.153   5.888
 6378TIP3   OH219076   5.849   0.797   2.300
 6378TIP3    H119077   5.847   0.880   2.348
 6378TIP3    H219078   5.937   0.792   2.262
 6379TIP3   OH219079   7.155   0.903   0.684
 6379TIP3    H119080   7.143   0.943   0.598
 6379TIP3    H219081   7.198   0.971   0.736
 6380TIP3   OH219082   1.637   3.395   6.285
 6380TIP3    H119083   1.733   3.388   6.288
 6380TIP3    H219084   1.612   3.344   6.207
 6381TIP3   OH219085   6.399   3.190   4.850
 6381TIP3    H119086   6.494   3.177   4.857
 6381TIP3    H219087   6.361   3.123   4.908
 6382TIP3   OH219088   6.322   1.119   0.910
 6382TIP3    H119089   6.264   1.171   0.853
 6382TIP3    H219090   6.370   1.184   0.961
 6383TIP3   OH219091   3.679   5.730   1.937
 6383TIP3    H119092   3.760   5.780   1.939
 6383TIP3    H219093   3.684   5.679   1.855
 6384TIP3   OH219094   8.263   7.750  -0.001
 6384TIP3    H119095   8.323   7.764   0.072
 6384TIP3    H219096   8.180   7.786   0.029
 6385TIP3   OH219097   1.871   4.486   3.334
 6385TIP3    H119098   1.832   4.531   3.259
 6385TIP3    H219099   1.941   4.545   3.363
 6386TIP3   OH219100   5.110   1.522   1.900
 6386TIP3    H119101   5.159   1.478   1.969
 6386TIP3    H219102   5.173   1.584   1.862
 6387TIP3   OH219103   0.921   2.474   1.968
 6387TIP3    H119104   0.963   2.501   2.050
 6387TIP3    H219105   0.836   2.520   1.970
 6388TIP3   OH219106   4.407   7.683   5.536
 6388TIP3    H119107   4.471   7.615   5.513
 6388TIP3    H219108   4.369   7.709   5.452
 6389TIP3   OH219109   0.347   4.147   5.818
 6389TIP3    H119110   0.308   4.074   5.770
 6389TIP3    H219111   0.348   4.117   5.909
 6390TIP3   OH219112   8.202   4.981   2.133
 6390TIP3    H119113   8.151   4.979   2.214
 6390TIP3    H219114   8.218   5.074   2.117
 6391TIP3   OH219115   0.529   0.114   1.134
 6391TIP3    H119116   0.608   0.069   1.163
 6391TIP3    H219117   0.555   0.206   1.126
 6392TIP3   OH219118   2.280   3.532   0.098
 6392TIP3    H119119   2.304   3.622   0.118
 6392TIP3    H219120   2.329   3.511   0.019
 6393TIP3   OH219121   3.049   6.659   0.129
 6393TIP3    H119122   3.002   6.729   0.085
 6393TIP3    H219123   2.989   6.584   0.126
 6394TIP3   OH219124   5.462   3.726   1.956
 6394TIP3    H119125   5.400   3.771   2.014
 6394TIP3    H219126   5.527   3.688   2.015
 6395TIP3   OH219127   3.206   6.201   0.887
 6395TIP3    H119128   3.159   6.124   0.852
 6395TIP3    H219129   3.205   6.264   0.816
 6396TIP3   OH219130   0.709   4.894   1.247
 6396TIP3    H119131   0.667   4.980   1.239
 6396TIP3    H219132   0.789   4.902   1.196
 6397TIP3   OH219133   0.741   1.735   2.317
 6397TIP3    H119134   0.813   1.680   2.286
 6397TIP3    H219135   0.665   1.677   2.318
 6398TIP3   OH219136   3.873   1.941   2.551
 6398TIP3    H119137   3.891   1.859   2.596
 6398TIP3    H219138   3.892   2.009   2.615
 6399TIP3   OH219139   6.740   0.313   2.253
 6399TIP3    H119140   6.779   0.370   2.186
 6399TIP3    H219141   6.764   0.355   2.336
 6400TIP3   OH219142   5.480   3.644   2.950
 6400TIP3    H119143   5.461   3.638   3.043
 6400TIP3    H219144   5.420   3.580   2.910
 6401TIP3   OH219145   4.869   0.951   0.041
 6401TIP3    H119146   4.880   1.017   0.109
 6401TIP3    H219147   4.946   0.961  -0.015
 6402TIP3   OH219148   4.378   4.684   5.042
 6402TIP3    H119149   4.413   4.603   5.078
 6402TIP3    H219150   4.455   4.736   5.019
 6403TIP3   OH219151   0.725   3.626   2.268
 6403TIP3    H119152   0.662   3.583   2.326
 6403TIP3    H219153   0.672   3.661   2.196
 6404TIP3   OH219154   5.372   1.232   5.310
 6404TIP3    H119155   5.442   1.185   5.266
 6404TIP3    H219156   5.309   1.165   5.336
 6405TIP3   OH219157   2.063   4.203   4.320
 6405TIP3    H119158   2.110   4.186   4.238
 6405TIP3    H219159   2.088   4.292   4.343
 6406TIP3   OH219160   7.643   0.002   4.629
 6406TIP3    H119161   7.686  -0.082   4.647
 6406TIP3    H219162   7.711   0.067   4.644
 6407TIP3   OH219163   7.207   0.247   2.735
 6407TIP3    H119164   7.190   0.220   2.825
 6407TIP3    H219165   7.184   0.339   2.732
 6408TIP3   OH219166   1.443   2.958   2.586
 6408TIP3    H119167   1.530   2.990   2.562
 6408TIP3    H219168   1.455   2.919   2.673
 6409TIP3   OH219169   4.153   6.586   4.500
 6409TIP3    H119170   4.127   6.615   4.412
 6409TIP3    H219171   4.202   6.659   4.536
 6410TIP3   OH219172   1.570   7.512   0.599
 6410TIP3    H119173   1.647   7.540   0.550
 6410TIP3    H219174   1.512   7.588   0.598
 6411TIP3   OH219175   3.029   7.086   2.885
 6411TIP3    H119176   3.110   7.049   2.920
 6411TIP3    H219177   3.023   7.050   2.796
 6412TIP3   OH219178   1.220   0.862   1.596
 6412TIP3    H119179   1.225   0.918   1.519
 6412TIP3    H219180   1.247   0.919   1.669
 6413TIP3   OH219181   5.656   4.289   6.131
 6413TIP3    H119182   5.678   4.379   6.105
 6413TIP3    H219183   5.658   4.290   6.226
 6414TIP3   OH219184   3.139   6.967   2.111
 6414TIP3    H119185   3.226   6.983   2.074
 6414TIP3    H219186   3.142   6.876   2.141
 6415TIP3   OH219187   6.855   3.311   3.734
 6415TIP3    H119188   6.916   3.321   3.807
 6415TIP3    H219189   6.910   3.284   3.660
 6416TIP3   OH219190   1.569   2.961   3.895
 6416TIP3    H119191   1.578   2.976   3.989
 6416TIP3    H219192   1.659   2.957   3.863
 6417TIP3   OH219193   1.477   0.701   5.295
 6417TIP3    H119194   1.545   0.651   5.250
 6417TIP3    H219195   1.419   0.731   5.225
 6418TIP3   OH219196   1.535   3.903   3.764
 6418TIP3    H119197   1.551   3.845   3.690
 6418TIP3    H219198   1.459   3.956   3.738
 6419TIP3   OH219199   3.871   2.084   2.837
 6419TIP3    H119200   3.924   2.090   2.917
 6419TIP3    H219201   3.829   2.170   2.830
 6420TIP3   OH219202   6.869   2.066   1.510
 6420TIP3    H119203   6.830   2.149   1.539
 6420TIP3    H219204   6.954   2.092   1.473
 6421TIP3   OH219205   6.543   1.651   0.691
 6421TIP3    H119206   6.543   1.703   0.771
 6421TIP3    H219207   6.619   1.681   0.642
 6422TIP3   OH219208   6.811   3.174   4.616
 6422TIP3    H119209   6.743   3.165   4.682
 6422TIP3    H219210   6.810   3.267   4.592
 6423TIP3   OH219211   7.880   1.305   2.985
 6423TIP3    H119212   7.850   1.395   2.972
 6423TIP3    H219213   7.966   1.303   2.944
 6424TIP3   OH219214   2.336   7.062   4.999
 6424TIP3    H119215   2.241   7.069   5.009
 6424TIP3    H219216   2.371   7.126   5.062
 6425TIP3   OH219217   1.296   5.471   2.490
 6425TIP3    H119218   1.371   5.463   2.549
 6425TIP3    H219219   1.309   5.402   2.425
 6426TIP3   OH219220   5.623   6.510   1.197
 6426TIP3    H119221   5.701   6.474   1.238
 6426TIP3    H219222   5.610   6.457   1.118
 6427TIP3   OH219223   4.005   2.428   4.099
 6427TIP3    H119224   3.990   2.349   4.151
 6427TIP3    H219225   4.069   2.401   4.033
 6428TIP3   OH219226   0.264   2.276   6.497
 6428TIP3    H119227   0.320   2.278   6.419
 6428TIP3    H219228   0.216   2.359   6.494
 6429TIP3   OH219229   0.328   0.008   4.672
 6429TIP3    H119230   0.418  -0.023   4.676
 6429TIP3    H219231   0.335   0.099   4.642
 6430TIP3   OH219232   6.272   2.736   3.316
 6430TIP3    H119233   6.319   2.812   3.351
 6430TIP3    H219234   6.330   2.662   3.334
 6431TIP3   OH219235   3.780   1.073   2.565
 6431TIP3    H119236   3.685   1.082   2.554
 6431TIP3    H219237   3.800   1.130   2.640
 6432TIP3   OH219238   2.960   6.705   5.850
 6432TIP3    H119239   3.012   6.660   5.916
 6432TIP3    H219240   2.945   6.792   5.886
 6433TIP3   OH219241   4.587   6.177   3.373
 6433TIP3    H119242   4.495   6.164   3.396
 6433TIP3    H219243   4.624   6.225   3.447
 6434TIP3   OH219244   1.222   7.014   5.091
 6434TIP3    H119245   1.264   7.090   5.134
 6434TIP3    H219246   1.142   7.000   5.141
 6435TIP3   OH219247   3.149   1.154   4.788
 6435TIP3    H119248   3.120   1.130   4.700
 6435TIP3    H219249   3.101   1.235   4.808
 6436TIP3   OH219250   3.581   3.016   5.903
 6436TIP3    H119251   3.640   2.943   5.917
 6436TIP3    H219252   3.600   3.077   5.973
 6437TIP3   OH219253   7.432   5.844   1.681
 6437TIP3    H119254   7.397   5.870   1.767
 6437TIP3    H219255   7.466   5.925   1.643
 6438TIP3   OH219256   4.384   2.624   1.542
 6438TIP3    H119257   4.308   2.622   1.484
 6438TIP3    H219258   4.413   2.715   1.541
 6439TIP3   OH219259   5.590   7.153   3.046
 6439TIP3    H119260   5.618   7.233   3.001
 6439TIP3    H219261   5.626   7.161   3.134
 6440TIP3   OH219262   5.528   5.811   4.417
 6440TIP3    H119263   5.480   5.869   4.358
 6440TIP3    H219264   5.461   5.751   4.452
 6441TIP3   OH219265   3.964   3.171   6.188
 6441TIP3    H119266   4.049   3.216   6.185
 6441TIP3    H219267   3.906   3.229   6.139
 6442TIP3   OH219268   5.763   7.716   3.290
 6442TIP3    H119269   5.672   7.732   3.266
 6442TIP3    H219270   5.803   7.803   3.290
 6443TIP3   OH219271   6.448   6.740   1.024
 6443TIP3    H119272   6.362   6.739   0.983
 6443TIP3    H219273   6.458   6.652   1.062
 6444TIP3   OH219274   3.194   7.199   5.279
 6444TIP3    H119275   3.115   7.146   5.269
 6444TIP3    H219276   3.263   7.147   5.239
 6445TIP3   OH219277   5.782   7.056   5.860
 6445TIP3    H119278   5.777   7.140   5.906
 6445TIP3    H219279   5.834   7.000   5.917
 6446TIP3   OH219280   5.232   5.869   3.634
 6446TIP3    H119281   5.199   5.954   3.602
 6446TIP3    H219282   5.256   5.822   3.554
 6447TIP3   OH219283   5.887   1.297   3.255
 6447TIP3    H119284   5.944   1.371   3.277
 6447TIP3    H219285   5.943   1.220   3.265
 6448TIP3   OH219286   3.893   0.378   2.583
 6448TIP3    H119287   3.938   0.462   2.585
 6448TIP3    H219288   3.850   0.371   2.668
 6449TIP3   OH219289   1.377   5.660   6.544
 6449TIP3    H119290   1.378   5.733   6.607
 6449TIP3    H219291   1.452   5.677   6.488
 6450TIP3   OH219292   1.318   7.645   6.449
 6450TIP3    H119293   1.274   7.570   6.489
 6450TIP3    H219294   1.398   7.656   6.501
 6451TIP3   OH219295   6.323   4.291   5.813
 6451TIP3    H119296   6.376   4.213   5.797
 6451TIP3    H219297   6.387   4.361   5.825
 6452TIP3   OH219298   3.543   6.371   6.136
 6452TIP3    H119299   3.586   6.289   6.111
 6452TIP3    H219300   3.616   6.431   6.155
 6453TIP3   OH219301   2.599   2.161   3.245
 6453TIP3    H119302   2.607   2.248   3.207
 6453TIP3    H219303   2.518   2.126   3.207
 6454TIP3   OH219304   2.785   6.238   6.517
 6454TIP3    H119305   2.807   6.329   6.537
 6454TIP3    H219306   2.787   6.233   6.421
 6455TIP3   OH219307   4.811   2.156   3.577
 6455TIP3    H119308   4.786   2.097   3.506
 6455TIP3    H219309   4.822   2.241   3.534
 6456TIP3   OH219310   0.757   2.981   4.162
 6456TIP3    H119311   0.753   2.927   4.083
 6456TIP3    H219312   0.670   3.021   4.169
 6457TIP3   OH219313   6.463   2.323   0.697
 6457TIP3    H119314   6.514   2.256   0.743
 6457TIP3    H219315   6.519   2.350   0.624
 6458TIP3   OH219316   6.092   1.690   5.249
 6458TIP3    H119317   6.180   1.724   5.263
 6458TIP3    H219318   6.046   1.708   5.331
 6459TIP3   OH219319   7.424   0.834   6.490
 6459TIP3    H119320   7.489   0.813   6.558
 6459TIP3    H219321   7.363   0.894   6.533
 6460TIP3   OH219322   3.221   7.034   6.353
 6460TIP3    H119323   3.312   7.048   6.330
 6460TIP3    H219324   3.203   7.099   6.422
 6461TIP3   OH219325   5.488   5.133   0.985
 6461TIP3    H119326   5.546   5.204   0.957
 6461TIP3    H219327   5.520   5.107   1.071
 6462TIP3   OH219328   1.982   4.311   1.583
 6462TIP3    H119329   2.013   4.389   1.537
 6462TIP3    H219330   1.946   4.254   1.515
 6463TIP3   OH219331   4.438   2.961   0.649
 6463TIP3    H119332   4.453   2.870   0.624
 6463TIP3    H219333   4.510   2.982   0.709
 6464TIP3   OH219334   6.083   2.862   1.587
 6464TIP3    H119335   6.169   2.830   1.559
 6464TIP3    H219336   6.072   2.826   1.675
 6465TIP3   OH219337   2.587   5.703   3.756
 6465TIP3    H119338   2.599   5.789   3.717
 6465TIP3    H219339   2.666   5.689   3.807
 6466TIP3   OH219340   7.790   2.980   6.154
 6466TIP3    H119341   7.803   3.012   6.243
 6466TIP3    H219342   7.851   3.030   6.101
 6467TIP3   OH219343   1.645   0.826   2.525
 6467TIP3    H119344   1.562   0.872   2.518
 6467TIP3    H219345   1.709   0.886   2.484
 6468TIP3   OH219346   5.365   4.444   6.665
 6468TIP3    H119347   5.304   4.517   6.670
 6468TIP3    H219348   5.392   4.429   6.755
 6469TIP3   OH219349   2.585   6.529   0.909
 6469TIP3    H119350   2.581   6.467   0.836
 6469TIP3    H219351   2.557   6.613   0.870
 6470TIP3   OH219352   6.301   5.416   3.125
 6470TIP3    H119353   6.319   5.352   3.056
 6470TIP3    H219354   6.264   5.364   3.196
 6471TIP3   OH219355   0.154   3.267   2.598
 6471TIP3    H119356   0.104   3.228   2.670
 6471TIP3    H219357   0.101   3.249   2.520
 6472TIP3   OH219358   7.030   1.204   2.418
 6472TIP3    H119359   7.091   1.232   2.486
 6472TIP3    H219360   6.944   1.228   2.451
 6473TIP3   OH219361   3.052   0.904   4.140
 6473TIP3    H119362   3.133   0.873   4.099
 6473TIP3    H219363   3.053   0.998   4.126
 6474TIP3   OH219364   4.165   6.290   0.242
 6474TIP3    H119365   4.191   6.226   0.308
 6474TIP3    H219366   4.103   6.347   0.288
 6475TIP3   OH219367   2.766   4.262   1.229
 6475TIP3    H119368   2.734   4.319   1.159
 6475TIP3    H219369   2.838   4.213   1.188
 6476TIP3   OH219370   0.400   7.791   3.808
 6476TIP3    H119371   0.411   7.820   3.898
 6476TIP3    H219372   0.407   7.871   3.756
 6477TIP3   OH219373   6.812   1.369   6.489
 6477TIP3    H119374   6.756   1.338   6.560
 6477TIP3    H219375   6.901   1.365   6.526
 6478TIP3   OH219376   2.218   0.335   4.075
 6478TIP3    H119377   2.278   0.270   4.038
 6478TIP3    H219378   2.244   0.417   4.033
 6479TIP3   OH219379   6.547   7.546   6.268
 6479TIP3    H119380   6.538   7.630   6.311
 6479TIP3    H219381   6.543   7.481   6.339
 6480TIP3   OH219382   2.040   2.893   2.329
 6480TIP3    H119383   2.062   2.803   2.349
 6480TIP3    H219384   2.124   2.936   2.315
 6481TIP3   OH219385   2.158   0.669   5.603
 6481TIP3    H119386   2.065   0.688   5.594
 6481TIP3    H219387   2.188   0.728   5.672
 6482TIP3   OH219388   0.909   4.725   4.665
 6482TIP3    H119389   0.953   4.794   4.616
 6482TIP3    H219390   0.972   4.697   4.731
 6483TIP3   OH219391   1.498   4.038   6.592
 6483TIP3    H119392   1.405   4.055   6.574
 6483TIP3    H219393   1.500   4.009   6.683
 6484TIP3   OH219394   5.009   1.779   6.352
 6484TIP3    H119395   4.985   1.832   6.276
 6484TIP3    H219396   5.093   1.815   6.380
 6485TIP3   OH219397   5.025   0.642   5.354
 6485TIP3    H119398   5.067   0.709   5.408
 6485TIP3    H219399   5.097   0.592   5.316
 6486TIP3   OH219400   7.787   2.929   5.857
 6486TIP3    H119401   7.694   2.948   5.872
 6486TIP3    H219402   7.834   2.996   5.907
 6487TIP3   OH219403   5.594   2.610   6.725
 6487TIP3    H119404   5.583   2.677   6.659
 6487TIP3    H219405   5.507   2.597   6.762
 6488TIP3   OH219406   2.913   5.006   6.382
 6488TIP3    H119407   2.818   4.998   6.392
 6488TIP3    H219408   2.946   4.917   6.391
 6489TIP3   OH219409   0.265   3.987   0.437
 6489TIP3    H119410   0.228   4.040   0.366
 6489TIP3    H219411   0.354   4.020   0.448
 6490TIP3   OH219412   3.830   1.686   3.577
 6490TIP3    H119413   3.819   1.753   3.509
 6490TIP3    H219414   3.792   1.607   3.539
 6491TIP3   OH219415   3.207   5.852   1.096
 6491TIP3    H119416   3.154   5.783   1.055
 6491TIP3    H219417   3.144   5.921   1.117
 6492TIP3   OH219418   8.096   4.809   1.919
 6492TIP3    H119419   8.093   4.805   1.823
 6492TIP3    H219420   8.082   4.902   1.939
 6493TIP3   OH219421   8.225   0.232   4.828
 6493TIP3    H119422   8.289   0.191   4.886
 6493TIP3    H219423   8.181   0.297   4.883
 6494TIP3   OH219424   5.136   6.763   0.070
 6494TIP3    H119425   5.088   6.819   0.132
 6494TIP3    H219426   5.208   6.726   0.122
 6495TIP3   OH219427   1.662   5.189   1.861
 6495TIP3    H119428   1.676   5.220   1.951
 6495TIP3    H219429   1.636   5.098   1.871
 6496TIP3   OH219430   5.290   4.096   2.126
 6496TIP3    H119431   5.311   4.092   2.033
 6496TIP3    H219432   5.195   4.104   2.129
 6497TIP3   OH219433   0.424   1.590   4.844
 6497TIP3    H119434   0.506   1.563   4.886
 6497TIP3    H219435   0.452   1.641   4.768
 6498TIP3   OH219436   0.070   1.002   0.007
 6498TIP3    H119437   0.046   1.063   0.078
 6498TIP3    H219438   0.038   1.045  -0.072
 6499TIP3   OH219439   6.685   1.279   1.233
 6499TIP3    H119440   6.725   1.225   1.301
 6499TIP3    H219441   6.600   1.238   1.217
 6500TIP3   OH219442   4.848   4.702   6.544
 6500TIP3    H119443   4.803   4.781   6.513
 6500TIP3    H219444   4.779   4.637   6.552
 6501TIP3   OH219445   1.689   5.661   4.518
 6501TIP3    H119446   1.639   5.600   4.573
 6501TIP3    H219447   1.642   5.663   4.435
 6502TIP3   OH219448   0.977   2.017   5.203
 6502TIP3    H119449   0.989   2.054   5.116
 6502TIP3    H219450   0.936   2.087   5.253
 6503TIP3   OH219451   0.078   3.637   2.912
 6503TIP3    H119452   0.097   3.621   3.005
 6503TIP3    H219453   0.103   3.556   2.868
 6504TIP3   OH219454   5.418   3.654   6.119
 6504TIP3    H119455   5.438   3.716   6.189
 6504TIP3    H219456   5.504   3.631   6.082
 6505TIP3   OH219457   6.251   3.670   2.960
 6505TIP3    H119458   6.281   3.672   2.869
 6505TIP3    H219459   6.270   3.581   2.990
 6506TIP3   OH219460   2.785   5.542   1.727
 6506TIP3    H119461   2.755   5.546   1.636
 6506TIP3    H219462   2.862   5.598   1.730
 6507TIP3   OH219463   1.016   1.171   1.484
 6507TIP3    H119464   0.992   1.258   1.454
 6507TIP3    H219465   0.958   1.153   1.559
 6508TIP3   OH219466   6.174   5.939   4.508
 6508TIP3    H119467   6.138   5.925   4.596
 6508TIP3    H219468   6.137   6.023   4.480
 6509TIP3   OH219469   1.219   3.730   6.390
 6509TIP3    H119470   1.221   3.810   6.339
 6509TIP3    H219471   1.311   3.709   6.405
 6510TIP3   OH219472   0.852   6.173   4.279
 6510TIP3    H119473   0.940   6.142   4.298
 6510TIP3    H219474   0.862   6.227   4.201
 6511TIP3   OH219475   0.644   6.127   5.844
 6511TIP3    H119476   0.621   6.150   5.935
 6511TIP3    H219477   0.724   6.076   5.852
 6512TIP3   OH219478   7.837   0.849   4.403
 6512TIP3    H119479   7.873   0.760   4.405
 6512TIP3    H219480   7.796   0.861   4.489
 6513TIP3   OH219481   5.659   6.933   2.880
 6513TIP3    H119482   5.649   7.009   2.936
 6513TIP3    H219483   5.749   6.904   2.895
 6514TIP3   OH219484   5.251   5.009   2.692
 6514TIP3    H119485   5.335   5.012   2.647
 6514TIP3    H219486   5.272   4.987   2.783
 6515TIP3   OH219487   5.396   0.236   2.507
 6515TIP3    H119488   5.367   0.145   2.512
 6515TIP3    H219489   5.438   0.252   2.592
 6516TIP3   OH219490   4.175   5.675   2.440
 6516TIP3    H119491   4.112   5.694   2.510
 6516TIP3    H219492   4.190   5.759   2.398
 6517TIP3   OH219493   6.307   7.071   6.115
 6517TIP3    H119494   6.316   7.080   6.210
 6517TIP3    H219495   6.300   6.977   6.100
 6518TIP3   OH219496   1.872   6.736   3.963
 6518TIP3    H119497   1.913   6.720   3.878
 6518TIP3    H219498   1.822   6.817   3.951
 6519TIP3   OH219499   6.883   7.668   2.572
 6519TIP3    H119500   6.803   7.645   2.524
 6519TIP3    H219501   6.869   7.634   2.660
 6520TIP3   OH219502   6.883   3.977   3.343
 6520TIP3    H119503   6.866   3.895   3.296
 6520TIP3    H219504   6.935   3.950   3.419
 6521TIP3   OH219505   0.542   5.727   3.740
 6521TIP3    H119506   0.605   5.792   3.708
 6521TIP3    H219507   0.554   5.726   3.835
 6522TIP3   OH219508   1.430   4.686   4.625
 6522TIP3    H119509   1.459   4.720   4.710
 6522TIP3    H219510   1.458   4.753   4.562
 6523TIP3   OH219511   2.765   5.822   4.090
 6523TIP3    H119512   2.704   5.763   4.133
 6523TIP3    H219513   2.837   5.832   4.152
 6524TIP3   OH219514   4.495   3.722   6.252
 6524TIP3    H119515   4.553   3.747   6.324
 6524TIP3    H219516   4.510   3.628   6.241
 6525TIP3   OH219517   7.813   4.454   4.239
 6525TIP3    H119518   7.727   4.496   4.243
 6525TIP3    H219519   7.802   4.373   4.290
 6526TIP3   OH219520   5.261   6.794   1.243
 6526TIP3    H119521   5.295   6.712   1.208
 6526TIP3    H219522   5.282   6.791   1.337
 6527TIP3   OH219523   1.897   1.845   5.253
 6527TIP3    H119524   1.859   1.801   5.177
 6527TIP3    H219525   1.975   1.889   5.218
 6528TIP3   OH219526   4.586   1.126   2.199
 6528TIP3    H119527   4.510   1.168   2.240
 6528TIP3    H219528   4.548   1.075   2.127
 6529TIP3   OH219529   7.094   3.318   2.895
 6529TIP3    H119530   7.022   3.329   2.957
 6529TIP3    H219531   7.051   3.301   2.811
 6530TIP3   OH219532   5.603   1.720   1.413
 6530TIP3    H119533   5.539   1.650   1.425
 6530TIP3    H219534   5.687   1.675   1.410
 6531TIP3   OH219535   0.567   0.796   2.250
 6531TIP3    H119536   0.606   0.856   2.314
 6531TIP3    H219537   0.502   0.849   2.203
 6532TIP3   OH219538   1.985   7.156   4.067
 6532TIP3    H119539   1.900   7.196   4.045
 6532TIP3    H219540   2.039   7.173   3.990
 6533TIP3   OH219541   1.769   2.268   1.754
 6533TIP3    H119542   1.838   2.279   1.820
 6533TIP3    H219543   1.694   2.236   1.804
 6534TIP3   OH219544   0.075   4.772   4.441
 6534TIP3    H119545   0.139   4.821   4.492
 6534TIP3    H219546   0.115   4.762   4.355
 6535TIP3   OH219547   2.453   3.744   1.744
 6535TIP3    H119548   2.456   3.733   1.649
 6535TIP3    H219549   2.369   3.787   1.760
 6536TIP3   OH219550   0.590   1.337   5.381
 6536TIP3    H119551   0.634   1.253   5.370
 6536TIP3    H219552   0.660   1.402   5.377
 6537TIP3   OH219553   1.603   1.006   5.142
 6537TIP3    H119554   1.694   1.036   5.136
 6537TIP3    H219555   1.609   0.912   5.155
 6538TIP3   OH219556   2.071   1.188   4.734
 6538TIP3    H119557   2.105   1.277   4.742
 6538TIP3    H219558   2.111   1.140   4.806
 6539TIP3   OH219559   1.739   7.582   5.164
 6539TIP3    H119560   1.711   7.499   5.124
 6539TIP3    H219561   1.659   7.635   5.165
 6540TIP3   OH219562   6.877   0.548   4.449
 6540TIP3    H119563   6.910   0.608   4.382
 6540TIP3    H219564   6.853   0.469   4.400
 6541TIP3   OH219565   6.463   4.820   1.309
 6541TIP3    H119566   6.416   4.809   1.391
 6541TIP3    H219567   6.528   4.888   1.327
 6542TIP3   OH219568   1.895   7.594   4.871
 6542TIP3    H119569   1.922   7.551   4.952
 6542TIP3    H219570   1.818   7.646   4.895
 6543TIP3   OH219571   6.012   4.436   3.938
 6543TIP3    H119572   6.014   4.511   3.998
 6543TIP3    H219573   5.933   4.450   3.885
 6544TIP3   OH219574   1.883   6.973   4.605
 6544TIP3    H119575   1.958   6.975   4.664
 6544TIP3    H219576   1.896   7.047   4.547
 6545TIP3   OH219577   0.930   5.007   1.133
 6545TIP3    H119578   1.023   5.026   1.143
 6545TIP3    H219579   0.924   4.959   1.050
 6546TIP3   OH219580   1.917   3.641   3.336
 6546TIP3    H119581   1.989   3.637   3.274
 6546TIP3    H219582   1.919   3.557   3.381
 6547TIP3   OH219583   0.647   3.501   1.811
 6547TIP3    H119584   0.552   3.509   1.807
 6547TIP3    H219585   0.675   3.580   1.857
 6548TIP3   OH219586   0.846   2.224   4.074
 6548TIP3    H119587   0.767   2.255   4.030
 6548TIP3    H219588   0.916   2.234   4.009
 6549TIP3   OH219589   0.511   7.113   4.622
 6549TIP3    H119590   0.504   7.182   4.688
 6549TIP3    H219591   0.446   7.048   4.648
 6550TIP3   OH219592   3.095   0.099   1.756
 6550TIP3    H119593   3.000   0.098   1.741
 6550TIP3    H219594   3.118   0.192   1.750
 6551TIP3   OH219595   0.483   1.211   6.523
 6551TIP3    H119596   0.449   1.279   6.464
 6551TIP3    H219597   0.432   1.222   6.604
 6552TIP3   OH219598   0.092   6.762   5.705
 6552TIP3    H119599   0.116   6.767   5.613
 6552TIP3    H219600   0.126   6.843   5.743
 6553TIP3   OH219601   1.447   4.048   4.324
 6553TIP3    H119602   1.403   4.066   4.407
 6553TIP3    H219603   1.442   3.953   4.314
 6554TIP3   OH219604   2.194   0.133   5.366
 6554TIP3    H119605   2.126   0.084   5.321
 6554TIP3    H219606   2.255   0.067   5.398
 6555TIP3   OH219607   4.260   5.713   3.031
 6555TIP3    H119608   4.242   5.807   3.024
 6555TIP3    H219609   4.269   5.684   2.941
 6556TIP3   OH219610   4.570   6.147   4.356
 6556TIP3    H119611   4.652   6.190   4.380
 6556TIP3    H219612   4.557   6.170   4.264
 6557TIP3   OH219613   3.438   7.632   0.202
 6557TIP3    H119614   3.467   7.591   0.120
 6557TIP3    H219615   3.429   7.559   0.263
 6558TIP3   OH219616   0.605   3.804   3.799
 6558TIP3    H119617   0.510   3.803   3.804
 6558TIP3    H219618   0.634   3.807   3.890
 6559TIP3   OH219619   0.391   1.698   4.581
 6559TIP3    H119620   0.310   1.692   4.632
 6559TIP3    H219621   0.377   1.771   4.521
 6560TIP3   OH219622   1.573   2.890   4.881
 6560TIP3    H119623   1.500   2.935   4.839
 6560TIP3    H219624   1.574   2.924   4.971
 6561TIP3   OH219625   3.460   6.721   2.286
 6561TIP3    H119626   3.380   6.726   2.234
 6561TIP3    H219627   3.527   6.690   2.225
 6562TIP3   OH219628   0.902   6.755   2.145
 6562TIP3    H119629   0.923   6.813   2.218
 6562TIP3    H219630   0.984   6.747   2.096
 6563TIP3   OH219631   8.132   5.271   2.642
 6563TIP3    H119632   8.124   5.209   2.569
 6563TIP3    H219633   8.178   5.346   2.604
 6564TIP3   OH219634   6.445   1.323   0.288
 6564TIP3    H119635   6.511   1.285   0.231
 6564TIP3    H219636   6.405   1.393   0.236
 6565TIP3   OH219637   5.519   2.379   1.983
 6565TIP3    H119638   5.447   2.369   1.921
 6565TIP3    H219639   5.524   2.295   2.029
 6566TIP3   OH219640   1.441   3.900   0.564
 6566TIP3    H119641   1.428   3.986   0.524
 6566TIP3    H219642   1.469   3.919   0.653
 6567TIP3   OH219643   7.949   5.609   0.658
 6567TIP3    H119644   7.939   5.581   0.568
 6567TIP3    H219645   7.992   5.536   0.702
 6568TIP3   OH219646   7.143   6.691   3.896
 6568TIP3    H119647   7.120   6.783   3.877
 6568TIP3    H219648   7.216   6.697   3.957
 6569TIP3   OH219649   3.037   6.454   4.687
 6569TIP3    H119650   2.957   6.402   4.695
 6569TIP3    H219651   3.104   6.402   4.731
 6570TIP3   OH219652   8.026   7.478   5.078
 6570TIP3    H119653   8.058   7.389   5.093
 6570TIP3    H219654   8.086   7.514   5.013
 6571TIP3   OH219655   4.441   4.073   6.508
 6571TIP3    H119656   4.439   3.985   6.546
 6571TIP3    H219657   4.370   4.073   6.443
 6572TIP3   OH219658   7.099   1.400   3.573
 6572TIP3    H119659   7.133   1.375   3.487
 6572TIP3    H219660   7.134   1.335   3.633
 6573TIP3   OH219661   4.827   6.802   0.800
 6573TIP3    H119662   4.826   6.723   0.746
 6573TIP3    H219663   4.834   6.874   0.736
 6574TIP3   OH219664   7.216   0.106   3.332
 6574TIP3    H119665   7.133   0.082   3.289
 6574TIP3    H219666   7.211   0.201   3.340
 6575TIP3   OH219667   5.026   1.243   3.803
 6575TIP3    H119668   5.042   1.331   3.767
 6575TIP3    H219669   4.938   1.248   3.840
 6576TIP3   OH219670   6.355   6.020   1.260
 6576TIP3    H119671   6.307   6.101   1.245
 6576TIP3    H219672   6.322   5.988   1.344
 6577TIP3   OH219673   1.335   1.115   2.873
 6577TIP3    H119674   1.271   1.062   2.921
 6577TIP3    H219675   1.381   1.165   2.941
 6578TIP3   OH219676   1.906   7.616   3.264
 6578TIP3    H119677   2.000   7.625   3.280
 6578TIP3    H219678   1.878   7.548   3.325
 6579TIP3   OH219679   2.384   5.655   1.447
 6579TIP3    H119680   2.396   5.691   1.359
 6579TIP3    H219681   2.348   5.568   1.433
 6580TIP3   OH219682   4.931   0.051   6.589
 6580TIP3    H119683   4.986   0.091   6.521
 6580TIP3    H219684   4.906  -0.034   6.552
 6581TIP3   OH219685   3.701   4.741   4.116
 6581TIP3    H119686   3.723   4.726   4.208
 6581TIP3    H219687   3.630   4.680   4.097
 6582TIP3   OH219688   0.524   4.441   1.088
 6582TIP3    H119689   0.453   4.420   1.148
 6582TIP3    H219690   0.602   4.400   1.127
 6583TIP3   OH219691   3.691   5.486   2.699
 6583TIP3    H119692   3.716   5.404   2.656
 6583TIP3    H219693   3.681   5.462   2.791
 6584TIP3   OH219694   6.698   3.865   5.619
 6584TIP3    H119695   6.719   3.951   5.654
 6584TIP3    H219696   6.635   3.881   5.549
 6585TIP3   OH219697   2.740   2.923   5.095
 6585TIP3    H119698   2.749   2.957   5.184
 6585TIP3    H219699   2.699   2.837   5.105
 6586TIP3   OH219700   7.685   7.016   1.141
 6586TIP3    H119701   7.721   7.098   1.109
 6586TIP3    H219702   7.760   6.957   1.145
 6587TIP3   OH219703   2.301   6.178   5.867
 6587TIP3    H119704   2.260   6.215   5.945
 6587TIP3    H219705   2.272   6.087   5.866
 6588TIP3   OH219706   5.354   7.007   5.707
 6588TIP3    H119707   5.333   7.086   5.659
 6588TIP3    H219708   5.270   6.963   5.720
 6589TIP3   OH219709   5.285   3.811   3.329
 6589TIP3    H119710   5.368   3.795   3.285
 6589TIP3    H219711   5.288   3.904   3.353
 6590TIP3   OH219712   0.051   7.544   0.325
 6590TIP3    H119713   0.082   7.632   0.342
 6590TIP3    H219714   0.085   7.492   0.398
 6591TIP3   OH219715   1.079   2.030   2.944
 6591TIP3    H119716   1.109   2.015   2.855
 6591TIP3    H219717   1.059   2.124   2.948
 6592TIP3   OH219718   4.323   7.532   0.124
 6592TIP3    H119719   4.410   7.530   0.163
 6592TIP3    H219720   4.314   7.621   0.089
 6593TIP3   OH219721   5.889   2.377   4.863
 6593TIP3    H119722   5.906   2.455   4.917
 6593TIP3    H219723   5.795   2.379   4.848
 6594TIP3   OH219724   3.406   7.451   5.690
 6594TIP3    H119725   3.435   7.387   5.755
 6594TIP3    H219726   3.346   7.401   5.634
 6595TIP3   OH219727   2.893   6.854   0.029
 6595TIP3    H119728   2.885   6.879  -0.063
 6595TIP3    H219729   2.909   6.937   0.075
 6596TIP3   OH219730   2.407   2.709   0.188
 6596TIP3    H119731   2.484   2.759   0.215
 6596TIP3    H219732   2.442   2.644   0.127
 6597TIP3   OH219733   7.767   6.252   5.728
 6597TIP3    H119734   7.860   6.264   5.744
 6597TIP3    H219735   7.738   6.335   5.691
 6598TIP3   OH219736   8.175   7.249   1.476
 6598TIP3    H119737   8.230   7.183   1.519
 6598TIP3    H219738   8.234   7.290   1.412
 6599TIP3   OH219739   5.734   7.030   4.685
 6599TIP3    H119740   5.734   7.066   4.597
 6599TIP3    H219741   5.668   7.082   4.732
 6600TIP3   OH219742   2.788   2.068   3.539
 6600TIP3    H119743   2.706   2.099   3.576
 6600TIP3    H219744   2.838   2.035   3.615
 6601TIP3   OH219745   1.865   6.432   4.090
 6601TIP3    H119746   1.807   6.386   4.030
 6601TIP3    H219747   1.953   6.417   4.056
 6602TIP3   OH219748   3.925   0.937   1.500
 6602TIP3    H119749   3.894   0.898   1.582
 6602TIP3    H219750   3.977   1.013   1.529
 6603TIP3   OH219751   5.277   6.542   6.198
 6603TIP3    H119752   5.237   6.497   6.272
 6603TIP3    H219753   5.327   6.614   6.236
 6604TIP3   OH219754   1.672   7.531   5.748
 6604TIP3    H119755   1.744   7.565   5.802
 6604TIP3    H219756   1.603   7.510   5.810
 6605TIP3   OH219757   5.772   6.307   2.972
 6605TIP3    H119758   5.868   6.308   2.978
 6605TIP3    H219759   5.751   6.216   2.951
 6606TIP3   OH219760   5.853   1.557   5.440
 6606TIP3    H119761   5.884   1.539   5.528
 6606TIP3    H219762   5.892   1.487   5.387
 6607TIP3   OH219763   2.622   2.042   2.439
 6607TIP3    H119764   2.692   2.085   2.489
 6607TIP3    H219765   2.662   1.962   2.404
 6608TIP3   OH219766   2.511   0.938   0.726
 6608TIP3    H119767   2.564   0.990   0.786
 6608TIP3    H219768   2.499   0.854   0.771
 6609TIP3   OH219769   0.065   5.101   5.466
 6609TIP3    H119770   0.157   5.117   5.485
 6609TIP3    H219771   0.064   5.018   5.419
 6610TIP3   OH219772   3.094   0.590   2.409
 6610TIP3    H119773   3.080   0.496   2.419
 6610TIP3    H219774   3.074   0.608   2.317
 6611TIP3   OH219775   0.084   0.885   1.150
 6611TIP3    H119776   0.140   0.808   1.139
 6611TIP3    H219777   0.137   0.958   1.117
 6612TIP3   OH219778   1.374   6.145   0.411
 6612TIP3    H119779   1.399   6.167   0.501
 6612TIP3    H219780   1.291   6.190   0.398
 6613TIP3   OH219781   0.697   6.104   6.748
 6613TIP3    H119782   0.754   6.170   6.708
 6613TIP3    H219783   0.749   6.068   6.819
 6614TIP3   OH219784   5.160   5.542   3.280
 6614TIP3    H119785   5.084   5.540   3.338
 6614TIP3    H219786   5.178   5.636   3.267
 6615TIP3   OH219787   1.818   3.732   2.116
 6615TIP3    H119788   1.863   3.795   2.060
 6615TIP3    H219789   1.798   3.781   2.196
 6616TIP3   OH219790   7.091   2.375   5.398
 6616TIP3    H119791   7.156   2.437   5.431
 6616TIP3    H219792   7.030   2.362   5.471
 6617TIP3   OH219793   0.938   7.475   6.037
 6617TIP3    H119794   0.896   7.389   6.045
 6617TIP3    H219795   0.894   7.529   6.102
 6618TIP3   OH219796   3.271   0.273   6.109
 6618TIP3    H119797   3.264   0.369   6.108
 6618TIP3    H219798   3.196   0.244   6.056
 6619TIP3   OH219799   3.622   6.999   3.661
 6619TIP3    H119800   3.564   6.945   3.715
 6619TIP3    H219801   3.581   7.085   3.660
 6620TIP3   OH219802   5.638   4.889   6.424
 6620TIP3    H119803   5.551   4.923   6.444
 6620TIP3    H219804   5.698   4.942   6.477
 6621TIP3   OH219805   0.016   0.728   3.542
 6621TIP3    H119806   0.020   0.821   3.520
 6621TIP3    H219807   0.052   0.684   3.465
 6622TIP3   OH219808   3.027   4.029   1.527
 6622TIP3    H119809   2.951   4.004   1.580
 6622TIP3    H219810   3.103   4.002   1.580
 6623TIP3   OH219811   7.922   3.142   5.985
 6623TIP3    H119812   7.977   3.183   6.052
 6623TIP3    H219813   7.910   3.210   5.919
 6624TIP3   OH219814   5.348   7.392   3.499
 6624TIP3    H119815   5.306   7.473   3.470
 6624TIP3    H219816   5.283   7.349   3.554
 6625TIP3   OH219817   0.836   1.204   2.253
 6625TIP3    H119818   0.785   1.123   2.245
 6625TIP3    H219819   0.799   1.248   2.329
 6626TIP3   OH219820   7.979   4.971   6.121
 6626TIP3    H119821   7.909   5.026   6.087
 6626TIP3    H219822   7.952   4.882   6.101
 6627TIP3   OH219823   0.166   0.391   4.399
 6627TIP3    H119824   0.154   0.425   4.488
 6627TIP3    H219825   0.225   0.453   4.357
 6628TIP3   OH219826   6.746   2.114   3.847
 6628TIP3    H119827   6.810   2.059   3.893
 6628TIP3    H219828   6.799   2.180   3.801
 6629TIP3   OH219829   0.873   3.480   2.074
 6629TIP3    H119830   0.805   3.535   2.112
 6629TIP3    H219831   0.916   3.535   2.009
 6630TIP3   OH219832   5.009   1.527   2.595
 6630TIP3    H119833   4.984   1.543   2.504
 6630TIP3    H219834   5.061   1.446   2.592
 6631TIP3   OH219835   3.518   7.683   2.693
 6631TIP3    H119836   3.448   7.745   2.676
 6631TIP3    H219837   3.512   7.665   2.787
 6632TIP3   OH219838   8.217   5.870   2.357
 6632TIP3    H119839   8.230   5.910   2.443
 6632TIP3    H219840   8.122   5.857   2.351
 6633TIP3   OH219841   2.262   2.914   5.847
 6633TIP3    H119842   2.264   2.837   5.791
 6633TIP3    H219843   2.210   2.888   5.923
 6634TIP3   OH219844   0.660   7.718   4.718
 6634TIP3    H119845   0.725   7.670   4.770
 6634TIP3    H219846   0.577   7.699   4.762
 6635TIP3   OH219847   4.965   5.954   5.838
 6635TIP3    H119848   4.894   5.992   5.786
 6635TIP3    H219849   4.967   5.862   5.811
 6636TIP3   OH219850   3.668   5.070   3.127
 6636TIP3    H119851   3.721   5.150   3.121
 6636TIP3    H219852   3.579   5.099   3.107
 6637TIP3   OH219853   6.254   6.313   0.424
 6637TIP3    H119854   6.324   6.365   0.385
 6637TIP3    H219855   6.258   6.229   0.379
 6638TIP3   OH219856   4.595   0.104   1.798
 6638TIP3    H119857   4.558   0.069   1.718
 6638TIP3    H219858   4.646   0.180   1.771
 6639TIP3   OH219859   7.178   4.930   3.003
 6639TIP3    H119860   7.115   4.937   3.074
 6639TIP3    H219861   7.128   4.897   2.929
 6640TIP3   OH219862   2.940   1.048   1.405
 6640TIP3    H119863   3.013   1.110   1.404
 6640TIP3    H219864   2.939   1.011   1.317
 6641TIP3   OH219865   2.810   3.733   1.429
 6641TIP3    H119866   2.798   3.765   1.339
 6641TIP3    H219867   2.881   3.669   1.422
 6642TIP3   OH219868   7.249   4.809   3.669
 6642TIP3    H119869   7.213   4.731   3.627
 6642TIP3    H219870   7.181   4.836   3.731
 6643TIP3   OH219871   3.279   3.892   6.732
 6643TIP3    H119872   3.302   3.802   6.754
 6643TIP3    H219873   3.265   3.935   6.817
 6644TIP3   OH219874   0.363   3.514   3.474
 6644TIP3    H119875   0.268   3.502   3.471
 6644TIP3    H219876   0.395   3.473   3.394
 6645TIP3   OH219877   2.273   0.011   1.744
 6645TIP3    H119878   2.203  -0.055   1.748
 6645TIP3    H219879   2.246   0.079   1.806
 6646TIP3   OH219880   2.079   4.046   5.552
 6646TIP3    H119881   2.146   4.112   5.533
 6646TIP3    H219882   2.024   4.087   5.619
 6647TIP3   OH219883   0.199   5.676   0.138
 6647TIP3    H119884   0.184   5.601   0.080
 6647TIP3    H219885   0.122   5.677   0.195
 6648TIP3   OH219886   1.299   5.172   6.294
 6648TIP3    H119887   1.203   5.171   6.293
 6648TIP3    H219888   1.323   5.093   6.342
 6649TIP3   OH219889   2.118   7.012   0.663
 6649TIP3    H119890   2.158   7.074   0.724
 6649TIP3    H219891   2.070   6.950   0.718
 6650TIP3   OH219892   1.728   4.754   2.412
 6650TIP3    H119893   1.816   4.789   2.405
 6650TIP3    H219894   1.727   4.708   2.496
 6651TIP3   OH219895   6.162   2.725   3.574
 6651TIP3    H119896   6.141   2.818   3.581
 6651TIP3    H219897   6.187   2.712   3.482
 6652TIP3   OH219898   1.099   1.501   6.044
 6652TIP3    H119899   1.015   1.483   6.002
 6652TIP3    H219900   1.161   1.508   5.972
 6653TIP3   OH219901   6.196   0.524   5.902
 6653TIP3    H119902   6.178   0.615   5.926
 6653TIP3    H219903   6.267   0.497   5.961
 6654TIP3   OH219904   4.496   2.026   2.866
 6654TIP3    H119905   4.544   1.995   2.790
 6654TIP3    H219906   4.539   2.108   2.889
 6655TIP3   OH219907   4.889   5.735   2.713
 6655TIP3    H119908   4.901   5.731   2.808
 6655TIP3    H219909   4.894   5.828   2.691
 6656TIP3   OH219910   7.437   4.660   6.490
 6656TIP3    H119911   7.404   4.634   6.577
 6656TIP3    H219912   7.366   4.638   6.430
 6657TIP3   OH219913   6.107   4.893   4.139
 6657TIP3    H119914   6.182   4.934   4.182
 6657TIP3    H219915   6.115   4.917   4.047
 6658TIP3   OH219916   5.580   4.030   0.976
 6658TIP3    H119917   5.652   3.999   0.922
 6658TIP3    H219918   5.615   4.032   1.065
 6659TIP3   OH219919   2.854   7.113   4.988
 6659TIP3    H119920   2.924   7.092   4.926
 6659TIP3    H219921   2.892   7.096   5.074
 6660TIP3   OH219922   1.352   0.644   1.943
 6660TIP3    H119923   1.324   0.565   1.988
 6660TIP3    H219924   1.319   0.715   1.999
 6661TIP3   OH219925   4.980   0.110   3.126
 6661TIP3    H119926   4.893   0.149   3.137
 6661TIP3    H219927   5.041   0.175   3.161
 6662TIP3   OH219928   4.745   4.947   4.007
 6662TIP3    H119929   4.734   4.852   3.996
 6662TIP3    H219930   4.704   4.967   4.091
 6663TIP3   OH219931   6.315   6.350   6.008
 6663TIP3    H119932   6.288   6.323   6.095
 6663TIP3    H219933   6.407   6.326   6.002
 6664TIP3   OH219934   4.787   7.365   6.672
 6664TIP3    H119935   4.747   7.308   6.737
 6664TIP3    H219936   4.879   7.339   6.671
 6665TIP3   OH219937   2.690   1.125   0.891
 6665TIP3    H119938   2.681   1.106   0.985
 6665TIP3    H219939   2.737   1.208   0.889
 6666TIP3   OH219940   4.931   1.368   5.507
 6666TIP3    H119941   4.990   1.437   5.476
 6666TIP3    H219942   4.880   1.344   5.429
 6667TIP3   OH219943   4.282   1.899   6.529
 6667TIP3    H119944   4.230   1.840   6.475
 6667TIP3    H219945   4.230   1.910   6.609
 6668TIP3   OH219946   5.200   5.568   6.710
 6668TIP3    H119947   5.244   5.602   6.788
 6668TIP3    H219948   5.112   5.546   6.740
 6669TIP3   OH219949   5.453   1.024   3.311
 6669TIP3    H119950   5.525   1.081   3.283
 6669TIP3    H219951   5.429   1.057   3.398
 6670TIP3   OH219952   7.419   1.300   0.303
 6670TIP3    H119953   7.367   1.246   0.244
 6670TIP3    H219954   7.356   1.340   0.362
 6671TIP3   OH219955   0.485   5.233   6.115
 6671TIP3    H119956   0.568   5.198   6.147
 6671TIP3    H219957   0.490   5.327   6.131
 6672TIP3   OH219958   3.646   2.222   5.898
 6672TIP3    H119959   3.718   2.274   5.863
 6672TIP3    H219960   3.577   2.230   5.833
 6673TIP3   OH219961   5.215   5.426   5.079
 6673TIP3    H119962   5.263   5.393   5.003
 6673TIP3    H219963   5.126   5.392   5.069
 6674TIP3   OH219964   0.287   3.667   5.587
 6674TIP3    H119965   0.347   3.594   5.596
 6674TIP3    H219966   0.255   3.683   5.676
 6675TIP3   OH219967   8.124   6.431   5.797
 6675TIP3    H119968   8.215   6.422   5.767
 6675TIP3    H219969   8.090   6.342   5.800
 6676TIP3   OH219970   7.784   0.474   0.076
 6676TIP3    H119971   7.793   0.451   0.169
 6676TIP3    H219972   7.873   0.493   0.047
 6677TIP3   OH219973   7.271   5.564   4.358
 6677TIP3    H119974   7.181   5.595   4.370
 6677TIP3    H219975   7.319   5.604   4.431
 6678TIP3   OH219976   7.636   1.236   0.045
 6678TIP3    H119977   7.576   1.304   0.014
 6678TIP3    H219978   7.697   1.282   0.103
 6679TIP3   OH219979   3.318   7.450   5.280
 6679TIP3    H119980   3.252   7.518   5.264
 6679TIP3    H219981   3.267   7.369   5.286
 6680TIP3   OH219982   0.261   7.808   6.256
 6680TIP3    H119983   0.231   7.889   6.297
 6680TIP3    H219984   0.220   7.808   6.170
 6681TIP3   OH219985   2.573   5.073   0.976
 6681TIP3    H119986   2.486   5.109   0.959
 6681TIP3    H219987   2.614   5.135   1.036
 6682TIP3   OH219988   6.892   2.143   6.590
 6682TIP3    H119989   6.889   2.062   6.539
 6682TIP3    H219990   6.980   2.178   6.577
 6683TIP3   OH219991   8.289   5.091   3.113
 6683TIP3    H119992   8.257   5.002   3.119
 6683TIP3    H219993   8.288   5.111   3.020
 6684TIP3   OH219994   1.356   2.246   1.822
 6684TIP3    H119995   1.410   2.295   1.883
 6684TIP3    H219996   1.271   2.239   1.865
 6685TIP3   OH219997   1.781   4.620   0.901
 6685TIP3    H119998   1.846   4.650   0.964
 6685TIP3    H219999   1.780   4.688   0.834
 6686TIP3   OH220000   0.595   1.313   3.867
 6686TIP3    H120001   0.571   1.249   3.933
 6686TIP3    H220002   0.514   1.330   3.819
 6687TIP3   OH220003   0.252   6.563   2.542
 6687TIP3    H120004   0.212   6.506   2.608
 6687TIP3    H220005   0.251   6.650   2.582
 6688TIP3   OH220006   0.710   1.309   5.706
 6688TIP3    H120007   0.646   1.361   5.657
 6688TIP3    H220008   0.660   1.234   5.738
 6689TIP3   OH220009   7.180   3.290   0.948
 6689TIP3    H120010   7.132   3.222   0.995
 6689TIP3    H220011   7.159   3.371   0.995
 6690TIP3   OH220012   4.381   2.252   0.854
 6690TIP3    H120013   4.403   2.218   0.767
 6690TIP3    H220014   4.354   2.342   0.839
 6691TIP3   OH220015   6.050   4.835   4.541
 6691TIP3    H120016   6.038   4.928   4.558
 6691TIP3    H220017   5.974   4.793   4.582
 6692TIP3   OH220018   7.347   3.119   2.363
 6692TIP3    H120019   7.407   3.193   2.347
 6692TIP3    H220020   7.305   3.141   2.446
 6693TIP3   OH220021   0.141   5.339   4.176
 6693TIP3    H120022   0.234   5.327   4.194
 6693TIP3    H220023   0.125   5.432   4.192
 6694TIP3   OH220024   6.335   7.505   3.313
 6694TIP3    H120025   6.247   7.540   3.327
 6694TIP3    H220026   6.364   7.545   3.231
 6695TIP3   OH220027   2.376   0.439   0.139
 6695TIP3    H120028   2.464   0.465   0.168
 6695TIP3    H220029   2.390   0.353   0.098
 6696TIP3   OH220030   7.964   4.257   0.758
 6696TIP3    H120031   8.032   4.296   0.814
 6696TIP3    H220032   7.908   4.209   0.819
 6697TIP3   OH220033   3.503   2.323   4.164
 6697TIP3    H120034   3.561   2.269   4.110
 6697TIP3    H220035   3.560   2.390   4.200
 6698TIP3   OH220036   5.457   3.296   1.481
 6698TIP3    H120037   5.544   3.291   1.521
 6698TIP3    H220038   5.473   3.284   1.388
 6699TIP3   OH220039   7.263   5.608   3.968
 6699TIP3    H120040   7.210   5.540   4.009
 6699TIP3    H220041   7.351   5.597   4.004
 6700TIP3   OH220042   3.446   1.455   0.916
 6700TIP3    H120043   3.415   1.378   0.964
 6700TIP3    H220044   3.369   1.488   0.871
 6701TIP3   OH220045   3.889   0.305   6.640
 6701TIP3    H120046   3.817   0.311   6.578
 6701TIP3    H220047   3.887   0.215   6.672
 6702TIP3   OH220048   1.584   4.607   6.273
 6702TIP3    H120049   1.564   4.691   6.230
 6702TIP3    H220050   1.498   4.570   6.293
 6703TIP3   OH220051   2.260   4.000   4.127
 6703TIP3    H120052   2.347   4.004   4.085
 6703TIP3    H220053   2.256   3.912   4.165
 6704TIP3   OH220054   0.901   1.787   5.313
 6704TIP3    H120055   0.907   1.875   5.276
 6704TIP3    H220056   0.976   1.781   5.373
 6705TIP3   OH220057   4.152   7.609   2.806
 6705TIP3    H120058   4.059   7.591   2.794
 6705TIP3    H220059   4.155   7.698   2.841
 6706TIP3   OH220060   8.060   6.559   0.331
 6706TIP3    H120061   8.072   6.466   0.315
 6706TIP3    H220062   8.073   6.570   0.425
 6707TIP3   OH220063   6.933   4.135   1.595
 6707TIP3    H120064   6.981   4.212   1.627
 6707TIP3    H220065   6.993   4.062   1.610
 6708TIP3   OH220066   1.825   3.042   4.376
 6708TIP3    H120067   1.757   3.016   4.437
 6708TIP3    H220068   1.786   3.027   4.289
 6709TIP3   OH220069   0.485   1.279   1.578
 6709TIP3    H120070   0.552   1.296   1.644
 6709TIP3    H220071   0.488   1.184   1.565
 6710TIP3   OH220072   0.335   6.013   1.984
 6710TIP3    H120073   0.331   6.036   2.077
 6710TIP3    H220074   0.255   5.963   1.968
 6711TIP3   OH220075   4.639   0.969   3.713
 6711TIP3    H120076   4.661   1.053   3.673
 6711TIP3    H220077   4.544   0.969   3.720
 6712TIP3   OH220078   1.064   0.981   5.241
 6712TIP3    H120079   1.007   1.009   5.169
 6712TIP3    H220080   1.152   0.988   5.205
 6713TIP3   OH220081   1.512   4.575   0.158
 6713TIP3    H120082   1.514   4.502   0.219
 6713TIP3    H220083   1.472   4.647   0.207
 6714TIP3   OH220084   2.618   4.327   5.517
 6714TIP3    H120085   2.693   4.383   5.498
 6714TIP3    H220086   2.550   4.354   5.456
 6715TIP3   OH220087   7.163   4.098   3.513
 6715TIP3    H120088   7.074   4.063   3.517
 6715TIP3    H220089   7.151   4.192   3.499
 6716TIP3   OH220090   8.309   3.538   0.408
 6716TIP3    H120091   8.308   3.579   0.495
 6716TIP3    H220092   8.267   3.453   0.422
 6717TIP3   OH220093   4.314   1.596   4.438
 6717TIP3    H120094   4.346   1.654   4.507
 6717TIP3    H220095   4.246   1.542   4.480
 6718TIP3   OH220096   0.262   2.692   6.525
 6718TIP3    H120097   0.193   2.641   6.568
 6718TIP3    H220098   0.316   2.627   6.480
 6719TIP3   OH220099   7.793   6.621   1.861
 6719TIP3    H120100   7.752   6.668   1.788
 6719TIP3    H220101   7.727   6.557   1.889
 6720TIP3   OH220102   2.627   1.876   3.272
 6720TIP3    H120103   2.594   1.794   3.308
 6720TIP3    H220104   2.606   1.871   3.179
 6721TIP3   OH220105   3.766   0.045   5.140
 6721TIP3    H120106   3.788  -0.032   5.193
 6721TIP3    H220107   3.847   0.095   5.135
 6722TIP3   OH220108   5.129   6.073   4.938
 6722TIP3    H120109   5.158   6.128   5.011
 6722TIP3    H220110   5.211   6.040   4.900
 6723TIP3   OH220111   3.634   1.217   2.034
 6723TIP3    H120112   3.613   1.160   1.960
 6723TIP3    H220113   3.596   1.173   2.109
 6724TIP3   OH220114   7.309   4.151   4.989
 6724TIP3    H120115   7.216   4.161   5.009
 6724TIP3    H220116   7.311   4.111   4.902
 6725TIP3   OH220117   4.087   6.827   5.670
 6725TIP3    H120118   4.064   6.894   5.734
 6725TIP3    H220119   4.006   6.775   5.661
 6726TIP3   OH220120   2.619   2.797   6.274
 6726TIP3    H120121   2.586   2.791   6.363
 6726TIP3    H220122   2.545   2.770   6.219
 6727TIP3   OH220123   1.861   6.570   0.702
 6727TIP3    H120124   1.955   6.555   0.690
 6727TIP3    H220125   1.824   6.482   0.710
 6728TIP3   OH220126   2.061   2.794   3.815
 6728TIP3    H120127   2.005   2.720   3.788
 6728TIP3    H220128   2.143   2.753   3.841
 6729TIP3   OH220129   8.204   2.109   5.300
 6729TIP3    H120130   8.258   2.126   5.377
 6729TIP3    H220131   8.115   2.130   5.328
 6730TIP3   OH220132   4.311   2.574   1.811
 6730TIP3    H120133   4.352   2.567   1.724
 6730TIP3    H220134   4.374   2.623   1.863
 6731TIP3   OH220135   5.256   3.234   2.988
 6731TIP3    H120136   5.195   3.188   2.930
 6731TIP3    H220137   5.209   3.312   3.016
 6732TIP3   OH220138   6.840   7.586   4.985
 6732TIP3    H120139   6.892   7.547   4.915
 6732TIP3    H220140   6.902   7.599   5.056
 6733TIP3   OH220141   1.380   6.222   0.676
 6733TIP3    H120142   1.429   6.231   0.758
 6733TIP3    H220143   1.313   6.290   0.680
 6734TIP3   OH220144   0.869   0.490   2.984
 6734TIP3    H120145   0.933   0.539   2.931
 6734TIP3    H220146   0.861   0.406   2.939
 6735TIP3   OH220147   2.064   7.022   4.986
 6735TIP3    H120148   2.052   6.942   5.037
 6735TIP3    H220149   1.993   7.080   5.014
 6736TIP3   OH220150   3.925   6.311   2.838
 6736TIP3    H120151   3.953   6.400   2.815
 6736TIP3    H220152   4.002   6.257   2.824
 6737TIP3   OH220153   4.782   1.295   2.043
 6737TIP3    H120154   4.742   1.379   2.064
 6737TIP3    H220155   4.720   1.230   2.074
 6738TIP3   OH220156   8.014   6.243   3.144
 6738TIP3    H120157   7.931   6.212   3.109
 6738TIP3    H220158   7.992   6.282   3.229
 6739TIP3   OH220159   2.599   6.797   1.186
 6739TIP3    H120160   2.667   6.815   1.251
 6739TIP3    H220161   2.587   6.702   1.189
 6740TIP3   OH220162   5.252   2.606   6.536
 6740TIP3    H120163   5.226   2.535   6.477
 6740TIP3    H220164   5.282   2.561   6.615
 6741TIP3   OH220165   6.274   3.996   4.811
 6741TIP3    H120166   6.287   4.088   4.788
 6741TIP3    H220167   6.321   3.948   4.743
 6742TIP3   OH220168   1.609   2.111   1.165
 6742TIP3    H120169   1.524   2.079   1.134
 6742TIP3    H220170   1.606   2.096   1.259
 6743TIP3   OH220171   0.976   5.709   3.637
 6743TIP3    H120172   0.917   5.764   3.587
 6743TIP3    H220173   1.025   5.769   3.693
 6744TIP3   OH220174   4.336   7.502   2.327
 6744TIP3    H120175   4.315   7.474   2.416
 6744TIP3    H220176   4.274   7.572   2.308
 6745TIP3   OH220177   4.118   5.502   4.485
 6745TIP3    H120178   4.027   5.488   4.510
 6745TIP3    H220179   4.169   5.459   4.554
 6746TIP3   OH220180   5.714   1.701   4.319
 6746TIP3    H120181   5.708   1.656   4.403
 6746TIP3    H220182   5.807   1.723   4.310
 6747TIP3   OH220183   6.312   2.351   2.628
 6747TIP3    H120184   6.383   2.313   2.679
 6747TIP3    H220185   6.308   2.297   2.548
 6748TIP3   OH220186   8.159   7.627   4.886
 6748TIP3    H120187   8.101   7.703   4.879
 6748TIP3    H220188   8.225   7.641   4.818
 6749TIP3   OH220189   6.335   0.911   1.405
 6749TIP3    H120190   6.425   0.880   1.408
 6749TIP3    H220191   6.333   0.975   1.334
 6750TIP3   OH220192   2.912   3.457   2.994
 6750TIP3    H120193   2.883   3.433   3.082
 6750TIP3    H220194   2.953   3.378   2.960
 6751TIP3   OH220195   2.116   1.352   6.221
 6751TIP3    H120196   2.177   1.424   6.203
 6751TIP3    H220197   2.062   1.384   6.293
 6752TIP3   OH220198   3.519   3.771   6.412
 6752TIP3    H120199   3.582   3.779   6.484
 6752TIP3    H220200   3.455   3.707   6.443
 6753TIP3   OH220201   3.804   1.829   3.345
 6753TIP3    H120202   3.875   1.806   3.286
 6753TIP3    H220203   3.724   1.819   3.293
 6754TIP3   OH220204   4.406   7.145   6.601
 6754TIP3    H120205   4.454   7.144   6.518
 6754TIP3    H220206   4.471   7.164   6.667
 6755TIP3   OH220207   5.983   6.118   1.829
 6755TIP3    H120208   5.935   6.049   1.783
 6755TIP3    H220209   5.930   6.197   1.816
 6756TIP3   OH220210   8.020   5.095   4.283
 6756TIP3    H120211   8.067   5.021   4.321
 6756TIP3    H220212   8.074   5.123   4.209
 6757TIP3   OH220213   5.042   1.466   4.110
 6757TIP3    H120214   4.957   1.496   4.144
 6757TIP3    H220215   5.032   1.371   4.102
 6758TIP3   OH220216   7.137   3.408   1.188
 6758TIP3    H120217   7.149   3.339   1.253
 6758TIP3    H220218   7.212   3.466   1.200
 6759TIP3   OH220219   3.328   5.365   4.178
 6759TIP3    H120220   3.238   5.393   4.192
 6759TIP3    H220221   3.322   5.294   4.114
 6760TIP3   OH220222   6.791   7.221   1.518
 6760TIP3    H120223   6.742   7.303   1.527
 6760TIP3    H220224   6.868   7.245   1.467
 6761TIP3   OH220225   1.080   5.417   3.241
 6761TIP3    H120226   1.080   5.422   3.337
 6761TIP3    H220227   1.054   5.505   3.213
 6762TIP3   OH220228   1.388   6.078   5.169
 6762TIP3    H120229   1.347   6.130   5.101
 6762TIP3    H220230   1.465   6.039   5.127
 6763TIP3   OH220231   2.890   5.084   4.895
 6763TIP3    H120232   2.880   5.123   4.808
 6763TIP3    H220233   2.909   5.158   4.952
 6764TIP3   OH220234   6.119   2.925   4.763
 6764TIP3    H120235   6.116   3.011   4.721
 6764TIP3    H220236   6.183   2.876   4.712
 6765TIP3   OH220237   7.505   5.876   2.255
 6765TIP3    H120238   7.481   5.909   2.168
 6765TIP3    H220239   7.422   5.868   2.302
 6766TIP3   OH220240   2.134   7.743   4.698
 6766TIP3    H120241   2.096   7.762   4.612
 6766TIP3    H220242   2.106   7.654   4.718
 6767TIP3   OH220243   4.422   3.394   0.039
 6767TIP3    H120244   4.480   3.469   0.023
 6767TIP3    H220245   4.335   3.427   0.017
 6768TIP3   OH220246   3.695   3.964   1.075
 6768TIP3    H120247   3.669   3.878   1.042
 6768TIP3    H220248   3.641   3.978   1.152
 6769TIP3   OH220249   2.778   1.435   6.249
 6769TIP3    H120250   2.765   1.479   6.166
 6769TIP3    H220251   2.730   1.352   6.240
 6770TIP3   OH220252   2.217   3.895   4.708
 6770TIP3    H120253   2.262   3.963   4.758
 6770TIP3    H220254   2.171   3.943   4.640
 6771TIP3   OH220255   5.126   5.660   1.386
 6771TIP3    H120256   5.116   5.705   1.302
 6771TIP3    H220257   5.086   5.575   1.372
 6772TIP3   OH220258   5.615   4.987   1.551
 6772TIP3    H120259   5.679   5.034   1.497
 6772TIP3    H220260   5.558   5.056   1.586
 6773TIP3   OH220261   6.527   3.347   2.234
 6773TIP3    H120262   6.598   3.409   2.217
 6773TIP3    H220263   6.447   3.397   2.218
 6774TIP3   OH220264   5.732   0.939   3.166
 6774TIP3    H120265   5.673   0.866   3.181
 6774TIP3    H220266   5.765   0.962   3.253
 6775TIP3   OH220267   1.933   6.281   5.284
 6775TIP3    H120268   2.011   6.334   5.299
 6775TIP3    H220269   1.869   6.343   5.249
 6776TIP3   OH220270   4.621   1.227   6.439
 6776TIP3    H120271   4.617   1.136   6.470
 6776TIP3    H220272   4.561   1.229   6.364
 6777TIP3   OH220273   8.219   5.656   4.648
 6777TIP3    H120274   8.208   5.643   4.554
 6777TIP3    H220275   8.195   5.572   4.687
 6778TIP3   OH220276   4.665   7.708   3.129
 6778TIP3    H120277   4.572   7.685   3.132
 6778TIP3    H220278   4.710   7.629   3.159
 6779TIP3   OH220279   5.041   7.149   4.790
 6779TIP3    H120280   5.113   7.211   4.778
 6779TIP3    H220281   4.975   7.198   4.839
 6780TIP3   OH220282   3.478   7.068   3.192
 6780TIP3    H120283   3.531   7.136   3.235
 6780TIP3    H220284   3.520   6.986   3.219
 6781TIP3   OH220285   6.870   6.986   2.654
 6781TIP3    H120286   6.828   7.007   2.738
 6781TIP3    H220287   6.803   6.937   2.606
 6782TIP3   OH220288   3.448   2.918   2.117
 6782TIP3    H120289   3.413   3.005   2.099
 6782TIP3    H220290   3.477   2.923   2.208
 6783TIP3   OH220291   4.763   1.089   2.418
 6783TIP3    H120292   4.849   1.099   2.378
 6783TIP3    H220293   4.701   1.104   2.346
 6784TIP3   OH220294   6.221   4.251   3.088
 6784TIP3    H120295   6.128   4.232   3.104
 6784TIP3    H220296   6.265   4.168   3.105
 6785TIP3   OH220297   2.580   2.842   5.909
 6785TIP3    H120298   2.510   2.868   5.849
 6785TIP3    H220299   2.535   2.794   5.978
 6786TIP3   OH220300   3.054   5.435   3.943
 6786TIP3    H120301   3.093   5.519   3.968
 6786TIP3    H220302   2.967   5.458   3.910
 6787TIP3   OH220303   8.038   1.673   5.106
 6787TIP3    H120304   7.957   1.725   5.102
 6787TIP3    H220305   8.108   1.739   5.105
 6788TIP3   OH220306   0.525   7.346   4.798
 6788TIP3    H120307   0.580   7.394   4.860
 6788TIP3    H220308   0.435   7.361   4.829
 6789TIP3   OH220309   2.583   5.156   4.928
 6789TIP3    H120310   2.527   5.145   4.851
 6789TIP3    H220311   2.669   5.124   4.901
 6790TIP3   OH220312   2.768   0.987   2.051
 6790TIP3    H120313   2.858   0.955   2.048
 6790TIP3    H220314   2.760   1.028   2.138
 6791TIP3   OH220315   7.545   2.233   1.656
 6791TIP3    H120316   7.549   2.268   1.567
 6791TIP3    H220317   7.556   2.310   1.712
 6792TIP3   OH220318   5.838   3.427   6.169
 6792TIP3    H120319   5.844   3.337   6.137
 6792TIP3    H220320   5.799   3.420   6.256
 6793TIP3   OH220321   5.674   2.999   0.550
 6793TIP3    H120322   5.649   2.907   0.552
 6793TIP3    H220323   5.659   3.026   0.459
 6794TIP3   OH220324   0.103   7.793   5.943
 6794TIP3    H120325   0.164   7.719   5.944
 6794TIP3    H220326   0.060   7.787   5.858
 6795TIP3   OH220327   7.231   2.000   3.873
 6795TIP3    H120328   7.237   1.925   3.932
 6795TIP3    H220329   7.299   1.983   3.807
 6796TIP3   OH220330   0.459   5.396   1.988
 6796TIP3    H120331   0.517   5.356   2.052
 6796TIP3    H220332   0.481   5.353   1.905
 6797TIP3   OH220333   3.111   7.572   1.177
 6797TIP3    H120334   3.032   7.519   1.181
 6797TIP3    H220335   3.131   7.593   1.268
 6798TIP3   OH220336   0.380   5.989   3.007
 6798TIP3    H120337   0.437   6.056   3.045
 6798TIP3    H220338   0.440   5.933   2.956
 6799TIP3   OH220339   4.123   0.919   0.203
 6799TIP3    H120340   4.039   0.905   0.160
 6799TIP3    H220341   4.123   0.858   0.277
 6800TIP3   OH220342   3.441   0.698   3.411
 6800TIP3    H120343   3.495   0.695   3.490
 6800TIP3    H220344   3.357   0.661   3.439
 6801TIP3   OH220345   8.014   1.512   5.436
 6801TIP3    H120346   8.010   1.417   5.426
 6801TIP3    H220347   8.098   1.537   5.396
 6802TIP3   OH220348   2.693   3.869   0.054
 6802TIP3    H120349   2.769   3.837   0.103
 6802TIP3    H220350   2.650   3.929   0.115
 6803TIP3   OH220351   2.046   3.373   6.644
 6803TIP3    H120352   2.073   3.450   6.594
 6803TIP3    H220353   1.960   3.396   6.678
 6804TIP3   OH220354   1.401   4.132   1.872
 6804TIP3    H120355   1.339   4.167   1.936
 6804TIP3    H220356   1.478   4.108   1.924
 6805TIP3   OH220357   2.467   5.331   6.147
 6805TIP3    H120358   2.376   5.347   6.173
 6805TIP3    H220359   2.486   5.398   6.082
 6806TIP3   OH220360   3.714   7.503   2.640
 6806TIP3    H120361   3.633   7.553   2.652
 6806TIP3    H220362   3.712   7.436   2.708
 6807TIP3   OH220363   0.304   4.085   6.164
 6807TIP3    H120364   0.317   4.002   6.118
 6807TIP3    H220365   0.344   4.070   6.250
 6808TIP3   OH220366   7.088   7.584   3.932
 6808TIP3    H120367   7.153   7.654   3.928
 6808TIP3    H220368   7.047   7.584   3.845
 6809TIP3   OH220369   6.951   0.499   5.059
 6809TIP3    H120370   6.919   0.484   5.148
 6809TIP3    H220371   7.014   0.571   5.068
 6810TIP3   OH220372   1.376   4.865   1.047
 6810TIP3    H120373   1.312   4.799   1.018
 6810TIP3    H220374   1.420   4.824   1.122
 6811TIP3   OH220375   8.214   3.146   3.732
 6811TIP3    H120376   8.281   3.192   3.782
 6811TIP3    H220377   8.235   3.054   3.742
 6812TIP3   OH220378   0.043   1.960   6.082
 6812TIP3    H120379  -0.011   1.884   6.057
 6812TIP3    H220380   0.033   2.021   6.009
 6813TIP3   OH220381   5.289   3.404   2.128
 6813TIP3    H120382   5.278   3.350   2.207
 6813TIP3    H220383   5.308   3.341   2.058
 6814TIP3   OH220384   2.390   1.869   3.826
 6814TIP3    H120385   2.348   1.803   3.772
 6814TIP3    H220386   2.433   1.928   3.764
 6815TIP3   OH220387   4.708   0.311   1.659
 6815TIP3    H120388   4.673   0.398   1.639
 6815TIP3    H220389   4.789   0.328   1.707
 6816TIP3   OH220390   6.192   0.649   0.758
 6816TIP3    H120391   6.130   0.704   0.709
 6816TIP3    H220392   6.144   0.623   0.836
 6817TIP3   OH220393   0.090   0.084   1.293
 6817TIP3    H120394   0.003   0.120   1.277
 6817TIP3    H220395   0.141   0.111   1.216
 6818TIP3   OH220396   7.619   6.837   2.688
 6818TIP3    H120397   7.670   6.868   2.763
 6818TIP3    H220398   7.532   6.821   2.723
 6819TIP3   OH220399   5.781   4.686   4.439
 6819TIP3    H120400   5.871   4.659   4.425
 6819TIP3    H220401   5.783   4.782   4.432
 6820TIP3   OH220402   4.204   0.329   5.615
 6820TIP3    H120403   4.282   0.315   5.561
 6820TIP3    H220404   4.149   0.386   5.563
 6821TIP3   OH220405   5.091   5.213   4.648
 6821TIP3    H120406   5.130   5.165   4.574
 6821TIP3    H220407   5.122   5.166   4.726
 6822TIP3   OH220408   8.018   0.125   4.221
 6822TIP3    H120409   8.035   0.116   4.127
 6822TIP3    H220410   8.078   0.193   4.250
 6823TIP3   OH220411   0.661   7.147   2.303
 6823TIP3    H120412   0.698   7.234   2.288
 6823TIP3    H220413   0.663   7.137   2.398
 6824TIP3   OH220414   1.143   4.256   3.799
 6824TIP3    H120415   1.124   4.299   3.883
 6824TIP3    H220416   1.198   4.182   3.822
 6825TIP3   OH220417   5.313   2.140   0.062
 6825TIP3    H120418   5.261   2.219   0.073
 6825TIP3    H220419   5.404   2.170   0.064
 6826TIP3   OH220420   2.814   4.716   5.698
 6826TIP3    H120421   2.732   4.743   5.657
 6826TIP3    H220422   2.874   4.789   5.682
 6827TIP3   OH220423   6.008   5.069   2.222
 6827TIP3    H120424   6.020   5.115   2.305
 6827TIP3    H220425   6.029   5.135   2.155
 6828TIP3   OH220426   7.758   3.161   2.351
 6828TIP3    H120427   7.750   3.253   2.327
 6828TIP3    H220428   7.705   3.152   2.430
 6829TIP3   OH220429   4.312   0.648   2.594
 6829TIP3    H120430   4.384   0.686   2.543
 6829TIP3    H220431   4.355   0.587   2.654
 6830TIP3   OH220432   2.227   5.938   5.986
 6830TIP3    H120433   2.211   5.925   6.080
 6830TIP3    H220434   2.169   5.874   5.943
 6831TIP3   OH220435   0.173   5.000   2.668
 6831TIP3    H120436   0.257   5.023   2.709
 6831TIP3    H220437   0.169   5.054   2.590
 6832TIP3   OH220438   0.151   0.576   1.113
 6832TIP3    H120439   0.128   0.532   1.031
 6832TIP3    H220440   0.229   0.627   1.091
 6833TIP3   OH220441   2.770   4.113   5.423
 6833TIP3    H120442   2.779   4.169   5.346
 6833TIP3    H220443   2.725   4.168   5.487
 6834TIP3   OH220444   7.287   7.593   6.159
 6834TIP3    H120445   7.231   7.667   6.137
 6834TIP3    H220446   7.230   7.531   6.204
 6835TIP3   OH220447   7.933   5.824   2.368
 6835TIP3    H120448   7.886   5.806   2.286
 6835TIP3    H220449   7.929   5.742   2.416
 6836TIP3   OH220450   0.826   5.554   6.573
 6836TIP3    H120451   0.847   5.461   6.572
 6836TIP3    H220452   0.908   5.598   6.554
 6837TIP3   OH220453   8.030   2.640   1.530
 6837TIP3    H120454   8.111   2.634   1.579
 6837TIP3    H220455   8.056   2.632   1.438
 6838TIP3   OH220456   1.984   6.796   5.103
 6838TIP3    H120457   2.005   6.765   5.191
 6838TIP3    H220458   1.901   6.755   5.082
 6839TIP3   OH220459   0.287   2.833   4.128
 6839TIP3    H120460   0.273   2.738   4.120
 6839TIP3    H220461   0.230   2.859   4.200
 6840TIP3   OH220462   6.153   3.407   0.743
 6840TIP3    H120463   6.140   3.409   0.648
 6840TIP3    H220464   6.112   3.325   0.771
 6841TIP3   OH220465   1.318   1.314   1.124
 6841TIP3    H120466   1.279   1.240   1.078
 6841TIP3    H220467   1.369   1.275   1.195
 6842TIP3   OH220468   6.828   2.950   4.276
 6842TIP3    H120469   6.747   2.994   4.251
 6842TIP3    H220470   6.800   2.867   4.316
 6843TIP3   OH220471   4.543   5.089   0.981
 6843TIP3    H120472   4.469   5.079   1.041
 6843TIP3    H220473   4.521   5.034   0.906
 6844TIP3   OH220474   4.974   4.734   0.803
 6844TIP3    H120475   5.045   4.718   0.864
 6844TIP3    H220476   5.016   4.741   0.717
 6845TIP3   OH220477   5.932   1.696   0.863
 6845TIP3    H120478   5.923   1.760   0.934
 6845TIP3    H220479   6.007   1.642   0.888
 6846TIP3   OH220480   6.632   6.833   4.518
 6846TIP3    H120481   6.585   6.774   4.578
 6846TIP3    H220482   6.706   6.781   4.487
 6847TIP3   OH220483   6.860   2.305   5.207
 6847TIP3    H120484   6.936   2.331   5.259
 6847TIP3    H220485   6.798   2.270   5.270
 6848TIP3   OH220486   4.371   2.673   5.190
 6848TIP3    H120487   4.412   2.747   5.147
 6848TIP3    H220488   4.385   2.599   5.131
 6849TIP3   OH220489   5.700   5.733   6.386
 6849TIP3    H120490   5.781   5.780   6.403
 6849TIP3    H220491   5.650   5.791   6.329
 6850TIP3   OH220492   2.342   1.100   1.236
 6850TIP3    H120493   2.261   1.067   1.276
 6850TIP3    H220494   2.333   1.195   1.239
 6851TIP3   OH220495   6.923   6.237   6.595
 6851TIP3    H120496   6.890   6.283   6.672
 6851TIP3    H220497   6.888   6.148   6.602
 6852TIP3   OH220498   2.513   2.123   1.393
 6852TIP3    H120499   2.558   2.208   1.390
 6852TIP3    H220500   2.421   2.145   1.402
 6853TIP3   OH220501   3.702   2.741   5.148
 6853TIP3    H120502   3.763   2.775   5.082
 6853TIP3    H220503   3.723   2.790   5.227
 6854TIP3   OH220504   0.597   4.674   1.356
 6854TIP3    H120505   0.651   4.749   1.329
 6854TIP3    H220506   0.659   4.602   1.365
 6855TIP3   OH220507   3.082   2.065   1.551
 6855TIP3    H120508   3.025   2.132   1.589
 6855TIP3    H220509   3.076   1.991   1.611
 6856TIP3   OH220510   6.371   0.219   1.962
 6856TIP3    H120511   6.382   0.307   1.997
 6856TIP3    H220512   6.276   0.207   1.956
 6857TIP3   OH220513   7.852   5.021   0.620
 6857TIP3    H120514   7.891   5.108   0.605
 6857TIP3    H220515   7.844   4.983   0.532
 6858TIP3   OH220516   0.226   3.423   5.828
 6858TIP3    H120517   0.198   3.332   5.823
 6858TIP3    H220518   0.319   3.421   5.802
 6859TIP3   OH220519   7.712   7.001   3.936
 6859TIP3    H120520   7.727   7.079   3.883
 6859TIP3    H220521   7.710   7.033   4.026
 6860TIP3   OH220522   6.057   2.069   5.353
 6860TIP3    H120523   6.012   2.032   5.277
 6860TIP3    H220524   6.010   2.033   5.428
 6861TIP3   OH220525   1.299   0.449   3.843
 6861TIP3    H120526   1.242   0.499   3.786
 6861TIP3    H220527   1.386   0.488   3.830
 6862TIP3   OH220528   3.126   3.045   4.971
 6862TIP3    H120529   3.109   3.051   5.065
 6862TIP3    H220530   3.082   2.964   4.944
 6863TIP3   OH220531   3.320   4.423   3.269
 6863TIP3    H120532   3.309   4.444   3.362
 6863TIP3    H220533   3.230   4.411   3.237
 6864TIP3   OH220534   6.865   6.233   3.636
 6864TIP3    H120535   6.843   6.265   3.723
 6864TIP3    H220536   6.953   6.197   3.645
 6865TIP3   OH220537   7.946   0.653   6.006
 6865TIP3    H120538   8.010   0.589   6.038
 6865TIP3    H220539   7.931   0.711   6.080
 6866TIP3   OH220540   0.764   2.217   1.148
 6866TIP3    H120541   0.704   2.143   1.141
 6866TIP3    H220542   0.764   2.256   1.060
 6867TIP3   OH220543   4.929   5.698   3.505
 6867TIP3    H120544   4.947   5.748   3.584
 6867TIP3    H220545   4.858   5.746   3.461
 6868TIP3   OH220546   3.015   3.149   3.701
 6868TIP3    H120547   2.991   3.115   3.788
 6868TIP3    H220548   3.069   3.080   3.663
 6869TIP3   OH220549   4.066   3.842   6.314
 6869TIP3    H120550   4.135   3.800   6.264
 6869TIP3    H220551   3.988   3.833   6.260
 6870TIP3   OH220552   0.589   0.253   5.330
 6870TIP3    H120553   0.650   0.232   5.400
 6870TIP3    H220554   0.645   0.274   5.255
 6871TIP3   OH220555   4.639   2.306   1.109
 6871TIP3    H120556   4.548   2.280   1.094
 6871TIP3    H220557   4.682   2.296   1.025
 6872TIP3   OH220558   7.405   2.645   0.063
 6872TIP3    H120559   7.431   2.571   0.118
 6872TIP3    H220560   7.394   2.608  -0.024
 6873TIP3   OH220561   2.256   1.815   2.254
 6873TIP3    H120562   2.343   1.820   2.293
 6873TIP3    H220563   2.255   1.886   2.189
 6874TIP3   OH220564   3.631   2.381   3.160
 6874TIP3    H120565   3.614   2.291   3.188
 6874TIP3    H220566   3.672   2.422   3.236
 6875TIP3   OH220567   4.216   7.027   0.129
 6875TIP3    H120568   4.152   7.079   0.080
 6875TIP3    H220569   4.246   7.085   0.198
 6876TIP3   OH220570   8.039   3.163   2.570
 6876TIP3    H120571   8.063   3.250   2.541
 6876TIP3    H220572   8.033   3.111   2.490
 6877TIP3   OH220573   1.960   3.997   6.537
 6877TIP3    H120574   1.952   4.090   6.516
 6877TIP3    H220575   1.890   3.980   6.600
 6878TIP3   OH220576   7.132   4.935   6.719
 6878TIP3    H120577   7.106   4.973   6.802
 6878TIP3    H220578   7.212   4.887   6.739
 6879TIP3   OH220579   5.285   3.513   0.347
 6879TIP3    H120580   5.201   3.468   0.351
 6879TIP3    H220581   5.312   3.505   0.256
 6880TIP3   OH220582   3.011   4.669   3.690
 6880TIP3    H120583   2.955   4.621   3.751
 6880TIP3    H220584   3.017   4.613   3.613
 6881TIP3   OH220585   4.930   0.561   3.380
 6881TIP3    H120586   4.966   0.612   3.452
 6881TIP3    H220587   4.860   0.509   3.421
 6882TIP3   OH220588   3.914   6.561   2.348
 6882TIP3    H120589   3.825   6.579   2.378
 6882TIP3    H220590   3.924   6.466   2.361
 6883TIP3   OH220591   3.596   4.715   4.603
 6883TIP3    H120592   3.509   4.726   4.640
 6883TIP3    H220593   3.616   4.799   4.562
 6884TIP3   OH220594   5.981   4.786   1.545
 6884TIP3    H120595   6.038   4.711   1.559
 6884TIP3    H220596   5.933   4.765   1.465
 6885TIP3   OH220597   8.039   6.384   4.539
 6885TIP3    H120598   8.037   6.291   4.561
 6885TIP3    H220599   8.121   6.416   4.576
 6886TIP3   OH220600   7.110   6.555   6.780
 6886TIP3    H120601   7.048   6.539   6.709
 6886TIP3    H220602   7.182   6.603   6.739
 6887TIP3   OH220603   0.341   5.937   2.589
 6887TIP3    H120604   0.284   5.860   2.586
 6887TIP3    H220605   0.313   5.984   2.667
 6888TIP3   OH220606   6.561   1.040   1.110
 6888TIP3    H120607   6.513   1.023   1.029
 6888TIP3    H220608   6.650   1.062   1.081
 6889TIP3   OH220609   3.130   7.091   0.592
 6889TIP3    H120610   3.041   7.117   0.566
 6889TIP3    H220611   3.123   6.999   0.616
 6890TIP3   OH220612   7.178   0.513   1.679
 6890TIP3    H120613   7.123   0.435   1.674
 6890TIP3    H220614   7.234   0.498   1.755
 6891TIP3   OH220615   0.123   1.519   1.448
 6891TIP3    H120616   0.122   1.551   1.538
 6891TIP3    H220617   0.212   1.485   1.436
 6892TIP3   OH220618   0.786   4.134   4.049
 6892TIP3    H120619   0.707   4.146   4.102
 6892TIP3    H220620   0.757   4.148   3.959
 6893TIP3   OH220621   1.359   6.807   2.847
 6893TIP3    H120622   1.368   6.806   2.943
 6893TIP3    H220623   1.307   6.729   2.827
 6894TIP3   OH220624   0.021   1.185   6.267
 6894TIP3    H120625   0.027   1.229   6.352
 6894TIP3    H220626   0.112   1.172   6.240
 6895TIP3   OH220627   5.051   0.085   5.737
 6895TIP3    H120628   4.980   0.124   5.788
 6895TIP3    H220629   5.021  -0.004   5.718
 6896TIP3   OH220630   1.200   0.097   6.117
 6896TIP3    H120631   1.155   0.014   6.101
 6896TIP3    H220632   1.259   0.107   6.042
 6897TIP3   OH220633   5.901   5.678   5.715
 6897TIP3    H120634   5.879   5.614   5.647
 6897TIP3    H220635   5.826   5.738   5.716
 6898TIP3   OH220636   7.335   0.657   0.193
 6898TIP3    H120637   7.358   0.589   0.130
 6898TIP3    H220638   7.355   0.739   0.147
 6899TIP3   OH220639   0.458   4.959   2.418
 6899TIP3    H120640   0.390   5.025   2.406
 6899TIP3    H220641   0.410   4.878   2.434
 6900TIP3   OH220642   0.436   5.106   2.743
 6900TIP3    H120643   0.504   5.042   2.766
 6900TIP3    H220644   0.442   5.173   2.811
 6901TIP3   OH220645   5.388   0.768   1.801
 6901TIP3    H120646   5.430   0.797   1.719
 6901TIP3    H220647   5.461   0.752   1.861
 6902TIP3   OH220648   6.220   3.458   2.702
 6902TIP3    H120649   6.302   3.501   2.726
 6902TIP3    H220650   6.213   3.471   2.607
 6903TIP3   OH220651   6.927   7.353   6.512
 6903TIP3    H120652   6.970   7.421   6.563
 6903TIP3    H220653   6.927   7.386   6.422
 6904TIP3   OH220654   6.531   7.348   4.266
 6904TIP3    H120655   6.492   7.324   4.351
 6904TIP3    H220656   6.570   7.268   4.234
 6905TIP3   OH220657   7.246   5.644   4.734
 6905TIP3    H120658   7.226   5.570   4.677
 6905TIP3    H220659   7.208   5.621   4.819
 6906TIP3   OH220660   1.612   4.691   0.511
 6906TIP3    H120661   1.619   4.598   0.535
 6906TIP3    H220662   1.518   4.704   0.494
 6907TIP3   OH220663   3.785   5.448   2.268
 6907TIP3    H120664   3.812   5.530   2.227
 6907TIP3    H220665   3.842   5.440   2.345
 6908TIP3   OH220666   5.582   1.385   0.315
 6908TIP3    H120667   5.538   1.302   0.299
 6908TIP3    H220668   5.511   1.447   0.333
 6909TIP3   OH220669   6.997   0.268   1.664
 6909TIP3    H120670   6.992   0.219   1.745
 6909TIP3    H220671   6.964   0.208   1.597
 6910TIP3   OH220672   7.803   4.848   3.291
 6910TIP3    H120673   7.783   4.941   3.299
 6910TIP3    H220674   7.718   4.805   3.282
 6911TIP3   OH220675   4.387   5.778   6.070
 6911TIP3    H120676   4.294   5.784   6.049
 6911TIP3    H220677   4.393   5.712   6.139
 6912TIP3   OH220678   7.020   5.925   3.329
 6912TIP3    H120679   7.076   6.001   3.311
 6912TIP3    H220680   6.947   5.934   3.267
 6913TIP3   OH220681   1.905   5.206   1.707
 6913TIP3    H120682   1.823   5.229   1.751
 6913TIP3    H220683   1.942   5.135   1.760
 6914TIP3   OH220684   2.847   7.330   3.488
 6914TIP3    H120685   2.754   7.310   3.478
 6914TIP3    H220686   2.888   7.295   3.409
 6915TIP3   OH220687   7.598   4.149   5.218
 6915TIP3    H120688   7.583   4.156   5.312
 6915TIP3    H220689   7.567   4.231   5.182
 6916TIP3   OH220690   6.630   5.544   3.533
 6916TIP3    H120691   6.580   5.565   3.455
 6916TIP3    H220692   6.700   5.486   3.502
 6917TIP3   OH220693   3.917   7.342   2.934
 6917TIP3    H120694   3.826   7.358   2.907
 6917TIP3    H220695   3.933   7.404   3.004
 6918TIP3   OH220696   7.752   7.093   3.118
 6918TIP3    H120697   7.690   7.091   3.045
 6918TIP3    H220698   7.832   7.130   3.081
 6919TIP3   OH220699   8.064   6.118   4.566
 6919TIP3    H120700   8.021   6.033   4.557
 6919TIP3    H220701   8.067   6.133   4.661
 6920TIP3   OH220702   6.712   6.003   1.690
 6920TIP3    H120703   6.727   5.957   1.773
 6920TIP3    H220704   6.775   6.075   1.691
 6921TIP3   OH220705   7.553   7.458   0.444
 6921TIP3    H120706   7.632   7.485   0.398
 6921TIP3    H220707   7.496   7.535   0.442
 6922TIP3   OH220708   4.901   3.064   5.888
 6922TIP3    H120709   4.934   3.018   5.812
 6922TIP3    H220710   4.826   3.114   5.855
 6923TIP3   OH220711   0.643   7.696   3.701
 6923TIP3    H120712   0.625   7.758   3.630
 6923TIP3    H220713   0.594   7.731   3.775
 6924TIP3   OH220714   7.007   5.669   0.486
 6924TIP3    H120715   7.076   5.617   0.528
 6924TIP3    H220716   7.029   5.760   0.507
 6925TIP3   OH220717   6.974   6.610   5.728
 6925TIP3    H120718   6.879   6.618   5.730
 6925TIP3    H220719   6.997   6.571   5.813
 6926TIP3   OH220720   6.974   0.864   5.181
 6926TIP3    H120721   6.922   0.944   5.187
 6926TIP3    H220722   6.970   0.839   5.089
 6927TIP3   OH220723   5.259   7.235   3.715
 6927TIP3    H120724   5.182   7.179   3.730
 6927TIP3    H220725   5.320   7.178   3.667
 6928TIP3   OH220726   6.058   1.264   6.652
 6928TIP3    H120727   6.009   1.280   6.571
 6928TIP3    H220728   6.106   1.346   6.667
 6929TIP3   OH220729   6.092   0.070   2.723
 6929TIP3    H120730   6.100   0.098   2.815
 6929TIP3    H220731   5.998   0.072   2.706
 6930TIP3   OH220732   0.929   1.564   2.237
 6930TIP3    H120733   0.921   1.515   2.155
 6930TIP3    H220734   1.023   1.571   2.252
 6931TIP3   OH220735   0.689   5.510   1.072
 6931TIP3    H120736   0.633   5.583   1.100
 6931TIP3    H220737   0.743   5.547   1.003
 6932TIP3   OH220738   3.270   2.166   5.957
 6932TIP3    H120739   3.323   2.207   5.889
 6932TIP3    H220740   3.333   2.140   6.024
 6933TIP3   OH220741   0.854   1.660   1.106
 6933TIP3    H120742   0.784   1.714   1.070
 6933TIP3    H220743   0.877   1.599   1.035
 6934TIP3   OH220744   6.978   4.283   2.930
 6934TIP3    H120745   6.913   4.253   2.993
 6934TIP3    H220746   6.936   4.356   2.885
 6935TIP3   OH220747   2.957   0.397   4.924
 6935TIP3    H120748   2.940   0.425   4.834
 6935TIP3    H220749   3.042   0.436   4.946
 6936TIP3   OH220750   5.020   3.426   4.180
 6936TIP3    H120751   5.067   3.366   4.238
 6936TIP3    H220752   5.073   3.428   4.100
 6937TIP3   OH220753   0.201   2.191   2.370
 6937TIP3    H120754   0.189   2.120   2.432
 6937TIP3    H220755   0.293   2.187   2.346
 6938TIP3   OH220756   1.520   4.864   3.801
 6938TIP3    H120757   1.586   4.819   3.749
 6938TIP3    H220758   1.453   4.891   3.738
 6939TIP3   OH220759   7.937   7.792   4.797
 6939TIP3    H120760   7.938   7.862   4.732
 6939TIP3    H220761   7.897   7.831   4.875
 6940TIP3   OH220762   5.174   7.226   4.428
 6940TIP3    H120763   5.157   7.282   4.504
 6940TIP3    H220764   5.262   7.191   4.443
 6941TIP3   OH220765   7.988   5.310   5.683
 6941TIP3    H120766   7.953   5.243   5.741
 6941TIP3    H220767   8.074   5.330   5.718
 6942TIP3   OH220768   6.559   5.258   2.344
 6942TIP3    H120769   6.643   5.292   2.376
 6942TIP3    H220770   6.553   5.291   2.255
 6943TIP3   OH220771   2.195   5.632   5.873
 6943TIP3    H120772   2.108   5.640   5.912
 6943TIP3    H220773   2.178   5.618   5.780
 6944TIP3   OH220774   0.205   6.502   0.254
 6944TIP3    H120775   0.244   6.550   0.182
 6944TIP3    H220776   0.166   6.424   0.213
 6945TIP3   OH220777   2.764   6.618   4.503
 6945TIP3    H120778   2.671   6.631   4.485
 6945TIP3    H220779   2.778   6.524   4.492
 6946TIP3   OH220780   3.805   3.144   5.203
 6946TIP3    H120781   3.814   3.063   5.252
 6946TIP3    H220782   3.841   3.211   5.261
 6947TIP3   OH220783   0.531   6.066   1.214
 6947TIP3    H120784   0.534   6.154   1.253
 6947TIP3    H220785   0.456   6.070   1.154
 6948TIP3   OH220786   8.092   1.647   2.353
 6948TIP3    H120787   8.081   1.651   2.258
 6948TIP3    H220788   8.071   1.736   2.383
 6949TIP3   OH220789   8.024   3.896   0.620
 6949TIP3    H120790   8.118   3.889   0.635
 6949TIP3    H220791   7.999   3.812   0.582
 6950TIP3   OH220792   4.055   0.256   3.980
 6950TIP3    H120793   4.124   0.303   3.934
 6950TIP3    H220794   4.004   0.324   4.024
 6951TIP3   OH220795   6.698   2.472   1.149
 6951TIP3    H120796   6.712   2.377   1.145
 6951TIP3    H220797   6.690   2.498   1.057
 6952TIP3   OH220798   6.290   5.834   6.569
 6952TIP3    H120799   6.266   5.910   6.622
 6952TIP3    H220800   6.261   5.758   6.620
 6953TIP3   OH220801   6.026   7.312   0.483
 6953TIP3    H120802   5.975   7.259   0.421
 6953TIP3    H220803   6.113   7.272   0.482
 6954TIP3   OH220804   5.219   2.354   4.126
 6954TIP3    H120805   5.191   2.444   4.142
 6954TIP3    H220806   5.148   2.300   4.161
 6955TIP3   OH220807   8.250   0.419   3.959
 6955TIP3    H120808   8.342   0.404   3.978
 6955TIP3    H220809   8.248   0.504   3.916
 6956TIP3   OH220810   1.079   5.960   3.956
 6956TIP3    H120811   1.130   5.941   3.877
 6956TIP3    H220812   0.991   5.925   3.936
 6957TIP3   OH220813   7.080   0.745   3.177
 6957TIP3    H120814   7.076   0.724   3.271
 6957TIP3    H220815   7.097   0.661   3.134
 6958TIP3   OH220816   4.047   4.141   3.952
 6958TIP3    H120817   4.125   4.101   3.915
 6958TIP3    H220818   4.005   4.185   3.878
 6959TIP3   OH220819   4.270   1.027   4.066
 6959TIP3    H120820   4.245   1.108   4.111
 6959TIP3    H220821   4.315   0.975   4.132
 6960TIP3   OH220822   4.541   1.663   1.570
 6960TIP3    H120823   4.465   1.719   1.555
 6960TIP3    H220824   4.551   1.661   1.665
 6961TIP3   OH220825   5.983   5.131   0.997
 6961TIP3    H120826   6.071   5.168   0.993
 6961TIP3    H220827   5.984   5.076   1.076
 6962TIP3   OH220828   6.088   0.728   3.442
 6962TIP3    H120829   6.084   0.779   3.523
 6962TIP3    H220830   6.003   0.685   3.437
 6963TIP3   OH220831   6.083   7.519   5.277
 6963TIP3    H120832   6.049   7.604   5.250
 6963TIP3    H220833   6.178   7.532   5.283
 6964TIP3   OH220834   2.003   3.652   4.020
 6964TIP3    H120835   2.003   3.665   3.925
 6964TIP3    H220836   1.980   3.560   4.032
 6965TIP3   OH220837   0.187   3.865   0.164
 6965TIP3    H120838   0.235   3.821   0.234
 6965TIP3    H220839   0.230   3.950   0.155
 6966TIP3   OH220840   5.606   3.978   6.522
 6966TIP3    H120841   5.575   3.919   6.454
 6966TIP3    H220842   5.573   3.940   6.604
 6967TIP3   OH220843   7.921   2.631   0.256
 6967TIP3    H120844   7.998   2.657   0.206
 6967TIP3    H220845   7.851   2.687   0.224
 6968TIP3   OH220846   2.153   2.639   0.266
 6968TIP3    H120847   2.239   2.643   0.225
 6968TIP3    H220848   2.092   2.664   0.196
 6969TIP3   OH220849   2.264   2.058   2.094
 6969TIP3    H120850   2.182   2.047   2.047
 6969TIP3    H220851   2.308   2.130   2.049
 6970TIP3   OH220852   2.568   0.634   1.933
 6970TIP3    H120853   2.533   0.696   1.998
 6970TIP3    H220854   2.499   0.626   1.868
 6971TIP3   OH220855   4.911   4.382   4.613
 6971TIP3    H120856   5.005   4.392   4.624
 6971TIP3    H220857   4.873   4.460   4.655
 6972TIP3   OH220858   2.367   0.208   6.427
 6972TIP3    H120859   2.461   0.225   6.423
 6972TIP3    H220860   2.326   0.292   6.404
 6973TIP3   OH220861   7.199   5.487   3.256
 6973TIP3    H120862   7.163   5.564   3.211
 6973TIP3    H220863   7.288   5.511   3.278
 6974TIP3   OH220864   0.351   5.465   5.094
 6974TIP3    H120865   0.376   5.447   5.185
 6974TIP3    H220866   0.358   5.380   5.050
 6975TIP3   OH220867   2.975   0.339   1.957
 6975TIP3    H120868   2.922   0.322   1.879
 6975TIP3    H220869   2.966   0.260   2.009
 6976TIP3   OH220870   0.477   7.209   4.037
 6976TIP3    H120871   0.397   7.167   4.004
 6976TIP3    H220872   0.446   7.286   4.085
 6977TIP3   OH220873   5.374   7.232   2.888
 6977TIP3    H120874   5.394   7.308   2.942
 6977TIP3    H220875   5.416   7.158   2.933
 6978TIP3   OH220876   2.713   2.707   3.221
 6978TIP3    H120877   2.702   2.722   3.127
 6978TIP3    H220878   2.687   2.790   3.262
 6979TIP3   OH220879   6.472   0.625   2.220
 6979TIP3    H120880   6.426   0.552   2.261
 6979TIP3    H220881   6.485   0.599   2.129
 6980TIP3   OH220882   5.942   0.354   4.895
 6980TIP3    H120883   5.946   0.299   4.817
 6980TIP3    H220884   5.863   0.325   4.941
 6981TIP3   OH220885   2.832   0.673   1.998
 6981TIP3    H120886   2.825   0.762   2.032
 6981TIP3    H220887   2.743   0.650   1.970
 6982TIP3   OH220888   4.084   5.795   6.176
 6982TIP3    H120889   4.020   5.728   6.199
 6982TIP3    H220890   4.121   5.823   6.260
 6983TIP3   OH220891   5.765   6.114   6.039
 6983TIP3    H120892   5.710   6.128   5.961
 6983TIP3    H220893   5.853   6.101   6.004
 6984TIP3   OH220894   5.197   6.377   2.509
 6984TIP3    H120895   5.260   6.447   2.492
 6984TIP3    H220896   5.218   6.345   2.596
 6985TIP3   OH220897   1.879   4.713   0.452
 6985TIP3    H120898   1.853   4.797   0.415
 6985TIP3    H220899   1.799   4.660   0.451
 6986TIP3   OH220900   4.972   7.548   2.512
 6986TIP3    H120901   4.945   7.633   2.546
 6986TIP3    H220902   4.976   7.560   2.417
 6987TIP3   OH220903   5.326   6.749   1.505
 6987TIP3    H120904   5.373   6.795   1.574
 6987TIP3    H220905   5.264   6.693   1.552
 6988TIP3   OH220906   4.758   3.364   4.802
 6988TIP3    H120907   4.750   3.333   4.712
 6988TIP3    H220908   4.844   3.408   4.805
 6989TIP3   OH220909   0.496   7.620   5.411
 6989TIP3    H120910   0.557   7.672   5.463
 6989TIP3    H220911   0.427   7.596   5.472
 6990TIP3   OH220912   1.001   0.685   4.676
 6990TIP3    H120913   1.075   0.666   4.618
 6990TIP3    H220914   1.033   0.663   4.764
 6991TIP3   OH220915   6.383   3.074   3.702
 6991TIP3    H120916   6.469   3.109   3.725
 6991TIP3    H220917   6.321   3.134   3.742
 6992TIP3   OH220918   7.515   0.472   5.501
 6992TIP3    H120919   7.566   0.398   5.533
 6992TIP3    H220920   7.542   0.546   5.555
 6993TIP3   OH220921   6.547   0.982   2.809
 6993TIP3    H120922   6.482   0.916   2.832
 6993TIP3    H220923   6.631   0.936   2.816
 6994TIP3   OH220924   4.548   0.770   4.968
 6994TIP3    H120925   4.456   0.793   4.981
 6994TIP3    H220926   4.595   0.852   4.980
 6995TIP3   OH220927   5.836   1.334   2.355
 6995TIP3    H120928   5.889   1.254   2.360
 6995TIP3    H220929   5.859   1.383   2.433
 6996TIP3   OH220930   0.884   6.304   2.503
 6996TIP3    H120931   0.793   6.277   2.520
 6996TIP3    H220932   0.903   6.268   2.416
 6997TIP3   OH220933   1.834   5.988   6.655
 6997TIP3    H120934   1.919   5.966   6.618
 6997TIP3    H220935   1.774   5.987   6.580
 6998TIP3   OH220936   5.392   0.813   2.969
 6998TIP3    H120937   5.350   0.887   2.925
 6998TIP3    H220938   5.332   0.740   2.954
 6999TIP3   OH220939   6.585   2.412   2.062
 6999TIP3    H120940   6.664   2.448   2.021
 6999TIP3    H220941   6.588   2.445   2.152
 7000TIP3   OH220942   1.172   4.035   4.852
 7000TIP3    H120943   1.204   4.029   4.762
 7000TIP3    H220944   1.206   3.956   4.894
 7001TIP3   OH220945   5.452   1.090   6.358
 7001TIP3    H120946   5.474   1.169   6.308
 7001TIP3    H220947   5.357   1.083   6.350
 7002TIP3   OH220948   8.187   7.203   2.826
 7002TIP3    H120949   8.260   7.166   2.877
 7002TIP3    H220950   8.222   7.211   2.737
 7003TIP3   OH220951   3.537   1.557   2.793
 7003TIP3    H120952   3.595   1.560   2.869
 7003TIP3    H220953   3.494   1.643   2.793
 7004TIP3   OH220954   2.079   4.944   1.363
 7004TIP3    H120955   1.991   4.918   1.391
 7004TIP3    H220956   2.097   5.025   1.411
 7005TIP3   OH220957   1.461   4.221   3.973
 7005TIP3    H120958   1.510   4.236   3.891
 7005TIP3    H220959   1.394   4.157   3.949
 7006TIP3   OH220960   2.203   5.334   6.155
 7006TIP3    H120961   2.169   5.390   6.085
 7006TIP3    H220962   2.192   5.245   6.122
 7007TIP3   OH220963   1.614   0.195   5.759
 7007TIP3    H120964   1.583   0.129   5.698
 7007TIP3    H220965   1.708   0.199   5.746
 7008TIP3   OH220966   7.616   4.502   6.328
 7008TIP3    H120967   7.610   4.585   6.280
 7008TIP3    H220968   7.571   4.520   6.411
 7009TIP3   OH220969   4.398   3.156   5.521
 7009TIP3    H120970   4.378   3.237   5.474
 7009TIP3    H220971   4.371   3.087   5.461
 7010TIP3   OH220972   3.335   0.885   5.108
 7010TIP3    H120973   3.387   0.964   5.126
 7010TIP3    H220974   3.346   0.832   5.187
 7011TIP3   OH220975   4.792   3.354   2.518
 7011TIP3    H120976   4.822   3.336   2.607
 7011TIP3    H220977   4.735   3.431   2.526
 7012TIP3   OH220978   7.419   5.869   5.461
 7012TIP3    H120979   7.356   5.913   5.518
 7012TIP3    H220980   7.473   5.940   5.426
 7013TIP3   OH220981   5.492   3.535   2.351
 7013TIP3    H120982   5.522   3.536   2.442
 7013TIP3    H220983   5.400   3.560   2.357
 7014TIP3   OH220984   7.066   5.638   1.852
 7014TIP3    H120985   7.149   5.628   1.899
 7014TIP3    H220986   7.073   5.725   1.811
 7015TIP3   OH220987   5.483   4.657   6.138
 7015TIP3    H120988   5.463   4.735   6.087
 7015TIP3    H220989   5.419   4.592   6.109
 7016TIP3   OH220990   3.717   0.339   1.173
 7016TIP3    H120991   3.715   0.382   1.258
 7016TIP3    H220992   3.791   0.279   1.177
 7017TIP3   OH220993   7.289   7.237   1.616
 7017TIP3    H120994   7.201   7.247   1.653
 7017TIP3    H220995   7.275   7.236   1.521
 7018TIP3   OH220996   5.904   1.933   0.230
 7018TIP3    H120997   5.871   1.965   0.146
 7018TIP3    H220998   5.835   1.955   0.292
 7019TIP3   OH220999   1.918   7.078   0.259
 7019TIP3    H121000   1.958   7.085   0.173
 7019TIP3    H221001   1.825   7.093   0.244
 7020TIP3   OH221002   7.519   7.321   6.097
 7020TIP3    H121003   7.495   7.272   6.176
 7020TIP3    H221004   7.553   7.255   6.037
 7021TIP3   OH221005   7.768   5.815   2.159
 7021TIP3    H121006   7.768   5.734   2.108
 7021TIP3    H221007   7.682   5.817   2.201
 7022TIP3   OH221008   0.606   0.616   6.434
 7022TIP3    H121009   0.687   0.618   6.485
 7022TIP3    H221010   0.563   0.535   6.462
 7023TIP3   OH221011   1.607   1.506   0.179
 7023TIP3    H121012   1.655   1.451   0.118
 7023TIP3    H221013   1.660   1.505   0.259
 7024TIP3   OH221014   6.497   2.606   0.503
 7024TIP3    H121015   6.583   2.565   0.510
 7024TIP3    H221016   6.444   2.543   0.456
 7025TIP3   OH221017   6.983   3.530   5.910
 7025TIP3    H121018   7.059   3.549   5.965
 7025TIP3    H221019   6.922   3.602   5.928
 7026TIP3   OH221020   5.908   0.713   2.612
 7026TIP3    H121021   5.942   0.802   2.624
 7026TIP3    H221022   5.816   0.726   2.589
 7027TIP3   OH221023   3.875   5.434   6.614
 7027TIP3    H121024   3.857   5.495   6.543
 7027TIP3    H221025   3.791   5.421   6.657
 7028TIP3   OH221026   5.899   4.885   5.231
 7028TIP3    H121027   5.934   4.962   5.276
 7028TIP3    H221028   5.970   4.821   5.235
 7029TIP3   OH221029   5.730   1.601   4.583
 7029TIP3    H121030   5.678   1.530   4.621
 7029TIP3    H221031   5.807   1.608   4.641
 7030TIP3   OH221032   1.093   3.301   1.955
 7030TIP3    H121033   1.066   3.382   1.998
 7030TIP3    H221034   1.160   3.264   2.014
 7031TIP3   OH221035   3.008   0.243   6.355
 7031TIP3    H121036   2.996   0.307   6.285
 7031TIP3    H221037   3.078   0.279   6.409
 7032TIP3   OH221038   7.379   1.134   2.525
 7032TIP3    H121039   7.327   1.103   2.599
 7032TIP3    H221040   7.333   1.212   2.495
 7033TIP3   OH221041   4.327   2.994   3.780
 7033TIP3    H121042   4.395   2.989   3.714
 7033TIP3    H221043   4.305   2.903   3.799
 7034TIP3   OH221044   0.454   6.714   4.770
 7034TIP3    H121045   0.526   6.679   4.823
 7034TIP3    H221046   0.457   6.808   4.786
 7035TIP3   OH221047   2.118   5.058   0.225
 7035TIP3    H121048   2.209   5.081   0.207
 7035TIP3    H221049   2.095   5.111   0.302
 7036TIP3   OH221050   5.404   4.909   1.397
 7036TIP3    H121051   5.324   4.874   1.435
 7036TIP3    H221052   5.472   4.888   1.461
 7037TIP3   OH221053   7.674   3.145   2.041
 7037TIP3    H121054   7.705   3.197   1.967
 7037TIP3    H221055   7.747   3.088   2.063
 7038TIP3   OH221056   4.278   1.300   0.408
 7038TIP3    H121057   4.236   1.275   0.326
 7038TIP3    H221058   4.264   1.225   0.466
 7039TIP3   OH221059   3.074   7.478   2.355
 7039TIP3    H121060   3.141   7.419   2.320
 7039TIP3    H221061   3.103   7.497   2.444
 7040TIP3   OH221062   7.951   6.624   5.787
 7040TIP3    H121063   8.010   6.549   5.798
 7040TIP3    H221064   8.010   6.700   5.786
 7041TIP3   OH221065   2.220   7.206   0.828
 7041TIP3    H121066   2.156   7.260   0.873
 7041TIP3    H221067   2.292   7.197   0.890
 7042TIP3   OH221068   4.923   4.025   0.698
 7042TIP3    H121069   4.926   4.079   0.619
 7042TIP3    H221070   4.871   3.949   0.673
 7043TIP3   OH221071   2.743   6.396   0.320
 7043TIP3    H121072   2.745   6.485   0.356
 7043TIP3    H221073   2.752   6.408   0.226
 7044TIP3   OH221074   1.657   5.713   5.144
 7044TIP3    H121075   1.569   5.741   5.171
 7044TIP3    H221076   1.713   5.738   5.217
 7045TIP3   OH221077   8.226   4.936   5.020
 7045TIP3    H121078   8.267   4.852   5.039
 7045TIP3    H221079   8.221   4.981   5.104
 7046TIP3   OH221080   0.451   1.738   5.844
 7046TIP3    H121081   0.391   1.669   5.815
 7046TIP3    H221082   0.413   1.770   5.926
 7047TIP3   OH221083   5.805   3.081   0.771
 7047TIP3    H121084   5.790   3.024   0.846
 7047TIP3    H221085   5.749   3.045   0.702
 7048TIP3   OH221086   1.525   7.220   5.871
 7048TIP3    H121087   1.500   7.310   5.892
 7048TIP3    H221088   1.521   7.216   5.775
 7049TIP3   OH221089   4.948   7.763   1.957
 7049TIP3    H121090   4.976   7.843   1.913
 7049TIP3    H221091   4.940   7.698   1.887
 7050TIP3   OH221092   7.823   3.782   6.310
 7050TIP3    H121093   7.823   3.872   6.277
 7050TIP3    H221094   7.744   3.743   6.271
 7051TIP3   OH221095   2.498   0.400   3.631
 7051TIP3    H121096   2.416   0.352   3.615
 7051TIP3    H221097   2.481   0.450   3.711
 7052TIP3   OH221098   0.833   1.933   2.514
 7052TIP3    H121099   0.809   1.893   2.430
 7052TIP3    H221100   0.857   1.859   2.570
 7053TIP3   OH221101   1.252   4.453   1.437
 7053TIP3    H121102   1.169   4.431   1.479
 7053TIP3    H221103   1.319   4.427   1.500
 7054TIP3   OH221104   2.741   0.994   2.815
 7054TIP3    H121105   2.791   0.986   2.896
 7054TIP3    H221106   2.655   0.958   2.836
 7055TIP3   OH221107   6.747   4.336   1.491
 7055TIP3    H121108   6.742   4.360   1.583
 7055TIP3    H221109   6.831   4.291   1.482
 7056TIP3   OH221110   2.908   6.108   6.296
 7056TIP3    H121111   2.941   6.178   6.353
 7056TIP3    H221112   2.962   6.113   6.218
 7057TIP3   OH221113   2.371   4.793   4.301
 7057TIP3    H121114   2.367   4.857   4.230
 7057TIP3    H221115   2.437   4.730   4.273
 7058TIP3   OH221116   8.270   5.157   3.774
 7058TIP3    H121117   8.217   5.099   3.720
 7058TIP3    H221118   8.360   5.142   3.743
 7059TIP3   OH221119   1.109   5.911   4.243
 7059TIP3    H121120   1.081   5.935   4.155
 7059TIP3    H221121   1.132   5.994   4.284
 7060TIP3   OH221122   2.762   2.275   6.329
 7060TIP3    H121123   2.782   2.346   6.390
 7060TIP3    H221124   2.673   2.247   6.353
 7061TIP3   OH221125   5.574   2.652   0.066
 7061TIP3    H121126   5.647   2.711   0.083
 7061TIP3    H221127   5.606   2.566   0.094
 7062TIP3   OH221128   3.160   3.140   3.970
 7062TIP3    H121129   3.186   3.188   3.892
 7062TIP3    H221130   3.243   3.120   4.014
 7063TIP3   OH221131   3.012   7.002   5.730
 7063TIP3    H121132   3.096   6.990   5.775
 7063TIP3    H221133   3.015   6.939   5.658
 7064TIP3   OH221134   1.087   2.113   2.309
 7064TIP3    H121135   1.068   2.045   2.374
 7064TIP3    H221136   1.019   2.102   2.242
 7065TIP3   OH221137   3.727   2.451   4.250
 7065TIP3    H121138   3.798   2.490   4.300
 7065TIP3    H221139   3.767   2.376   4.207
 7066TIP3   OH221140   1.642   3.787   5.857
 7066TIP3    H121141   1.729   3.815   5.827
 7066TIP3    H221142   1.592   3.773   5.776
 7067TIP3   OH221143   0.489   5.240   4.654
 7067TIP3    H121144   0.582   5.259   4.651
 7067TIP3    H221145   0.460   5.276   4.738
 7068TIP3   OH221146   1.469   1.255   0.161
 7068TIP3    H121147   1.497   1.306   0.085
 7068TIP3    H221148   1.409   1.313   0.208
 7069TIP3   OH221149   6.511   7.177   5.960
 7069TIP3    H121150   6.492   7.121   5.885
 7069TIP3    H221151   6.440   7.158   6.022
 7070TIP3   OH221152   1.202   5.172   1.450
 7070TIP3    H121153   1.148   5.249   1.431
 7070TIP3    H221154   1.275   5.178   1.389
 7071TIP3   OH221155   1.440   4.407   1.021
 7071TIP3    H121156   1.417   4.474   0.957
 7071TIP3    H221157   1.356   4.373   1.051
 7072TIP3   OH221158   5.221   5.907   6.102
 7072TIP3    H121159   5.167   5.926   6.178
 7072TIP3    H221160   5.310   5.929   6.129
 7073TIP3   OH221161   0.603   3.786   6.336
 7073TIP3    H121162   0.538   3.849   6.303
 7073TIP3    H221163   0.633   3.824   6.419
 7074TIP3   OH221164   5.766   7.669   5.419
 7074TIP3    H121165   5.844   7.698   5.370
 7074TIP3    H221166   5.731   7.597   5.367
 7075TIP3   OH221167   5.006   6.526   5.080
 7075TIP3    H121168   5.067   6.528   5.006
 7075TIP3    H221169   4.920   6.546   5.041
 7076TIP3   OH221170   4.781   2.601   2.871
 7076TIP3    H121171   4.871   2.584   2.897
 7076TIP3    H221172   4.741   2.640   2.948
 7077TIP3   OH221173   2.038   3.860   1.171
 7077TIP3    H121174   2.049   3.773   1.134
 7077TIP3    H221175   1.948   3.884   1.150
 7078TIP3   OH221176   7.092   4.881   4.186
 7078TIP3    H121177   7.135   4.965   4.170
 7078TIP3    H221178   7.163   4.817   4.182
 7079TIP3   OH221179   6.860   7.269   4.264
 7079TIP3    H121180   6.817   7.344   4.222
 7079TIP3    H221181   6.938   7.307   4.305
 7080TIP3   OH221182   4.361   3.200   4.898
 7080TIP3    H121183   4.383   3.245   4.816
 7080TIP3    H221184   4.446   3.182   4.939
 7081TIP3   OH221185   3.605   1.958   2.547
 7081TIP3    H121186   3.700   1.969   2.543
 7081TIP3    H221187   3.575   1.974   2.458
 7082TIP3   OH221188   7.782   0.892   0.216
 7082TIP3    H121189   7.810   0.959   0.279
 7082TIP3    H221190   7.862   0.868   0.169
 7083TIP3   OH221191   2.011   2.784   4.126
 7083TIP3    H121192   2.040   2.778   4.035
 7083TIP3    H221193   1.930   2.734   4.130
 7084TIP3   OH221194   2.749   2.392   0.888
 7084TIP3    H121195   2.680   2.377   0.953
 7084TIP3    H221196   2.828   2.406   0.940
 7085TIP3   OH221197  -0.024   4.259   4.595
 7085TIP3    H121198  -0.088   4.226   4.531
 7085TIP3    H221199  -0.061   4.237   4.680
 7086TIP3   OH221200   0.793   0.353   3.533
 7086TIP3    H121201   0.764   0.444   3.527
 7086TIP3    H221202   0.881   0.353   3.496
 7087TIP3   OH221203   7.353   3.431   4.140
 7087TIP3    H121204   7.299   3.372   4.192
 7087TIP3    H221205   7.402   3.374   4.082
 7088TIP3   OH221206   4.166   0.236   0.793
 7088TIP3    H121207   4.088   0.237   0.737
 7088TIP3    H221208   4.152   0.162   0.852
 7089TIP3   OH221209   7.612   7.276   5.309
 7089TIP3    H121210   7.661   7.234   5.379
 7089TIP3    H221211   7.532   7.224   5.301
 7090TIP3   OH221212   5.779   7.483   0.714
 7090TIP3    H121213   5.717   7.508   0.783
 7090TIP3    H221214   5.791   7.562   0.662
 7091TIP3   OH221215   2.411   2.273   1.955
 7091TIP3    H121216   2.431   2.222   1.877
 7091TIP3    H221217   2.496   2.305   1.986
 7092TIP3   OH221218   0.838   3.110   3.012
 7092TIP3    H121219   0.879   3.154   2.938
 7092TIP3    H221220   0.811   3.182   3.070
 7093TIP3   OH221221   4.624   0.099   3.465
 7093TIP3    H121222   4.550   0.044   3.492
 7093TIP3    H221223   4.697   0.038   3.455
 7094TIP3   OH221224   7.773   6.413   6.044
 7094TIP3    H121225   7.862   6.397   6.011
 7094TIP3    H221226   7.786   6.466   6.122
 7095TIP3   OH221227   3.633   6.855   0.873
 7095TIP3    H121228   3.631   6.930   0.813
 7095TIP3    H221229   3.593   6.888   0.953
 7096TIP3   OH221230   1.228   0.615   2.573
 7096TIP3    H121231   1.209   0.708   2.563
 7096TIP3    H221232   1.182   0.573   2.500
 7097TIP3   OH221233   5.321   1.366   0.110
 7097TIP3    H121234   5.391   1.301   0.110
 7097TIP3    H221235   5.331   1.412   0.027
 7098TIP3   OH221236   5.841   0.287   5.821
 7098TIP3    H121237   5.909   0.260   5.883
 7098TIP3    H221238   5.875   0.367   5.782
 7099TIP3   OH221239   4.691   0.749   6.569
 7099TIP3    H121240   4.657   0.687   6.633
 7099TIP3    H221241   4.739   0.695   6.506
 7100TIP3   OH221242   5.199   7.800   1.659
 7100TIP3    H121243   5.281   7.834   1.621
 7100TIP3    H221244   5.225   7.718   1.702
 7101TIP3   OH221245   4.473   7.671   0.533
 7101TIP3    H121246   4.524   7.641   0.458
 7101TIP3    H221247   4.385   7.635   0.518
 7102TIP3   OH221248   0.904   2.153   1.784
 7102TIP3    H121249   0.811   2.158   1.810
 7102TIP3    H221250   0.902   2.152   1.689
 7103TIP3   OH221251   2.094   4.945   4.749
 7103TIP3    H121252   2.037   4.876   4.714
 7103TIP3    H221253   2.121   4.913   4.834
 7104TIP3   OH221254   1.693   7.822   6.479
 7104TIP3    H121255   1.748   7.891   6.441
 7104TIP3    H221256   1.746   7.785   6.549
 7105TIP3   OH221257   0.028   3.273   1.853
 7105TIP3    H121258   0.042   3.297   1.762
 7105TIP3    H221259   0.098   3.210   1.872
 7106TIP3   OH221260   6.845   1.561   5.745
 7106TIP3    H121261   6.794   1.505   5.687
 7106TIP3    H221262   6.804   1.647   5.738
 7107TIP3   OH221263   4.840   5.658   4.649
 7107TIP3    H121264   4.936   5.659   4.653
 7107TIP3    H221265   4.817   5.566   4.638
 7108TIP3   OH221266   6.997   4.923   0.427
 7108TIP3    H121267   7.089   4.905   0.442
 7108TIP3    H221268   6.954   4.838   0.435
 7109TIP3   OH221269   2.574   2.046   5.308
 7109TIP3    H121270   2.520   2.104   5.362
 7109TIP3    H221271   2.662   2.054   5.345
 7110TIP3   OH221272   2.660   5.879   6.525
 7110TIP3    H121273   2.567   5.880   6.546
 7110TIP3    H221274   2.668   5.814   6.455
 7111TIP3   OH221275   5.819   3.390   5.621
 7111TIP3    H121276   5.751   3.382   5.553
 7111TIP3    H221277   5.855   3.478   5.607
 7112TIP3   OH221278   4.779   1.574   4.957
 7112TIP3    H121279   4.871   1.545   4.956
 7112TIP3    H221280   4.735   1.512   5.014
 7113TIP3   OH221281   4.790   4.975   0.179
 7113TIP3    H121282   4.756   5.040   0.117
 7113TIP3    H221283   4.821   5.027   0.253
 7114TIP3   OH221284   0.836   6.699   1.327
 7114TIP3    H121285   0.853   6.773   1.384
 7114TIP3    H221286   0.862   6.728   1.240
 7115TIP3   OH221287   5.125   2.647   1.438
 7115TIP3    H121288   5.145   2.624   1.528
 7115TIP3    H221289   5.061   2.582   1.410
 7116TIP3   OH221290   6.906   1.304   0.302
 7116TIP3    H121291   6.906   1.251   0.382
 7116TIP3    H221292   6.845   1.259   0.244
 7117TIP3   OH221293   3.808   3.017   2.535
 7117TIP3    H121294   3.847   2.941   2.579
 7117TIP3    H221295   3.780   3.074   2.606
 7118TIP3   OH221296   7.051   0.717   3.966
 7118TIP3    H121297   7.031   0.698   3.874
 7118TIP3    H221298   6.974   0.764   3.998
 7119TIP3   OH221299   2.347   5.435   0.702
 7119TIP3    H121300   2.441   5.448   0.711
 7119TIP3    H221301   2.315   5.421   0.791
 7120TIP3   OH221302   1.998   5.819   4.936
 7120TIP3    H121303   1.905   5.806   4.916
 7120TIP3    H221304   1.998   5.889   5.002
 7121TIP3   OH221305   6.096   3.759   2.471
 7121TIP3    H121306   6.173   3.705   2.490
 7121TIP3    H221307   6.033   3.698   2.432
 7122TIP3   OH221308   1.342   7.314   1.112
 7122TIP3    H121309   1.415   7.261   1.146
 7122TIP3    H221310   1.338   7.390   1.170
 7123TIP3   OH221311   5.518   3.067   2.625
 7123TIP3    H121312   5.565   2.983   2.629
 7123TIP3    H221313   5.587   3.133   2.630
 7124TIP3   OH221314   5.360   1.586   0.763
 7124TIP3    H121315   5.283   1.540   0.796
 7124TIP3    H221316   5.420   1.589   0.837
 7125TIP3   OH221317   4.868   4.490   5.948
 7125TIP3    H121318   4.842   4.486   6.040
 7125TIP3    H221319   4.842   4.578   5.920
 7126TIP3   OH221320   0.971   7.382   3.789
 7126TIP3    H121321   0.885   7.402   3.825
 7126TIP3    H221322   1.030   7.442   3.835
 7127TIP3   OH221323   3.783   4.457   2.988
 7127TIP3    H121324   3.823   4.539   2.959
 7127TIP3    H221325   3.732   4.481   3.065
 7128TIP3   OH221326   1.644   1.997   0.082
 7128TIP3    H121327   1.610   1.929   0.140
 7128TIP3    H221328   1.695   1.948   0.017
 7129TIP3   OH221329   4.829   0.096   4.131
 7129TIP3    H121330   4.875   0.106   4.047
 7129TIP3    H221331   4.866   0.016   4.168
 7130TIP3   OH221332   7.098   4.398   1.673
 7130TIP3    H121333   7.177   4.346   1.660
 7130TIP3    H221334   7.109   4.474   1.615
 7131TIP3   OH221335   3.471   4.364   2.811
 7131TIP3    H121336   3.534   4.356   2.739
 7131TIP3    H221337   3.460   4.458   2.823
 7132TIP3   OH221338   3.769   4.405   1.107
 7132TIP3    H121339   3.727   4.320   1.103
 7132TIP3    H221340   3.826   4.400   1.184
 7133TIP3   OH221341   0.349   2.502   3.355
 7133TIP3    H121342   0.352   2.575   3.417
 7133TIP3    H221343   0.419   2.521   3.293
 7134TIP3   OH221344   6.542   1.542   3.202
 7134TIP3    H121345   6.617   1.574   3.152
 7134TIP3    H221346   6.562   1.564   3.293
 7135TIP3   OH221347   2.214   1.223   2.338
 7135TIP3    H121348   2.129   1.182   2.349
 7135TIP3    H221349   2.209   1.304   2.388
 7136TIP3   OH221350   0.731   3.795   4.063
 7136TIP3    H121351   0.804   3.844   4.100
 7136TIP3    H221352   0.667   3.791   4.133
 7137TIP3   OH221353   7.308   4.220   4.315
 7137TIP3    H121354   7.339   4.184   4.232
 7137TIP3    H221355   7.307   4.315   4.301
 7138TIP3   OH221356   7.710   4.835   5.275
 7138TIP3    H121357   7.780   4.794   5.327
 7138TIP3    H221358   7.713   4.789   5.191
 7139TIP3   OH221359   7.384   3.803   4.368
 7139TIP3    H121360   7.436   3.726   4.390
 7139TIP3    H221361   7.362   3.843   4.453
 7140TIP3   OH221362   5.129   4.770   3.839
 7140TIP3    H121363   5.193   4.757   3.769
 7140TIP3    H221364   5.173   4.738   3.918
 7141TIP3   OH221365   7.411   5.564   6.705
 7141TIP3    H121366   7.474   5.570   6.778
 7141TIP3    H221367   7.328   5.594   6.743
 7142TIP3   OH221368   3.965   3.072   1.046
 7142TIP3    H121369   3.959   3.030   1.132
 7142TIP3    H221370   4.017   3.012   0.993
 7143TIP3   OH221371   2.019   0.863   5.251
 7143TIP3    H121372   1.931   0.847   5.284
 7143TIP3    H221373   2.020   0.957   5.232
 7144TIP3   OH221374   2.421   6.279   3.944
 7144TIP3    H121375   2.408   6.192   3.906
 7144TIP3    H221376   2.488   6.267   4.011
 7145TIP3   OH221377   6.345   4.110   2.372
 7145TIP3    H121378   6.379   4.021   2.365
 7145TIP3    H221379   6.347   4.129   2.466
 7146TIP3   OH221380   1.482   5.342   0.705
 7146TIP3    H121381   1.511   5.257   0.671
 7146TIP3    H221382   1.394   5.326   0.737
 7147TIP3   OH221383   2.745   3.244   4.200
 7147TIP3    H121384   2.693   3.254   4.120
 7147TIP3    H221385   2.695   3.181   4.253
 7148TIP3   OH221386   0.642   0.343   2.290
 7148TIP3    H121387   0.628   0.399   2.366
 7148TIP3    H221388   0.664   0.404   2.219
 7149TIP3   OH221389   5.388   1.969   1.740
 7149TIP3    H121390   5.465   2.027   1.732
 7149TIP3    H221391   5.327   2.001   1.674
 7150TIP3   OH221392   3.503   1.150   4.244
 7150TIP3    H121393   3.499   1.232   4.293
 7150TIP3    H221394   3.549   1.089   4.303
 7151TIP3   OH221395   3.998   5.637   0.570
 7151TIP3    H121396   3.963   5.652   0.658
 7151TIP3    H221397   4.069   5.701   0.561
 7152TIP3   OH221398   3.887   7.588   3.434
 7152TIP3    H121399   3.857   7.521   3.496
 7152TIP3    H221400   3.832   7.664   3.452
 7153TIP3   OH221401   7.109   6.564   4.273
 7153TIP3    H121402   7.193   6.519   4.286
 7153TIP3    H221403   7.083   6.590   4.362
 7154TIP3   OH221404   8.131   5.007   3.564
 7154TIP3    H121405   8.110   5.058   3.486
 7154TIP3    H221406   8.121   4.916   3.538
 7155TIP3   OH221407   4.517   6.762   3.337
 7155TIP3    H121408   4.610   6.747   3.350
 7155TIP3    H221409   4.510   6.788   3.245
 7156TIP3   OH221410   3.104   0.838   3.357
 7156TIP3    H121411   3.146   0.776   3.417
 7156TIP3    H221412   3.132   0.924   3.388
 7157TIP3   OH221413   2.014   5.004   1.859
 7157TIP3    H121414   2.033   4.932   1.919
 7157TIP3    H221415   2.001   5.080   1.915
 7158TIP3   OH221416   5.088   1.725   5.241
 7158TIP3    H121417   5.012   1.668   5.228
 7158TIP3    H221418   5.163   1.671   5.215
 7159TIP3   OH221419   6.479   5.680   0.978
 7159TIP3    H121420   6.518   5.599   1.011
 7159TIP3    H221421   6.504   5.682   0.885
 7160TIP3   OH221422   2.132   3.127   6.527
 7160TIP3    H121423   2.060   3.065   6.531
 7160TIP3    H221424   2.091   3.212   6.543
 7161TIP3   OH221425   5.393   3.821   4.506
 7161TIP3    H121426   5.331   3.811   4.579
 7161TIP3    H221427   5.479   3.824   4.548
 7162TIP3   OH221428   2.949   1.600   5.770
 7162TIP3    H121429   2.897   1.627   5.694
 7162TIP3    H221430   2.972   1.682   5.814
 7163TIP3   OH221431   0.072   7.808   1.175
 7163TIP3    H121432  -0.002   7.763   1.215
 7163TIP3    H221433   0.042   7.828   1.086
 7164TIP3   OH221434   5.432   2.849   2.939
 7164TIP3    H121435   5.422   2.783   2.870
 7164TIP3    H221436   5.425   2.933   2.893
 7165TIP3   OH221437   0.266   3.111   1.946
 7165TIP3    H121438   0.352   3.099   1.904
 7165TIP3    H221439   0.286   3.150   2.031
 7166TIP3   OH221440   4.973   0.558   0.104
 7166TIP3    H121441   5.011   0.473   0.082
 7166TIP3    H221442   4.910   0.575   0.033
 7167TIP3   OH221443   6.494   6.518   3.410
 7167TIP3    H121444   6.420   6.489   3.461
 7167TIP3    H221445   6.561   6.541   3.474
 7168TIP3   OH221446   3.163   5.534   1.910
 7168TIP3    H121447   3.146   5.612   1.857
 7168TIP3    H221448   3.096   5.536   1.978
 7169TIP3   OH221449   1.620   2.398   1.107
 7169TIP3    H121450   1.529   2.427   1.114
 7169TIP3    H221451   1.617   2.305   1.127
 7170TIP3   OH221452   2.301   4.393   6.167
 7170TIP3    H121453   2.320   4.487   6.166
 7170TIP3    H221454   2.266   4.374   6.081
 7171TIP3   OH221455   3.522   3.881   2.439
 7171TIP3    H121456   3.532   3.788   2.419
 7171TIP3    H221457   3.430   3.890   2.463
 7172TIP3   OH221458   7.920   0.155   4.722
 7172TIP3    H121459   7.954   0.116   4.642
 7172TIP3    H221460   7.997   0.195   4.763
 7173TIP3   OH221461   3.455   5.026   0.088
 7173TIP3    H121462   3.399   4.950   0.072
 7173TIP3    H221463   3.435   5.052   0.178
 7174TIP3   OH221464   3.286   1.405   2.225
 7174TIP3    H121465   3.272   1.462   2.150
 7174TIP3    H221466   3.199   1.395   2.264
 7175TIP3   OH221467   4.792   1.588   0.747
 7175TIP3    H121468   4.777   1.523   0.815
 7175TIP3    H221469   4.717   1.578   0.688
 7176TIP3   OH221470   2.275   4.105   0.825
 7176TIP3    H121471   2.243   4.015   0.828
 7176TIP3    H221472   2.289   4.129   0.917
 7177TIP3   OH221473   8.080   3.751   6.390
 7177TIP3    H121474   7.998   3.753   6.340
 7177TIP3    H221475   8.132   3.823   6.354
 7178TIP3   OH221476   6.517   4.079   5.798
 7178TIP3    H121477   6.520   3.995   5.843
 7178TIP3    H221478   6.609   4.098   5.777
 7179TIP3   OH221479   4.827   3.318   1.868
 7179TIP3    H121480   4.737   3.349   1.879
 7179TIP3    H221481   4.878   3.371   1.929
 7180TIP3   OH221482   6.419   3.696   3.760
 7180TIP3    H121483   6.410   3.635   3.834
 7180TIP3    H221484   6.496   3.749   3.783
 7181TIP3   OH221485   6.676   6.587   5.591
 7181TIP3    H121486   6.599   6.584   5.647
 7181TIP3    H221487   6.668   6.671   5.544
 7182TIP3   OH221488   1.610   2.447   0.171
 7182TIP3    H121489   1.665   2.401   0.234
 7182TIP3    H221490   1.574   2.379   0.115
 7183TIP3   OH221491   7.080   0.264   3.544
 7183TIP3    H121492   7.041   0.191   3.496
 7183TIP3    H221493   7.005   0.313   3.577
 7184TIP3   OH221494   8.173   7.643   6.285
 7184TIP3    H121495   8.170   7.737   6.267
 7184TIP3    H221496   8.114   7.604   6.219
 7185TIP3   OH221497   1.938   2.172   2.876
 7185TIP3    H121498   2.030   2.198   2.876
 7185TIP3    H221499   1.891   2.248   2.912
 7186TIP3   OH221500   7.288   1.803   5.375
 7186TIP3    H121501   7.373   1.797   5.331
 7186TIP3    H221502   7.309   1.822   5.466
 7187TIP3   OH221503   1.432   4.859   5.453
 7187TIP3    H121504   1.428   4.954   5.444
 7187TIP3    H221505   1.492   4.830   5.384
 7188TIP3   OH221506   4.261   2.097   4.045
 7188TIP3    H121507   4.190   2.057   4.095
 7188TIP3    H221508   4.274   2.039   3.971
 7189TIP3   OH221509   5.212   4.138   5.806
 7189TIP3    H121510   5.297   4.134   5.849
 7189TIP3    H221511   5.199   4.231   5.787
 7190TIP3   OH221512   4.899   0.697   4.614
 7190TIP3    H121513   4.849   0.764   4.568
 7190TIP3    H221514   4.862   0.697   4.703
 7191TIP3   OH221515   4.477   5.029   0.373
 7191TIP3    H121516   4.492   4.936   0.357
 7191TIP3    H221517   4.387   5.034   0.403
 7192TIP3   OH221518   1.428   0.698   5.687
 7192TIP3    H121519   1.452   0.606   5.684
 7192TIP3    H221520   1.343   0.699   5.731
 7193TIP3   OH221521   5.109   2.973   3.681
 7193TIP3    H121522   5.115   2.880   3.661
 7193TIP3    H221523   5.197   3.007   3.667
 7194TIP3   OH221524   3.778   4.029   5.904
 7194TIP3    H121525   3.702   3.985   5.866
 7194TIP3    H221526   3.749   4.119   5.918
 7195TIP3   OH221527   3.907   3.193   0.782
 7195TIP3    H121528   3.919   3.144   0.864
 7195TIP3    H221529   3.995   3.196   0.744
 7196TIP3   OH221530   6.564   5.796   0.443
 7196TIP3    H121531   6.548   5.751   0.360
 7196TIP3    H221532   6.476   5.816   0.477
 7197TIP3   OH221533   7.011   4.481   0.008
 7197TIP3    H121534   7.083   4.497   0.069
 7197TIP3    H221535   6.997   4.386   0.012
 7198TIP3   OH221536   1.999   0.192   2.708
 7198TIP3    H121537   2.043   0.238   2.637
 7198TIP3    H221538   2.051   0.213   2.786
 7199TIP3   OH221539   6.759   5.624   2.353
 7199TIP3    H121540   6.843   5.655   2.319
 7199TIP3    H221541   6.780   5.539   2.393
 7200TIP3   OH221542   6.180   5.840   1.942
 7200TIP3    H121543   6.225   5.916   1.904
 7200TIP3    H221544   6.152   5.788   1.866
 7201TIP3   OH221545   2.495   6.959   1.540
 7201TIP3    H121546   2.432   6.902   1.496
 7201TIP3    H221547   2.459   6.972   1.628
 7202TIP3   OH221548   0.220   0.372   1.325
 7202TIP3    H121549   0.195   0.407   1.240
 7202TIP3    H221550   0.159   0.413   1.387
 7203TIP3   OH221551   4.529   1.024   4.737
 7203TIP3    H121552   4.551   1.018   4.830
 7203TIP3    H221553   4.548   1.114   4.713
 7204TIP3   OH221554   2.381   5.720   2.452
 7204TIP3    H121555   2.442   5.675   2.394
 7204TIP3    H221556   2.359   5.801   2.406
 7205TIP3   OH221557   1.194   5.795   1.072
 7205TIP3    H121558   1.181   5.772   1.164
 7205TIP3    H221559   1.136   5.870   1.057
 7206TIP3   OH221560   1.770   4.273   2.980
 7206TIP3    H121561   1.833   4.201   2.981
 7206TIP3    H221562   1.762   4.297   2.887
 7207TIP3   OH221563   1.598   0.617   2.696
 7207TIP3    H121564   1.564   0.541   2.650
 7207TIP3    H221565   1.626   0.676   2.626
 7208TIP3   OH221566   7.905   4.432   3.327
 7208TIP3    H121567   7.926   4.488   3.253
 7208TIP3    H221568   7.862   4.490   3.390
 7209TIP3   OH221569   3.549   5.684   6.627
 7209TIP3    H121570   3.543   5.737   6.548
 7209TIP3    H221571   3.525   5.596   6.600
 7210TIP3   OH221572   3.291   7.020   3.003
 7210TIP3    H121573   3.349   7.066   3.064
 7210TIP3    H221574   3.331   6.935   2.991
 7211TIP3   OH221575   1.179   7.555   3.317
 7211TIP3    H121576   1.094   7.546   3.274
 7211TIP3    H221577   1.194   7.471   3.360
 7212TIP3   OH221578   3.895   7.621   2.034
 7212TIP3    H121579   3.955   7.675   2.086
 7212TIP3    H221580   3.840   7.684   1.988
 7213TIP3   OH221581   3.609   6.461   0.137
 7213TIP3    H121582   3.683   6.403   0.157
 7213TIP3    H221583   3.573   6.485   0.222
 7214TIP3   OH221584   2.058   5.746   0.325
 7214TIP3    H121585   2.075   5.840   0.322
 7214TIP3    H221586   2.145   5.706   0.323
 7215TIP3   OH221587   1.155   4.262   2.972
 7215TIP3    H121588   1.127   4.279   2.882
 7215TIP3    H221589   1.097   4.316   3.026
 7216TIP3   OH221590   5.089   0.732   3.561
 7216TIP3    H121591   5.028   0.752   3.633
 7216TIP3    H221592   5.167   0.700   3.605
 7217TIP3   OH221593   2.089   2.661   0.904
 7217TIP3    H121594   2.148   2.631   0.973
 7217TIP3    H221595   2.132   2.738   0.867
 7218TIP3   OH221596   0.661   6.389   1.605
 7218TIP3    H121597   0.661   6.338   1.685
 7218TIP3    H221598   0.577   6.434   1.604
 7219TIP3   OH221599   8.074   0.364   5.900
 7219TIP3    H121600   8.110   0.282   5.933
 7219TIP3    H221601   7.980   0.359   5.921
 7220TIP3   OH221602   2.242   4.881   6.366
 7220TIP3    H121603   2.169   4.939   6.386
 7220TIP3    H221604   2.320   4.936   6.372
 7221TIP3   OH221605   5.466   4.998   1.852
 7221TIP3    H121606   5.561   5.002   1.857
 7221TIP3    H221607   5.441   5.081   1.811
 7222TIP3   OH221608   1.547   3.305   4.548
 7222TIP3    H121609   1.535   3.400   4.551
 7222TIP3    H221610   1.482   3.275   4.485
 7223TIP3   OH221611   0.155   0.490   1.767
 7223TIP3    H121612   0.174   0.572   1.814
 7223TIP3    H221613   0.069   0.463   1.800
 7224TIP3   OH221614   3.512   0.062   4.479
 7224TIP3    H121615   3.591   0.115   4.468
 7224TIP3    H221616   3.528   0.011   4.558
 7225TIP3   OH221617   2.713   1.790   0.717
 7225TIP3    H121618   2.721   1.883   0.738
 7225TIP3    H221619   2.652   1.756   0.783
 7226TIP3   OH221620   1.271   6.966   2.092
 7226TIP3    H121621   1.231   6.885   2.062
 7226TIP3    H221622   1.216   6.995   2.165
 7227TIP3   OH221623   0.060   5.391   5.249
 7227TIP3    H121624   0.138   5.361   5.295
 7227TIP3    H221625   0.081   5.480   5.220
 7228TIP3   OH221626   3.684   6.541   5.749
 7228TIP3    H121627   3.630   6.574   5.677
 7228TIP3    H221628   3.631   6.557   5.828
 7229TIP3   OH221629   1.840   2.618   0.140
 7229TIP3    H121630   1.796   2.557   0.200
 7229TIP3    H221631   1.817   2.705   0.173
 7230TIP3   OH221632   1.811   4.548   4.480
 7230TIP3    H121633   1.797   4.631   4.524
 7230TIP3    H221634   1.726   4.504   4.483
 7231TIP3   OH221635   6.331   1.784   5.348
 7231TIP3    H121636   6.395   1.775   5.278
 7231TIP3    H221637   6.357   1.862   5.396
 7232TIP3   OH221638   4.977   5.703   2.982
 7232TIP3    H121639   5.011   5.739   3.064
 7232TIP3    H221640   4.916   5.635   3.010
 7233TIP3   OH221641   0.315   5.746   2.340
 7233TIP3    H121642   0.284   5.668   2.293
 7233TIP3    H221643   0.342   5.713   2.426
 7234TIP3   OH221644   4.840   0.938   0.963
 7234TIP3    H121645   4.781   0.996   1.009
 7234TIP3    H221646   4.812   0.850   0.988
 7235TIP3   OH221647   7.367   3.187   4.717
 7235TIP3    H121648   7.423   3.179   4.640
 7235TIP3    H221649   7.286   3.225   4.684
 7236TIP3   OH221650   4.846   7.219   4.557
 7236TIP3    H121651   4.935   7.193   4.581
 7236TIP3    H221652   4.858   7.291   4.495
 7237TIP3   OH221653   6.538   7.000   3.456
 7237TIP3    H121654   6.554   6.970   3.546
 7237TIP3    H221655   6.607   7.064   3.440
 7238TIP3   OH221656   7.159   2.884   6.734
 7238TIP3    H121657   7.128   2.880   6.824
 7238TIP3    H221658   7.196   2.797   6.718
 7239TIP3   OH221659   0.003   2.038   1.240
 7239TIP3    H121660  -0.009   2.000   1.153
 7239TIP3    H221661   0.006   1.962   1.299
 7240TIP3   OH221662   6.620   3.469   3.796
 7240TIP3    H121663   6.651   3.558   3.779
 7240TIP3    H221664   6.699   3.415   3.795
 7241TIP3   OH221665   7.834   1.079   0.419
 7241TIP3    H121666   7.877   1.096   0.503
 7241TIP3    H221667   7.890   1.123   0.354
 7242TIP3   OH221668   3.666   0.946   5.833
 7242TIP3    H121669   3.606   0.999   5.780
 7242TIP3    H221670   3.710   0.889   5.769
 7243TIP3   OH221671   0.604   0.585   5.571
 7243TIP3    H121672   0.520   0.624   5.547
 7243TIP3    H221673   0.644   0.649   5.630
 7244TIP3   OH221674   3.696   0.030   3.779
 7244TIP3    H121675   3.688  -0.028   3.703
 7244TIP3    H221676   3.753   0.101   3.750
 7245TIP3   OH221677   5.660   5.653   4.608
 7245TIP3    H121678   5.625   5.677   4.522
 7245TIP3    H221679   5.717   5.726   4.632
 7246TIP3   OH221680   6.744   6.816   5.897
 7246TIP3    H121681   6.705   6.730   5.911
 7246TIP3    H221682   6.778   6.842   5.982
 7247TIP3   OH221683   1.442   5.424   6.296
 7247TIP3    H121684   1.378   5.488   6.263
 7247TIP3    H221685   1.399   5.339   6.285
 7248TIP3   OH221686   0.725   5.851   3.525
 7248TIP3    H121687   0.751   5.940   3.504
 7248TIP3    H221688   0.632   5.847   3.503
 7249TIP3   OH221689   4.206   4.610   3.545
 7249TIP3    H121690   4.259   4.620   3.466
 7249TIP3    H221691   4.117   4.600   3.512
 7250TIP3   OH221692   6.142   5.294   1.712
 7250TIP3    H121693   6.220   5.300   1.658
 7250TIP3    H221694   6.079   5.354   1.672
 7251TIP3   OH221695   1.807   5.629   3.629
 7251TIP3    H121696   1.890   5.650   3.673
 7251TIP3    H221697   1.791   5.703   3.571
 7252TIP3   OH221698   1.447   6.636   5.212
 7252TIP3    H121699   1.479   6.547   5.228
 7252TIP3    H221700   1.356   6.634   5.244
 7253TIP3   OH221701   0.612   7.368   2.471
 7253TIP3    H121702   0.676   7.413   2.416
 7253TIP3    H221703   0.580   7.435   2.531
 7254TIP3   OH221704   0.826   1.487   3.728
 7254TIP3    H121705   0.737   1.453   3.739
 7254TIP3    H221706   0.881   1.424   3.775
 7255TIP3   OH221707   4.065   1.273   5.152
 7255TIP3    H121708   4.112   1.255   5.233
 7255TIP3    H221709   4.060   1.188   5.108
 7256TIP3   OH221710   5.816   2.857   3.442
 7256TIP3    H121711   5.767   2.775   3.431
 7256TIP3    H221712   5.881   2.856   3.372
 7257TIP3   OH221713   3.636   4.011   0.532
 7257TIP3    H121714   3.652   4.018   0.626
 7257TIP3    H221715   3.709   4.057   0.491
 7258TIP3   OH221716   6.619   6.072   3.855
 7258TIP3    H121717   6.625   6.140   3.788
 7258TIP3    H221718   6.603   5.992   3.806
 7259TIP3   OH221719   5.628   0.454   3.923
 7259TIP3    H121720   5.599   0.545   3.922
 7259TIP3    H221721   5.649   0.435   3.832
 7260TIP3   OH221722   6.399   0.253   4.047
 7260TIP3    H121723   6.306   0.259   4.026
 7260TIP3    H221724   6.416   0.159   4.056
 7261TIP3   OH221725   5.200   3.269   3.386
 7261TIP3    H121726   5.114   3.297   3.355
 7261TIP3    H221727   5.223   3.332   3.455
 7262TIP3   OH221728   4.216   5.900   4.679
 7262TIP3    H121729   4.270   5.976   4.656
 7262TIP3    H221730   4.135   5.938   4.714
 7263TIP3   OH221731   5.082   5.228   3.589
 7263TIP3    H121732   5.009   5.287   3.570
 7263TIP3    H221733   5.157   5.268   3.546
 7264TIP3   OH221734   4.937   4.445   3.037
 7264TIP3    H121735   4.877   4.438   3.111
 7264TIP3    H221736   5.024   4.427   3.074
 7265TIP3   OH221737   0.869   4.606   4.092
 7265TIP3    H121738   0.783   4.625   4.130
 7265TIP3    H221739   0.881   4.673   4.025
 7266TIP3   OH221740   1.103   1.766   6.156
 7266TIP3    H121741   1.040   1.777   6.227
 7266TIP3    H221742   1.063   1.700   6.099
 7267TIP3   OH221743   5.837   2.294   1.765
 7267TIP3    H121744   5.873   2.266   1.681
 7267TIP3    H221745   5.905   2.348   1.804
 7268TIP3   OH221746   3.818   4.192   2.915
 7268TIP3    H121747   3.761   4.159   2.846
 7268TIP3    H221748   3.802   4.287   2.917
 7269TIP3   OH221749   5.706   7.546   5.043
 7269TIP3    H121750   5.786   7.494   5.045
 7269TIP3    H221751   5.698   7.575   4.952
 7270TIP3   OH221752   0.755   0.220   5.530
 7270TIP3    H121753   0.837   0.269   5.524
 7270TIP3    H221754   0.704   0.265   5.597
 7271TIP3   OH221755   2.323   0.350   1.657
 7271TIP3    H121756   2.341   0.307   1.741
 7271TIP3    H221757   2.234   0.385   1.667
 7272TIP3   OH221758   2.273   0.517   6.402
 7272TIP3    H121759   2.342   0.553   6.347
 7272TIP3    H221760   2.192   0.531   6.353
 7273TIP3   OH221761   5.964   6.569   0.859
 7273TIP3    H121762   6.033   6.514   0.896
 7273TIP3    H221763   6.008   6.617   0.789
 7274TIP3   OH221764   2.908   4.138   6.596
 7274TIP3    H121765   2.897   4.113   6.688
 7274TIP3    H221766   2.820   4.165   6.569
 7275TIP3   OH221767   4.821   0.165   2.281
 7275TIP3    H121768   4.840   0.228   2.351
 7275TIP3    H221769   4.844   0.212   2.201
 7276TIP3   OH221770   4.094   4.152   4.427
 7276TIP3    H121771   4.179   4.180   4.462
 7276TIP3    H221772   4.107   4.059   4.407
 7277TIP3   OH221773   1.854   4.636   6.300
 7277TIP3    H121774   1.901   4.641   6.383
 7277TIP3    H221775   1.763   4.623   6.325
 7278TIP3   OH221776   1.146   2.491   2.449
 7278TIP3    H121777   1.141   2.400   2.479
 7278TIP3    H221778   1.239   2.504   2.429
 7279TIP3   OH221779   5.292   4.185   6.650
 7279TIP3    H121780   5.285   4.279   6.634
 7279TIP3    H221781   5.329   4.178   6.738
 7280TIP3   OH221782   6.264   1.759   6.560
 7280TIP3    H121783   6.351   1.739   6.593
 7280TIP3    H221784   6.263   1.722   6.472
 7281TIP3   OH221785   8.057   2.202   1.178
 7281TIP3    H121786   7.974   2.161   1.202
 7281TIP3    H221787   8.124   2.144   1.213
 7282TIP3   OH221788   0.779   3.241   3.605
 7282TIP3    H121789   0.714   3.297   3.648
 7282TIP3    H221790   0.745   3.229   3.516
 7283TIP3   OH221791   0.253   3.665   2.082
 7283TIP3    H121792   0.198   3.685   2.006
 7283TIP3    H221793   0.230   3.576   2.106
 7284TIP3   OH221794   2.192   5.379   6.415
 7284TIP3    H121795   2.169   5.347   6.328
 7284TIP3    H221796   2.112   5.420   6.448
 7285TIP3   OH221797   5.429   5.431   2.656
 7285TIP3    H121798   5.372   5.508   2.647
 7285TIP3    H221799   5.386   5.377   2.722
 7286TIP3   OH221800   6.170   1.578   5.006
 7286TIP3    H121801   6.138   1.640   5.070
 7286TIP3    H221802   6.131   1.607   4.923
 7287TIP3   OH221803   1.461   2.658  -0.030
 7287TIP3    H121804   1.514   2.605  -0.089
 7287TIP3    H221805   1.475   2.620   0.057
 7288TIP3   OH221806   0.326   0.258   2.707
 7288TIP3    H121807   0.309   0.346   2.673
 7288TIP3    H221808   0.281   0.200   2.646
 7289TIP3   OH221809   7.095   4.112   2.319
 7289TIP3    H121810   7.124   4.203   2.311
 7289TIP3    H221811   7.039   4.112   2.396
 7290TIP3   OH221812   0.820   4.633   0.103
 7290TIP3    H121813   0.788   4.714   0.064
 7290TIP3    H221814   0.749   4.570   0.091
 7291TIP3   OH221815   7.424   5.641   3.334
 7291TIP3    H121816   7.423   5.710   3.268
 7291TIP3    H221817   7.505   5.592   3.316
 7292TIP3   OH221818   7.424   4.868   3.377
 7292TIP3    H121819   7.355   4.935   3.382
 7292TIP3    H221820   7.384   4.791   3.418
 7293TIP3   OH221821   5.054   3.708   4.960
 7293TIP3    H121822   5.035   3.747   5.045
 7293TIP3    H221823   5.141   3.671   4.969
 7294TIP3   OH221824   4.429   4.745   0.771
 7294TIP3    H121825   4.380   4.826   0.757
 7294TIP3    H221826   4.519   4.767   0.748
 7295TIP3   OH221827   1.486   3.719   0.225
 7295TIP3    H121828   1.462   3.811   0.210
 7295TIP3    H221829   1.408   3.681   0.264
 7296TIP3   OH221830   6.482   2.096   4.535
 7296TIP3    H121831   6.554   2.149   4.502
 7296TIP3    H221832   6.431   2.156   4.589
 7297TIP3   OH221833   5.930   5.499   6.423
 7297TIP3    H121834   5.998   5.519   6.359
 7297TIP3    H221835   5.918   5.581   6.470
 7298TIP3   OH221836   5.578   6.572   2.429
 7298TIP3    H121837   5.574   6.503   2.494
 7298TIP3    H221838   5.631   6.535   2.358
 7299TIP3   OH221839   0.343   3.048   2.693
 7299TIP3    H121840   0.432   3.056   2.725
 7299TIP3    H221841   0.328   3.128   2.643
 7300TIP3   OH221842   5.635   4.358   5.456
 7300TIP3    H121843   5.623   4.303   5.533
 7300TIP3    H221844   5.705   4.419   5.481
 7301TIP3   OH221845   0.811   2.925   4.604
 7301TIP3    H121846   0.746   2.980   4.649
 7301TIP3    H221847   0.801   2.839   4.644
 7302TIP3   OH221848   2.289   5.085   1.224
 7302TIP3    H121849   2.221   5.039   1.274
 7302TIP3    H221850   2.354   5.111   1.289
 7303TIP3   OH221851   6.934   5.578   4.086
 7303TIP3    H121852   6.998   5.507   4.093
 7303TIP3    H221853   6.893   5.583   4.173
 7304TIP3   OH221854   0.536   3.771   2.706
 7304TIP3    H121855   0.623   3.791   2.673
 7304TIP3    H221856   0.479   3.774   2.629
 7305TIP3   OH221857   1.481   2.588   6.394
 7305TIP3    H121858   1.455   2.646   6.466
 7305TIP3    H221859   1.425   2.614   6.321
 7306TIP3   OH221860   5.473   3.606   5.244
 7306TIP3    H121861   5.424   3.651   5.313
 7306TIP3    H221862   5.541   3.669   5.219
 7307TIP3   OH221863   6.210   6.555   2.126
 7307TIP3    H121864   6.293   6.510   2.141
 7307TIP3    H221865   6.145   6.501   2.170
 7308TIP3   OH221866   7.850   1.619   1.690
 7308TIP3    H121867   7.770   1.637   1.739
 7308TIP3    H221868   7.864   1.525   1.700
 7309TIP3   OH221869   3.825   4.728   4.830
 7309TIP3    H121870   3.760   4.671   4.790
 7309TIP3    H221871   3.779   4.766   4.906
 7310TIP3   OH221872   8.247   0.091   0.748
 7310TIP3    H121873   8.307   0.023   0.718
 7310TIP3    H221874   8.262   0.096   0.842
 7311TIP3   OH221875   1.761   0.075   6.358
 7311TIP3    H121876   1.762   0.021   6.438
 7311TIP3    H221877   1.694   0.034   6.303
 7312TIP3   OH221878   4.908   0.426   4.655
 7312TIP3    H121879   4.927   0.519   4.638
 7312TIP3    H221880   4.835   0.427   4.717
 7313TIP3   OH221881   0.479   2.325   2.565
 7313TIP3    H121882   0.532   2.246   2.563
 7313TIP3    H221883   0.464   2.347   2.473
 7314TIP3   OH221884   6.452   2.608   2.427
 7314TIP3    H121885   6.512   2.587   2.356
 7314TIP3    H221886   6.387   2.666   2.387
 7315TIP3   OH221887   7.392   4.814   4.074
 7315TIP3    H121888   7.434   4.810   3.988
 7315TIP3    H221889   7.370   4.906   4.086
 7316TIP3   OH221890   0.738   1.609   2.045
 7316TIP3    H121891   0.788   1.591   1.965
 7316TIP3    H221892   0.790   1.675   2.091
 7317TIP3   OH221893   1.308   6.917   2.440
 7317TIP3    H121894   1.290   6.842   2.497
 7317TIP3    H221895   1.363   6.881   2.371
 7318TIP3   OH221896   1.841   1.785   2.070
 7318TIP3    H121897   1.898   1.812   2.142
 7318TIP3    H221898   1.899   1.739   2.009
 7319TIP3   OH221899   3.239   6.198   4.474
 7319TIP3    H121900   3.188   6.208   4.555
 7319TIP3    H221901   3.298   6.273   4.474
 7320TIP3   OH221902   1.860   2.622   3.718
 7320TIP3    H121903   1.851   2.556   3.649
 7320TIP3    H221904   1.794   2.598   3.783
 7321TIP3   OH221905   7.864   5.302   3.473
 7321TIP3    H121906   7.939   5.272   3.422
 7321TIP3    H221907   7.898   5.316   3.561
 7322TIP3   OH221908   6.851   4.021   5.153
 7322TIP3    H121909   6.879   4.047   5.240
 7322TIP3    H221910   6.925   4.045   5.096
 7323TIP3   OH221911   6.732   1.616   3.007
 7323TIP3    H121912   6.698   1.696   2.965
 7323TIP3    H221913   6.814   1.598   2.962
 7324TIP3   OH221914   0.416   5.205   2.274
 7324TIP3    H121915   0.388   5.143   2.208
 7324TIP3    H221916   0.381   5.289   2.245
 7325TIP3   OH221917   7.810   5.367   5.241
 7325TIP3    H121918   7.726   5.411   5.257
 7325TIP3    H221919   7.786   5.289   5.192
 7326TIP3   OH221920   3.924   7.533   6.653
 7326TIP3    H121921   3.988   7.571   6.593
 7326TIP3    H221922   3.839   7.564   6.621
 7327TIP3   OH221923   7.525   6.621   5.216
 7327TIP3    H121924   7.435   6.616   5.182
 7327TIP3    H221925   7.580   6.610   5.138
 7328TIP3   OH221926   2.852   7.557   5.866
 7328TIP3    H121927   2.930   7.509   5.838
 7328TIP3    H221928   2.868   7.577   5.958
 7329TIP3   OH221929   5.503   0.335   6.162
 7329TIP3    H121930   5.543   0.266   6.108
 7329TIP3    H221931   5.445   0.382   6.101
 7330TIP3   OH221932   6.605   7.439   5.581
 7330TIP3    H121933   6.576   7.348   5.583
 7330TIP3    H221934   6.664   7.447   5.657
 7331TIP3   OH221935   3.033   7.449   6.298
 7331TIP3    H121936   2.991   7.521   6.251
 7331TIP3    H221937   2.971   7.376   6.291
 7332TIP3   OH221938   2.121   6.090   3.262
 7332TIP3    H121939   2.113   6.059   3.172
 7332TIP3    H221940   2.193   6.154   3.258
 7333TIP3   OH221941   6.074   4.640   0.526
 7333TIP3    H121942   6.156   4.684   0.500
 7333TIP3    H221943   6.095   4.547   0.521
 7334TIP3   OH221944   4.600   7.147   4.376
 7334TIP3    H121945   4.520   7.106   4.408
 7334TIP3    H221946   4.642   7.183   4.454
 7335TIP3   OH221947   2.187   4.087   6.682
 7335TIP3    H121948   2.096   4.063   6.663
 7335TIP3    H221949   2.198   4.173   6.641
 7336TIP3   OH221950   3.844   6.315   0.122
 7336TIP3    H121951   3.920   6.344   0.072
 7336TIP3    H221952   3.845   6.220   0.115
 7337TIP3   OH221953   0.319   3.485   2.598
 7337TIP3    H121954   0.263   3.409   2.581
 7337TIP3    H221955   0.319   3.493   2.693
 7338TIP3   OH221956   3.259   2.556   5.010
 7338TIP3    H121957   3.199   2.616   4.967
 7338TIP3    H221958   3.319   2.612   5.058
 7339TIP3   OH221959   2.308   0.729   2.729
 7339TIP3    H121960   2.274   0.776   2.653
 7339TIP3    H221961   2.374   0.788   2.766
 7340TIP3   OH221962   0.165   4.896   6.492
 7340TIP3    H121963   0.242   4.953   6.493
 7340TIP3    H221964   0.090   4.955   6.491
 7341TIP3   OH221965   4.531   3.657   1.221
 7341TIP3    H121966   4.517   3.744   1.184
 7341TIP3    H221967   4.619   3.660   1.258
 7342TIP3   OH221968   1.930   2.160   2.335
 7342TIP3    H121969   1.889   2.221   2.274
 7342TIP3    H221970   1.942   2.080   2.284
 7343TIP3   OH221971   2.625   4.995   4.611
 7343TIP3    H121972   2.619   4.913   4.562
 7343TIP3    H221973   2.536   5.012   4.641
 7344TIP3   OH221974   1.479   6.986   0.316
 7344TIP3    H121975   1.432   7.060   0.278
 7344TIP3    H221976   1.555   7.025   0.359
 7345TIP3   OH221977   4.563   3.908   0.257
 7345TIP3    H121978   4.656   3.932   0.255
 7345TIP3    H221979   4.517   3.992   0.245
 7346TIP3   OH221980   5.963   0.174   4.710
 7346TIP3    H121981   5.909   0.122   4.650
 7346TIP3    H221982   6.007   0.110   4.766
 7347TIP3   OH221983   0.192   7.202   5.821
 7347TIP3    H121984   0.260   7.149   5.779
 7347TIP3    H221985   0.136   7.138   5.866
 7348TIP3   OH221986   0.240   1.868   2.940
 7348TIP3    H121987   0.327   1.837   2.966
 7348TIP3    H221988   0.214   1.927   3.010
 7349TIP3   OH221989   3.831   7.005   6.640
 7349TIP3    H121990   3.816   7.033   6.731
 7349TIP3    H221991   3.886   7.073   6.603
 7350TIP3   OH221992   7.898   2.875   4.985
 7350TIP3    H121993   7.826   2.836   5.035
 7350TIP3    H221994   7.912   2.815   4.912
 7351TIP3   OH221995   5.574   3.543   2.618
 7351TIP3    H121996   5.527   3.509   2.694
 7351TIP3    H221997   5.645   3.481   2.604
 7352TIP3   OH221998   3.226   5.029   0.690
 7352TIP3    H121999   3.156   5.094   0.701
 7352TIP3    H222000   3.262   5.017   0.778
 7353TIP3   OH222001   1.965   5.622   0.908
 7353TIP3    H122002   1.914   5.632   0.988
 7353TIP3    H222003   1.900   5.629   0.837
 7354TIP3   OH222004   7.460   0.858   5.504
 7354TIP3    H122005   7.549   0.893   5.502
 7354TIP3    H222006   7.452   0.807   5.423
 7355TIP3   OH222007   4.576   1.740   4.870
 7355TIP3    H122008   4.646   1.679   4.893
 7355TIP3    H222009   4.609   1.826   4.896
 7356TIP3   OH222010   5.597   2.669   5.162
 7356TIP3    H122011   5.548   2.649   5.082
 7356TIP3    H222012   5.689   2.657   5.138
 7357TIP3   OH222013   8.294   6.444   2.386
 7357TIP3    H122014   8.333   6.513   2.440
 7357TIP3    H222015   8.259   6.381   2.449
 7358TIP3   OH222016   5.571   7.474   2.765
 7358TIP3    H122017   5.547   7.492   2.856
 7358TIP3    H222018   5.650   7.421   2.771
 7359TIP3   OH222019   6.449   0.126   2.419
 7359TIP3    H122020   6.373   0.173   2.454
 7359TIP3    H222021   6.418   0.037   2.406
 7360TIP3   OH222022   6.122   3.532   5.046
 7360TIP3    H122023   6.076   3.558   5.125
 7360TIP3    H222024   6.207   3.576   5.053
 7361TIP3   OH222025   4.315   3.816   1.016
 7361TIP3    H122026   4.359   3.901   1.017
 7361TIP3    H222027   4.223   3.837   1.003
 7362TIP3   OH222028   8.127   7.515   5.529
 7362TIP3    H122029   8.184   7.499   5.454
 7362TIP3    H222030   8.077   7.593   5.506
 7363TIP3   OH222031   8.217   6.684   2.514
 7363TIP3    H122032   8.165   6.703   2.436
 7363TIP3    H222033   8.189   6.596   2.541
 7364TIP3   OH222034   1.781   2.095   1.528
 7364TIP3    H122035   1.692   2.088   1.493
 7364TIP3    H222036   1.771   2.143   1.610
 7365TIP3   OH222037   3.968   1.367   3.740
 7365TIP3    H122038   3.931   1.434   3.797
 7365TIP3    H222039   3.915   1.289   3.757
 7366TIP3   OH222040   5.194   1.187   6.702
 7366TIP3    H122041   5.244   1.118   6.746
 7366TIP3    H222042   5.182   1.155   6.613
 7367TIP3   OH222043   0.017   6.513   0.859
 7367TIP3    H122044  -0.058   6.554   0.902
 7367TIP3    H222045   0.076   6.488   0.930
 7368TIP3   OH222046   5.362   6.430   1.415
 7368TIP3    H122047   5.421   6.484   1.467
 7368TIP3    H222048   5.320   6.372   1.478
 7369TIP3   OH222049   0.398   2.522   6.374
 7369TIP3    H122050   0.459   2.450   6.358
 7369TIP3    H222051   0.323   2.505   6.317
 7370TIP3   OH222052   6.341   3.687   0.913
 7370TIP3    H122053   6.309   3.708   0.825
 7370TIP3    H222054   6.387   3.766   0.942
 7371TIP3   OH222055   4.820   5.886   3.327
 7371TIP3    H122056   4.834   5.965   3.275
 7371TIP3    H222057   4.756   5.912   3.393
 7372TIP3   OH222058   2.648   2.447   2.020
 7372TIP3    H122059   2.733   2.491   2.018
 7372TIP3    H222060   2.614   2.464   2.108
 7373TIP3   OH222061   3.902   5.350   2.954
 7373TIP3    H122062   3.908   5.282   2.886
 7373TIP3    H222063   3.915   5.302   3.036
 7374TIP3   OH222064   2.231   2.261   1.574
 7374TIP3    H122065   2.237   2.172   1.608
 7374TIP3    H222066   2.220   2.251   1.480
 7375TIP3   OH222067   7.300   2.518   5.523
 7375TIP3    H122068   7.335   2.607   5.530
 7375TIP3    H222069   7.300   2.485   5.612
 7376TIP3   OH222070   7.325   7.007   2.747
 7376TIP3    H122071   7.335   6.962   2.663
 7376TIP3    H222072   7.259   6.956   2.794
 7377TIP3   OH222073   5.467   3.414   5.905
 7377TIP3    H122074   5.540   3.472   5.926
 7377TIP3    H222075   5.449   3.430   5.812
 7378TIP3   OH222076   1.077   4.399   3.536
 7378TIP3    H122077   1.141   4.459   3.499
 7378TIP3    H222078   1.128   4.321   3.560
 7379TIP3   OH222079   1.538   1.837   3.547
 7379TIP3    H122080   1.631   1.813   3.540
 7379TIP3    H222081   1.491   1.757   3.523
 7380TIP3   OH222082   3.831   1.746   2.745
 7380TIP3    H122083   3.738   1.740   2.724
 7380TIP3    H222084   3.835   1.799   2.824
 7381TIP3   OH222085   7.312   2.984   5.546
 7381TIP3    H122086   7.307   2.995   5.641
 7381TIP3    H222087   7.221   2.977   5.518
 7382TIP3   OH222088   2.427   4.134   2.165
 7382TIP3    H122089   2.358   4.165   2.224
 7382TIP3    H222090   2.381   4.079   2.101
 7383TIP3   OH222091   4.920   4.371   4.154
 7383TIP3    H122092   5.015   4.376   4.159
 7383TIP3    H222093   4.892   4.462   4.146
 7384TIP3   OH222094   1.387   5.753   4.538
 7384TIP3    H122095   1.394   5.836   4.490
 7384TIP3    H222096   1.401   5.686   4.472
 7385TIP3   OH222097   5.006   2.412   1.302
 7385TIP3    H122098   5.038   2.342   1.245
 7385TIP3    H222099   5.009   2.491   1.248
 7386TIP3   OH222100   2.579   5.191   6.767
 7386TIP3    H122101   2.577   5.275   6.812
 7386TIP3    H222102   2.487   5.169   6.752
 7387TIP3   OH222103   4.195   5.420   1.195
 7387TIP3    H122104   4.252   5.480   1.148
 7387TIP3    H222105   4.107   5.450   1.176
 7388TIP3   OH222106   7.166   4.546   2.618
 7388TIP3    H122107   7.190   4.587   2.701
 7388TIP3    H222108   7.121   4.616   2.569
 7389TIP3   OH222109   2.899   7.072   0.187
 7389TIP3    H122110   2.959   7.147   0.184
 7389TIP3    H222111   2.892   7.050   0.280
 7390TIP3   OH222112   7.870   5.159   3.087
 7390TIP3    H122113   7.949   5.213   3.092
 7390TIP3    H222114   7.869   5.126   2.998
 7391TIP3   OH222115   4.564   3.002   3.347
 7391TIP3    H122116   4.553   2.996   3.253
 7391TIP3    H222117   4.579   2.912   3.375
 7392TIP3   OH222118   2.157   7.853   0.610
 7392TIP3    H122119   2.108   7.829   0.689
 7392TIP3    H222120   2.218   7.921   0.640
 7393TIP3   OH222121   3.622   2.963   0.894
 7393TIP3    H122122   3.713   2.972   0.921
 7393TIP3    H222123   3.614   3.021   0.818
 7394TIP3   OH222124   6.868   4.179   1.218
 7394TIP3    H122125   6.930   4.107   1.205
 7394TIP3    H222126   6.920   4.249   1.257
 7395TIP3   OH222127   6.944   2.207   4.697
 7395TIP3    H122128   6.899   2.128   4.727
 7395TIP3    H222129   6.979   2.183   4.611
 7396TIP3   OH222130   4.957   7.024   5.661
 7396TIP3    H122131   4.976   7.026   5.567
 7396TIP3    H222132   5.031   6.975   5.698
 7397TIP3   OH222133   4.097   3.083  -0.007
 7397TIP3    H122134   4.107   3.031  -0.087
 7397TIP3    H222135   4.178   3.067   0.042
 7398TIP3   OH222136   6.657   1.218   2.326
 7398TIP3    H122137   6.656   1.309   2.355
 7398TIP3    H222138   6.746   1.203   2.295
 7399TIP3   OH222139   1.267   2.187   0.729
 7399TIP3    H122140   1.208   2.185   0.654
 7399TIP3    H222141   1.334   2.121   0.708
 7400TIP3   OH222142   2.336   7.742   0.409
 7400TIP3    H122143   2.416   7.767   0.454
 7400TIP3    H222144   2.268   7.745   0.476
 7401TIP3   OH222145   4.583   2.732   0.552
 7401TIP3    H122146   4.668   2.775   0.564
 7401TIP3    H222147   4.603   2.639   0.554
 7402TIP3   OH222148   2.225   4.880   4.970
 7402TIP3    H122149   2.230   4.962   5.020
 7402TIP3    H222150   2.316   4.859   4.949
 7403TIP3   OH222151   3.754   1.080   4.346
 7403TIP3    H122152   3.826   1.027   4.312
 7403TIP3    H222153   3.769   1.084   4.440
 7404TIP3   OH222154   1.733   1.562   1.173
 7404TIP3    H122155   1.703   1.557   1.263
 7404TIP3    H222156   1.711   1.651   1.145
 7405TIP3   OH222157   1.324   7.160   6.702
 7405TIP3    H122158   1.349   7.127   6.616
 7405TIP3    H222159   1.229   7.167   6.698
 7406TIP3   OH222160   5.774   1.755   3.732
 7406TIP3    H122161   5.712   1.705   3.785
 7406TIP3    H222162   5.719   1.801   3.668
 7407TIP3   OH222163   2.032   3.285   0.947
 7407TIP3    H122164   2.117   3.242   0.957
 7407TIP3    H222165   2.043   3.341   0.871
 7408TIP3   OH222166   3.380   0.442   1.893
 7408TIP3    H122167   3.313   0.417   1.829
 7408TIP3    H222168   3.345   0.411   1.977
 7409TIP3   OH222169   3.108   0.988   0.143
 7409TIP3    H122170   3.158   1.067   0.123
 7409TIP3    H222171   3.043   0.983   0.073
 7410TIP3   OH222172   6.287   7.256   5.086
 7410TIP3    H122173   6.220   7.229   5.148
 7410TIP3    H222174   6.367   7.214   5.117
 7411TIP3   OH222175   7.294   4.179   5.437
 7411TIP3    H122176   7.304   4.186   5.532
 7411TIP3    H222177   7.273   4.087   5.421
 7412TIP3   OH222178   3.836   5.840   3.462
 7412TIP3    H122179   3.763   5.898   3.443
 7412TIP3    H222180   3.876   5.822   3.377
 7413TIP3   OH222181   4.217   3.586   4.774
 7413TIP3    H122182   4.240   3.621   4.860
 7413TIP3    H222183   4.140   3.531   4.790
 7414TIP3   OH222184   3.571   4.322   6.483
 7414TIP3    H122185   3.570   4.243   6.537
 7414TIP3    H222186   3.563   4.290   6.393
 7415TIP3   OH222187   5.616   0.469   1.691
 7415TIP3    H122188   5.586   0.560   1.681
 7415TIP3    H222189   5.695   0.477   1.745
 7416TIP3   OH222190   5.377   7.551   6.669
 7416TIP3    H122191   5.409   7.534   6.580
 7416TIP3    H222192   5.384   7.645   6.680
 7417TIP3   OH222193   6.388   2.969   3.421
 7417TIP3    H122194   6.393   3.001   3.511
 7417TIP3    H222195   6.320   3.023   3.380
 7418TIP3   OH222196   5.493   5.800   5.160
 7418TIP3    H122197   5.513   5.733   5.225
 7418TIP3    H222198   5.523   5.762   5.077
 7419TIP3   OH222199   1.803   6.027   4.239
 7419TIP3    H122200   1.859   6.054   4.312
 7419TIP3    H222201   1.718   6.066   4.258
 7420TIP3   OH222202   1.155   4.763   1.313
 7420TIP3    H122203   1.140   4.857   1.320
 7420TIP3    H222204   1.212   4.753   1.237
 7421TIP3   OH222205   3.483   3.382   5.228
 7421TIP3    H122206   3.489   3.353   5.137
 7421TIP3    H222207   3.407   3.440   5.229
 7422TIP3   OH222208   6.212   5.310   5.154
 7422TIP3    H122209   6.239   5.399   5.132
 7422TIP3    H222210   6.285   5.276   5.207
 7423TIP3   OH222211   6.290   5.467   0.032
 7423TIP3    H122212   6.342   5.523   0.090
 7423TIP3    H222213   6.348   5.394   0.010
 7424TIP3   OH222214   7.377   7.301   4.202
 7424TIP3    H122215   7.409   7.311   4.112
 7424TIP3    H222216   7.359   7.207   4.210
 7425TIP3   OH222217   7.826   6.010   1.260
 7425TIP3    H122218   7.868   6.096   1.257
 7425TIP3    H222219   7.848   5.976   1.346
 7426TIP3   OH222220   8.207   1.827   4.610
 7426TIP3    H122221   8.121   1.860   4.636
 7426TIP3    H222222   8.191   1.775   4.531
 7427TIP3   OH222223   0.423   6.370   5.042
 7427TIP3    H122224   0.456   6.293   4.995
 7427TIP3    H222225   0.481   6.379   5.118
 7428TIP3   OH222226   3.822   5.860   0.772
 7428TIP3    H122227   3.773   5.886   0.694
 7428TIP3    H222228   3.786   5.914   0.843
 7429TIP3   OH222229   7.004   0.157   0.309
 7429TIP3    H122230   6.922   0.171   0.262
 7429TIP3    H222231   6.980   0.167   0.401
 7430TIP3   OH222232   0.392   5.643   2.599
 7430TIP3    H122233   0.350   5.565   2.636
 7430TIP3    H222234   0.458   5.668   2.664
 7431TIP3   OH222235   0.006   4.517   5.873
 7431TIP3    H122236   0.100   4.514   5.891
 7431TIP3    H222237  -0.021   4.604   5.903
 7432TIP3   OH222238   6.336   7.658   3.610
 7432TIP3    H122239   6.367   7.729   3.667
 7432TIP3    H222240   6.243   7.676   3.597
 7433TIP3   OH222241   1.062   2.437   0.539
 7433TIP3    H122242   0.969   2.457   0.530
 7433TIP3    H222243   1.077   2.362   0.480
 7434TIP3   OH222244   4.149   5.123   6.026
 7434TIP3    H122245   4.131   5.029   6.032
 7434TIP3    H222246   4.069   5.165   6.056
 7435TIP3   OH222247   5.459   7.461   5.109
 7435TIP3    H122248   5.551   7.484   5.097
 7435TIP3    H222249   5.415   7.500   5.033
 7436TIP3   OH222250   3.909   0.331   3.643
 7436TIP3    H122251   3.893   0.365   3.731
 7436TIP3    H222252   3.822   0.318   3.605
 7437TIP3   OH222253   4.456   3.598   2.816
 7437TIP3    H122254   4.488   3.515   2.781
 7437TIP3    H222255   4.535   3.647   2.837
 7438TIP3   OH222256   3.573   5.936   5.631
 7438TIP3    H122257   3.536   6.013   5.587
 7438TIP3    H222258   3.588   5.966   5.721
 7439TIP3   OH222259   8.082   3.345   2.279
 7439TIP3    H122260   8.016   3.395   2.232
 7439TIP3    H222261   8.148   3.410   2.304
 7440TIP3   OH222262   2.388   5.393   5.522
 7440TIP3    H122263   2.407   5.481   5.554
 7440TIP3    H222264   2.417   5.335   5.593
 7441TIP3   OH222265   0.484   2.062   5.327
 7441TIP3    H122266   0.500   2.091   5.417
 7441TIP3    H222267   0.393   2.087   5.310
 7442TIP3   OH222268   5.139   5.420   6.186
 7442TIP3    H122269   5.067   5.358   6.195
 7442TIP3    H222270   5.097   5.506   6.188
 7443TIP3   OH222271   4.424   2.479   4.999
 7443TIP3    H122272   4.455   2.479   4.909
 7443TIP3    H222273   4.481   2.416   5.044
 7444TIP3   OH222274   6.474   5.398   2.099
 7444TIP3    H122275   6.555   5.348   2.089
 7444TIP3    H222276   6.457   5.434   2.012
 7445TIP3   OH222277   5.060   4.680   4.672
 7445TIP3    H122278   5.092   4.730   4.748
 7445TIP3    H222279   5.018   4.746   4.616
 7446TIP3   OH222280   1.893   3.312   4.407
 7446TIP3    H122281   1.887   3.217   4.413
 7446TIP3    H222282   1.801   3.342   4.406
 7447TIP3   OH222283   1.453   7.453   2.318
 7447TIP3    H122284   1.546   7.465   2.339
 7447TIP3    H222285   1.439   7.359   2.328
 7448TIP3   OH222286   6.394   6.928   3.141
 7448TIP3    H122287   6.446   6.860   3.183
 7448TIP3    H222288   6.348   6.971   3.213
 7449TIP3   OH222289   4.403   7.527   0.795
 7449TIP3    H122290   4.322   7.514   0.745
 7449TIP3    H222291   4.463   7.567   0.733
 7450TIP3   OH222292   3.595   4.520   6.697
 7450TIP3    H122293   3.578   4.482   6.611
 7450TIP3    H222294   3.685   4.493   6.717
 7451TIP3   OH222295   6.158   7.402   4.073
 7451TIP3    H122296   6.117   7.365   4.151
 7451TIP3    H222297   6.160   7.496   4.088
 7452TIP3   OH222298   3.306   6.417   5.386
 7452TIP3    H122299   3.292   6.326   5.360
 7452TIP3    H222300   3.277   6.421   5.477
 7453TIP3   OH222301   1.162   3.440   4.568
 7453TIP3    H122302   1.092   3.439   4.504
 7453TIP3    H222303   1.218   3.366   4.544
 7454TIP3   OH222304   7.390   2.978   5.136
 7454TIP3    H122305   7.299   2.985   5.164
 7454TIP3    H222306   7.385   2.938   5.049
 7455TIP3   OH222307   1.667   0.092   1.863
 7455TIP3    H122308   1.687   0.132   1.778
 7455TIP3    H222309   1.752   0.064   1.897
 7456TIP3   OH222310   8.192   7.597   1.499
 7456TIP3    H122311   8.118   7.646   1.534
 7456TIP3    H222312   8.188   7.612   1.404
 7457TIP3   OH222313   4.372   1.228   1.986
 7457TIP3    H122314   4.410   1.316   1.981
 7457TIP3    H222315   4.442   1.170   1.955
 7458TIP3   OH222316   4.111   1.678   6.729
 7458TIP3    H122317   4.135   1.765   6.760
 7458TIP3    H222318   4.152   1.618   6.792
 7459TIP3   OH222319   5.215   6.723   3.457
 7459TIP3    H122320   5.213   6.652   3.521
 7459TIP3    H222321   5.307   6.736   3.438
 7460TIP3   OH222322   7.912   7.808   2.112
 7460TIP3    H122323   7.991   7.861   2.097
 7460TIP3    H222324   7.881   7.787   2.024
 7461TIP3   OH222325   0.821   5.442   6.004
 7461TIP3    H122326   0.864   5.408   6.082
 7461TIP3    H222327   0.749   5.496   6.038
 7462TIP3   OH222328   2.516   6.939   3.269
 7462TIP3    H122329   2.431   6.909   3.303
 7462TIP3    H222330   2.580   6.899   3.327
 7463TIP3   OH222331   7.036   5.688   4.476
 7463TIP3    H122332   7.036   5.748   4.551
 7463TIP3    H222333   7.029   5.744   4.400
 7464TIP3   OH222334   1.100   5.496   4.324
 7464TIP3    H122335   1.191   5.526   4.334
 7464TIP3    H222336   1.048   5.575   4.340
 7465TIP3   OH222337   4.903   4.079   3.820
 7465TIP3    H122338   4.974   4.134   3.852
 7465TIP3    H222339   4.925   3.990   3.850
 7466TIP3   OH222340   6.389   3.530   4.458
 7466TIP3    H122341   6.364   3.576   4.377
 7466TIP3    H222342   6.422   3.446   4.428
 7467TIP3   OH222343   0.467   6.013   1.566
 7467TIP3    H122344   0.469   5.961   1.647
 7467TIP3    H222345   0.495   5.952   1.498
 7468TIP3   OH222346   1.089   1.424   1.318
 7468TIP3    H122347   1.176   1.401   1.352
 7468TIP3    H222348   1.103   1.505   1.270
 7469TIP3   OH222349   3.283   1.600   3.092
 7469TIP3    H122350   3.337   1.526   3.118
 7469TIP3    H222351   3.219   1.562   3.031
 7470TIP3   OH222352   0.401   3.858   1.560
 7470TIP3    H122353   0.419   3.800   1.487
 7470TIP3    H222354   0.358   3.934   1.521
 7471TIP3   OH222355   4.880   5.361   1.495
 7471TIP3    H122356   4.808   5.424   1.489
 7471TIP3    H222357   4.847   5.292   1.553
 7472TIP3   OH222358   1.437   4.169   0.463
 7472TIP3    H122359   1.366   4.218   0.504
 7472TIP3    H222360   1.433   4.194   0.370
 7473TIP3   OH222361   3.808   6.892   2.527
 7473TIP3    H122362   3.889   6.842   2.544
 7473TIP3    H222363   3.743   6.826   2.504
 7474TIP3   OH222364   4.417   1.342   0.080
 7474TIP3    H122365   4.399   1.436   0.072
 7474TIP3    H222366   4.333   1.303   0.103
 7475TIP3   OH222367   7.796   3.713   1.737
 7475TIP3    H122368   7.798   3.654   1.662
 7475TIP3    H222369   7.712   3.694   1.780
 7476TIP3   OH222370   7.113   2.492   5.993
 7476TIP3    H122371   7.054   2.421   6.020
 7476TIP3    H222372   7.055   2.558   5.955
 7477TIP3   OH222373   7.816   2.931   4.201
 7477TIP3    H122374   7.876   2.862   4.231
 7477TIP3    H222375   7.864   3.012   4.214
 7478TIP3   OH222376   5.995   5.986   6.723
 7478TIP3    H122377   6.003   5.911   6.782
 7478TIP3    H222378   6.085   6.005   6.696
 7479TIP3   OH222379   1.282   7.247   0.476
 7479TIP3    H122380   1.237   7.331   0.463
 7479TIP3    H222381   1.324   7.255   0.561
 7480TIP3   OH222382   4.588   5.127   0.597
 7480TIP3    H122383   4.600   5.054   0.657
 7480TIP3    H222384   4.546   5.087   0.520
 7481TIP3   OH222385   3.607   5.302   1.397
 7481TIP3    H122386   3.588   5.211   1.373
 7481TIP3    H222387   3.574   5.310   1.487
 7482TIP3   OH222388   6.235   6.199   5.283
 7482TIP3    H122389   6.228   6.159   5.369
 7482TIP3    H222390   6.300   6.146   5.236
 7483TIP3   OH222391   3.588   6.600   0.393
 7483TIP3    H122392   3.551   6.655   0.463
 7483TIP3    H222393   3.680   6.625   0.389
 7484TIP3   OH222394   8.189   5.640   0.960
 7484TIP3    H122395   8.235   5.557   0.953
 7484TIP3    H222396   8.191   5.676   0.871
 7485TIP3   OH222397   3.102   7.462   3.129
 7485TIP3    H122398   3.026   7.406   3.114
 7485TIP3    H222399   3.107   7.470   3.225
 7486TIP3   OH222400   6.190   4.526   3.583
 7486TIP3    H122401   6.199   4.480   3.499
 7486TIP3    H222402   6.267   4.499   3.633
 7487TIP3   OH222403   0.810   1.649   1.369
 7487TIP3    H122404   0.857   1.575   1.407
 7487TIP3    H222405   0.837   1.649   1.277
 7488TIP3   OH222406   3.419   6.154   5.195
 7488TIP3    H122407   3.325   6.141   5.180
 7488TIP3    H222408   3.442   6.087   5.259
 7489TIP3   OH222409   4.086   2.386   2.682
 7489TIP3    H122410   3.992   2.396   2.670
 7489TIP3    H222411   4.094   2.316   2.747
 7490TIP3   OH222412   6.723   6.787   1.321
 7490TIP3    H122413   6.693   6.697   1.328
 7490TIP3    H222414   6.644   6.840   1.327
 7491TIP3   OH222415   7.388   4.826   0.171
 7491TIP3    H122416   7.302   4.800   0.139
 7491TIP3    H222417   7.410   4.904   0.120
 7492TIP3   OH222418   8.143   7.688   1.233
 7492TIP3    H122419   8.124   7.611   1.180
 7492TIP3    H222420   8.057   7.724   1.255
 7493TIP3   OH222421   6.912   4.198   1.925
 7493TIP3    H122422   6.905   4.131   1.993
 7493TIP3    H222423   6.827   4.241   1.924
 7494TIP3   OH222424   5.319   7.404   0.179
 7494TIP3    H122425   5.251   7.432   0.240
 7494TIP3    H222426   5.292   7.316   0.151
 7495TIP3   OH222427   2.179   5.196   2.504
 7495TIP3    H122428   2.223   5.241   2.433
 7495TIP3    H222429   2.246   5.186   2.572
 7496TIP3   OH222430   4.352   2.214   2.552
 7496TIP3    H122431   4.314   2.188   2.636
 7496TIP3    H222432   4.320   2.303   2.538
 7497TIP3   OH222433   6.804   6.819   6.153
 7497TIP3    H122434   6.731   6.866   6.192
 7497TIP3    H222435   6.859   6.793   6.227
 7498TIP3   OH222436   7.194   2.090   0.464
 7498TIP3    H122437   7.113   2.059   0.424
 7498TIP3    H222438   7.244   2.126   0.391
 7499TIP3   OH222439   0.130   1.399   0.188
 7499TIP3    H122440   0.097   1.310   0.176
 7499TIP3    H222441   0.070   1.438   0.251
 7500TIP3   OH222442   1.726   3.491   1.033
 7500TIP3    H122443   1.722   3.475   0.939
 7500TIP3    H222444   1.636   3.479   1.064
 7501TIP3   OH222445   2.496   3.832   6.299
 7501TIP3    H122446   2.473   3.913   6.345
 7501TIP3    H222447   2.576   3.802   6.341
 7502TIP3   OH222448   4.215   1.674   1.910
 7502TIP3    H122449   4.166   1.696   1.830
 7502TIP3    H222450   4.170   1.723   1.979
 7503TIP3   OH222451   7.453   3.048   1.630
 7503TIP3    H122452   7.397   3.032   1.706
 7503TIP3    H222453   7.503   2.967   1.619
 7504TIP3   OH222454   1.059   6.220   3.396
 7504TIP3    H122455   1.109   6.296   3.425
 7504TIP3    H222456   1.093   6.147   3.448
 7505TIP3   OH222457   3.997   0.372   0.997
 7505TIP3    H122458   4.030   0.409   1.079
 7505TIP3    H222459   4.075   0.345   0.949
 7506TIP3   OH222460   6.988   0.887   2.504
 7506TIP3    H122461   6.980   0.972   2.459
 7506TIP3    H222462   6.905   0.877   2.551
 7507TIP3   OH222463   7.875   1.872   4.866
 7507TIP3    H122464   7.881   1.779   4.846
 7507TIP3    H222465   7.887   1.877   4.961
 7508TIP3   OH222466   4.419   0.763   1.025
 7508TIP3    H122467   4.326   0.745   1.016
 7508TIP3    H222468   4.429   0.853   0.993
 7509TIP3   OH222469   6.962   6.059   4.931
 7509TIP3    H122470   6.878   6.070   4.975
 7509TIP3    H222471   6.964   6.129   4.866
 7510TIP3   OH222472   0.556   1.914   2.164
 7510TIP3    H122473   0.544   1.857   2.088
 7510TIP3    H222474   0.611   1.863   2.224
 7511TIP3   OH222475   1.805   2.052   2.542
 7511TIP3    H122476   1.860   2.114   2.495
 7511TIP3    H222477   1.762   2.001   2.472
 7512TIP3   OH222478   8.018   1.096   6.178
 7512TIP3    H122479   8.113   1.084   6.165
 7512TIP3    H222480   7.979   1.067   6.096
 7513TIP3   OH222481   4.002   7.786   5.626
 7513TIP3    H122482   4.064   7.829   5.686
 7513TIP3    H222483   4.058   7.732   5.569
 7514TIP3   OH222484   6.980   7.295   2.288
 7514TIP3    H122485   7.009   7.271   2.376
 7514TIP3    H222486   6.892   7.330   2.300
 7515TIP3   OH222487   4.506   0.845   4.177
 7515TIP3    H122488   4.457   0.776   4.132
 7515TIP3    H222489   4.578   0.865   4.117
 7516TIP3   OH222490   2.373   0.353   1.920
 7516TIP3    H122491   2.311   0.349   1.993
 7516TIP3    H222492   2.420   0.270   1.924
 7517TIP3   OH222493   7.313   2.498   6.194
 7517TIP3    H122494   7.312   2.572   6.255
 7517TIP3    H222495   7.235   2.511   6.139
 7518TIP3   OH222496   7.712   2.368   4.382
 7518TIP3    H122497   7.794   2.319   4.390
 7518TIP3    H222498   7.739   2.452   4.345
 7519TIP3   OH222499   5.915   1.039   2.436
 7519TIP3    H122500   5.950   1.017   2.523
 7519TIP3    H222501   5.991   1.069   2.387
 7520TIP3   OH222502   0.032   4.582   2.442
 7520TIP3    H122503   0.084   4.652   2.481
 7520TIP3    H222504  -0.020   4.626   2.375
 7521TIP3   OH222505   0.208   6.888   4.205
 7521TIP3    H122506   0.188   6.835   4.282
 7521TIP3    H222507   0.256   6.963   4.240
 7522TIP3   OH222508   7.684   2.011   1.701
 7522TIP3    H122509   7.649   1.970   1.622
 7522TIP3    H222510   7.646   2.099   1.702
 7523TIP3   OH222511   3.645   5.999   3.829
 7523TIP3    H122512   3.569   5.956   3.791
 7523TIP3    H222513   3.710   5.929   3.840
 7524TIP3   OH222514   7.917   0.161   5.023
 7524TIP3    H122515   7.978   0.090   5.006
 7524TIP3    H222516   7.854   0.157   4.951
 7525TIP3   OH222517   4.549   2.613   2.330
 7525TIP3    H122518   4.633   2.658   2.322
 7525TIP3    H222519   4.571   2.520   2.339
 7526TIP3   OH222520   3.204   3.949   4.999
 7526TIP3    H122521   3.151   3.960   5.078
 7526TIP3    H222522   3.270   4.018   5.004
 7527TIP3   OH222523   5.331   4.034   4.019
 7527TIP3    H122524   5.255   3.981   4.042
 7527TIP3    H222525   5.345   4.016   3.926
 7528TIP3   OH222526   7.876   2.474   5.489
 7528TIP3    H122527   7.834   2.422   5.558
 7528TIP3    H222528   7.898   2.557   5.531
 7529TIP3   OH222529   8.085   7.462   6.475
 7529TIP3    H122530   8.110   7.502   6.392
 7529TIP3    H222531   8.114   7.525   6.541
 7530TIP3   OH222532   7.569   4.243   4.879
 7530TIP3    H122533   7.609   4.328   4.900
 7530TIP3    H222534   7.558   4.200   4.964
 7531TIP3   OH222535   7.144   6.118   6.403
 7531TIP3    H122536   7.106   6.170   6.332
 7531TIP3    H222537   7.131   6.171   6.482
 7532TIP3   OH222538   2.343   2.429   1.052
 7532TIP3    H122539   2.251   2.403   1.059
 7532TIP3    H222540   2.356   2.448   0.959
 7533TIP3   OH222541   7.361   7.760   6.630
 7533TIP3    H122542   7.286   7.786   6.684
 7533TIP3    H222543   7.431   7.743   6.693
 7534TIP3   OH222544   1.047   5.004   2.093
 7534TIP3    H122545   1.131   5.033   2.129
 7534TIP3    H222546   1.030   4.920   2.136
 7535TIP3   OH222547   2.542   4.733   2.545
 7535TIP3    H122548   2.625   4.781   2.545
 7535TIP3    H222549   2.527   4.712   2.637
 7536TIP3   OH222550   6.489   0.320   3.438
 7536TIP3    H122551   6.502   0.247   3.378
 7536TIP3    H222552   6.458   0.392   3.383
 7537TIP3   OH222553   6.975   5.592   1.173
 7537TIP3    H122554   7.022   5.611   1.254
 7537TIP3    H222555   6.883   5.581   1.200
 7538TIP3   OH222556   5.999   2.730   1.025
 7538TIP3    H122557   5.990   2.733   1.120
 7538TIP3    H222558   5.981   2.639   1.001
 7539TIP3   OH222559   4.573  -0.008   0.254
 7539TIP3    H122560   4.642   0.032   0.202
 7539TIP3    H222561   4.498   0.050   0.242
 7540TIP3   OH222562   1.197   7.494   4.148
 7540TIP3    H122563   1.153   7.512   4.065
 7540TIP3    H222564   1.279   7.543   4.143
 7541TIP3   OH222565   8.199   5.915   5.455
 7541TIP3    H122566   8.195   5.985   5.520
 7541TIP3    H222567   8.159   5.840   5.499
 7542TIP3   OH222568   6.444   0.735   3.104
 7542TIP3    H122569   6.419   0.645   3.124
 7542TIP3    H222570   6.404   0.787   3.175
 7543TIP3   OH222571   7.341   6.354   3.612
 7543TIP3    H122572   7.419   6.336   3.559
 7543TIP3    H222573   7.375   6.363   3.701
 7544TIP3   OH222574   7.370   1.919   2.004
 7544TIP3    H122575   7.298   1.952   2.058
 7544TIP3    H222576   7.426   1.870   2.065
 7545TIP3   OH222577   1.101   1.497   3.149
 7545TIP3    H122578   1.019   1.448   3.153
 7545TIP3    H222579   1.129   1.489   3.058
 7546TIP3   OH222580   3.909   0.124   1.289
 7546TIP3    H122581   3.876   0.103   1.202
 7546TIP3    H222582   3.837   0.100   1.348
 7547TIP3   OH222583   1.426   1.409   2.051
 7547TIP3    H122584   1.372   1.389   1.975
 7547TIP3    H222585   1.381   1.369   2.125
 7548TIP3   OH222586   4.182   7.021   6.522
 7548TIP3    H122587   4.267   7.038   6.562
 7548TIP3    H222588   4.120   7.069   6.577
 7549TIP3   OH222589   7.709   6.823   1.691
 7549TIP3    H122590   7.644   6.875   1.738
 7549TIP3    H222591   7.763   6.887   1.646
 7550TIP3   OH222592   7.001   3.522   5.637
 7550TIP3    H122593   6.988   3.524   5.732
 7550TIP3    H222594   6.959   3.441   5.608
 7551TIP3   OH222595   7.194   4.265   3.818
 7551TIP3    H122596   7.234   4.193   3.768
 7551TIP3    H222597   7.183   4.335   3.754
 7552TIP3   OH222598   1.337   0.084   1.575
 7552TIP3    H122599   1.335   0.021   1.647
 7552TIP3    H222600   1.392   0.156   1.607
 7553TIP3   OH222601   4.231   4.593   2.280
 7553TIP3    H122602   4.181   4.653   2.226
 7553TIP3    H222603   4.283   4.649   2.337
 7554TIP3   OH222604   6.204   7.555   0.508
 7554TIP3    H122605   6.279   7.525   0.456
 7554TIP3    H222606   6.129   7.510   0.471
 7555TIP3   OH222607   0.500   4.483   3.740
 7555TIP3    H122608   0.418   4.451   3.776
 7555TIP3    H222609   0.500   4.452   3.649
 7556TIP3   OH222610   2.792   6.604   2.730
 7556TIP3    H122611   2.859   6.624   2.795
 7556TIP3    H222612   2.733   6.543   2.775
 7557TIP3   OH222613   1.745   7.417   0.974
 7557TIP3    H122614   1.691   7.341   0.993
 7557TIP3    H222615   1.818   7.410   1.035
 7558TIP3   OH222616   5.332   7.756   5.064
 7558TIP3    H122617   5.420   7.793   5.067
 7558TIP3    H222618   5.312   7.734   5.155
 7559TIP3   OH222619   7.916   7.034   5.725
 7559TIP3    H122620   7.834   6.995   5.754
 7559TIP3    H222621   7.984   6.977   5.761
 7560TIP3   OH222622   4.121   4.261   3.575
 7560TIP3    H122623   4.212   4.288   3.566
 7560TIP3    H222624   4.072   4.343   3.582
 7561TIP3   OH222625   2.745   6.846   1.414
 7561TIP3    H122626   2.803   6.880   1.482
 7561TIP3    H222627   2.657   6.865   1.445
 7562TIP3   OH222628   3.947   4.476   3.640
 7562TIP3    H122629   3.972   4.477   3.733
 7562TIP3    H222630   3.852   4.483   3.641
 7563TIP3   OH222631   2.225   1.112   1.695
 7563TIP3    H122632   2.263   1.121   1.608
 7563TIP3    H222633   2.134   1.086   1.679
 7564TIP3   OH222634   1.405   3.138   3.495
 7564TIP3    H122635   1.401   3.075   3.567
 7564TIP3    H222636   1.426   3.084   3.418
 7565TIP3   OH222637   0.699   4.305   5.082
 7565TIP3    H122638   0.793   4.291   5.078
 7565TIP3    H222639   0.689   4.400   5.082
 7566TIP3   OH222640   8.182   0.232   4.513
 7566TIP3    H122641   8.210   0.294   4.445
 7566TIP3    H222642   8.222   0.265   4.593
 7567TIP3   OH222643   4.805   5.093   1.605
 7567TIP3    H122644   4.845   5.021   1.654
 7567TIP3    H222645   4.787   5.160   1.671
 7568TIP3   OH222646   5.059   5.356   5.825
 7568TIP3    H122647   4.995   5.358   5.754
 7568TIP3    H222648   5.028   5.287   5.883
 7569TIP3   OH222649   8.277   2.237   6.090
 7569TIP3    H122650   8.260   2.229   5.996
 7569TIP3    H222651   8.289   2.330   6.105
 7570TIP3   OH222652   7.276   3.677   1.887
 7570TIP3    H122653   7.244   3.612   1.824
 7570TIP3    H222654   7.371   3.666   1.887
 7571TIP3   OH222655   1.321   2.167   5.230
 7571TIP3    H122656   1.285   2.087   5.267
 7571TIP3    H222657   1.355   2.141   5.144
 7572TIP3   OH222658   2.236   5.675   6.398
 7572TIP3    H122659   2.299   5.712   6.336
 7572TIP3    H222660   2.238   5.580   6.380
 7573TIP3   OH222661   6.138   3.233   5.895
 7573TIP3    H122662   6.218   3.202   5.938
 7573TIP3    H222663   6.127   3.322   5.927
 7574TIP3   OH222664   2.845   4.313   5.920
 7574TIP3    H122665   2.793   4.250   5.870
 7574TIP3    H222666   2.933   4.275   5.924
 7575TIP3   OH222667   1.166   3.571   1.464
 7575TIP3    H122668   1.151   3.552   1.556
 7575TIP3    H222669   1.248   3.619   1.463
 7576TIP3   OH222670   1.696   0.027   4.145
 7576TIP3    H122671   1.643   0.044   4.067
 7576TIP3    H222672   1.633   0.005   4.213
 7577TIP3   OH222673   0.734   2.569   5.996
 7577TIP3    H122674   0.812   2.518   5.972
 7577TIP3    H222675   0.740   2.577   6.091
 7578TIP3   OH222676   4.305   0.550   6.090
 7578TIP3    H122677   4.215   0.520   6.103
 7578TIP3    H222678   4.350   0.532   6.172
 7579TIP3   OH222679   2.352   1.048   0.086
 7579TIP3    H122680   2.299   0.983   0.040
 7579TIP3    H222681   2.356   1.017   0.176
 7580TIP3   OH222682   5.252   4.249   0.030
 7580TIP3    H122683   5.256   4.154   0.019
 7580TIP3    H222684   5.173   4.275  -0.018
 7581TIP3   OH222685   3.593   0.297   4.071
 7581TIP3    H122686   3.543   0.280   3.991
 7581TIP3    H222687   3.530   0.282   4.142
 7582TIP3   OH222688   2.305   6.478   2.279
 7582TIP3    H122689   2.330   6.409   2.339
 7582TIP3    H222690   2.320   6.559   2.328
 7583TIP3   OH222691   4.313   0.637   6.528
 7583TIP3    H122692   4.393   0.596   6.560
 7583TIP3    H222693   4.248   0.620   6.597
 7584TIP3   OH222694   3.802   1.379   1.326
 7584TIP3    H122695   3.814   1.314   1.395
 7584TIP3    H222696   3.814   1.464   1.370
 7585TIP3   OH222697   0.851   6.876   0.388
 7585TIP3    H122698   0.928   6.821   0.403
 7585TIP3    H222699   0.783   6.835   0.442
 7586TIP3   OH222700   1.855   2.967   3.858
 7586TIP3    H122701   1.891   3.052   3.885
 7586TIP3    H222702   1.931   2.912   3.842
 7587TIP3   OH222703   7.807   3.943   3.185
 7587TIP3    H122704   7.844   4.031   3.187
 7587TIP3    H222705   7.791   3.926   3.092
 7588TIP3   OH222706   0.627   1.348   2.032
 7588TIP3    H122707   0.533   1.363   2.043
 7588TIP3    H222708   0.668   1.422   2.076
 7589TIP3   OH222709   7.165   3.852   0.881
 7589TIP3    H122710   7.189   3.762   0.902
 7589TIP3    H222711   7.222   3.906   0.936
 7590TIP3   OH222712   4.289   3.509   1.161
 7590TIP3    H122713   4.217   3.569   1.178
 7590TIP3    H222714   4.368   3.559   1.183
 7591TIP3   OH222715   2.494   3.627   1.228
 7591TIP3    H122716   2.540   3.581   1.157
 7591TIP3    H222717   2.407   3.645   1.193
 7592TIP3   OH222718   7.189   1.869   6.548
 7592TIP3    H122719   7.261   1.864   6.611
 7592TIP3    H222720   7.158   1.779   6.539
 7593TIP3   OH222721   3.766   2.306   4.783
 7593TIP3    H122722   3.766   2.215   4.813
 7593TIP3    H222723   3.706   2.305   4.708
 7594TIP3   OH222724   7.987   0.956   5.524
 7594TIP3    H122725   8.073   0.952   5.483
 7594TIP3    H222726   7.996   1.020   5.595
 7595TIP3   OH222727   0.111   2.325   3.096
 7595TIP3    H122728   0.150   2.240   3.117
 7595TIP3    H222729   0.124   2.335   3.002
 7596TIP3   OH222730   4.763   5.309   1.773
 7596TIP3    H122731   4.773   5.341   1.862
 7596TIP3    H222732   4.670   5.319   1.753
 7597TIP3   OH222733   1.997   1.092   0.070
 7597TIP3    H122734   1.911   1.058   0.046
 7597TIP3    H222735   1.997   1.182   0.037
 7598TIP3   OH222736   0.999   7.633   2.648
 7598TIP3    H122737   0.983   7.649   2.555
 7598TIP3    H222738   1.094   7.643   2.658
 7599TIP3   OH222739   8.272   1.468   5.280
 7599TIP3    H122740   8.275   1.446   5.187
 7599TIP3    H222741   8.272   1.383   5.325
 7600TIP3   OH222742   0.283   0.660   2.332
 7600TIP3    H122743   0.298   0.733   2.273
 7600TIP3    H222744   0.275   0.584   2.275
 7601TIP3   OH222745   6.442   3.940   1.222
 7601TIP3    H122746   6.456   3.875   1.153
 7601TIP3    H222747   6.396   4.012   1.179
 7602TIP3   OH222748   3.770   2.336   2.892
 7602TIP3    H122749   3.728   2.347   2.977
 7602TIP3    H222750   3.862   2.357   2.907
 7603TIP3   OH222751   7.809   0.339   5.950
 7603TIP3    H122752   7.752   0.413   5.931
 7603TIP3    H222753   7.751   0.273   5.988
 7604TIP3   OH222754   6.237   0.280   3.126
 7604TIP3    H122755   6.217   0.310   3.038
 7604TIP3    H222756   6.308   0.337   3.156
 7605TIP3   OH222757   0.993   4.389   1.501
 7605TIP3    H122758   1.003   4.482   1.524
 7605TIP3    H222759   0.901   4.370   1.519
 7606TIP3   OH222760   6.844   6.384   0.866
 7606TIP3    H122761   6.910   6.321   0.895
 7606TIP3    H222762   6.879   6.469   0.892
 7607TIP3   OH222763   7.609   3.637   6.235
 7607TIP3    H122764   7.534   3.606   6.184
 7607TIP3    H222765   7.639   3.559   6.282
 7608TIP3   OH222766   4.926   1.593   1.716
 7608TIP3    H122767   5.008   1.567   1.758
 7608TIP3    H222768   4.904   1.677   1.756
 7609TIP3   OH222769   5.866   3.589   0.740
 7609TIP3    H122770   5.950   3.569   0.781
 7609TIP3    H222771   5.831   3.663   0.790
 7610TIP3   OH222772   3.711   5.357   3.460
 7610TIP3    H122773   3.787   5.308   3.492
 7610TIP3    H222774   3.725   5.446   3.491
 7611TIP3   OH222775   2.414   7.500   3.723
 7611TIP3    H122776   2.470   7.498   3.645
 7611TIP3    H222777   2.391   7.409   3.738
 7612TIP3   OH222778   8.243   3.079   4.982
 7612TIP3    H122779   8.335   3.061   4.999
 7612TIP3    H222780   8.219   3.146   5.047
 7613TIP3   OH222781   4.845   5.275   5.692
 7613TIP3    H122782   4.872   5.310   5.607
 7613TIP3    H222783   4.877   5.185   5.692
 7614TIP3   OH222784   0.695   7.519   2.219
 7614TIP3    H122785   0.767   7.477   2.172
 7614TIP3    H222786   0.617   7.472   2.190
 7615TIP3   OH222787   3.572   3.746   0.696
 7615TIP3    H122788   3.610   3.826   0.732
 7615TIP3    H222789   3.643   3.705   0.647
 7616TIP3   OH222790   8.280   6.638   4.975
 7616TIP3    H122791   8.233   6.557   4.994
 7616TIP3    H222792   8.373   6.613   4.979
 7617TIP3   OH222793   4.371   2.742   2.510
 7617TIP3    H122794   4.449   2.708   2.465
 7617TIP3    H222795   4.404   2.771   2.595
 7618TIP3   OH222796   3.256   1.170   0.790
 7618TIP3    H122797   3.218   1.185   0.704
 7618TIP3    H222798   3.259   1.257   0.831
 7619TIP3   OH222799   6.956   2.923   2.807
 7619TIP3    H122800   6.906   3.005   2.811
 7619TIP3    H222801   6.898   2.858   2.846
 7620TIP3   OH222802   0.851   0.051   1.155
 7620TIP3    H122803   0.887   0.014   1.236
 7620TIP3    H222804   0.887   0.139   1.151
 7621TIP3   OH222805   3.465   1.239   6.078
 7621TIP3    H122806   3.455   1.319   6.026
 7621TIP3    H222807   3.417   1.257   6.159
 7622TIP3   OH222808   3.745   1.602   2.258
 7622TIP3    H122809   3.724   1.684   2.213
 7622TIP3    H222810   3.660   1.563   2.277
 7623TIP3   OH222811   0.754   7.091   4.156
 7623TIP3    H122812   0.685   7.156   4.146
 7623TIP3    H222813   0.739   7.054   4.243
 7624TIP3   OH222814   3.158   2.442   0.654
 7624TIP3    H122815   3.167   2.449   0.559
 7624TIP3    H222816   3.195   2.523   0.688
 7625TIP3   OH222817   5.371   1.092   3.983
 7625TIP3    H122818   5.384   0.997   3.979
 7625TIP3    H222819   5.404   1.117   4.070
 7626TIP3   OH222820   2.794   4.008   4.337
 7626TIP3    H122821   2.751   4.078   4.386
 7626TIP3    H222822   2.736   3.933   4.346
 7627TIP3   OH222823   7.806   5.851   1.047
 7627TIP3    H122824   7.877   5.789   1.060
 7627TIP3    H222825   7.819   5.918   1.115
 7628TIP3   OH222826   2.537   4.789   1.557
 7628TIP3    H122827   2.458   4.828   1.520
 7628TIP3    H222828   2.542   4.822   1.646
 7629TIP3   OH222829   2.405   7.334   0.539
 7629TIP3    H122830   2.390   7.240   0.532
 7629TIP3    H222831   2.353   7.372   0.469
 7630TIP3   OH222832   3.031   2.096   2.344
 7630TIP3    H122833   2.988   2.099   2.429
 7630TIP3    H222834   3.125   2.093   2.365
 7631TIP3   OH222835   1.841   5.788   5.332
 7631TIP3    H122836   1.854   5.830   5.416
 7631TIP3    H222837   1.922   5.738   5.317
 7632TIP3   OH222838   6.947   2.148   0.260
 7632TIP3    H122839   6.895   2.226   0.241
 7632TIP3    H222840   7.020   2.153   0.198
 7633TIP3   OH222841   8.095   6.388   5.045
 7633TIP3    H122842   8.127   6.379   5.135
 7633TIP3    H222843   8.005   6.418   5.054
 7634TIP3   OH222844   0.869   4.130   2.892
 7634TIP3    H122845   0.810   4.070   2.938
 7634TIP3    H222846   0.945   4.076   2.869
 7635TIP3   OH222847   3.755   5.821   4.546
 7635TIP3    H122848   3.702   5.742   4.557
 7635TIP3    H222849   3.814   5.800   4.473
 7636TIP3   OH222850   5.106   4.005   3.467
 7636TIP3    H122851   5.049   3.931   3.443
 7636TIP3    H222852   5.051   4.082   3.456
 7637TIP3   OH222853   3.202   4.376   6.674
 7637TIP3    H122854   3.234   4.434   6.605
 7637TIP3    H222855   3.111   4.359   6.651
 7638TIP3   OH222856   4.329   6.657   2.451
 7638TIP3    H122857   4.387   6.585   2.426
 7638TIP3    H222858   4.389   6.725   2.483
 7639TIP3   OH222859   4.049   4.032   2.538
 7639TIP3    H122860   4.058   4.060   2.629
 7639TIP3    H222861   4.053   3.936   2.542
 7640TIP3   OH222862   7.807   6.115   3.414
 7640TIP3    H122863   7.806   6.071   3.499
 7640TIP3    H222864   7.730   6.081   3.368
 7641TIP3   OH222865   0.471   5.456   0.151
 7641TIP3    H122866   0.547   5.512   0.166
 7641TIP3    H222867   0.436   5.485   0.067
 7642TIP3   OH222868   7.237   3.541   2.949
 7642TIP3    H122869   7.193   3.458   2.930
 7642TIP3    H222870   7.287   3.560   2.869
 7643TIP3   OH222871   1.962   5.489   6.487
 7643TIP3    H122872   1.888   5.474   6.428
 7643TIP3    H222873   1.972   5.585   6.489
 7644TIP3   OH222874   1.029   3.787   5.382
 7644TIP3    H122875   1.094   3.796   5.312
 7644TIP3    H222876   0.956   3.843   5.356
 7645TIP3   OH222877   0.745   1.104   5.332
 7645TIP3    H122878   0.694   1.029   5.365
 7645TIP3    H222879   0.733   1.101   5.237
 7646TIP3   OH222880   3.093   0.068   3.223
 7646TIP3    H122881   3.063  -0.018   3.192
 7646TIP3    H222882   3.140   0.105   3.149
 7647TIP3   OH222883   7.318   6.416   2.047
 7647TIP3    H122884   7.279   6.333   2.074
 7647TIP3    H222885   7.330   6.407   1.953
 7648TIP3   OH222886   5.138   4.856   1.200
 7648TIP3    H122887   5.134   4.949   1.223
 7648TIP3    H222888   5.055   4.839   1.155
 7649TIP3   OH222889   5.343   5.227   2.463
 7649TIP3    H122890   5.275   5.218   2.396
 7649TIP3    H222891   5.315   5.302   2.515
 7650TIP3   OH222892   5.994   6.088   0.826
 7650TIP3    H122893   6.036   6.162   0.782
 7650TIP3    H222894   5.930   6.128   0.884
 7651TIP3   OH222895   0.119   1.167   1.079
 7651TIP3    H122896   0.069   1.221   1.141
 7651TIP3    H222897   0.209   1.198   1.087
 7652TIP3   OH222898   3.440   5.315  -0.016
 7652TIP3    H122899   3.413   5.359   0.065
 7652TIP3    H222900   3.438   5.222   0.005
 7653TIP3   OH222901   8.256   4.390   3.205
 7653TIP3    H122902   8.172   4.433   3.190
 7653TIP3    H222903   8.252   4.310   3.152
 7654TIP3   OH222904   7.389   4.343   4.693
 7654TIP3    H122905   7.455   4.306   4.751
 7654TIP3    H222906   7.416   4.435   4.681
 7655TIP3   OH222907   3.026   5.988   4.719
 7655TIP3    H122908   2.990   6.075   4.699
 7655TIP3    H222909   2.953   5.940   4.757
 7656TIP3   OH222910   1.381   3.862   1.559
 7656TIP3    H122911   1.384   3.768   1.541
 7656TIP3    H222912   1.379   3.868   1.654
 7657TIP3   OH222913   3.256   4.404   5.462
 7657TIP3    H122914   3.285   4.439   5.546
 7657TIP3    H222915   3.194   4.469   5.428
 7658TIP3   OH222916   1.890   3.945   2.790
 7658TIP3    H122917   1.896   4.029   2.835
 7658TIP3    H222918   1.921   3.881   2.853
 7659TIP3   OH222919   7.338   1.825   2.536
 7659TIP3    H122920   7.404   1.893   2.521
 7659TIP3    H222921   7.254   1.870   2.525
 7660TIP3   OH222922   4.271   0.707   3.523
 7660TIP3    H122923   4.267   0.749   3.609
 7660TIP3    H222924   4.241   0.618   3.539
 7661TIP3   OH222925   3.697   1.529   3.032
 7661TIP3    H122926   3.779   1.538   2.984
 7661TIP3    H222927   3.710   1.454   3.090
 7662TIP3   OH222928   7.779   5.675   3.051
 7662TIP3    H122929   7.756   5.584   3.029
 7662TIP3    H222930   7.695   5.716   3.070
 7663TIP3   OH222931   7.137   2.343   2.090
 7663TIP3    H122932   7.135   2.270   2.153
 7663TIP3    H222933   7.050   2.343   2.050
 7664TIP3   OH222934   7.272   4.604   2.020
 7664TIP3    H122935   7.272   4.514   1.988
 7664TIP3    H222936   7.234   4.599   2.107
 7665TIP3   OH222937   7.583   4.902   6.455
 7665TIP3    H122938   7.550   4.819   6.491
 7665TIP3    H222939   7.514   4.930   6.395
 7666TIP3   OH222940   6.713   7.360   2.299
 7666TIP3    H122941   6.686   7.352   2.207
 7666TIP3    H222942   6.679   7.281   2.341
 7667TIP3   OH222943   5.801   0.170   4.440
 7667TIP3    H122944   5.808   0.212   4.354
 7667TIP3    H222945   5.738   0.224   4.487
 7668TIP3   OH222946   5.059   2.037   2.676
 7668TIP3    H122947   5.080   2.093   2.602
 7668TIP3    H222948   4.986   2.079   2.720
 7669TIP3   OH222949   5.499   0.950   2.435
 7669TIP3    H122950   5.548   1.032   2.433
 7669TIP3    H222951   5.422   0.966   2.380
 7670TIP3   OH222952   7.893   4.873   6.655
 7670TIP3    H122953   7.970   4.821   6.678
 7670TIP3    H222954   7.888   4.867   6.560
 7671TIP3   OH222955   7.557   6.146   1.997
 7671TIP3    H122956   7.531   6.184   2.081
 7671TIP3    H222957   7.487   6.085   1.975
 7672TIP3   OH222958   6.218   0.623   2.613
 7672TIP3    H122959   6.152   0.567   2.570
 7672TIP3    H222960   6.215   0.705   2.563
 7673TIP3   OH222961   3.355   2.926   5.644
 7673TIP3    H122962   3.410   2.999   5.618
 7673TIP3    H222963   3.315   2.953   5.727
 7674TIP3   OH222964   3.384   6.068   4.694
 7674TIP3    H122965   3.381   6.162   4.713
 7674TIP3    H222966   3.462   6.057   4.639
 7675TIP3   OH222967   4.043   1.320   2.396
 7675TIP3    H122968   3.995   1.354   2.471
 7675TIP3    H222969   4.031   1.386   2.327
 7676TIP3   OH222970   7.872   4.973   1.183
 7676TIP3    H122971   7.817   4.918   1.128
 7676TIP3    H222972   7.872   5.058   1.140
 7677TIP3   OH222973   0.167   1.731   6.737
 7677TIP3    H122974   0.074   1.753   6.740
 7677TIP3    H222975   0.178   1.684   6.655
 7678TIP3   OH222976   2.285   1.754   3.366
 7678TIP3    H122977   2.243   1.727   3.284
 7678TIP3    H222978   2.373   1.717   3.360
 7679TIP3   OH222979   3.135   3.978   3.530
 7679TIP3    H122980   3.148   3.931   3.613
 7679TIP3    H222981   3.049   4.018   3.538
 7680TIP3   OH222982   4.696   5.998   6.767
 7680TIP3    H122983   4.778   5.950   6.773
 7680TIP3    H222984   4.698   6.041   6.682
 7681TIP3   OH222985   5.381   7.392   0.783
 7681TIP3    H122986   5.448   7.394   0.851
 7681TIP3    H222987   5.429   7.399   0.700
 7682TIP3   OH222988   7.819   3.237   2.766
 7682TIP3    H122989   7.892   3.225   2.705
 7682TIP3    H222990   7.813   3.153   2.812
 7683TIP3   OH222991   7.340   5.678   1.277
 7683TIP3    H122992   7.335   5.761   1.324
 7683TIP3    H222993   7.264   5.629   1.307
 7684TIP3   OH222994   3.195   6.351   4.875
 7684TIP3    H122995   3.288   6.329   4.867
 7684TIP3    H222996   3.172   6.327   4.964
 7685TIP3   OH222997   3.687   3.188   3.288
 7685TIP3    H122998   3.655   3.122   3.349
 7685TIP3    H222999   3.662   3.155   3.202
 7686TIP3   OH223000   5.577   5.770   5.901
 7686TIP3    H123001   5.482   5.764   5.892
 7686TIP3    H223002   5.605   5.684   5.931
 7687TIP3   OH223003   2.000   5.884   5.822
 7687TIP3    H123004   1.956   5.799   5.811
 7687TIP3    H223005   1.984   5.930   5.740
 7688TIP3   OH223006   3.776   2.826   6.703
 7688TIP3    H123007   3.779   2.737   6.669
 7688TIP3    H223008   3.867   2.846   6.727
 7689TIP3   OH223009   7.992   2.068   6.026
 7689TIP3    H123010   8.071   2.022   5.998
 7689TIP3    H223011   8.012   2.099   6.114
 7690TIP3   OH223012   2.005   2.289   6.385
 7690TIP3    H123013   2.049   2.316   6.466
 7690TIP3    H223014   2.073   2.244   6.335
 7691TIP3   OH223015   4.707   4.553   5.615
 7691TIP3    H123016   4.693   4.584   5.526
 7691TIP3    H223017   4.619   4.535   5.649
 7692TIP3   OH223018   3.000   5.138   2.882
 7692TIP3    H123019   3.005   5.060   2.938
 7692TIP3    H223020   3.024   5.210   2.940
 7693TIP3   OH223021   3.485   4.843   0.659
 7693TIP3    H123022   3.572   4.809   0.678
 7693TIP3    H223023   3.453   4.876   0.743
 7694TIP3   OH223024   2.364   5.008   2.339
 7694TIP3    H123025   2.385   4.935   2.396
 7694TIP3    H223026   2.268   5.010   2.336
 7695TIP3   OH223027   4.489   0.557   4.362
 7695TIP3    H123028   4.440   0.500   4.422
 7695TIP3    H223029   4.579   0.552   4.391
 7696TIP3   OH223030   0.139   1.275   4.549
 7696TIP3    H123031   0.129   1.183   4.574
 7696TIP3    H223032   0.160   1.320   4.631
 7697TIP3   OH223033   1.388   3.900   2.078
 7697TIP3    H123034   1.307   3.942   2.108
 7697TIP3    H223035   1.383   3.906   1.982
 7698TIP3   OH223036   7.846   3.753   0.799
 7698TIP3    H123037   7.776   3.806   0.760
 7698TIP3    H223038   7.920   3.813   0.807
 7699TIP3   OH223039   4.795   6.111   3.195
 7699TIP3    H123040   4.766   6.136   3.107
 7699TIP3    H223041   4.729   6.150   3.253
 7700TIP3   OH223042   5.716   3.540   4.291
 7700TIP3    H123043   5.681   3.472   4.348
 7700TIP3    H223044   5.800   3.565   4.331
 7701TIP3   OH223045   8.256   2.142   0.844
 7701TIP3    H123046   8.227   2.200   0.914
 7701TIP3    H223047   8.213   2.176   0.765
 7702TIP3   OH223048   6.698   3.116   0.459
 7702TIP3    H123049   6.758   3.148   0.392
 7702TIP3    H223050   6.741   3.039   0.495
 7703TIP3   OH223051   6.385   6.590   3.809
 7703TIP3    H123052   6.340   6.659   3.858
 7703TIP3    H223053   6.454   6.560   3.868
 7704TIP3   OH223054   0.084   5.429   0.911
 7704TIP3    H123055   0.079   5.342   0.948
 7704TIP3    H223056   0.166   5.429   0.860
 7705TIP3   OH223057   2.526   5.494   1.838
 7705TIP3    H123058   2.497   5.460   1.753
 7705TIP3    H223059   2.620   5.507   1.827
 7706TIP3   OH223060   7.331   5.122   5.581
 7706TIP3    H123061   7.374   5.050   5.535
 7706TIP3    H223062   7.243   5.089   5.600
 7707TIP3   OH223063   1.330   3.288   6.465
 7707TIP3    H123064   1.383   3.368   6.471
 7707TIP3    H223065   1.293   3.291   6.377
 7708TIP3   OH223066   4.919   6.221   0.373
 7708TIP3    H123067   4.940   6.162   0.300
 7708TIP3    H223068   5.004   6.247   0.407
 7709TIP3   OH223069   5.634   6.029   1.054
 7709TIP3    H123070   5.573   5.960   1.076
 7709TIP3    H223071   5.706   5.985   1.008
 7710TIP3   OH223072   5.680   1.367   3.706
 7710TIP3    H123073   5.596   1.326   3.729
 7710TIP3    H223074   5.659   1.460   3.699
 7711TIP3   OH223075   7.351   6.916   1.362
 7711TIP3    H123076   7.376   6.871   1.282
 7711TIP3    H223077   7.433   6.931   1.408
 7712TIP3   OH223078   6.514   5.144   6.567
 7712TIP3    H123079   6.558   5.106   6.491
 7712TIP3    H223080   6.451   5.206   6.530
 7713TIP3   OH223081   6.322   7.228   6.572
 7713TIP3    H123082   6.320   7.301   6.510
 7713TIP3    H223083   6.282   7.155   6.524
 7714TIP3   OH223084   4.447   3.365   2.372
 7714TIP3    H123085   4.505   3.441   2.376
 7714TIP3    H223086   4.402   3.373   2.289
 7715TIP3   OH223087   1.683   0.762   6.510
 7715TIP3    H123088   1.761   0.721   6.472
 7715TIP3    H223089   1.710   0.853   6.527
 7716TIP3   OH223090   2.462   2.257   6.330
 7716TIP3    H123091   2.407   2.257   6.409
 7716TIP3    H223092   2.488   2.348   6.319
 7717TIP3   OH223093   6.210   2.142   0.414
 7717TIP3    H123094   6.238   2.055   0.442
 7717TIP3    H223095   6.226   2.198   0.490
 7718TIP3   OH223096   3.157   7.250   6.525
 7718TIP3    H123097   3.228   7.302   6.487
 7718TIP3    H223098   3.081   7.308   6.520
 7719TIP3   OH223099   4.263   3.826   3.187
 7719TIP3    H123100   4.305   3.850   3.105
 7719TIP3    H223101   4.223   3.741   3.170
 7720TIP3   OH223102   2.093   4.164   1.058
 7720TIP3    H123103   2.092   4.227   0.987
 7720TIP3    H223104   2.001   4.145   1.075
 7721TIP3   OH223105   0.130   4.117   2.901
 7721TIP3    H123106   0.164   4.077   2.981
 7721TIP3    H223107   0.135   4.048   2.835
 7722TIP3   OH223108   5.102   6.937   4.593
 7722TIP3    H123109   5.084   7.022   4.633
 7722TIP3    H223110   5.067   6.943   4.504
 7723TIP3   OH223111   6.320   1.584   4.762
 7723TIP3    H123112   6.342   1.575   4.855
 7723TIP3    H223113   6.283   1.499   4.738
 7724TIP3   OH223114   6.925   3.440   1.812
 7724TIP3    H123115   6.834   3.423   1.836
 7724TIP3    H223116   6.927   3.427   1.717
 7725TIP3   OH223117   8.123   5.769   5.688
 7725TIP3    H123118   8.035   5.756   5.723
 7725TIP3    H223119   8.160   5.838   5.742
 7726TIP3   OH223120   2.113   1.030   0.338
 7726TIP3    H123121   2.143   1.098   0.398
 7726TIP3    H223122   2.090   1.077   0.258
 7727TIP3   OH223123   0.263   6.831   2.664
 7727TIP3    H123124   0.282   6.828   2.757
 7727TIP3    H223125   0.175   6.870   2.659
 7728TIP3   OH223126   2.905   3.169   3.439
 7728TIP3    H123127   2.954   3.095   3.403
 7728TIP3    H223128   2.927   3.169   3.532
 7729TIP3   OH223129   0.100   2.462   3.894
 7729TIP3    H123130   0.185   2.505   3.891
 7729TIP3    H223131   0.042   2.518   3.844
 7730TIP3   OH223132   2.957   6.169   4.430
 7730TIP3    H123133   3.050   6.179   4.412
 7730TIP3    H223134   2.937   6.079   4.403
 7731TIP3   OH223135   7.162   1.256   4.740
 7731TIP3    H123136   7.131   1.207   4.816
 7731TIP3    H223137   7.128   1.345   4.753
 7732TIP3   OH223138   4.836   4.554   1.761
 7732TIP3    H123139   4.811   4.627   1.704
 7732TIP3    H223140   4.930   4.544   1.747
 7733TIP3   OH223141   3.350   2.383   3.124
 7733TIP3    H123142   3.432   2.427   3.142
 7733TIP3    H223143   3.374   2.307   3.070
 7734TIP3   OH223144   5.477   2.055   5.127
 7734TIP3    H123145   5.458   2.095   5.212
 7734TIP3    H223146   5.473   2.128   5.065
 7735TIP3   OH223147   6.357   0.810   0.577
 7735TIP3    H123148   6.335   0.806   0.670
 7735TIP3    H223149   6.274   0.799   0.532
 7736TIP3   OH223150   0.109   5.059   2.380
 7736TIP3    H123151   0.125   4.992   2.313
 7736TIP3    H223152   0.013   5.063   2.386
 7737TIP3   OH223153   5.980   3.929   6.025
 7737TIP3    H123154   5.904   3.986   6.014
 7737TIP3    H223155   5.943   3.842   6.038
 7738TIP3   OH223156   0.277   7.208   4.827
 7738TIP3    H123157   0.245   7.124   4.859
 7738TIP3    H223158   0.199   7.254   4.798
 7739TIP3   OH223159   0.144   6.367   2.964
 7739TIP3    H123160   0.057   6.401   2.988
 7739TIP3    H223161   0.144   6.368   2.868
 7740TIP3   OH223162   2.301   2.763   1.888
 7740TIP3    H123163   2.272   2.781   1.798
 7740TIP3    H223164   2.380   2.710   1.877
 7741TIP3   OH223165   2.305   5.116   5.072
 7741TIP3    H123166   2.392   5.149   5.046
 7741TIP3    H223167   2.280   5.172   5.146
 7742TIP3   OH223168   7.880   5.659   6.412
 7742TIP3    H123169   7.923   5.601   6.474
 7742TIP3    H223170   7.793   5.675   6.449
 7743TIP3   OH223171   5.055   4.357   2.676
 7743TIP3    H123172   4.990   4.288   2.688
 7743TIP3    H223173   5.122   4.338   2.742
 7744TIP3   OH223174   0.559   1.005   4.409
 7744TIP3    H123175   0.646   1.034   4.436
 7744TIP3    H223176   0.498   1.058   4.460
 7745TIP3   OH223177   3.821   2.498   3.327
 7745TIP3    H123178   3.769   2.507   3.406
 7745TIP3    H223179   3.897   2.555   3.341
 7746TIP3   OH223180   5.745   4.272   0.771
 7746TIP3    H123181   5.743   4.177   0.768
 7746TIP3    H223182   5.653   4.298   0.778
 7747TIP3   OH223183   4.273   2.427   0.391
 7747TIP3    H123184   4.340   2.458   0.330
 7747TIP3    H223185   4.212   2.377   0.336
 7748TIP3   OH223186   5.655   0.065   4.168
 7748TIP3    H123187   5.681  -0.027   4.179
 7748TIP3    H223188   5.614   0.088   4.251
 7749TIP3   OH223189   0.799   0.176   2.138
 7749TIP3    H123190   0.793   0.089   2.176
 7749TIP3    H223191   0.745   0.231   2.195
 7750TIP3   OH223192   6.655   5.526   4.106
 7750TIP3    H123193   6.660   5.597   4.171
 7750TIP3    H223194   6.715   5.459   4.139
 7751TIP3   OH223195   6.735   0.452   6.260
 7751TIP3    H123196   6.713   0.369   6.301
 7751TIP3    H223197   6.742   0.514   6.332
 7752TIP3   OH223198   2.761   2.807   1.467
 7752TIP3    H123199   2.851   2.781   1.444
 7752TIP3    H223200   2.773   2.876   1.532
 7753TIP3   OH223201   0.707   0.940   1.129
 7753TIP3    H123202   0.630   0.981   1.168
 7753TIP3    H223203   0.779   0.999   1.149
 7754TIP3   OH223204   5.149   2.866   3.089
 7754TIP3    H123205   5.120   2.905   3.172
 7754TIP3    H223206   5.244   2.866   3.094
 7755TIP3   OH223207   7.357   2.048   6.031
 7755TIP3    H123208   7.308   2.035   6.112
 7755TIP3    H223209   7.371   2.142   6.025
 7756TIP3   OH223210   6.569   7.645   2.122
 7756TIP3    H123211   6.504   7.700   2.166
 7756TIP3    H223212   6.653   7.678   2.153
 7757TIP3   OH223213   3.970   3.059   5.842
 7757TIP3    H123214   3.890   3.028   5.885
 7757TIP3    H223215   3.989   3.143   5.882
 7758TIP3   OH223216   4.666   4.953   2.610
 7758TIP3    H123217   4.680   4.963   2.704
 7758TIP3    H223218   4.717   4.875   2.586
 7759TIP3   OH223219   2.199   6.325   5.337
 7759TIP3    H123220   2.282   6.276   5.338
 7759TIP3    H223221   2.218   6.403   5.285
 7760TIP3   OH223222   0.739   5.192   0.608
 7760TIP3    H123223   0.779   5.220   0.527
 7760TIP3    H223224   0.654   5.156   0.582
 7761TIP3   OH223225   5.003   7.038   3.205
 7761TIP3    H123226   5.037   7.003   3.288
 7761TIP3    H223227   4.908   7.041   3.218
 7762TIP3   OH223228   2.453   6.731   6.203
 7762TIP3    H123229   2.389   6.790   6.244
 7762TIP3    H223230   2.522   6.788   6.172
 7763TIP3   OH223231   0.985   4.325   6.023
 7763TIP3    H123232   0.904   4.362   5.989
 7763TIP3    H223233   0.962   4.235   6.047
 7764TIP3   OH223234   0.474   0.766   5.803
 7764TIP3    H123235   0.550   0.776   5.861
 7764TIP3    H223236   0.399   0.793   5.857
 7765TIP3   OH223237   8.084   3.344   1.532
 7765TIP3    H123238   8.019   3.371   1.467
 7765TIP3    H223239   8.038   3.278   1.584
 7766TIP3   OH223240   5.232   6.174   5.159
 7766TIP3    H123241   5.198   6.180   5.248
 7766TIP3    H223242   5.310   6.229   5.158
 7767TIP3   OH223243   3.943   0.100   0.450
 7767TIP3    H123244   3.941   0.149   0.532
 7767TIP3    H223245   3.851   0.090   0.426
 7768TIP3   OH223246   3.523   6.566   5.404
 7768TIP3    H123247   3.470   6.640   5.434
 7768TIP3    H223248   3.464   6.491   5.411
 7769TIP3   OH223249   1.473   5.288   2.899
 7769TIP3    H123250   1.418   5.345   2.952
 7769TIP3    H223251   1.482   5.208   2.951
 7770TIP3   OH223252   4.795   0.706   4.862
 7770TIP3    H123253   4.850   0.724   4.938
 7770TIP3    H223254   4.706   0.710   4.895
 7771TIP3   OH223255   3.663   6.397   2.518
 7771TIP3    H123256   3.608   6.363   2.447
 7771TIP3    H223257   3.616   6.373   2.598
 7772TIP3   OH223258   2.949   6.517   5.638
 7772TIP3    H123259   3.036   6.481   5.658
 7772TIP3    H223260   2.922   6.559   5.720
 7773TIP3   OH223261   0.641   7.459   3.561
 7773TIP3    H123262   0.732   7.437   3.543
 7773TIP3    H223263   0.646   7.528   3.628
 7774TIP3   OH223264   0.188   5.537   3.081
 7774TIP3    H123265   0.190   5.632   3.076
 7774TIP3    H223266   0.147   5.509   2.999
 7775TIP3   OH223267   6.915   6.643   3.687
 7775TIP3    H123268   6.991   6.627   3.632
 7775TIP3    H223269   6.918   6.574   3.753
 7776TIP3   OH223270   1.667   6.257   3.917
 7776TIP3    H123271   1.635   6.340   3.953
 7776TIP3    H223272   1.596   6.226   3.862
 7777TIP3   OH223273   6.214   7.741   6.836
 7777TIP3    H123274   6.131   7.757   6.791
 7777TIP3    H223275   6.189   7.721   6.926
 7778TIP3   OH223276   4.262   3.085   4.619
 7778TIP3    H123277   4.245   3.172   4.584
 7778TIP3    H223278   4.335   3.051   4.566
 7779TIP3   OH223279   5.951   5.204   0.176
 7779TIP3    H123280   5.988   5.121   0.208
 7779TIP3    H223281   5.873   5.179   0.127
 7780TIP3   OH223282   0.933   3.780   5.010
 7780TIP3    H123283   0.957   3.710   4.950
 7780TIP3    H223284   1.016   3.811   5.046
 7781TIP3   OH223285   3.283   7.676   3.560
 7781TIP3    H123286   3.275   7.749   3.622
 7781TIP3    H223287   3.300   7.718   3.476
 7782TIP3   OH223288   0.409   2.551   0.207
 7782TIP3    H123289   0.456   2.546   0.123
 7782TIP3    H223290   0.475   2.525   0.272
 7783TIP3   OH223291   2.553   3.724   1.484
 7783TIP3    H123292   2.536   3.704   1.392
 7783TIP3    H223293   2.648   3.737   1.489
 7784TIP3   OH223294   4.729   0.918   3.964
 7784TIP3    H123295   4.710   0.935   3.872
 7784TIP3    H223296   4.674   0.980   4.012
 7785TIP3   OH223297   7.362   1.849   0.288
 7785TIP3    H123298   7.358   1.772   0.344
 7785TIP3    H223299   7.416   1.912   0.337
 7786TIP3   OH223300   6.631   3.380   1.913
 7786TIP3    H123301   6.675   3.337   1.987
 7786TIP3    H223302   6.573   3.313   1.877
 7787TIP3   OH223303   2.371   0.485   3.307
 7787TIP3    H123304   2.453   0.438   3.316
 7787TIP3    H223305   2.375   0.554   3.373
 7788TIP3   OH223306   6.296   6.487   4.998
 7788TIP3    H123307   6.359   6.489   4.925
 7788TIP3    H223308   6.225   6.431   4.965
 7789TIP3   OH223309   5.653   3.330   3.129
 7789TIP3    H123310   5.610   3.407   3.092
 7789TIP3    H223311   5.726   3.312   3.070
 7790TIP3   OH223312   2.005   5.670   4.393
 7790TIP3    H123313   2.018   5.671   4.488
 7790TIP3    H223314   1.910   5.662   4.382
 7791TIP3   OH223315   2.881   3.370   3.786
 7791TIP3    H123316   2.845   3.421   3.713
 7791TIP3    H223317   2.943   3.310   3.745
 7792TIP3   OH223318   5.328   1.128   2.244
 7792TIP3    H123319   5.238   1.150   2.267
 7792TIP3    H223320   5.320   1.068   2.169
 7793TIP3   OH223321   1.684   6.010   1.145
 7793TIP3    H123322   1.603   5.960   1.134
 7793TIP3    H223323   1.716   6.024   1.056
 7794TIP3   OH223324   0.127   3.167   5.800
 7794TIP3    H123325   0.154   3.087   5.845
 7794TIP3    H223326   0.114   3.140   5.709
 7795TIP3   OH223327   2.097   4.353  -0.030
 7795TIP3    H123328   2.136   4.357   0.057
 7795TIP3    H223329   2.170   4.366  -0.090
 7796TIP3   OH223330   5.515   2.909   3.959
 7796TIP3    H123331   5.524   2.939   3.868
 7796TIP3    H223332   5.513   2.990   4.010
 7797TIP3   OH223333   0.660   6.395   4.282
 7797TIP3    H123334   0.701   6.309   4.273
 7797TIP3    H223335   0.653   6.427   4.192
 7798TIP3   OH223336   3.720   3.172   2.765
 7798TIP3    H123337   3.625   3.163   2.765
 7798TIP3    H223338   3.736   3.264   2.785
 7799TIP3   OH223339   2.166   1.988   3.184
 7799TIP3    H123340   2.188   1.896   3.172
 7799TIP3    H223341   2.151   1.997   3.278
 7800TIP3   OH223342   5.293   4.312   4.075
 7800TIP3    H123343   5.373   4.347   4.036
 7800TIP3    H223344   5.304   4.217   4.070
 7801TIP3   OH223345   6.380   1.065   2.604
 7801TIP3    H123346   6.401   1.066   2.697
 7801TIP3    H223347   6.410   0.980   2.573
 7802TIP3   OH223348   2.790   6.913   5.368
 7802TIP3    H123349   2.753   6.867   5.443
 7802TIP3    H223350   2.757   6.865   5.292
 7803TIP3   OH223351   3.130   3.771   4.779
 7803TIP3    H123352   3.133   3.822   4.860
 7803TIP3    H223353   3.211   3.721   4.779
 7804TIP3   OH223354   7.160   0.467   4.134
 7804TIP3    H123355   7.161   0.465   4.230
 7804TIP3    H223356   7.108   0.544   4.112
 7805TIP3   OH223357   3.809   1.148   0.348
 7805TIP3    H123358   3.869   1.114   0.414
 7805TIP3    H223359   3.827   1.242   0.344
 7806TIP3   OH223360   3.999   6.060   4.752
 7806TIP3    H123361   3.942   6.086   4.680
 7806TIP3    H223362   3.943   6.010   4.811
 7807TIP3   OH223363   2.063   5.754   2.028
 7807TIP3    H123364   2.040   5.689   2.094
 7807TIP3    H223365   2.037   5.715   1.945
 7808TIP3   OH223366   2.726   5.300   2.921
 7808TIP3    H123367   2.634   5.276   2.923
 7808TIP3    H223368   2.767   5.244   2.986
 7809TIP3   OH223369   3.454   4.822   5.683
 7809TIP3    H123370   3.466   4.731   5.710
 7809TIP3    H223371   3.532   4.842   5.631
 7810TIP3   OH223372   5.241   7.392   5.348
 7810TIP3    H123373   5.228   7.486   5.332
 7810TIP3    H223374   5.260   7.356   5.262
 7811TIP3   OH223375   6.046   3.181   0.830
 7811TIP3    H123376   5.961   3.146   0.801
 7811TIP3    H223377   6.106   3.106   0.823
 7812TIP3   OH223378   0.799   5.880   1.127
 7812TIP3    H123379   0.879   5.830   1.111
 7812TIP3    H223380   0.736   5.846   1.064
 7813TIP3   OH223381   5.322   6.309   3.138
 7813TIP3    H123382   5.249   6.308   3.199
 7813TIP3    H223383   5.344   6.402   3.127
 7814TIP3   OH223384   0.135   1.719   5.544
 7814TIP3    H123385   0.228   1.731   5.523
 7814TIP3    H223386   0.090   1.733   5.461
 7815TIP3   OH223387   1.615   5.703   2.066
 7815TIP3    H123388   1.570   5.632   2.113
 7815TIP3    H223389   1.646   5.662   1.985
 7816TIP3   OH223390   0.704   2.785   6.474
 7816TIP3    H123391   0.756   2.719   6.520
 7816TIP3    H223392   0.629   2.802   6.531
 7817TIP3   OH223393   0.554   1.020   1.572
 7817TIP3    H123394   0.499   0.950   1.536
 7817TIP3    H223395   0.568   0.994   1.663
 7818TIP3   OH223396   7.311   6.759   4.171
 7818TIP3    H123397   7.253   6.683   4.168
 7818TIP3    H223398   7.309   6.787   4.262
 7819TIP3   OH223399   1.664   7.094   3.636
 7819TIP3    H123400   1.628   7.175   3.671
 7819TIP3    H223401   1.654   7.103   3.541
 7820TIP3   OH223402   7.479   3.232   3.982
 7820TIP3    H123403   7.510   3.154   4.028
 7820TIP3    H223404   7.556   3.263   3.933
 7821TIP3   OH223405   0.413   4.413   0.228
 7821TIP3    H123406   0.445   4.470   0.298
 7821TIP3    H223407   0.327   4.385   0.259
 7822TIP3   OH223408   1.905   5.114   5.351
 7822TIP3    H123409   1.890   5.038   5.407
 7822TIP3    H223410   1.827   5.120   5.297
 7823TIP3   OH223411   4.318   4.690   4.744
 7823TIP3    H123412   4.355   4.714   4.829
 7823TIP3    H223413   4.314   4.773   4.696
 7824TIP3   OH223414   4.546   3.289   4.051
 7824TIP3    H123415   4.500   3.314   4.131
 7824TIP3    H223416   4.589   3.370   4.022
 7825TIP3   OH223417   2.441   6.501   3.410
 7825TIP3    H123418   2.366   6.446   3.432
 7825TIP3    H223419   2.439   6.572   3.475
 7826TIP3   OH223420   1.964   3.993   4.070
 7826TIP3    H123421   2.040   4.050   4.058
 7826TIP3    H223422   1.968   3.932   3.996
 7827TIP3   OH223423   7.673   4.440   6.023
 7827TIP3    H123424   7.668   4.534   6.009
 7827TIP3    H223425   7.669   4.429   6.118
 7828TIP3   OH223426   2.653   2.400   3.129
 7828TIP3    H123427   2.588   2.431   3.066
 7828TIP3    H223428   2.690   2.481   3.166
 7829TIP3   OH223429   3.512   2.469   3.859
 7829TIP3    H123430   3.455   2.393   3.870
 7829TIP3    H223431   3.532   2.470   3.765
 7830TIP3   OH223432   7.528   2.432   3.096
 7830TIP3    H123433   7.438   2.455   3.076
 7830TIP3    H223434   7.581   2.489   3.040
 7831TIP3   OH223435   6.562   6.314   6.704
 7831TIP3    H123436   6.543   6.225   6.673
 7831TIP3    H223437   6.517   6.319   6.789
 7832TIP3   OH223438   4.062   5.759   2.097
 7832TIP3    H123439   4.119   5.685   2.119
 7832TIP3    H223440   3.985   5.748   2.153
 7833TIP3   OH223441   2.434   3.306   1.135
 7833TIP3    H123442   2.487   3.366   1.083
 7833TIP3    H223443   2.494   3.273   1.202
 7834TIP3   OH223444   0.438   6.987   0.894
 7834TIP3    H123445   0.386   6.913   0.927
 7834TIP3    H223446   0.437   7.049   0.967
 7835TIP3   OH223447   5.092   7.768   0.805
 7835TIP3    H123448   5.021   7.750   0.743
 7835TIP3    H223449   5.048   7.806   0.881
 7836TIP3   OH223450   6.674   6.308   1.590
 7836TIP3    H123451   6.642   6.231   1.542
 7836TIP3    H223452   6.766   6.315   1.566
 7837TIP3   OH223453   4.714   4.188   1.096
 7837TIP3    H123454   4.744   4.136   1.022
 7837TIP3    H223455   4.632   4.227   1.067
 7838TIP3   OH223456   0.454   5.296   1.060
 7838TIP3    H123457   0.540   5.309   1.019
 7838TIP3    H223458   0.392   5.297   0.987
 7839TIP3   OH223459   3.631   6.666   2.089
 7839TIP3    H123460   3.633   6.582   2.043
 7839TIP3    H223461   3.722   6.684   2.109
 7840TIP3   OH223462   5.483   1.660   3.381
 7840TIP3    H123463   5.389   1.670   3.373
 7840TIP3    H223464   5.518   1.688   3.296
 7841TIP3   OH223465   3.619   2.668   2.159
 7841TIP3    H123466   3.706   2.637   2.182
 7841TIP3    H223467   3.567   2.656   2.239
 7842TIP3   OH223468   2.884   1.096  -0.032
 7842TIP3    H123469   2.878   1.081   0.062
 7842TIP3    H223470   2.811   1.155  -0.051
 7843TIP3   OH223471   1.080   5.092   5.618
 7843TIP3    H123472   0.986   5.075   5.613
 7843TIP3    H223473   1.120   5.007   5.602
 7844TIP3   OH223474   7.023   7.480   3.177
 7844TIP3    H123475   7.008   7.392   3.141
 7844TIP3    H223476   7.092   7.517   3.122
 7845TIP3   OH223477   6.370   7.262   4.482
 7845TIP3    H123478   6.393   7.169   4.489
 7845TIP3    H223479   6.275   7.262   4.468
 7846TIP3   OH223480   5.283   6.775   1.997
 7846TIP3    H123481   5.316   6.736   1.916
 7846TIP3    H223482   5.303   6.711   2.065
 7847TIP3   OH223483   3.229   7.288   2.205
 7847TIP3    H123484   3.235   7.226   2.133
 7847TIP3    H223485   3.233   7.235   2.284
 7848TIP3   OH223486   6.255   2.957   0.589
 7848TIP3    H123487   6.229   2.966   0.680
 7848TIP3    H223488   6.351   2.953   0.592
 7849TIP3   OH223489   4.227   6.081   5.081
 7849TIP3    H123490   4.280   6.002   5.077
 7849TIP3    H223491   4.137   6.049   5.091
 7850TIP3   OH223492   5.779   3.490   0.272
 7850TIP3    H123493   5.831   3.555   0.224
 7850TIP3    H223494   5.688   3.514   0.254
 7851TIP3   OH223495   1.648   6.275   3.180
 7851TIP3    H123496   1.695   6.296   3.261
 7851TIP3    H223497   1.577   6.217   3.207
 7852TIP3   OH223498   2.953   3.236   5.862
 7852TIP3    H123499   3.010   3.256   5.935
 7852TIP3    H223500   2.894   3.168   5.895
 7853TIP3   OH223501   0.832   0.927   4.070
 7853TIP3    H123502   0.826   0.905   3.977
 7853TIP3    H223503   0.776   0.862   4.114
 7854TIP3   OH223504   8.047   6.147   4.824
 7854TIP3    H123505   8.125   6.196   4.851
 7854TIP3    H223506   8.015   6.107   4.905
 7855TIP3   OH223507   1.498   7.100   4.426
 7855TIP3    H123508   1.404   7.083   4.438
 7855TIP3    H223509   1.501   7.171   4.361
 7856TIP3   OH223510   6.239   7.254   3.200
 7856TIP3    H123511   6.308   7.315   3.229
 7856TIP3    H223512   6.233   7.190   3.271
 7857TIP3   OH223513   6.921   1.648   6.010
 7857TIP3    H123514   6.947   1.558   6.028
 7857TIP3    H223515   6.871   1.643   5.929
 7858TIP3   OH223516   8.128   5.821   4.310
 7858TIP3    H123517   8.074   5.833   4.232
 7858TIP3    H223518   8.207   5.874   4.292
 7859TIP3   OH223519   1.087   6.057   1.014
 7859TIP3    H123520   1.059   6.063   1.105
 7859TIP3    H223521   1.060   6.141   0.976
 7860TIP3   OH223522   3.657   7.104   0.766
 7860TIP3    H123523   3.668   7.195   0.792
 7860TIP3    H223524   3.604   7.108   0.686
 7861TIP3   OH223525   5.282   3.805   1.777
 7861TIP3    H123526   5.348   3.753   1.824
 7861TIP3    H223527   5.282   3.889   1.822
 7862TIP3   OH223528   0.777   0.504   1.736
 7862TIP3    H123529   0.704   0.564   1.748
 7862TIP3    H223530   0.757   0.430   1.793
 7863TIP3   OH223531   7.718   1.897   6.195
 7863TIP3    H123532   7.721   1.980   6.147
 7863TIP3    H223533   7.718   1.830   6.127
 7864TIP3   OH223534   7.312   4.022   1.050
 7864TIP3    H123535   7.326   4.094   1.113
 7864TIP3    H223536   7.321   4.064   0.965
 7865TIP3   OH223537   3.430   6.381   1.437
 7865TIP3    H123538   3.478   6.331   1.503
 7865TIP3    H223539   3.495   6.404   1.371
 7866TIP3   OH223540   3.438   5.254   0.762
 7866TIP3    H123541   3.532   5.235   0.762
 7866TIP3    H223542   3.410   5.238   0.852
 7867TIP3   OH223543   5.922   2.040   3.554
 7867TIP3    H123544   5.906   1.961   3.606
 7867TIP3    H223545   5.956   2.007   3.471
 7868TIP3   OH223546   4.289   5.714   4.476
 7868TIP3    H123547   4.240   5.774   4.531
 7868TIP3    H223548   4.232   5.638   4.465
 7869TIP3   OH223549   5.058   6.340   3.447
 7869TIP3    H123550   5.030   6.258   3.406
 7869TIP3    H223551   5.048   6.406   3.378
 7870TIP3   OH223552   2.674   3.602   6.101
 7870TIP3    H123553   2.716   3.628   6.020
 7870TIP3    H223554   2.729   3.639   6.170
 7871TIP3   OH223555   3.036   4.400   2.208
 7871TIP3    H123556   2.976   4.352   2.265
 7871TIP3    H223557   3.123   4.365   2.231
 7872TIP3   OH223558   4.712   1.231   5.308
 7872TIP3    H123559   4.706   1.216   5.403
 7872TIP3    H223560   4.791   1.183   5.281
 7873TIP3   OH223561   0.580   6.972   0.668
 7873TIP3    H123562   0.667   7.012   0.678
 7873TIP3    H223563   0.536   6.990   0.751
 7874TIP3   OH223564   6.457   6.859   1.282
 7874TIP3    H123565   6.445   6.840   1.189
 7874TIP3    H223566   6.446   6.953   1.289
 7875TIP3   OH223567   5.096   0.635   6.775
 7875TIP3    H123568   5.156   0.677   6.713
 7875TIP3    H223569   5.153   0.602   6.844
 7876TIP3   OH223570   2.094   5.703   5.363
 7876TIP3    H123571   2.158   5.753   5.414
 7876TIP3    H223572   2.134   5.694   5.277
 7877TIP3   OH223573   7.834   4.188   3.842
 7877TIP3    H123574   7.850   4.205   3.935
 7877TIP3    H223575   7.859   4.097   3.829
 7878TIP3   OH223576   2.217   0.343   3.648
 7878TIP3    H123577   2.171   0.402   3.708
 7878TIP3    H223578   2.215   0.258   3.691
 7879TIP3   OH223579   6.333   6.000   3.665
 7879TIP3    H123580   6.416   5.961   3.693
 7879TIP3    H223581   6.336   6.090   3.696
 7880TIP3   OH223582   8.196   2.576   0.613
 7880TIP3    H123583   8.190   2.523   0.533
 7880TIP3    H223584   8.281   2.619   0.606
 7881TIP3   OH223585   6.335   1.473   5.211
 7881TIP3    H123586   6.391   1.453   5.136
 7881TIP3    H223587   6.251   1.498   5.172
 7882TIP3   OH223588   0.463   7.594   0.329
 7882TIP3    H123589   0.534   7.536   0.303
 7882TIP3    H223590   0.408   7.540   0.386
 7883TIP3   OH223591   6.671   2.202   6.140
 7883TIP3    H123592   6.681   2.231   6.231
 7883TIP3    H223593   6.670   2.107   6.145
 7884TIP3   OH223594   1.864   0.454   5.399
 7884TIP3    H123595   1.858   0.538   5.445
 7884TIP3    H223596   1.895   0.392   5.466
 7885TIP3   OH223597   5.211   2.295   3.676
 7885TIP3    H123598   5.199   2.368   3.615
 7885TIP3    H223599   5.193   2.217   3.623
 7886TIP3   OH223600   3.566   7.189   3.962
 7886TIP3    H123601   3.509   7.184   3.886
 7886TIP3    H223602   3.522   7.137   4.030
 7887TIP3   OH223603   6.318   6.063   2.579
 7887TIP3    H123604   6.243   6.120   2.594
 7887TIP3    H223605   6.387   6.100   2.633
 7888TIP3   OH223606   0.970   3.495   6.055
 7888TIP3    H123607   0.966   3.474   6.148
 7888TIP3    H223608   0.892   3.453   6.018
 7889TIP3   OH223609   0.052   0.838   2.690
 7889TIP3    H123610   0.094   0.898   2.751
 7889TIP3    H223611   0.013   0.770   2.746
 7890TIP3   OH223612   4.673   6.383   5.229
 7890TIP3    H123613   4.656   6.298   5.189
 7890TIP3    H223614   4.760   6.408   5.198
 7891TIP3   OH223615   3.296   3.238   5.452
 7891TIP3    H123616   3.372   3.203   5.406
 7891TIP3    H223617   3.237   3.268   5.382
 7892TIP3   OH223618   0.679   4.488   2.918
 7892TIP3    H123619   0.674   4.415   2.856
 7892TIP3    H223620   0.588   4.515   2.931
 7893TIP3   OH223621   7.205   1.514   5.875
 7893TIP3    H123622   7.185   1.593   5.825
 7893TIP3    H223623   7.247   1.546   5.954
 7894TIP3   OH223624   1.643   6.608   1.360
 7894TIP3    H123625   1.676   6.589   1.448
 7894TIP3    H223626   1.709   6.666   1.322
 7895TIP3   OH223627   0.912   7.032   1.999
 7895TIP3    H123628   0.969   7.039   2.075
 7895TIP3    H223629   0.840   7.092   2.017
 7896TIP3   OH223630   1.617   1.224   3.007
 7896TIP3    H123631   1.565   1.295   3.045
 7896TIP3    H223632   1.608   1.152   3.069
 7897TIP3   OH223633   6.115   4.419   5.036
 7897TIP3    H123634   6.069   4.353   5.087
 7897TIP3    H223635   6.098   4.501   5.083
 7898TIP3   OH223636   1.429   3.603   2.668
 7898TIP3    H123637   1.480   3.680   2.692
 7898TIP3    H223638   1.489   3.530   2.679
 7899TIP3   OH223639   5.442   4.015   4.303
 7899TIP3    H123640   5.380   4.023   4.231
 7899TIP3    H223641   5.403   3.951   4.362
 7900TIP3   OH223642   0.727   0.947   3.302
 7900TIP3    H123643   0.683   1.029   3.325
 7900TIP3    H223644   0.670   0.878   3.337
 7901TIP3   OH223645   3.305   2.953   0.699
 7901TIP3    H123646   3.392   2.971   0.663
 7901TIP3    H223647   3.268   3.039   0.717
 7902TIP3   OH223648   5.731   3.900   1.464
 7902TIP3    H123649   5.694   3.813   1.483
 7902TIP3    H223650   5.722   3.948   1.547
 7903TIP3   OH223651   5.149   1.870   0.037
 7903TIP3    H123652   5.154   1.963   0.018
 7903TIP3    H223653   5.078   1.838  -0.018
 7904TIP3   OH223654   6.119   2.073   2.510
 7904TIP3    H123655   6.166   2.031   2.582
 7904TIP3    H223656   6.187   2.094   2.446
 7905TIP3   OH223657   7.820   1.318   4.710
 7905TIP3    H123658   7.883   1.262   4.755
 7905TIP3    H223659   7.856   1.329   4.623
 7906TIP3   OH223660   2.959   2.093   4.022
 7906TIP3    H123661   3.035   2.036   4.035
 7906TIP3    H223662   2.995   2.181   4.020
 7907TIP3   OH223663   0.324   5.861   4.006
 7907TIP3    H123664   0.311   5.869   3.911
 7907TIP3    H223665   0.280   5.780   4.030
 7908TIP3   OH223666   7.697   7.219   4.227
 7908TIP3    H123667   7.611   7.203   4.265
 7908TIP3    H223668   7.755   7.230   4.302
 7909TIP3   OH223669   0.386   1.875   4.829
 7909TIP3    H123670   0.393   1.967   4.803
 7909TIP3    H223671   0.395   1.876   4.924
 7910TIP3   OH223672   3.113   1.241   5.683
 7910TIP3    H123673   3.144   1.331   5.672
 7910TIP3    H223674   3.093   1.211   5.594
 7911TIP3   OH223675   0.829   7.355   1.770
 7911TIP3    H123676   0.742   7.377   1.740
 7911TIP3    H223677   0.825   7.261   1.788
 7912TIP3   OH223678   6.223   6.469   5.253
 7912TIP3    H123679   6.229   6.376   5.274
 7912TIP3    H223680   6.262   6.477   5.166
 7913TIP3   OH223681   2.217   2.213   3.890
 7913TIP3    H123682   2.211   2.122   3.862
 7913TIP3    H223683   2.129   2.236   3.918
 7914TIP3   OH223684   4.039   0.574   4.885
 7914TIP3    H123685   3.970   0.588   4.949
 7914TIP3    H223686   4.081   0.492   4.912
 7915TIP3   OH223687   1.212   0.194   5.345
 7915TIP3    H123688   1.191   0.218   5.255
 7915TIP3    H223689   1.252   0.108   5.338
 7916TIP3   OH223690   6.991   3.071   5.419
 7916TIP3    H123691   6.961   3.034   5.502
 7916TIP3    H223692   6.928   3.140   5.400
 7917TIP3   OH223693   2.981   3.577   5.477
 7917TIP3    H123694   2.915   3.644   5.495
 7917TIP3    H223695   2.933   3.495   5.480
 7918TIP3   OH223696   4.206   3.122   4.307
 7918TIP3    H123697   4.289   3.085   4.279
 7918TIP3    H223698   4.193   3.198   4.250
 7919TIP3   OH223699   4.578   4.573   0.970
 7919TIP3    H123700   4.506   4.575   1.033
 7919TIP3    H223701   4.537   4.594   0.886
 7920TIP3   OH223702   6.546   1.918   3.834
 7920TIP3    H123703   6.579   2.008   3.837
 7920TIP3    H223704   6.609   1.872   3.779
 7921TIP3   OH223705   5.580   7.854   4.978
 7921TIP3    H123706   5.603   7.767   4.943
 7921TIP3    H223707   5.664   7.898   4.988
 7922TIP3   OH223708   2.943   1.376   5.924
 7922TIP3    H123709   2.954   1.456   5.872
 7922TIP3    H223710   2.983   1.307   5.871
 7923TIP3   OH223711   7.239   4.370   5.936
 7923TIP3    H123712   7.181   4.411   6.000
 7923TIP3    H223713   7.224   4.276   5.948
 7924TIP3   OH223714   8.159   3.429   3.198
 7924TIP3    H123715   8.123   3.347   3.162
 7924TIP3    H223716   8.243   3.440   3.153
 7925TIP3   OH223717   5.793   4.574   0.765
 7925TIP3    H123718   5.886   4.594   0.753
 7925TIP3    H223719   5.791   4.485   0.800
 7926TIP3   OH223720   2.159   0.092   3.757
 7926TIP3    H123721   2.181   0.058   3.671
 7926TIP3    H223722   2.214   0.042   3.818
 7927TIP3   OH223723   5.377   5.959   4.842
 7927TIP3    H123724   5.423   5.990   4.764
 7927TIP3    H223725   5.410   5.870   4.856
 7928TIP3   OH223726   4.296   2.714   3.789
 7928TIP3    H123727   4.215   2.669   3.815
 7928TIP3    H223728   4.306   2.693   3.696
 7929TIP3   OH223729   7.760   4.411   0.547
 7929TIP3    H123730   7.704   4.390   0.622
 7929TIP3    H223731   7.788   4.326   0.513
 7930TIP3   OH223732   2.238   5.413   1.488
 7930TIP3    H123733   2.201   5.337   1.443
 7930TIP3    H223734   2.162   5.456   1.527
 7931TIP3   OH223735   2.193   6.371   4.285
 7931TIP3    H123736   2.176   6.398   4.194
 7931TIP3    H223737   2.262   6.305   4.278
 7932TIP3   OH223738   0.995   5.322   4.871
 7932TIP3    H123739   1.061   5.288   4.931
 7932TIP3    H223740   0.977   5.250   4.811
 7933TIP3   OH223741   3.319   5.276   3.431
 7933TIP3    H123742   3.269   5.196   3.411
 7933TIP3    H223743   3.252   5.344   3.441
 7934TIP3   OH223744   6.329   1.026   6.217
 7934TIP3    H123745   6.350   0.973   6.140
 7934TIP3    H223746   6.238   1.054   6.202
 7935TIP3   OH223747   6.894   5.069   2.335
 7935TIP3    H123748   6.861   4.980   2.325
 7935TIP3    H223749   6.987   5.063   2.315
 7936TIP3   OH223750   7.206   5.506   1.071
 7936TIP3    H123751   7.118   5.476   1.095
 7936TIP3    H223752   7.265   5.455   1.128
 7937TIP3   OH223753   1.587   2.565   0.860
 7937TIP3    H123754   1.673   2.562   0.819
 7937TIP3    H223755   1.599   2.524   0.945
 7938TIP3   OH223756   2.160   6.392   4.016
 7938TIP3    H123757   2.253   6.370   4.012
 7938TIP3    H223758   2.122   6.348   3.939
 7939TIP3   OH223759   0.650   7.376   6.710
 7939TIP3    H123760   0.599   7.389   6.630
 7939TIP3    H223761   0.662   7.464   6.746
 7940TIP3   OH223762   7.278   5.946   4.395
 7940TIP3    H123763   7.229   5.871   4.362
 7940TIP3    H223764   7.370   5.922   4.383
 7941TIP3   OH223765   8.069   1.064   6.494
 7941TIP3    H123766   8.067   1.052   6.589
 7941TIP3    H223767   8.046   1.156   6.481
 7942TIP3   OH223768   2.092   6.607   0.940
 7942TIP3    H123769   2.020   6.650   0.987
 7942TIP3    H223770   2.157   6.587   1.008
 7943TIP3   OH223771   1.902   3.027   0.409
 7943TIP3    H123772   1.982   2.974   0.407
 7943TIP3    H223773   1.850   2.990   0.480
 7944TIP3   OH223774   6.751   3.195   1.156
 7944TIP3    H123775   6.749   3.272   1.213
 7944TIP3    H223776   6.743   3.230   1.067
 7945TIP3   OH223777   6.763   0.578   0.366
 7945TIP3    H123778   6.822   0.561   0.439
 7945TIP3    H223779   6.677   0.588   0.407
 7946TIP3   OH223780   0.719   7.019   5.207
 7946TIP3    H123781   0.805   7.039   5.244
 7946TIP3    H223782   0.657   7.066   5.262
 7947TIP3   OH223783   7.359   0.663   0.599
 7947TIP3    H123784   7.299   0.707   0.540
 7947TIP3    H223785   7.418   0.614   0.542
 7948TIP3   OH223786   3.353   0.394   2.340
 7948TIP3    H123787   3.341   0.343   2.419
 7948TIP3    H223788   3.328   0.335   2.269
 7949TIP3   OH223789   0.579   2.509   3.170
 7949TIP3    H123790   0.671   2.536   3.165
 7949TIP3    H223791   0.572   2.435   3.110
 7950TIP3   OH223792   3.032   2.329   4.313
 7950TIP3    H123793   3.093   2.269   4.357
 7950TIP3    H223794   3.074   2.349   4.229
 7951TIP3   OH223795   5.289   5.541   1.089
 7951TIP3    H123796   5.260   5.465   1.038
 7951TIP3    H223797   5.329   5.503   1.168
 7952TIP3   OH223798   0.566   3.941   0.184
 7952TIP3    H123799   0.659   3.942   0.162
 7952TIP3    H223800   0.552   3.857   0.227
 7953TIP3   OH223801   3.667   4.920   6.607
 7953TIP3    H123802   3.687   4.867   6.684
 7953TIP3    H223803   3.748   4.968   6.590
 7954TIP3   OH223804   1.345   3.550   5.537
 7954TIP3    H123805   1.316   3.502   5.614
 7954TIP3    H223806   1.302   3.635   5.544
 7955TIP3   OH223807   8.021   4.632   6.066
 7955TIP3    H123808   8.082   4.687   6.018
 7955TIP3    H223809   7.971   4.587   5.998
 7956TIP3   OH223810   7.987   2.471   6.469
 7956TIP3    H123811   8.078   2.464   6.499
 7956TIP3    H223812   7.964   2.563   6.484
 7957TIP3   OH223813   4.752   1.896   5.797
 7957TIP3    H123814   4.676   1.926   5.748
 7957TIP3    H223815   4.825   1.903   5.735
 7958TIP3   OH223816   6.787   6.938   0.609
 7958TIP3    H123817   6.764   6.878   0.680
 7958TIP3    H223818   6.883   6.937   0.607
 7959TIP3   OH223819   4.357   1.155   1.310
 7959TIP3    H123820   4.313   1.200   1.382
 7959TIP3    H223821   4.301   1.080   1.290
 7960TIP3   OH223822   0.184   0.103   2.064
 7960TIP3    H123823   0.109   0.045   2.051
 7960TIP3    H223824   0.210   0.129   1.976
 7961TIP3   OH223825   6.060   3.652   0.922
 7961TIP3    H123826   6.154   3.671   0.920
 7961TIP3    H223827   6.025   3.715   0.984
 7962TIP3   OH223828   6.580   3.825   6.390
 7962TIP3    H123829   6.564   3.777   6.308
 7962TIP3    H223830   6.492   3.843   6.424
 7963TIP3   OH223831   3.696   6.163   2.889
 7963TIP3    H123832   3.665   6.100   2.824
 7963TIP3    H223833   3.780   6.194   2.855
 7964TIP3   OH223834   0.345   0.033   5.640
 7964TIP3    H123835   0.266   0.086   5.656
 7964TIP3    H223836   0.319  -0.027   5.570
 7965TIP3   OH223837   1.191   3.221   6.706
 7965TIP3    H123838   1.202   3.198   6.614
 7965TIP3    H223839   1.238   3.304   6.716
 7966TIP3   OH223840   0.983   5.660   3.161
 7966TIP3    H123841   0.985   5.709   3.078
 7966TIP3    H223842   0.990   5.727   3.229
 7967TIP3   OH223843   4.409   1.500   2.001
 7967TIP3    H123844   4.341   1.504   2.069
 7967TIP3    H223845   4.365   1.528   1.921
 7968TIP3   OH223846   6.591   4.717   2.862
 7968TIP3    H123847   6.672   4.768   2.858
 7968TIP3    H223848   6.587   4.683   2.951
 7969TIP3   OH223849   7.516   1.763   2.189
 7969TIP3    H123850   7.601   1.761   2.145
 7969TIP3    H223851   7.535   1.745   2.281
 7970TIP3   OH223852   8.138   4.608   0.810
 7970TIP3    H123853   8.208   4.576   0.754
 7970TIP3    H223854   8.181   4.671   0.869
 7971TIP3   OH223855   6.693   6.855   5.204
 7971TIP3    H123856   6.774   6.899   5.180
 7971TIP3    H223857   6.654   6.829   5.121
 7972TIP3   OH223858   5.050   0.110   6.092
 7972TIP3    H123859   4.991   0.035   6.104
 7972TIP3    H223860   5.130   0.072   6.056
 7973TIP3   OH223861   7.635   4.264   5.798
 7973TIP3    H123862   7.544   4.244   5.773
 7973TIP3    H223863   7.626   4.329   5.868
 7974TIP3   OH223864   3.002   5.329   0.147
 7974TIP3    H123865   3.077   5.381   0.176
 7974TIP3    H223866   2.980   5.275   0.223
 7975TIP3   OH223867   8.111   0.378   1.081
 7975TIP3    H123868   8.201   0.376   1.048
 7975TIP3    H223869   8.101   0.466   1.118
 7976TIP3   OH223870   1.789   0.868   3.920
 7976TIP3    H123871   1.786   0.797   3.985
 7976TIP3    H223872   1.784   0.824   3.836
 7977TIP3   OH223873   6.687   4.349   3.977
 7977TIP3    H123874   6.682   4.337   4.072
 7977TIP3    H223875   6.779   4.370   3.961
 7978TIP3   OH223876   6.633   7.577   2.456
 7978TIP3    H123877   6.540   7.554   2.462
 7978TIP3    H223878   6.672   7.508   2.403
 7979TIP3   OH223879   4.612   2.743   3.429
 7979TIP3    H123880   4.688   2.725   3.485
 7979TIP3    H223881   4.610   2.670   3.368
 7980TIP3   OH223882   0.329   0.649   2.879
 7980TIP3    H123883   0.260   0.701   2.920
 7980TIP3    H223884   0.346   0.578   2.941
 7981TIP3   OH223885   7.030   5.844   2.563
 7981TIP3    H123886   7.067   5.766   2.522
 7981TIP3    H223887   7.087   5.859   2.639
 7982TIP3   OH223888   1.056  -0.022   3.821
 7982TIP3    H123889   0.979   0.030   3.845
 7982TIP3    H223890   1.130   0.036   3.836
 7983TIP3   OH223891   3.162   7.473   3.703
 7983TIP3    H123892   3.179   7.539   3.635
 7983TIP3    H223893   3.070   7.449   3.691
 7984TIP3   OH223894   5.139   5.457   2.422
 7984TIP3    H123895   5.069   5.421   2.477
 7984TIP3    H223896   5.142   5.550   2.443
 7985TIP3   OH223897   3.564   6.084   6.229
 7985TIP3    H123898   3.482   6.125   6.257
 7985TIP3    H223899   3.538   6.016   6.167
 7986TIP3   OH223900   4.662   6.966   3.591
 7986TIP3    H123901   4.729   6.931   3.650
 7986TIP3    H223902   4.587   6.907   3.602
 7987TIP3   OH223903   4.724   4.163   0.827
 7987TIP3    H123904   4.719   4.232   0.761
 7987TIP3    H223905   4.808   4.119   0.808
 7988TIP3   OH223906   6.977   2.069   3.249
 7988TIP3    H123907   6.947   2.062   3.158
 7988TIP3    H223908   6.897   2.079   3.300
 7989TIP3   OH223909   8.288   2.003   0.399
 7989TIP3    H123910   8.212   1.947   0.382
 7989TIP3    H223911   8.330   1.964   0.476
 7990TIP3   OH223912   2.482   3.248   2.209
 7990TIP3    H123913   2.536   3.292   2.276
 7990TIP3    H223914   2.522   3.273   2.126
 7991TIP3   OH223915   5.382   1.388   6.653
 7991TIP3    H123916   5.454   1.326   6.664
 7991TIP3    H223917   5.303   1.334   6.655
 7992TIP3   OH223918   5.147   6.929   2.982
 7992TIP3    H123919   5.083   6.949   3.050
 7992TIP3    H223920   5.229   6.914   3.030
 7993TIP3   OH223921   0.967   1.049   1.208
 7993TIP3    H123922   1.040   0.988   1.198
 7993TIP3    H223923   0.988   1.097   1.288
 7994TIP3   OH223924   1.246   3.602   3.820
 7994TIP3    H123925   1.259   3.658   3.743
 7994TIP3    H223926   1.224   3.516   3.784
 7995TIP3   OH223927   5.103   1.641   2.896
 7995TIP3    H123928   5.040   1.712   2.908
 7995TIP3    H223929   5.049   1.564   2.876
 7996TIP3   OH223930   5.304   0.089   5.387
 7996TIP3    H123931   5.386   0.138   5.389
 7996TIP3    H223932   5.238   0.152   5.416
 7997TIP3   OH223933   1.285   4.839   1.978
 7997TIP3    H123934   1.255   4.761   2.025
 7997TIP3    H223935   1.227   4.844   1.902
 7998TIP3   OH223936   2.041   7.606   1.772
 7998TIP3    H123937   2.036   7.556   1.853
 7998TIP3    H223938   2.055   7.697   1.801
 7999TIP3   OH223939   5.079   3.604   5.867
 7999TIP3    H123940   5.115   3.515   5.863
 7999TIP3    H223941   5.057   3.624   5.776
 8000TIP3   OH223942   2.091   7.432   5.916
 8000TIP3    H123943   2.138   7.510   5.888
 8000TIP3    H223944   2.066   7.388   5.835
 8001TIP3   OH223945   3.079   7.057   1.150
 8001TIP3    H123946   2.984   7.054   1.148
 8001TIP3    H223947   3.106   6.965   1.158
 8002TIP3   OH223948   5.943   1.605   0.018
 8002TIP3    H123949   5.981   1.692   0.023
 8002TIP3    H223950   5.853   1.616   0.048
 8003TIP3   OH223951   5.464   6.387   5.628
 8003TIP3    H123952   5.537   6.430   5.583
 8003TIP3    H223953   5.428   6.327   5.562
 8004TIP3   OH223954   1.346   4.051   3.085
 8004TIP3    H123955   1.425   4.085   3.128
 8004TIP3    H223956   1.275   4.070   3.146
 8005TIP3   OH223957   5.965   6.823   6.315
 8005TIP3    H123958   5.877   6.858   6.327
 8005TIP3    H223959   5.956   6.729   6.330
 8006TIP3   OH223960   7.191   1.373   0.481
 8006TIP3    H123961   7.198   1.363   0.576
 8006TIP3    H223962   7.104   1.411   0.466
 8007TIP3   OH223963   8.060   4.806   4.013
 8007TIP3    H123964   8.023   4.718   4.007
 8007TIP3    H223965   7.983   4.864   4.013
 8008TIP3   OH223966   3.015   1.340   2.348
 8008TIP3    H123967   2.988   1.369   2.435
 8008TIP3    H223968   2.971   1.256   2.336
 8009TIP3   OH223969   3.765   6.080   0.984
 8009TIP3    H123970   3.845   6.132   0.980
 8009TIP3    H223971   3.733   6.090   1.073
 8010TIP3   OH223972   5.547   0.010   3.902
 8010TIP3    H123973   5.642   0.002   3.908
 8010TIP3    H223974   5.532   0.057   3.820
 8011TIP3   OH223975   4.728   5.837   0.987
 8011TIP3    H123976   4.764   5.845   0.898
 8011TIP3    H223977   4.752   5.918   1.030
 8012TIP3   OH223978   4.047   2.461   0.057
 8012TIP3    H123979   3.957   2.450   0.028
 8012TIP3    H223980   4.061   2.391   0.120
 8013TIP3   OH223981   7.178   7.325   4.712
 8013TIP3    H123982   7.162   7.258   4.646
 8013TIP3    H223983   7.274   7.330   4.719
 8014TIP3   OH223984   6.300   5.022   5.060
 8014TIP3    H123985   6.285   4.985   4.973
 8014TIP3    H223986   6.317   4.946   5.115
 8015TIP3   OH223987   4.164   7.682   2.493
 8015TIP3    H123988   4.194   7.629   2.566
 8015TIP3    H223989   4.070   7.666   2.489
 8016TIP3   OH223990   4.723   1.026   1.629
 8016TIP3    H123991   4.658   1.024   1.559
 8016TIP3    H223992   4.691   0.962   1.693
 8017TIP3   OH223993   5.391   7.343   1.121
 8017TIP3    H123994   5.403   7.250   1.104
 8017TIP3    H223995   5.447   7.387   1.056
 8018TIP3   OH223996   5.974   1.523   3.566
 8018TIP3    H123997   6.034   1.531   3.640
 8018TIP3    H223998   5.887   1.538   3.604
 8019TIP3   OH223999   2.991   6.763   4.729
 8019TIP3    H124000   2.899   6.776   4.753
 8019TIP3    H224001   2.991   6.681   4.679
 8020TIP3   OH224002   7.341   3.629   3.755
 8020TIP3    H124003   7.427   3.627   3.797
 8020TIP3    H224004   7.321   3.722   3.746
 8021TIP3   OH224005   1.053   6.792   0.682
 8021TIP3    H124006   1.033   6.764   0.593
 8021TIP3    H224007   1.051   6.712   0.735
 8022TIP3   OH224008   7.145   2.460   3.290
 8022TIP3    H124009   7.219   2.485   3.345
 8022TIP3    H224010   7.164   2.498   3.205
 8023TIP3   OH224011   5.237   0.546   5.134
 8023TIP3    H124012   5.317   0.578   5.091
 8023TIP3    H224013   5.169   0.552   5.067
 8024TIP3   OH224014   2.039   7.739   1.504
 8024TIP3    H124015   2.038   7.713   1.596
 8024TIP3    H224016   2.132   7.748   1.482
 8025TIP3   OH224017   5.754   2.603   4.953
 8025TIP3    H124018   5.789   2.681   4.909
 8025TIP3    H224019   5.674   2.582   4.904
 8026TIP3   OH224020   1.801   5.923   3.720
 8026TIP3    H124021   1.793   6.011   3.683
 8026TIP3    H224022   1.723   5.877   3.690
 8027TIP3   OH224023   3.520   2.313   4.620
 8027TIP3    H124024   3.487   2.362   4.544
 8027TIP3    H224025   3.462   2.338   4.692
 8028TIP3   OH224026   4.326   4.021   5.134
 8028TIP3    H124027   4.366   3.980   5.057
 8028TIP3    H224028   4.248   4.065   5.099
 8029TIP3   OH224029   1.140   4.853   1.732
 8029TIP3    H124030   1.050   4.836   1.703
 8029TIP3    H224031   1.194   4.809   1.667
 8030TIP3   OH224032   7.932   5.313   0.100
 8030TIP3    H124033   7.924   5.241   0.037
 8030TIP3    H224034   8.017   5.300   0.142
 8031TIP3   OH224035   0.578   1.361   3.137
 8031TIP3    H124036   0.658   1.410   3.117
 8031TIP3    H224037   0.507   1.424   3.124
 8032TIP3   OH224038   0.865   5.444   5.711
 8032TIP3    H124039   0.830   5.381   5.648
 8032TIP3    H224040   0.830   5.415   5.796
 8033TIP3   OH224041   8.056   2.981   6.697
 8033TIP3    H124042   8.056   3.000   6.791
 8033TIP3    H224043   7.984   2.919   6.685
 8034TIP3   OH224044   6.498   7.098   6.754
 8034TIP3    H124045   6.439   7.153   6.702
 8034TIP3    H224046   6.586   7.128   6.730
 8035TIP3   OH224047   0.270   4.595   5.955
 8035TIP3    H124048   0.355   4.609   5.912
 8035TIP3    H224049   0.243   4.682   5.982
 8036TIP3   OH224050   5.298   1.257   1.322
 8036TIP3    H124051   5.265   1.174   1.287
 8036TIP3    H224052   5.259   1.264   1.409
 8037TIP3   OH224053   3.492   1.538   5.338
 8037TIP3    H124054   3.419   1.511   5.394
 8037TIP3    H224055   3.502   1.466   5.275
 8038TIP3   OH224056   0.435   6.507   0.642
 8038TIP3    H124057   0.485   6.570   0.589
 8038TIP3    H224058   0.357   6.555   0.669
 8039TIP3   OH224059   2.196   5.452   2.375
 8039TIP3    H124060   2.127   5.502   2.331
 8039TIP3    H224061   2.177   5.460   2.468
 8040TIP3   OH224062   5.487   4.553   0.425
 8040TIP3    H124063   5.488   4.481   0.488
 8040TIP3    H224064   5.579   4.567   0.404
 8041TIP3   OH224065   1.343   0.974   2.396
 8041TIP3    H124066   1.278   0.951   2.463
 8041TIP3    H224067   1.317   0.923   2.319
 8042TIP3   OH224068   4.726   3.907   3.093
 8042TIP3    H124069   4.724   3.922   3.188
 8042TIP3    H224070   4.757   3.990   3.056
 8043TIP3   OH224071   4.010   4.304   4.170
 8043TIP3    H124072   4.006   4.246   4.094
 8043TIP3    H224073   4.005   4.245   4.245
 8044TIP3   OH224074   3.214   0.404   3.142
 8044TIP3    H124075   3.220   0.378   3.050
 8044TIP3    H224076   3.235   0.497   3.142
 8045TIP3   OH224077   3.902   5.373   0.037
 8045TIP3    H124078   3.834   5.422   0.085
 8045TIP3    H224079   3.858   5.343  -0.042
 8046TIP3   OH224080   4.128   4.659   5.351
 8046TIP3    H124081   4.201   4.714   5.321
 8046TIP3    H224082   4.149   4.638   5.442
 8047TIP3   OH224083   1.185   0.112   4.121
 8047TIP3    H124084   1.091   0.095   4.126
 8047TIP3    H224085   1.223   0.060   4.192
 8048TIP3   OH224086   8.183   5.409   2.286
 8048TIP3    H124087   8.161   5.492   2.244
 8048TIP3    H224088   8.101   5.359   2.283
 8049TIP3   OH224089   1.727   1.790   6.265
 8049TIP3    H124090   1.776   1.872   6.252
 8049TIP3    H224091   1.758   1.732   6.196
 8050TIP3   OH224092   1.342   1.944   6.162
 8050TIP3    H124093   1.350   1.949   6.067
 8050TIP3    H224094   1.262   1.893   6.177
 8051TIP3   OH224095   5.284   1.403   2.059
 8051TIP3    H124096   5.277   1.386   2.153
 8051TIP3    H224097   5.370   1.369   2.035
 8052TIP3   OH224098   0.564   2.738   5.834
 8052TIP3    H124099   0.641   2.794   5.843
 8052TIP3    H224100   0.585   2.659   5.884
 8053TIP3   OH224101   6.836   1.829   4.468
 8053TIP3    H124102   6.912   1.793   4.515
 8053TIP3    H224103   6.857   1.922   4.457
 8054TIP3   OH224104   2.134   0.798   0.668
 8054TIP3    H124105   2.105   0.819   0.757
 8054TIP3    H224106   2.175   0.712   0.676
 8055TIP3   OH224107   5.358   6.823   4.041
 8055TIP3    H124108   5.408   6.904   4.030
 8055TIP3    H224109   5.399   6.779   4.116
 8056TIP3   OH224110   6.075   0.224   5.096
 8056TIP3    H124111   6.169   0.224   5.076
 8056TIP3    H224112   6.033   0.208   5.012
 8057TIP3   OH224113   2.173   3.828   6.516
 8057TIP3    H124114   2.248   3.888   6.524
 8057TIP3    H224115   2.098   3.886   6.501
 8058TIP3   OH224116   0.888   7.323   2.379
 8058TIP3    H124117   0.900   7.324   2.284
 8058TIP3    H224118   0.960   7.271   2.412
 8059TIP3   OH224119   4.499   3.646   3.303
 8059TIP3    H124120   4.492   3.675   3.394
 8059TIP3    H224121   4.409   3.642   3.272
 8060TIP3   OH224122   6.716   2.410   0.603
 8060TIP3    H124123   6.785   2.347   0.586
 8060TIP3    H224124   6.760   2.495   0.600
 8061TIP3   OH224125   1.414   5.684   6.096
 8061TIP3    H124126   1.476   5.638   6.039
 8061TIP3    H224127   1.336   5.697   6.041
 8062TIP3   OH224128   0.028   6.001   0.095
 8062TIP3    H124129  -0.018   5.937   0.039
 8062TIP3    H224130   0.038   5.956   0.179
 8063TIP3   OH224131   0.691  -0.039   5.520
 8063TIP3    H124132   0.689  -0.051   5.425
 8063TIP3    H224133   0.713   0.053   5.533
 8064TIP3   OH224134   0.197   6.921   0.531
 8064TIP3    H124135   0.184   6.896   0.439
 8064TIP3    H224136   0.194   6.839   0.579
 8065TIP3   OH224137   7.992   3.241   3.043
 8065TIP3    H124138   7.925   3.302   3.075
 8065TIP3    H224139   8.024   3.281   2.962
 8066TIP3   OH224140   5.535   3.029   3.359
 8066TIP3    H124141   5.556   2.974   3.284
 8066TIP3    H224142   5.446   3.060   3.342
 8067TIP3   OH224143   3.529   2.009   0.940
 8067TIP3    H124144   3.442   2.050   0.938
 8067TIP3    H224145   3.577   2.058   1.006
 8068TIP3   OH224146   3.451   5.524   6.200
 8068TIP3    H124147   3.368   5.490   6.233
 8068TIP3    H224148   3.506   5.446   6.187
 8069TIP3   OH224149   7.081   6.812   2.309
 8069TIP3    H124150   7.094   6.727   2.267
 8069TIP3    H224151   7.163   6.860   2.294
 8070TIP3   OH224152   4.561   1.921   6.168
 8070TIP3    H124153   4.548   1.978   6.244
 8070TIP3    H224154   4.563   1.980   6.093
 8071TIP3   OH224155   0.455   2.037   1.634
 8071TIP3    H124156   0.390   2.040   1.565
 8071TIP3    H224157   0.427   1.965   1.690
 8072TIP3   OH224158   4.718   6.379   1.238
 8072TIP3    H124159   4.807   6.369   1.272
 8072TIP3    H224160   4.673   6.433   1.303
 8073TIP3   OH224161   2.539   0.699   5.909
 8073TIP3    H124162   2.491   0.708   5.827
 8073TIP3    H224163   2.622   0.746   5.895
 8074TIP3   OH224164   1.755   6.635   5.123
 8074TIP3    H124165   1.775   6.546   5.094
 8074TIP3    H224166   1.664   6.631   5.152
 8075TIP3   OH224167   5.194   4.734   5.979
 8075TIP3    H124168   5.200   4.647   6.018
 8075TIP3    H224169   5.278   4.776   5.999
 8076TIP3   OH224170   0.998   5.765   4.941
 8076TIP3    H124171   1.048   5.797   4.866
 8076TIP3    H224172   0.915   5.735   4.903
 8077TIP3   OH224173   2.308   1.038   5.089
 8077TIP3    H124174   2.383   1.068   5.140
 8077TIP3    H224175   2.347   0.987   5.018
 8078TIP3   OH224176   5.335   0.136   2.140
 8078TIP3    H124177   5.373   0.058   2.182
 8078TIP3    H224178   5.301   0.188   2.213
 8079TIP3   OH224179   4.994   4.466   6.630
 8079TIP3    H124180   4.914   4.424   6.663
 8079TIP3    H224181   4.966   4.554   6.605
 8080TIP3   OH224182   7.560   2.830   6.144
 8080TIP3    H124183   7.487   2.892   6.142
 8080TIP3    H224184   7.635   2.882   6.171
 8081TIP3   OH224185   5.288   3.375   3.897
 8081TIP3    H124186   5.299   3.299   3.954
 8081TIP3    H224187   5.224   3.347   3.831
 8082TIP3   OH224188   6.951   3.410   0.371
 8082TIP3    H124189   6.983   3.320   0.366
 8082TIP3    H224190   6.943   3.438   0.280
 8083TIP3   OH224191   0.861   6.968   1.493
 8083TIP3    H124192   0.890   6.945   1.582
 8083TIP3    H224193   0.774   7.006   1.505
 8084TIP3   OH224194   1.548   6.240   0.891
 8084TIP3    H124195   1.553   6.294   0.970
 8084TIP3    H224196   1.613   6.171   0.904
 8085TIP3   OH224197   2.922   3.868   4.633
 8085TIP3    H124198   2.900   3.812   4.558
 8085TIP3    H224199   2.995   3.823   4.675
 8086TIP3   OH224200   7.899   7.743   5.494
 8086TIP3    H124201   7.940   7.805   5.434
 8086TIP3    H224202   7.887   7.792   5.575
 8087TIP3   OH224203   1.798   2.895   4.705
 8087TIP3    H124204   1.705   2.908   4.722
 8087TIP3    H224205   1.829   2.980   4.674
 8088TIP3   OH224206   5.339   5.735   2.957
 8088TIP3    H124207   5.293   5.818   2.968
 8088TIP3    H224208   5.428   5.752   2.988
 8089TIP3   OH224209   4.016   4.466   0.222
 8089TIP3    H124210   4.011   4.393   0.161
 8089TIP3    H224211   4.081   4.439   0.286
 8090TIP3   OH224212   2.802   4.784   1.993
 8090TIP3    H124213   2.800   4.712   2.056
 8090TIP3    H224214   2.854   4.852   2.035
 8091TIP3   OH224215   7.081   4.343   2.105
 8091TIP3    H124216   7.175   4.325   2.103
 8091TIP3    H224217   7.045   4.289   2.033
 8092TIP3   OH224218   3.529   4.327   0.673
 8092TIP3    H124219   3.479   4.260   0.719
 8092TIP3    H224220   3.609   4.337   0.725
 8093TIP3   OH224221   4.050   2.015   1.851
 8093TIP3    H124222   4.070   1.964   1.930
 8093TIP3    H224223   3.978   2.072   1.879
 8094TIP3   OH224224   6.525   7.604   2.730
 8094TIP3    H124225   6.568   7.570   2.652
 8094TIP3    H224226   6.470   7.675   2.698
 8095TIP3   OH224227   4.753   3.160   0.611
 8095TIP3    H124228   4.723   3.215   0.684
 8095TIP3    H224229   4.782   3.079   0.652
 8096TIP3   OH224230   0.683   6.918   3.037
 8096TIP3    H124231   0.777   6.906   3.022
 8096TIP3    H224232   0.668   6.883   3.124
 8097TIP3   OH224233   7.178   7.688   5.034
 8097TIP3    H124234   7.115   7.681   5.107
 8097TIP3    H224235   7.212   7.777   5.040
 8098TIP3   OH224236   7.903   0.785   0.532
 8098TIP3    H124237   7.946   0.870   0.518
 8098TIP3    H224238   7.936   0.730   0.461
 8099TIP3   OH224239   5.227   2.663   1.166
 8099TIP3    H124240   5.135   2.670   1.139
 8099TIP3    H224241   5.227   2.694   1.257
 8100TIP3   OH224242   7.194   0.521   3.030
 8100TIP3    H124243   7.289   0.517   3.028
 8100TIP3    H224244   7.167   0.444   3.081
 8101TIP3   OH224245   1.106   1.952   4.887
 8101TIP3    H124246   1.076   2.043   4.888
 8101TIP3    H224247   1.201   1.959   4.878
 8102TIP3   OH224248   8.038   2.502   4.404
 8102TIP3    H124249   7.966   2.563   4.391
 8102TIP3    H224250   8.078   2.493   4.318
 8103TIP3   OH224251   1.889   3.138   3.406
 8103TIP3    H124252   1.918   3.077   3.339
 8103TIP3    H224253   1.880   3.085   3.485
 8104TIP3   OH224254   7.888   4.060   5.223
 8104TIP3    H124255   7.796   4.085   5.212
 8104TIP3    H224256   7.891   3.968   5.201
 8105TIP3   OH224257   3.318   3.895   2.978
 8105TIP3    H124258   3.231   3.857   2.969
 8105TIP3    H224259   3.353   3.858   3.059
 8106TIP3   OH224260   6.401   7.571   3.063
 8106TIP3    H124261   6.465   7.508   3.032
 8106TIP3    H224262   6.353   7.598   2.984
 8107TIP3   OH224263   7.226   6.604   1.355
 8107TIP3    H124264   7.234   6.583   1.262
 8107TIP3    H224265   7.255   6.695   1.361
 8108TIP3   OH224266   2.622   1.896   2.153
 8108TIP3    H124267   2.703   1.865   2.193
 8108TIP3    H224268   2.574   1.939   2.224
 8109TIP3   OH224269   0.565   7.101   3.578
 8109TIP3    H124270   0.610   7.037   3.632
 8109TIP3    H224271   0.620   7.109   3.500
 8110TIP3   OH224272   2.841   1.031   0.690
 8110TIP3    H124273   2.792   1.072   0.762
 8110TIP3    H224274   2.847   1.099   0.623
 8111TIP3   OH224275   6.991   0.866   5.676
 8111TIP3    H124276   6.919   0.928   5.686
 8111TIP3    H224277   6.991   0.843   5.583
 8112TIP3   OH224278   3.685   7.587   3.888
 8112TIP3    H124279   3.744   7.519   3.856
 8112TIP3    H224280   3.690   7.581   3.983
 8113TIP3   OH224281   6.092   5.564   3.830
 8113TIP3    H124282   6.133   5.559   3.917
 8113TIP3    H224283   6.143   5.630   3.784
 8114TIP3   OH224284   6.859   2.277   2.460
 8114TIP3    H124285   6.908   2.220   2.519
 8114TIP3    H224286   6.847   2.225   2.380
 8115TIP3   OH224287   1.843   2.175   5.420
 8115TIP3    H124288   1.763   2.219   5.390
 8115TIP3    H224289   1.914   2.224   5.378
 8116TIP3   OH224290   5.373   6.163   6.514
 8116TIP3    H124291   5.447   6.105   6.499
 8116TIP3    H224292   5.306   6.132   6.453
 8117TIP3   OH224293   7.304   3.180   0.714
 8117TIP3    H124294   7.268   3.213   0.796
 8117TIP3    H224295   7.342   3.257   0.672
 8118TIP3   OH224296   3.808   6.960   4.343
 8118TIP3    H124297   3.826   6.880   4.293
 8118TIP3    H224298   3.866   6.955   4.418
 8119TIP3   OH224299   7.532   5.871   4.329
 8119TIP3    H124300   7.538   5.818   4.249
 8119TIP3    H224301   7.623   5.888   4.353
 8120TIP3   OH224302   1.315   1.316   3.768
 8120TIP3    H124303   1.309   1.246   3.833
 8120TIP3    H224304   1.325   1.396   3.820
 8121TIP3   OH224305   7.596   1.278   4.945
 8121TIP3    H124306   7.523   1.332   4.976
 8121TIP3    H224307   7.669   1.339   4.936
 8122TIP3   OH224308   3.968   2.960   6.394
 8122TIP3    H124309   3.943   2.871   6.371
 8122TIP3    H224310   4.016   2.993   6.318
 8123TIP3   OH224311   3.113   0.487   0.969
 8123TIP3    H124312   3.108   0.567   1.022
 8123TIP3    H224313   3.091   0.515   0.880
 8124TIP3   OH224314   5.902   5.706   6.639
 8124TIP3    H124315   5.972   5.659   6.686
 8124TIP3    H224316   5.821   5.668   6.674
 8125TIP3   OH224317   0.580   2.065   6.561
 8125TIP3    H124318   0.590   2.038   6.652
 8125TIP3    H224319   0.652   2.023   6.515
 8126TIP3   OH224320   0.353   0.555   4.244
 8126TIP3    H124321   0.307   0.497   4.184
 8126TIP3    H224322   0.432   0.506   4.269
 8127TIP3   OH224323   3.558   0.552   2.764
 8127TIP3    H124324   3.586   0.526   2.852
 8127TIP3    H224325   3.466   0.575   2.774
 8128TIP3   OH224326   0.845   2.082   4.640
 8128TIP3    H124327   0.834   2.159   4.697
 8128TIP3    H224328   0.785   2.017   4.676
 8129TIP3   OH224329   7.726   4.472   2.527
 8129TIP3    H124330   7.695   4.460   2.438
 8129TIP3    H224331   7.651   4.450   2.583
 8130TIP3   OH224332   4.071   1.097   1.019
 8130TIP3    H124333   4.037   1.052   0.941
 8130TIP3    H224334   4.090   1.026   1.081
 8131TIP3   OH224335   6.593   1.973   0.569
 8131TIP3    H124336   6.579   1.975   0.664
 8131TIP3    H224337   6.638   1.890   0.553
 8132TIP3   OH224338   8.215   0.524   6.078
 8132TIP3    H124339   8.167   0.461   6.025
 8132TIP3    H224340   8.306   0.517   6.047
 8133TIP3   OH224341   2.587   4.805   1.824
 8133TIP3    H124342   2.666   4.796   1.876
 8133TIP3    H224343   2.516   4.786   1.885
 8134TIP3   OH224344   2.950   1.992   6.138
 8134TIP3    H124345   2.954   2.088   6.142
 8134TIP3    H224346   2.979   1.963   6.224
 8135TIP3   OH224347   3.129   2.748   0.590
 8135TIP3    H124348   3.179   2.800   0.652
 8135TIP3    H224349   3.120   2.805   0.513
 8136TIP3   OH224350   4.230   2.335   5.651
 8136TIP3    H124351   4.161   2.343   5.585
 8136TIP3    H224352   4.199   2.267   5.711
 8137TIP3   OH224353   5.967   1.074   5.697
 8137TIP3    H124354   5.918   1.062   5.616
 8137TIP3    H224355   6.059   1.071   5.670
 8138TIP3   OH224356   2.154   4.033   3.845
 8138TIP3    H124357   2.080   4.036   3.785
 8138TIP3    H224358   2.173   3.939   3.854
 8139TIP3   OH224359   1.016   0.424   3.421
 8139TIP3    H124360   1.095   0.393   3.466
 8139TIP3    H224361   1.014   0.376   3.339
 8140TIP3   OH224362   8.038   6.064   3.857
 8140TIP3    H124363   7.962   6.080   3.913
 8140TIP3    H224364   8.003   6.019   3.781
 8141TIP3   OH224365   3.089   1.110   1.684
 8141TIP3    H124366   3.168   1.065   1.657
 8141TIP3    H224367   3.103   1.131   1.776
 8142TIP3   OH224368   4.424   1.337   4.117
 8142TIP3    H124369   4.454   1.426   4.135
 8142TIP3    H224370   4.354   1.347   4.052
 8143TIP3   OH224371   4.404   4.101   1.525
 8143TIP3    H124372   4.424   4.139   1.611
 8143TIP3    H224373   4.471   4.033   1.513
 8144TIP3   OH224374   5.060   6.675   3.015
 8144TIP3    H124375   5.081   6.767   2.999
 8144TIP3    H224376   5.131   6.627   2.972
 8145TIP3   OH224377   5.364   5.498   2.233
 8145TIP3    H124378   5.300   5.455   2.289
 8145TIP3    H224379   5.343   5.591   2.239
 8146TIP3   OH224380   3.094   4.659   5.344
 8146TIP3    H124381   3.054   4.731   5.296
 8146TIP3    H224382   3.168   4.698   5.390
 8147TIP3   OH224383   2.874   7.312   1.791
 8147TIP3    H124384   2.919   7.393   1.817
 8147TIP3    H224385   2.787   7.342   1.763
 8148TIP3   OH224386   7.633   6.825   2.275
 8148TIP3    H124387   7.663   6.754   2.332
 8148TIP3    H224388   7.548   6.795   2.243
 8149TIP3   OH224389   0.415   5.598   1.228
 8149TIP3    H124390   0.465   5.525   1.266
 8149TIP3    H224391   0.446   5.675   1.276
 8150TIP3   OH224392   1.558   4.409   5.945
 8150TIP3    H124393   1.604   4.396   6.027
 8150TIP3    H224394   1.467   4.387   5.965
 8151TIP3   OH224395   5.003   1.261   1.884
 8151TIP3    H124396   4.911   1.274   1.905
 8151TIP3    H224397   5.035   1.347   1.859
 8152TIP3   OH224398   7.631   1.008   4.924
 8152TIP3    H124399   7.568   0.985   4.992
 8152TIP3    H224400   7.623   1.103   4.914
 8153TIP3   OH224401   0.747   6.270   6.369
 8153TIP3    H124402   0.680   6.289   6.435
 8153TIP3    H224403   0.766   6.177   6.380
 8154TIP3   OH224404   6.981   5.111   6.323
 8154TIP3    H124405   7.038   5.153   6.388
 8154TIP3    H224406   7.041   5.062   6.267
 8155TIP3   OH224407   5.007   4.282   5.312
 8155TIP3    H124408   5.089   4.248   5.277
 8155TIP3    H224409   5.034   4.339   5.384
 8156TIP3   OH224410   1.323   6.749   3.109
 8156TIP3    H124411   1.363   6.669   3.142
 8156TIP3    H224412   1.295   6.796   3.188
 8157TIP3   OH224413   4.487   2.023   0.959
 8157TIP3    H124414   4.439   2.104   0.939
 8157TIP3    H224415   4.574   2.037   0.921
 8158TIP3   OH224416   7.898   2.988   0.248
 8158TIP3    H124417   7.842   2.918   0.216
 8158TIP3    H224418   7.852   3.069   0.225
 8159TIP3   OH224419   2.489   4.068   3.531
 8159TIP3    H124420   2.398   4.056   3.502
 8159TIP3    H224421   2.524   4.136   3.473
 8160TIP3   OH224422   4.057   6.411   1.724
 8160TIP3    H124423   4.059   6.494   1.675
 8160TIP3    H224424   4.135   6.364   1.695
 8161TIP3   OH224425   7.733   5.389   0.759
 8161TIP3    H124426   7.797   5.420   0.695
 8161TIP3    H224427   7.784   5.346   0.827
 8162TIP3   OH224428   4.959   0.805   1.609
 8162TIP3    H124429   5.029   0.743   1.629
 8162TIP3    H224430   4.892   0.788   1.675
 8163TIP3   OH224431   7.126   6.879   1.977
 8163TIP3    H124432   7.086   6.959   2.011
 8163TIP3    H224433   7.182   6.909   1.906
 8164TIP3   OH224434   6.677   4.940   4.262
 8164TIP3    H124435   6.739   4.984   4.320
 8164TIP3    H224436   6.673   4.996   4.184
 8165TIP3   OH224437   2.057   4.985   6.573
 8165TIP3    H124438   2.033   5.077   6.565
 8165TIP3    H224439   2.056   4.968   6.668
 8166TIP3   OH224440   5.305   4.087   4.842
 8166TIP3    H124441   5.238   4.085   4.911
 8166TIP3    H224442   5.374   4.030   4.874
 8167TIP3   OH224443   4.334   6.279   5.751
 8167TIP3    H124444   4.376   6.348   5.699
 8167TIP3    H224445   4.286   6.326   5.819
 8168TIP3   OH224446   8.001   0.284   2.005
 8168TIP3    H124447   8.032   0.231   2.078
 8168TIP3    H224448   7.928   0.233   1.969
 8169TIP3   OH224449   0.612   2.240   4.294
 8169TIP3    H124450   0.701   2.274   4.305
 8169TIP3    H224451   0.623   2.164   4.236
 8170TIP3   OH224452   0.359   0.954   2.633
 8170TIP3    H124453   0.293   0.951   2.703
 8170TIP3    H224454   0.372   1.047   2.616
 8171TIP3   OH224455   6.980   3.146   0.371
 8171TIP3    H124456   6.939   3.092   0.303
 8171TIP3    H224457   7.054   3.093   0.401
 8172TIP3   OH224458   7.238   6.411   6.001
 8172TIP3    H124459   7.266   6.485   5.947
 8172TIP3    H224460   7.159   6.378   5.959
 8173TIP3   OH224461   1.539   6.020   4.855
 8173TIP3    H124462   1.466   6.056   4.805
 8173TIP3    H224463   1.542   5.928   4.828
 8174TIP3   OH224464   7.229   7.635   3.660
 8174TIP3    H124465   7.292   7.706   3.671
 8174TIP3    H224466   7.186   7.653   3.577
 8175TIP3   OH224467   7.180   3.392   4.588
 8175TIP3    H124468   7.133   3.470   4.559
 8175TIP3    H224469   7.128   3.359   4.661
 8176TIP3   OH224470   4.757   1.682   6.427
 8176TIP3    H124471   4.846   1.687   6.392
 8176TIP3    H224472   4.730   1.774   6.438
 8177TIP3   OH224473   2.581   5.223   3.501
 8177TIP3    H124474   2.636   5.159   3.547
 8177TIP3    H224475   2.613   5.308   3.530
 8178TIP3   OH224476   0.400   2.443   2.833
 8178TIP3    H124477   0.323   2.411   2.787
 8178TIP3    H224478   0.432   2.367   2.882
 8179TIP3   OH224479   7.894   4.687   4.429
 8179TIP3    H124480   7.936   4.611   4.388
 8179TIP3    H224481   7.965   4.750   4.441
 8180TIP3   OH224482   7.380   0.751   5.959
 8180TIP3    H124483   7.387   0.815   6.029
 8180TIP3    H224484   7.357   0.669   6.002
 8181TIP3   OH224485   4.914   4.876   1.771
 8181TIP3    H124486   4.897   4.804   1.710
 8181TIP3    H224487   4.838   4.876   1.829
 8182TIP3   OH224488   4.384   1.615   0.006
 8182TIP3    H124489   4.371   1.672   0.081
 8182TIP3    H224490   4.335   1.656  -0.065
 8183TIP3   OH224491   1.337   6.149   2.854
 8183TIP3    H124492   1.251   6.188   2.870
 8183TIP3    H224493   1.328   6.106   2.769
 8184TIP3   OH224494   4.022   4.873   4.909
 8184TIP3    H124495   3.971   4.953   4.927
 8184TIP3    H224496   3.966   4.821   4.852
 8185TIP3   OH224497   5.733   3.659   5.154
 8185TIP3    H124498   5.710   3.575   5.116
 8185TIP3    H224499   5.800   3.638   5.219
 8186TIP3   OH224500   1.525   5.286   1.034
 8186TIP3    H124501   1.612   5.318   1.059
 8186TIP3    H224502   1.476   5.365   1.012
 8187TIP3   OH224503   5.310   2.946   0.387
 8187TIP3    H124504   5.243   2.955   0.319
 8187TIP3    H224505   5.335   2.854   0.384
 8188TIP3   OH224506   2.398   5.178   4.710
 8188TIP3    H124507   2.452   5.249   4.676
 8188TIP3    H224508   2.333   5.163   4.642
 8189TIP3   OH224509   0.851   4.819   1.627
 8189TIP3    H124510   0.873   4.867   1.547
 8189TIP3    H224511   0.869   4.728   1.606
 8190TIP3   OH224512   8.056   3.822   5.621
 8190TIP3    H124513   8.083   3.876   5.695
 8190TIP3    H224514   8.095   3.736   5.638
 8191TIP3   OH224515   5.017   1.196   5.744
 8191TIP3    H124516   5.051   1.273   5.700
 8191TIP3    H224517   4.936   1.226   5.787
 8192TIP3   OH224518   4.846   0.524   5.895
 8192TIP3    H124519   4.793   0.555   5.969
 8192TIP3    H224520   4.908   0.462   5.934
 8193TIP3   OH224521   7.397   2.007   1.747
 8193TIP3    H124522   7.411   1.990   1.840
 8193TIP3    H224523   7.444   2.089   1.730
 8194TIP3   OH224524   7.832   4.405   4.594
 8194TIP3    H124525   7.802   4.401   4.685
 8194TIP3    H224526   7.838   4.499   4.575
 8195TIP3   OH224527   2.102   3.616   2.316
 8195TIP3    H124528   2.142   3.703   2.316
 8195TIP3    H224529   2.010   3.632   2.337
 8196TIP3   OH224530   1.648   0.647   5.523
 8196TIP3    H124531   1.614   0.695   5.598
 8196TIP3    H224532   1.572   0.634   5.466
 8197TIP3   OH224533   2.636   1.629   4.535
 8197TIP3    H124534   2.545   1.613   4.508
 8197TIP3    H224535   2.633   1.715   4.578
 8198TIP3   OH224536   0.242   6.403   3.820
 8198TIP3    H124537   0.331   6.392   3.854
 8198TIP3    H224538   0.224   6.322   3.772
 8199TIP3   OH224539   0.604   4.801   1.739
 8199TIP3    H124540   0.697   4.802   1.716
 8199TIP3    H224541   0.577   4.710   1.725
 8200TIP3   OH224542   5.257   1.581   4.196
 8200TIP3    H124543   5.229   1.658   4.245
 8200TIP3    H224544   5.176   1.544   4.161
 8201TIP3   OH224545   2.032   7.445   2.017
 8201TIP3    H124546   2.076   7.508   2.075
 8201TIP3    H224547   2.090   7.369   2.015
 8202TIP3   OH224548   4.111   7.751   6.546
 8202TIP3    H124549   4.165   7.694   6.600
 8202TIP3    H224550   4.124   7.720   6.457
 8203TIP3   OH224551   6.660   4.134   3.395
 8203TIP3    H124552   6.641   4.092   3.479
 8203TIP3    H224553   6.737   4.087   3.362
 8204TIP3   OH224554   3.938   5.793   4.350
 8204TIP3    H124555   3.992   5.846   4.292
 8204TIP3    H224556   3.920   5.713   4.299
 8205TIP3   OH224557   1.288   3.229   4.472
 8205TIP3    H124558   1.242   3.159   4.518
 8205TIP3    H224559   1.273   3.211   4.379
 8206TIP3   OH224560   4.358   3.937   3.722
 8206TIP3    H124561   4.271   3.901   3.703
 8206TIP3    H224562   4.341   4.024   3.759
 8207TIP3   OH224563   2.203   2.196   5.687
 8207TIP3    H124564   2.286   2.196   5.734
 8207TIP3    H224565   2.170   2.286   5.696
 8208TIP3   OH224566   3.044   4.152   0.530
 8208TIP3    H124567   3.111   4.217   0.549
 8208TIP3    H224568   2.988   4.152   0.608
 8209TIP3   OH224569   0.128   5.611   6.316
 8209TIP3    H124570   0.088   5.666   6.383
 8209TIP3    H224571   0.108   5.655   6.233
 8210TIP3   OH224572   4.932   5.589   6.156
 8210TIP3    H124573   4.867   5.542   6.102
 8210TIP3    H224574   4.883   5.661   6.195
 8211TIP3   OH224575   3.254   6.621   4.778
 8211TIP3    H124576   3.219   6.534   4.798
 8211TIP3    H224577   3.177   6.672   4.750
 8212TIP3   OH224578   4.715   6.729   0.277
 8212TIP3    H124579   4.719   6.666   0.348
 8212TIP3    H224580   4.624   6.729   0.249
 8213TIP3   OH224581   3.242   3.912   5.661
 8213TIP3    H124582   3.316   3.971   5.647
 8213TIP3    H224583   3.165   3.965   5.638
 8214TIP3   OH224584   5.771   2.684   6.335
 8214TIP3    H124585   5.720   2.756   6.299
 8214TIP3    H224586   5.835   2.726   6.393
 8215TIP3   OH224587   1.399   5.803   1.786
 8215TIP3    H124588   1.447   5.814   1.704
 8215TIP3    H224589   1.412   5.885   1.833
 8216TIP3   OH224590   3.494   0.625   3.127
 8216TIP3    H124591   3.454   0.660   3.048
 8216TIP3    H224592   3.447   0.669   3.199
 8217TIP3   OH224593   4.955   0.789   4.190
 8217TIP3    H124594   4.981   0.832   4.109
 8217TIP3    H224595   5.037   0.752   4.225
 8218TIP3   OH224596   3.530   5.080   5.064
 8218TIP3    H124597   3.518   5.051   5.154
 8218TIP3    H224598   3.506   5.173   5.065
 8219TIP3   OH224599   4.639   3.145   4.957
 8219TIP3    H124600   4.688   3.220   4.924
 8219TIP3    H224601   4.677   3.070   4.912
 8220TIP3   OH224602   6.921   1.171   5.944
 8220TIP3    H124603   6.866   1.221   6.003
 8220TIP3    H224604   7.004   1.161   5.990
 8221TIP3   OH224605   1.848   7.524   4.021
 8221TIP3    H124606   1.798   7.446   3.998
 8221TIP3    H224607   1.794   7.597   3.990
 8222TIP3   OH224608   7.413   0.891   3.850
 8222TIP3    H124609   7.336   0.934   3.888
 8222TIP3    H224610   7.386   0.800   3.837
 8223TIP3   OH224611   5.656   4.882   4.716
 8223TIP3    H124612   5.568   4.859   4.687
 8223TIP3    H224613   5.713   4.823   4.667
 8224TIP3   OH224614   7.394   7.673   0.489
 8224TIP3    H124615   7.438   7.731   0.427
 8224TIP3    H224616   7.359   7.732   0.556
 8225TIP3   OH224617   3.041   1.751   4.172
 8225TIP3    H124618   2.968   1.776   4.116
 8225TIP3    H224619   3.119   1.779   4.124
 8226TIP3   OH224620   6.176   7.084   4.231
 8226TIP3    H124621   6.183   7.123   4.318
 8226TIP3    H224622   6.091   7.114   4.198
 8227TIP3   OH224623   5.612   5.755   3.656
 8227TIP3    H124624   5.552   5.681   3.668
 8227TIP3    H224625   5.698   5.720   3.680
 8228TIP3   OH224626   0.263   5.234   1.249
 8228TIP3    H124627   0.324   5.253   1.177
 8228TIP3    H224628   0.178   5.225   1.207
 8229TIP3   OH224629   7.135   6.686   0.439
 8229TIP3    H124630   7.116   6.662   0.348
 8229TIP3    H224631   7.231   6.688   0.443
 8230TIP3   OH224632   5.091   6.944   6.521
 8230TIP3    H124633   5.063   7.010   6.458
 8230TIP3    H224634   5.145   6.993   6.584
 8231TIP3   OH224635   8.143   7.456   1.769
 8231TIP3    H124636   8.238   7.453   1.781
 8231TIP3    H224637   8.131   7.466   1.674
 8232TIP3   OH224638   0.569   6.156   4.899
 8232TIP3    H124639   0.634   6.197   4.956
 8232TIP3    H224640   0.581   6.062   4.912
 8233TIP3   OH224641   4.882   1.762   2.670
 8233TIP3    H124642   4.944   1.833   2.650
 8233TIP3    H224643   4.931   1.682   2.652
 8234TIP3   OH224644   4.187   4.905   3.487
 8234TIP3    H124645   4.139   4.822   3.489
 8234TIP3    H224646   4.173   4.943   3.574
 8235TIP3   OH224647   0.979   2.023   0.198
 8235TIP3    H124648   1.020   2.035   0.112
 8235TIP3    H224649   0.912   1.956   0.183
 8236TIP3   OH224650   7.790   2.392   5.065
 8236TIP3    H124651   7.725   2.436   5.010
 8236TIP3    H224652   7.794   2.303   5.030
 8237TIP3   OH224653   6.334   5.981   2.231
 8237TIP3    H124654   6.293   6.057   2.190
 8237TIP3    H224655   6.264   5.942   2.284
 8238TIP3   OH224656   8.221   2.331   1.848
 8238TIP3    H124657   8.267   2.259   1.804
 8238TIP3    H224658   8.128   2.307   1.843
 8239TIP3   OH224659   5.349   0.122   4.618
 8239TIP3    H124660   5.266   0.169   4.619
 8239TIP3    H224661   5.344   0.063   4.693
 8240TIP3   OH224662   3.088   0.758   1.429
 8240TIP3    H124663   3.166   0.723   1.471
 8240TIP3    H224664   3.060   0.829   1.486
 8241TIP3   OH224665   2.860   2.695   0.702
 8241TIP3    H124666   2.946   2.681   0.661
 8241TIP3    H224667   2.840   2.787   0.682
 8242TIP3   OH224668   4.484   0.134   5.022
 8242TIP3    H124669   4.414   0.133   4.957
 8242TIP3    H224670   4.565   0.127   4.972
 8243TIP3   OH224671   4.672   5.360   0.933
 8243TIP3    H124672   4.663   5.283   0.990
 8243TIP3    H224673   4.597   5.354   0.874
 8244TIP3   OH224674   2.960   6.638   5.362
 8244TIP3    H124675   2.896   6.615   5.430
 8244TIP3    H224676   2.940   6.579   5.289
 8245TIP3   OH224677   7.369   7.322   3.933
 8245TIP3    H124678   7.404   7.386   3.872
 8245TIP3    H224679   7.347   7.246   3.879
 8246TIP3   OH224680   5.022   5.125   4.193
 8246TIP3    H124681   5.041   5.054   4.132
 8246TIP3    H224682   5.101   5.179   4.194
 8247TIP3   OH224683   7.644   2.983   1.357
 8247TIP3    H124684   7.606   2.906   1.400
 8247TIP3    H224685   7.690   3.029   1.427
 8248TIP3   OH224686   5.982   0.437   4.529
 8248TIP3    H124687   5.992   0.366   4.592
 8248TIP3    H224688   6.019   0.403   4.448
 8249TIP3   OH224689   5.412   1.772   4.070
 8249TIP3    H124690   5.350   1.701   4.082
 8249TIP3    H224691   5.383   1.841   4.129
 8250TIP3   OH224692   7.780   3.731   5.994
 8250TIP3    H124693   7.833   3.811   5.994
 8250TIP3    H224694   7.833   3.668   6.042
 8251TIP3   OH224695   2.561   4.367   4.998
 8251TIP3    H124696   2.578   4.323   4.915
 8251TIP3    H224697   2.602   4.311   5.064
 8252TIP3   OH224698   2.981   2.704   3.344
 8252TIP3    H124699   3.003   2.796   3.332
 8252TIP3    H224700   2.897   2.694   3.300
 8253TIP3   OH224701   1.745   5.386   6.263
 8253TIP3    H124702   1.730   5.348   6.177
 8253TIP3    H224703   1.674   5.352   6.317
 8254TIP3   OH224704   1.791   0.694   2.232
 8254TIP3    H124705   1.831   0.740   2.306
 8254TIP3    H224706   1.762   0.610   2.268
 8255TIP3   OH224707   3.061   1.675   3.321
 8255TIP3    H124708   3.144   1.666   3.275
 8255TIP3    H224709   3.084   1.674   3.414
 8256TIP3   OH224710   0.022   6.995   1.552
 8256TIP3    H124711   0.090   6.936   1.519
 8256TIP3    H224712   0.068   7.055   1.610
 8257TIP3   OH224713   5.377   5.911   0.334
 8257TIP3    H124714   5.359   5.841   0.397
 8257TIP3    H224715   5.385   5.867   0.250
 8258TIP3   OH224716   5.258   0.404   3.740
 8258TIP3    H124717   5.253   0.500   3.738
 8258TIP3    H224718   5.199   0.376   3.670
 8259TIP3   OH224719   8.185   2.344   3.635
 8259TIP3    H124720   8.134   2.297   3.569
 8259TIP3    H224721   8.174   2.436   3.613
 8260TIP3   OH224722   7.455   2.659   5.905
 8260TIP3    H124723   7.496   2.683   5.988
 8260TIP3    H224724   7.374   2.709   5.904
 8261TIP3   OH224725   4.717   6.933   1.426
 8261TIP3    H124726   4.740   6.929   1.519
 8261TIP3    H224727   4.668   7.014   1.417
 8262TIP3   OH224728   5.463   4.894   0.417
 8262TIP3    H124729   5.421   4.830   0.475
 8262TIP3    H224730   5.523   4.942   0.473
 8263TIP3   OH224731   6.752   0.756   4.924
 8263TIP3    H124732   6.736   0.828   4.864
 8263TIP3    H224733   6.848   0.747   4.927
 8264TIP3   OH224734   8.186   2.647   3.506
 8264TIP3    H124735   8.093   2.650   3.484
 8264TIP3    H224736   8.226   2.599   3.433
 8265TIP3   OH224737   4.105   5.057   4.385
 8265TIP3    H124738   4.131   5.003   4.309
 8265TIP3    H224739   4.122   5.147   4.357
 8266TIP3   OH224740   7.259   2.288   1.411
 8266TIP3    H124741   7.308   2.206   1.407
 8266TIP3    H224742   7.270   2.328   1.325
 8267TIP3   OH224743   6.557   0.976   0.827
 8267TIP3    H124744   6.472   1.020   0.836
 8267TIP3    H224745   6.612   1.038   0.779
 8268TIP3   OH224746   4.928   6.700   2.500
 8268TIP3    H124747   5.019   6.703   2.470
 8268TIP3    H224748   4.931   6.655   2.584
 8269TIP3   OH224749   7.158   2.278   4.237
 8269TIP3    H124750   7.084   2.224   4.265
 8269TIP3    H224751   7.158   2.270   4.141
 8270TIP3   OH224752   5.435   7.082   3.980
 8270TIP3    H124753   5.343   7.105   3.998
 8270TIP3    H224754   5.458   7.133   3.903
 8271TIP3   OH224755   1.054   7.194   6.744
 8271TIP3    H124756   1.004   7.213   6.664
 8271TIP3    H224757   1.005   7.125   6.787
 8272TIP3   OH224758   1.494   6.593   2.622
 8272TIP3    H124759   1.495   6.569   2.715
 8272TIP3    H224760   1.410   6.637   2.610
 8273TIP3   OH224761   8.218   0.309   4.231
 8273TIP3    H124762   8.212   0.326   4.137
 8273TIP3    H224763   8.306   0.339   4.255
 8274TIP3   OH224764   6.412   3.959   4.391
 8274TIP3    H124765   6.372   3.992   4.311
 8274TIP3    H224766   6.338   3.948   4.452
 8275TIP3   OH224767   1.583   1.581   4.064
 8275TIP3    H124768   1.579   1.609   3.972
 8275TIP3    H224769   1.663   1.620   4.098
 8276TIP3   OH224770   7.988   6.030   5.329
 8276TIP3    H124771   8.057   5.975   5.366
 8276TIP3    H224772   8.026   6.118   5.326
 8277TIP3   OH224773   7.632   1.739   1.815
 8277TIP3    H124774   7.570   1.665   1.810
 8277TIP3    H224775   7.581   1.815   1.787
 8278TIP3   OH224776   1.341   5.501   0.945
 8278TIP3    H124777   1.274   5.433   0.942
 8278TIP3    H224778   1.342   5.530   1.036
 8279TIP3   OH224779   3.904   5.999   0.299
 8279TIP3    H124780   3.949   5.914   0.302
 8279TIP3    H224781   3.934   6.045   0.378
 8280TIP3   OH224782   6.772   5.918   1.946
 8280TIP3    H124783   6.790   5.825   1.958
 8280TIP3    H224784   6.721   5.942   2.024
 8281TIP3   OH224785   4.949   1.598   2.109
 8281TIP3    H124786   4.887   1.559   2.048
 8281TIP3    H224787   5.029   1.611   2.058
 8282TIP3   OH224788   6.293   5.267   6.408
 8282TIP3    H124789   6.340   5.235   6.331
 8282TIP3    H224790   6.205   5.286   6.376
 8283TIP3   OH224791   6.185   4.096   5.097
 8283TIP3    H124792   6.249   4.072   5.165
 8283TIP3    H224793   6.236   4.096   5.016
 8284TIP3   OH224794   6.378   4.308   0.584
 8284TIP3    H124795   6.452   4.309   0.522
 8284TIP3    H224796   6.400   4.239   0.646
 8285TIP3   OH224797   6.672   4.896   5.671
 8285TIP3    H124798   6.642   4.968   5.727
 8285TIP3    H224799   6.687   4.937   5.586
 8286TIP3   OH224800   1.319   1.804   2.212
 8286TIP3    H124801   1.390   1.747   2.183
 8286TIP3    H224802   1.241   1.769   2.170
 8287TIP3   OH224803   2.271   2.397   6.072
 8287TIP3    H124804   2.353   2.395   6.122
 8287TIP3    H224805   2.289   2.457   5.999
 8288TIP3   OH224806   2.034   7.344   5.657
 8288TIP3    H124807   1.949   7.301   5.666
 8288TIP3    H224808   2.022   7.407   5.586
 8289TIP3   OH224809   1.938   4.874   0.090
 8289TIP3    H124810   1.924   4.933   0.015
 8289TIP3    H224811   2.012   4.912   0.137
 8290TIP3   OH224812   7.209   2.525   2.355
 8290TIP3    H124813   7.169   2.555   2.274
 8290TIP3    H224814   7.190   2.594   2.419
 8291TIP3   OH224815   1.136   7.646   4.640
 8291TIP3    H124816   1.155   7.626   4.548
 8291TIP3    H224817   1.077   7.576   4.668
 8292TIP3   OH224818   3.509   1.491   2.369
 8292TIP3    H124819   3.470   1.421   2.317
 8292TIP3    H224820   3.542   1.447   2.447
 8293TIP3   OH224821   7.277   3.942   1.844
 8293TIP3    H124822   7.291   3.960   1.937
 8293TIP3    H224823   7.281   3.846   1.838
 8294TIP3   OH224824   0.854   2.351   2.465
 8294TIP3    H124825   0.927   2.302   2.502
 8294TIP3    H224826   0.833   2.417   2.532
 8295TIP3   OH224827   4.386   3.428   4.275
 8295TIP3    H124828   4.446   3.374   4.326
 8295TIP3    H224829   4.337   3.478   4.340
 8296TIP3   OH224830   1.060   1.439   5.236
 8296TIP3    H124831   0.984   1.396   5.197
 8296TIP3    H224832   1.059   1.411   5.327
 8297TIP3   OH224833   2.775   2.809   4.206
 8297TIP3    H124834   2.848   2.834   4.148
 8297TIP3    H224835   2.701   2.860   4.175
 8298TIP3   OH224836   3.295   6.467   4.213
 8298TIP3    H124837   3.329   6.546   4.171
 8298TIP3    H224838   3.244   6.499   4.287
 8299TIP3   OH224839   6.947   4.933   4.649
 8299TIP3    H124840   7.031   4.896   4.678
 8299TIP3    H224841   6.950   5.025   4.676
 8300TIP3   OH224842   1.323   5.745   4.124
 8300TIP3    H124843   1.344   5.834   4.151
 8300TIP3    H224844   1.227   5.743   4.122
 8301TIP3   OH224845   5.107   5.724   4.670
 8301TIP3    H124846   5.176   5.670   4.710
 8301TIP3    H224847   5.062   5.764   4.744
 8302TIP3   OH224848   6.948   3.961   6.706
 8302TIP3    H124849   7.040   3.971   6.681
 8302TIP3    H224850   6.928   4.039   6.757
 8303TIP3   OH224851   3.406   7.304   6.074
 8303TIP3    H124852   3.454   7.350   6.005
 8303TIP3    H224853   3.398   7.215   6.041
 8304TIP3   OH224854   7.690   1.009   5.518
 8304TIP3    H124855   7.678   1.099   5.547
 8304TIP3    H224856   7.780   0.988   5.542
 8305TIP3   OH224857   5.610   1.283   2.497
 8305TIP3    H124858   5.645   1.243   2.577
 8305TIP3    H224859   5.688   1.297   2.443
 8306TIP3   OH224860   7.161   6.605   6.208
 8306TIP3    H124861   7.238   6.585   6.154
 8306TIP3    H224862   7.173   6.553   6.287
 8307TIP3   OH224863   8.084   6.685   1.964
 8307TIP3    H124864   8.027   6.640   1.901
 8307TIP3    H224865   8.129   6.614   2.010
 8308TIP3   OH224866   1.190   5.256   5.041
 8308TIP3    H124867   1.192   5.335   5.095
 8308TIP3    H224868   1.174   5.185   5.103
 8309TIP3   OH224869   7.192   1.533   2.576
 8309TIP3    H124870   7.284   1.510   2.565
 8309TIP3    H224871   7.163   1.558   2.489
 8310TIP3   OH224872   1.570   0.059   6.775
 8310TIP3    H124873   1.571   0.089   6.684
 8310TIP3    H224874   1.508  -0.014   6.774
 8311TIP3   OH224875   4.061   4.722   6.430
 8311TIP3    H124876   4.092   4.658   6.367
 8311TIP3    H224877   4.111   4.802   6.411
 8312TIP3   OH224878   6.165   1.080   2.896
 8312TIP3    H124879   6.222   1.142   2.941
 8312TIP3    H224880   6.200   0.994   2.919
 8313TIP3   OH224881   5.470   6.734   4.258
 8313TIP3    H124882   5.438   6.770   4.341
 8313TIP3    H224883   5.454   6.640   4.265
 8314TIP3   OH224884   4.298   6.375   3.612
 8314TIP3    H124885   4.305   6.319   3.535
 8314TIP3    H224886   4.313   6.316   3.686
 8315TIP3   OH224887   0.402   2.843   5.647
 8315TIP3    H124888   0.431   2.805   5.564
 8315TIP3    H224889   0.456   2.799   5.713
 8316TIP3   OH224890   6.128   3.493   6.391
 8316TIP3    H124891   6.085   3.564   6.439
 8316TIP3    H224892   6.128   3.420   6.452
 8317TIP3   OH224893   1.671   0.474   4.515
 8317TIP3    H124894   1.628   0.392   4.490
 8317TIP3    H224895   1.756   0.470   4.472
 8318TIP3   OH224896   1.556   3.026   2.077
 8318TIP3    H124897   1.647   3.029   2.107
 8318TIP3    H224898   1.556   2.963   2.005
 8319TIP3   OH224899   6.831   5.679   0.269
 8319TIP3    H124900   6.850   5.595   0.225
 8319TIP3    H224901   6.887   5.678   0.346
 8320TIP3   OH224902   1.171   7.510   0.500
 8320TIP3    H124903   1.228   7.586   0.516
 8320TIP3    H224904   1.170   7.462   0.582
 8321TIP3   OH224905   4.556   3.196   4.317
 8321TIP3    H124906   4.632   3.209   4.260
 8321TIP3    H224907   4.574   3.251   4.393
 8322TIP3   OH224908   4.842   0.778   3.723
 8322TIP3    H124909   4.767   0.833   3.701
 8322TIP3    H224910   4.910   0.840   3.751
 8323TIP3   OH224911   0.154   1.967   4.237
 8323TIP3    H124912   0.071   1.930   4.206
 8323TIP3    H224913   0.140   2.061   4.237
 8324TIP3   OH224914   6.589   4.670   1.094
 8324TIP3    H124915   6.656   4.734   1.068
 8324TIP3    H224916   6.537   4.716   1.160
 8325TIP3   OH224917   7.524   5.427   1.642
 8325TIP3    H124918   7.548   5.448   1.552
 8325TIP3    H224919   7.453   5.488   1.663
 8326TIP3   OH224920   3.533   0.208   5.672
 8326TIP3    H124921   3.454   0.213   5.727
 8326TIP3    H224922   3.561   0.117   5.680
 8327TIP3   OH224923   4.771   3.575   2.213
 8327TIP3    H124924   4.838   3.620   2.162
 8327TIP3    H224925   4.770   3.486   2.178
 8328TIP3   OH224926   4.716   5.290   3.567
 8328TIP3    H124927   4.696   5.301   3.660
 8328TIP3    H224928   4.715   5.195   3.553
 8329TIP3   OH224929   5.048   1.814   2.418
 8329TIP3    H124930   5.094   1.790   2.338
 8329TIP3    H224931   5.111   1.799   2.488
 8330TIP3   OH224932   0.469   5.719   6.304
 8330TIP3    H124933   0.400   5.681   6.357
 8330TIP3    H224934   0.548   5.713   6.358
 8331TIP3   OH224935   5.719   6.606   6.427
 8331TIP3    H124936   5.751   6.516   6.421
 8331TIP3    H224937   5.665   6.607   6.505
 8332TIP3   OH224938   3.285   6.476   6.705
 8332TIP3    H124939   3.307   6.524   6.625
 8332TIP3    H224940   3.330   6.392   6.696
 8333TIP3   OH224941   7.685   3.709   0.166
 8333TIP3    H124942   7.750   3.639   0.174
 8333TIP3    H224943   7.611   3.668   0.121
 8334TIP3   OH224944   3.586   4.555   1.717
 8334TIP3    H124945   3.584   4.462   1.697
 8334TIP3    H224946   3.495   4.577   1.738
 8335TIP3   OH224947   0.332   1.806   2.566
 8335TIP3    H124948   0.412   1.760   2.590
 8335TIP3    H224949   0.345   1.833   2.476
 8336TIP3   OH224950   0.035   6.194   6.708
 8336TIP3    H124951  -0.026   6.268   6.706
 8336TIP3    H224952   0.110   6.223   6.656
 8337TIP3   OH224953   5.954   3.502   4.822
 8337TIP3    H124954   6.015   3.531   4.889
 8337TIP3    H224955   5.927   3.414   4.850
 8338TIP3   OH224956   2.418   4.709   0.976
 8338TIP3    H124957   2.439   4.734   1.066
 8338TIP3    H224958   2.483   4.641   0.955
 8339TIP3   OH224959   5.781   2.795   0.218
 8339TIP3    H124960   5.849   2.787   0.286
 8339TIP3    H224961   5.723   2.863   0.251
 8340TIP3   OH224962   5.075   3.427   4.507
 8340TIP3    H124963   5.095   3.370   4.432
 8340TIP3    H224964   5.160   3.455   4.539
 8341TIP3   OH224965   2.177   2.551   4.430
 8341TIP3    H124966   2.146   2.620   4.488
 8341TIP3    H224967   2.100   2.526   4.380
 8342TIP3   OH224968   8.166   1.085   4.029
 8342TIP3    H124969   8.155   1.180   4.036
 8342TIP3    H224970   8.089   1.048   4.072
 8343TIP3   OH224971   1.470   3.652   2.329
 8343TIP3    H124972   1.468   3.584   2.262
 8343TIP3    H224973   1.509   3.610   2.405
 8344TIP3   OH224974   0.037   5.912   6.614
 8344TIP3    H124975   0.044   6.002   6.583
 8344TIP3    H224976   0.000   5.920   6.702
 8345TIP3   OH224977   3.584   4.421   3.198
 8345TIP3    H124978   3.491   4.440   3.201
 8345TIP3    H224979   3.592   4.332   3.232
 8346TIP3   OH224980   6.064   2.644   6.017
 8346TIP3    H124981   5.992   2.593   6.053
 8346TIP3    H224982   6.061   2.627   5.923
 8347TIP3   OH224983   2.793   5.146   2.711
 8347TIP3    H124984   2.745   5.210   2.764
 8347TIP3    H224985   2.872   5.127   2.762
 8348TIP3   OH224986   5.110   1.971   5.377
 8348TIP3    H124987   5.121   1.878   5.358
 8348TIP3    H224988   5.133   2.016   5.296
 8349TIP3   OH224989   6.866   4.023   4.072
 8349TIP3    H124990   6.801   3.981   4.128
 8349TIP3    H224991   6.933   4.056   4.132
 8350TIP3   OH224992   1.335   2.468   0.770
 8350TIP3    H124993   1.332   2.373   0.759
 8350TIP3    H224994   1.429   2.488   0.776
 8351TIP3   OH224995   2.813   3.116   3.090
 8351TIP3    H124996   2.876   3.096   3.160
 8351TIP3    H224997   2.862   3.104   3.009
 8352TIP3   OH224998   2.382   1.344   0.796
 8352TIP3    H124999   2.339   1.259   0.805
 8352TIP3    H225000   2.409   1.367   0.885
 8353TIP3   OH225001   7.170   5.089   2.291
 8353TIP3    H125002   7.221   5.158   2.249
 8353TIP3    H225003   7.233   5.018   2.303
 8354TIP3   OH225004   0.881   4.460   1.143
 8354TIP3    H125005   0.816   4.406   1.187
 8354TIP3    H225006   0.866   4.446   1.049
 8355TIP3   OH225007   3.923   7.602   4.455
 8355TIP3    H125008   3.974   7.656   4.516
 8355TIP3    H225009   3.943   7.512   4.481
 8356TIP3   OH225010   1.973   3.596   1.873
 8356TIP3    H125011   1.895   3.642   1.903
 8356TIP3    H225012   1.952   3.503   1.883
 8357TIP3   OH225013   6.464   2.773   5.627
 8357TIP3    H125014   6.506   2.834   5.566
 8357TIP3    H225015   6.431   2.703   5.571
 8358TIP3   OH225016   3.698   5.618   3.577
 8358TIP3    H125017   3.703   5.621   3.673
 8358TIP3    H225018   3.760   5.685   3.548
 8359TIP3   OH225019   5.504   2.990   6.759
 8359TIP3    H125020   5.494   2.951   6.846
 8359TIP3    H225021   5.475   3.080   6.770
 8360TIP3   OH225022   0.643   4.410   0.483
 8360TIP3    H125023   0.693   4.426   0.403
 8360TIP3    H225024   0.575   4.478   0.483
 8361TIP3   OH225025   6.753   7.753   5.258
 8361TIP3    H125026   6.696   7.692   5.305
 8361TIP3    H225027   6.720   7.753   5.168
 8362TIP3   OH225028   7.932   2.721   1.947
 8362TIP3    H125029   8.019   2.757   1.933
 8362TIP3    H225030   7.923   2.716   2.042
 8363TIP3   OH225031   4.094   1.592   0.121
 8363TIP3    H125032   4.100   1.687   0.130
 8363TIP3    H225033   4.107   1.575   0.027
 8364TIP3   OH225034   3.271   5.907   6.060
 8364TIP3    H125035   3.201   5.973   6.059
 8364TIP3    H225036   3.227   5.825   6.036
 8365TIP3   OH225037   6.432   2.538   3.956
 8365TIP3    H125038   6.521   2.505   3.941
 8365TIP3    H225039   6.383   2.510   3.879
 8366TIP3   OH225040   3.856   1.161   0.699
 8366TIP3    H125041   3.937   1.181   0.652
 8366TIP3    H225042   3.807   1.243   0.697
 8367TIP3   OH225043   4.477   5.414   3.250
 8367TIP3    H125044   4.487   5.362   3.330
 8367TIP3    H225045   4.400   5.468   3.266
 8368TIP3   OH225046   0.021   5.505   2.572
 8368TIP3    H125047   0.052   5.508   2.481
 8368TIP3    H225048   0.087   5.555   2.621
 8369TIP3   OH225049   2.286   2.573   3.113
 8369TIP3    H125050   2.302   2.579   3.018
 8369TIP3    H225051   2.263   2.482   3.127
 8370TIP3   OH225052   8.238   3.599   4.681
 8370TIP3    H125053   8.225   3.512   4.717
 8370TIP3    H225054   8.215   3.591   4.589
 8371TIP3   OH225055   5.957   5.690   1.466
 8371TIP3    H125056   5.864   5.705   1.446
 8371TIP3    H225057   6.004   5.721   1.389
 8372TIP3   OH225058   5.965   2.039   1.198
 8372TIP3    H125059   6.047   2.088   1.208
 8372TIP3    H225060   5.901   2.105   1.172
 8373TIP3   OH225061   7.021   3.117   1.072
 8373TIP3    H125062   7.031   3.171   1.151
 8373TIP3    H225063   6.933   3.140   1.039
 8374TIP3   OH225064   7.762   0.497   3.201
 8374TIP3    H125065   7.690   0.508   3.263
 8374TIP3    H225066   7.841   0.514   3.252
 8375TIP3   OH225067   7.621   4.330   3.244
 8375TIP3    H125068   7.556   4.397   3.261
 8375TIP3    H225069   7.599   4.259   3.304
 8376TIP3   OH225070   8.008   0.588   2.552
 8376TIP3    H125071   8.091   0.540   2.553
 8376TIP3    H225072   8.003   0.629   2.638
 8377TIP3   OH225073   0.754   4.874   4.217
 8377TIP3    H125074   0.687   4.849   4.153
 8377TIP3    H225075   0.739   4.815   4.291
 8378TIP3   OH225076   2.891  -0.036   0.465
 8378TIP3    H125077   2.963  -0.077   0.513
 8378TIP3    H225078   2.934   0.020   0.400
 8379TIP3   OH225079   5.228   5.279   0.118
 8379TIP3    H125080   5.319   5.287   0.088
 8379TIP3    H225081   5.201   5.369   0.135
 8380TIP3   OH225082   6.895   1.932   3.584
 8380TIP3    H125083   6.972   1.982   3.613
 8380TIP3    H225084   6.857   1.987   3.515
 8381TIP3   OH225085   6.889   3.708   0.316
 8381TIP3    H125086   6.869   3.621   0.283
 8381TIP3    H225087   6.909   3.695   0.409
 8382TIP3   OH225088   5.136   6.514   1.906
 8382TIP3    H125089   5.124   6.585   1.970
 8382TIP3    H225090   5.122   6.434   1.956
 8383TIP3   OH225091   2.138   2.503   1.680
 8383TIP3    H125092   2.155   2.507   1.775
 8383TIP3    H225093   2.182   2.423   1.651
 8384TIP3   OH225094   1.252   6.079   4.745
 8384TIP3    H125095   1.225   5.987   4.739
 8384TIP3    H225096   1.198   6.124   4.679
 8385TIP3   OH225097   2.581   4.522   1.680
 8385TIP3    H125098   2.513   4.560   1.736
 8385TIP3    H225099   2.559   4.551   1.592
 8386TIP3   OH225100   4.513   4.085   4.600
 8386TIP3    H125101   4.608   4.086   4.613
 8386TIP3    H225102   4.490   3.992   4.597
 8387TIP3   OH225103   2.313   1.237   3.117
 8387TIP3    H125104   2.257   1.242   3.195
 8387TIP3    H225105   2.388   1.184   3.144
 8388TIP3   OH225106   0.897   1.167   4.671
 8388TIP3    H125107   0.925   1.085   4.711
 8388TIP3    H225108   0.808   1.180   4.703
 8389TIP3   OH225109   1.634   4.193   4.811
 8389TIP3    H125110   1.612   4.101   4.790
 8389TIP3    H225111   1.713   4.187   4.864
 8390TIP3   OH225112   2.085   2.019   5.155
 8390TIP3    H125113   2.109   2.067   5.076
 8390TIP3    H225114   2.155   1.955   5.165
 8391TIP3   OH225115   5.844   7.323   5.271
 8391TIP3    H125116   5.910   7.389   5.291
 8391TIP3    H225117   5.858   7.254   5.336
 8392TIP3   OH225118   3.991   0.707   2.975
 8392TIP3    H125119   4.071   0.757   2.959
 8392TIP3    H225120   4.002   0.628   2.920
 8393TIP3   OH225121   7.623   2.057   0.869
 8393TIP3    H125122   7.603   2.131   0.811
 8393TIP3    H225123   7.718   2.057   0.876
 8394TIP3   OH225124   1.591   2.284   3.386
 8394TIP3    H125125   1.674   2.245   3.415
 8394TIP3    H225126   1.568   2.235   3.307
 8395TIP3   OH225127   7.882   4.213   0.092
 8395TIP3    H125128   7.841   4.279   0.037
 8395TIP3    H225129   7.926   4.154   0.031
 8396TIP3   OH225130   1.272   2.678   4.642
 8396TIP3    H125131   1.317   2.668   4.558
 8396TIP3    H225132   1.289   2.596   4.688
 8397TIP3   OH225133   3.266   0.048   0.729
 8397TIP3    H125134   3.290  -0.016   0.796
 8397TIP3    H225135   3.205   0.107   0.773
 8398TIP3   OH225136   7.380   0.552   4.965
 8398TIP3    H125137   7.437   0.518   5.034
 8398TIP3    H225138   7.406   0.505   4.886
 8399TIP3   OH225139   4.676   4.380   3.840
 8399TIP3    H125140   4.644   4.345   3.923
 8399TIP3    H225141   4.609   4.354   3.776
 8400TIP3   OH225142   7.447   6.939   3.253
 8400TIP3    H125143   7.476   6.971   3.338
 8400TIP3    H225144   7.378   6.875   3.274
 8401TIP3   OH225145   0.375   3.225   5.362
 8401TIP3    H125146   0.464   3.252   5.386
 8401TIP3    H225147   0.345   3.172   5.436
 8402TIP3   OH225148   7.826   5.000   6.388
 8402TIP3    H125149   7.734   4.976   6.381
 8402TIP3    H225150   7.825   5.096   6.391
 8403TIP3   OH225151   0.835   4.947   0.508
 8403TIP3    H125152   0.801   4.994   0.584
 8403TIP3    H225153   0.767   4.956   0.442
 8404TIP3   OH225154   6.588   4.083   5.377
 8404TIP3    H125155   6.678   4.075   5.409
 8404TIP3    H225156   6.580   4.174   5.349
 8405TIP3   OH225157   7.884   0.871   0.786
 8405TIP3    H125158   7.879   0.798   0.724
 8405TIP3    H225159   7.897   0.948   0.731
 8406TIP3   OH225160   4.666   5.513   1.436
 8406TIP3    H125161   4.577   5.482   1.447
 8406TIP3    H225162   4.659   5.585   1.374
 8407TIP3   OH225163   0.654   5.034   1.551
 8407TIP3    H125164   0.667   5.003   1.462
 8407TIP3    H225165   0.628   4.957   1.601
 8408TIP3   OH225166   7.983   1.222   0.910
 8408TIP3    H125167   8.054   1.283   0.928
 8408TIP3    H225168   8.004   1.144   0.961
 8409TIP3   OH225169   5.941   4.214   6.201
 8409TIP3    H125170   5.856   4.204   6.244
 8409TIP3    H225171   5.922   4.202   6.108
 8410TIP3   OH225172   7.172   5.206   0.069
 8410TIP3    H125173   7.147   5.209   0.162
 8410TIP3    H225174   7.164   5.113   0.046
 8411TIP3   OH225175   2.264   7.219   5.606
 8411TIP3    H125176   2.328   7.283   5.575
 8411TIP3    H225177   2.184   7.271   5.620
 8412TIP3   OH225178   6.595   2.945   2.809
 8412TIP3    H125179   6.624   2.911   2.724
 8412TIP3    H225180   6.659   3.012   2.832
 8413TIP3   OH225181   5.509   3.235   0.742
 8413TIP3    H125182   5.531   3.151   0.782
 8413TIP3    H225183   5.583   3.255   0.684
 8414TIP3   OH225184   5.541   1.631   3.823
 8414TIP3    H125185   5.471   1.579   3.861
 8414TIP3    H225186   5.528   1.719   3.859
 8415TIP3   OH225187   5.807   1.009   3.420
 8415TIP3    H125188   5.794   1.061   3.500
 8415TIP3    H225189   5.885   1.047   3.379
 8416TIP3   OH225190   7.378   1.588   3.429
 8416TIP3    H125191   7.291   1.629   3.428
 8416TIP3    H225192   7.402   1.585   3.522
 8417TIP3   OH225193   8.003   4.853   2.988
 8417TIP3    H125194   8.088   4.830   2.951
 8417TIP3    H225195   8.019   4.933   3.038
 8418TIP3   OH225196   7.047   3.681   4.507
 8418TIP3    H125197   7.050   3.767   4.466
 8418TIP3    H225198   6.955   3.654   4.500
 8419TIP3   OH225199   8.117  -0.013   4.474
 8419TIP3    H125200   8.158   0.073   4.484
 8419TIP3    H225201   8.052   0.000   4.404
 8420TIP3   OH225202   6.575   4.356   3.292
 8420TIP3    H125203   6.491   4.380   3.330
 8420TIP3    H225204   6.610   4.290   3.353
 8421TIP3   OH225205   2.817   2.799   0.170
 8421TIP3    H125206   2.747   2.833   0.226
 8421TIP3    H225207   2.859   2.877   0.133
 8422TIP3   OH225208   6.785   6.403   4.688
 8422TIP3    H125209   6.834   6.321   4.691
 8422TIP3    H225210   6.830   6.460   4.749
 8423TIP3   OH225211   1.549   0.534   3.868
 8423TIP3    H125212   1.520   0.618   3.904
 8423TIP3    H225213   1.628   0.555   3.818
 8424TIP3   OH225214   3.929   7.046   3.270
 8424TIP3    H125215   3.941   6.972   3.210
 8424TIP3    H225216   3.834   7.059   3.273
 8425TIP3   OH225217   1.675   6.948   2.335
 8425TIP3    H125218   1.654   6.857   2.356
 8425TIP3    H225219   1.674   6.951   2.239
 8426TIP3   OH225220   2.559   2.601   2.242
 8426TIP3    H125221   2.654   2.610   2.245
 8426TIP3    H225222   2.529   2.678   2.194
 8427TIP3   OH225223   5.770   6.650   5.773
 8427TIP3    H125224   5.747   6.562   5.803
 8427TIP3    H225225   5.687   6.696   5.768
 8428TIP3   OH225226   7.156   2.855   6.194
 8428TIP3    H125227   7.066   2.823   6.183
 8428TIP3    H225228   7.193   2.800   6.263
 8429TIP3   OH225229   5.453   2.618   1.797
 8429TIP3    H125230   5.489   2.693   1.749
 8429TIP3    H225231   5.509   2.544   1.773
 8430TIP3   OH225232   1.670   5.035   1.370
 8430TIP3    H125233   1.668   4.964   1.306
 8430TIP3    H225234   1.612   5.006   1.440
 8431TIP3   OH225235   6.326   0.711   4.593
 8431TIP3    H125236   6.407   0.661   4.607
 8431TIP3    H225237   6.260   0.644   4.576
 8432TIP3   OH225238   5.719   5.102   2.199
 8432TIP3    H125239   5.792   5.158   2.223
 8432TIP3    H225240   5.747   5.057   2.119
 8433TIP3   OH225241   8.126   3.803   3.760
 8433TIP3    H125242   8.104   3.890   3.727
 8433TIP3    H225243   8.222   3.800   3.755
 8434TIP3   OH225244   5.885   0.381   2.009
 8434TIP3    H125245   5.887   0.465   2.055
 8434TIP3    H225246   5.902   0.404   1.917
 8435TIP3   OH225247   3.503   5.363   3.642
 8435TIP3    H125248   3.576   5.361   3.581
 8435TIP3    H225249   3.425   5.352   3.587
 8436TIP3   OH225250   6.818   6.450   3.000
 8436TIP3    H125251   6.771   6.528   3.029
 8436TIP3    H225252   6.904   6.457   3.042
 8437TIP3   OH225253   4.775   6.420   4.061
 8437TIP3    H125254   4.709   6.392   3.998
 8437TIP3    H225255   4.725   6.461   4.132
 8438TIP3   OH225256   0.484   4.853   2.007
 8438TIP3    H125257   0.542   4.916   2.050
 8438TIP3    H225258   0.530   4.830   1.927
 8439TIP3   OH225259   5.115   5.524   0.123
 8439TIP3    H125260   5.159   5.608   0.134
 8439TIP3    H225261   5.022   5.546   0.122
 8440TIP3   OH225262   6.273   4.518   0.752
 8440TIP3    H125263   6.332   4.451   0.719
 8440TIP3    H225264   6.298   4.598   0.705
 8441TIP3   OH225265   1.154   6.972   4.148
 8441TIP3    H125266   1.112   7.057   4.157
 8441TIP3    H225267   1.229   6.988   4.090
 8442TIP3   OH225268   1.071   2.709   0.173
 8442TIP3    H125269   1.122   2.630   0.193
 8442TIP3    H225270   0.982   2.677   0.157
 8443TIP3   OH225271   7.993   2.940   0.546
 8443TIP3    H125272   7.947   3.024   0.554
 8443TIP3    H225273   7.988   2.919   0.452
 8444TIP3   OH225274   3.772   1.251   1.572
 8444TIP3    H125275   3.818   1.234   1.654
 8444TIP3    H225276   3.686   1.284   1.599
 8445TIP3   OH225277   1.474   1.779   0.190
 8445TIP3    H125278   1.499   1.693   0.223
 8445TIP3    H225279   1.398   1.763   0.134
 8446TIP3   OH225280   6.012   3.256   3.533
 8446TIP3    H125281   5.940   3.227   3.478
 8446TIP3    H225282   5.983   3.340   3.569
 8447TIP3   OH225283   6.653   3.809   3.866
 8447TIP3    H125284   6.732   3.823   3.814
 8447TIP3    H225285   6.634   3.894   3.905
 8448TIP3   OH225286   5.145   5.011   6.348
 8448TIP3    H125287   5.065   5.050   6.382
 8448TIP3    H225288   5.150   4.925   6.390
 8449TIP3   OH225289   1.054   4.940   4.951
 8449TIP3    H125290   1.123   4.929   5.016
 8449TIP3    H225291   1.099   4.935   4.866
 8450TIP3   OH225292   0.892   4.078   3.441
 8450TIP3    H125293   0.816   4.124   3.405
 8450TIP3    H225294   0.907   4.118   3.526
 8451TIP3   OH225295   3.886   5.600   5.764
 8451TIP3    H125296   3.852   5.656   5.694
 8451TIP3    H225297   3.961   5.649   5.799
 8452TIP3   OH225298   7.229   6.029   0.027
 8452TIP3    H125299   7.193   5.944   0.050
 8452TIP3    H225300   7.202   6.087   0.099
 8453TIP3   OH225301   0.107   5.928   1.698
 8453TIP3    H125302   0.143   6.012   1.668
 8453TIP3    H225303   0.012   5.940   1.693
 8454TIP3   OH225304   0.483   7.399   6.493
 8454TIP3    H125305   0.464   7.485   6.457
 8454TIP3    H225306   0.551   7.363   6.434
 8455TIP3   OH225307   3.689   2.267   1.687
 8455TIP3    H125308   3.776   2.306   1.675
 8455TIP3    H225309   3.699   2.176   1.658
 8456TIP3   OH225310   0.335   2.611   3.856
 8456TIP3    H125311   0.371   2.524   3.836
 8456TIP3    H225312   0.408   2.671   3.841
 8457TIP3   OH225313   6.596   6.293   5.685
 8457TIP3    H125314   6.635   6.310   5.599
 8457TIP3    H225315   6.502   6.289   5.668
 8458TIP3   OH225316   1.244   6.951   3.653
 8458TIP3    H125317   1.223   6.887   3.720
 8458TIP3    H225318   1.228   6.906   3.570
 8459TIP3   OH225319   0.310   1.198   2.379
 8459TIP3    H125320   0.245   1.265   2.356
 8459TIP3    H225321   0.258   1.119   2.396
 8460TIP3   OH225322   6.145   1.304   6.001
 8460TIP3    H125323   6.202   1.311   5.924
 8460TIP3    H225324   6.201   1.329   6.075
 8461TIP3   OH225325   0.645   0.551   2.103
 8461TIP3    H125326   0.703   0.609   2.053
 8461TIP3    H225327   0.597   0.610   2.162
 8462TIP3   OH225328   4.659   3.580   3.995
 8462TIP3    H125329   4.672   3.591   4.090
 8462TIP3    H225330   4.695   3.660   3.957
 8463TIP3   OH225331   6.651   0.194   6.093
 8463TIP3    H125332   6.564   0.176   6.130
 8463TIP3    H225333   6.710   0.137   6.142
 8464TIP3   OH225334   5.706   0.697   6.094
 8464TIP3    H125335   5.778   0.635   6.099
 8464TIP3    H225336   5.747   0.783   6.102
 8465TIP3   OH225337   4.173   3.334   4.142
 8465TIP3    H125338   4.245   3.363   4.198
 8465TIP3    H225339   4.213   3.319   4.057
 8466TIP3   OH225340   0.478   6.912   2.215
 8466TIP3    H125341   0.474   6.983   2.279
 8466TIP3    H225342   0.445   6.836   2.261
 8467TIP3   OH225343   5.702   1.474   0.578
 8467TIP3    H125344   5.681   1.472   0.485
 8467TIP3    H225345   5.632   1.424   0.620
 8468TIP3   OH225346   2.568   4.361   2.219
 8468TIP3    H125347   2.548   4.271   2.194
 8468TIP3    H225348   2.533   4.414   2.147
 8469TIP3   OH225349   2.062   7.183   6.595
 8469TIP3    H125350   2.026   7.104   6.635
 8469TIP3    H225351   2.058   7.249   6.665
 8470TIP3   OH225352   3.983   4.928   1.372
 8470TIP3    H125353   4.072   4.912   1.403
 8470TIP3    H225354   3.945   4.840   1.363
 8471TIP3   OH225355   0.443   7.376   3.155
 8471TIP3    H125356   0.523   7.328   3.176
 8471TIP3    H225357   0.441   7.379   3.060
 8472TIP3   OH225358   7.020   2.702   2.226
 8472TIP3    H125359   6.991   2.760   2.155
 8472TIP3    H225360   6.962   2.724   2.300
 8473TIP3   OH225361   0.632   2.941   0.223
 8473TIP3    H125362   0.573   2.997   0.274
 8473TIP3    H225363   0.714   2.941   0.273
 8474TIP3   OH225364   5.735   5.024   0.326
 8474TIP3    H125365   5.706   5.073   0.403
 8474TIP3    H225366   5.773   4.944   0.362
 8475TIP3   OH225367   7.371   1.397   2.395
 8475TIP3    H125368   7.364   1.368   2.304
 8475TIP3    H225369   7.433   1.469   2.393
 8476TIP3   OH225370   5.834   6.309   6.672
 8476TIP3    H125371   5.902   6.259   6.717
 8476TIP3    H225372   5.796   6.364   6.739
 8477TIP3   OH225373   7.070   1.370   6.578
 8477TIP3    H125374   7.118   1.404   6.653
 8477TIP3    H225375   7.133   1.316   6.531
 8478TIP3   OH225376   6.659   3.165   4.905
 8478TIP3    H125377   6.713   3.086   4.915
 8478TIP3    H225378   6.723   3.236   4.897
 8479TIP3   OH225379   5.863   5.437   4.401
 8479TIP3    H125380   5.894   5.470   4.486
 8479TIP3    H225381   5.810   5.508   4.366
 8480TIP3   OH225382   3.908   1.360   5.578
 8480TIP3    H125383   3.906   1.265   5.567
 8480TIP3    H225384   3.983   1.389   5.525
 8481TIP3   OH225385   1.350   5.219   4.360
 8481TIP3    H125386   1.303   5.170   4.293
 8481TIP3    H225387   1.283   5.244   4.424
 8482TIP3   OH225388   4.835   1.177   2.830
 8482TIP3    H125389   4.814   1.117   2.901
 8482TIP3    H225390   4.908   1.135   2.783
 8483TIP3   OH225391   7.196   2.765   0.174
 8483TIP3    H125392   7.284   2.737   0.149
 8483TIP3    H225393   7.138   2.716   0.116
 8484TIP3   OH225394   4.187   6.938   0.490
 8484TIP3    H125395   4.251   6.938   0.419
 8484TIP3    H225396   4.205   7.018   0.539
 8485TIP3   OH225397   4.159   6.945   5.083
 8485TIP3    H125398   4.212   6.866   5.076
 8485TIP3    H225399   4.086   6.920   5.139
 8486TIP3   OH225400   7.191   2.495   3.945
 8486TIP3    H125401   7.261   2.494   4.010
 8486TIP3    H225402   7.137   2.571   3.969
 8487TIP3   OH225403   7.488   3.958   5.509
 8487TIP3    H125404   7.505   4.044   5.469
 8487TIP3    H225405   7.525   3.966   5.597
 8488TIP3   OH225406   8.255   6.585   6.020
 8488TIP3    H125407   8.173   6.624   6.050
 8488TIP3    H225408   8.228   6.503   5.978
 8489TIP3   OH225409   8.129   5.254   6.594
 8489TIP3    H125410   8.055   5.209   6.633
 8489TIP3    H225411   8.165   5.191   6.530
 8490TIP3   OH225412   2.050   0.412   5.767
 8490TIP3    H125413   2.034   0.331   5.816
 8490TIP3    H225414   2.061   0.384   5.677
 8491TIP3   OH225415   4.314   5.177   1.221
 8491TIP3    H125416   4.390   5.211   1.269
 8491TIP3    H225417   4.253   5.251   1.217
 8492TIP3   OH225418   1.616   6.794   2.731
 8492TIP3    H125419   1.531   6.823   2.765
 8492TIP3    H225420   1.594   6.722   2.672
 8493TIP3   OH225421   6.887   2.855   5.221
 8493TIP3    H125422   6.864   2.771   5.261
 8493TIP3    H225423   6.920   2.908   5.293
 8494TIP3   OH225424   3.383   3.701   3.138
 8494TIP3    H125425   3.323   3.632   3.112
 8494TIP3    H225426   3.420   3.671   3.221
 8495TIP3   OH225427   0.937   3.217   5.497
 8495TIP3    H125428   0.980   3.131   5.505
 8495TIP3    H225429   0.969   3.267   5.572
 8496TIP3   OH225430   5.783   4.372   0.424
 8496TIP3    H125431   5.804   4.292   0.376
 8496TIP3    H225432   5.818   4.357   0.512
 8497TIP3   OH225433   4.443   2.998   5.819
 8497TIP3    H125434   4.349   2.987   5.814
 8497TIP3    H225435   4.479   2.934   5.757
 8498TIP3   OH225436   1.335   3.058   2.931
 8498TIP3    H125437   1.406   3.012   2.975
 8498TIP3    H225438   1.274   3.081   3.000
 8499TIP3   OH225439   6.559   6.086   1.469
 8499TIP3    H125440   6.629   6.049   1.523
 8499TIP3    H225441   6.487   6.023   1.477
 8500TIP3   OH225442   3.741   6.709   1.757
 8500TIP3    H125443   3.776   6.788   1.714
 8500TIP3    H225444   3.812   6.679   1.813
 8501TIP3   OH225445   4.016   1.631   4.855
 8501TIP3    H125446   4.056   1.690   4.791
 8501TIP3    H225447   3.947   1.683   4.895
 8502TIP3   OH225448   4.061   4.002   0.254
 8502TIP3    H125449   4.003   4.061   0.302
 8502TIP3    H225450   4.017   3.987   0.171
 8503TIP3   OH225451   7.719   6.860   2.923
 8503TIP3    H125452   7.685   6.773   2.945
 8503TIP3    H225453   7.735   6.901   3.008
 8504TIP3   OH225454   0.040   4.672   3.666
 8504TIP3    H125455   0.095   4.728   3.720
 8504TIP3    H225456  -0.046   4.715   3.667
 8505TIP3   OH225457   1.970   3.724   1.602
 8505TIP3    H125458   2.019   3.655   1.557
 8505TIP3    H225459   1.918   3.678   1.668
 8506TIP3   OH225460   0.869   4.094   6.101
 8506TIP3    H125461   0.867   4.006   6.063
 8506TIP3    H225462   0.777   4.112   6.123
 8507TIP3   OH225463   0.690   1.736   3.699
 8507TIP3    H125464   0.651   1.705   3.618
 8507TIP3    H225465   0.753   1.668   3.723
 8508TIP3   OH225466   4.144   5.287   0.379
 8508TIP3    H125467   4.152   5.305   0.285
 8508TIP3    H225468   4.187   5.361   0.421
 8509TIP3   OH225469   0.877   2.337   4.329
 8509TIP3    H125470   0.968   2.320   4.352
 8509TIP3    H225471   0.874   2.332   4.234
 8510TIP3   OH225472   7.529   1.116   0.689
 8510TIP3    H125473   7.586   1.189   0.666
 8510TIP3    H225474   7.569   1.080   0.768
 8511TIP3   OH225475   0.233   5.334   0.229
 8511TIP3    H125476   0.224   5.302   0.319
 8511TIP3    H225477   0.326   5.356   0.220
 8512TIP3   OH225478   5.985   6.400   2.242
 8512TIP3    H125479   5.895   6.371   2.230
 8512TIP3    H225480   5.993   6.416   2.336
 8513TIP3   OH225481   0.543   6.578   4.449
 8513TIP3    H125482   0.583   6.517   4.387
 8513TIP3    H225483   0.544   6.662   4.403
 8514TIP3   OH225484   0.132   1.396   2.926
 8514TIP3    H125485   0.065   1.372   2.990
 8514TIP3    H225486   0.097   1.475   2.883
 8515TIP3   OH225487   8.184   5.725   1.824
 8515TIP3    H125488   8.131   5.738   1.903
 8515TIP3    H225489   8.138   5.774   1.756
 8516TIP3   OH225490   2.738   0.035   3.374
 8516TIP3    H125491   2.811   0.086   3.410
 8516TIP3    H225492   2.740   0.055   3.280
 8517TIP3   OH225493   6.767   5.147   3.231
 8517TIP3    H125494   6.824   5.073   3.211
 8517TIP3    H225495   6.685   5.107   3.259
 8518TIP3   OH225496   4.679   3.280   0.854
 8518TIP3    H125497   4.599   3.322   0.823
 8518TIP3    H225498   4.666   3.269   0.948
 8519TIP3   OH225499   3.892   3.928   5.479
 8519TIP3    H125500   3.836   3.916   5.556
 8519TIP3    H225501   3.835   3.969   5.414
 8520TIP3   OH225502   1.556   7.278  -0.010
 8520TIP3    H125503   1.610   7.200  -0.026
 8520TIP3    H225504   1.546   7.280   0.086
 8521TIP3   OH225505   6.537   7.271   0.478
 8521TIP3    H125506   6.627   7.277   0.446
 8521TIP3    H225507   6.546   7.245   0.569
 8522TIP3   OH225508   8.261   4.771   5.987
 8522TIP3    H125509   8.339   4.823   5.966
 8522TIP3    H225510   8.188   4.830   5.967
 8523TIP3   OH225511   1.475   3.307   3.051
 8523TIP3    H125512   1.402   3.288   3.109
 8523TIP3    H225513   1.553   3.292   3.104
 8524TIP3   OH225514   0.196   5.420   6.580
 8524TIP3    H125515   0.110   5.416   6.540
 8524TIP3    H225516   0.179   5.426   6.674
 8525TIP3   OH225517   6.445   3.742   3.244
 8525TIP3    H125518   6.407   3.655   3.258
 8525TIP3    H225519   6.469   3.743   3.151
 8526TIP3   OH225520   4.144   4.715   3.894
 8526TIP3    H125521   4.103   4.796   3.922
 8526TIP3    H225522   4.238   4.731   3.904
 8527TIP3   OH225523   5.823   5.524   3.325
 8527TIP3    H125524   5.853   5.596   3.270
 8527TIP3    H225525   5.743   5.493   3.282
 8528TIP3   OH225526   5.353   0.843   0.998
 8528TIP3    H125527   5.275   0.897   0.986
 8528TIP3    H225528   5.319   0.754   1.012
 8529TIP3   OH225529   5.759   0.760   1.327
 8529TIP3    H125530   5.740   0.838   1.379
 8529TIP3    H225531   5.817   0.791   1.257
 8530TIP3   OH225532   6.905   5.017   3.478
 8530TIP3    H125533   6.813   4.992   3.484
 8530TIP3    H225534   6.914   5.091   3.538
 8531TIP3   OH225535   2.466   3.027   4.177
 8531TIP3    H125536   2.418   2.951   4.210
 8531TIP3    H225537   2.503   2.998   4.094
 8532TIP3   OH225538   5.374   5.635   5.648
 8532TIP3    H125539   5.345   5.683   5.570
 8532TIP3    H225540   5.333   5.680   5.721
 8533TIP3   OH225541   4.951   7.419   5.413
 8533TIP3    H125542   5.034   7.394   5.373
 8533TIP3    H225543   4.889   7.352   5.382
 8534TIP3   OH225544   4.934   7.598   3.299
 8534TIP3    H125545   4.937   7.548   3.217
 8534TIP3    H225546   4.937   7.531   3.368
 8535TIP3   OH225547   2.582   1.880   4.531
 8535TIP3    H125548   2.566   1.902   4.439
 8535TIP3    H225549   2.543   1.953   4.580
 8536TIP3   OH225550   3.153   0.216   0.890
 8536TIP3    H125551   3.146   0.311   0.896
 8536TIP3    H225552   3.062   0.185   0.885
 8537TIP3   OH225553   6.828   2.649   0.504
 8537TIP3    H125554   6.798   2.721   0.448
 8537TIP3    H225555   6.897   2.606   0.452
 8538TIP3   OH225556   1.595   7.393   1.919
 8538TIP3    H125557   1.533   7.320   1.919
 8538TIP3    H225558   1.657   7.371   1.989
 8539TIP3   OH225559   5.933   0.906   2.963
 8539TIP3    H125560   5.996   0.977   2.950
 8539TIP3    H225561   5.921   0.902   3.058
 8540TIP3   OH225562   4.856   7.401   4.361
 8540TIP3    H125563   4.905   7.325   4.330
 8540TIP3    H225564   4.915   7.475   4.346
 8541TIP3   OH225565   1.466   2.505   4.093
 8541TIP3    H125566   1.370   2.500   4.090
 8541TIP3    H225567   1.487   2.586   4.047
 8542TIP3   OH225568   1.397   0.637   5.995
 8542TIP3    H125569   1.471   0.582   5.969
 8542TIP3    H225570   1.433   0.698   6.060
 8543TIP3   OH225571   5.831   5.469   5.532
 8543TIP3    H125572   5.738   5.465   5.553
 8543TIP3    H225573   5.873   5.413   5.597
 8544TIP3   OH225574   1.860   3.083   5.234
 8544TIP3    H125575   1.871   2.993   5.203
 8544TIP3    H225576   1.914   3.089   5.313
 8545TIP3   OH225577   2.179   6.726   4.900
 8545TIP3    H125578   2.250   6.762   4.953
 8545TIP3    H225579   2.110   6.706   4.963
 8546TIP3   OH225580   5.436   7.474   3.792
 8546TIP3    H125581   5.374   7.421   3.742
 8546TIP3    H225582   5.475   7.533   3.727
 8547TIP3   OH225583   7.801   1.834   0.311
 8547TIP3    H125584   7.724   1.878   0.275
 8547TIP3    H225585   7.790   1.838   0.405
 8548TIP3   OH225586   5.693   1.763   5.778
 8548TIP3    H125587   5.604   1.732   5.759
 8548TIP3    H225588   5.749   1.687   5.764
 8549TIP3   OH225589   0.315   7.253   1.560
 8549TIP3    H125590   0.282   7.342   1.573
 8549TIP3    H225591   0.258   7.198   1.613
 8550TIP3   OH225592   1.289   0.609   6.404
 8550TIP3    H125593   1.348   0.552   6.355
 8550TIP3    H225594   1.344   0.680   6.435
 8551TIP3   OH225595   1.498   4.767   3.071
 8551TIP3    H125596   1.570   4.794   3.014
 8551TIP3    H225597   1.471   4.682   3.036
 8552TIP3   OH225598   3.522   5.884   4.941
 8552TIP3    H125599   3.476   5.828   5.004
 8552TIP3    H225600   3.459   5.896   4.870
 8553TIP3   OH225601   1.084   6.748   0.401
 8553TIP3    H125602   1.139   6.687   0.352
 8553TIP3    H225603   1.133   6.831   0.400
 8554TIP3   OH225604   4.955   0.616   2.455
 8554TIP3    H125605   5.040   0.597   2.415
 8554TIP3    H225606   4.977   0.655   2.540
 8555TIP3   OH225607   1.595   7.664   0.867
 8555TIP3    H125608   1.626   7.578   0.894
 8555TIP3    H225609   1.662   7.695   0.807
 8556TIP3   OH225610   7.873   1.051   1.300
 8556TIP3    H125611   7.846   1.008   1.381
 8556TIP3    H225612   7.870   0.982   1.233
 8557TIP3   OH225613   4.277   3.541   2.596
 8557TIP3    H125614   4.332   3.570   2.669
 8557TIP3    H225615   4.334   3.487   2.542
 8558TIP3   OH225616   3.940   1.091   5.858
 8558TIP3    H125617   3.921   1.185   5.863
 8558TIP3    H225618   3.859   1.051   5.828
 8559TIP3   OH225619   2.967   6.135   5.784
 8559TIP3    H125620   2.944   6.046   5.757
 8559TIP3    H225621   2.896   6.161   5.843
 8560TIP3   OH225622   5.358   6.597   2.563
 8560TIP3    H125623   5.412   6.616   2.487
 8560TIP3    H225624   5.412   6.621   2.638
 8561TIP3   OH225625   6.604   6.638   6.249
 8561TIP3    H125626   6.557   6.581   6.309
 8561TIP3    H225627   6.602   6.724   6.292
 8562TIP3   OH225628   0.751   1.221   4.440
 8562TIP3    H125629   0.668   1.261   4.413
 8562TIP3    H225630   0.770   1.260   4.525
 8563TIP3   OH225631   7.636   3.125   2.589
 8563TIP3    H125632   7.573   3.189   2.621
 8563TIP3    H225633   7.696   3.111   2.662
 8564TIP3   OH225634   0.113   7.131   3.016
 8564TIP3    H125635   0.178   7.084   3.068
 8564TIP3    H225636   0.064   7.183   3.080
 8565TIP3   OH225637   4.637   2.643   5.264
 8565TIP3    H125638   4.545   2.662   5.245
 8565TIP3    H225639   4.650   2.673   5.354
 8566TIP3   OH225640   2.874   5.563   3.638
 8566TIP3    H125641   2.964   5.540   3.660
 8566TIP3    H225642   2.852   5.634   3.698
 8567TIP3   OH225643   3.177   2.577   2.991
 8567TIP3    H125644   3.229   2.515   3.042
 8567TIP3    H225645   3.233   2.600   2.917
 8568TIP3   OH225646   5.241   6.774   0.827
 8568TIP3    H125647   5.268   6.823   0.749
 8568TIP3    H225648   5.313   6.713   0.842
 8569TIP3   OH225649   4.589   2.455   0.465
 8569TIP3    H125650   4.560   2.476   0.376
 8569TIP3    H225651   4.517   2.404   0.502
 8570TIP3   OH225652   1.886   6.020   1.339
 8570TIP3    H125653   1.961   6.037   1.281
 8570TIP3    H225654   1.812   6.009   1.279
 8571TIP3   OH225655   5.850   1.802   1.127
 8571TIP3    H125656   5.875   1.735   1.191
 8571TIP3    H225657   5.887   1.883   1.162
 8572TIP3   OH225658   4.194   3.873   4.468
 8572TIP3    H125659   4.167   3.793   4.423
 8572TIP3    H225660   4.280   3.852   4.505
 8573TIP3   OH225661   1.926   3.623   4.408
 8573TIP3    H125662   1.883   3.543   4.377
 8573TIP3    H225663   1.855   3.675   4.446
 8574TIP3   OH225664   1.202   1.371   3.395
 8574TIP3    H125665   1.161   1.416   3.321
 8574TIP3    H225666   1.173   1.421   3.472
 8575TIP3   OH225667   0.471   3.515   6.668
 8575TIP3    H125668   0.522   3.454   6.615
 8575TIP3    H225669   0.400   3.462   6.705
 8576TIP3   OH225670   2.566   4.817   6.507
 8576TIP3    H125671   2.596   4.906   6.527
 8576TIP3    H225672   2.542   4.819   6.415
 8577TIP3   OH225673   0.394   5.055   6.485
 8577TIP3    H125674   0.421   5.121   6.549
 8577TIP3    H225675   0.356   5.105   6.413
 8578TIP3   OH225676   2.641   1.555   3.074
 8578TIP3    H125677   2.656   1.648   3.058
 8578TIP3    H225678   2.691   1.536   3.153
 8579TIP3   OH225679   4.703   5.931   5.723
 8579TIP3    H125680   4.666   5.855   5.678
 8579TIP3    H225681   4.627   5.978   5.758
 8580TIP3   OH225682   2.693   4.196   4.508
 8580TIP3    H125683   2.720   4.271   4.562
 8580TIP3    H225684   2.603   4.178   4.536
 8581TIP3   OH225685   1.124   6.239   0.388
 8581TIP3    H125686   1.106   6.201   0.473
 8581TIP3    H225687   1.117   6.333   0.402
 8582TIP3   OH225688   7.230   1.218   1.259
 8582TIP3    H125689   7.222   1.182   1.170
 8582TIP3    H225690   7.296   1.163   1.301
 8583TIP3   OH225691   0.319   0.989   0.172
 8583TIP3    H125692   0.237   0.995   0.123
 8583TIP3    H225693   0.373   0.929   0.120
 8584TIP3   OH225694   5.888   0.535   3.757
 8584TIP3    H125695   5.911   0.457   3.706
 8584TIP3    H225696   5.846   0.593   3.694
 8585TIP3   OH225697   4.901   2.000   0.123
 8585TIP3    H125698   4.835   2.067   0.105
 8585TIP3    H225699   4.946   2.032   0.202
 8586TIP3   OH225700   6.564   6.114   4.310
 8586TIP3    H125701   6.544   6.130   4.218
 8586TIP3    H225702   6.594   6.198   4.344
 8587TIP3   OH225703   2.509   5.458   4.652
 8587TIP3    H125704   2.439   5.465   4.587
 8587TIP3    H225705   2.490   5.527   4.716
 8588TIP3   OH225706   6.546   7.213   1.774
 8588TIP3    H125707   6.554   7.308   1.760
 8588TIP3    H225708   6.545   7.177   1.685
 8589TIP3   OH225709   7.647   1.196   4.363
 8589TIP3    H125710   7.731   1.180   4.321
 8589TIP3    H225711   7.594   1.237   4.295
 8590TIP3   OH225712   2.831   1.180   6.575
 8590TIP3    H125713   2.863   1.270   6.563
 8590TIP3    H225714   2.904   1.125   6.547
 8591TIP3   OH225715   7.480   0.035   2.812
 8591TIP3    H125716   7.433   0.100   2.759
 8591TIP3    H225717   7.424   0.023   2.889
 8592TIP3   OH225718   2.342   5.060   6.702
 8592TIP3    H125719   2.324   5.036   6.611
 8592TIP3    H225720   2.257   5.086   6.738
 8593TIP3   OH225721   5.673   4.365   3.128
 8593TIP3    H125722   5.708   4.441   3.082
 8593TIP3    H225723   5.742   4.340   3.189
 8594TIP3   OH225724   2.040   7.410   0.512
 8594TIP3    H125725   2.043   7.321   0.549
 8594TIP3    H225726   2.037   7.467   0.588
 8595TIP3   OH225727   5.791   6.225   1.562
 8595TIP3    H125728   5.801   6.271   1.645
 8595TIP3    H225729   5.737   6.149   1.582
 8596TIP3   OH225730   3.686   7.711   0.316
 8596TIP3    H125731   3.598   7.681   0.292
 8596TIP3    H225732   3.673   7.800   0.350
 8597TIP3   OH225733   4.450   3.290   0.384
 8597TIP3    H125734   4.397   3.218   0.419
 8597TIP3    H225735   4.388   3.360   0.367
 8598TIP3   OH225736   6.628   1.504   5.937
 8598TIP3    H125737   6.656   1.498   5.846
 8598TIP3    H225738   6.611   1.413   5.963
 8599TIP3   OH225739   7.193   3.000   0.509
 8599TIP3    H125740   7.192   2.932   0.577
 8599TIP3    H225741   7.210   3.081   0.558
 8600TIP3   OH225742   5.097   2.585   2.896
 8600TIP3    H125743   5.076   2.606   2.987
 8600TIP3    H225744   5.092   2.489   2.892
 8601TIP3   OH225745   8.183   5.404   4.784
 8601TIP3    H125746   8.173   5.384   4.877
 8601TIP3    H225747   8.144   5.330   4.739
 8602TIP3   OH225748   3.909   2.443   6.660
 8602TIP3    H125749   3.880   2.444   6.751
 8602TIP3    H225750   3.942   2.532   6.644
 8603TIP3   OH225751   5.126   7.526   2.717
 8603TIP3    H125752   5.056   7.527   2.652
 8603TIP3    H225753   5.204   7.501   2.667
 8604TIP3   OH225754   3.119   6.207   6.532
 8604TIP3    H125755   3.209   6.188   6.556
 8604TIP3    H225756   3.067   6.147   6.586
 8605TIP3   OH225757   3.047   4.370   1.903
 8605TIP3    H125758   2.970   4.367   1.846
 8605TIP3    H225759   3.011   4.378   1.991
 8606TIP3   OH225760   0.143   3.790   6.407
 8606TIP3    H125761   0.076   3.748   6.354
 8606TIP3    H225762   0.175   3.721   6.465
 8607TIP3   OH225763   0.194   5.366   1.905
 8607TIP3    H125764   0.228   5.325   1.825
 8607TIP3    H225765   0.267   5.365   1.966
 8608TIP3   OH225766   7.132   2.506   2.726
 8608TIP3    H125767   7.081   2.550   2.658
 8608TIP3    H225768   7.079   2.512   2.805
 8609TIP3   OH225769   6.424   2.233   6.484
 8609TIP3    H125770   6.519   2.236   6.475
 8609TIP3    H225771   6.393   2.192   6.403
 8610TIP3   OH225772   4.862   1.958   5.164
 8610TIP3    H125773   4.921   1.884   5.145
 8610TIP3    H225774   4.893   1.991   5.248
 8611TIP3   OH225775   0.671   7.707   2.393
 8611TIP3    H125776   0.718   7.782   2.356
 8611TIP3    H225777   0.697   7.633   2.339
 8612TIP3   OH225778   2.269   3.741   1.122
 8612TIP3    H125779   2.322   3.805   1.076
 8612TIP3    H225780   2.195   3.791   1.157
 8613TIP3   OH225781   5.923   6.263   3.348
 8613TIP3    H125782   6.003   6.311   3.330
 8613TIP3    H225783   5.861   6.292   3.281
 8614TIP3   OH225784   1.330   0.388   5.508
 8614TIP3    H125785   1.422   0.395   5.483
 8614TIP3    H225786   1.293   0.326   5.445
 8615TIP3   OH225787   2.398   1.630   4.406
 8615TIP3    H125788   2.396   1.534   4.400
 8615TIP3    H225789   2.357   1.650   4.490
 8616TIP3   OH225790   1.218   0.409   0.386
 8616TIP3    H125791   1.246   0.324   0.419
 8616TIP3    H225792   1.130   0.420   0.421
 8617TIP3   OH225793   2.162   7.062   5.420
 8617TIP3    H125794   2.087   7.119   5.403
 8617TIP3    H225795   2.217   7.111   5.482
 8618TIP3   OH225796   5.274   4.484   4.302
 8618TIP3    H125797   5.259   4.411   4.362
 8618TIP3    H225798   5.265   4.447   4.215
 8619TIP3   OH225799   0.336   5.105   5.572
 8619TIP3    H125800   0.374   5.077   5.489
 8619TIP3    H225801   0.323   5.024   5.621
 8620TIP3   OH225802   0.120   4.486   3.855
 8620TIP3    H125803   0.089   4.547   3.788
 8620TIP3    H225804   0.148   4.409   3.805
 8621TIP3   OH225805   3.120   4.563   1.476
 8621TIP3    H125806   3.071   4.617   1.414
 8621TIP3    H225807   3.088   4.474   1.462
 8622TIP3   OH225808   6.569   1.666   3.495
 8622TIP3    H125809   6.622   1.685   3.572
 8622TIP3    H225810   6.556   1.751   3.453
 8623TIP3   OH225811   5.356   5.720   2.643
 8623TIP3    H125812   5.277   5.743   2.594
 8623TIP3    H225813   5.329   5.723   2.735
 8624TIP3   OH225814   1.725   3.497   2.407
 8624TIP3    H125815   1.667   3.450   2.467
 8624TIP3    H225816   1.760   3.569   2.460
 8625TIP3   OH225817   1.006   3.742   0.363
 8625TIP3    H125818   1.078   3.700   0.317
 8625TIP3    H225819   0.969   3.673   0.418
 8626TIP3   OH225820   6.581   2.059   2.151
 8626TIP3    H125821   6.491   2.027   2.146
 8626TIP3    H225822   6.597   2.099   2.066
 8627TIP3   OH225823   1.157   3.992   2.278
 8627TIP3    H125824   1.234   3.975   2.332
 8627TIP3    H225825   1.083   3.963   2.332
 8628TIP3   OH225826   2.957   6.958   6.571
 8628TIP3    H125827   3.029   7.015   6.544
 8628TIP3    H225828   3.000   6.883   6.612
 8629TIP3   OH225829   2.725   3.445   0.674
 8629TIP3    H125830   2.723   3.537   0.700
 8629TIP3    H225831   2.662   3.439   0.602
 8630TIP3   OH225832   4.417   4.761   3.897
 8630TIP3    H125833   4.397   4.730   3.985
 8630TIP3    H225834   4.499   4.716   3.874
 8631TIP3   OH225835   4.393   4.992   1.623
 8631TIP3    H125836   4.444   5.034   1.554
 8631TIP3    H225837   4.348   5.064   1.668
 8632TIP3   OH225838   3.947   6.007   5.200
 8632TIP3    H125839   3.985   5.965   5.277
 8632TIP3    H225840   3.853   6.002   5.215
 8633TIP3   OH225841   4.138   3.156   5.167
 8633TIP3    H125842   4.212   3.196   5.121
 8633TIP3    H225843   4.079   3.127   5.097
 8634TIP3   OH225844   3.863   7.682   2.778
 8634TIP3    H125845   3.859   7.760   2.724
 8634TIP3    H225846   3.811   7.617   2.732
 8635TIP3   OH225847   4.372   2.533   4.196
 8635TIP3    H125848   4.343   2.495   4.114
 8635TIP3    H225849   4.386   2.458   4.254
 8636TIP3   OH225850   5.171   3.551   6.136
 8636TIP3    H125851   5.263   3.574   6.122
 8636TIP3    H225852   5.155   3.575   6.227
 8637TIP3   OH225853   2.022   7.388   5.033
 8637TIP3    H125854   1.970   7.317   5.070
 8637TIP3    H225855   2.028   7.368   4.940
 8638TIP3   OH225856   5.929   1.769   2.811
 8638TIP3    H125857   5.848   1.720   2.801
 8638TIP3    H225858   5.967   1.738   2.893
 8639TIP3   OH225859   4.941   0.741   2.702
 8639TIP3    H125860   4.968   0.751   2.793
 8639TIP3    H225861   4.849   0.767   2.702
 8640TIP3   OH225862   2.455   4.271   1.083
 8640TIP3    H125863   2.368   4.281   1.121
 8640TIP3    H225864   2.497   4.205   1.138
 8641TIP3   OH225865   5.156   6.208   3.786
 8641TIP3    H125866   5.078   6.260   3.805
 8641TIP3    H225867   5.149   6.132   3.844
 8642TIP3   OH225868   0.715   3.092   6.560
 8642TIP3    H125869   0.767   3.077   6.481
 8642TIP3    H225870   0.673   3.008   6.578
 8643TIP3   OH225871   3.312   6.367   3.217
 8643TIP3    H125872   3.378   6.349   3.150
 8643TIP3    H225873   3.337   6.312   3.291
 8644TIP3   OH225874   6.874   5.534   1.685
 8644TIP3    H125875   6.800   5.543   1.746
 8644TIP3    H225876   6.945   5.583   1.726
 8645TIP3   OH225877   4.217   3.174   6.492
 8645TIP3    H125878   4.258   3.247   6.538
 8645TIP3    H225879   4.279   3.102   6.501
 8646TIP3   OH225880   7.034   5.819   4.251
 8646TIP3    H125881   7.048   5.802   4.158
 8646TIP3    H225882   6.954   5.872   4.254
 8647TIP3   OH225883   0.200   6.872   5.017
 8647TIP3    H125884   0.195   6.777   5.004
 8647TIP3    H225885   0.291   6.888   5.041
 8648TIP3   OH225886   6.596   2.973   5.507
 8648TIP3    H125887   6.612   2.998   5.416
 8648TIP3    H225888   6.581   3.056   5.552
 8649TIP3   OH225889   6.690   4.698   6.674
 8649TIP3    H125890   6.716   4.790   6.667
 8649TIP3    H225891   6.604   4.700   6.715
 8650TIP3   OH225892   1.401   6.383   6.589
 8650TIP3    H125893   1.484   6.338   6.574
 8650TIP3    H225894   1.362   6.391   6.502
 8651TIP3   OH225895   1.996   7.779   4.468
 8651TIP3    H125896   1.946   7.855   4.496
 8651TIP3    H225897   1.940   7.735   4.404
 8652TIP3   OH225898   8.021   3.670   4.171
 8652TIP3    H125899   7.973   3.684   4.253
 8652TIP3    H225900   8.098   3.726   4.178
 8653TIP3   OH225901   7.152   0.469   0.398
 8653TIP3    H125902   7.114   0.429   0.319
 8653TIP3    H225903   7.246   0.470   0.382
 8654TIP3   OH225904   7.695   4.091   2.820
 8654TIP3    H125905   7.643   4.080   2.900
 8654TIP3    H225906   7.768   4.030   2.831
 8655TIP3   OH225907   0.891   4.868   6.725
 8655TIP3    H125908   0.849   4.850   6.809
 8655TIP3    H225909   0.833   4.931   6.682
 8656TIP3   OH225910   4.683   1.946   6.526
 8656TIP3    H125911   4.637   1.885   6.583
 8656TIP3    H225912   4.616   1.979   6.466
 8657TIP3   OH225913   1.199   4.907   3.095
 8657TIP3    H125914   1.166   4.937   3.179
 8657TIP3    H225915   1.200   4.812   3.101
 8658TIP3   OH225916   8.065   2.310   3.898
 8658TIP3    H125917   8.112   2.236   3.938
 8658TIP3    H225918   8.112   2.327   3.816
 8659TIP3   OH225919   8.044   3.495   5.516
 8659TIP3    H125920   8.115   3.521   5.574
 8659TIP3    H225921   8.058   3.547   5.437
 8660TIP3   OH225922   2.745   4.291   0.485
 8660TIP3    H125923   2.799   4.287   0.564
 8660TIP3    H225924   2.754   4.380   0.454
 8661TIP3   OH225925   4.891   3.815   3.365
 8661TIP3    H125926   4.836   3.891   3.346
 8661TIP3    H225927   4.831   3.750   3.401
 8662TIP3   OH225928   1.013   7.484   5.033
 8662TIP3    H125929   1.084   7.419   5.035
 8662TIP3    H225930   1.023   7.532   5.115
 8663TIP3   OH225931   4.691   6.098   0.444
 8663TIP3    H125932   4.760   6.157   0.414
 8663TIP3    H225933   4.651   6.065   0.364
 8664TIP3   OH225934   5.065   0.629   2.057
 8664TIP3    H125935   5.155   0.598   2.070
 8664TIP3    H225936   5.018   0.598   2.134
 8665TIP3   OH225937   2.878   0.513   6.448
 8665TIP3    H125938   2.959   0.463   6.459
 8665TIP3    H225939   2.810   0.458   6.488
 8666TIP3   OH225940   6.839   3.376   4.911
 8666TIP3    H125941   6.829   3.468   4.887
 8666TIP3    H225942   6.898   3.377   4.986
 8667TIP3   OH225943   4.910   0.229   5.371
 8667TIP3    H125944   4.838   0.166   5.362
 8667TIP3    H225945   4.982   0.190   5.321
 8668TIP3   OH225946   3.742   1.557   5.472
 8668TIP3    H125947   3.797   1.479   5.464
 8668TIP3    H225948   3.669   1.542   5.412
 8669TIP3   OH225949   3.695   5.178   0.842
 8669TIP3    H125950   3.788   5.193   0.861
 8669TIP3    H225951   3.674   5.098   0.890
 8670TIP3   OH225952   0.398   4.436   5.158
 8670TIP3    H125953   0.380   4.436   5.064
 8670TIP3    H225954   0.431   4.349   5.177
 8671TIP3   OH225955   1.089   0.446   2.394
 8671TIP3    H125956   1.111   0.355   2.414
 8671TIP3    H225957   0.994   0.447   2.388
 8672TIP3   OH225958   3.440  -0.007   3.970
 8672TIP3    H125959   3.505   0.051   3.930
 8672TIP3    H225960   3.365   0.050   3.986
 8673TIP3   OH225961   0.585   3.671   3.154
 8673TIP3    H125962   0.654   3.719   3.200
 8673TIP3    H225963   0.511   3.731   3.154
 8674TIP3   OH225964   2.070   7.502   0.247
 8674TIP3    H125965   2.039   7.428   0.194
 8674TIP3    H225966   2.073   7.467   0.337
 8675TIP3   OH225967   5.791   0.628   4.210
 8675TIP3    H125968   5.724   0.614   4.143
 8675TIP3    H225969   5.786   0.721   4.231
 8676TIP3   OH225970   1.338   1.604   4.500
 8676TIP3    H125971   1.354   1.523   4.548
 8676TIP3    H225972   1.344   1.579   4.407
 8677TIP3   OH225973   7.411   7.099   5.297
 8677TIP3    H125974   7.326   7.059   5.310
 8677TIP3    H225975   7.468   7.027   5.272
 8678TIP3   OH225976   4.996   2.936   5.686
 8678TIP3    H125977   4.921   2.887   5.653
 8678TIP3    H225978   5.047   2.957   5.608
 8679TIP3   OH225979   6.519   6.039   3.053
 8679TIP3    H125980   6.488   6.011   3.139
 8679TIP3    H225981   6.600   6.087   3.072
 8680TIP3   OH225982   0.901   7.752   5.716
 8680TIP3    H125983   0.983   7.798   5.735
 8680TIP3    H225984   0.927   7.674   5.669
 8681TIP3   OH225985   3.829   1.368   1.946
 8681TIP3    H125986   3.895   1.317   1.899
 8681TIP3    H225987   3.777   1.302   1.992
 8682TIP3   OH225988   3.638   6.622   6.672
 8682TIP3    H125989   3.647   6.716   6.658
 8682TIP3    H225990   3.546   6.604   6.653
 8683TIP3   OH225991   5.144   5.952   1.258
 8683TIP3    H125992   5.122   6.044   1.243
 8683TIP3    H225993   5.086   5.904   1.199
 8684TIP3   OH225994   2.439   6.078   3.453
 8684TIP3    H125995   2.505   6.139   3.484
 8684TIP3    H225996   2.373   6.133   3.411
 8685TIP3   OH225997   0.120   3.967   4.961
 8685TIP3    H125998   0.156   4.052   4.937
 8685TIP3    H225999   0.136   3.959   5.055
 8686TIP3   OH226000   3.865   5.013   3.533
 8686TIP3    H126001   3.781   4.974   3.509
 8686TIP3    H226002   3.890   4.971   3.615
 8687TIP3   OH226003   0.055   1.651   0.056
 8687TIP3    H126004   0.092   1.577   0.104
 8687TIP3    H226005   0.130   1.710   0.043
 8688TIP3   OH226006   4.003   5.843   3.235
 8688TIP3    H126007   3.988   5.759   3.192
 8688TIP3    H226008   4.053   5.894   3.171
 8689TIP3   OH226009   5.547   3.929   5.022
 8689TIP3    H126010   5.599   3.998   4.979
 8689TIP3    H226011   5.565   3.851   4.970
 8690TIP3   OH226012   7.108   4.398   0.505
 8690TIP3    H126013   7.104   4.493   0.503
 8690TIP3    H226014   7.017   4.370   0.499
 8691TIP3   OH226015   2.876   3.493   0.352
 8691TIP3    H126016   2.908   3.507   0.263
 8691TIP3    H226017   2.887   3.400   0.368
 8692TIP3   OH226018   2.535   5.709   2.902
 8692TIP3    H126019   2.609   5.665   2.861
 8692TIP3    H226020   2.497   5.644   2.961
 8693TIP3   OH226021   4.370   7.811   4.790
 8693TIP3    H126022   4.296   7.825   4.849
 8693TIP3    H226023   4.345   7.855   4.709
 8694TIP3   OH226024   2.466   1.313   5.934
 8694TIP3    H126025   2.545   1.363   5.955
 8694TIP3    H226026   2.445   1.266   6.014
 8695TIP3   OH226027   0.698   6.410   2.168
 8695TIP3    H126028   0.729   6.423   2.079
 8695TIP3    H226029   0.628   6.345   2.160
 8696TIP3   OH226030   6.946   0.151   5.955
 8696TIP3    H126031   6.966   0.210   6.027
 8696TIP3    H226032   6.870   0.190   5.912
 8697TIP3   OH226033   4.078   7.139   2.345
 8697TIP3    H126034   4.008   7.161   2.283
 8697TIP3    H226035   4.157   7.133   2.291
 8698TIP3   OH226036   5.555   5.353   2.969
 8698TIP3    H126037   5.470   5.354   2.924
 8698TIP3    H226038   5.619   5.349   2.898
 8699TIP3   OH226039   0.272   7.173   5.367
 8699TIP3    H126040   0.288   7.264   5.342
 8699TIP3    H226041   0.182   7.173   5.400
 8700TIP3   OH226042   2.147   2.514   4.068
 8700TIP3    H126043   2.102   2.454   4.009
 8700TIP3    H226044   2.095   2.514   4.148
 8701TIP3   OH226045   4.707   7.599   6.419
 8701TIP3    H126046   4.763   7.587   6.496
 8701TIP3    H226047   4.728   7.687   6.388
 8702TIP3   OH226048   6.309   5.373   2.377
 8702TIP3    H126049   6.399   5.351   2.402
 8702TIP3    H226050   6.282   5.302   2.319
 8703TIP3   OH226051   5.712   1.178   5.845
 8703TIP3    H126052   5.670   1.254   5.805
 8703TIP3    H226053   5.689   1.105   5.787
 8704TIP3   OH226054   7.028   6.384   2.664
 8704TIP3    H126055   7.024   6.308   2.605
 8704TIP3    H226056   6.948   6.433   2.644
 8705TIP3   OH226057   5.463   0.485   3.481
 8705TIP3    H126058   5.437   0.557   3.539
 8705TIP3    H226059   5.397   0.417   3.495
 8706TIP3   OH226060   2.795   5.769   4.580
 8706TIP3    H126061   2.821   5.810   4.663
 8706TIP3    H226062   2.767   5.681   4.604
 8707TIP3   OH226063   0.379   7.747   5.676
 8707TIP3    H126064   0.326   7.698   5.739
 8707TIP3    H226065   0.316   7.802   5.630
 8708TIP3   OH226066   4.996   6.019   0.996
 8708TIP3    H126067   4.902   6.030   1.006
 8708TIP3    H226068   5.025   6.100   0.954
 8709TIP3   OH226069   1.834   3.543   1.314
 8709TIP3    H126070   1.842   3.598   1.236
 8709TIP3    H226071   1.904   3.478   1.305
 8710TIP3   OH226072   6.567   6.063   4.773
 8710TIP3    H126073   6.517   6.073   4.692
 8710TIP3    H226074   6.658   6.071   4.746
 8711TIP3   OH226075   4.021   6.946   3.877
 8711TIP3    H126076   4.023   7.013   3.809
 8711TIP3    H226077   3.942   6.966   3.928
 8712TIP3   OH226078   7.505   7.579   6.374
 8712TIP3    H126079   7.437   7.556   6.437
 8712TIP3    H226080   7.458   7.607   6.295
 8713TIP3   OH226081   0.822   2.165   5.819
 8713TIP3    H126082   0.917   2.175   5.815
 8713TIP3    H226083   0.808   2.083   5.866
 8714TIP3   OH226084   6.011   7.449   3.137
 8714TIP3    H126085   6.055   7.365   3.146
 8714TIP3    H226086   6.059   7.508   3.196
 8715TIP3   OH226087   4.431   3.960   5.564
 8715TIP3    H126088   4.491   4.022   5.605
 8715TIP3    H226089   4.344   3.998   5.577
 8716TIP3   OH226090   1.042   5.072   5.987
 8716TIP3    H126091   1.091   5.012   5.930
 8716TIP3    H226092   1.086   5.067   6.071
 8717TIP3   OH226093   5.010   5.394   0.370
 8717TIP3    H126094   4.964   5.470   0.404
 8717TIP3    H226095   5.086   5.430   0.324
 8718TIP3   OH226096   5.114   0.094   1.986
 8718TIP3    H126097   5.152   0.085   2.074
 8718TIP3    H226098   5.188   0.112   1.929
 8719TIP3   OH226099   5.364   2.915   2.032
 8719TIP3    H126100   5.276   2.916   1.996
 8719TIP3    H226101   5.422   2.926   1.957
 8720TIP3   OH226102   6.542   3.890   0.952
 8720TIP3    H126103   6.592   3.822   0.906
 8720TIP3    H226104   6.586   3.900   1.036
 8721TIP3   OH226105   7.123   3.809   2.390
 8721TIP3    H126106   7.181   3.885   2.392
 8721TIP3    H226107   7.094   3.798   2.480
 8722TIP3   OH226108   7.829   3.869   2.202
 8722TIP3    H126109   7.774   3.887   2.126
 8722TIP3    H226110   7.796   3.786   2.237
 8723TIP3   OH226111   7.124   0.504   2.767
 8723TIP3    H126112   7.162   0.511   2.854
 8723TIP3    H226113   7.029   0.504   2.781
 8724TIP3   OH226114   8.149   1.208   1.422
 8724TIP3    H126115   8.165   1.118   1.395
 8724TIP3    H226116   8.055   1.222   1.405
 8725TIP3   OH226117   3.455   0.224   6.498
 8725TIP3    H126118   3.414   0.244   6.414
 8725TIP3    H226119   3.544   0.258   6.490
 8726TIP3   OH226120   7.569   3.277   3.558
 8726TIP3    H126121   7.582   3.319   3.473
 8726TIP3    H226122   7.615   3.334   3.620
 8727TIP3   OH226123   5.772   4.369   4.263
 8727TIP3    H126124   5.740   4.323   4.185
 8727TIP3    H226125   5.706   4.351   4.330
 8728TIP3   OH226126   6.534   7.045   4.309
 8728TIP3    H126127   6.566   6.973   4.364
 8728TIP3    H226128   6.557   7.019   4.220
 8729TIP3   OH226129   0.317   3.354   6.174
 8729TIP3    H126130   0.372   3.404   6.235
 8729TIP3    H226131   0.380   3.305   6.121
 8730TIP3   OH226132   4.094   0.789   4.043
 8730TIP3    H126133   4.088   0.794   3.947
 8730TIP3    H226134   4.180   0.751   4.059
 8731TIP3   OH226135   4.357   1.247   5.038
 8731TIP3    H126136   4.296   1.284   5.102
 8731TIP3    H226137   4.303   1.190   4.983
 8732TIP3   OH226138   2.722   0.070   3.996
 8732TIP3    H126139   2.711   0.155   3.955
 8732TIP3    H226140   2.791   0.027   3.944
 8733TIP3   OH226141   0.592   1.975   1.203
 8733TIP3    H126142   0.507   1.987   1.161
 8733TIP3    H226143   0.570   1.951   1.293
 8734TIP3   OH226144   3.755   1.801   5.869
 8734TIP3    H126145   3.722   1.765   5.787
 8734TIP3    H226146   3.677   1.832   5.915
 8735TIP3   OH226147   0.619   0.685   2.897
 8735TIP3    H126148   0.528   0.654   2.893
 8735TIP3    H226149   0.668   0.610   2.931
 8736TIP3   OH226150   1.334   1.936   5.458
 8736TIP3    H126151   1.283   1.977   5.528
 8736TIP3    H226152   1.275   1.869   5.422
 8737TIP3   OH226153   0.679   5.236   5.255
 8737TIP3    H126154   0.610   5.176   5.282
 8737TIP3    H226155   0.731   5.187   5.192
 8738TIP3   OH226156   1.503   7.363   3.318
 8738TIP3    H126157   1.455   7.405   3.246
 8738TIP3    H226158   1.486   7.418   3.394
 8739TIP3   OH226159   1.551   0.436   5.737
 8739TIP3    H126160   1.569   0.411   5.647
 8739TIP3    H226161   1.565   0.355   5.787
 8740TIP3   OH226162   7.672   5.003   0.078
 8740TIP3    H126163   7.707   4.943   0.012
 8740TIP3    H226164   7.580   5.015   0.054
 8741TIP3   OH226165   0.573   6.398   5.753
 8741TIP3    H126166   0.484   6.418   5.783
 8741TIP3    H226167   0.601   6.325   5.808
 8742TIP3   OH226168   8.005   7.168   3.574
 8742TIP3    H126169   7.945   7.161   3.500
 8742TIP3    H226170   8.044   7.255   3.565
 8743TIP3   OH226171   5.129   6.830   5.541
 8743TIP3    H126172   5.164   6.759   5.487
 8743TIP3    H226173   5.107   6.899   5.478
 8744TIP3   OH226174   6.882   5.991   3.128
 8744TIP3    H126175   6.868   6.067   3.072
 8744TIP3    H226176   6.816   5.928   3.100
 8745TIP3   OH226177   7.463   1.306   5.615
 8745TIP3    H126178   7.414   1.238   5.569
 8745TIP3    H226179   7.416   1.318   5.698
 8746TIP3   OH226180   5.671   0.417   6.372
 8746TIP3    H126181   5.675   0.350   6.441
 8746TIP3    H226182   5.595   0.392   6.319
 8747TIP3   OH226183   4.608   0.358   5.851
 8747TIP3    H126184   4.667   0.404   5.791
 8747TIP3    H226185   4.520   0.390   5.828
 8748TIP3   OH226186   1.242   3.297   0.149
 8748TIP3    H126187   1.172   3.234   0.165
 8748TIP3    H226188   1.197   3.378   0.124
 8749TIP3   OH226189   1.084   4.906   0.653
 8749TIP3    H126190   1.005   4.938   0.610
 8749TIP3    H226191   1.152   4.910   0.585
 8750TIP3   OH226192   0.582   7.160   5.393
 8750TIP3    H126193   0.616   7.233   5.445
 8750TIP3    H226194   0.487   7.168   5.400
 8751TIP3   OH226195   2.962   0.111   2.274
 8751TIP3    H126196   3.027   0.055   2.232
 8751TIP3    H226197   3.010   0.158   2.342
 8752TIP3   OH226198   5.451   5.667   1.500
 8752TIP3    H126199   5.456   5.635   1.409
 8752TIP3    H226200   5.418   5.756   1.493
 8753TIP3   OH226201   2.865   1.303   2.772
 8753TIP3    H126202   2.904   1.217   2.757
 8753TIP3    H226203   2.780   1.285   2.812
 8754TIP3   OH226204   1.461   7.505   3.542
 8754TIP3    H126205   1.476   7.455   3.622
 8754TIP3    H226206   1.400   7.574   3.568
 8755TIP3   OH226207   5.948   1.644   0.347
 8755TIP3    H126208   5.892   1.641   0.424
 8755TIP3    H226209   5.969   1.737   0.336
 8756TIP3   OH226210   0.721   7.721   5.120
 8756TIP3    H126211   0.764   7.727   5.205
 8756TIP3    H226212   0.637   7.765   5.132
 8757TIP3   OH226213   1.964   2.372   4.654
 8757TIP3    H126214   1.911   2.364   4.733
 8757TIP3    H226215   1.960   2.466   4.632
 8758TIP3   OH226216   3.414   6.693   0.171
 8758TIP3    H126217   3.352   6.657   0.108
 8758TIP3    H226218   3.424   6.624   0.236
 8759TIP3   OH226219   7.150   2.522   1.034
 8759TIP3    H126220   7.204   2.445   1.050
 8759TIP3    H226221   7.179   2.555   0.949
 8760TIP3   OH226222   7.769   6.413   3.660
 8760TIP3    H126223   7.790   6.457   3.577
 8760TIP3    H226224   7.849   6.421   3.712
 8761TIP3   OH226225   1.863   0.984   5.668
 8761TIP3    H126226   1.935   1.038   5.635
 8761TIP3    H226227   1.866   0.994   5.763
 8762TIP3   OH226228   5.692   7.136   5.116
 8762TIP3    H126229   5.747   7.177   5.049
 8762TIP3    H226230   5.746   7.134   5.194
 8763TIP3   OH226231   5.236   0.754   6.552
 8763TIP3    H126232   5.209   0.802   6.473
 8763TIP3    H226233   5.312   0.703   6.524
 8764TIP3   OH226234   7.512   4.568   0.229
 8764TIP3    H126235   7.467   4.640   0.184
 8764TIP3    H226236   7.579   4.610   0.281
 8765TIP3   OH226237   3.438   7.608   6.368
 8765TIP3    H126238   3.403   7.520   6.355
 8765TIP3    H226239   3.393   7.639   6.447
 8766TIP3   OH226240   7.158   0.250   5.194
 8766TIP3    H126241   7.063   0.245   5.195
 8766TIP3    H226242   7.179   0.331   5.241
 8767TIP3   OH226243   6.227   0.253   2.537
 8767TIP3    H126244   6.173   0.331   2.526
 8767TIP3    H226245   6.168   0.190   2.579
 8768TIP3   OH226246   0.926   6.798   5.050
 8768TIP3    H126247   0.929   6.891   5.031
 8768TIP3    H226248   0.984   6.758   4.985
 8769TIP3   OH226249   1.954   1.065   4.438
 8769TIP3    H126250   1.903   1.143   4.418
 8769TIP3    H226251   1.938   1.006   4.365
 8770TIP3   OH226252   7.187   6.190   2.109
 8770TIP3    H126253   7.251   6.119   2.105
 8770TIP3    H226254   7.129   6.175   2.034
 8771TIP3   OH226255   2.824   3.918   2.412
 8771TIP3    H126256   2.813   3.861   2.335
 8771TIP3    H226257   2.740   3.962   2.421
 8772TIP3   OH226258   0.538   2.291   6.394
 8772TIP3    H126259   0.560   2.218   6.451
 8772TIP3    H226260   0.620   2.313   6.350
 8773TIP3   OH226261   1.492   1.218   4.184
 8773TIP3    H126262   1.442   1.213   4.265
 8773TIP3    H226263   1.428   1.201   4.114
 8774TIP3   OH226264   4.993   6.939   4.365
 8774TIP3    H126265   5.031   6.910   4.282
 8774TIP3    H226266   4.904   6.965   4.343
 8775TIP3   OH226267   0.110   3.783   5.196
 8775TIP3    H126268   0.197   3.756   5.224
 8775TIP3    H226269   0.059   3.702   5.195
 8776TIP3   OH226270   1.133   0.278   2.787
 8776TIP3    H126271   1.147   0.369   2.812
 8776TIP3    H226272   1.042   0.261   2.810
 8777TIP3   OH226273   0.250   6.094   3.787
 8777TIP3    H126274   0.338   6.103   3.825
 8777TIP3    H226275   0.246   6.003   3.758
 8778TIP3   OH226276   7.176   3.626   5.447
 8778TIP3    H126277   7.265   3.590   5.446
 8778TIP3    H226278   7.141   3.599   5.532
 8779TIP3   OH226279   3.382   5.077   1.594
 8779TIP3    H126280   3.453   5.063   1.530
 8779TIP3    H226281   3.390   5.004   1.654
 8780TIP3   OH226282   5.118   4.871   3.091
 8780TIP3    H126283   5.053   4.919   3.040
 8780TIP3    H226284   5.074   4.848   3.173
 8781TIP3   OH226285   3.766   5.746   2.220
 8781TIP3    H126286   3.679   5.713   2.240
 8781TIP3    H226287   3.754   5.840   2.209
 8782TIP3   OH226288   7.854   2.031   1.314
 8782TIP3    H126289   7.759   2.045   1.311
 8782TIP3    H226290   7.866   1.943   1.278
 8783TIP3   OH226291   2.695   4.037   6.035
 8783TIP3    H126292   2.638   4.095   5.986
 8783TIP3    H226293   2.685   3.951   5.993
 8784TIP3   OH226294   7.423   5.657   0.710
 8784TIP3    H126295   7.391   5.604   0.637
 8784TIP3    H226296   7.344   5.679   0.760
 8785TIP3   OH226297   4.570   5.636   5.154
 8785TIP3    H126298   4.622   5.639   5.074
 8785TIP3    H226299   4.633   5.609   5.222
 8786TIP3   OH226300   2.465   0.736   0.948
 8786TIP3    H126301   2.468   0.765   1.039
 8786TIP3    H226302   2.444   0.643   0.953
 8787TIP3   OH226303   5.349   3.950   5.211
 8787TIP3    H126304   5.374   3.894   5.284
 8787TIP3    H226305   5.423   3.944   5.150
 8788TIP3   OH226306   0.704   0.613   3.522
 8788TIP3    H126307   0.648   0.658   3.459
 8788TIP3    H226308   0.695   0.664   3.603
 8789TIP3   OH226309   2.028   1.380   0.280
 8789TIP3    H126310   1.957   1.384   0.344
 8789TIP3    H226311   2.106   1.366   0.333
 8790TIP3   OH226312   3.895   2.679   4.409
 8790TIP3    H126313   3.878   2.689   4.502
 8790TIP3    H226314   3.907   2.768   4.377
 8791TIP3   OH226315   1.318   2.619   1.564
 8791TIP3    H126316   1.235   2.584   1.593
 8791TIP3    H226317   1.379   2.546   1.571
 8792TIP3   OH226318   5.351   1.941   0.783
 8792TIP3    H126319   5.305   2.022   0.763
 8792TIP3    H226320   5.440   1.955   0.750
 8793TIP3   OH226321   3.398   5.917   6.508
 8793TIP3    H126322   3.351   5.887   6.430
 8793TIP3    H226323   3.398   6.012   6.500
 8794TIP3   OH226324   2.794   1.713   1.363
 8794TIP3    H126325   2.755   1.635   1.403
 8794TIP3    H226326   2.773   1.706   1.270
 8795TIP3   OH226327   4.557   5.896   5.419
 8795TIP3    H126328   4.577   5.864   5.332
 8795TIP3    H226329   4.579   5.989   5.417
 8796TIP3   OH226330   4.258   4.317   0.028
 8796TIP3    H126331   4.162   4.323   0.035
 8796TIP3    H226332   4.288   4.408   0.023
 8797TIP3   OH226333   3.178   5.801   2.839
 8797TIP3    H126334   3.168   5.788   2.934
 8797TIP3    H226335   3.236   5.877   2.832
 8798TIP3   OH226336   0.814   1.088   3.775
 8798TIP3    H126337   0.811   1.160   3.837
 8798TIP3    H226338   0.886   1.110   3.715
 8799TIP3   OH226339   4.417   4.687   5.602
 8799TIP3    H126340   4.405   4.744   5.678
 8799TIP3    H226341   4.485   4.731   5.550
 8800TIP3   OH226342   7.590   1.283   1.395
 8800TIP3    H126343   7.600   1.259   1.303
 8800TIP3    H226344   7.518   1.346   1.396
 8801TIP3   OH226345   7.264   2.592   2.009
 8801TIP3    H126346   7.234   2.501   2.005
 8801TIP3    H226347   7.240   2.621   2.097
 8802TIP3   OH226348   8.143   2.422   4.656
 8802TIP3    H126349   8.101   2.477   4.590
 8802TIP3    H226350   8.212   2.376   4.609
 8803TIP3   OH226351   3.113   2.249   2.608
 8803TIP3    H126352   3.077   2.303   2.538
 8803TIP3    H226353   3.164   2.310   2.662
 8804TIP3   OH226354   3.698   7.025   6.079
 8804TIP3    H126355   3.750   6.970   6.137
 8804TIP3    H226356   3.637   7.070   6.138
 8805TIP3   OH226357   4.510   2.247   4.085
 8805TIP3    H126358   4.428   2.198   4.083
 8805TIP3    H226359   4.549   2.232   4.000
 8806TIP3   OH226360   4.435   7.760   1.572
 8806TIP3    H126361   4.352   7.805   1.556
 8806TIP3    H226362   4.501   7.815   1.529
 8807TIP3   OH226363   4.361   7.803   1.966
 8807TIP3    H126364   4.433   7.824   1.907
 8807TIP3    H226365   4.345   7.884   2.014
 8808TIP3   OH226366   1.079   5.427   6.489
 8808TIP3    H126367   1.046   5.342   6.518
 8808TIP3    H226368   1.173   5.413   6.475
 8809TIP3   OH226369   1.299   0.260   3.225
 8809TIP3    H126370   1.328   0.209   3.149
 8809TIP3    H226371   1.256   0.337   3.187
 8810TIP3   OH226372   6.200   6.783   3.963
 8810TIP3    H126373   6.283   6.820   3.996
 8810TIP3    H226374   6.150   6.763   4.042
 8811TIP3   OH226375   3.394   6.079   1.508
 8811TIP3    H126376   3.474   6.123   1.536
 8811TIP3    H226377   3.410   5.986   1.527
 8812TIP3   OH226378   0.162   5.716   6.035
 8812TIP3    H126379   0.226   5.785   6.019
 8812TIP3    H226380   0.209   5.635   6.017
 8813TIP3   OH226381   1.652   2.555   1.471
 8813TIP3    H126382   1.740   2.520   1.484
 8813TIP3    H226383   1.606   2.486   1.424
 8814TIP3   OH226384   0.961   4.081   3.710
 8814TIP3    H126385   1.002   4.153   3.757
 8814TIP3    H226386   1.028   4.013   3.708
 8815TIP3   OH226387   3.765   3.680   2.720
 8815TIP3    H126388   3.705   3.744   2.759
 8815TIP3    H226389   3.815   3.646   2.794
 8816TIP3   OH226390   6.221   1.131   5.663
 8816TIP3    H126391   6.299   1.139   5.718
 8816TIP3    H226392   6.249   1.159   5.576
 8817TIP3   OH226393   3.929   6.726   2.132
 8817TIP3    H126394   3.925   6.671   2.211
 8817TIP3    H226395   3.976   6.805   2.160
 8818TIP3   OH226396   6.488   5.067   0.511
 8818TIP3    H126397   6.515   4.988   0.465
 8818TIP3    H226398   6.415   5.101   0.459
 8819TIP3   OH226399   7.402   6.501   0.118
 8819TIP3    H126400   7.369   6.537   0.036
 8819TIP3    H226401   7.466   6.435   0.091
 8820TIP3   OH226402   1.624   6.952   3.096
 8820TIP3    H126403   1.553   6.921   3.152
 8820TIP3    H226404   1.600   7.043   3.075
 8821TIP3   OH226405   5.526   4.175   1.616
 8821TIP3    H126406   5.584   4.237   1.572
 8821TIP3    H226407   5.520   4.208   1.705
 8822TIP3   OH226408   2.098   2.805   5.171
 8822TIP3    H126409   2.129   2.881   5.122
 8822TIP3    H226410   2.003   2.804   5.156
 8823TIP3   OH226411   1.741   0.917   2.959
 8823TIP3    H126412   1.752   0.823   2.941
 8823TIP3    H226413   1.790   0.931   3.040
 8824TIP3   OH226414   2.018   3.417   5.569
 8824TIP3    H126415   2.087   3.440   5.631
 8824TIP3    H226416   1.943   3.392   5.624
 8825TIP3   OH226417   7.849   0.604   1.662
 8825TIP3    H126418   7.761   0.636   1.682
 8825TIP3    H226419   7.894   0.601   1.746
 8826TIP3   OH226420   5.575   2.179   5.956
 8826TIP3    H126421   5.570   2.275   5.956
 8826TIP3    H226422   5.553   2.153   6.045
 8827TIP3   OH226423   8.243   4.855   0.597
 8827TIP3    H126424   8.195   4.777   0.624
 8827TIP3    H226425   8.217   4.870   0.506
 8828TIP3   OH226426   0.235   1.828   0.009
 8828TIP3    H126427   0.210   1.870   0.091
 8828TIP3    H226428   0.326   1.854  -0.005
 8829TIP3   OH226429   5.814   5.139   0.773
 8829TIP3    H126430   5.754   5.065   0.776
 8829TIP3    H226431   5.861   5.136   0.857
 8830TIP3   OH226432   0.374   5.748   4.412
 8830TIP3    H126433   0.360   5.840   4.434
 8830TIP3    H226434   0.448   5.749   4.351
 8831TIP3   OH226435   7.130   1.436   3.880
 8831TIP3    H126436   7.216   1.432   3.838
 8831TIP3    H226437   7.148   1.419   3.972
 8832TIP3   OH226438   3.064   4.019   0.164
 8832TIP3    H126439   3.068   4.029   0.069
 8832TIP3    H226440   3.051   3.925   0.179
 8833TIP3   OH226441   7.787   5.091   5.193
 8833TIP3    H126442   7.746   5.085   5.280
 8833TIP3    H226443   7.879   5.068   5.208
 8834TIP3   OH226444   7.957   0.875   2.136
 8834TIP3    H126445   7.960   0.940   2.206
 8834TIP3    H226446   8.039   0.826   2.145
 8835TIP3   OH226447   0.142   0.320   2.280
 8835TIP3    H126448   0.170   0.384   2.215
 8835TIP3    H226449   0.082   0.262   2.233
 8836TIP3   OH226450   6.186   7.757   6.161
 8836TIP3    H126451   6.205   7.736   6.252
 8836TIP3    H226452   6.100   7.719   6.144
 8837TIP3   OH226453   3.548   0.876   1.217
 8837TIP3    H126454   3.567   0.877   1.311
 8837TIP3    H226455   3.546   0.969   1.192
 8838TIP3   OH226456   4.532   5.666   4.375
 8838TIP3    H126457   4.460   5.684   4.435
 8838TIP3    H226458   4.580   5.749   4.370
 8839TIP3   OH226459   2.584   3.527   3.986
 8839TIP3    H126460   2.504   3.521   4.039
 8839TIP3    H226461   2.612   3.436   3.975
 8840TIP3   OH226462   7.326   6.985   6.529
 8840TIP3    H126463   7.303   7.021   6.615
 8840TIP3    H226464   7.243   6.979   6.482
 8841TIP3   OH226465   5.245   3.116   5.638
 8841TIP3    H126466   5.183   3.056   5.680
 8841TIP3    H226467   5.328   3.069   5.638
 8842TIP3   OH226468   1.697   4.369   0.934
 8842TIP3    H126469   1.604   4.372   0.957
 8842TIP3    H226470   1.723   4.460   0.928
 8843TIP3   OH226471   6.993   2.659   3.660
 8843TIP3    H126472   6.968   2.735   3.713
 8843TIP3    H226473   6.937   2.665   3.583
 8844TIP3   OH226474   7.257   2.209   0.743
 8844TIP3    H126475   7.199   2.134   0.760
 8844TIP3    H226476   7.255   2.220   0.647
 8845TIP3   OH226477   4.592   3.410   4.466
 8845TIP3    H126478   4.682   3.439   4.481
 8845TIP3    H226479   4.544   3.439   4.543
 8846TIP3   OH226480   5.151   4.495   3.702
 8846TIP3    H126481   5.218   4.523   3.764
 8846TIP3    H226482   5.110   4.419   3.744
 8847TIP3   OH226483   2.358   7.851   0.996
 8847TIP3    H126484   2.321   7.939   1.003
 8847TIP3    H226485   2.292   7.793   1.035
 8848TIP3   OH226486   4.762   2.379   4.809
 8848TIP3    H126487   4.812   2.318   4.756
 8848TIP3    H226488   4.765   2.343   4.898
 8849TIP3   OH226489   0.771   2.313   2.184
 8849TIP3    H126490   0.795   2.330   2.275
 8849TIP3    H226491   0.816   2.382   2.134
 8850TIP3   OH226492   0.038   0.483   6.310
 8850TIP3    H126493  -0.006   0.501   6.228
 8850TIP3    H226494  -0.023   0.511   6.378
 8851TIP3   OH226495   5.562   2.502   3.903
 8851TIP3    H126496   5.562   2.550   3.820
 8851TIP3    H226497   5.585   2.413   3.879
 8852TIP3   OH226498   5.774   3.622   4.617
 8852TIP3    H126499   5.843   3.654   4.559
 8852TIP3    H226500   5.820   3.571   4.683
 8853TIP3   OH226501   6.390   0.341   6.029
 8853TIP3    H126502   6.376   0.339   6.124
 8853TIP3    H226503   6.390   0.249   6.003
 8854TIP3   OH226504   4.859   3.192   5.273
 8854TIP3    H126505   4.816   3.275   5.252
 8854TIP3    H226506   4.899   3.207   5.359
 8855TIP3   OH226507   7.882   3.517   6.613
 8855TIP3    H126508   7.855   3.608   6.599
 8855TIP3    H226509   7.977   3.522   6.627
 8856TIP3   OH226510   3.761   6.253   4.437
 8856TIP3    H126511   3.797   6.282   4.521
 8856TIP3    H226512   3.831   6.203   4.397
 8857TIP3   OH226513   7.394   7.681   4.838
 8857TIP3    H126514   7.447   7.608   4.870
 8857TIP3    H226515   7.314   7.677   4.891
 8858TIP3   OH226516   8.121   4.739   6.705
 8858TIP3    H126517   8.134   4.670   6.639
 8858TIP3    H226518   8.087   4.692   6.781
 8859TIP3   OH226519   2.253   4.601   4.446
 8859TIP3    H126520   2.269   4.540   4.374
 8859TIP3    H226521   2.270   4.687   4.408
 8860TIP3   OH226522   8.140   0.149   3.974
 8860TIP3    H126523   8.107   0.096   3.901
 8860TIP3    H226524   8.200   0.212   3.933
 8861TIP3   OH226525   3.680   3.066   2.028
 8861TIP3    H126526   3.739   3.139   2.011
 8861TIP3    H226527   3.594   3.107   2.039
 8862TIP3   OH226528   6.538   0.321   4.296
 8862TIP3    H126529   6.485   0.367   4.361
 8862TIP3    H226530   6.476   0.300   4.226
 8863TIP3   OH226531   5.093   4.434   0.947
 8863TIP3    H126532   5.003   4.465   0.961
 8863TIP3    H226533   5.141   4.512   0.918
 8864TIP3   OH226534   4.121   3.710   1.261
 8864TIP3    H126535   4.160   3.795   1.277
 8864TIP3    H226536   4.100   3.676   1.348
 8865TIP3   OH226537   0.283   4.628   6.549
 8865TIP3    H126538   0.212   4.567   6.529
 8865TIP3    H226539   0.262   4.706   6.497
 8866TIP3   OH226540   1.734   5.398   2.959
 8866TIP3    H126541   1.676   5.325   2.940
 8866TIP3    H226542   1.771   5.377   3.045
 8867TIP3   OH226543   1.577   2.760   4.189
 8867TIP3    H126544   1.602   2.848   4.217
 8867TIP3    H226545   1.482   2.758   4.196
 8868TIP3   OH226546   0.896   6.134   1.221
 8868TIP3    H126547   0.844   6.139   1.301
 8868TIP3    H226548   0.861   6.059   1.174
 8869TIP3   OH226549   0.895   4.092   4.828
 8869TIP3    H126550   0.983   4.061   4.848
 8869TIP3    H226551   0.841   4.012   4.828
 8870TIP3   OH226552   7.301   7.434   5.333
 8870TIP3    H126553   7.271   7.354   5.377
 8870TIP3    H226554   7.282   7.504   5.396
 8871TIP3   OH226555   5.859   4.003   3.885
 8871TIP3    H126556   5.784   3.965   3.930
 8871TIP3    H226557   5.821   4.058   3.817
 8872TIP3   OH226558   4.897   1.195   6.440
 8872TIP3    H126559   4.933   1.281   6.416
 8872TIP3    H226560   4.802   1.210   6.447
 8873TIP3   OH226561   2.352   5.691   1.123
 8873TIP3    H126562   2.446   5.692   1.102
 8873TIP3    H226563   2.322   5.605   1.096
 8874TIP3   OH226564   0.870   5.976   5.883
 8874TIP3    H126565   0.962   5.986   5.860
 8874TIP3    H226566   0.870   5.964   5.978
 8875TIP3   OH226567   5.012   4.789   2.738
 8875TIP3    H126568   5.026   4.867   2.791
 8875TIP3    H226569   5.079   4.795   2.670
 8876TIP3   OH226570   2.374   6.689   0.019
 8876TIP3    H126571   2.374   6.593   0.010
 8876TIP3    H226572   2.308   6.707   0.086
 8877TIP3   OH226573   0.407   3.821   2.949
 8877TIP3    H126574   0.434   3.913   2.946
 8877TIP3    H226575   0.455   3.780   2.877
 8878TIP3   OH226576   5.701   1.493   0.944
 8878TIP3    H126577   5.774   1.535   0.988
 8878TIP3    H226578   5.645   1.566   0.915
 8879TIP3   OH226579   7.659   0.242   4.293
 8879TIP3    H126580   7.710   0.305   4.241
 8879TIP3    H226581   7.667   0.160   4.245
 8880TIP3   OH226582   2.577   0.291   3.241
 8880TIP3    H126583   2.645   0.258   3.182
 8880TIP3    H226584   2.503   0.232   3.228
 8881TIP3   OH226585   6.755   0.100   3.457
 8881TIP3    H126586   6.696   0.137   3.391
 8881TIP3    H226587   6.713   0.120   3.541
 8882TIP3   OH226588   0.101   6.962   2.384
 8882TIP3    H126589   0.164   6.891   2.397
 8882TIP3    H226590   0.037   6.951   2.454
 8883TIP3   OH226591   7.599   3.470   0.908
 8883TIP3    H126592   7.539   3.497   0.978
 8883TIP3    H226593   7.555   3.498   0.827
 8884TIP3   OH226594   3.119   1.996   4.905
 8884TIP3    H126595   3.140   1.906   4.930
 8884TIP3    H226596   3.174   2.050   4.961
 8885TIP3   OH226597   7.338   3.950  -0.038
 8885TIP3    H126598   7.359   4.041  -0.058
 8885TIP3    H226599   7.333   3.948   0.058
 8886TIP3   OH226600   3.035   7.314   1.271
 8886TIP3    H126601   3.004   7.354   1.352
 8886TIP3    H226602   2.955   7.296   1.221
 8887TIP3   OH226603   4.549   0.185   4.367
 8887TIP3    H126604   4.590   0.223   4.289
 8887TIP3    H226605   4.456   0.206   4.357
 8888TIP3   OH226606   3.440   4.264   4.654
 8888TIP3    H126607   3.517   4.207   4.655
 8888TIP3    H226608   3.406   4.260   4.743
 8889TIP3   OH226609   4.931   5.722   6.562
 8889TIP3    H126610   4.938   5.770   6.645
 8889TIP3    H226611   5.008   5.749   6.512
 8890TIP3   OH226612   7.343   1.136   5.410
 8890TIP3    H126613   7.432   1.136   5.375
 8890TIP3    H226614   7.311   1.046   5.395
 8891TIP3   OH226615   1.971   0.374   1.305
 8891TIP3    H126616   2.020   0.387   1.224
 8891TIP3    H226617   1.979   0.280   1.322
 8892TIP3   OH226618   4.981   4.606   3.502
 8892TIP3    H126619   5.028   4.562   3.573
 8892TIP3    H226620   4.901   4.554   3.492
 8893TIP3   OH226621   4.765   6.193   1.432
 8893TIP3    H126622   4.688   6.152   1.471
 8893TIP3    H226623   4.733   6.228   1.348
 8894TIP3   OH226624   6.533   1.391   4.154
 8894TIP3    H126625   6.458   1.335   4.132
 8894TIP3    H226626   6.517   1.418   4.244
 8895TIP3   OH226627   0.725   0.936   6.403
 8895TIP3    H126628   0.639   0.916   6.367
 8895TIP3    H226629   0.782   0.944   6.326
 8896TIP3   OH226630   8.221   3.108   1.255
 8896TIP3    H126631   8.211   3.061   1.338
 8896TIP3    H226632   8.132   3.127   1.227
 8897TIP3   OH226633   6.860   1.908   6.438
 8897TIP3    H126634   6.937   1.865   6.476
 8897TIP3    H226635   6.826   1.845   6.375
 8898TIP3   OH226636   7.402   7.442   3.187
 8898TIP3    H126637   7.454   7.468   3.110
 8898TIP3    H226638   7.378   7.351   3.170
 8899TIP3   OH226639   4.764   3.794   0.789
 8899TIP3    H126640   4.702   3.741   0.839
 8899TIP3    H226641   4.772   3.749   0.705
 8900TIP3   OH226642   2.505   1.718   4.905
 8900TIP3    H126643   2.442   1.778   4.945
 8900TIP3    H226644   2.587   1.767   4.904
 8901TIP3   OH226645   1.431   6.523   3.228
 8901TIP3    H126646   1.509   6.568   3.263
 8901TIP3    H226647   1.423   6.444   3.282
 8902TIP3   OH226648   1.405   2.078   3.271
 8902TIP3    H126649   1.311   2.065   3.284
 8902TIP3    H226650   1.418   2.067   3.177
 8903TIP3   OH226651   1.705   7.668   4.606
 8903TIP3    H126652   1.721   7.660   4.700
 8903TIP3    H226653   1.720   7.580   4.572
 8904TIP3   OH226654   3.177   7.196   2.462
 8904TIP3    H126655   3.234   7.152   2.525
 8904TIP3    H226656   3.133   7.264   2.513
 8905TIP3   OH226657   6.620   6.503   1.021
 8905TIP3    H126658   6.681   6.437   0.988
 8905TIP3    H226659   6.661   6.587   1.000
 8906TIP3   OH226660   3.347   7.415   3.016
 8906TIP3    H126661   3.264   7.409   3.063
 8906TIP3    H226662   3.332   7.367   2.934
 8907TIP3   OH226663   2.162   2.529   5.107
 8907TIP3    H126664   2.252   2.517   5.138
 8907TIP3    H226665   2.147   2.623   5.114
 8908TIP3   OH226666   7.357   7.504   1.418
 8908TIP3    H126667   7.438   7.456   1.439
 8908TIP3    H226668   7.320   7.456   1.343
 8909TIP3   OH226669   2.219   6.837   5.975
 8909TIP3    H126670   2.241   6.879   5.892
 8909TIP3    H226671   2.240   6.903   6.042
 8910TIP3   OH226672   8.071   1.924   0.277
 8910TIP3    H126673   8.116   1.919   0.192
 8910TIP3    H226674   7.993   1.870   0.265
 8911TIP3   OH226675   2.280   3.652   6.266
 8911TIP3    H126676   2.340   3.725   6.245
 8911TIP3    H226677   2.223   3.687   6.334
 8912TIP3   OH226678   4.317   6.361   1.177
 8912TIP3    H126679   4.314   6.440   1.231
 8912TIP3    H226680   4.399   6.318   1.201
 8913TIP3   OH226681   6.450   1.848   4.723
 8913TIP3    H126682   6.380   1.784   4.708
 8913TIP3    H226683   6.437   1.915   4.656
 8914TIP3   OH226684   7.924   5.595   5.422
 8914TIP3    H126685   8.009   5.623   5.388
 8914TIP3    H226686   7.861   5.651   5.377
 8915TIP3   OH226687   4.077   7.077   3.516
 8915TIP3    H126688   4.147   7.012   3.515
 8915TIP3    H226689   4.027   7.059   3.436
 8916TIP3   OH226690   7.075   6.892   5.916
 8916TIP3    H126691   7.078   6.906   6.011
 8916TIP3    H226692   7.024   6.811   5.906
 8917TIP3   OH226693   6.526   3.580   0.619
 8917TIP3    H126694   6.458   3.605   0.557
 8917TIP3    H226695   6.563   3.499   0.585
 8918TIP3   OH226696   7.694   1.501   4.498
 8918TIP3    H126697   7.621   1.477   4.556
 8918TIP3    H226698   7.762   1.437   4.518
 8919TIP3   OH226699   6.095   6.785   1.995
 8919TIP3    H126700   6.103   6.853   2.062
 8919TIP3    H226701   6.150   6.714   2.028
 8920TIP3   OH226702   7.227   3.852   3.938
 8920TIP3    H126703   7.286   3.817   4.005
 8920TIP3    H226704   7.278   3.919   3.893
 8921TIP3   OH226705   7.583   3.464   3.323
 8921TIP3    H126706   7.668   3.506   3.308
 8921TIP3    H226707   7.532   3.484   3.245
 8922TIP3   OH226708   5.332   5.883   3.374
 8922TIP3    H126709   5.375   5.927   3.301
 8922TIP3    H226710   5.372   5.796   3.377
 8923TIP3   OH226711   1.998   0.507   3.144
 8923TIP3    H126712   1.965   0.444   3.208
 8923TIP3    H226713   1.928   0.514   3.080
 8924TIP3   OH226714   2.309   4.558   4.718
 8924TIP3    H126715   2.246   4.487   4.709
 8924TIP3    H226716   2.292   4.615   4.643
 8925TIP3   OH226717   2.129   2.282   2.475
 8925TIP3    H126718   2.195   2.214   2.479
 8925TIP3    H226719   2.059   2.245   2.421
 8926TIP3   OH226720   7.441   6.518   0.760
 8926TIP3    H126721   7.488   6.459   0.819
 8926TIP3    H226722   7.472   6.605   0.784
 8927TIP3   OH226723   6.579   0.299   0.526
 8927TIP3    H126724   6.528   0.218   0.529
 8927TIP3    H226725   6.519   0.367   0.556
 8928TIP3   OH226726   4.061   2.215   2.223
 8928TIP3    H126727   4.099   2.131   2.247
 8928TIP3    H226728   3.969   2.208   2.247
 8929TIP3   OH226729   3.679   0.538   1.369
 8929TIP3    H126730   3.601   0.582   1.401
 8929TIP3    H226731   3.745   0.553   1.437
 8930TIP3   OH226732   2.446   7.633   2.972
 8930TIP3    H126733   2.470   7.544   2.943
 8930TIP3    H226734   2.354   7.626   2.998
 8931TIP3   OH226735   5.262   2.974   5.120
 8931TIP3    H126736   5.181   2.924   5.122
 8931TIP3    H226737   5.276   2.994   5.027
 8932TIP3   OH226738   1.202   7.390   2.654
 8932TIP3    H126739   1.201   7.429   2.566
 8932TIP3    H226740   1.223   7.463   2.712
 8933TIP3   OH226741   6.030   5.879   1.015
 8933TIP3    H126742   6.036   5.953   0.955
 8933TIP3    H226743   5.953   5.830   0.986
 8934TIP3   OH226744   1.069   3.045   0.164
 8934TIP3    H126745   0.999   2.982   0.147
 8934TIP3    H226746   1.150   2.995   0.153
 8935TIP3   OH226747   0.763   6.865   4.711
 8935TIP3    H126748   0.742   6.772   4.722
 8935TIP3    H226749   0.768   6.898   4.801
 8936TIP3   OH226750   6.772   4.324   0.135
 8936TIP3    H126751   6.718   4.253   0.100
 8936TIP3    H226752   6.792   4.378   0.058
 8937TIP3   OH226753   0.577   5.912   6.582
 8937TIP3    H126754   0.582   5.838   6.642
 8937TIP3    H226755   0.633   5.979   6.622
 8938TIP3   OH226756   1.042   2.630   4.083
 8938TIP3    H126757   0.967   2.687   4.098
 8938TIP3    H226758   1.009   2.560   4.026
 8939TIP3   OH226759   0.076   1.483   2.086
 8939TIP3    H126760   0.069   1.394   2.051
 8939TIP3    H226761   0.020   1.536   2.029
 8940TIP3   OH226762   5.851   2.534   3.090
 8940TIP3    H126763   5.851   2.448   3.132
 8940TIP3    H226764   5.786   2.527   3.020
 8941TIP3   OH226765   4.329   1.502   6.269
 8941TIP3    H126766   4.352   1.548   6.350
 8941TIP3    H226767   4.409   1.506   6.215
 8942TIP3   OH226768   0.295   6.671   3.736
 8942TIP3    H126769   0.252   6.638   3.657
 8942TIP3    H226770   0.387   6.648   3.724
 8943TIP3   OH226771   4.150   0.022   2.996
 8943TIP3    H126772   4.204   0.024   3.074
 8943TIP3    H226773   4.117   0.111   2.987
 8944TIP3   OH226774   1.129   3.609   2.784
 8944TIP3    H126775   1.109   3.646   2.698
 8944TIP3    H226776   1.224   3.605   2.787
 8945TIP3   OH226777   6.206   2.732   0.461
 8945TIP3    H126778   6.115   2.745   0.436
 8945TIP3    H226779   6.230   2.811   0.509
 8946TIP3   OH226780   7.935   3.803   0.045
 8946TIP3    H126781   7.851   3.766   0.074
 8946TIP3    H226782   7.955   3.755  -0.035
 8947TIP3   OH226783   5.977   2.493   2.769
 8947TIP3    H126784   5.982   2.398   2.778
 8947TIP3    H226785   6.032   2.526   2.840
 8948TIP3   OH226786   1.558   1.199   6.360
 8948TIP3    H126787   1.521   1.176   6.275
 8948TIP3    H226788   1.582   1.115   6.399
 8949TIP3   OH226789   4.842   1.757   3.643
 8949TIP3    H126790   4.876   1.776   3.730
 8949TIP3    H226791   4.753   1.792   3.644
 8950TIP3   OH226792   1.687   0.510   5.186
 8950TIP3    H126793   1.721   0.510   5.275
 8950TIP3    H226794   1.765   0.503   5.131
 8951TIP3   OH226795   6.992   0.787   3.577
 8951TIP3    H126796   7.056   0.759   3.643
 8951TIP3    H226797   7.012   0.880   3.563
 8952TIP3   OH226798   7.025   6.163   5.259
 8952TIP3    H126799   7.082   6.089   5.238
 8952TIP3    H226800   6.940   6.123   5.279
 8953TIP3   OH226801   8.023   3.408   4.026
 8953TIP3    H126802   8.047   3.442   3.940
 8953TIP3    H226803   8.081   3.454   4.087
 8954TIP3   OH226804   5.028   0.543   1.061
 8954TIP3    H126805   5.115   0.545   1.020
 8954TIP3    H226806   4.970   0.579   0.994
 8955TIP3   OH226807   3.032   4.105   4.488
 8955TIP3    H126808   2.954   4.050   4.489
 8955TIP3    H226809   3.102   4.047   4.459
 8956TIP3   OH226810   4.334   5.689   5.324
 8956TIP3    H126811   4.321   5.773   5.368
 8956TIP3    H226812   4.400   5.707   5.257
 8957TIP3   OH226813   1.355   5.545   5.703
 8957TIP3    H126814   1.403   5.497   5.636
 8957TIP3    H226815   1.303   5.479   5.748
 8958TIP3   OH226816   7.205   1.750   5.706
 8958TIP3    H126817   7.118   1.751   5.666
 8958TIP3    H226818   7.259   1.699   5.646
 8959TIP3   OH226819   6.059   3.958   1.406
 8959TIP3    H126820   6.018   3.911   1.478
 8959TIP3    H226821   6.148   3.925   1.402
 8960TIP3   OH226822   1.911   0.626   0.256
 8960TIP3    H126823   1.998   0.646   0.291
 8960TIP3    H226824   1.853   0.633   0.331
 8961TIP3   OH226825   3.511   6.395   2.821
 8961TIP3    H126826   3.521   6.317   2.766
 8961TIP3    H226827   3.555   6.372   2.903
 8962TIP3   OH226828   5.969   5.212   6.646
 8962TIP3    H126829   5.935   5.294   6.680
 8962TIP3    H226830   5.993   5.161   6.724
 8963TIP3   OH226831   7.909   1.540   3.201
 8963TIP3    H126832   7.962   1.460   3.199
 8963TIP3    H226833   7.871   1.546   3.113
 8964TIP3   OH226834   4.434   0.317   5.487
 8964TIP3    H126835   4.482   0.351   5.411
 8964TIP3    H226836   4.501   0.301   5.553
 8965TIP3   OH226837   1.824   0.272   3.648
 8965TIP3    H126838   1.749   0.250   3.593
 8965TIP3    H226839   1.854   0.357   3.614
 8966TIP3   OH226840   2.126   5.009   3.616
 8966TIP3    H126841   2.044   5.013   3.568
 8966TIP3    H226842   2.105   5.045   3.702
 8967TIP3   OH226843   8.228   1.687   0.719
 8967TIP3    H126844   8.137   1.716   0.728
 8967TIP3    H226845   8.273   1.761   0.676
 8968TIP3   OH226846   2.747   0.008   5.337
 8968TIP3    H126847   2.662   0.050   5.348
 8968TIP3    H226848   2.749  -0.017   5.244
 8969TIP3   OH226849   1.289   5.762   3.241
 8969TIP3    H126850   1.291   5.775   3.146
 8969TIP3    H226851   1.378   5.781   3.270
 8970TIP3   OH226852   7.409   5.523   2.267
 8970TIP3    H126853   7.490   5.473   2.271
 8970TIP3    H226854   7.419   5.590   2.335
 8971TIP3   OH226855   2.540   4.202   1.344
 8971TIP3    H126856   2.521   4.295   1.362
 8971TIP3    H226857   2.630   4.202   1.311
 8972TIP3   OH226858   3.065   1.435   4.450
 8972TIP3    H126859   3.089   1.438   4.357
 8972TIP3    H226860   3.037   1.524   4.471
 8973TIP3   OH226861   1.128   2.731   5.949
 8973TIP3    H126862   1.220   2.740   5.923
 8973TIP3    H226863   1.116   2.794   6.019
 8974TIP3   OH226864   6.792   5.377   1.489
 8974TIP3    H126865   6.883   5.368   1.461
 8974TIP3    H226866   6.798   5.424   1.572
 8975TIP3   OH226867   5.305   3.826   2.845
 8975TIP3    H126868   5.368   3.760   2.873
 8975TIP3    H226869   5.354   3.883   2.787
 8976TIP3   OH226870   2.116   2.182   0.543
 8976TIP3    H126871   2.035   2.207   0.500
 8976TIP3    H226872   2.105   2.208   0.634
 8977TIP3   OH226873   1.442   3.559   4.523
 8977TIP3    H126874   1.475   3.635   4.571
 8977TIP3    H226875   1.353   3.547   4.556
 8978TIP3   OH226876   3.278   0.298   5.241
 8978TIP3    H126877   3.355   0.254   5.279
 8978TIP3    H226878   3.304   0.389   5.234
 8979TIP3   OH226879   4.690   6.305   4.668
 8979TIP3    H126880   4.737   6.259   4.738
 8979TIP3    H226881   4.598   6.287   4.685
 8980TIP3   OH226882   2.606   6.326   6.200
 8980TIP3    H126883   2.533   6.359   6.147
 8980TIP3    H226884   2.566   6.303   6.284
 8981TIP3   OH226885   3.245   0.670   6.518
 8981TIP3    H126886   3.152   0.693   6.522
 8981TIP3    H226887   3.249   0.578   6.542
 8982TIP3   OH226888   4.660   2.302   4.489
 8982TIP3    H126889   4.589   2.283   4.427
 8982TIP3    H226890   4.622   2.365   4.550
 8983TIP3   OH226891   0.561   0.368   3.313
 8983TIP3    H126892   0.636   0.427   3.322
 8983TIP3    H226893   0.556   0.323   3.397
 8984TIP3   OH226894   1.930   3.988   2.088
 8984TIP3    H126895   1.896   4.064   2.136
 8984TIP3    H226896   1.912   4.008   1.996
 8985TIP3   OH226897   0.555   5.721   4.216
 8985TIP3    H126898   0.551   5.810   4.182
 8985TIP3    H226899   0.567   5.666   4.139
 8986TIP3   OH226900   7.079   6.906   0.604
 8986TIP3    H126901   7.116   6.860   0.528
 8986TIP3    H226902   7.127   6.989   0.608
 8987TIP3   OH226903   2.906   4.683   4.444
 8987TIP3    H126904   2.927   4.654   4.356
 8987TIP3    H226905   2.860   4.609   4.484
 8988TIP3   OH226906   6.285   4.144   4.234
 8988TIP3    H126907   6.193   4.160   4.252
 8988TIP3    H226908   6.306   4.202   4.161
 8989TIP3   OH226909   4.077   4.816   5.989
 8989TIP3    H126910   4.068   4.724   6.012
 8989TIP3    H226911   3.995   4.838   5.944
 8990TIP3   OH226912   7.982   6.893   1.198
 8990TIP3    H126913   8.037   6.909   1.122
 8990TIP3    H226914   8.036   6.838   1.255
 8991TIP3   OH226915   6.190   1.690   1.395
 8991TIP3    H126916   6.177   1.691   1.490
 8991TIP3    H226917   6.103   1.671   1.359
 8992TIP3   OH226918   4.936   5.021   5.712
 8992TIP3    H126919   5.010   4.964   5.734
 8992TIP3    H226920   4.874   4.964   5.667
 8993TIP3   OH226921   4.110   1.830   5.313
 8993TIP3    H126922   4.131   1.915   5.274
 8993TIP3    H226923   4.046   1.792   5.253
 8994TIP3   OH226924   4.610   3.238   5.943
 8994TIP3    H126925   4.613   3.192   6.027
 8994TIP3    H226926   4.656   3.320   5.958
 8995TIP3   OH226927   5.961   6.529   5.435
 8995TIP3    H126928   5.938   6.621   5.447
 8995TIP3    H226929   6.010   6.527   5.353
 8996TIP3   OH226930   7.527   7.222   0.575
 8996TIP3    H126931   7.544   7.313   0.550
 8996TIP3    H226932   7.568   7.170   0.506
 8997TIP3   OH226933   3.431   4.966   0.906
 8997TIP3    H126934   3.522   4.945   0.929
 8997TIP3    H226935   3.415   5.051   0.947
 8998TIP3   OH226936   1.317   1.854   3.859
 8998TIP3    H126937   1.257   1.852   3.934
 8998TIP3    H226938   1.280   1.920   3.801
 8999TIP3   OH226939   1.211   2.435   5.331
 8999TIP3    H126940   1.258   2.505   5.285
 8999TIP3    H226941   1.270   2.359   5.323
 9000TIP3   OH226942   4.533   6.100   5.073
 9000TIP3    H126943   4.449   6.147   5.072
 9000TIP3    H226944   4.509   6.009   5.092
 9001TIP3   OH226945   4.932   1.886   4.499
 9001TIP3    H126946   4.910   1.979   4.497
 9001TIP3    H226947   4.925   1.863   4.592
 9002TIP3   OH226948   0.715   7.765   1.365
 9002TIP3    H126949   0.752   7.751   1.278
 9002TIP3    H226950   0.757   7.845   1.397
 9003TIP3   OH226951   6.812   1.400   0.025
 9003TIP3    H126952   6.860   1.426  -0.054
 9003TIP3    H226953   6.849   1.453   0.095
 9004TIP3   OH226954   3.764   0.164   1.912
 9004TIP3    H126955   3.822   0.202   1.978
 9004TIP3    H226956   3.707   0.236   1.885
 9005TIP3   OH226957   7.000   0.954   1.172
 9005TIP3    H126958   7.019   0.861   1.179
 9005TIP3    H226959   7.081   0.992   1.137
 9006TIP3   OH226960   0.227   0.382   4.055
 9006TIP3    H126961   0.308   0.383   4.004
 9006TIP3    H226962   0.229   0.299   4.102
 9007TIP3   OH226963   4.901   5.637   0.447
 9007TIP3    H126964   4.972   5.699   0.465
 9007TIP3    H226965   4.823   5.691   0.439
 9008TIP3   OH226966   0.088   2.256   4.294
 9008TIP3    H126967   0.180   2.280   4.296
 9008TIP3    H226968   0.061   2.270   4.203
 9009TIP3   OH226969   3.675   4.108   2.692
 9009TIP3    H126970   3.621   4.165   2.637
 9009TIP3    H226971   3.717   4.048   2.630
 9010TIP3   OH226972   6.730   0.054   2.221
 9010TIP3    H126973   6.742   0.148   2.227
 9010TIP3    H226974   6.701   0.028   2.308
 9011TIP3   OH226975   5.346   6.366   4.798
 9011TIP3    H126976   5.330   6.414   4.879
 9011TIP3    H226977   5.412   6.300   4.821
 9012TIP3   OH226978   4.463   5.115   5.726
 9012TIP3    H126979   4.372   5.142   5.736
 9012TIP3    H226980   4.514   5.194   5.746
 9013TIP3   OH226981   7.241   7.694   2.263
 9013TIP3    H126982   7.181   7.629   2.227
 9013TIP3    H226983   7.319   7.643   2.286
 9014TIP3   OH226984   5.861   0.700   4.921
 9014TIP3    H126985   5.920   0.752   4.867
 9014TIP3    H226986   5.836   0.626   4.866
 9015TIP3   OH226987   1.357   6.271   0.023
 9015TIP3    H126988   1.272   6.315   0.031
 9015TIP3    H226989   1.343   6.203  -0.042
 9016TIP3   OH226990   4.043   4.016   1.958
 9016TIP3    H126991   4.054   3.924   1.935
 9016TIP3    H226992   4.011   4.014   2.048
 9017TIP3   OH226993   5.439   5.002   2.357
 9017TIP3    H126994   5.409   5.073   2.415
 9017TIP3    H226995   5.473   4.936   2.417
 9018TIP3   OH226996   6.312   6.700   0.282
 9018TIP3    H126997   6.338   6.764   0.215
 9018TIP3    H226998   6.254   6.640   0.236
 9019TIP3   OH226999   5.870   7.198   6.090
 9019TIP3    H127000   5.945   7.143   6.066
 9019TIP3    H227001   5.904   7.256   6.158
 9020TIP3   OH227002   7.001   6.495   6.528
 9020TIP3    H127003   6.972   6.408   6.554
 9020TIP3    H227004   7.088   6.481   6.489
 9021TIP3   OH227005   8.078   5.188   3.343
 9021TIP3    H127006   8.096   5.256   3.278
 9021TIP3    H227007   8.053   5.111   3.291
 9022TIP3   OH227008   3.972   3.151   6.606
 9022TIP3    H127009   3.929   3.082   6.555
 9022TIP3    H227010   4.056   3.165   6.562
 9023TIP3   OH227011   7.137   0.402   0.983
 9023TIP3    H127012   7.163   0.311   0.998
 9023TIP3    H227013   7.155   0.418   0.890
 9024TIP3   OH227014   4.676   1.989   4.945
 9024TIP3    H127015   4.751   2.033   4.904
 9024TIP3    H227016   4.700   1.982   5.037
 9025TIP3   OH227017   5.012   5.127   0.933
 9025TIP3    H127018   4.922   5.130   0.966
 9025TIP3    H227019   5.063   5.171   1.001
 9026TIP3   OH227020   7.620   2.505   4.882
 9026TIP3    H127021   7.549   2.446   4.907
 9026TIP3    H227022   7.582   2.564   4.818
 9027TIP3   OH227023   0.939   0.469   0.237
 9027TIP3    H127024   0.953   0.378   0.212
 9027TIP3    H227025   0.963   0.520   0.160
 9028TIP3   OH227026   6.134   2.847   5.178
 9028TIP3    H127027   6.173   2.760   5.184
 9028TIP3    H227028   6.146   2.885   5.265
 9029TIP3   OH227029   1.828   3.608   0.711
 9029TIP3    H127030   1.742   3.629   0.746
 9029TIP3    H227031   1.844   3.675   0.645
 9030TIP3   OH227032   0.065   5.112   4.340
 9030TIP3    H127033   0.133   5.125   4.405
 9030TIP3    H227034   0.088   5.171   4.269
 9031TIP3   OH227035   1.607   0.075   1.127
 9031TIP3    H127036   1.582  -0.008   1.168
 9031TIP3    H227037   1.699   0.065   1.104
 9032TIP3   OH227038   4.693   5.664   6.400
 9032TIP3    H127039   4.702   5.741   6.344
 9032TIP3    H227040   4.777   5.657   6.445
 9033TIP3   OH227041   7.171   5.223   6.496
 9033TIP3    H127042   7.234   5.154   6.475
 9033TIP3    H227043   7.198   5.254   6.582
 9034TIP3   OH227044   5.271   0.381   4.208
 9034TIP3    H127045   5.212   0.307   4.221
 9034TIP3    H227046   5.344   0.345   4.158
 9035TIP3   OH227047   0.991   0.819   5.454
 9035TIP3    H127048   1.000   0.871   5.374
 9035TIP3    H227049   1.018   0.878   5.524
 9036TIP3   OH227050   3.357   0.622   5.793
 9036TIP3    H127051   3.420   0.562   5.833
 9036TIP3    H227052   3.286   0.566   5.763
 9037TIP3   OH227053   0.489   1.118   5.978
 9037TIP3    H127054   0.423   1.118   6.047
 9037TIP3    H227055   0.572   1.137   6.023
 9038TIP3   OH227056   3.392   1.621   6.466
 9038TIP3    H127057   3.465   1.582   6.418
 9038TIP3    H227058   3.352   1.547   6.512
 9039TIP3   OH227059   4.770   1.548   4.250
 9039TIP3    H127060   4.680   1.558   4.218
 9039TIP3    H227061   4.816   1.625   4.216
 9040TIP3   OH227062   3.546   5.612   5.912
 9040TIP3    H127063   3.598   5.533   5.895
 9040TIP3    H227064   3.538   5.614   6.008
 9041TIP3   OH227065   3.181   0.285   3.673
 9041TIP3    H127066   3.239   0.276   3.597
 9041TIP3    H227067   3.203   0.370   3.711
 9042TIP3   OH227068   5.034   1.906   3.035
 9042TIP3    H127069   4.964   1.850   3.001
 9042TIP3    H227070   4.997   1.994   3.032
 9043TIP3   OH227071   5.560   4.120   3.129
 9043TIP3    H127072   5.583   4.212   3.115
 9043TIP3    H227073   5.474   4.123   3.170
 9044TIP3   OH227074   7.037   0.478   5.494
 9044TIP3    H127075   6.996   0.458   5.579
 9044TIP3    H227076   7.008   0.567   5.474
 9045TIP3   OH227077   6.991   6.364   3.239
 9045TIP3    H127078   7.040   6.444   3.220
 9045TIP3    H227079   7.021   6.302   3.172
 9046TIP3   OH227080   3.846   7.305   6.394
 9046TIP3    H127081   3.752   7.292   6.387
 9046TIP3    H227082   3.870   7.352   6.314
 9047TIP3   OH227083   0.917   3.035   2.692
 9047TIP3    H127084   0.922   3.131   2.691
 9047TIP3    H227085   0.997   3.007   2.648
 9048TIP3   OH227086   8.236   5.747   0.681
 9048TIP3    H127087   8.173   5.722   0.614
 9048TIP3    H227088   8.312   5.779   0.632
 9049TIP3   OH227089   3.666   0.390   0.618
 9049TIP3    H127090   3.583   0.342   0.620
 9049TIP3    H227091   3.662   0.449   0.693
 9050TIP3   OH227092   0.701   5.512   5.326
 9050TIP3    H127093   0.687   5.437   5.268
 9050TIP3    H227094   0.644   5.494   5.401
 9051TIP3   OH227095   1.992   4.856   3.968
 9051TIP3    H127096   2.004   4.776   3.917
 9051TIP3    H227097   1.901   4.852   3.997
 9052TIP3   OH227098   5.247   6.767   6.695
 9052TIP3    H127099   5.171   6.727   6.652
 9052TIP3    H227100   5.321   6.714   6.667
 9053TIP3   OH227101   3.947   5.273   0.867
 9053TIP3    H127102   4.040   5.276   0.889
 9053TIP3    H227103   3.926   5.362   0.841
 9054TIP3   OH227104   4.174   6.407   5.342
 9054TIP3    H127105   4.185   6.470   5.413
 9054TIP3    H227106   4.103   6.443   5.289
 9055TIP3   OH227107   5.955   0.164   1.652
 9055TIP3    H127108   6.010   0.140   1.578
 9055TIP3    H227109   5.875   0.197   1.612
 9056TIP3   OH227110   5.554   4.267   3.882
 9056TIP3    H127111   5.490   4.216   3.833
 9056TIP3    H227112   5.638   4.244   3.843
 9057TIP3   OH227113   2.178   1.805   0.348
 9057TIP3    H127114   2.258   1.796   0.400
 9057TIP3    H227115   2.182   1.894   0.314
 9058TIP3   OH227116   0.159   1.237   5.872
 9058TIP3    H127117   0.112   1.157   5.896
 9058TIP3    H227118   0.094   1.307   5.880
 9059TIP3   OH227119   4.191   6.183   6.171
 9059TIP3    H127120   4.281   6.173   6.141
 9059TIP3    H227121   4.140   6.128   6.112
 9060TIP3   OH227122   4.974   5.256   5.038
 9060TIP3    H127123   5.039   5.203   4.993
 9060TIP3    H227124   4.932   5.195   5.099
 9061TIP3   OH227125   8.017   1.563   5.931
 9061TIP3    H127126   7.979   1.549   6.018
 9061TIP3    H227127   7.948   1.539   5.870
 9062TIP3   OH227128   5.551   3.848   2.221
 9062TIP3    H127129   5.492   3.773   2.228
 9062TIP3    H227130   5.493   3.925   2.225
 9063TIP3   OH227131   6.027   0.801   4.747
 9063TIP3    H127132   6.012   0.877   4.690
 9063TIP3    H227133   6.118   0.811   4.776
 9064TIP3   OH227134   4.224   2.374   3.935
 9064TIP3    H127135   4.243   2.291   3.980
 9064TIP3    H227136   4.230   2.352   3.842
 9065TIP3   OH227137   2.532   6.785   3.554
 9065TIP3    H127138   2.627   6.790   3.542
 9065TIP3    H227139   2.520   6.720   3.622
 9066TIP3   OH227140   4.330   0.372   5.071
 9066TIP3    H127141   4.376   0.302   5.026
 9066TIP3    H227142   4.383   0.450   5.056
 9067TIP3   OH227143   3.074   6.088   2.687
 9067TIP3    H127144   2.986   6.126   2.684
 9067TIP3    H227145   3.060   5.994   2.699
 9068TIP3   OH227146   4.220   7.310   4.496
 9068TIP3    H127147   4.307   7.344   4.516
 9068TIP3    H227148   4.194   7.358   4.417
 9069TIP3   OH227149   6.739   3.641   5.055
 9069TIP3    H127150   6.833   3.655   5.056
 9069TIP3    H227151   6.703   3.718   5.099
 9070TIP3   OH227152   0.679   6.512   1.910
 9070TIP3    H127153   0.694   6.540   1.820
 9070TIP3    H227154   0.615   6.574   1.945
 9071TIP3   OH227155   4.997   3.012   4.234
 9071TIP3    H127156   4.949   2.938   4.271
 9071TIP3    H227157   4.975   3.013   4.141
 9072TIP3   OH227158   2.700   5.862   2.580
 9072TIP3    H127159   2.636   5.798   2.613
 9072TIP3    H227160   2.779   5.846   2.631
 9073TIP3   OH227161   6.076   1.184   2.272
 9073TIP3    H127162   6.171   1.190   2.269
 9073TIP3    H227163   6.046   1.219   2.188
 9074TIP3   OH227164   1.949   3.648   0.964
 9074TIP3    H127165   1.918   3.654   0.873
 9074TIP3    H227166   1.885   3.591   1.007
 9075TIP3   OH227167   6.610   6.556   3.654
 9075TIP3    H127168   6.543   6.608   3.698
 9075TIP3    H227169   6.690   6.610   3.660
 9076TIP3   OH227170   1.652   1.357   1.005
 9076TIP3    H127171   1.708   1.424   1.045
 9076TIP3    H227172   1.703   1.325   0.930
 9077TIP3   OH227173   6.255   0.198   3.613
 9077TIP3    H127174   6.211   0.138   3.552
 9077TIP3    H227175   6.270   0.144   3.691
 9078TIP3   OH227176   0.664   4.688   4.833
 9078TIP3    H127177   0.745   4.692   4.784
 9078TIP3    H227178   0.632   4.779   4.833
 9079TIP3   OH227179   1.090   1.171   4.503
 9079TIP3    H127180   1.013   1.151   4.556
 9079TIP3    H227181   1.084   1.266   4.487
 9080TIP3   OH227182   7.367   7.451   0.071
 9080TIP3    H127183   7.287   7.493   0.041
 9080TIP3    H227184   7.348   7.422   0.160
 9081TIP3   OH227185   5.799   7.257   4.914
 9081TIP3    H127186   5.834   7.215   4.835
 9081TIP3    H227187   5.871   7.310   4.947
 9082TIP3   OH227188   1.025   5.859   2.986
 9082TIP3    H127189   1.085   5.831   2.916
 9082TIP3    H227190   0.967   5.922   2.944
 9083TIP3   OH227191   0.464   7.122   1.133
 9083TIP3    H127192   0.529   7.189   1.114
 9083TIP3    H227193   0.408   7.160   1.201
 9084TIP3   OH227194   6.272   3.770   5.763
 9084TIP3    H127195   6.292   3.744   5.852
 9084TIP3    H227196   6.254   3.864   5.769
 9085TIP3   OH227197   3.746   1.047   3.611
 9085TIP3    H127198   3.778   0.977   3.669
 9085TIP3    H227199   3.818   1.062   3.550
 9086TIP3   OH227200   1.871   4.022   1.826
 9086TIP3    H127201   1.789   3.990   1.790
 9086TIP3    H227202   1.912   4.071   1.755
 9087TIP3   OH227203   0.864   6.620   4.363
 9087TIP3    H127204   0.833   6.619   4.454
 9087TIP3    H227205   0.948   6.664   4.368
 9088TIP3   OH227206   7.653   0.691   3.414
 9088TIP3    H127207   7.623   0.738   3.493
 9088TIP3    H227208   7.580   0.698   3.353
 9089TIP3   OH227209   0.220   1.774   0.425
 9089TIP3    H127210   0.222   1.817   0.510
 9089TIP3    H227211   0.224   1.847   0.362
 9090TIP3   OH227212   7.914   0.191   5.297
 9090TIP3    H127213   7.844   0.256   5.302
 9090TIP3    H227214   7.920   0.169   5.204
 9091TIP3   OH227215   1.604   6.163   2.055
 9091TIP3    H127216   1.633   6.219   2.127
 9091TIP3    H227217   1.676   6.101   2.044
 9092TIP3   OH227218   4.300   3.659   0.695
 9092TIP3    H127219   4.254   3.618   0.769
 9092TIP3    H227220   4.295   3.753   0.714
 9093TIP3   OH227221   0.497   4.022   4.863
 9093TIP3    H127222   0.577   4.000   4.910
 9093TIP3    H227223   0.517   4.104   4.817
 9094TIP3   OH227224   6.306   7.725   5.233
 9094TIP3    H127225   6.368   7.797   5.240
 9094TIP3    H227226   6.290   7.716   5.139
 9095TIP3   OH227227   5.343   7.486   2.575
 9095TIP3    H127228   5.362   7.425   2.504
 9095TIP3    H227229   5.399   7.458   2.647
 9096TIP3   OH227230   6.884   6.476   0.127
 9096TIP3    H127231   6.832   6.426   0.190
 9096TIP3    H227232   6.819   6.525   0.076
 9097TIP3   OH227233   6.012   0.662   1.023
 9097TIP3    H127234   6.056   0.743   1.049
 9097TIP3    H227235   5.938   0.690   0.970
 9098TIP3   OH227236   0.834   2.331   3.522
 9098TIP3    H127237   0.854   2.424   3.513
 9098TIP3    H227238   0.920   2.288   3.526
 9099TIP3   OH227239   6.639   3.622   2.167
 9099TIP3    H127240   6.689   3.609   2.086
 9099TIP3    H227241   6.587   3.701   2.151
 9100TIP3   OH227242   4.325   5.573   1.606
 9100TIP3    H127243   4.232   5.594   1.598
 9100TIP3    H227244   4.337   5.556   1.700
 9101TIP3   OH227245   1.420   1.728   1.543
 9101TIP3    H127246   1.348   1.772   1.589
 9101TIP3    H227247   1.426   1.775   1.459
 9102TIP3   OH227248   2.909   1.269   0.514
 9102TIP3    H127249   2.820   1.283   0.483
 9102TIP3    H227250   2.912   1.311   0.600
 9103TIP3   OH227251   7.647   5.882   0.039
 9103TIP3    H127252   7.708   5.914  -0.029
 9103TIP3    H227253   7.598   5.812  -0.004
 9104TIP3   OH227254   6.172   5.306   3.337
 9104TIP3    H127255   6.121   5.367   3.391
 9104TIP3    H227256   6.109   5.270   3.275
 9105TIP3   OH227257   5.346   7.013   6.785
 9105TIP3    H127258   5.316   6.923   6.772
 9105TIP3    H227259   5.274   7.068   6.756
 9106TIP3   OH227260   0.708   3.810   5.544
 9106TIP3    H127261   0.784   3.835   5.491
 9106TIP3    H227262   0.636   3.803   5.482
 9107TIP3   OH227263   7.659   0.145   6.108
 9107TIP3    H127264   7.647   0.056   6.076
 9107TIP3    H227265   7.570   0.180   6.115
 9108TIP3   OH227266   7.535   4.582   3.539
 9108TIP3    H127267   7.449   4.618   3.516
 9108TIP3    H227268   7.515   4.506   3.594
 9109TIP3   OH227269   6.882   6.527   1.663
 9109TIP3    H127270   6.819   6.530   1.736
 9109TIP3    H227271   6.872   6.612   1.620
 9110TIP3   OH227272   0.092   6.386   1.537
 9110TIP3    H127273   0.079   6.444   1.462
 9110TIP3    H227274   0.057   6.434   1.612
 9111TIP3   OH227275   0.135   6.735   5.432
 9111TIP3    H127276   0.050   6.754   5.392
 9111TIP3    H227277   0.164   6.654   5.389
 9112TIP3   OH227278   1.591   2.943   5.161
 9112TIP3    H127279   1.545   2.865   5.190
 9112TIP3    H227280   1.537   3.016   5.189
 9113TIP3   OH227281   6.122   0.063   0.329
 9113TIP3    H127282   6.049   0.039   0.386
 9113TIP3    H227283   6.154  -0.021   0.295
 9114TIP3   OH227284   3.591   6.945   1.566
 9114TIP3    H127285   3.559   6.856   1.547
 9114TIP3    H227286   3.686   6.937   1.567
 9115TIP3   OH227287   5.620   0.387   4.468
 9115TIP3    H127288   5.651   0.472   4.437
 9115TIP3    H227289   5.606   0.400   4.562
 9116TIP3   OH227290   7.799   0.422   4.075
 9116TIP3    H127291   7.872   0.483   4.068
 9116TIP3    H227292   7.822   0.351   4.015
 9117TIP3   OH227293   6.259   0.507   1.968
 9117TIP3    H127294   6.181   0.452   1.961
 9117TIP3    H227295   6.275   0.536   1.878
 9118TIP3   OH227296   1.222   3.778   0.902
 9118TIP3    H127297   1.164   3.765   0.977
 9118TIP3    H227298   1.310   3.772   0.938
 9119TIP3   OH227299   3.636   5.097   1.754
 9119TIP3    H127300   3.691   5.022   1.734
 9119TIP3    H227301   3.601   5.078   1.841
 9120TIP3   OH227302   5.339   2.502   2.259
 9120TIP3    H127303   5.327   2.528   2.168
 9120TIP3    H227304   5.401   2.565   2.295
 9121TIP3   OH227305   4.206   1.172   0.151
 9121TIP3    H127306   4.174   1.083   0.161
 9121TIP3    H227307   4.141   1.215   0.096
 9122TIP3   OH227308   3.994   5.402   4.809
 9122TIP3    H127309   4.035   5.489   4.801
 9122TIP3    H227310   3.993   5.385   4.903
 9123TIP3   OH227311   7.241   3.585   0.912
 9123TIP3    H127312   7.300   3.574   0.986
 9123TIP3    H227313   7.247   3.502   0.864
 9124TIP3   OH227314   1.833   1.621   5.786
 9124TIP3    H127315   1.926   1.631   5.808
 9124TIP3    H227316   1.826   1.534   5.746
 9125TIP3   OH227317   0.615   4.971   4.810
 9125TIP3    H127318   0.635   5.050   4.861
 9125TIP3    H227319   0.658   4.986   4.726
 9126TIP3   OH227320   5.519   6.068   3.594
 9126TIP3    H127321   5.471   6.099   3.517
 9126TIP3    H227322   5.487   5.979   3.608
 9127TIP3   OH227323   4.805   4.158   5.507
 9127TIP3    H127324   4.870   4.215   5.547
 9127TIP3    H227325   4.744   4.218   5.464
 9128TIP3   OH227326   2.220   0.830   1.359
 9128TIP3    H127327   2.247   0.760   1.418
 9128TIP3    H227328   2.185   0.785   1.282
 9129TIP3   OH227329   0.194   2.273   3.395
 9129TIP3    H127330   0.115   2.245   3.349
 9129TIP3    H227331   0.197   2.368   3.382
 9130TIP3   OH227332   4.961   4.022   1.823
 9130TIP3    H127333   4.932   3.971   1.748
 9130TIP3    H227334   4.989   4.106   1.785
 9131TIP3   OH227335   5.998   7.232   6.541
 9131TIP3    H127336   5.924   7.171   6.538
 9131TIP3    H227337   6.074   7.176   6.526
 9132TIP3   OH227338   3.059   2.473   6.401
 9132TIP3    H127339   3.037   2.491   6.310
 9132TIP3    H227340   2.984   2.505   6.451
 9133TIP3   OH227341   3.736   1.229   6.063
 9133TIP3    H127342   3.747   1.272   5.978
 9133TIP3    H227343   3.642   1.223   6.076
 9134TIP3   OH227344   8.000   7.413   3.218
 9134TIP3    H127345   7.951   7.410   3.301
 9134TIP3    H227346   8.049   7.331   3.216
 9135TIP3   OH227347   3.442   6.769   6.208
 9135TIP3    H127348   3.512   6.712   6.176
 9135TIP3    H227349   3.363   6.738   6.165
 9136TIP3   OH227350   0.344   5.126   3.790
 9136TIP3    H127351   0.303   5.209   3.814
 9136TIP3    H227352   0.394   5.101   3.868
 9137TIP3   OH227353   2.823   1.938   6.628
 9137TIP3    H127354   2.887   2.004   6.600
 9137TIP3    H227355   2.851   1.857   6.585
 9138TIP3   OH227356   3.679   1.756   5.221
 9138TIP3    H127357   3.596   1.760   5.269
 9138TIP3    H227358   3.660   1.704   5.144
 9139TIP3   OH227359   3.032   5.399   4.229
 9139TIP3    H127360   2.956   5.422   4.282
 9139TIP3    H227361   3.017   5.443   4.146
 9140TIP3   OH227362   0.188   4.803   3.299
 9140TIP3    H127363   0.140   4.761   3.370
 9140TIP3    H227364   0.186   4.896   3.320
 9141TIP3   OH227365   0.841   4.674   0.571
 9141TIP3    H127366   0.803   4.756   0.541
 9141TIP3    H227367   0.921   4.700   0.618
 9142TIP3   OH227368   0.281   5.913   6.766
 9142TIP3    H127369   0.228   5.867   6.701
 9142TIP3    H227370   0.327   5.981   6.718
 9143TIP3   OH227371   1.974   4.704   3.671
 9143TIP3    H127372   1.883   4.695   3.699
 9143TIP3    H227373   2.010   4.615   3.680
 9144TIP3   OH227374   3.031   0.947   2.000
 9144TIP3    H127375   3.083   0.896   1.938
 9144TIP3    H227376   3.088   0.959   2.075
 9145TIP3   OH227377   2.879   4.967   1.754
 9145TIP3    H127378   2.790   4.932   1.757
 9145TIP3    H227379   2.935   4.889   1.750
 9146TIP3   OH227380   2.416   3.548   3.281
 9146TIP3    H127381   2.334   3.529   3.327
 9146TIP3    H227382   2.391   3.553   3.188
 9147TIP3   OH227383   3.528   1.141   4.933
 9147TIP3    H127384   3.522   1.052   4.900
 9147TIP3    H227385   3.503   1.197   4.859
 9148TIP3   OH227386   5.644   3.421   5.044
 9148TIP3    H127387   5.693   3.366   4.982
 9148TIP3    H227388   5.636   3.367   5.123
 9149TIP3   OH227389   5.084   1.967   4.858
 9149TIP3    H127390   5.114   2.018   4.933
 9149TIP3    H227391   5.157   1.908   4.839
 9150TIP3   OH227392   8.168   5.344   5.448
 9150TIP3    H127393   8.203   5.370   5.363
 9150TIP3    H227394   8.202   5.256   5.462
 9151TIP3   OH227395   1.553   6.980   6.060
 9151TIP3    H127396   1.570   7.064   6.017
 9151TIP3    H227397   1.586   6.992   6.149
 9152TIP3   OH227398   7.432   4.310   6.265
 9152TIP3    H127399   7.412   4.265   6.347
 9152TIP3    H227400   7.503   4.370   6.286
 9153TIP3   OH227401   2.609   1.288   2.894
 9153TIP3    H127402   2.627   1.382   2.897
 9153TIP3    H227403   2.519   1.282   2.861
 9154TIP3   OH227404   3.411   3.866   3.509
 9154TIP3    H127405   3.407   3.795   3.446
 9154TIP3    H227406   3.332   3.917   3.494
 9155TIP3   OH227407   1.424   2.050   2.325
 9155TIP3    H127408   1.363   2.121   2.308
 9155TIP3    H227409   1.384   1.973   2.284
 9156TIP3   OH227410   7.041   5.797   2.113
 9156TIP3    H127411   7.095   5.844   2.049
 9156TIP3    H227412   6.996   5.866   2.161
 9157TIP3   OH227413   1.440   2.863   1.636
 9157TIP3    H127414   1.404   2.775   1.636
 9157TIP3    H227415   1.462   2.879   1.728
 9158TIP3   OH227416   5.572   0.508   5.897
 9158TIP3    H127417   5.567   0.566   5.822
 9158TIP3    H227418   5.635   0.550   5.956
 9159TIP3   OH227419   3.241   5.224   5.559
 9159TIP3    H127420   3.178   5.164   5.519
 9159TIP3    H227421   3.326   5.193   5.527
 9160TIP3   OH227422   1.170   2.236   4.182
 9160TIP3    H127423   1.141   2.144   4.182
 9160TIP3    H227424   1.232   2.241   4.254
 9161TIP3   OH227425   3.950   5.800   2.902
 9161TIP3    H127426   3.858   5.795   2.876
 9161TIP3    H227427   3.959   5.731   2.969
 9162TIP3   OH227428   7.599   5.470   4.680
 9162TIP3    H127429   7.625   5.525   4.607
 9162TIP3    H227430   7.535   5.409   4.644
 9163TIP3   OH227431   5.766   5.102   5.653
 9163TIP3    H127432   5.724   5.107   5.739
 9163TIP3    H227433   5.709   5.045   5.601
 9164TIP3   OH227434   7.322   0.683   2.662
 9164TIP3    H127435   7.248   0.625   2.683
 9164TIP3    H227436   7.288   0.771   2.675
 9165TIP3   OH227437   6.653   7.424   3.069
 9165TIP3    H127438   6.639   7.331   3.086
 9165TIP3    H227439   6.738   7.443   3.109
 9166TIP3   OH227440   5.429   0.371   6.678
 9166TIP3    H127441   5.368   0.307   6.715
 9166TIP3    H227442   5.383   0.408   6.603
 9167TIP3   OH227443   5.137   3.888   4.178
 9167TIP3    H127444   5.131   3.806   4.227
 9167TIP3    H227445   5.055   3.893   4.129
 9168TIP3   OH227446   5.280   0.575   0.944
 9168TIP3    H127447   5.334   0.496   0.937
 9168TIP3    H227448   5.281   0.613   0.856
 9169TIP3   OH227449   2.371   7.672   1.730
 9169TIP3    H127450   2.278   7.695   1.729
 9169TIP3    H227451   2.375   7.588   1.775
 9170TIP3   OH227452   1.176   7.323   5.730
 9170TIP3    H127453   1.172   7.408   5.773
 9170TIP3    H227454   1.196   7.261   5.800
 9171TIP3   OH227455   2.646   2.856   1.167
 9171TIP3    H127456   2.690   2.883   1.247
 9171TIP3    H227457   2.718   2.834   1.107
 9172TIP3   OH227458   6.890   0.818   6.005
 9172TIP3    H127459   6.975   0.827   6.048
 9172TIP3    H227460   6.905   0.850   5.916
 9173TIP3   OH227461   7.362   2.479   3.455
 9173TIP3    H127462   7.311   2.448   3.530
 9173TIP3    H227463   7.427   2.537   3.493
 9174TIP3   OH227464   7.556   2.660   3.561
 9174TIP3    H127465   7.574   2.728   3.626
 9174TIP3    H227466   7.544   2.708   3.479
 9175TIP3   OH227467   2.547   3.024   4.722
 9175TIP3    H127468   2.627   2.995   4.679
 9175TIP3    H227469   2.479   3.015   4.656
 9176TIP3   OH227470   1.874   3.177   1.773
 9176TIP3    H127471   1.848   3.138   1.689
 9176TIP3    H227472   1.889   3.101   1.830
 9177TIP3   OH227473   3.155   1.074   5.886
 9177TIP3    H127474   3.133   1.142   5.822
 9177TIP3    H227475   3.235   1.034   5.851
 9178TIP3   OH227476   7.019   5.669   6.556
 9178TIP3    H127477   6.948   5.719   6.597
 9178TIP3    H227478   7.076   5.736   6.517
 9179TIP3   OH227479   0.556   5.356   1.428
 9179TIP3    H127480   0.567   5.341   1.521
 9179TIP3    H227481   0.475   5.309   1.406
 9180TIP3   OH227482   1.328   1.362   0.775
 9180TIP3    H127483   1.395   1.294   0.765
 9180TIP3    H227484   1.353   1.430   0.713
 9181TIP3   OH227485   2.691   6.917   4.845
 9181TIP3    H127486   2.727   6.995   4.889
 9181TIP3    H227487   2.641   6.952   4.772
 9182TIP3   OH227488   5.235   2.803   4.300
 9182TIP3    H127489   5.169   2.827   4.234
 9182TIP3    H227490   5.291   2.880   4.307
 9183TIP3   OH227491   7.416   5.343   1.222
 9183TIP3    H127492   7.453   5.376   1.304
 9183TIP3    H227493   7.485   5.354   1.157
 9184TIP3   OH227494   1.818   1.698   4.160
 9184TIP3    H127495   1.852   1.779   4.200
 9184TIP3    H227496   1.871   1.686   4.081
 9185TIP3   OH227497   5.109   1.023   6.510
 9185TIP3    H127498   5.037   1.079   6.482
 9185TIP3    H227499   5.076   0.978   6.588
 9186TIP3   OH227500   4.363   0.001   3.174
 9186TIP3    H127501   4.417  -0.046   3.238
 9186TIP3    H227502   4.380   0.094   3.192
 9187TIP3   OH227503   1.982   6.222   4.707
 9187TIP3    H127504   2.053   6.181   4.756
 9187TIP3    H227505   2.015   6.309   4.684
 9188TIP3   OH227506   0.547   0.946   6.687
 9188TIP3    H127507   0.602   0.906   6.620
 9188TIP3    H227508   0.510   1.024   6.645
 9189TIP3   OH227509   7.961   7.131   0.809
 9189TIP3    H127510   7.892   7.096   0.754
 9189TIP3    H227511   7.998   7.055   0.853
 9190TIP3   OH227512   1.821   0.727   1.564
 9190TIP3    H127513   1.817   0.632   1.572
 9190TIP3    H227514   1.776   0.759   1.642
 9191TIP3   OH227515   4.111   7.789   1.050
 9191TIP3    H127516   4.017   7.807   1.055
 9191TIP3    H227517   4.120   7.730   0.974
 9192TIP3   OH227518   4.378   2.357   3.096
 9192TIP3    H127519   4.308   2.399   3.046
 9192TIP3    H227520   4.444   2.333   3.030
 9193TIP3   OH227521   3.598   2.960   3.417
 9193TIP3    H127522   3.507   2.934   3.404
 9193TIP3    H227523   3.634   2.896   3.477
 9194TIP3   OH227524   4.734   1.963   0.680
 9194TIP3    H127525   4.817   1.914   0.687
 9194TIP3    H227526   4.755   2.050   0.713
 9195TIP3   OH227527   2.029   0.096   4.871
 9195TIP3    H127528   2.044   0.137   4.785
 9195TIP3    H227529   1.958   0.035   4.856
 9196TIP3   OH227530   1.070   0.264   3.672
 9196TIP3    H127531   1.143   0.250   3.611
 9196TIP3    H227532   1.079   0.355   3.700
 9197TIP3   OH227533   2.425   5.104   1.483
 9197TIP3    H127534   2.333   5.131   1.488
 9197TIP3    H227535   2.465   5.140   1.561
 9198TIP3   OH227536   2.673   4.305   3.298
 9198TIP3    H127537   2.748   4.246   3.296
 9198TIP3    H227538   2.623   4.284   3.219
 9199TIP3   OH227539   4.606   0.156   3.737
 9199TIP3    H127540   4.624   0.138   3.644
 9199TIP3    H227541   4.627   0.249   3.748
 9200TIP3   OH227542   1.474   0.586   4.199
 9200TIP3    H127543   1.431   0.661   4.158
 9200TIP3    H227544   1.413   0.513   4.187
 9201TIP3   OH227545   3.067   6.691   1.589
 9201TIP3    H127546   3.131   6.622   1.607
 9201TIP3    H227547   3.013   6.695   1.669
 9202TIP3   OH227548   8.060   4.602   2.271
 9202TIP3    H127549   7.990   4.660   2.301
 9202TIP3    H227550   8.041   4.587   2.178
 9203TIP3   OH227551   2.439   1.107   3.993
 9203TIP3    H127552   2.487   1.190   3.998
 9203TIP3    H227553   2.417   1.086   4.083
 9204TIP3   OH227554   1.699   7.121   0.443
 9204TIP3    H127555   1.666   7.111   0.532
 9204TIP3    H227556   1.789   7.150   0.453
 9205TIP3   OH227557   0.708   1.346   6.238
 9205TIP3    H127558   0.739   1.343   6.328
 9205TIP3    H227559   0.714   1.438   6.213
 9206TIP3   OH227560   3.286   2.995   5.919
 9206TIP3    H127561   3.373   3.033   5.932
 9206TIP3    H227562   3.235   3.024   5.995
 9207TIP3   OH227563   2.130   2.002   3.446
 9207TIP3    H127564   2.189   1.927   3.454
 9207TIP3    H227565   2.187   2.078   3.454
 9208TIP3   OH227566   1.485   5.055   3.047
 9208TIP3    H127567   1.413   5.075   3.107
 9208TIP3    H227568   1.467   4.966   3.018
 9209TIP3   OH227569   3.497   6.589   5.940
 9209TIP3    H127570   3.419   6.626   5.982
 9209TIP3    H227571   3.491   6.495   5.955
 9210TIP3   OH227572   6.893   2.316   3.699
 9210TIP3    H127573   6.893   2.383   3.631
 9210TIP3    H227574   6.953   2.248   3.667
 9211TIP3   OH227575   8.194   0.968   1.320
 9211TIP3    H127576   8.261   0.936   1.260
 9211TIP3    H227577   8.201   0.911   1.396
 9212TIP3   OH227578   3.288   1.470   3.446
 9212TIP3    H127579   3.315   1.550   3.401
 9212TIP3    H227580   3.311   1.485   3.538
 9213TIP3   OH227581   5.179   2.368   0.146
 9213TIP3    H127582   5.086   2.387   0.151
 9213TIP3    H227583   5.221   2.454   0.143
 9214TIP3   OH227584   4.555   7.466   5.474
 9214TIP3    H127585   4.519   7.394   5.422
 9214TIP3    H227586   4.628   7.499   5.422
 9215TIP3   OH227587   1.080   3.781   1.168
 9215TIP3    H127588   1.142   3.827   1.224
 9215TIP3    H227589   1.013   3.748   1.227
 9216TIP3   OH227590   5.889   5.454   2.466
 9216TIP3    H127591   5.948   5.386   2.433
 9216TIP3    H227592   5.947   5.516   2.511
 9217TIP3   OH227593   5.217   6.555   5.359
 9217TIP3    H127594   5.249   6.642   5.334
 9217TIP3    H227595   5.229   6.502   5.281
 9218TIP3   OH227596   6.517   3.009   1.547
 9218TIP3    H127597   6.559   3.083   1.504
 9218TIP3    H227598   6.451   3.048   1.604
 9219TIP3   OH227599   1.709   4.081   4.156
 9219TIP3    H127600   1.687   4.029   4.233
 9219TIP3    H227601   1.804   4.073   4.148
 9220TIP3   OH227602   6.014   6.739   4.168
 9220TIP3    H127603   5.937   6.795   4.174
 9220TIP3    H227604   5.980   6.650   4.166
 9221TIP3   OH227605   1.863   1.941   2.779
 9221TIP3    H127606   1.885   2.016   2.834
 9221TIP3    H227607   1.838   1.979   2.695
 9222TIP3   OH227608   2.154   6.010   0.369
 9222TIP3    H127609   2.066   6.037   0.341
 9222TIP3    H227610   2.202   6.092   0.379
 9223TIP3   OH227611   2.136   0.807   0.933
 9223TIP3    H127612   2.107   0.749   1.003
 9223TIP3    H227613   2.232   0.801   0.936
 9224TIP3   OH227614   7.483   2.519   2.451
 9224TIP3    H127615   7.412   2.574   2.418
 9224TIP3    H227616   7.457   2.430   2.428
 9225TIP3   OH227617   4.619   0.628   6.175
 9225TIP3    H127618   4.613   0.534   6.160
 9225TIP3    H227619   4.699   0.639   6.226
 9226TIP3   OH227620   4.093   4.642   1.076
 9226TIP3    H127621   4.005   4.649   1.114
 9226TIP3    H227622   4.116   4.732   1.053
 9227TIP3   OH227623   7.811   3.635   4.716
 9227TIP3    H127624   7.723   3.635   4.753
 9227TIP3    H227625   7.817   3.553   4.668
 9228TIP3   OH227626   4.393   6.819   4.311
 9228TIP3    H127627   4.356   6.811   4.399
 9228TIP3    H227628   4.317   6.822   4.253
 9229TIP3   OH227629   7.568   4.053   1.786
 9229TIP3    H127630   7.488   4.000   1.797
 9229TIP3    H227631   7.581   4.057   1.691
 9230TIP3   OH227632   1.545   1.986   6.574
 9230TIP3    H127633   1.555   1.929   6.498
 9230TIP3    H227634   1.511   2.068   6.539
 9231TIP3   OH227635   6.872   7.071   6.411
 9231TIP3    H127636   6.779   7.049   6.411
 9231TIP3    H227637   6.876   7.158   6.449
 9232TIP3   OH227638   1.739   6.186   4.616
 9232TIP3    H127639   1.826   6.216   4.642
 9232TIP3    H227640   1.745   6.090   4.618
 9233TIP3   OH227641   4.708   7.772   0.703
 9233TIP3    H127642   4.744   7.845   0.652
 9233TIP3    H227643   4.631   7.745   0.654
 9234TIP3   OH227644   1.581   7.653   1.988
 9234TIP3    H127645   1.582   7.561   1.961
 9234TIP3    H227646   1.551   7.700   1.910
 9235TIP3   OH227647   8.156   3.191   5.217
 9235TIP3    H127648   8.124   3.281   5.224
 9235TIP3    H227649   8.215   3.180   5.292
 9236TIP3   OH227650   1.645   0.191   3.274
 9236TIP3    H127651   1.657   0.241   3.193
 9236TIP3    H227652   1.575   0.128   3.252
 9237TIP3   OH227653   4.766   4.742   0.444
 9237TIP3    H127654   4.855   4.712   0.429
 9237TIP3    H227655   4.762   4.758   0.538
 9238TIP3   OH227656   8.005   6.714   3.264
 9238TIP3    H127657   7.962   6.672   3.190
 9238TIP3    H227658   8.018   6.644   3.328
 9239TIP3   OH227659   2.913   4.925  -0.020
 9239TIP3    H127660   2.880   4.894  -0.105
 9239TIP3    H227661   2.898   4.852   0.040
 9240TIP3   OH227662   7.202   2.760   5.285
 9240TIP3    H127663   7.292   2.762   5.317
 9240TIP3    H227664   7.206   2.710   5.204
 9241TIP3   OH227665   3.193   2.905   2.699
 9241TIP3    H127666   3.197   2.839   2.630
 9241TIP3    H227667   3.280   2.903   2.739
 9242TIP3   OH227668   1.714   1.316   0.620
 9242TIP3    H127669   1.808   1.327   0.637
 9242TIP3    H227670   1.704   1.336   0.527
 9243TIP3   OH227671   4.146   0.589   2.350
 9243TIP3    H127672   4.078   0.577   2.416
 9243TIP3    H227673   4.221   0.624   2.399
 9244TIP3   OH227674   5.020   5.556   1.697
 9244TIP3    H127675   5.000   5.462   1.689
 9244TIP3    H227676   4.946   5.600   1.655
 9245TIP3   OH227677   6.633   5.364   5.187
 9245TIP3    H127678   6.574   5.314   5.131
 9245TIP3    H227679   6.704   5.392   5.130
 9246TIP3   OH227680   3.782   4.868   1.642
 9246TIP3    H127681   3.809   4.810   1.714
 9246TIP3    H227682   3.819   4.828   1.564
 9247TIP3   OH227683   7.437   2.917   0.357
 9247TIP3    H127684   7.346   2.944   0.350
 9247TIP3    H227685   7.463   2.940   0.446
 9248TIP3   OH227686   0.337   0.332   4.959
 9248TIP3    H127687   0.293   0.417   4.954
 9248TIP3    H227688   0.398   0.333   4.884
 9249TIP3   OH227689   6.454   2.494   3.409
 9249TIP3    H127690   6.527   2.503   3.471
 9249TIP3    H227691   6.386   2.448   3.458
 9250TIP3   OH227692   3.633   6.461   1.270
 9250TIP3    H127693   3.611   6.457   1.178
 9250TIP3    H227694   3.728   6.447   1.273
 9251TIP3   OH227695   5.261   5.178   5.764
 9251TIP3    H127696   5.190   5.234   5.793
 9251TIP3    H227697   5.227   5.089   5.775
 9252TIP3   OH227698   1.423   3.867   3.353
 9252TIP3    H127699   1.391   3.839   3.267
 9252TIP3    H227700   1.516   3.845   3.352
 9253TIP3   OH227701   6.790   4.144   3.795
 9253TIP3    H127702   6.871   4.123   3.842
 9253TIP3    H227703   6.726   4.160   3.864
 9254TIP3   OH227704   5.085   6.647   2.182
 9254TIP3    H127705   4.991   6.633   2.195
 9254TIP3    H227706   5.107   6.720   2.239
 9255TIP3   OH227707   6.720   3.499   4.144
 9255TIP3    H127708   6.789   3.491   4.078
 9255TIP3    H227709   6.740   3.431   4.208
 9256TIP3   OH227710   5.325   3.138   1.689
 9256TIP3    H127711   5.398   3.080   1.709
 9256TIP3    H227712   5.348   3.179   1.605
 9257TIP3   OH227713   2.154   5.282   2.162
 9257TIP3    H127714   2.194   5.343   2.224
 9257TIP3    H227715   2.224   5.221   2.138
 9258TIP3   OH227716   1.571   1.092   0.980
 9258TIP3    H127717   1.489   1.109   1.026
 9258TIP3    H227718   1.626   1.168   1.001
 9259TIP3   OH227719   8.106   2.907   1.829
 9259TIP3    H127720   8.116   2.939   1.739
 9259TIP3    H227721   8.177   2.949   1.878
 9260TIP3   OH227722   3.544   3.936   5.785
 9260TIP3    H127723   3.543   3.997   5.711
 9260TIP3    H227724   3.540   3.850   5.746
 9261TIP3   OH227725   0.526   6.081   3.803
 9261TIP3    H127726   0.590   6.084   3.732
 9261TIP3    H227727   0.578   6.087   3.883
 9262TIP3   OH227728   5.804   5.869   5.456
 9262TIP3    H127729   5.774   5.887   5.545
 9262TIP3    H227730   5.796   5.953   5.411
 9263TIP3   OH227731   3.178   3.751   5.433
 9263TIP3    H127732   3.112   3.682   5.430
 9263TIP3    H227733   3.177   3.781   5.524
 9264TIP3   OH227734   0.114   1.650   2.810
 9264TIP3    H127735   0.166   1.728   2.828
 9264TIP3    H227736   0.056   1.674   2.738
 9265TIP3   OH227737   0.681   6.188   3.577
 9265TIP3    H127738   0.591   6.217   3.560
 9265TIP3    H227739   0.722   6.188   3.490
 9266TIP3   OH227740   2.624   1.239   1.752
 9266TIP3    H127741   2.642   1.145   1.749
 9266TIP3    H227742   2.711   1.280   1.752
 9267TIP3   OH227743   3.218   3.361   4.787
 9267TIP3    H127744   3.137   3.324   4.823
 9267TIP3    H227745   3.190   3.407   4.708
 9268TIP3   OH227746   2.684   5.190   4.394
 9268TIP3    H127747   2.665   5.129   4.466
 9268TIP3    H227748   2.642   5.150   4.318
 9269TIP3   OH227749   2.332   5.619   0.342
 9269TIP3    H127750   2.384   5.541   0.321
 9269TIP3    H227751   2.389   5.693   0.320
 9270TIP3   OH227752   3.465   4.817   1.765
 9270TIP3    H127753   3.496   4.832   1.855
 9270TIP3    H227754   3.544   4.802   1.715
 9271TIP3   OH227755   1.812   6.762   3.168
 9271TIP3    H127756   1.767   6.713   3.237
 9271TIP3    H227757   1.751   6.832   3.145
 9272TIP3   OH227758   4.296   1.838   4.915
 9272TIP3    H127759   4.293   1.749   4.950
 9272TIP3    H227760   4.389   1.854   4.898
 9273TIP3   OH227761   6.470   4.630   2.161
 9273TIP3    H127762   6.483   4.666   2.249
 9273TIP3    H227763   6.472   4.706   2.103
 9274TIP3   OH227764   7.763   4.629   1.789
 9274TIP3    H127765   7.731   4.658   1.875
 9274TIP3    H227766   7.858   4.639   1.794
 9275TIP3   OH227767   0.103   1.628   6.485
 9275TIP3    H127768   0.156   1.662   6.413
 9275TIP3    H227769   0.102   1.533   6.471
 9276TIP3   OH227770   4.262   1.897   2.944
 9276TIP3    H127771   4.236   1.956   3.015
 9276TIP3    H227772   4.349   1.926   2.918
 9277TIP3   OH227773   0.077   2.904   3.379
 9277TIP3    H127774  -0.011   2.922   3.345
 9277TIP3    H227775   0.063   2.884   3.471
 9278TIP3   OH227776   3.156   1.682   0.251
 9278TIP3    H127777   3.250   1.669   0.265
 9278TIP3    H227778   3.120   1.692   0.339
 9279TIP3   OH227779   1.098   1.571   6.511
 9279TIP3    H127780   1.053   1.600   6.432
 9279TIP3    H227781   1.091   1.475   6.510
 9280TIP3   OH227782   0.899   0.721   2.340
 9280TIP3    H127783   0.827   0.662   2.362
 9280TIP3    H227784   0.909   0.713   2.245
 9281TIP3   OH227785   1.736   5.326   2.107
 9281TIP3    H127786   1.720   5.273   2.185
 9281TIP3    H227787   1.652   5.369   2.090
 9282TIP3   OH227788   7.883   1.544   5.705
 9282TIP3    H127789   7.797   1.572   5.672
 9282TIP3    H227790   7.932   1.521   5.626
 9283TIP3   OH227791   6.577   1.953   6.064
 9283TIP3    H127792   6.632   1.960   5.986
 9283TIP3    H227793   6.554   1.860   6.069
 9284TIP3   OH227794   4.171   6.322   2.100
 9284TIP3    H127795   4.251   6.280   2.069
 9284TIP3    H227796   4.183   6.415   2.078
 9285TIP3   OH227797   2.831   7.063   0.491
 9285TIP3    H127798   2.769   6.991   0.487
 9285TIP3    H227799   2.789   7.134   0.442
 9286TIP3   OH227800   8.260   6.339   1.225
 9286TIP3    H127801   8.301   6.252   1.219
 9286TIP3    H227802   8.243   6.364   1.134
 9287TIP3   OH227803   0.300   4.127   0.179
 9287TIP3    H127804   0.263   4.203   0.225
 9287TIP3    H227805   0.388   4.118   0.214
 9288TIP3   OH227806   6.841   6.455   5.206
 9288TIP3    H127807   6.900   6.530   5.210
 9288TIP3    H227808   6.827   6.431   5.298
 9289TIP3   OH227809   0.772   6.430   1.366
 9289TIP3    H127810   0.827   6.508   1.361
 9289TIP3    H227811   0.735   6.432   1.454
 9290TIP3   OH227812   4.584   0.499   5.024
 9290TIP3    H127813   4.589   0.595   5.026
 9290TIP3    H227814   4.654   0.470   5.083
 9291TIP3   OH227815   6.725   1.794   1.390
 9291TIP3    H127816   6.805   1.760   1.428
 9291TIP3    H227817   6.656   1.770   1.452
 9292TIP3   OH227818   7.268   1.518   4.899
 9292TIP3    H127819   7.217   1.588   4.939
 9292TIP3    H227820   7.326   1.487   4.968
 9293TIP3   OH227821   1.124   4.746   6.472
 9293TIP3    H127822   1.112   4.704   6.557
 9293TIP3    H227823   1.040   4.788   6.454
 9294TIP3   OH227824   4.568   1.399   4.440
 9294TIP3    H127825   4.567   1.485   4.482
 9294TIP3    H227826   4.522   1.412   4.357
 9295TIP3   OH227827   1.675   0.194   1.586
 9295TIP3    H127828   1.725   0.116   1.563
 9295TIP3    H227829   1.639   0.224   1.503
 9296TIP3   OH227830   6.583   5.829   2.396
 9296TIP3    H127831   6.581   5.893   2.326
 9296TIP3    H227832   6.656   5.771   2.374
 9297TIP3   OH227833   0.462   1.520   6.079
 9297TIP3    H127834   0.542   1.537   6.030
 9297TIP3    H227835   0.391   1.536   6.017
 9298TIP3   OH227836   3.551   2.230   1.408
 9298TIP3    H127837   3.457   2.245   1.411
 9298TIP3    H227838   3.562   2.142   1.444
 9299TIP3   OH227839   1.181   6.763   3.373
 9299TIP3    H127840   1.095   6.733   3.344
 9299TIP3    H227841   1.178   6.858   3.359
 9300TIP3   OH227842   3.716   5.536   5.042
 9300TIP3    H127843   3.696   5.603   4.977
 9300TIP3    H227844   3.781   5.577   5.100
 9301TIP3   OH227845   6.354   1.924   5.748
 9301TIP3    H127846   6.379   1.832   5.749
 9301TIP3    H227847   6.322   1.941   5.837
 9302TIP3   OH227848   1.644   6.399   0.655
 9302TIP3    H127849   1.638   6.316   0.608
 9302TIP3    H227850   1.588   6.386   0.733
 9303TIP3   OH227851   7.847   0.498   6.255
 9303TIP3    H127852   7.809   0.464   6.174
 9303TIP3    H227853   7.772   0.535   6.303
 9304TIP3   OH227854   3.281   7.090   4.952
 9304TIP3    H127855   3.251   7.174   4.917
 9304TIP3    H227856   3.209   7.029   4.934
 9305TIP3   OH227857   3.503   7.629   0.964
 9305TIP3    H127858   3.440   7.698   0.944
 9305TIP3    H227859   3.512   7.581   0.881
 9306TIP3   OH227860   2.630   7.145  -0.044
 9306TIP3    H127861   2.614   7.051  -0.051
 9306TIP3    H227862   2.630   7.162   0.050
 9307TIP3   OH227863   1.494   1.813   0.466
 9307TIP3    H127864   1.584   1.786   0.448
 9307TIP3    H227865   1.449   1.806   0.382
 9308TIP3   OH227866   2.831   7.371   2.837
 9308TIP3    H127867   2.766   7.341   2.774
 9308TIP3    H227868   2.833   7.466   2.825
 9309TIP3   OH227869   5.030   3.840   5.216
 9309TIP3    H127870   5.022   3.852   5.311
 9309TIP3    H227871   5.098   3.902   5.190
 9310TIP3   OH227872   1.052   4.514   4.281
 9310TIP3    H127873   1.016   4.552   4.201
 9310TIP3    H227874   0.985   4.451   4.309
 9311TIP3   OH227875   2.597   3.076   1.882
 9311TIP3    H127876   2.668   3.073   1.818
 9311TIP3    H227877   2.553   3.159   1.864
 9312TIP3   OH227878   6.955   7.103   3.641
 9312TIP3    H127879   7.046   7.073   3.641
 9312TIP3    H227880   6.928   7.097   3.732
 9313TIP3   OH227881   6.866   2.941   0.648
 9313TIP3    H127882   6.938   3.004   0.651
 9313TIP3    H227883   6.909   2.856   0.660
 9314TIP3   OH227884   0.477   5.270   6.646
 9314TIP3    H127885   0.425   5.343   6.680
 9314TIP3    H227886   0.528   5.239   6.722
 9315TIP3   OH227887   3.089   6.031   6.778
 9315TIP3    H127888   3.173   5.985   6.774
 9315TIP3    H227889   3.033   5.984   6.717
 9316TIP3   OH227890   0.930   1.680   6.330
 9316TIP3    H127891   0.873   1.720   6.396
 9316TIP3    H227892   0.869   1.644   6.265
 9317TIP3   OH227893   4.668   5.569   4.855
 9317TIP3    H127894   4.664   5.632   4.783
 9317TIP3    H227895   4.724   5.499   4.822
 9318TIP3   OH227896   0.540   3.690   2.070
 9318TIP3    H127897   0.447   3.666   2.078
 9318TIP3    H227898   0.545   3.736   1.986
 9319TIP3   OH227899   0.417   2.433   5.007
 9319TIP3    H127900   0.402   2.429   5.101
 9319TIP3    H227901   0.330   2.419   4.968
 9320TIP3   OH227902   0.283   1.339   1.720
 9320TIP3    H127903   0.195   1.317   1.689
 9320TIP3    H227904   0.340   1.314   1.647
 9321TIP3   OH227905   3.234   2.611   4.659
 9321TIP3    H127906   3.202   2.702   4.662
 9321TIP3    H227907   3.299   2.607   4.729
 9322TIP3   OH227908   5.088   4.000   2.559
 9322TIP3    H127909   5.116   4.050   2.635
 9322TIP3    H227910   5.087   4.063   2.487
 9323TIP3   OH227911   1.945   7.175   3.344
 9323TIP3    H127912   1.994   7.169   3.262
 9323TIP3    H227913   2.011   7.162   3.412
 9324TIP3   OH227914   7.949   2.196   4.492
 9324TIP3    H127915   7.970   2.103   4.504
 9324TIP3    H227916   8.033   2.240   4.489
 9325TIP3   OH227917   7.891   2.606   2.879
 9325TIP3    H127918   7.837   2.674   2.917
 9325TIP3    H227919   7.854   2.524   2.910
 9326TIP3   OH227920   3.242   4.005   4.023
 9326TIP3    H127921   3.185   3.963   4.087
 9326TIP3    H227922   3.330   3.997   4.060
 9327TIP3   OH227923   3.305   1.514   1.739
 9327TIP3    H127924   3.227   1.528   1.685
 9327TIP3    H227925   3.366   1.583   1.712
 9328TIP3   OH227926   2.877   7.305   2.350
 9328TIP3    H127927   2.948   7.369   2.355
 9328TIP3    H227928   2.900   7.248   2.277
 9329TIP3   OH227929   7.879   4.632   0.892
 9329TIP3    H127930   7.876   4.698   0.961
 9329TIP3    H227931   7.972   4.611   0.883
 9330TIP3   OH227932   2.836   0.502   0.551
 9330TIP3    H127933   2.831   0.579   0.494
 9330TIP3    H227934   2.803   0.430   0.497
 9331TIP3   OH227935   5.113   0.828   6.312
 9331TIP3    H127936   5.094   0.911   6.357
 9331TIP3    H227937   5.159   0.854   6.232
 9332TIP3   OH227938   8.082   6.767   2.288
 9332TIP3    H127939   8.008   6.724   2.244
 9332TIP3    H227940   8.104   6.841   2.231
 9333TIP3   OH227941   7.535   7.784   5.205
 9333TIP3    H127942   7.543   7.696   5.168
 9333TIP3    H227943   7.482   7.832   5.141
 9334TIP3   OH227944   6.727   3.530   6.257
 9334TIP3    H127945   6.806   3.548   6.310
 9334TIP3    H227946   6.660   3.507   6.322
 9335TIP3   OH227947   6.275   0.309   5.750
 9335TIP3    H127948   6.301   0.363   5.674
 9335TIP3    H227949   6.239   0.371   5.812
 9336TIP3   OH227950   3.027   5.176   6.661
 9336TIP3    H127951   3.072   5.213   6.585
 9336TIP3    H227952   3.052   5.233   6.734
 9337TIP3   OH227953   5.649   4.433   2.806
 9337TIP3    H127954   5.667   4.423   2.712
 9337TIP3    H227955   5.595   4.357   2.828
 9338TIP3   OH227956   0.109   4.339   5.218
 9338TIP3    H127957   0.202   4.360   5.209
 9338TIP3    H227958   0.070   4.372   5.136
 9339TIP3   OH227959   7.151   4.097   5.977
 9339TIP3    H127960   7.071   4.148   5.964
 9339TIP3    H227961   7.122   4.006   5.971
 9340TIP3   OH227962   0.826   3.716   1.899
 9340TIP3    H127963   0.788   3.797   1.933
 9340TIP3    H227964   0.896   3.746   1.840
 9341TIP3   OH227965   4.493   7.328   4.225
 9341TIP3    H127966   4.532   7.252   4.268
 9341TIP3    H227967   4.477   7.391   4.296
 9342TIP3   OH227968   7.694   2.080   3.413
 9342TIP3    H127969   7.605   2.095   3.444
 9342TIP3    H227970   7.726   2.166   3.386
 9343TIP3   OH227971   6.829   1.160   5.447
 9343TIP3    H127972   6.899   1.212   5.487
 9343TIP3    H227973   6.796   1.107   5.520
 9344TIP3   OH227974   0.436   4.765   0.200
 9344TIP3    H127975   0.450   4.743   0.107
 9344TIP3    H227976   0.363   4.828   0.199
 9345TIP3   OH227977   4.365   1.898   1.157
 9345TIP3    H127978   4.381   1.952   1.079
 9345TIP3    H227979   4.330   1.816   1.122
 9346TIP3   OH227980   2.129   3.843   5.374
 9346TIP3    H127981   2.171   3.776   5.428
 9346TIP3    H227982   2.117   3.918   5.433
 9347TIP3   OH227983   1.581   1.885   4.800
 9347TIP3    H127984   1.618   1.803   4.768
 9347TIP3    H227985   1.486   1.876   4.785
 9348TIP3   OH227986   2.218   4.944   4.085
 9348TIP3    H127987   2.177   4.987   4.161
 9348TIP3    H227988   2.149   4.889   4.049
 9349TIP3   OH227989   1.052   2.632   1.236
 9349TIP3    H127990   1.114   2.697   1.203
 9349TIP3    H227991   1.043   2.569   1.165
 9350TIP3   OH227992   1.884   2.088   3.197
 9350TIP3    H127993   1.886   1.993   3.190
 9350TIP3    H227994   1.968   2.117   3.161
 9351TIP3   OH227995   4.935   0.234   3.474
 9351TIP3    H127996   4.909   0.145   3.450
 9351TIP3    H227997   4.872   0.291   3.429
 9352TIP3   OH227998   4.826   7.653   0.264
 9352TIP3    H127999   4.915   7.621   0.277
 9352TIP3    H228000   4.810   7.640   0.170
 9353TIP3   OH228001   0.811   3.831   2.594
 9353TIP3    H128002   0.849   3.771   2.530
 9353TIP3    H228003   0.841   3.918   2.566
 9354TIP3   OH228004   7.387   3.817   6.101
 9354TIP3    H128005   7.448   3.889   6.114
 9354TIP3    H228006   7.423   3.768   6.027
 9355TIP3   OH228007   7.981   1.039   4.237
 9355TIP3    H128008   8.050   1.072   4.294
 9355TIP3    H228009   7.938   0.970   4.288
 9356TIP3   OH228010   2.818   1.185   3.411
 9356TIP3    H128011   2.779   1.203   3.326
 9356TIP3    H228012   2.821   1.271   3.455
 9357TIP3   OH228013   1.994   3.653   3.733
 9357TIP3    H128014   1.971   3.567   3.695
 9357TIP3    H228015   1.934   3.714   3.690
 9358TIP3   OH228016   1.455   7.256   2.674
 9358TIP3    H128017   1.386   7.312   2.640
 9358TIP3    H228018   1.413   7.172   2.689
 9359TIP3   OH228019   7.203   5.167   5.288
 9359TIP3    H128020   7.277   5.211   5.244
 9359TIP3    H228021   7.190   5.218   5.368
 9360TIP3   OH228022   6.346   1.227   2.362
 9360TIP3    H128023   6.354   1.171   2.439
 9360TIP3    H228024   6.436   1.237   2.330
 9361TIP3   OH228025   2.169   3.390   6.328
 9361TIP3    H128026   2.190   3.300   6.304
 9361TIP3    H228027   2.254   3.431   6.343
 9362TIP3   OH228028   2.437   2.742   0.963
 9362TIP3    H128029   2.360   2.774   0.916
 9362TIP3    H228030   2.479   2.683   0.901
 9363TIP3   OH228031   5.336   0.929   6.761
 9363TIP3    H128032   5.420   0.883   6.764
 9363TIP3    H228033   5.279   0.871   6.710
 9364TIP3   OH228034   2.400   2.561   5.897
 9364TIP3    H128035   2.351   2.623   5.843
 9364TIP3    H228036   2.486   2.556   5.855
 9365TIP3   OH228037   6.217   1.960   4.641
 9365TIP3    H128038   6.220   1.867   4.661
 9365TIP3    H228039   6.171   1.999   4.716
 9366TIP3   OH228040   4.764   6.195   2.614
 9366TIP3    H128041   4.671   6.173   2.624
 9366TIP3    H228042   4.810   6.116   2.642
 9367TIP3   OH228043   5.421   3.501   0.608
 9367TIP3    H128044   5.417   3.428   0.671
 9367TIP3    H228045   5.369   3.470   0.533
 9368TIP3   OH228046   7.526   4.993   5.106
 9368TIP3    H128047   7.518   5.070   5.050
 9368TIP3    H228048   7.618   4.993   5.133
 9369TIP3   OH228049   5.626   6.490   0.039
 9369TIP3    H128050   5.648   6.399   0.025
 9369TIP3    H228051   5.530   6.492   0.036
 9370TIP3   OH228052   1.360   4.032   5.913
 9370TIP3    H128053   1.324   4.014   6.000
 9370TIP3    H228054   1.388   4.123   5.917
 9371TIP3   OH228055   6.394   4.054   2.986
 9371TIP3    H128056   6.413   4.099   2.903
 9371TIP3    H228057   6.449   3.976   2.983
 9372TIP3   OH228058   1.191   3.481   5.923
 9372TIP3    H128059   1.112   3.521   5.957
 9372TIP3    H228060   1.258   3.549   5.930
 9373TIP3   OH228061   0.739   6.350   5.056
 9373TIP3    H128062   0.834   6.345   5.071
 9373TIP3    H228063   0.700   6.330   5.141
 9374TIP3   OH228064   6.667   1.347   3.550
 9374TIP3    H128065   6.608   1.421   3.563
 9374TIP3    H228066   6.745   1.385   3.511
 9375TIP3   OH228067   7.023   4.192   5.006
 9375TIP3    H128068   7.000   4.265   5.063
 9375TIP3    H228069   6.969   4.204   4.928
 9376TIP3   OH228070   5.578   2.744   0.621
 9376TIP3    H128071   5.641   2.673   0.612
 9376TIP3    H228072   5.493   2.702   0.611
 9377TIP3   OH228073   3.770   4.896   0.410
 9377TIP3    H128074   3.725   4.951   0.475
 9377TIP3    H228075   3.721   4.910   0.329
 9378TIP3   OH228076   2.293   3.991   1.968
 9378TIP3    H128077   2.243   3.915   1.940
 9378TIP3    H228078   2.320   4.033   1.887
 9379TIP3   OH228079   6.754   5.099   2.552
 9379TIP3    H128080   6.679   5.050   2.520
 9379TIP3    H228081   6.817   5.096   2.480
 9380TIP3   OH228082   5.361   3.993   2.385
 9380TIP3    H128083   5.331   3.907   2.356
 9380TIP3    H228084   5.329   4.054   2.318
 9381TIP3   OH228085   6.864   5.633   5.359
 9381TIP3    H128086   6.876   5.662   5.449
 9381TIP3    H228087   6.786   5.680   5.330
 9382TIP3   OH228088   4.600   2.085   5.955
 9382TIP3    H128089   4.687   2.092   5.915
 9382TIP3    H228090   4.545   2.143   5.902
 9383TIP3   OH228091   5.223   3.294   4.759
 9383TIP3    H128092   5.157   3.363   4.749
 9383TIP3    H228093   5.176   3.222   4.800
 9384TIP3   OH228094   3.749   2.600   4.638
 9384TIP3    H128095   3.771   2.517   4.595
 9384TIP3    H228096   3.692   2.575   4.710
 9385TIP3   OH228097   2.272   7.438   5.142
 9385TIP3    H128098   2.205   7.388   5.097
 9385TIP3    H228099   2.352   7.387   5.130
 9386TIP3   OH228100   4.672   2.972   4.750
 9386TIP3    H128101   4.636   2.884   4.763
 9386TIP3    H228102   4.626   3.006   4.674
 9387TIP3   OH228103   8.140   3.455   1.952
 9387TIP3    H128104   8.074   3.451   1.883
 9387TIP3    H228105   8.198   3.381   1.934
 9388TIP3   OH228106   8.192   4.551   6.506
 9388TIP3    H128107   8.134   4.594   6.442
 9388TIP3    H228108   8.270   4.529   6.456
 9389TIP3   OH228109   1.988   1.640   1.053
 9389TIP3    H128110   1.970   1.599   1.138
 9389TIP3    H228111   1.917   1.609   0.996
 9390TIP3   OH228112   4.120   1.283   4.365
 9390TIP3    H128113   4.164   1.199   4.357
 9390TIP3    H228114   4.120   1.319   4.277
 9391TIP3   OH228115   6.037   6.152   0.301
 9391TIP3    H128116   5.948   6.129   0.273
 9391TIP3    H228117   6.034   6.143   0.396
 9392TIP3   OH228118   6.867   1.423   3.192
 9392TIP3    H128119   6.825   1.487   3.134
 9392TIP3    H228120   6.874   1.468   3.276
 9393TIP3   OH228121   3.767   7.221   4.879
 9393TIP3    H128122   3.760   7.193   4.788
 9393TIP3    H228123   3.736   7.145   4.930
 9394TIP3   OH228124   1.885   1.498   3.882
 9394TIP3    H128125   1.916   1.452   3.804
 9394TIP3    H228126   1.962   1.506   3.938
 9395TIP3   OH228127   6.798   4.899   2.902
 9395TIP3    H128128   6.848   4.980   2.894
 9395TIP3    H228129   6.863   4.833   2.929
 9396TIP3   OH228130   5.626   1.870   3.530
 9396TIP3    H128131   5.566   1.804   3.496
 9396TIP3    H228132   5.692   1.880   3.462
 9397TIP3   OH228133   0.599   0.415   4.330
 9397TIP3    H128134   0.660   0.480   4.364
 9397TIP3    H228135   0.646   0.372   4.259
 9398TIP3   OH228136   7.454   0.851   4.178
 9398TIP3    H128137   7.518   0.788   4.145
 9398TIP3    H228138   7.488   0.878   4.264
 9399TIP3   OH228139   2.715   0.087   0.721
 9399TIP3    H128140   2.794   0.066   0.670
 9399TIP3    H228141   2.644   0.079   0.658
 9400TIP3   OH228142   5.132   2.264   3.241
 9400TIP3    H128143   5.171   2.222   3.164
 9400TIP3    H228144   5.207   2.286   3.296
 9401TIP3   OH228145   3.761   6.414   0.795
 9401TIP3    H128146   3.714   6.384   0.717
 9401TIP3    H228147   3.827   6.475   0.763
 9402TIP3   OH228148   7.239   5.275   3.482
 9402TIP3    H128149   7.274   5.186   3.474
 9402TIP3    H228150   7.235   5.307   3.392
 9403TIP3   OH228151   3.643   6.830   3.033
 9403TIP3    H128152   3.554   6.795   3.026
 9403TIP3    H228153   3.650   6.891   2.960
 9404TIP3   OH228154   6.847   4.310   0.871
 9404TIP3    H128155   6.781   4.379   0.867
 9404TIP3    H228156   6.843   4.278   0.961
 9405TIP3   OH228157   6.444   3.182   1.932
 9405TIP3    H128158   6.442   3.193   2.027
 9405TIP3    H228159   6.355   3.200   1.903
 9406TIP3   OH228160   0.606   3.628   0.605
 9406TIP3    H128161   0.547   3.554   0.623
 9406TIP3    H228162   0.625   3.665   0.692
 9407TIP3   OH228163   1.768   2.439   2.887
 9407TIP3    H128164   1.707   2.508   2.915
 9407TIP3    H228165   1.719   2.389   2.822
 9408TIP3   OH228166   0.235   2.207   1.955
 9408TIP3    H128167   0.168   2.247   2.010
 9408TIP3    H228168   0.318   2.240   1.990
 9409TIP3   OH228169   6.317   4.441   3.304
 9409TIP3    H128170   6.268   4.520   3.280
 9409TIP3    H228171   6.285   4.373   3.245
 9410TIP3   OH228172   2.624   4.146   5.746
 9410TIP3    H128173   2.583   4.206   5.808
 9410TIP3    H228174   2.631   4.198   5.665
 9411TIP3   OH228175   4.634   3.845   5.430
 9411TIP3    H128176   4.670   3.798   5.505
 9411TIP3    H228177   4.557   3.890   5.465
 9412TIP3   OH228178   7.365   1.581   5.559
 9412TIP3    H128179   7.424   1.544   5.624
 9412TIP3    H228180   7.422   1.637   5.505
 9413TIP3   OH228181   0.036   4.304   2.358
 9413TIP3    H128182   0.026   4.391   2.396
 9413TIP3    H228183   0.111   4.266   2.403
 9414TIP3   OH228184   3.933   7.248   2.124
 9414TIP3    H128185   4.011   7.295   2.096
 9414TIP3    H228186   3.871   7.258   2.052
 9415TIP3   OH228187   5.567   6.073   1.637
 9415TIP3    H128188   5.518   6.081   1.555
 9415TIP3    H228189   5.519   6.007   1.688
 9416TIP3   OH228190   1.112   3.349   5.268
 9416TIP3    H128191   1.063   3.295   5.207
 9416TIP3    H228192   1.047   3.382   5.329
 9417TIP3   OH228193   0.750   5.506   3.014
 9417TIP3    H128194   0.757   5.496   3.109
 9417TIP3    H228195   0.786   5.593   2.996
 9418TIP3   OH228196   5.267   1.128   1.850
 9418TIP3    H128197   5.192   1.186   1.865
 9418TIP3    H228198   5.342   1.188   1.842
 9419TIP3   OH228199   0.880   4.748   1.945
 9419TIP3    H128200   0.874   4.841   1.922
 9419TIP3    H228201   0.922   4.708   1.869
 9420TIP3   OH228202   3.906   2.072   6.443
 9420TIP3    H128203   3.988   2.096   6.486
 9420TIP3    H228204   3.931   2.051   6.353
 9421TIP3   OH228205   6.506   7.746   1.586
 9421TIP3    H128206   6.593   7.714   1.608
 9421TIP3    H228207   6.500   7.830   1.632
 9422TIP3   OH228208   2.997   1.379   4.706
 9422TIP3    H128209   2.925   1.316   4.708
 9422TIP3    H228210   3.036   1.367   4.620
 9423TIP3   OH228211   2.142   3.334   4.920
 9423TIP3    H128212   2.069   3.294   4.872
 9423TIP3    H228213   2.221   3.295   4.882
 9424TIP3   OH228214   1.708   3.771   1.420
 9424TIP3    H128215   1.792   3.815   1.433
 9424TIP3    H228216   1.719   3.686   1.464
 9425TIP3   OH228217   2.977   4.767   6.480
 9425TIP3    H128218   3.060   4.731   6.449
 9425TIP3    H228219   2.922   4.690   6.494
 9426TIP3   OH228220   2.218   6.139   6.400
 9426TIP3    H128221   2.239   6.067   6.460
 9426TIP3    H228222   2.281   6.208   6.423
 9427TIP3   OH228223   0.913   2.933   1.921
 9427TIP3    H128224   0.877   2.936   2.009
 9427TIP3    H228225   1.005   2.908   1.933
 9428TIP3   OH228226   3.489   1.287   5.156
 9428TIP3    H128227   3.477   1.225   5.228
 9428TIP3    H228228   3.478   1.234   5.077
 9429TIP3   OH228229   3.007   3.498   6.278
 9429TIP3    H128230   2.956   3.469   6.354
 9429TIP3    H228231   2.991   3.432   6.212
 9430TIP3   OH228232   2.402   5.810   1.956
 9430TIP3    H128233   2.335   5.762   2.005
 9430TIP3    H228234   2.379   5.796   1.864
 9431TIP3   OH228235   5.501   7.695   1.990
 9431TIP3    H128236   5.412   7.729   1.996
 9431TIP3    H228237   5.523   7.671   2.080
 9432TIP3   OH228238   3.823   2.044   6.803
 9432TIP3    H128239   3.812   1.955   6.772
 9432TIP3    H228240   3.773   2.098   6.742
 9433TIP3   OH228241   0.449   6.817   5.943
 9433TIP3    H128242   0.540   6.806   5.971
 9433TIP3    H228243   0.399   6.761   6.001
 9434TIP3   OH228244   2.775   2.174   4.579
 9434TIP3    H128245   2.790   2.086   4.546
 9434TIP3    H228246   2.757   2.227   4.501
 9435TIP3   OH228247   2.221   0.245   2.890
 9435TIP3    H128248   2.270   0.324   2.911
 9435TIP3    H228249   2.275   0.199   2.826
 9436TIP3   OH228250   7.574   4.776   6.200
 9436TIP3    H128251   7.484   4.764   6.171
 9436TIP3    H228252   7.624   4.791   6.120
 9437TIP3   OH228253   5.068   6.964   0.455
 9437TIP3    H128254   5.023   6.925   0.380
 9437TIP3    H228255   5.159   6.972   0.426
 9438TIP3   OH228256   6.133   3.836   3.212
 9438TIP3    H128257   6.115   3.762   3.271
 9438TIP3    H228258   6.217   3.815   3.172
 9439TIP3   OH228259   4.061   3.012   3.372
 9439TIP3    H128260   4.018   3.087   3.331
 9439TIP3    H228261   4.065   2.946   3.303
 9440TIP3   OH228262   7.848   0.662   5.712
 9440TIP3    H128263   7.906   0.663   5.789
 9440TIP3    H228264   7.907   0.677   5.638
 9441TIP3   OH228265   4.114   5.445   1.950
 9441TIP3    H128266   4.126   5.480   2.038
 9441TIP3    H228267   4.058   5.369   1.962
 9442TIP3   OH228268   7.485   2.659   4.684
 9442TIP3    H128269   7.451   2.736   4.639
 9442TIP3    H228270   7.470   2.587   4.622
 9443TIP3   OH228271   5.008   2.685   4.576
 9443TIP3    H128272   4.929   2.681   4.629
 9443TIP3    H228273   5.036   2.594   4.566
 9444TIP3   OH228274   6.121   1.267   5.175
 9444TIP3    H128275   6.114   1.303   5.087
 9444TIP3    H228276   6.214   1.274   5.196
 9445TIP3   OH228277   5.745   6.966   6.323
 9445TIP3    H128278   5.668   7.005   6.281
 9445TIP3    H228279   5.774   7.031   6.386
 9446TIP3   OH228280   6.353   0.237   5.027
 9446TIP3    H128281   6.428   0.252   5.084
 9446TIP3    H228282   6.374   0.284   4.946
 9447TIP3   OH228283   0.966   4.321   5.132
 9447TIP3    H128284   0.986   4.250   5.193
 9447TIP3    H228285   1.043   4.326   5.074
 9448TIP3   OH228286   8.198   2.367   4.922
 9448TIP3    H128287   8.171   2.276   4.922
 9448TIP3    H228288   8.189   2.395   4.831
 9449TIP3   OH228289   7.296   3.827   1.236
 9449TIP3    H128290   7.320   3.741   1.202
 9449TIP3    H228291   7.310   3.887   1.163
 9450TIP3   OH228292   8.139   3.657   3.406
 9450TIP3    H128293   8.074   3.727   3.411
 9450TIP3    H228294   8.093   3.579   3.437
 9451TIP3   OH228295   2.253   4.703   1.500
 9451TIP3    H128296   2.228   4.791   1.529
 9451TIP3    H228297   2.291   4.662   1.578
 9452TIP3   OH228298   1.476   4.714   1.232
 9452TIP3    H128299   1.432   4.648   1.285
 9452TIP3    H228300   1.568   4.686   1.230
 9453TIP3   OH228301   3.708   3.526   1.705
 9453TIP3    H128302   3.747   3.458   1.650
 9453TIP3    H228303   3.782   3.574   1.740
 9454TIP3   OH228304   3.258   7.025   3.594
 9454TIP3    H128305   3.299   7.111   3.603
 9454TIP3    H228306   3.164   7.043   3.593
 9455TIP3   OH228307   3.037   1.615   1.617
 9455TIP3    H128308   2.983   1.689   1.647
 9455TIP3    H228309   2.979   1.564   1.562
 9456TIP3   OH228310   6.441   4.500   5.910
 9456TIP3    H128311   6.453   4.595   5.901
 9456TIP3    H228312   6.397   4.489   5.994
 9457TIP3   OH228313   2.390   4.157   1.582
 9457TIP3    H128314   2.438   4.158   1.499
 9457TIP3    H228315   2.458   4.142   1.649
 9458TIP3   OH228316   3.999   7.699   3.974
 9458TIP3    H128317   4.085   7.723   4.008
 9458TIP3    H228318   4.009   7.700   3.879
 9459TIP3   OH228319   6.785   1.621   6.668
 9459TIP3    H128320   6.790   1.585   6.579
 9459TIP3    H228321   6.778   1.716   6.655
 9460TIP3   OH228322   4.560   4.832   1.362
 9460TIP3    H128323   4.505   4.769   1.408
 9460TIP3    H228324   4.632   4.780   1.327
 9461TIP3   OH228325   0.491   2.825   1.130
 9461TIP3    H128326   0.469   2.916   1.110
 9461TIP3    H228327   0.584   2.818   1.107
 9462TIP3   OH228328   0.945   1.297   3.889
 9462TIP3    H128329   1.011   1.261   3.830
 9462TIP3    H228330   0.991   1.365   3.939
 9463TIP3   OH228331   6.205   3.838   5.360
 9463TIP3    H128332   6.258   3.767   5.397
 9463TIP3    H228333   6.264   3.884   5.300
 9464TIP3   OH228334   0.054   4.553   1.051
 9464TIP3    H128335   0.147   4.570   1.032
 9464TIP3    H228336   0.028   4.487   0.987
 9465TIP3   OH228337   4.745   5.647   1.686
 9465TIP3    H128338   4.743   5.598   1.768
 9465TIP3    H228339   4.694   5.594   1.625
 9466TIP3   OH228340   1.846   1.377   5.669
 9466TIP3    H128341   1.774   1.336   5.718
 9466TIP3    H228342   1.901   1.304   5.643
 9467TIP3   OH228343   0.252   7.756   1.381
 9467TIP3    H128344   0.186   7.758   1.310
 9467TIP3    H228345   0.295   7.841   1.376
 9468TIP3   OH228346   3.029   1.014   6.472
 9468TIP3    H128347   2.998   0.928   6.501
 9468TIP3    H228348   3.039   1.004   6.377
 9469TIP3   OH228349   1.909   1.773   3.861
 9469TIP3    H128350   1.886   1.680   3.849
 9469TIP3    H228351   1.826   1.819   3.855
 9470TIP3   OH228352   2.081   0.710   5.033
 9470TIP3    H128353   2.053   0.745   5.118
 9470TIP3    H228354   2.001   0.674   4.995
 9471TIP3   OH228355   0.789   4.052   5.788
 9471TIP3    H128356   0.759   4.133   5.831
 9471TIP3    H228357   0.736   4.045   5.709
 9472TIP3   OH228358   0.728   4.852   3.062
 9472TIP3    H128359   0.633   4.846   3.054
 9472TIP3    H228360   0.743   4.908   3.138
 9473TIP3   OH228361   6.597   4.851   0.402
 9473TIP3    H128362   6.593   4.756   0.388
 9473TIP3    H228363   6.690   4.868   0.420
 9474TIP3   OH228364   3.063   5.048   5.926
 9474TIP3    H128365   3.015   5.128   5.948
 9474TIP3    H228366   3.112   5.027   6.005
 9475TIP3   OH228367   8.008   4.092   1.680
 9475TIP3    H128368   7.948   4.035   1.631
 9475TIP3    H228369   8.083   4.036   1.700
 9476TIP3   OH228370   7.659   5.252   6.409
 9476TIP3    H128371   7.606   5.325   6.440
 9476TIP3    H228372   7.696   5.214   6.488
 9477TIP3   OH228373   0.354   1.444   5.308
 9477TIP3    H128374   0.389   1.533   5.302
 9477TIP3    H228375   0.431   1.388   5.304
 9478TIP3   OH228376   6.853   5.531   4.347
 9478TIP3    H128377   6.914   5.560   4.414
 9478TIP3    H228378   6.826   5.444   4.375
 9479TIP3   OH228379   5.930   2.702   1.287
 9479TIP3    H128380   5.987   2.631   1.316
 9479TIP3    H228381   5.898   2.742   1.368
 9480TIP3   OH228382   7.628   6.403   1.792
 9480TIP3    H128383   7.595   6.340   1.856
 9480TIP3    H228384   7.691   6.353   1.739
 9481TIP3   OH228385   6.004   4.303   2.479
 9481TIP3    H128386   5.923   4.347   2.451
 9481TIP3    H228387   5.992   4.212   2.451
 9482TIP3   OH228388   4.149   2.645   4.744
 9482TIP3    H128389   4.164   2.578   4.811
 9482TIP3    H228390   4.095   2.711   4.788
 9483TIP3   OH228391   2.764   2.202   0.115
 9483TIP3    H128392   2.764   2.277   0.056
 9483TIP3    H228393   2.850   2.162   0.103
 9484TIP3   OH228394   7.611   1.343   6.580
 9484TIP3    H128395   7.685   1.386   6.537
 9484TIP3    H228396   7.579   1.408   6.643
 9485TIP3   OH228397   0.353   6.949   3.089
 9485TIP3    H128398   0.341   6.857   3.064
 9485TIP3    H228399   0.430   6.949   3.145
 9486TIP3   OH228400   6.420   1.829   2.010
 9486TIP3    H128401   6.447   1.818   1.919
 9486TIP3    H228402   6.445   1.747   2.053
 9487TIP3   OH228403   3.109   2.617   2.207
 9487TIP3    H128404   3.182   2.629   2.146
 9487TIP3    H228405   3.144   2.644   2.292
 9488TIP3   OH228406   3.034   3.562   5.086
 9488TIP3    H128407   3.064   3.513   5.009
 9488TIP3    H228408   2.944   3.532   5.099
 9489TIP3   OH228409   5.056   7.349   6.615
 9489TIP3    H128410   5.042   7.433   6.572
 9489TIP3    H228411   5.137   7.315   6.575
 9490TIP3   OH228412   2.680   5.700   3.146
 9490TIP3    H128413   2.596   5.740   3.165
 9490TIP3    H228414   2.679   5.616   3.192
 9491TIP3   OH228415   4.008   4.492   3.244
 9491TIP3    H128416   3.990   4.566   3.302
 9491TIP3    H228417   3.987   4.525   3.156
 9492TIP3   OH228418   7.582   7.327   1.342
 9492TIP3    H128419   7.649   7.338   1.410
 9492TIP3    H228420   7.615   7.377   1.268
 9493TIP3   OH228421   1.904   1.540   0.822
 9493TIP3    H128422   1.930   1.514   0.733
 9493TIP3    H228423   1.961   1.490   0.880
 9494TIP3   OH228424   5.125   6.640   5.756
 9494TIP3    H128425   5.035   6.619   5.783
 9494TIP3    H228426   5.114   6.709   5.689
 9495TIP3   OH228427   7.765   7.762   3.532
 9495TIP3    H128428   7.859   7.779   3.524
 9495TIP3    H228429   7.754   7.672   3.500
 9496TIP3   OH228430   0.020   0.935   6.519
 9496TIP3    H128431  -0.047   0.996   6.490
 9496TIP3    H228432  -0.019   0.888   6.593
 9497TIP3   OH228433   3.521   4.146   2.399
 9497TIP3    H128434   3.544   4.054   2.413
 9497TIP3    H228435   3.486   4.149   2.310
 9498TIP3   OH228436   0.940   4.351   3.990
 9498TIP3    H128437   0.895   4.270   4.017
 9498TIP3    H228438   0.894   4.420   4.038
 9499TIP3   OH228439   0.967   4.207   1.876
 9499TIP3    H128440   1.043   4.181   1.824
 9499TIP3    H228441   0.892   4.167   1.831
 9500TIP3   OH228442   7.635   3.087   5.204
 9500TIP3    H128443   7.555   3.035   5.210
 9500TIP3    H228444   7.704   3.022   5.189
 9501TIP3   OH228445   4.587   6.996   3.951
 9501TIP3    H128446   4.564   7.089   3.945
 9501TIP3    H228447   4.514   6.951   3.907
 9502TIP3   OH228448   2.596   7.385   1.709
 9502TIP3    H128449   2.530   7.342   1.763
 9502TIP3    H228450   2.559   7.382   1.620
 9503TIP3   OH228451   0.950   0.246   0.106
 9503TIP3    H128452   0.954   0.250   0.011
 9503TIP3    H228453   0.883   0.181   0.125
 9504TIP3   OH228454   0.728   1.573   5.247
 9504TIP3    H128455   0.772   1.650   5.282
 9504TIP3    H228456   0.786   1.541   5.179
 9505TIP3   OH228457   2.466   3.612   1.991
 9505TIP3    H128458   2.375   3.628   2.013
 9505TIP3    H228459   2.484   3.672   1.919
 9506TIP3   OH228460   4.427   2.132   4.838
 9506TIP3    H128461   4.499   2.142   4.901
 9506TIP3    H228462   4.348   2.142   4.891
 9507TIP3   OH228463   2.062   1.368   0.014
 9507TIP3    H128464   2.154   1.377  -0.010
 9507TIP3    H228465   2.060   1.381   0.109
 9508TIP3   OH228466   2.776   5.395   6.508
 9508TIP3    H128467   2.867   5.414   6.533
 9508TIP3    H228468   2.723   5.429   6.580
 9509TIP3   OH228469   7.542   0.402   3.974
 9509TIP3    H128470   7.615   0.351   4.011
 9509TIP3    H228471   7.464   0.357   4.007
 9510TIP3   OH228472   2.078   5.356   1.168
 9510TIP3    H128473   2.028   5.282   1.134
 9510TIP3    H228474   2.159   5.317   1.201
 9511TIP3   OH228475   2.471   0.963   2.819
 9511TIP3    H128476   2.422   1.033   2.774
 9511TIP3    H228477   2.439   0.966   2.909
 9512TIP3   OH228478   1.705   6.190   5.445
 9512TIP3    H128479   1.765   6.265   5.442
 9512TIP3    H228480   1.726   6.140   5.366
 9513TIP3   OH228481   1.348   6.042   6.406
 9513TIP3    H128482   1.365   6.000   6.491
 9513TIP3    H228483   1.407   5.997   6.345
 9514TIP3   OH228484   5.971   6.851   6.727
 9514TIP3    H128485   5.984   6.882   6.816
 9514TIP3    H228486   6.032   6.903   6.674
 9515TIP3   OH228487   1.244   0.491   1.070
 9515TIP3    H128488   1.169   0.549   1.056
 9515TIP3    H228489   1.263   0.453   0.985
 9516TIP3   OH228490   8.061   5.568   3.543
 9516TIP3    H128491   7.974   5.605   3.531
 9516TIP3    H228492   8.046   5.484   3.586
 9517TIP3   OH228493   0.248   3.745   0.521
 9517TIP3    H128494   0.245   3.835   0.487
 9517TIP3    H228495   0.294   3.695   0.454
 9518TIP3   OH228496  -0.032   3.562   2.325
 9518TIP3    H128497   0.039   3.546   2.264
 9518TIP3    H228498  -0.071   3.645   2.296
 9519TIP3   OH228499   2.528   6.388   5.635
 9519TIP3    H128500   2.529   6.300   5.674
 9519TIP3    H228501   2.564   6.444   5.704
 9520TIP3   OH228502   7.770   3.144   6.387
 9520TIP3    H128503   7.777   3.090   6.466
 9520TIP3    H228504   7.843   3.205   6.393
 9521TIP3   OH228505   0.562   2.863   3.842
 9521TIP3    H128506   0.629   2.860   3.911
 9521TIP3    H228507   0.604   2.909   3.769
 9522TIP3   OH228508   8.102   5.556   3.867
 9522TIP3    H128509   8.147   5.639   3.872
 9522TIP3    H228510   8.080   5.535   3.958
 9523TIP3   OH228511   6.948   6.703   6.378
 9523TIP3    H128512   7.004   6.667   6.309
 9523TIP3    H228513   6.924   6.627   6.431
 9524TIP3   OH228514   1.078   3.894   1.965
 9524TIP3    H128515   1.019   3.851   2.027
 9524TIP3    H228516   1.091   3.982   2.001
 9525TIP3   OH228517   6.166   6.367   3.282
 9525TIP3    H128518   6.170   6.447   3.334
 9525TIP3    H228519   6.234   6.378   3.216
 9526TIP3   OH228520   3.967   4.735   3.442
 9526TIP3    H128521   3.931   4.791   3.373
 9526TIP3    H228522   3.929   4.769   3.523
 9527TIP3   OH228523   3.168   5.319   4.616
 9527TIP3    H128524   3.182   5.338   4.523
 9527TIP3    H228525   3.198   5.398   4.661
 9528TIP3   OH228526   3.402   6.321   0.339
 9528TIP3    H128527   3.345   6.270   0.397
 9528TIP3    H228528   3.395   6.411   0.370
 9529TIP3   OH228529   6.932   5.852   0.827
 9529TIP3    H128530   7.000   5.786   0.817
 9529TIP3    H228531   6.917   5.858   0.921
 9530TIP3   OH228532   2.373   0.187   4.614
 9530TIP3    H128533   2.294   0.193   4.561
 9530TIP3    H228534   2.356   0.244   4.689
 9531TIP3   OH228535   1.730   5.751   4.886
 9531TIP3    H128536   1.645   5.730   4.848
 9531TIP3    H228537   1.714   5.755   4.980
 9532TIP3   OH228538   4.990   7.208   4.213
 9532TIP3    H128539   5.041   7.163   4.280
 9532TIP3    H228540   5.040   7.197   4.132
 9533TIP3   OH228541   4.481   4.197   0.493
 9533TIP3    H128542   4.542   4.267   0.515
 9533TIP3    H228543   4.483   4.191   0.398
 9534TIP3   OH228544   2.497   2.118   2.946
 9534TIP3    H128545   2.470   2.097   2.857
 9534TIP3    H228546   2.476   2.210   2.956
 9535TIP3   OH228547   3.316   3.416   5.652
 9535TIP3    H128548   3.376   3.388   5.720
 9535TIP3    H228549   3.338   3.362   5.576
 9536TIP3   OH228550   1.197   3.148   3.136
 9536TIP3    H128551   1.170   3.218   3.195
 9536TIP3    H228552   1.173   3.068   3.183
 9537TIP3   OH228553   0.603   2.040   0.230
 9537TIP3    H128554   0.629   2.109   0.170
 9537TIP3    H228555   0.601   1.961   0.176
 9538TIP3   OH228556   3.231   3.653   6.209
 9538TIP3    H128557   3.153   3.598   6.200
 9538TIP3    H228558   3.202   3.727   6.263
 9539TIP3   OH228559   5.491   2.968   0.812
 9539TIP3    H128560   5.531   2.905   0.752
 9539TIP3    H228561   5.493   2.925   0.897
 9540TIP3   OH228562   0.178   7.126   0.778
 9540TIP3    H128563   0.175   7.054   0.715
 9540TIP3    H228564   0.263   7.116   0.822
 9541TIP3   OH228565   6.679   3.951   4.371
 9541TIP3    H128566   6.585   3.935   4.372
 9541TIP3    H228567   6.688   4.044   4.392
 9542TIP3   OH228568   6.375   7.263   2.543
 9542TIP3    H128569   6.436   7.190   2.550
 9542TIP3    H228570   6.298   7.226   2.499
 9543TIP3   OH228571   0.862   1.636   4.249
 9543TIP3    H128572   0.821   1.564   4.200
 9543TIP3    H228573   0.855   1.711   4.190
 9544TIP3   OH228574   2.200   1.513   6.518
 9544TIP3    H128575   2.279   1.567   6.519
 9544TIP3    H228576   2.128   1.576   6.524
 9545TIP3   OH228577   4.955   1.122   1.513
 9545TIP3    H128578   4.879   1.076   1.549
 9545TIP3    H228579   5.030   1.069   1.540
 9546TIP3   OH228580   2.408   0.477   5.674
 9546TIP3    H128581   2.347   0.540   5.635
 9546TIP3    H228582   2.432   0.419   5.603
 9547TIP3   OH228583   4.604   1.053   3.178
 9547TIP3    H128584   4.638   1.141   3.162
 9547TIP3    H228585   4.554   1.061   3.259
 9548TIP3   OH228586   0.480   5.467   3.692
 9548TIP3    H128587   0.397   5.486   3.647
 9548TIP3    H228588   0.512   5.554   3.718
 9549TIP3   OH228589   7.921   3.163   4.878
 9549TIP3    H128590   7.992   3.177   4.816
 9549TIP3    H228591   7.928   3.071   4.903
 9550TIP3   OH228592   1.976   3.596   5.359
 9550TIP3    H128593   1.915   3.648   5.411
 9550TIP3    H228594   2.003   3.525   5.418
 9551TIP3   OH228595   2.959   2.040   0.028
 9551TIP3    H128596   3.043   2.054  -0.017
 9551TIP3    H228597   2.981   1.983   0.101
 9552TIP3   OH228598   7.960   5.356   6.078
 9552TIP3    H128599   7.895   5.287   6.070
 9552TIP3    H228600   7.908   5.437   6.084
 9553TIP3   OH228601   5.239   2.152   5.975
 9553TIP3    H128602   5.274   2.071   6.010
 9553TIP3    H228603   5.147   2.133   5.958
 9554TIP3   OH228604   2.681   2.572   5.860
 9554TIP3    H128605   2.677   2.663   5.831
 9554TIP3    H228606   2.739   2.573   5.936
 9555TIP3   OH228607   1.211   0.533   2.155
 9555TIP3    H128608   1.180   0.469   2.091
 9555TIP3    H228609   1.182   0.498   2.239
 9556TIP3   OH228610   2.642   4.474   1.071
 9556TIP3    H128611   2.601   4.530   1.138
 9556TIP3    H228612   2.570   4.420   1.038
 9557TIP3   OH228613   3.774   6.058   2.620
 9557TIP3    H128614   3.835   6.070   2.548
 9557TIP3    H228615   3.778   5.965   2.641
 9558TIP3   OH228616   0.768   1.199   6.507
 9558TIP3    H128617   0.682   1.225   6.540
 9558TIP3    H228618   0.753   1.117   6.460
 9559TIP3   OH228619   4.287   4.742   0.430
 9559TIP3    H128620   4.213   4.787   0.388
 9559TIP3    H228621   4.347   4.724   0.358
 9560TIP3   OH228622   3.183   0.578   2.668
 9560TIP3    H128623   3.186   0.563   2.573
 9560TIP3    H228624   3.140   0.500   2.702
 9561TIP3   OH228625   5.292   7.035   1.842
 9561TIP3    H128626   5.295   6.972   1.914
 9561TIP3    H228627   5.357   7.002   1.780
 9562TIP3   OH228628   4.737   7.223   5.314
 9562TIP3    H128629   4.650   7.227   5.355
 9562TIP3    H228630   4.719   7.196   5.224
 9563TIP3   OH228631   4.145   2.309   6.322
 9563TIP3    H128632   4.155   2.303   6.227
 9563TIP3    H228633   4.231   2.287   6.356
 9564TIP3   OH228634   5.092   0.235   4.872
 9564TIP3    H128635   5.018   0.180   4.899
 9564TIP3    H228636   5.085   0.240   4.777
 9565TIP3   OH228637   8.301   4.262   2.077
 9565TIP3    H128638   8.321   4.313   2.155
 9565TIP3    H228639   8.226   4.208   2.102
 9566TIP3   OH228640   5.617   5.244   2.421
 9566TIP3    H128641   5.648   5.165   2.376
 9566TIP3    H228642   5.522   5.232   2.427
 9567TIP3   OH228643   3.583   4.206   1.215
 9567TIP3    H128644   3.503   4.252   1.242
 9567TIP3    H228645   3.641   4.212   1.291
 9568TIP3   OH228646   8.172   7.235   6.586
 9568TIP3    H128647   8.152   7.312   6.532
 9568TIP3    H228648   8.228   7.269   6.656
 9569TIP3   OH228649   6.501   1.062   2.122
 9569TIP3    H128650   6.546   1.057   2.038
 9569TIP3    H228651   6.559   1.115   2.177
 9570TIP3   OH228652   6.084   7.396   5.740
 9570TIP3    H128653   6.114   7.441   5.660
 9570TIP3    H228654   6.085   7.303   5.717
 9571TIP3   OH228655   8.137   6.291   0.339
 9571TIP3    H128656   8.052   6.263   0.374
 9571TIP3    H228657   8.194   6.297   0.416
 9572TIP3   OH228658   3.099   3.017   5.270
 9572TIP3    H128659   3.089   2.922   5.263
 9572TIP3    H228660   3.163   3.029   5.340
 9573TIP3   OH228661   5.969   2.676   0.716
 9573TIP3    H128662   5.948   2.595   0.763
 9573TIP3    H228663   6.063   2.687   0.730
 9574TIP3   OH228664   3.406   4.926   6.764
 9574TIP3    H128665   3.475   4.942   6.699
 9574TIP3    H228666   3.325   4.929   6.714
 9575TIP3   OH228667   1.031   7.235  -0.061
 9575TIP3    H128668   1.065   7.281   0.016
 9575TIP3    H228669   1.028   7.143  -0.034
 9576TIP3   OH228670   6.055   0.601   3.059
 9576TIP3    H128671   6.138   0.567   3.025
 9576TIP3    H228672   5.994   0.589   2.986
 9577TIP3   OH228673   6.393   0.262   0.896
 9577TIP3    H128674   6.320   0.246   0.955
 9577TIP3    H228675   6.389   0.356   0.877
 9578TIP3   OH228676   5.985   0.911   1.238
 9578TIP3    H128677   5.951   0.979   1.297
 9578TIP3    H228678   6.021   0.960   1.164
 9579TIP3   OH228679   5.014   1.838   0.432
 9579TIP3    H128680   5.003   1.933   0.434
 9579TIP3    H228681   5.000   1.810   0.523
 9580TIP3   OH228682   6.398   4.438   2.374
 9580TIP3    H128683   6.492   4.430   2.390
 9580TIP3    H228684   6.369   4.348   2.356
 9581TIP3   OH228685   5.300   5.361   1.999
 9581TIP3    H128686   5.303   5.416   2.077
 9581TIP3    H228687   5.354   5.285   2.022
 9582TIP3   OH228688   4.223   4.672   3.087
 9582TIP3    H128689   4.194   4.762   3.072
 9582TIP3    H228690   4.207   4.627   3.005
 9583TIP3   OH228691   6.436   2.143   1.714
 9583TIP3    H128692   6.476   2.166   1.798
 9583TIP3    H228693   6.351   2.187   1.715
 9584TIP3   OH228694   4.355   3.302   5.839
 9584TIP3    H128695   4.339   3.264   5.753
 9584TIP3    H228696   4.441   3.269   5.864
 9585TIP3   OH228697   6.035   6.964   5.091
 9585TIP3    H128698   6.023   7.004   5.006
 9585TIP3    H228699   6.045   7.038   5.151
 9586TIP3   OH228700   3.922   0.908   0.824
 9586TIP3    H128701   3.889   0.875   0.740
 9586TIP3    H228702   3.905   1.002   0.821
 9587TIP3   OH228703   7.775   5.883   5.002
 9587TIP3    H128704   7.862   5.910   4.974
 9587TIP3    H228705   7.743   5.827   4.931
 9588TIP3   OH228706   1.196   6.055   5.378
 9588TIP3    H128707   1.263   6.078   5.313
 9588TIP3    H228708   1.116   6.042   5.326
 9589TIP3   OH228709   2.890   3.848   4.015
 9589TIP3    H128710   2.945   3.851   4.093
 9589TIP3    H228711   2.902   3.760   3.980
 9590TIP3   OH228712   8.245   2.217   6.427
 9590TIP3    H128713   8.238   2.306   6.392
 9590TIP3    H228714   8.271   2.230   6.519
 9591TIP3   OH228715   7.125   3.147   3.308
 9591TIP3    H128716   7.043   3.102   3.330
 9591TIP3    H228717   7.189   3.076   3.300
 9592TIP3   OH228718   4.960   3.935   5.478
 9592TIP3    H128719   4.903   4.011   5.493
 9592TIP3    H228720   5.011   3.928   5.559
 9593TIP3   OH228721   1.646   6.716   5.386
 9593TIP3    H128722   1.570   6.731   5.330
 9593TIP3    H228723   1.720   6.750   5.336
 9594TIP3   OH228724   3.196   1.500   5.114
 9594TIP3    H128725   3.197   1.573   5.053
 9594TIP3    H228726   3.281   1.456   5.101
 9595TIP3   OH228727   6.472   6.491   2.170
 9595TIP3    H128728   6.487   6.561   2.106
 9595TIP3    H228729   6.560   6.462   2.194
 9596TIP3   OH228730   5.629   6.617   2.110
 9596TIP3    H128731   5.539   6.624   2.141
 9596TIP3    H228732   5.670   6.699   2.138
 9597TIP3   OH228733   0.518   1.087   5.714
 9597TIP3    H128734   0.495   1.177   5.692
 9597TIP3    H228735   0.492   1.077   5.806
 9598TIP3   OH228736   1.670   7.365   5.520
 9598TIP3    H128737   1.751   7.396   5.479
 9598TIP3    H228738   1.654   7.426   5.592
 9599TIP3   OH228739   2.520   2.821   2.734
 9599TIP3    H128740   2.444   2.787   2.687
 9599TIP3    H228741   2.595   2.780   2.692
 9600TIP3   OH228742   7.941   0.506   3.433
 9600TIP3    H128743   7.964   0.596   3.458
 9600TIP3    H228744   7.913   0.465   3.515
 9601TIP3   OH228745   3.037   2.369   5.442
 9601TIP3    H128746   3.039   2.408   5.529
 9601TIP3    H228747   3.093   2.292   5.449
 9602TIP3   OH228748   0.541   2.581   0.453
 9602TIP3    H128749   0.531   2.557   0.545
 9602TIP3    H228750   0.502   2.668   0.446
 9603TIP3   OH228751   7.269   7.638   2.575
 9603TIP3    H128752   7.208   7.610   2.644
 9603TIP3    H228753   7.218   7.697   2.520
 9604TIP3   OH228754   8.116   0.024   6.198
 9604TIP3    H128755   8.187   0.044   6.259
 9604TIP3    H228756   8.150   0.049   6.112
 9605TIP3   OH228757   6.629   5.688   4.433
 9605TIP3    H128758   6.663   5.708   4.521
 9605TIP3    H228759   6.696   5.631   4.395
 9606TIP3   OH228760   2.501   5.967   5.959
 9606TIP3    H128761   2.519   5.981   6.052
 9606TIP3    H228762   2.406   5.960   5.953
 9607TIP3   OH228763   2.854   3.637   3.586
 9607TIP3    H128764   2.796   3.714   3.586
 9607TIP3    H228765   2.813   3.576   3.524
 9608TIP3   OH228766   7.391   1.301   2.124
 9608TIP3    H128767   7.402   1.396   2.115
 9608TIP3    H228768   7.479   1.265   2.108
 9609TIP3   OH228769   5.090   2.430   4.430
 9609TIP3    H128770   4.998   2.407   4.437
 9609TIP3    H228771   5.136   2.346   4.424
 9610TIP3   OH228772   5.362   1.549   2.856
 9610TIP3    H128773   5.275   1.579   2.882
 9610TIP3    H228774   5.382   1.477   2.916
 9611TIP3   OH228775   0.526   1.565   0.872
 9611TIP3    H128776   0.616   1.540   0.890
 9611TIP3    H228777   0.493   1.597   0.956
 9612TIP3   OH228778   2.156   6.970   1.696
 9612TIP3    H128779   2.135   6.879   1.674
 9612TIP3    H228780   2.135   6.979   1.789
 9613TIP3   OH228781   7.604   0.993   1.086
 9613TIP3    H128782   7.611   1.062   1.021
 9613TIP3    H228783   7.690   0.952   1.089
 9614TIP3   OH228784   5.142   5.091   3.325
 9614TIP3    H128785   5.172   5.133   3.406
 9614TIP3    H228786   5.182   5.142   3.255
 9615TIP3   OH228787   7.569   5.855   2.751
 9615TIP3    H128788   7.519   5.853   2.832
 9615TIP3    H228789   7.609   5.769   2.745
 9616TIP3   OH228790   0.142   6.919   5.962
 9616TIP3    H128791   0.169   6.831   5.988
 9616TIP3    H228792   0.077   6.945   6.027
 9617TIP3   OH228793   5.807   0.848   3.839
 9617TIP3    H128794   5.764   0.859   3.923
 9617TIP3    H228795   5.736   0.850   3.775
 9618TIP3   OH228796   6.574   3.751   2.939
 9618TIP3    H128797   6.489   3.748   2.894
 9618TIP3    H228798   6.630   3.802   2.880
 9619TIP3   OH228799   3.594   7.412   0.524
 9619TIP3    H128800   3.503   7.408   0.493
 9619TIP3    H228801   3.645   7.372   0.452
 9620TIP3   OH228802   6.707   2.454   2.851
 9620TIP3    H128803   6.643   2.513   2.810
 9620TIP3    H228804   6.681   2.451   2.943
 9621TIP3   OH228805   4.973   1.849   3.333
 9621TIP3    H128806   4.945   1.920   3.276
 9621TIP3    H228807   4.993   1.777   3.273
 9622TIP3   OH228808   6.313   5.768   2.505
 9622TIP3    H128809   6.297   5.862   2.510
 9622TIP3    H228810   6.407   5.759   2.517
 9623TIP3   OH228811   1.044   3.319   2.923
 9623TIP3    H128812   1.039   3.405   2.964
 9623TIP3    H228813   1.106   3.270   2.978
 9624TIP3   OH228814   4.127   2.108   5.895
 9624TIP3    H128815   4.174   2.035   5.854
 9624TIP3    H228816   4.040   2.072   5.913
 9625TIP3   OH228817   0.235   1.456   1.005
 9625TIP3    H128818   0.178   1.528   1.034
 9625TIP3    H228819   0.189   1.418   0.931
 9626TIP3   OH228820   6.435   2.794   3.774
 9626TIP3    H128821   6.400   2.880   3.753
 9626TIP3    H228822   6.365   2.733   3.753
 9627TIP3   OH228823   6.121   2.601   2.971
 9627TIP3    H128824   6.182   2.671   2.947
 9627TIP3    H228825   6.044   2.646   3.005
 9628TIP3   OH228826   1.942   4.371   6.801
 9628TIP3    H128827   2.036   4.377   6.820
 9628TIP3    H228828   1.927   4.279   6.781
 9629TIP3   OH228829   0.275   0.141   1.087
 9629TIP3    H128830   0.367   0.129   1.109
 9629TIP3    H228831   0.275   0.177   0.998
 9630TIP3   OH228832   1.192   7.355   0.789
 9630TIP3    H128833   1.169   7.369   0.881
 9630TIP3    H228834   1.275   7.306   0.793
 9631TIP3   OH228835   6.063   1.892   6.688
 9631TIP3    H128836   6.028   1.816   6.733
 9631TIP3    H228837   6.137   1.858   6.637
 9632TIP3   OH228838   2.987   6.825   1.892
 9632TIP3    H128839   3.006   6.918   1.882
 9632TIP3    H228840   3.069   6.788   1.925
 9633TIP3   OH228841   2.160   5.529   1.734
 9633TIP3    H128842   2.195   5.455   1.783
 9633TIP3    H228843   2.065   5.521   1.744
 9634TIP3   OH228844   3.359   4.319   5.768
 9634TIP3    H128845   3.267   4.316   5.741
 9634TIP3    H228846   3.358   4.301   5.862
 9635TIP3   OH228847   5.231   3.551  -0.001
 9635TIP3    H128848   5.168   3.497  -0.049
 9635TIP3    H228849   5.252   3.623  -0.060
 9636TIP3   OH228850   2.423   4.578   3.556
 9636TIP3    H128851   2.390   4.652   3.606
 9636TIP3    H228852   2.482   4.532   3.616
 9637TIP3   OH228853   4.406   2.760   3.115
 9637TIP3    H128854   4.367   2.749   3.202
 9637TIP3    H228855   4.379   2.847   3.087
 9638TIP3   OH228856   1.032   7.581   1.206
 9638TIP3    H128857   0.995   7.493   1.196
 9638TIP3    H228858   0.961   7.640   1.180
 9639TIP3   OH228859   4.276   6.122   5.355
 9639TIP3    H128860   4.242   6.209   5.375
 9639TIP3    H228861   4.271   6.115   5.260
 9640TIP3   OH228862   3.502   0.216   5.976
 9640TIP3    H128863   3.532   0.299   5.940
 9640TIP3    H228864   3.422   0.238   6.022
 9641TIP3   OH228865   1.797   6.861   5.924
 9641TIP3    H128866   1.745   6.940   5.907
 9641TIP3    H228867   1.884   6.881   5.889
 9642TIP3   OH228868   3.349   2.674   5.565
 9642TIP3    H128869   3.400   2.623   5.627
 9642TIP3    H228870   3.331   2.757   5.611
 9643TIP3   OH228871   6.090   2.302   3.350
 9643TIP3    H128872   6.112   2.297   3.257
 9643TIP3    H228873   5.999   2.273   3.355
 9644TIP3   OH228874   1.011   5.517   0.201
 9644TIP3    H128875   0.983   5.579   0.133
 9644TIP3    H228876   0.940   5.519   0.265
 9645TIP3   OH228877   1.566   4.011   0.772
 9645TIP3    H128878   1.511   4.005   0.850
 9645TIP3    H228879   1.616   4.091   0.785
 9646TIP3   OH228880   2.403   7.328   4.655
 9646TIP3    H128881   2.486   7.354   4.694
 9646TIP3    H228882   2.338   7.382   4.701
 9647TIP3   OH228883   0.311   6.330   0.446
 9647TIP3    H128884   0.353   6.369   0.522
 9647TIP3    H228885   0.279   6.404   0.395
 9648TIP3   OH228886   4.683   0.845   4.399
 9648TIP3    H128887   4.631   0.841   4.319
 9648TIP3    H228888   4.625   0.808   4.467
 9649TIP3   OH228889   0.026   2.825   2.848
 9649TIP3    H128890   0.100   2.781   2.806
 9649TIP3    H228891   0.063   2.866   2.926
 9650TIP3   OH228892   2.285   1.656   1.003
 9650TIP3    H128893   2.196   1.642   1.036
 9650TIP3    H228894   2.342   1.639   1.079
 9651TIP3   OH228895   7.390   0.222   6.138
 9651TIP3    H128896   7.411   0.151   6.198
 9651TIP3    H228897   7.351   0.178   6.062
 9652TIP3   OH228898   4.756   6.530   0.095
 9652TIP3    H128899   4.683   6.556   0.039
 9652TIP3    H228900   4.753   6.590   0.169
 9653TIP3   OH228901   4.634   4.958   5.886
 9653TIP3    H128902   4.604   5.014   5.957
 9653TIP3    H228903   4.583   4.985   5.810
 9654TIP3   OH228904   7.942   3.009   5.210
 9654TIP3    H128905   7.944   2.962   5.127
 9654TIP3    H228906   8.014   3.072   5.205
 9655TIP3   OH228907   1.779   7.371   3.699
 9655TIP3    H128908   1.840   7.301   3.721
 9655TIP3    H228909   1.708   7.362   3.763
 9656TIP3   OH228910   3.085   2.737   5.221
 9656TIP3    H128911   3.009   2.690   5.188
 9656TIP3    H228912   3.151   2.727   5.152
 9657TIP3   OH228913   4.249   2.549   1.204
 9657TIP3    H128914   4.343   2.546   1.219
 9657TIP3    H228915   4.221   2.458   1.209
 9658TIP3   OH228916   0.309   2.763   3.446
 9658TIP3    H128917   0.225   2.774   3.402
 9658TIP3    H228918   0.291   2.785   3.538
 9659TIP3   OH228919   2.028   6.021   5.121
 9659TIP3    H128920   2.095   6.009   5.188
 9659TIP3    H228921   1.994   6.109   5.138
 9660TIP3   OH228922   2.707   1.193   2.283
 9660TIP3    H128923   2.783   1.137   2.268
 9660TIP3    H228924   2.714   1.261   2.217
 9661TIP3   OH228925   1.465   1.690   0.853
 9661TIP3    H128926   1.456   1.641   0.935
 9661TIP3    H228927   1.376   1.703   0.823
 9662TIP3   OH228928   1.515   1.265   3.592
 9662TIP3    H128929   1.436   1.267   3.645
 9662TIP3    H228930   1.586   1.258   3.655
 9663TIP3   OH228931   4.529   3.825   6.618
 9663TIP3    H128932   4.475   3.762   6.666
 9663TIP3    H228933   4.572   3.876   6.687
 9664TIP3   OH228934   3.153   1.080   3.095
 9664TIP3    H128935   3.064   1.047   3.083
 9664TIP3    H228936   3.148   1.133   3.175
 9665TIP3   OH228937   7.939   1.337   4.476
 9665TIP3    H128938   7.906   1.362   4.390
 9665TIP3    H228939   8.020   1.289   4.459
 9666TIP3   OH228940   7.913   2.586   4.830
 9666TIP3    H128941   7.949   2.573   4.918
 9666TIP3    H228942   7.851   2.515   4.818
 9667TIP3   OH228943   4.936   2.504   1.754
 9667TIP3    H128944   5.027   2.519   1.727
 9667TIP3    H228945   4.908   2.588   1.791
 9668TIP3   OH228946   7.892   0.848   5.289
 9668TIP3    H128947   7.985   0.829   5.277
 9668TIP3    H228948   7.888   0.895   5.372
 9669TIP3   OH228949   6.489   7.145   6.332
 9669TIP3    H128950   6.546   7.153   6.256
 9669TIP3    H228951   6.439   7.226   6.333
 9670TIP3   OH228952   7.742   3.706   3.525
 9670TIP3    H128953   7.671   3.727   3.465
 9670TIP3    H228954   7.819   3.749   3.488
 9671TIP3   OH228955   4.163   4.310   2.588
 9671TIP3    H128956   4.115   4.376   2.638
 9671TIP3    H228957   4.255   4.323   2.613
 9672TIP3   OH228958   2.180   3.103   1.904
 9672TIP3    H128959   2.094   3.060   1.901
 9672TIP3    H228960   2.242   3.031   1.907
 9673TIP3   OH228961   5.362   2.454   3.003
 9673TIP3    H128962   5.347   2.502   3.084
 9673TIP3    H228963   5.438   2.497   2.963
 9674TIP3   OH228964   6.375   0.498   0.626
 9674TIP3    H128965   6.449   0.543   0.667
 9674TIP3    H228966   6.297   0.543   0.659
 9675TIP3   OH228967   3.333   0.579   5.267
 9675TIP3    H128968   3.381   0.643   5.320
 9675TIP3    H228969   3.381   0.574   5.184
 9676TIP3   OH228970   0.591   2.241   3.010
 9676TIP3    H128971   0.575   2.217   3.102
 9676TIP3    H228972   0.539   2.178   2.960
 9677TIP3   OH228973   7.958   7.358   1.583
 9677TIP3    H128974   8.025   7.317   1.529
 9677TIP3    H228975   7.936   7.292   1.649
 9678TIP3   OH228976   6.410   5.389   4.350
 9678TIP3    H128977   6.487   5.333   4.359
 9678TIP3    H228978   6.341   5.329   4.319
 9679TIP3   OH228979   2.415   0.626   4.547
 9679TIP3    H128980   2.458   0.711   4.550
 9679TIP3    H228981   2.411   0.597   4.637
 9680TIP3   OH228982   7.853   7.008   1.568
 9680TIP3    H128983   7.853   7.052   1.483
 9680TIP3    H228984   7.939   6.966   1.574
 9681TIP3   OH228985   2.976   1.363   5.155
 9681TIP3    H128986   2.900   1.381   5.099
 9681TIP3    H228987   3.047   1.415   5.117
 9682TIP3   OH228988   4.534   1.272   3.800
 9682TIP3    H128989   4.506   1.181   3.810
 9682TIP3    H228990   4.486   1.304   3.724
 9683TIP3   OH228991   7.729   4.791   0.666
 9683TIP3    H128992   7.765   4.879   0.652
 9683TIP3    H228993   7.802   4.732   0.648
 9684TIP3   OH228994   0.494   2.619   4.663
 9684TIP3    H128995   0.469   2.527   4.654
 9684TIP3    H228996   0.588   2.617   4.677
 9685TIP3   OH228997   3.600   0.838   6.389
 9685TIP3    H128998   3.508   0.866   6.384
 9685TIP3    H228999   3.636   0.885   6.463
 9686TIP3   OH229000   5.329   3.116   3.593
 9686TIP3    H129001   5.409   3.062   3.591
 9686TIP3    H229002   5.361   3.206   3.586
 9687TIP3   OH229003   1.602   6.706   3.964
 9687TIP3    H129004   1.670   6.658   4.011
 9687TIP3    H229005   1.642   6.792   3.945
 9688TIP3   OH229006   0.669   0.936   1.823
 9688TIP3    H129007   0.609   0.862   1.820
 9688TIP3    H229008   0.673   0.960   1.916
 9689TIP3   OH229009   1.611   6.044   2.812
 9689TIP3    H129010   1.538   6.082   2.861
 9689TIP3    H229011   1.570   5.979   2.755
 9690TIP3   OH229012   0.516   5.410   6.410
 9690TIP3    H129013   0.491   5.499   6.436
 9690TIP3    H229014   0.486   5.355   6.482
 9691TIP3   OH229015   3.868   0.710   4.210
 9691TIP3    H129016   3.942   0.733   4.153
 9691TIP3    H229017   3.886   0.756   4.292
 9692TIP3   OH229018   5.243   5.774   6.530
 9692TIP3    H129019   5.334   5.797   6.548
 9692TIP3    H229020   5.229   5.692   6.577
 9693TIP3   OH229021   4.163   5.244   6.674
 9693TIP3    H129022   4.070   5.264   6.683
 9693TIP3    H229023   4.179   5.244   6.579
 9694TIP3   OH229024   5.486   1.733   3.095
 9694TIP3    H129025   5.509   1.652   3.049
 9694TIP3    H229026   5.391   1.735   3.095
 9695TIP3   OH229027   1.313   1.331   2.675
 9695TIP3    H129028   1.406   1.314   2.690
 9695TIP3    H229029   1.272   1.323   2.761
 9696TIP3   OH229030   1.486   5.722   4.794
 9696TIP3    H129031   1.420   5.655   4.812
 9696TIP3    H229032   1.466   5.752   4.706
 9697TIP3   OH229033   0.707   1.688   3.190
 9697TIP3    H129034   0.730   1.622   3.125
 9697TIP3    H229035   0.768   1.760   3.175
 9698TIP3   OH229036   4.142   4.312   5.234
 9698TIP3    H129037   4.101   4.371   5.171
 9698TIP3    H229038   4.116   4.224   5.206
 9699TIP3   OH229039   4.543   5.779   3.296
 9699TIP3    H129040   4.489   5.856   3.308
 9699TIP3    H229041   4.576   5.759   3.384
 9700TIP3   OH229042   8.008   2.328   0.138
 9700TIP3    H129043   7.952   2.264   0.182
 9700TIP3    H229044   8.058   2.277   0.075
 9701TIP3   OH229045   5.104   0.201   1.601
 9701TIP3    H129046   5.066   0.282   1.567
 9701TIP3    H229047   5.197   0.208   1.581
 9702TIP3   OH229048   4.995   5.826   4.932
 9702TIP3    H129049   4.977   5.792   5.019
 9702TIP3    H229050   5.065   5.890   4.945
 9703TIP3   OH229051   1.237   5.625   0.341
 9703TIP3    H129052   1.310   5.666   0.295
 9703TIP3    H229053   1.177   5.598   0.271
 9704TIP3   OH229054   2.503   1.379   4.060
 9704TIP3    H129055   2.534   1.447   4.001
 9704TIP3    H229056   2.579   1.354   4.111
 9705TIP3   OH229057   5.044   5.138   2.565
 9705TIP3    H129058   5.122   5.095   2.599
 9705TIP3    H229059   5.047   5.227   2.602
 9706TIP3   OH229060   2.819   7.256   6.214
 9706TIP3    H129061   2.855   7.171   6.241
 9706TIP3    H229062   2.736   7.262   6.261
 9707TIP3   OH229063   8.030   6.878   6.346
 9707TIP3    H129064   8.089   6.938   6.302
 9707TIP3    H229065   7.979   6.933   6.405
 9708TIP3   OH229066   2.634   6.144   0.260
 9708TIP3    H129067   2.640   6.238   0.276
 9708TIP3    H229068   2.644   6.135   0.165
 9709TIP3   OH229069   7.221   0.948   2.700
 9709TIP3    H129070   7.127   0.966   2.700
 9709TIP3    H229071   7.247   0.958   2.792
 9710TIP3   OH229072   3.706   2.084   4.374
 9710TIP3    H129073   3.621   2.087   4.418
 9710TIP3    H229074   3.761   2.031   4.431
 9711TIP3   OH229075   2.762   6.135   2.180
 9711TIP3    H129076   2.817   6.149   2.102
 9711TIP3    H229077   2.768   6.041   2.197
 9712TIP3   OH229078   7.875   0.892   1.056
 9712TIP3    H129079   7.961   0.934   1.057
 9712TIP3    H229080   7.850   0.890   0.964
 9713TIP3   OH229081   6.419   4.795   5.725
 9713TIP3    H129082   6.412   4.861   5.795
 9713TIP3    H229083   6.513   4.788   5.708
 9714TIP3   OH229084   1.022   3.133   3.506
 9714TIP3    H129085   1.088   3.185   3.459
 9714TIP3    H229086   0.966   3.198   3.547
 9715TIP3   OH229087   0.083   7.271   6.780
 9715TIP3    H129088   0.167   7.225   6.773
 9715TIP3    H229089   0.041   7.233   6.858
 9716TIP3   OH229090   4.082   7.451   0.947
 9716TIP3    H129091   4.131   7.420   0.872
 9716TIP3    H229092   4.001   7.487   0.910
 9717TIP3   OH229093   7.000   3.922   1.145
 9717TIP3    H129094   7.083   3.946   1.104
 9717TIP3    H229095   7.022   3.848   1.202
 9718TIP3   OH229096   6.695   6.309   2.147
 9718TIP3    H129097   6.782   6.350   2.152
 9718TIP3    H229098   6.679   6.298   2.053
 9719TIP3   OH229099   7.827   5.917   1.571
 9719TIP3    H129100   7.797   5.833   1.605
 9719TIP3    H229101   7.746   5.965   1.551
 9720TIP3   OH229102   7.835   3.379   5.033
 9720TIP3    H129103   7.898   3.449   5.017
 9720TIP3    H229104   7.880   3.300   5.002
 9721TIP3   OH229105   0.045   3.346   6.535
 9721TIP3    H129106   0.003   3.431   6.551
 9721TIP3    H229107  -0.012   3.282   6.578
 9722TIP3   OH229108   0.850   1.473   5.882
 9722TIP3    H129109   0.833   1.547   5.824
 9722TIP3    H229110   0.795   1.402   5.848
 9723TIP3   OH229111   3.294   7.051   5.591
 9723TIP3    H129112   3.282   7.130   5.644
 9723TIP3    H229113   3.212   7.041   5.543
 9724TIP3   OH229114   4.609   4.580   2.637
 9724TIP3    H129115   4.676   4.553   2.699
 9724TIP3    H229116   4.575   4.662   2.672
 9725TIP3   OH229117   3.344   0.879   0.413
 9725TIP3    H129118   3.258   0.913   0.438
 9725TIP3    H229119   3.330   0.785   0.402
 9726TIP3   OH229120   2.929   5.848   1.497
 9726TIP3    H129121   2.877   5.865   1.576
 9726TIP3    H229122   3.003   5.907   1.504
 9727TIP3   OH229123   0.965   0.744   3.531
 9727TIP3    H129124   1.021   0.809   3.488
 9727TIP3    H229125   0.922   0.698   3.460
 9728TIP3   OH229126   6.206   7.438   4.859
 9728TIP3    H129127   6.276   7.503   4.852
 9728TIP3    H229128   6.237   7.375   4.924
 9729TIP3   OH229129   2.965   4.379   4.383
 9729TIP3    H129130   2.897   4.403   4.446
 9729TIP3    H229131   3.046   4.378   4.433
 9730TIP3   OH229132   3.361   6.727   5.540
 9730TIP3    H129133   3.391   6.800   5.594
 9730TIP3    H229134   3.274   6.754   5.510
 9731TIP3   OH229135   7.497   2.631   5.233
 9731TIP3    H129136   7.476   2.678   5.314
 9731TIP3    H229137   7.565   2.569   5.258
 9732TIP3   OH229138   5.185   5.314   1.491
 9732TIP3    H129139   5.197   5.327   1.585
 9732TIP3    H229140   5.094   5.283   1.482
 9733TIP3   OH229141   2.089   3.313   1.710
 9733TIP3    H129142   1.999   3.283   1.725
 9733TIP3    H229143   2.143   3.251   1.759
 9734TIP3   OH229144   8.184   2.319   1.544
 9734TIP3    H129145   8.274   2.286   1.552
 9734TIP3    H229146   8.133   2.242   1.518
 9735TIP3   OH229147   0.953   6.161   6.649
 9735TIP3    H129148   1.009   6.217   6.594
 9735TIP3    H229149   0.953   6.204   6.734
 9736TIP3   OH229150   1.795   3.970   3.800
 9736TIP3    H129151   1.841   3.968   3.716
 9736TIP3    H229152   1.715   3.919   3.784
 9737TIP3   OH229153   2.321   7.555   6.581
 9737TIP3    H129154   2.413   7.576   6.565
 9737TIP3    H229155   2.318   7.459   6.579
 9738TIP3   OH229156   8.188   0.647   4.946
 9738TIP3    H129157   8.172   0.590   5.021
 9738TIP3    H229158   8.122   0.715   4.953
 9739TIP3   OH229159   3.684   0.377   6.478
 9739TIP3    H129160   3.659   0.466   6.505
 9739TIP3    H229161   3.736   0.390   6.398
 9740TIP3   OH229162   0.358   1.761   3.754
 9740TIP3    H129163   0.303   1.838   3.744
 9740TIP3    H229164   0.447   1.795   3.759
 9741TIP3   OH229165   0.493   6.504   3.993
 9741TIP3    H129166   0.570   6.559   4.005
 9741TIP3    H229167   0.420   6.559   4.021
 9742TIP3   OH229168   1.146   6.330   3.729
 9742TIP3    H129169   1.138   6.411   3.678
 9742TIP3    H229170   1.061   6.287   3.718
 9743TIP3   OH229171   0.413   1.014   4.750
 9743TIP3    H129172   0.434   0.938   4.804
 9743TIP3    H229173   0.381   0.977   4.667
 9744TIP3   OH229174   4.178   1.137   3.619
 9744TIP3    H129175   4.203   1.219   3.576
 9744TIP3    H229176   4.145   1.082   3.548
 9745TIP3   OH229177   8.276   1.146   3.018
 9745TIP3    H129178   8.230   1.088   3.079
 9745TIP3    H229179   8.207   1.198   2.977
 9746TIP3   OH229180   6.817   0.478   6.010
 9746TIP3    H129181   6.803   0.483   6.105
 9746TIP3    H229182   6.735   0.508   5.972
 9747TIP3   OH229183   1.667   4.067   5.872
 9747TIP3    H129184   1.698   4.086   5.961
 9747TIP3    H229185   1.620   3.984   5.881
 9748TIP3   OH229186   3.528   3.984   5.263
 9748TIP3    H129187   3.499   3.951   5.179
 9748TIP3    H229188   3.495   4.074   5.266
 9749TIP3   OH229189   6.374   0.418   4.808
 9749TIP3    H129190   6.445   0.476   4.781
 9749TIP3    H229191   6.303   0.476   4.835
 9750TIP3   OH229192   0.474   2.907   3.277
 9750TIP3    H129193   0.412   2.844   3.313
 9750TIP3    H229194   0.430   2.991   3.285
 9751TIP3   OH229195   7.913   6.161   4.255
 9751TIP3    H129196   8.008   6.154   4.258
 9751TIP3    H229197   7.896   6.256   4.250
 9752TIP3   OH229198   8.097   4.853   4.430
 9752TIP3    H129199   8.163   4.784   4.422
 9752TIP3    H229200   8.134   4.915   4.492
 9753TIP3   OH229201   3.798   6.837   5.850
 9753TIP3    H129202   3.805   6.903   5.781
 9753TIP3    H229203   3.797   6.888   5.931
 9754TIP3   OH229204   8.037   4.904   5.825
 9754TIP3    H129205   7.960   4.954   5.797
 9754TIP3    H229206   8.111   4.955   5.794
 9755TIP3   OH229207   0.099   0.636   3.308
 9755TIP3    H129208   0.132   0.694   3.239
 9755TIP3    H229209   0.177   0.592   3.342
 9756TIP3   OH229210   3.314   3.360   1.628
 9756TIP3    H129211   3.317   3.335   1.535
 9756TIP3    H229212   3.224   3.341   1.655
 9757TIP3   OH229213   6.668   4.812   3.646
 9757TIP3    H129214   6.693   4.790   3.736
 9757TIP3    H229215   6.593   4.755   3.628
 9758TIP3   OH229216   5.490   2.115   4.496
 9758TIP3    H129217   5.549   2.133   4.569
 9758TIP3    H229218   5.483   2.020   4.494
 9759TIP3   OH229219   2.947   5.000   4.449
 9759TIP3    H129220   3.030   4.981   4.405
 9759TIP3    H229221   2.882   5.000   4.379
 9760TIP3   OH229222   8.238   0.097   2.511
 9760TIP3    H129223   8.202   0.158   2.575
 9760TIP3    H229224   8.171   0.028   2.503
 9761TIP3   OH229225   0.916   0.457   0.866
 9761TIP3    H129226   0.849   0.503   0.815
 9761TIP3    H229227   0.973   0.526   0.899
 9762TIP3   OH229228   6.801   7.449   3.387
 9762TIP3    H129229   6.742   7.524   3.387
 9762TIP3    H229230   6.872   7.475   3.329
 9763TIP3   OH229231   2.813   5.175   0.622
 9763TIP3    H129232   2.763   5.095   0.607
 9763TIP3    H229233   2.834   5.174   0.715
 9764TIP3   OH229234   4.445   4.202   4.862
 9764TIP3    H129235   4.402   4.287   4.849
 9764TIP3    H229236   4.442   4.160   4.776
 9765TIP3   OH229237   1.390   7.264   4.105
 9765TIP3    H129238   1.313   7.315   4.128
 9765TIP3    H229239   1.407   7.285   4.013
 9766TIP3   OH229240   6.091   4.022   2.916
 9766TIP3    H129241   6.187   4.022   2.915
 9766TIP3    H229242   6.068   3.931   2.936
 9767TIP3   OH229243   6.280   6.393   2.950
 9767TIP3    H129244   6.283   6.306   2.910
 9767TIP3    H229245   6.352   6.394   3.012
 9768TIP3   OH229246   1.913   3.430   2.712
 9768TIP3    H129247   1.961   3.348   2.721
 9768TIP3    H229248   1.968   3.484   2.655
 9769TIP3   OH229249   5.295   0.462   1.267
 9769TIP3    H129250   5.316   0.504   1.350
 9769TIP3    H229251   5.202   0.482   1.253
 9770TIP3   OH229252   6.692   4.217   6.448
 9770TIP3    H129253   6.597   4.222   6.462
 9770TIP3    H229254   6.727   4.289   6.500
 9771TIP3   OH229255   0.012   6.104   5.738
 9771TIP3    H129256   0.089   6.048   5.727
 9771TIP3    H229257   0.038   6.166   5.806
 9772TIP3   OH229258   7.785   0.460   0.348
 9772TIP3    H129259   7.787   0.368   0.373
 9772TIP3    H229260   7.873   0.492   0.365
 9773TIP3   OH229261   2.529   0.334   5.175
 9773TIP3    H129262   2.523   0.425   5.146
 9773TIP3    H229263   2.563   0.287   5.099
 9774TIP3   OH229264   0.683   7.507   5.784
 9774TIP3    H129265   0.637   7.577   5.830
 9774TIP3    H229266   0.748   7.475   5.847
 9775TIP3   OH229267   6.196   0.651   6.448
 9775TIP3    H129268   6.125   0.642   6.511
 9775TIP3    H229269   6.194   0.743   6.422
 9776TIP3   OH229270   1.981   0.923   2.780
 9776TIP3    H129271   1.893   0.953   2.802
 9776TIP3    H229272   2.038   0.994   2.808
 9777TIP3   OH229273   2.355   7.312   1.832
 9777TIP3    H129274   2.377   7.222   1.811
 9777TIP3    H229275   2.320   7.308   1.921
 9778TIP3   OH229276   3.214   5.421   0.276
 9778TIP3    H129277   3.172   5.432   0.361
 9778TIP3    H229278   3.304   5.396   0.296
 9779TIP3   OH229279   5.632   1.124   2.054
 9779TIP3    H129280   5.665   1.078   2.131
 9779TIP3    H229281   5.589   1.202   2.088
 9780TIP3   OH229282   2.359   5.095   2.077
 9780TIP3    H129283   2.428   5.161   2.065
 9780TIP3    H229284   2.374   5.062   2.166
 9781TIP3   OH229285   0.772   4.526   6.155
 9781TIP3    H129286   0.715   4.587   6.201
 9781TIP3    H229287   0.782   4.452   6.215
 9782TIP3   OH229288   5.116   2.431   0.699
 9782TIP3    H129289   5.182   2.491   0.734
 9782TIP3    H229290   5.033   2.463   0.735
 9783TIP3   OH229291   4.953   1.651   1.207
 9783TIP3    H129292   4.945   1.613   1.294
 9783TIP3    H229293   4.984   1.578   1.152
 9784TIP3   OH229294   0.513   5.658   1.543
 9784TIP3    H129295   0.563   5.718   1.487
 9784TIP3    H229296   0.579   5.611   1.594
 9785TIP3   OH229297   4.919   2.760   4.310
 9785TIP3    H129298   4.937   2.732   4.400
 9785TIP3    H229299   4.834   2.721   4.289
 9786TIP3   OH229300   5.558   0.807   6.692
 9786TIP3    H129301   5.521   0.760   6.618
 9786TIP3    H229302   5.619   0.745   6.732
 9787TIP3   OH229303   3.388   1.759   1.619
 9787TIP3    H129304   3.340   1.741   1.538
 9787TIP3    H229305   3.461   1.815   1.592
 9788TIP3   OH229306   2.387   2.515   0.779
 9788TIP3    H129307   2.457   2.502   0.715
 9788TIP3    H229308   2.320   2.452   0.755
 9789TIP3   OH229309   1.562   1.500   2.894
 9789TIP3    H129310   1.566   1.447   2.814
 9789TIP3    H229311   1.547   1.589   2.863
 9790TIP3   OH229312   7.892   7.375   5.527
 9790TIP3    H129313   7.967   7.433   5.535
 9790TIP3    H229314   7.820   7.432   5.502
 9791TIP3   OH229315   8.094   1.850   6.238
 9791TIP3    H129316   8.179   1.872   6.200
 9791TIP3    H229317   8.056   1.935   6.262
 9792TIP3   OH229318   1.699   2.808   5.496
 9792TIP3    H129319   1.777   2.845   5.453
 9792TIP3    H229320   1.654   2.885   5.531
 9793TIP3   OH229321   6.167   7.005   6.477
 9793TIP3    H129322   6.105   6.947   6.433
 9793TIP3    H229323   6.238   6.947   6.506
 9794TIP3   OH229324   3.932   4.858   4.545
 9794TIP3    H129325   3.961   4.846   4.636
 9794TIP3    H229326   4.003   4.907   4.504
 9795TIP3   OH229327   2.990   5.025   3.401
 9795TIP3    H129328   3.061   5.021   3.337
 9795TIP3    H229329   3.021   4.972   3.474
 9796TIP3   OH229330   2.285   7.241   0.220
 9796TIP3    H129331   2.334   7.322   0.234
 9796TIP3    H229332   2.302   7.219   0.128
 9797TIP3   OH229333   1.204   5.100   4.171
 9797TIP3    H129334   1.262   5.137   4.106
 9797TIP3    H229335   1.189   5.010   4.142
 9798TIP3   OH229336   6.599   6.063   2.251
 9798TIP3    H129337   6.519   6.047   2.202
 9798TIP3    H229338   6.621   6.154   2.234
 9799TIP3   OH229339   7.035   0.198   2.124
 9799TIP3    H129340   7.121   0.240   2.131
 9799TIP3    H229341   6.981   0.262   2.079
 9800TIP3   OH229342   7.637   3.605   2.861
 9800TIP3    H129343   7.596   3.646   2.785
 9800TIP3    H229344   7.574   3.617   2.932
 9801TIP3   OH229345   1.353   7.037   0.752
 9801TIP3    H129346   1.396   7.121   0.734
 9801TIP3    H229347   1.359   6.989   0.669
 9802TIP3   OH229348   6.942   0.425   1.192
 9802TIP3    H129349   6.969   0.334   1.203
 9802TIP3    H229350   6.959   0.445   1.100
 9803TIP3   OH229351   7.970   0.801   6.323
 9803TIP3    H129352   7.982   0.886   6.367
 9803TIP3    H229353   7.876   0.785   6.328
 9804TIP3   OH229354   8.077   4.982   5.242
 9804TIP3    H129355   8.076   4.973   5.337
 9804TIP3    H229356   8.089   4.892   5.210
 9805TIP3   OH229357   1.027   2.875   4.838
 9805TIP3    H129358   1.003   2.847   4.750
 9805TIP3    H229359   0.947   2.915   4.873
 9806TIP3   OH229360   7.180   6.458   0.838
 9806TIP3    H129361   7.260   6.508   0.849
 9806TIP3    H229362   7.128   6.509   0.776
 9807TIP3   OH229363   5.010   1.178   5.254
 9807TIP3    H129364   5.014   1.122   5.176
 9807TIP3    H229365   5.065   1.134   5.318
 9808TIP3   OH229366   3.514   0.293   3.803
 9808TIP3    H129367   3.537   0.386   3.797
 9808TIP3    H229368   3.578   0.248   3.748
 9809TIP3   OH229369   3.917   3.798   1.633
 9809TIP3    H129370   3.970   3.719   1.645
 9809TIP3    H229371   3.981   3.869   1.631
 9810TIP3   OH229372   1.857   2.933   3.128
 9810TIP3    H129373   1.918   2.925   3.201
 9810TIP3    H229374   1.871   2.854   3.076
 9811TIP3   OH229375   1.281   4.736   1.534
 9811TIP3    H129376   1.229   4.742   1.454
 9811TIP3    H229377   1.288   4.642   1.551
 9812TIP3   OH229378   5.715   6.869   4.163
 9812TIP3    H129379   5.637   6.815   4.147
 9812TIP3    H229380   5.752   6.834   4.244
 9813TIP3   OH229381   6.142   5.803   5.934
 9813TIP3    H129382   6.069   5.785   5.994
 9813TIP3    H229383   6.124   5.749   5.857
 9814TIP3   OH229384   7.007   5.878   1.098
 9814TIP3    H129385   7.098   5.899   1.076
 9814TIP3    H229386   7.007   5.783   1.112
 9815TIP3   OH229387   0.471   4.645   5.382
 9815TIP3    H129388   0.469   4.738   5.360
 9815TIP3    H229389   0.421   4.603   5.312
 9816TIP3   OH229390   3.730   2.213   6.587
 9816TIP3    H129391   3.766   2.302   6.587
 9816TIP3    H229392   3.788   2.163   6.530
 9817TIP3   OH229393   7.076   6.433   1.843
 9817TIP3    H129394   7.033   6.439   1.758
 9817TIP3    H229395   7.168   6.454   1.826
 9818TIP3   OH229396   4.129   4.997   3.921
 9818TIP3    H129397   4.111   5.091   3.919
 9818TIP3    H229398   4.089   4.967   4.003
 9819TIP3   OH229399   0.430   1.447   6.362
 9819TIP3    H129400   0.488   1.397   6.305
 9819TIP3    H229401   0.366   1.487   6.303
 9820TIP3   OH229402   5.142   7.674   5.325
 9820TIP3    H129403   5.082   7.627   5.383
 9820TIP3    H229404   5.119   7.766   5.335
 9821TIP3   OH229405   5.599   2.478   3.426
 9821TIP3    H129406   5.588   2.537   3.500
 9821TIP3    H229407   5.659   2.410   3.458
 9822TIP3   OH229408   0.727   5.659   5.642
 9822TIP3    H129409   0.783   5.717   5.591
 9822TIP3    H229410   0.781   5.582   5.659
 9823TIP3   OH229411   7.750   1.553   0.002
 9823TIP3    H129412   7.737   1.534  -0.091
 9823TIP3    H229413   7.670   1.598   0.030
 9824TIP3   OH229414   4.768   3.711   4.794
 9824TIP3    H129415   4.699   3.708   4.860
 9824TIP3    H229416   4.848   3.687   4.842
 9825TIP3   OH229417   6.292   1.243   4.192
 9825TIP3    H129418   6.240   1.211   4.118
 9825TIP3    H229419   6.271   1.336   4.198
 9826TIP3   OH229420   2.937   5.592   4.843
 9826TIP3    H129421   2.873   5.561   4.779
 9826TIP3    H229422   2.904   5.678   4.870
 9827TIP3   OH229423   3.871   7.445   5.657
 9827TIP3    H129424   3.791   7.488   5.625
 9827TIP3    H229425   3.900   7.391   5.584
 9828TIP3   OH229426   1.840   4.727   5.652
 9828TIP3    H129427   1.760   4.708   5.701
 9828TIP3    H229428   1.870   4.812   5.687
 9829TIP3   OH229429   2.400   6.485   6.673
 9829TIP3    H129430   2.447   6.544   6.734
 9829TIP3    H229431   2.331   6.540   6.636
 9830TIP3   OH229432   2.745   6.609   6.122
 9830TIP3    H129433   2.678   6.576   6.181
 9830TIP3    H229434   2.712   6.695   6.094
 9831TIP3   OH229435   6.911   6.157   0.175
 9831TIP3    H129436   6.945   6.194   0.256
 9831TIP3    H229437   6.817   6.171   0.179
 9832TIP3   OH229438   1.153   5.880   2.418
 9832TIP3    H129439   1.207   5.803   2.398
 9832TIP3    H229440   1.098   5.853   2.491
 9833TIP3   OH229441   5.391   2.706   6.293
 9833TIP3    H129442   5.376   2.710   6.388
 9833TIP3    H229443   5.451   2.779   6.276
 9834TIP3   OH229444   3.323   6.947   4.623
 9834TIP3    H129445   3.315   6.974   4.532
 9834TIP3    H229446   3.263   7.004   4.671
 9835TIP3   OH229447   6.963   4.346   3.963
 9835TIP3    H129448   7.026   4.346   3.891
 9835TIP3    H229449   6.976   4.261   4.006
 9836TIP3   OH229450   8.201   1.608   1.898
 9836TIP3    H129451   8.186   1.560   1.816
 9836TIP3    H229452   8.250   1.686   1.873
 9837TIP3   OH229453   1.780   1.608   6.062
 9837TIP3    H129454   1.773   1.607   5.967
 9837TIP3    H229455   1.854   1.550   6.081
 9838TIP3   OH229456   2.254   6.851   1.437
 9838TIP3    H129457   2.202   6.894   1.369
 9838TIP3    H229458   2.235   6.758   1.427
 9839TIP3   OH229459   6.641   4.500   2.550
 9839TIP3    H129460   6.633   4.407   2.573
 9839TIP3    H229461   6.567   4.542   2.594
 9840TIP3   OH229462   3.355   7.045   1.947
 9840TIP3    H129463   3.341   7.108   1.876
 9840TIP3    H229464   3.448   7.052   1.967
 9841TIP3   OH229465   2.406   2.705   3.335
 9841TIP3    H129466   2.499   2.685   3.318
 9841TIP3    H229467   2.360   2.670   3.258
 9842TIP3   OH229468   1.478   3.728   0.997
 9842TIP3    H129469   1.478   3.638   1.030
 9842TIP3    H229470   1.531   3.724   0.917
 9843TIP3   OH229471   1.319   4.450   6.694
 9843TIP3    H129472   1.248   4.405   6.740
 9843TIP3    H229473   1.282   4.474   6.609
 9844TIP3   OH229474   5.572   7.326   1.383
 9844TIP3    H129475   5.602   7.307   1.472
 9844TIP3    H229476   5.580   7.421   1.376
 9845TIP3   OH229477   5.955   4.992   6.329
 9845TIP3    H129478   5.910   5.063   6.375
 9845TIP3    H229479   5.887   4.952   6.275
 9846TIP3   OH229480   4.679   3.102   2.460
 9846TIP3    H129481   4.759   3.075   2.415
 9846TIP3    H229482   4.697   3.190   2.491
 9847TIP3   OH229483   0.398   3.076   0.323
 9847TIP3    H129484   0.377   3.091   0.415
 9847TIP3    H229485   0.328   3.122   0.275
 9848TIP3   OH229486   0.913   7.320   5.295
 9848TIP3    H129487   0.930   7.410   5.267
 9848TIP3    H229488   0.844   7.290   5.237
 9849TIP3   OH229489   3.036   2.079   6.485
 9849TIP3    H129490   3.102   2.111   6.425
 9849TIP3    H229491   3.072   2.096   6.572
 9850TIP3   OH229492   5.632   7.235   6.229
 9850TIP3    H129493   5.719   7.224   6.190
 9850TIP3    H229494   5.571   7.224   6.156
 9851TIP3   OH229495   4.810   3.187   6.250
 9851TIP3    H129496   4.825   3.279   6.272
 9851TIP3    H229497   4.731   3.163   6.297
 9852TIP3   OH229498   1.003   7.218   4.090
 9852TIP3    H129499   0.998   7.221   3.994
 9852TIP3    H229500   0.912   7.209   4.118
 9853TIP3   OH229501   5.475   0.629   6.478
 9853TIP3    H129502   5.438   0.608   6.392
 9853TIP3    H229503   5.556   0.578   6.483
 9854TIP3   OH229504   2.018   0.003   0.314
 9854TIP3    H129505   2.073  -0.006   0.392
 9854TIP3    H229506   1.972   0.086   0.327
 9855TIP3   OH229507   1.057   5.427   3.730
 9855TIP3    H129508   1.117   5.404   3.659
 9855TIP3    H229509   1.005   5.499   3.694
 9856TIP3   OH229510   6.272   3.588   1.605
 9856TIP3    H129511   6.185   3.563   1.637
 9856TIP3    H229512   6.293   3.668   1.652
 9857TIP3   OH229513   5.407   1.439   2.587
 9857TIP3    H129514   5.395   1.435   2.682
 9857TIP3    H229515   5.479   1.379   2.570
 9858TIP3   OH229516   4.662   3.654   0.357
 9858TIP3    H129517   4.599   3.686   0.422
 9858TIP3    H229518   4.617   3.664   0.273
 9859TIP3   OH229519   5.972   6.531   0.207
 9859TIP3    H129520   5.935   6.516   0.294
 9859TIP3    H229521   6.053   6.481   0.206
 9860TIP3   OH229522   3.229   4.127   2.568
 9860TIP3    H129523   3.310   4.092   2.606
 9860TIP3    H229524   3.160   4.071   2.603
 9861TIP3   OH229525   4.750   2.843   3.995
 9861TIP3    H129526   4.662   2.839   3.959
 9861TIP3    H229527   4.784   2.754   3.984
 9862TIP3   OH229528   7.929   5.614   4.843
 9862TIP3    H129529   7.926   5.533   4.792
 9862TIP3    H229530   7.866   5.672   4.800
 9863TIP3   OH229531   0.261   3.099   4.346
 9863TIP3    H129532   0.199   3.101   4.272
 9863TIP3    H229533   0.290   3.190   4.354
 9864TIP3   OH229534   4.459   7.330   0.980
 9864TIP3    H129535   4.420   7.408   0.941
 9864TIP3    H229536   4.553   7.349   0.980
 9865TIP3   OH229537   1.990   1.341   2.661
 9865TIP3    H129538   2.048   1.354   2.736
 9865TIP3    H229539   1.963   1.430   2.636
 9866TIP3   OH229540   6.480   6.154   1.016
 9866TIP3    H129541   6.549   6.132   0.953
 9866TIP3    H229542   6.423   6.077   1.018
 9867TIP3   OH229543   7.269   6.246   6.764
 9867TIP3    H129544   7.338   6.254   6.698
 9867TIP3    H229545   7.213   6.176   6.731
 9868TIP3   OH229546   2.376   4.610   3.037
 9868TIP3    H129547   2.287   4.579   3.052
 9868TIP3    H229548   2.425   4.578   3.112
 9869TIP3   OH229549   2.844   1.444   6.521
 9869TIP3    H129550   2.805   1.439   6.434
 9869TIP3    H229551   2.866   1.537   6.532
 9870TIP3   OH229552   3.373   6.557   0.857
 9870TIP3    H129553   3.288   6.520   0.833
 9870TIP3    H229554   3.373   6.645   0.820
 9871TIP3   OH229555   1.657   1.847   1.835
 9871TIP3    H129556   1.719   1.843   1.908
 9871TIP3    H229557   1.594   1.778   1.854
 9872TIP3   OH229558   5.484   3.051   4.232
 9872TIP3    H129559   5.504   2.958   4.247
 9872TIP3    H229560   5.561   3.097   4.267
 9873TIP3   OH229561   2.893   7.473   4.698
 9873TIP3    H129562   2.843   7.551   4.672
 9873TIP3    H229563   2.984   7.496   4.680
 9874TIP3   OH229564   6.427   0.896   5.997
 9874TIP3    H129565   6.423   0.966   5.931
 9874TIP3    H229566   6.520   0.881   6.010
 9875TIP3   OH229567   6.469   2.141   6.760
 9875TIP3    H129568   6.470   2.137   6.664
 9875TIP3    H229569   6.437   2.229   6.779
 9876TIP3   OH229570   3.247   2.409   4.492
 9876TIP3    H129571   3.252   2.464   4.570
 9876TIP3    H229572   3.199   2.461   4.428
 9877TIP3   OH229573   5.044   4.322   1.783
 9877TIP3    H129574   5.079   4.410   1.765
 9877TIP3    H229575   5.091   4.266   1.722
 9878TIP3   OH229576   6.914   1.421   2.836
 9878TIP3    H129577   6.985   1.428   2.900
 9878TIP3    H229578   6.923   1.499   2.782
 9879TIP3   OH229579   3.337   2.339   2.411
 9879TIP3    H129580   3.305   2.416   2.457
 9879TIP3    H229581   3.297   2.344   2.324
 9880TIP3   OH229582   7.157   3.288   5.414
 9880TIP3    H129583   7.251   3.271   5.408
 9880TIP3    H229584   7.117   3.201   5.417
 9881TIP3   OH229585   7.470   3.349   2.441
 9881TIP3    H129586   7.379   3.379   2.450
 9881TIP3    H229587   7.512   3.416   2.387
 9882TIP3   OH229588   6.227   6.201   0.122
 9882TIP3    H129589   6.160   6.156   0.174
 9882TIP3    H229590   6.246   6.141   0.050
 9883TIP3   OH229591   7.270   0.652   2.200
 9883TIP3    H129592   7.280   0.688   2.288
 9883TIP3    H229593   7.176   0.656   2.183
 9884TIP3   OH229594   5.060   0.098   5.190
 9884TIP3    H129595   5.130   0.032   5.183
 9884TIP3    H229596   5.000   0.077   5.119
 9885TIP3   OH229597   7.136   1.824   0.147
 9885TIP3    H129598   7.178   1.792   0.067
 9885TIP3    H229599   7.205   1.825   0.212
 9886TIP3   OH229600   6.486   5.736   1.234
 9886TIP3    H129601   6.458   5.820   1.270
 9886TIP3    H229602   6.464   5.742   1.141
 9887TIP3   OH229603   4.089   0.084   1.518
 9887TIP3    H129604   4.049   0.053   1.599
 9887TIP3    H229605   4.018   0.084   1.454
 9888TIP3   OH229606   2.412   4.713   2.299
 9888TIP3    H129607   2.350   4.644   2.322
 9888TIP3    H229608   2.473   4.716   2.373
 9889TIP3   OH229609   0.124   1.344   6.505
 9889TIP3    H129610   0.081   1.298   6.577
 9889TIP3    H229611   0.217   1.335   6.523
 9890TIP3   OH229612   2.338   3.420   6.587
 9890TIP3    H129613   2.324   3.502   6.634
 9890TIP3    H229614   2.270   3.362   6.621
 9891TIP3   OH229615   8.287   2.498   3.273
 9891TIP3    H129616   8.328   2.440   3.209
 9891TIP3    H229617   8.276   2.581   3.227
 9892TIP3   OH229618   5.425   6.012   2.605
 9892TIP3    H129619   5.426   5.998   2.510
 9892TIP3    H229620   5.333   6.005   2.630
 9893TIP3   OH229621   3.924   4.907   4.120
 9893TIP3    H129622   3.909   4.966   4.195
 9893TIP3    H229623   3.841   4.861   4.109
 9894TIP3   OH229624   0.037   5.962   6.148
 9894TIP3    H129625   0.090   5.896   6.103
 9894TIP3    H229626   0.001   5.915   6.224
 9895TIP3   OH229627   6.746   2.378   4.773
 9895TIP3    H129628   6.760   2.467   4.740
 9895TIP3    H229629   6.820   2.328   4.741
 9896TIP3   OH229630   4.758   2.176   5.567
 9896TIP3    H129631   4.777   2.268   5.552
 9896TIP3    H229632   4.692   2.175   5.636
 9897TIP3   OH229633   5.552   0.580   2.866
 9897TIP3    H129634   5.467   0.581   2.911
 9897TIP3    H229635   5.596   0.658   2.899
 9898TIP3   OH229636   5.501   6.698   2.794
 9898TIP3    H129637   5.541   6.785   2.797
 9898TIP3    H229638   5.568   6.639   2.827
 9899TIP3   OH229639   1.551   0.500   2.109
 9899TIP3    H129640   1.526   0.498   2.201
 9899TIP3    H229641   1.519   0.416   2.075
 9900TIP3   OH229642   3.977   2.436   0.872
 9900TIP3    H129643   4.027   2.415   0.793
 9900TIP3    H229644   3.888   2.408   0.852
 9901TIP3   OH229645   3.544   0.687   0.571
 9901TIP3    H129646   3.465   0.633   0.578
 9901TIP3    H229647   3.591   0.671   0.653
 9902TIP3   OH229648   6.927   3.952   4.534
 9902TIP3    H129649   6.941   4.046   4.543
 9902TIP3    H229650   6.881   3.942   4.450
 9903TIP3   OH229651   1.838   3.721   4.810
 9903TIP3    H129652   1.855   3.727   4.904
 9903TIP3    H229653   1.884   3.642   4.782
 9904TIP3   OH229654   4.458   2.352   5.442
 9904TIP3    H129655   4.383   2.342   5.500
 9904TIP3    H229656   4.492   2.263   5.432
 9905TIP3   OH229657   5.945   6.619   1.823
 9905TIP3    H129658   5.963   6.685   1.891
 9905TIP3    H229659   6.003   6.644   1.751
 9906TIP3   OH229660   8.188   1.859   4.161
 9906TIP3    H129661   8.114   1.805   4.189
 9906TIP3    H229662   8.159   1.899   4.079
 9907TIP3   OH229663   3.936   2.355   1.644
 9907TIP3    H129664   4.011   2.309   1.607
 9907TIP3    H229665   3.963   2.378   1.733
 9908TIP3   OH229666   7.210   2.853   1.332
 9908TIP3    H129667   7.235   2.761   1.343
 9908TIP3    H229668   7.129   2.849   1.281
 9909TIP3   OH229669   7.920   3.537   6.101
 9909TIP3    H129670   7.975   3.459   6.109
 9909TIP3    H229671   7.904   3.564   6.192
 9910TIP3   OH229672   3.313   4.616   6.534
 9910TIP3    H129673   3.386   4.671   6.504
 9910TIP3    H229674   3.307   4.547   6.468
 9911TIP3   OH229675   2.334   6.028   3.812
 9911TIP3    H129676   2.413   5.976   3.800
 9911TIP3    H229677   2.285   5.981   3.879
 9912TIP3   OH229678   6.682   6.243   3.230
 9912TIP3    H129679   6.673   6.215   3.321
 9912TIP3    H229680   6.767   6.288   3.228
 9913TIP3   OH229681   2.824   2.629   5.577
 9913TIP3    H129682   2.868   2.592   5.653
 9913TIP3    H229683   2.891   2.630   5.508
 9914TIP3   OH229684   5.146   5.051   4.442
 9914TIP3    H129685   5.206   4.987   4.404
 9914TIP3    H229686   5.132   5.115   4.372
 9915TIP3   OH229687   2.575   7.695   0.828
 9915TIP3    H129688   2.538   7.771   0.873
 9915TIP3    H229689   2.508   7.671   0.763
 9916TIP3   OH229690   3.519   0.798   5.325
 9916TIP3    H129691   3.596   0.853   5.317
 9916TIP3    H229692   3.462   0.844   5.387
 9917TIP3   OH229693   6.952   2.008   4.026
 9917TIP3    H129694   7.026   2.067   4.017
 9917TIP3    H229695   6.986   1.923   3.998
 9918TIP3   OH229696   6.439   3.264   5.163
 9918TIP3    H129697   6.451   3.336   5.102
 9918TIP3    H229698   6.507   3.201   5.140
 9919TIP3   OH229699   1.655   5.572   0.012
 9919TIP3    H129700   1.748   5.586   0.029
 9919TIP3    H229701   1.611   5.630   0.074
 9920TIP3   OH229702   2.092   1.710   5.812
 9920TIP3    H129703   2.089   1.794   5.859
 9920TIP3    H229704   2.179   1.675   5.830
 9921TIP3   OH229705   0.526   1.626   1.148
 9921TIP3    H129706   0.484   1.562   1.205
 9921TIP3    H229707   0.590   1.670   1.204
 9922TIP3   OH229708   7.127   5.757   5.270
 9922TIP3    H129709   7.042   5.787   5.303
 9922TIP3    H229710   7.182   5.835   5.269
 9923TIP3   OH229711   2.474   7.627   2.097
 9923TIP3    H129712   2.526   7.557   2.057
 9923TIP3    H229713   2.530   7.661   2.167
 9924TIP3   OH229714   7.426   1.105   1.819
 9924TIP3    H129715   7.392   1.176   1.764
 9924TIP3    H229716   7.353   1.085   1.879
 9925TIP3   OH229717   1.667   4.496   3.761
 9925TIP3    H129718   1.640   4.404   3.766
 9925TIP3    H229719   1.745   4.501   3.817
 9926TIP3   OH229720   6.604   7.147   0.709
 9926TIP3    H129721   6.668   7.088   0.668
 9926TIP3    H229722   6.558   7.093   0.773
 9927TIP3   OH229723   7.775   2.335   2.952
 9927TIP3    H129724   7.767   2.247   2.916
 9927TIP3    H229725   7.841   2.326   3.021
 9928TIP3   OH229726   4.852   3.036   1.950
 9928TIP3    H129727   4.843   3.126   1.920
 9928TIP3    H229728   4.860   3.043   2.045
 9929TIP3   OH229729   3.551   6.936   4.169
 9929TIP3    H129730   3.495   6.869   4.207
 9929TIP3    H229731   3.590   6.980   4.245
 9930TIP3   OH229732   1.799   4.879   6.583
 9930TIP3    H129733   1.812   4.785   6.598
 9930TIP3    H229734   1.887   4.912   6.562
 9931TIP3   OH229735   1.832   1.445   4.937
 9931TIP3    H129736   1.797   1.534   4.947
 9931TIP3    H229737   1.906   1.442   4.998
 9932TIP3   OH229738   0.683   2.717   5.183
 9932TIP3    H129739   0.709   2.652   5.248
 9932TIP3    H229740   0.669   2.666   5.103
 9933TIP3   OH229741   0.495   0.386   0.894
 9933TIP3    H129742   0.522   0.381   0.986
 9933TIP3    H229743   0.477   0.478   0.879
 9934TIP3   OH229744   6.422   7.138   1.276
 9934TIP3    H129745   6.470   7.217   1.252
 9934TIP3    H229746   6.339   7.144   1.229
 9935TIP3   OH229747   0.244   6.958   2.015
 9935TIP3    H129748   0.183   7.009   2.068
 9935TIP3    H229749   0.316   6.938   2.075
 9936TIP3   OH229750   5.813   0.178   3.956
 9936TIP3    H129751   5.828   0.271   3.975
 9936TIP3    H229752   5.764   0.146   4.031
 9937TIP3   OH229753   4.979   3.907   0.943
 9937TIP3    H129754   5.012   3.823   0.910
 9937TIP3    H229755   4.940   3.949   0.866
 9938TIP3   OH229756   6.587   0.621   1.677
 9938TIP3    H129757   6.571   0.577   1.593
 9938TIP3    H229758   6.679   0.648   1.672
 9939TIP3   OH229759   1.046   2.791   2.276
 9939TIP3    H129760   1.036   2.853   2.204
 9939TIP3    H229761   1.059   2.846   2.353
 9940TIP3   OH229762   2.978   6.269   5.548
 9940TIP3    H129763   2.992   6.212   5.624
 9940TIP3    H229764   2.933   6.346   5.584
 9941TIP3   OH229765   8.155   6.795   4.605
 9941TIP3    H129766   8.113   6.714   4.574
 9941TIP3    H229767   8.118   6.863   4.549
 9942TIP3   OH229768   0.364   7.211   2.401
 9942TIP3    H129769   0.431   7.271   2.434
 9942TIP3    H229770   0.382   7.128   2.446
 9943TIP3   OH229771   1.261   0.232   3.485
 9943TIP3    H129772   1.270   0.234   3.389
 9943TIP3    H229773   1.318   0.161   3.513
 9944TIP3   OH229774   0.114   7.441   5.026
 9944TIP3    H129775   0.093   7.418   4.936
 9944TIP3    H229776   0.166   7.367   5.058
 9945TIP3   OH229777   5.403   0.941   0.605
 9945TIP3    H129778   5.449   0.983   0.678
 9945TIP3    H229779   5.312   0.937   0.633
 9946TIP3   OH229780   0.362   4.391   4.243
 9946TIP3    H129781   0.333   4.374   4.332
 9946TIP3    H229782   0.377   4.485   4.239
 9947TIP3   OH229783   0.377   6.253   3.112
 9947TIP3    H129784   0.445   6.321   3.111
 9947TIP3    H229785   0.302   6.294   3.069
 9948TIP3   OH229786   2.476   4.627   5.825
 9948TIP3    H129787   2.438   4.607   5.739
 9948TIP3    H229788   2.403   4.662   5.876
 9949TIP3   OH229789   0.845   0.545   4.388
 9949TIP3    H129790   0.897   0.604   4.443
 9949TIP3    H229791   0.907   0.509   4.325
 9950TIP3   OH229792   2.498   5.209   1.746
 9950TIP3    H129793   2.584   5.217   1.786
 9950TIP3    H229794   2.496   5.277   1.679
 9951TIP3   OH229795   4.010   1.989   0.342
 9951TIP3    H129796   3.915   1.987   0.347
 9951TIP3    H229797   4.038   1.902   0.374
 9952TIP3   OH229798   5.316   3.534   1.474
 9952TIP3    H129799   5.235   3.507   1.517
 9952TIP3    H229800   5.369   3.455   1.470
 9953TIP3   OH229801   4.260   2.994   2.478
 9953TIP3    H129802   4.286   2.902   2.480
 9953TIP3    H229803   4.321   3.035   2.416
 9954TIP3   OH229804   0.941   7.331   3.517
 9954TIP3    H129805   1.023   7.338   3.468
 9954TIP3    H229806   0.968   7.320   3.608
 9955TIP3   OH229807   3.354   1.365   6.581
 9955TIP3    H129808   3.429   1.375   6.640
 9955TIP3    H229809   3.308   1.287   6.614
 9956TIP3   OH229810   1.636   0.187   2.288
 9956TIP3    H129811   1.695   0.163   2.216
 9956TIP3    H229812   1.597   0.105   2.316
 9957TIP3   OH229813   5.548   7.508   0.095
 9957TIP3    H129814   5.551   7.603   0.087
 9957TIP3    H229815   5.455   7.488   0.105
 9958TIP3   OH229816   4.510   1.402   3.218
 9958TIP3    H129817   4.501   1.343   3.143
 9958TIP3    H229818   4.425   1.400   3.261
 9959TIP3   OH229819   3.733   7.280   0.331
 9959TIP3    H129820   3.680   7.330   0.269
 9959TIP3    H229821   3.765   7.205   0.281
 9960TIP3   OH229822   1.834   7.660   5.957
 9960TIP3    H129823   1.781   7.654   6.037
 9960TIP3    H229824   1.922   7.634   5.985
 9961TIP3   OH229825   2.415   2.717   4.263
 9961TIP3    H129826   2.485   2.653   4.273
 9961TIP3    H229827   2.337   2.675   4.300
 9962TIP3   OH229828   2.318   5.186   0.988
 9962TIP3    H129829   2.360   5.264   1.022
 9962TIP3    H229830   2.295   5.135   1.065
 9963TIP3   OH229831   4.728   1.951   3.404
 9963TIP3    H129832   4.665   1.916   3.468
 9963TIP3    H229833   4.801   1.888   3.406
 9964TIP3   OH229834   6.022   1.839   3.776
 9964TIP3    H129835   5.936   1.800   3.759
 9964TIP3    H229836   6.076   1.766   3.806
 9965TIP3   OH229837   0.791   0.775   4.556
 9965TIP3    H129838   0.838   0.841   4.504
 9965TIP3    H229839   0.855   0.742   4.618
 9966TIP3   OH229840   2.969   4.802   1.417
 9966TIP3    H129841   2.970   4.894   1.443
 9966TIP3    H229842   2.903   4.761   1.473
 9967TIP3   OH229843   1.489   4.543   2.609
 9967TIP3    H129844   1.470   4.634   2.630
 9967TIP3    H229845   1.482   4.538   2.514
 9968TIP3   OH229846   4.269   5.950   1.308
 9968TIP3    H129847   4.192   5.990   1.266
 9968TIP3    H229848   4.282   5.869   1.260
 9969TIP3   OH229849   6.093   0.273   1.855
 9969TIP3    H129850   6.021   0.284   1.917
 9969TIP3    H229851   6.051   0.265   1.770
 9970TIP3   OH229852   3.562   4.886   6.027
 9970TIP3    H129853   3.629   4.818   6.016
 9970TIP3    H229854   3.481   4.845   5.996
 9971TIP3   OH229855   2.562   7.055   0.620
 9971TIP3    H129856   2.643   7.041   0.669
 9971TIP3    H229857   2.505   7.103   0.680
 9972TIP3   OH229858   3.151   4.573   5.702
 9972TIP3    H129859   3.119   4.552   5.790
 9972TIP3    H229860   3.124   4.664   5.688
 9973TIP3   OH229861   5.577   2.503   4.192
 9973TIP3    H129862   5.572   2.479   4.099
 9973TIP3    H229863   5.671   2.514   4.209
 9974TIP3   OH229864   7.707   3.492   3.689
 9974TIP3    H129865   7.706   3.556   3.617
 9974TIP3    H229866   7.697   3.545   3.768
 9975TIP3   OH229867   1.409   1.383   4.641
 9975TIP3    H129868   1.480   1.323   4.665
 9975TIP3    H229869   1.333   1.350   4.688
 9976TIP3   OH229870   5.470   1.702   2.603
 9976TIP3    H129871   5.427   1.618   2.587
 9976TIP3    H229872   5.399   1.760   2.630
 9977TIP3   OH229873   1.154   2.469   3.361
 9977TIP3    H129874   1.149   2.523   3.440
 9977TIP3    H229875   1.207   2.521   3.300
 9978TIP3   OH229876   3.191   1.206   0.518
 9978TIP3    H129877   3.181   1.122   0.473
 9978TIP3    H229878   3.124   1.262   0.480
 9979TIP3   OH229879   7.526   5.253   5.679
 9979TIP3    H129880   7.465   5.188   5.642
 9979TIP3    H229881   7.599   5.201   5.712
 9980TIP3   OH229882   7.974   2.521   3.169
 9980TIP3    H129883   7.917   2.595   3.191
 9980TIP3    H229884   8.053   2.562   3.133
 9981TIP3   OH229885   0.069   1.927   2.520
 9981TIP3    H129886   0.134   1.859   2.540
 9981TIP3    H229887  -0.012   1.878   2.503
 9982TIP3   OH229888   7.946   4.184   4.079
 9982TIP3    H129889   8.006   4.116   4.048
 9982TIP3    H229890   8.002   4.245   4.128
 9983TIP3   OH229891   4.765   1.365   2.645
 9983TIP3    H129892   4.837   1.428   2.650
 9983TIP3    H229893   4.791   1.292   2.701
 9984TIP3   OH229894   3.471   0.175   0.265
 9984TIP3    H129895   3.404   0.126   0.312
 9984TIP3    H229896   3.429   0.258   0.242
 9985TIP3   OH229897   5.074   5.174   5.462
 9985TIP3    H129898   5.065   5.268   5.474
 9985TIP3    H229899   5.163   5.155   5.492
 9986TIP3   OH229900   7.596   2.462   3.909
 9986TIP3    H129901   7.571   2.370   3.898
 9986TIP3    H229902   7.688   2.459   3.933
 9987TIP3   OH229903   7.011   3.680   5.089
 9987TIP3    H129904   7.096   3.644   5.115
 9987TIP3    H229905   7.034   3.760   5.041
 9988TIP3   OH229906   2.545   0.494   6.533
 9988TIP3    H129907   2.546   0.455   6.446
 9988TIP3    H229908   2.476   0.560   6.528
 9989TIP3   OH229909   2.176   6.021   6.694
 9989TIP3    H129910   2.158   5.968   6.771
 9989TIP3    H229911   2.191   6.109   6.728
 9990TIP3   OH229912   7.508   5.537   3.686
 9990TIP3    H129913   7.522   5.628   3.661
 9990TIP3    H229914   7.585   5.514   3.738
 9991TIP3   OH229915   7.728   4.810   5.623
 9991TIP3    H129916   7.761   4.888   5.667
 9991TIP3    H229917   7.655   4.841   5.570
 9992TIP3   OH229918   3.295   0.295   4.598
 9992TIP3    H129919   3.301   0.360   4.527
 9992TIP3    H229920   3.382   0.296   4.638
 9993TIP3   OH229921   1.195   0.092   0.136
 9993TIP3    H129922   1.117   0.144   0.152
 9993TIP3    H229923   1.253   0.151   0.086
 9994TIP3   OH229924   8.304   5.157   0.691
 9994TIP3    H129925   8.274   5.138   0.780
 9994TIP3    H229926   8.273   5.083   0.639
 9995TIP3   OH229927   2.897   3.675   4.420
 9995TIP3    H129928   2.826   3.679   4.355
 9995TIP3    H229929   2.853   3.650   4.501
 9996TIP3   OH229930   0.707   5.973   3.146
 9996TIP3    H129931   0.740   6.018   3.068
 9996TIP3    H229932   0.745   6.020   3.219
 9997TIP3   OH229933   8.105   5.613   0.322
 9997TIP3    H129934   8.164   5.558   0.271
 9997TIP3    H229935   8.134   5.703   0.306
 9998TIP3   OH229936   6.884   3.006   1.477
 9998TIP3    H129937   6.871   2.946   1.404
 9998TIP3    H229938   6.796   3.035   1.501
 9999TIP3   OH229939   1.205   1.992   4.317
 9999TIP3    H129940   1.144   2.008   4.389
 9999TIP3    H229941   1.284   1.957   4.359
10000TIP3   OH229942   7.951   2.955   3.473
10000TIP3    H129943   8.016   3.020   3.500
10000TIP3    H229944   7.867   2.994   3.495
10001TIP3   OH229945   6.070   4.166   5.387
10001TIP3    H129946   5.974   4.171   5.390
10001TIP3    H229947   6.089   4.110   5.312
10002TIP3   OH229948   7.768   5.266   1.313
10002TIP3    H129949   7.690   5.211   1.303
10002TIP3    H229950   7.815   5.257   1.231
10003TIP3   OH229951   4.998   3.793   6.144
10003TIP3    H129952   5.044   3.865   6.102
10003TIP3    H229953   4.978   3.826   6.232
10004TIP3   OH229954   5.589   5.343   4.679
10004TIP3    H129955   5.669   5.289   4.686
10004TIP3    H229956   5.620   5.427   4.644
10005TIP3   OH229957   7.523   5.272   3.510
10005TIP3    H129958   7.613   5.296   3.531
10005TIP3    H229959   7.515   5.288   3.416
10006TIP3   OH229960   5.612   3.342   4.468
10006TIP3    H129961   5.647   3.271   4.414
10006TIP3    H229962   5.599   3.302   4.554
10007TIP3   OH229963   4.365   1.036   3.799
10007TIP3    H129964   4.297   1.038   3.733
10007TIP3    H229965   4.318   1.037   3.883
10008TIP3   OH229966   7.170   5.999   6.680
10008TIP3    H129967   7.135   5.980   6.767
10008TIP3    H229968   7.093   5.995   6.623
10009TIP3   OH229969   0.394   6.415   2.773
10009TIP3    H129970   0.447   6.409   2.693
10009TIP3    H229971   0.317   6.361   2.755
10010TIP3   OH229972   1.119   4.283   6.269
10010TIP3    H129973   1.099   4.359   6.324
10010TIP3    H229974   1.086   4.307   6.183
10011TIP3   OH229975   7.761   2.521   2.513
10011TIP3    H129976   7.673   2.541   2.481
10011TIP3    H229977   7.798   2.606   2.535
10012TIP3   OH229978   7.103   7.706   3.395
10012TIP3    H129979   7.032   7.744   3.342
10012TIP3    H229980   7.174   7.691   3.333
10013TIP3   OH229981   5.538   1.261   0.974
10013TIP3    H129982   5.599   1.335   0.973
10013TIP3    H229983   5.456   1.297   1.006
10014TIP3   OH229984   6.611   1.847   2.929
10014TIP3    H129985   6.620   1.940   2.947
10014TIP3    H229986   6.532   1.840   2.875
10015TIP3   OH229987   6.390   7.817   2.572
10015TIP3    H129988   6.317   7.859   2.527
10015TIP3    H229989   6.382   7.724   2.549
10016TIP3   OH229990   7.642   5.495   3.275
10016TIP3    H129991   7.733   5.480   3.303
10016TIP3    H229992   7.612   5.409   3.245
10017TIP3   OH229993   7.568   6.326   5.183
10017TIP3    H129994   7.644   6.304   5.128
10017TIP3    H229995   7.597   6.400   5.236
10018TIP3   OH229996   7.911   4.556   1.333
10018TIP3    H129997   7.916   4.650   1.352
10018TIP3    H229998   7.818   4.536   1.335
10019TIP3   OH229999   6.870   4.252   2.522
10019TIP3    H130000   6.944   4.307   2.494
10019TIP3    H230001   6.805   4.262   2.454
10020TIP3   OH230002   3.778   2.848   0.144
10020TIP3    H130003   3.828   2.926   0.123
10020TIP3    H230004   3.836   2.775   0.124
10021TIP3   OH230005   3.931   3.688   3.552
10021TIP3    H130006   3.963   3.610   3.505
10021TIP3    H230007   3.847   3.661   3.588
10022TIP3   OH230008   0.554   3.910   5.290
10022TIP3    H130009   0.611   3.852   5.239
10022TIP3    H230010   0.612   3.953   5.352
10023TIP3   OH230011   6.573   0.045   1.973
10023TIP3    H130012   6.593   0.030   2.066
10023TIP3    H230013   6.506   0.114   1.975
10024TIP3   OH230014   3.137   6.477   0.746
10024TIP3    H130015   3.085   6.471   0.665
10024TIP3    H230016   3.074   6.504   0.812
10025TIP3   OH230017   4.729   4.371   4.398
10025TIP3    H130018   4.780   4.359   4.478
10025TIP3    H230019   4.645   4.406   4.428
10026TIP3   OH230020   1.106   6.728   4.828
10026TIP3    H130021   1.150   6.646   4.806
10026TIP3    H230022   1.177   6.792   4.837
10027TIP3   OH230023   0.486   5.991   0.231
10027TIP3    H130024   0.431   6.063   0.200
10027TIP3    H230025   0.554   6.033   0.284
10028TIP3   OH230026   5.345   4.390   3.516
10028TIP3    H130027   5.277   4.455   3.535
10028TIP3    H230028   5.370   4.407   3.425
10029TIP3   OH230029   0.639   4.943   0.293
10029TIP3    H130030   0.609   4.996   0.219
10029TIP3    H230031   0.572   4.875   0.300
10030TIP3   OH230032   0.222   0.519   3.769
10030TIP3    H130033   0.205   0.477   3.854
10030TIP3    H230034   0.187   0.607   3.779
10031TIP3   OH230035   7.995   2.518   0.967
10031TIP3    H130036   8.015   2.575   0.893
10031TIP3    H230037   8.076   2.469   0.982
10032TIP3   OH230038   7.037   0.314   3.924
10032TIP3    H130039   7.074   0.357   4.001
10032TIP3    H230040   6.989   0.383   3.879
10033TIP3   OH230041   2.435   5.872   4.340
10033TIP3    H130042   2.351   5.826   4.341
10033TIP3    H230043   2.498   5.807   4.309
10034TIP3   OH230044   7.901   3.513   2.556
10034TIP3    H130045   7.846   3.444   2.593
10034TIP3    H230046   7.840   3.583   2.532
10035TIP3   OH230047   6.333   6.840   2.257
10035TIP3    H130048   6.323   6.745   2.265
10035TIP3    H230049   6.407   6.851   2.196
10036TIP3   OH230050   6.883   6.643   0.955
10036TIP3    H130051   6.939   6.664   0.881
10036TIP3    H230052   6.868   6.727   0.999
10037TIP3   OH230053   5.123   6.298   2.053
10037TIP3    H130054   5.187   6.229   2.036
10037TIP3    H230055   5.102   6.289   2.146
10038TIP3   OH230056   6.160   5.699   5.622
10038TIP3    H130057   6.069   5.680   5.643
10038TIP3    H230058   6.183   5.635   5.555
10039TIP3   OH230059   2.149   4.010   6.205
10039TIP3    H130060   2.225   4.045   6.252
10039TIP3    H230061   2.158   4.046   6.116
10040TIP3   OH230062   6.989   5.496   5.654
10040TIP3    H130063   6.955   5.533   5.572
10040TIP3    H230064   7.047   5.426   5.625
10041TIP3   OH230065   7.519   4.470   5.139
10041TIP3    H130066   7.574   4.481   5.217
10041TIP3    H230067   7.434   4.443   5.174
10042TIP3   OH230068   5.191   1.429   3.399
10042TIP3    H130069   5.287   1.421   3.404
10042TIP3    H230070   5.159   1.340   3.417
10043TIP3   OH230071   2.185   0.884   5.781
10043TIP3    H130072   2.187   0.904   5.874
10043TIP3    H230073   2.276   0.890   5.753
10044TIP3   OH230074   7.105   6.393   2.978
10044TIP3    H130075   7.190   6.412   3.017
10044TIP3    H230076   7.125   6.367   2.888
10045TIP3   OH230077   1.521   4.499   3.388
10045TIP3    H130078   1.503   4.517   3.481
10045TIP3    H230079   1.577   4.570   3.360
10046TIP3   OH230080   7.172   5.220   5.919
10046TIP3    H130081   7.257   5.261   5.910
10046TIP3    H230082   7.185   5.153   5.987
10047TIP3   OH230083   0.743   5.007   4.571
10047TIP3    H130084   0.721   4.927   4.522
10047TIP3    H230085   0.815   5.046   4.522
10048TIP3   OH230086   5.494   1.834   2.102
10048TIP3    H130087   5.523   1.750   2.138
10048TIP3    H230088   5.561   1.897   2.131
10049TIP3   OH230089   6.063   4.565   3.182
10049TIP3    H130090   6.106   4.647   3.205
10049TIP3    H230091   6.046   4.573   3.088
10050TIP3   OH230092   0.264   6.573   1.211
10050TIP3    H130093   0.279   6.668   1.207
10050TIP3    H230094   0.202   6.562   1.283
10051TIP3   OH230095   8.236   4.507   4.340
10051TIP3    H130096   8.218   4.477   4.251
10051TIP3    H230097   8.314   4.563   4.331
10052TIP3   OH230098   3.440   2.379   0.340
10052TIP3    H130099   3.432   2.347   0.250
10052TIP3    H230100   3.349   2.382   0.372
10053TIP3   OH230101   4.165   4.828   2.082
10053TIP3    H130102   4.133   4.778   2.007
10053TIP3    H230103   4.245   4.870   2.052
10054TIP3   OH230104   4.394   6.212   2.450
10054TIP3    H130105   4.412   6.305   2.436
10054TIP3    H230106   4.449   6.168   2.386
10055TIP3   OH230107   1.251   4.053   3.953
10055TIP3    H130108   1.229   4.107   4.029
10055TIP3    H230109   1.216   3.966   3.975
10056TIP3   OH230110   4.651   4.255   6.005
10056TIP3    H130111   4.671   4.334   6.055
10056TIP3    H230112   4.715   4.190   6.034
10057TIP3   OH230113   2.364   5.852   6.561
10057TIP3    H130114   2.328   5.770   6.528
10057TIP3    H230115   2.290   5.895   6.605
10058TIP3   OH230116   4.081   6.664   4.253
10058TIP3    H130117   3.994   6.647   4.218
10058TIP3    H230118   4.114   6.738   4.202
10059TIP3   OH230119   3.492   4.608   2.903
10059TIP3    H130120   3.529   4.567   2.981
10059TIP3    H230121   3.565   4.657   2.865
10060TIP3   OH230122   1.542   3.480   0.383
10060TIP3    H130123   1.605   3.528   0.329
10060TIP3    H230124   1.498   3.547   0.434
10061TIP3   OH230125   6.069   4.114   4.603
10061TIP3    H130126   6.060   4.182   4.536
10061TIP3    H230127   6.002   4.135   4.668
10062TIP3   OH230128   3.003   7.467   0.508
10062TIP3    H130129   2.995   7.462   0.603
10062TIP3    H230130   3.019   7.559   0.490
10063TIP3   OH230131   4.836   3.571   1.171
10063TIP3    H130132   4.856   3.559   1.079
10063TIP3    H230133   4.907   3.627   1.204
10064TIP3   OH230134   4.239   5.055   2.707
10064TIP3    H130135   4.220   5.032   2.798
10064TIP3    H230136   4.332   5.034   2.696
10065TIP3   OH230137   7.771   0.130   6.629
10065TIP3    H130138   7.751   0.036   6.625
10065TIP3    H230139   7.809   0.143   6.716
10066TIP3   OH230140   4.276   7.501   3.926
10066TIP3    H130141   4.348   7.440   3.944
10066TIP3    H230142   4.197   7.455   3.954
10067TIP3   OH230143   3.685   7.371   0.785
10067TIP3    H130144   3.754   7.420   0.829
10067TIP3    H230145   3.685   7.404   0.696
10068TIP3   OH230146   5.428   5.158   3.316
10068TIP3    H130147   5.431   5.151   3.221
10068TIP3    H230148   5.377   5.237   3.333
10069TIP3   OH230149   1.275   5.160   1.773
10069TIP3    H130150   1.221   5.083   1.757
10069TIP3    H230151   1.235   5.228   1.719
10070TIP3   OH230152   5.549   3.768   1.668
10070TIP3    H130153   5.551   3.698   1.733
10070TIP3    H230154   5.456   3.787   1.656
10071TIP3   OH230155   0.743   7.086   1.776
10071TIP3    H130156   0.656   7.066   1.810
10071TIP3    H230157   0.801   7.023   1.820
10072TIP3   OH230158   3.704   7.516   1.796
10072TIP3    H130159   3.733   7.481   1.881
10072TIP3    H230160   3.691   7.439   1.742
10073TIP3   OH230161   7.596   1.950   0.128
10073TIP3    H130162   7.614   1.869   0.080
10073TIP3    H230163   7.505   1.943   0.155
10074TIP3   OH230164   5.547   5.559   0.348
10074TIP3    H130165   5.613   5.531   0.412
10074TIP3    H230166   5.596   5.613   0.285
10075TIP3   OH230167   1.883   0.126   5.717
10075TIP3    H130168   1.901   0.034   5.698
10075TIP3    H230169   1.923   0.141   5.803
10076TIP3   OH230170   4.595   5.037   2.931
10076TIP3    H130171   4.542   5.032   3.011
10076TIP3    H230172   4.612   5.131   2.920
10077TIP3   OH230173   4.163   5.542   2.205
10077TIP3    H130174   4.170   5.589   2.287
10077TIP3    H230175   4.215   5.462   2.219
10078TIP3   OH230176   4.073   5.259   3.949
10078TIP3    H130177   4.083   5.271   4.044
10078TIP3    H230178   4.136   5.320   3.910
10079TIP3   OH230179   7.485   3.013   0.596
10079TIP3    H130180   7.402   3.050   0.629
10079TIP3    H230181   7.547   3.028   0.667
10080TIP3   OH230182   0.700   7.241   3.112
10080TIP3    H130183   0.793   7.260   3.100
10080TIP3    H230184   0.674   7.196   3.032
10081TIP3   OH230185   4.548   4.180   6.748
10081TIP3    H130186   4.626   4.125   6.757
10081TIP3    H230187   4.508   4.152   6.666
10082TIP3   OH230188   5.306   3.622   2.548
10082TIP3    H130189   5.241   3.563   2.585
10082TIP3    H230190   5.387   3.603   2.594
10083TIP3   OH230191   2.330   7.046   6.536
10083TIP3    H130192   2.241   7.039   6.502
10083TIP3    H230193   2.378   6.977   6.491
10084TIP3   OH230194   3.445   5.259   2.735
10084TIP3    H130195   3.357   5.253   2.697
10084TIP3    H230196   3.471   5.350   2.721
10085TIP3   OH230197   1.739   6.074   5.182
10085TIP3    H130198   1.753   6.083   5.088
10085TIP3    H230199   1.780   5.990   5.204
10086TIP3   OH230200   1.593   3.430   1.444
10086TIP3    H130201   1.679   3.463   1.416
10086TIP3    H230202   1.580   3.351   1.392
10087TIP3   OH230203   2.252   1.297   0.424
10087TIP3    H130204   2.264   1.375   0.478
10087TIP3    H230205   2.308   1.231   0.466
10088TIP3   OH230206   0.988   1.112   0.387
10088TIP3    H130207   1.051   1.102   0.459
10088TIP3    H230208   0.976   1.024   0.352
10089TIP3   OH230209   3.572   2.756   2.606
10089TIP3    H130210   3.656   2.762   2.650
10089TIP3    H230211   3.507   2.772   2.675
10090TIP3   OH230212   5.174   7.557   4.911
10090TIP3    H130213   5.207   7.643   4.936
10090TIP3    H230214   5.131   7.524   4.990
10091TIP3   OH230215   5.520   6.638   5.201
10091TIP3    H130216   5.455   6.699   5.236
10091TIP3    H230217   5.604   6.680   5.220
10092TIP3   OH230218   1.893   0.374   6.488
10092TIP3    H130219   1.902   0.463   6.454
10092TIP3    H230220   1.839   0.329   6.424
10093TIP3   OH230221   1.716   3.854   1.145
10093TIP3    H130222   1.650   3.807   1.093
10093TIP3    H230223   1.704   3.821   1.234
10094TIP3   OH230224   4.156   7.418   2.139
10094TIP3    H130225   4.139   7.511   2.155
10094TIP3    H230226   4.214   7.392   2.211
10095TIP3   OH230227   1.144   1.308   1.841
10095TIP3    H130228   1.193   1.242   1.792
10095TIP3    H230229   1.166   1.390   1.799
10096TIP3   OH230230   3.902   5.177   5.830
10096TIP3    H130231   3.855   5.102   5.865
10096TIP3    H230232   3.865   5.190   5.743
10097TIP3   OH230233   2.565   6.824   2.918
10097TIP3    H130234   2.643   6.870   2.948
10097TIP3    H230235   2.580   6.732   2.941
10098TIP3   OH230236   2.177   1.927   0.026
10098TIP3    H130237   2.195   1.984   0.101
10098TIP3    H230238   2.180   1.838   0.062
10099TIP3   OH230239   2.457   5.415   6.461
10099TIP3    H130240   2.364   5.405   6.444
10099TIP3    H230241   2.462   5.483   6.528
10100TIP3   OH230242   3.744   3.211   4.763
10100TIP3    H130243   3.718   3.201   4.671
10100TIP3    H230244   3.731   3.124   4.801
10101TIP3   OH230245   3.505   6.990   6.334
10101TIP3    H130246   3.470   6.913   6.290
10101TIP3    H230247   3.540   6.957   6.416
10102TIP3   OH230248   3.228   5.997   4.896
10102TIP3    H130249   3.299   6.015   4.836
10102TIP3    H230250   3.151   5.983   4.840
10103TIP3   OH230251   2.934   5.347   4.989
10103TIP3    H130252   2.863   5.380   5.044
10103TIP3    H230253   2.962   5.424   4.938
10104TIP3   OH230254   2.595   5.974   3.759
10104TIP3    H130255   2.653   5.976   3.683
10104TIP3    H230256   2.642   6.022   3.827
10105TIP3   OH230257   6.073   1.295   4.909
10105TIP3    H130258   6.066   1.350   4.831
10105TIP3    H230259   5.983   1.270   4.930
10106TIP3   OH230260   7.509   7.518   1.035
10106TIP3    H130261   7.512   7.466   0.954
10106TIP3    H230262   7.444   7.473   1.090
10107TIP3   OH230263   4.231   2.538   2.923
10107TIP3    H130264   4.313   2.545   2.875
10107TIP3    H230265   4.203   2.629   2.937
10108TIP3   OH230266   2.663   0.235   4.605
10108TIP3    H130267   2.634   0.144   4.608
10108TIP3    H230268   2.605   0.277   4.542
10109TIP3   OH230269   6.141   3.194   5.090
10109TIP3    H130270   6.177   3.219   5.175
10109TIP3    H230271   6.196   3.121   5.061
10110TIP3   OH230272   6.977   3.911   3.848
10110TIP3    H130273   7.069   3.888   3.863
10110TIP3    H230274   6.944   3.939   3.933
10111TIP3   OH230275   2.020   0.375   4.450
10111TIP3    H130276   1.996   0.444   4.387
10111TIP3    H230277   1.984   0.295   4.411
10112TIP3   OH230278   1.068   1.026   3.963
10112TIP3    H130279   1.041   0.948   4.012
10112TIP3    H230280   0.993   1.084   3.967
10113TIP3   OH230281   5.514   1.185   0.037
10113TIP3    H130282   5.571   1.110   0.052
10113TIP3    H230283   5.531   1.211  -0.054
10114TIP3   OH230284   2.877   1.901   0.498
10114TIP3    H130285   2.929   1.934   0.572
10114TIP3    H230286   2.787   1.922   0.521
10115TIP3   OH230287   1.900   0.310   3.286
10115TIP3    H130288   1.840   0.260   3.340
10115TIP3    H230289   1.966   0.247   3.258
10116TIP3   OH230290   7.184   4.516   5.100
10116TIP3    H130291   7.226   4.577   5.160
10116TIP3    H230292   7.221   4.430   5.124
10117TIP3   OH230293   5.355   1.665   1.118
10117TIP3    H130294   5.420   1.713   1.066
10117TIP3    H230295   5.346   1.716   1.198
10118TIP3   OH230296   4.806   0.151   5.886
10118TIP3    H130297   4.733   0.209   5.863
10118TIP3    H230298   4.800   0.143   5.981
10119TIP3   OH230299   4.947   6.645   5.331
10119TIP3    H130300   4.953   6.617   5.240
10119TIP3    H230301   5.028   6.613   5.371
10120TIP3   OH230302   6.311   6.268   2.120
10120TIP3    H130303   6.246   6.286   2.052
10120TIP3    H230304   6.368   6.345   2.121
10121TIP3   OH230305   2.950   4.501   2.490
10121TIP3    H130306   3.025   4.450   2.523
10121TIP3    H230307   2.965   4.589   2.523
10122TIP3   OH230308   5.440   2.613   3.226
10122TIP3    H130309   5.457   2.706   3.242
10122TIP3    H230310   5.497   2.566   3.287
10123TIP3   OH230311   5.887   3.242   4.983
10123TIP3    H130312   5.976   3.220   5.011
10123TIP3    H230313   5.834   3.232   5.063
10124TIP3   OH230314   5.589   2.854   1.288
10124TIP3    H130315   5.617   2.792   1.355
10124TIP3    H230316   5.660   2.919   1.284
10125TIP3   OH230317   3.137   0.464   1.309
10125TIP3    H130318   3.048   0.498   1.321
10125TIP3    H230319   3.180   0.527   1.251
10126TIP3   OH230320   6.437   0.089   0.032
10126TIP3    H130321   6.425   0.001   0.068
10126TIP3    H230322   6.350   0.129   0.038
10127TIP3   OH230323   6.152   5.663   2.705
10127TIP3    H130324   6.058   5.676   2.697
10127TIP3    H230325   6.190   5.715   2.634
10128TIP3   OH230326   2.374   2.514   6.520
10128TIP3    H130327   2.361   2.564   6.439
10128TIP3    H230328   2.306   2.546   6.579
10129TIP3   OH230329   4.594   6.192   6.311
10129TIP3    H130330   4.578   6.102   6.340
10129TIP3    H230331   4.688   6.196   6.297
10130TIP3   OH230332   3.839   6.323   6.381
10130TIP3    H130333   3.879   6.360   6.460
10130TIP3    H230334   3.809   6.400   6.333
10131TIP3   OH230335   5.928   0.077   6.287
10131TIP3    H130336   5.962   0.019   6.219
10131TIP3    H230337   5.886   0.148   6.239
10132TIP3   OH230338   7.988   6.586   1.145
10132TIP3    H130339   8.010   6.495   1.164
10132TIP3    H230340   8.047   6.610   1.074
10133TIP3   OH230341   5.298   4.567   2.935
10133TIP3    H130342   5.232   4.635   2.931
10133TIP3    H230343   5.380   4.611   2.915
10134TIP3   OH230344   5.091   2.114   1.782
10134TIP3    H130345   5.091   2.185   1.846
10134TIP3    H230346   5.103   2.158   1.698
10135TIP3   OH230347   7.939   3.433   1.767
10135TIP3    H130348   7.916   3.453   1.676
10135TIP3    H230349   7.855   3.417   1.810
10136TIP3   OH230350   4.883   2.167   4.473
10136TIP3    H130351   4.904   2.155   4.565
10136TIP3    H230352   4.810   2.229   4.472
10137TIP3   OH230353   2.774   3.449   5.138
10137TIP3    H130354   2.722   3.467   5.216
10137TIP3    H230355   2.831   3.377   5.163
10138TIP3   OH230356   4.547   5.743   0.220
10138TIP3    H130357   4.485   5.795   0.271
10138TIP3    H230358   4.499   5.719   0.141
10139TIP3   OH230359   8.061   7.388   0.765
10139TIP3    H130360   8.134   7.343   0.722
10139TIP3    H230361   7.995   7.320   0.778
10140TIP3   OH230362   2.848   0.815   3.252
10140TIP3    H130363   2.828   0.725   3.275
10140TIP3    H230364   2.930   0.835   3.298
10141TIP3   OH230365   6.505   1.499   4.993
10141TIP3    H130366   6.540   1.414   4.966
10141TIP3    H230367   6.580   1.545   5.031
10142TIP3   OH230368   6.216   7.608   1.167
10142TIP3    H130369   6.267   7.639   1.242
10142TIP3    H230370   6.274   7.617   1.092
10143TIP3   OH230371   1.147   6.611   5.382
10143TIP3    H130372   1.138   6.670   5.457
10143TIP3    H230373   1.071   6.632   5.327
10144TIP3   OH230374   7.220   2.138   4.721
10144TIP3    H130375   7.193   2.101   4.638
10144TIP3    H230376   7.149   2.197   4.746
10145TIP3   OH230377   0.568   7.662   0.871
10145TIP3    H130378   0.523   7.653   0.955
10145TIP3    H230379   0.659   7.641   0.890
10146TIP3   OH230380   2.619   0.954   5.407
10146TIP3    H130381   2.585   0.905   5.332
10146TIP3    H230382   2.674   0.891   5.454
10147TIP3   OH230383   5.254   2.216   4.381
10147TIP3    H130384   5.221   2.161   4.310
10147TIP3    H230385   5.310   2.158   4.433
10148TIP3   OH230386   2.206   3.371   0.314
10148TIP3    H130387   2.111   3.364   0.302
10148TIP3    H230388   2.233   3.435   0.248
10149TIP3   OH230389   6.720   0.804   1.968
10149TIP3    H130390   6.694   0.712   1.959
10149TIP3    H230391   6.729   0.817   2.063
10150TIP3   OH230392   4.471   4.538   4.459
10150TIP3    H130393   4.487   4.545   4.365
10150TIP3    H230394   4.430   4.622   4.482
10151TIP3   OH230395   5.826   3.678   2.390
10151TIP3    H130396   5.834   3.773   2.379
10151TIP3    H230397   5.732   3.662   2.385
10152TIP3   OH230398   3.564   6.155   1.205
10152TIP3    H130399   3.526   6.172   1.119
10152TIP3    H230400   3.508   6.203   1.266
10153TIP3   OH230401   7.698   2.439   5.301
10153TIP3    H130402   7.769   2.470   5.357
10153TIP3    H230403   7.738   2.429   5.215
10154TIP3   OH230404   2.024   3.927   0.800
10154TIP3    H130405   2.020   3.915   0.895
10154TIP3    H230406   2.100   3.877   0.772
10155TIP3   OH230407   1.578   1.366   1.590
10155TIP3    H130408   1.588   1.348   1.684
10155TIP3    H230409   1.632   1.443   1.574
10156TIP3   OH230410   3.722   1.177   5.337
10156TIP3    H130411   3.762   1.147   5.419
10156TIP3    H230412   3.628   1.162   5.350
10157TIP3   OH230413   1.960   1.295   1.828
10157TIP3    H130414   2.029   1.259   1.883
10157TIP3    H230415   1.903   1.342   1.889
10158TIP3   OH230416   5.144   5.749   0.515
10158TIP3    H130417   5.171   5.657   0.522
10158TIP3    H230418   5.189   5.793   0.587
10159TIP3   OH230419   5.105   5.021   5.179
10159TIP3    H130420   5.102   5.070   5.262
10159TIP3    H230421   5.198   5.008   5.162
10160TIP3   OH230422   5.731   7.491   3.474
10160TIP3    H130423   5.786   7.535   3.409
10160TIP3    H230424   5.694   7.416   3.427
10161TIP3   OH230425   8.068   0.309   3.031
10161TIP3    H130426   8.087   0.222   2.997
10161TIP3    H230427   8.007   0.347   2.968
10162TIP3   OH230428   1.451   7.277   0.709
10162TIP3    H130429   1.491   7.352   0.665
10162TIP3    H230430   1.521   7.239   0.762
10163TIP3   OH230431   3.253   5.085   0.289
10163TIP3    H130432   3.207   5.119   0.212
10163TIP3    H230433   3.194   5.018   0.324
10164TIP3   OH230434   5.304   6.045   1.911
10164TIP3    H130435   5.351   5.982   1.856
10164TIP3    H230436   5.214   6.012   1.915
10165TIP3   OH230437   1.051   6.201   1.573
10165TIP3    H130438   0.995   6.212   1.495
10165TIP3    H230439   1.118   6.140   1.545
10166TIP3   OH230440   3.789   4.102   4.244
10166TIP3    H130441   3.876   4.074   4.272
10166TIP3    H230442   3.767   4.043   4.172
10167TIP3   OH230443   3.435   2.150   3.482
10167TIP3    H130444   3.448   2.124   3.573
10167TIP3    H230445   3.394   2.073   3.441
10168TIP3   OH230446   7.515   3.638   0.677
10168TIP3    H130447   7.491   3.730   0.693
10168TIP3    H230448   7.547   3.637   0.587
10169TIP3   OH230449   8.144   3.993   4.467
10169TIP3    H130450   8.079   3.927   4.493
10169TIP3    H230451   8.094   4.056   4.415
10170TIP3   OH230452   7.792   1.964   3.141
10170TIP3    H130453   7.703   1.939   3.114
10170TIP3    H230454   7.779   2.019   3.218
10171TIP3   OH230455   3.843   3.923   3.388
10171TIP3    H130456   3.843   3.970   3.305
10171TIP3    H230457   3.871   3.834   3.365
10172TIP3   OH230458   7.075   2.530   0.378
10172TIP3    H130459   7.097   2.611   0.332
10172TIP3    H230460   7.130   2.463   0.338
10173TIP3   OH230461   5.389   3.192   0.475
10173TIP3    H130462   5.354   3.111   0.437
10173TIP3    H230463   5.418   3.167   0.562
10174TIP3   OH230464   7.246   0.415   1.367
10174TIP3    H130465   7.275   0.324   1.366
10174TIP3    H230466   7.209   0.428   1.454
10175TIP3   OH230467   4.376   1.931   2.487
10175TIP3    H130468   4.339   1.889   2.564
10175TIP3    H230469   4.355   2.024   2.496
10176TIP3   OH230470   0.778   4.395   3.567
10176TIP3    H130471   0.784   4.402   3.472
10176TIP3    H230472   0.853   4.446   3.599
10177TIP3   OH230473   4.881   2.567   4.005
10177TIP3    H130474   4.947   2.580   4.073
10177TIP3    H230475   4.838   2.484   4.029
10178TIP3   OH230476   4.147   4.052   3.323
10178TIP3    H130477   4.199   3.989   3.273
10178TIP3    H230478   4.178   4.137   3.293
10179TIP3   OH230479  -0.019   1.555   3.941
10179TIP3    H130480   0.008   1.523   3.855
10179TIP3    H230481  -0.077   1.628   3.921
10180TIP3   OH230482   7.004   4.976   2.655
10180TIP3    H130483   6.945   5.043   2.690
10180TIP3    H230484   7.072   5.024   2.609
10181TIP3   OH230485   1.358   7.675   4.809
10181TIP3    H130486   1.269   7.691   4.777
10181TIP3    H230487   1.346   7.625   4.890
10182TIP3   OH230488   0.884   0.969   4.394
10182TIP3    H130489   0.874   1.064   4.401
10182TIP3    H230490   0.906   0.954   4.302
10183TIP3   OH230491   5.769   2.370   5.488
10183TIP3    H130492   5.712   2.433   5.444
10183TIP3    H230493   5.711   2.298   5.512
10184TIP3   OH230494   0.821   0.438   1.313
10184TIP3    H130495   0.834   0.521   1.359
10184TIP3    H230496   0.839   0.371   1.379
10185TIP3   OH230497   3.619   0.840   2.136
10185TIP3    H130498   3.603   0.749   2.114
10185TIP3    H230499   3.702   0.839   2.183
10186TIP3   OH230500   6.959   5.804   3.759
10186TIP3    H130501   6.917   5.884   3.791
10186TIP3    H230502   6.896   5.735   3.779
10187TIP3   OH230503   0.975   7.569   1.672
10187TIP3    H130504   0.995   7.524   1.590
10187TIP3    H230505   0.924   7.505   1.722
10188TIP3   OH230506   4.044   2.700   3.944
10188TIP3    H130507   4.074   2.777   3.992
10188TIP3    H230508   4.005   2.644   4.010
10189TIP3   OH230509   4.203   6.469   6.385
10189TIP3    H130510   4.117   6.485   6.424
10189TIP3    H230511   4.193   6.386   6.339
10190TIP3   OH230512   2.473   3.232   3.707
10190TIP3    H130513   2.536   3.161   3.698
10190TIP3    H230514   2.387   3.190   3.706
10191TIP3   OH230515   0.285   6.514   4.638
10191TIP3    H130516   0.335   6.433   4.646
10191TIP3    H230517   0.350   6.583   4.650
10192TIP3   OH230518   7.474   1.025   0.148
10192TIP3    H130519   7.489   1.007   0.240
10192TIP3    H230520   7.528   1.103   0.130
10193TIP3   OH230521   7.982   3.282   5.747
10193TIP3    H130522   7.951   3.371   5.765
10193TIP3    H230523   7.963   3.268   5.654
10194TIP3   OH230524   6.295   3.550   2.450
10194TIP3    H130525   6.371   3.505   2.488
10194TIP3    H230526   6.283   3.508   2.365
10195TIP3   OH230527   2.441   5.553   6.019
10195TIP3    H130528   2.429   5.617   6.089
10195TIP3    H230529   2.390   5.587   5.946
10196TIP3   OH230530   5.439   1.744   0.541
10196TIP3    H130531   5.406   1.680   0.478
10196TIP3    H230532   5.412   1.709   0.626
10197TIP3   OH230533   0.477   7.337   4.345
10197TIP3    H130534   0.417   7.388   4.291
10197TIP3    H230535   0.564   7.372   4.325
10198TIP3   OH230536   2.693   7.594   5.009
10198TIP3    H130537   2.735   7.542   5.078
10198TIP3    H230538   2.738   7.679   5.012
10199TIP3   OH230539   0.187   2.789   3.685
10199TIP3    H130540   0.196   2.731   3.760
10199TIP3    H230541   0.131   2.861   3.717
10200TIP3   OH230542   6.660   5.572   1.834
10200TIP3    H130543   6.565   5.557   1.830
10200TIP3    H230544   6.678   5.590   1.926
10201TIP3   OH230545   5.692   3.407   0.608
10201TIP3    H130546   5.763   3.459   0.646
10201TIP3    H230547   5.631   3.471   0.573
10202TIP3   OH230548   1.810   2.263   3.714
10202TIP3    H130549   1.850   2.253   3.627
10202TIP3    H230550   1.885   2.273   3.773
10203TIP3   OH230551   7.714   4.318   1.078
10203TIP3    H130552   7.699   4.224   1.069
10203TIP3    H230553   7.803   4.325   1.113
10204TIP3   OH230554   0.763   1.869   5.547
10204TIP3    H130555   0.774   1.963   5.531
10204TIP3    H230556   0.802   1.827   5.470
10205TIP3   OH230557   1.881   3.038   6.536
10205TIP3    H130558   1.838   2.982   6.600
10205TIP3    H230559   1.825   3.032   6.458
10206TIP3   OH230560   3.904   3.604   1.078
10206TIP3    H130561   3.906   3.593   0.983
10206TIP3    H230562   3.973   3.667   1.097
10207TIP3   OH230563   6.846   6.993   3.877
10207TIP3    H130564   6.899   7.028   3.949
10207TIP3    H230565   6.776   7.058   3.866
10208TIP3   OH230566   3.324   6.619   1.317
10208TIP3    H130567   3.392   6.675   1.353
10208TIP3    H230568   3.328   6.539   1.370
10209TIP3   OH230569   6.565   6.607   5.961
10209TIP3    H130570   6.581   6.512   5.965
10209TIP3    H230571   6.572   6.636   6.052
10210TIP3   OH230572   2.081   5.026   4.308
10210TIP3    H130573   2.030   4.947   4.326
10210TIP3    H230574   2.043   5.093   4.364
10211TIP3   OH230575   1.353   1.780   3.219
10211TIP3    H130576   1.442   1.808   3.240
10211TIP3    H230577   1.341   1.805   3.128
10212TIP3   OH230578   4.341   4.352   0.807
10212TIP3    H130579   4.361   4.413   0.736
10212TIP3    H230580   4.275   4.293   0.770
10213TIP3   OH230581   0.941   1.876   1.821
10213TIP3    H130582   0.880   1.844   1.755
10213TIP3    H230583   0.940   1.972   1.811
10214TIP3   OH230584   4.279   2.090   1.338
10214TIP3    H130585   4.321   2.036   1.271
10214TIP3    H230586   4.186   2.076   1.325
10215TIP3   OH230587   2.709   4.870   4.908
10215TIP3    H130588   2.787   4.918   4.883
10215TIP3    H230589   2.637   4.916   4.865
10216TIP3   OH230590   1.101   5.399   1.339
10216TIP3    H130591   1.019   5.404   1.291
10216TIP3    H230592   1.152   5.475   1.308
10217TIP3   OH230593   4.253   1.039   4.910
10217TIP3    H130594   4.258   0.961   4.964
10217TIP3    H230595   4.254   1.007   4.820
10218TIP3   OH230596   3.395   2.655   1.647
10218TIP3    H130597   3.428   2.730   1.695
10218TIP3    H230598   3.474   2.613   1.612
10219TIP3   OH230599   6.272   1.862   2.324
10219TIP3    H130600   6.269   1.810   2.244
10219TIP3    H230601   6.181   1.887   2.340
10220TIP3   OH230602   7.421   6.227   1.533
10220TIP3    H130603   7.440   6.283   1.458
10220TIP3    H230604   7.325   6.229   1.541
10221TIP3   OH230605   2.947   3.252   6.156
10221TIP3    H130606   2.874   3.218   6.104
10221TIP3    H230607   2.933   3.217   6.243
10222TIP3   OH230608   2.132   0.517   2.099
10222TIP3    H130609   2.103   0.497   2.010
10222TIP3    H230610   2.192   0.446   2.122
10223TIP3   OH230611   7.597   3.995   6.218
10223TIP3    H130612   7.690   4.012   6.203
10223TIP3    H230613   7.553   4.031   6.141
10224TIP3   OH230614   4.568   2.605   5.523
10224TIP3    H130615   4.542   2.525   5.478
10224TIP3    H230616   4.489   2.631   5.571
10225TIP3   OH230617   8.188   0.722   4.463
10225TIP3    H130618   8.262   0.736   4.404
10225TIP3    H230619   8.205   0.780   4.538
10226TIP3   OH230620   0.166   7.450   1.808
10226TIP3    H130621   0.205   7.502   1.737
10226TIP3    H230622   0.220   7.371   1.812
10227TIP3   OH230623   1.247   7.237   3.664
10227TIP3    H130624   1.309   7.258   3.733
10227TIP3    H230625   1.243   7.141   3.663
10228TIP3   OH230626   4.555   3.439   1.371
10228TIP3    H130627   4.535   3.507   1.308
10228TIP3    H230628   4.553   3.358   1.321
10229TIP3   OH230629   3.847   4.888   5.853
10229TIP3    H130630   3.892   4.881   5.769
10229TIP3    H230631   3.776   4.824   5.848
10230TIP3   OH230632   5.539   6.471   4.309
10230TIP3    H130633   5.610   6.527   4.342
10230TIP3    H230634   5.511   6.419   4.384
10231TIP3   OH230635   3.541   5.029   4.799
10231TIP3    H130636   3.567   4.937   4.809
10231TIP3    H230637   3.521   5.057   4.889
10232TIP3   OH230638   6.677   6.331   0.645
10232TIP3    H130639   6.752   6.344   0.703
10232TIP3    H230640   6.609   6.389   0.680
10233TIP3   OH230641   4.329   7.189   2.970
10233TIP3    H130642   4.261   7.145   3.021
10233TIP3    H230643   4.281   7.234   2.900
10234TIP3   OH230644   3.885   4.477   6.189
10234TIP3    H130645   3.849   4.390   6.206
10234TIP3    H230646   3.878   4.486   6.094
10235TIP3   OH230647   1.570   5.740   3.318
10235TIP3    H130648   1.663   5.735   3.339
10235TIP3    H230649   1.545   5.650   3.299
10236TIP3   OH230650   1.195   5.041   1.183
10236TIP3    H130651   1.252   4.988   1.127
10236TIP3    H230652   1.255   5.094   1.235
10237TIP3   OH230653   7.187   5.840   6.428
10237TIP3    H130654   7.192   5.934   6.442
10237TIP3    H230655   7.196   5.829   6.333
10238TIP3   OH230656   0.813   7.312   2.074
10238TIP3    H130657   0.738   7.253   2.064
10238TIP3    H230658   0.826   7.350   1.987
10239TIP3   OH230659   3.972   6.158   0.530
10239TIP3    H130660   3.927   6.241   0.517
10239TIP3    H230661   4.057   6.182   0.566
10240TIP3   OH230662   7.843   3.792   5.199
10240TIP3    H130663   7.782   3.730   5.238
10240TIP3    H230664   7.843   3.769   5.106
10241TIP3   OH230665   5.232   0.811   5.497
10241TIP3    H130666   5.260   0.790   5.586
10241TIP3    H230667   5.309   0.795   5.443
10242TIP3   OH230668   2.083   0.758   3.993
10242TIP3    H130669   2.057   0.841   3.954
10242TIP3    H230670   2.140   0.783   4.066
10243TIP3   OH230671   3.273   1.698   3.916
10243TIP3    H130672   3.258   1.789   3.943
10243TIP3    H230673   3.246   1.695   3.825
10244TIP3   OH230674   0.163   1.608   4.157
10244TIP3    H130675   0.149   1.701   4.173
10244TIP3    H230676   0.105   1.588   4.083
10245TIP3   OH230677   1.664   3.528   5.552
10245TIP3    H130678   1.570   3.544   5.546
10245TIP3    H230679   1.688   3.495   5.466
10246TIP3   OH230680   5.449   7.077   5.951
10246TIP3    H130681   5.412   7.166   5.955
10246TIP3    H230682   5.413   7.041   5.870
10247TIP3   OH230683   7.905   1.334   1.381
10247TIP3    H130684   7.939   1.369   1.298
10247TIP3    H230685   7.844   1.265   1.354
10248TIP3   OH230686   4.005   4.478   3.919
10248TIP3    H130687   4.066   4.551   3.914
10248TIP3    H230688   4.012   4.447   4.009
10249TIP3   OH230689   2.009   0.175   5.950
10249TIP3    H130690   1.981   0.235   6.020
10249TIP3    H230691   2.095   0.145   5.978
10250TIP3   OH230692   7.717   6.503   4.728
10250TIP3    H130693   7.799   6.545   4.752
10250TIP3    H230694   7.730   6.410   4.746
10251TIP3   OH230695   3.394   0.473   1.489
10251TIP3    H130696   3.333   0.410   1.450
10251TIP3    H230697   3.391   0.549   1.431
10252TIP3   OH230698   1.701   4.416   5.193
10252TIP3    H130699   1.610   4.440   5.174
10252TIP3    H230700   1.734   4.383   5.109
10253TIP3   OH230701   3.189   1.235   2.585
10253TIP3    H130702   3.198   1.329   2.595
10253TIP3    H230703   3.157   1.223   2.496
10254TIP3   OH230704   0.541   7.402   1.721
10254TIP3    H130705   0.525   7.390   1.627
10254TIP3    H230706   0.520   7.493   1.738
10255TIP3   OH230707   0.801   5.371   1.291
10255TIP3    H130708   0.807   5.372   1.196
10255TIP3    H230709   0.715   5.409   1.310
10256TIP3   OH230710   1.585   0.249   4.752
10256TIP3    H130711   1.599   0.264   4.658
10256TIP3    H230712   1.588   0.336   4.791
10257TIP3   OH230713   1.372   4.298   3.529
10257TIP3    H130714   1.373   4.390   3.557
10257TIP3    H230715   1.380   4.302   3.434
10258TIP3   OH230716   0.862   0.614   6.543
10258TIP3    H130717   0.941   0.668   6.541
10258TIP3    H230718   0.834   0.615   6.634
10259TIP3   OH230719   5.370   0.179   1.591
10259TIP3    H130720   5.347   0.138   1.674
10259TIP3    H230721   5.436   0.120   1.553
10260TIP3   OH230722   6.907   7.384   3.712
10260TIP3    H130723   6.944   7.370   3.799
10260TIP3    H230724   6.955   7.324   3.656
10261TIP3   OH230725   1.993   7.757   5.141
10261TIP3    H130726   1.990   7.803   5.225
10261TIP3    H230727   1.903   7.726   5.128
10262TIP3   OH230728   6.515   0.840   2.447
10262TIP3    H130729   6.451   0.842   2.376
10262TIP3    H230730   6.502   0.755   2.489
10263TIP3   OH230731   7.819   6.857   3.445
10263TIP3    H130732   7.883   6.823   3.382
10263TIP3    H230733   7.818   6.951   3.429
10264TIP3   OH230734   1.573   2.194   3.809
10264TIP3    H130735   1.515   2.156   3.743
10264TIP3    H230736   1.651   2.220   3.760
10265TIP3   OH230737   0.727   0.547   3.198
10265TIP3    H130738   0.792   0.562   3.266
10265TIP3    H230739   0.778   0.531   3.119
10266TIP3   OH230740   7.773   1.361   1.112
10266TIP3    H130741   7.688   1.317   1.112
10266TIP3    H230742   7.836   1.292   1.092
10267TIP3   OH230743   5.928   1.238   6.413
10267TIP3    H130744   5.986   1.194   6.351
10267TIP3    H230745   5.851   1.260   6.361
10268TIP3   OH230746   7.708   1.080   5.238
10268TIP3    H130747   7.704   0.998   5.287
10268TIP3    H230748   7.773   1.064   5.170
10269TIP3   OH230749   7.319   0.762   3.393
10269TIP3    H130750   7.310   0.682   3.445
10269TIP3    H230751   7.363   0.734   3.312
10270TIP3   OH230752   2.985   4.160   1.088
10270TIP3    H130753   3.015   4.084   1.138
10270TIP3    H230754   3.065   4.209   1.068
10271TIP3   OH230755   5.256   3.259   5.982
10271TIP3    H130756   5.329   3.321   5.976
10271TIP3    H230757   5.210   3.267   5.898
10272TIP3   OH230758   3.976   3.423   5.337
10272TIP3    H130759   4.013   3.461   5.257
10272TIP3    H230760   4.032   3.348   5.356
10273TIP3   OH230761   7.702   1.198   3.162
10273TIP3    H130762   7.627   1.257   3.151
10273TIP3    H230763   7.773   1.242   3.116
10274TIP3   OH230764   7.335   0.087   2.555
10274TIP3    H130765   7.259   0.054   2.507
10274TIP3    H230766   7.302   0.164   2.601
10275TIP3   OH230767   8.144   5.561   4.404
10275TIP3    H130768   8.144   5.638   4.348
10275TIP3    H230769   8.122   5.488   4.346
10276TIP3   OH230770   5.253   5.075   6.083
10276TIP3    H130771   5.237   5.065   6.177
10276TIP3    H230772   5.167   5.061   6.043
10277TIP3   OH230773   5.579   7.617   1.389
10277TIP3    H130774   5.572   7.687   1.323
10277TIP3    H230775   5.629   7.656   1.460
10278TIP3   OH230776   1.159   2.935   5.061
10278TIP3    H130777   1.129   2.890   4.981
10278TIP3    H230778   1.105   3.014   5.066
10279TIP3   OH230779   7.223   6.094   5.666
10279TIP3    H130780   7.224   6.000   5.648
10279TIP3    H230781   7.312   6.114   5.696
10280TIP3   OH230782   5.519   5.115   5.840
10280TIP3    H130783   5.428   5.130   5.815
10280TIP3    H230784   5.540   5.185   5.902
10281TIP3   OH230785   6.579   0.590   4.649
10281TIP3    H130786   6.640   0.520   4.624
10281TIP3    H230787   6.624   0.671   4.625
10282TIP3   OH230788   4.304   3.502   0.299
10282TIP3    H130789   4.347   3.491   0.214
10282TIP3    H230790   4.261   3.587   0.293
10283TIP3   OH230791   2.241   0.115   0.982
10283TIP3    H130792   2.315   0.104   0.922
10283TIP3    H230793   2.209   0.026   0.996
10284TIP3   OH230794   0.068   5.296   5.870
10284TIP3    H130795   0.037   5.323   5.956
10284TIP3    H230796   0.066   5.377   5.818
10285TIP3   OH230797   6.821   0.990   6.225
10285TIP3    H130798   6.811   0.940   6.145
10285TIP3    H230799   6.757   0.952   6.286
10286TIP3   OH230800   6.728   4.678   5.069
10286TIP3    H130801   6.636   4.697   5.089
10286TIP3    H230802   6.777   4.742   5.121
10287TIP3   OH230803   4.724   2.862   6.157
10287TIP3    H130804   4.808   2.889   6.194
10287TIP3    H230805   4.746   2.826   6.071
10288TIP3   OH230806   7.571   1.734   1.185
10288TIP3    H130807   7.640   1.690   1.234
10288TIP3    H230808   7.531   1.665   1.133
10289TIP3   OH230809   5.692   5.908   5.691
10289TIP3    H130810   5.637   5.878   5.762
10289TIP3    H230811   5.700   6.003   5.705
10290TIP3   OH230812   0.568   7.109   2.889
10290TIP3    H130813   0.604   7.038   2.941
10290TIP3    H230814   0.493   7.071   2.845
10291TIP3   OH230815   3.893   1.219   3.073
10291TIP3    H130816   3.858   1.142   3.029
10291TIP3    H230817   3.815   1.265   3.105
10292TIP3   OH230818   5.514   1.465   1.441
10292TIP3    H130819   5.600   1.428   1.458
10292TIP3    H230820   5.464   1.393   1.402
10293TIP3   OH230821   3.911   3.073   2.939
10293TIP3    H130822   3.818   3.052   2.945
10293TIP3    H230823   3.925   3.096   2.847
10294TIP3   OH230824   0.589   3.344   2.991
10294TIP3    H130825   0.666   3.381   3.035
10294TIP3    H230826   0.588   3.252   3.018
10295TIP3   OH230827   7.054   7.346   0.360
10295TIP3    H130828   7.076   7.424   0.410
10295TIP3    H230829   7.137   7.321   0.318
10296TIP3   OH230830   2.102   2.773   6.011
10296TIP3    H130831   2.027   2.747   5.957
10296TIP3    H230832   2.063   2.807   6.092
10297TIP3   OH230833   5.309   3.693   2.188
10297TIP3    H130834   5.249   3.704   2.262
10297TIP3    H230835   5.300   3.601   2.163
10298TIP3   OH230836   3.488   7.122   0.035
10298TIP3    H130837   3.581   7.098   0.033
10298TIP3    H230838   3.449   7.075  -0.039
10299TIP3   OH230839   0.203   0.504   2.072
10299TIP3    H130840   0.215   0.595   2.043
10299TIP3    H230841   0.249   0.452   2.006
10300TIP3   OH230842   3.463   2.621   3.301
10300TIP3    H130843   3.517   2.596   3.376
10300TIP3    H230844   3.381   2.574   3.314
10301TIP3   OH230845   3.847   5.585   6.388
10301TIP3    H130846   3.883   5.607   6.302
10301TIP3    H230847   3.756   5.612   6.384
10302TIP3   OH230848   4.563   4.091   1.775
10302TIP3    H130849   4.643   4.089   1.723
10302TIP3    H230850   4.589   4.055   1.860
10303TIP3   OH230851   2.600   0.361   6.298
10303TIP3    H130852   2.671   0.299   6.317
10303TIP3    H230853   2.644   0.437   6.259
10304TIP3   OH230854   0.949   3.774   2.187
10304TIP3    H130855   1.023   3.718   2.209
10304TIP3    H230856   0.878   3.743   2.245
10305TIP3   OH230857   2.961   6.697   3.915
10305TIP3    H130858   3.021   6.637   3.960
10305TIP3    H230859   3.003   6.783   3.923
10306TIP3   OH230860   4.087   0.268   0.099
10306TIP3    H130861   3.999   0.301   0.117
10306TIP3    H230862   4.121   0.241   0.184
10307TIP3   OH230863   1.524   5.533   1.444
10307TIP3    H130864   1.590   5.518   1.377
10307TIP3    H230865   1.541   5.467   1.511
10308TIP3   OH230866   8.095   7.787   4.494
10308TIP3    H130867   8.132   7.802   4.406
10308TIP3    H230868   8.006   7.822   4.489
10309TIP3   OH230869   7.653   5.454   2.384
10309TIP3    H130870   7.746   5.437   2.369
10309TIP3    H230871   7.626   5.384   2.444
10310TIP3   OH230872   2.873   4.363   3.664
10310TIP3    H130873   2.890   4.397   3.752
10310TIP3    H230874   2.865   4.268   3.676
10311TIP3   OH230875   3.864   5.298   5.104
10311TIP3    H130876   3.881   5.315   5.197
10311TIP3    H230877   3.817   5.376   5.074
10312TIP3   OH230878   3.093   3.749   3.330
10312TIP3    H130879   3.007   3.713   3.311
10312TIP3    H230880   3.080   3.807   3.405
10313TIP3   OH230881   4.345   0.625   4.112
10313TIP3    H130882   4.372   0.553   4.055
10313TIP3    H230883   4.385   0.604   4.197
10314TIP3   OH230884   3.828   5.344   4.251
10314TIP3    H130885   3.805   5.345   4.158
10314TIP3    H230886   3.897   5.409   4.260
10315TIP3   OH230887   2.084   7.073   2.282
10315TIP3    H130888   2.036   7.113   2.210
10315TIP3    H230889   2.047   6.985   2.290
10316TIP3   OH230890   0.446   4.885   1.071
10316TIP3    H130891   0.407   4.907   1.156
10316TIP3    H230892   0.540   4.876   1.090
10317TIP3   OH230893   5.479   1.328   1.866
10317TIP3    H130894   5.473   1.397   1.800
10317TIP3    H230895   5.562   1.283   1.846
10318TIP3   OH230896   3.049   4.250   5.726
10318TIP3    H130897   2.994   4.320   5.692
10318TIP3    H230898   3.036   4.177   5.666
10319TIP3   OH230899   3.552   0.229   5.057
10319TIP3    H130900   3.623   0.166   5.066
10319TIP3    H230901   3.489   0.187   4.999
10320TIP3   OH230902   4.572   1.185   6.000
10320TIP3    H130903   4.501   1.171   5.938
10320TIP3    H230904   4.529   1.217   6.079
10321TIP3   OH230905   1.149   0.596   5.427
10321TIP3    H130906   1.232   0.597   5.473
10321TIP3    H230907   1.107   0.679   5.451
10322TIP3   OH230908   5.878   3.172   2.343
10322TIP3    H130909   5.804   3.139   2.292
10322TIP3    H230910   5.894   3.105   2.409
10323TIP3   OH230911   2.029   6.599   1.404
10323TIP3    H130912   1.964   6.599   1.334
10323TIP3    H230913   2.104   6.552   1.367
10324TIP3   OH230914   5.520   5.170   3.918
10324TIP3    H130915   5.506   5.122   3.999
10324TIP3    H230916   5.433   5.181   3.881
10325TIP3   OH230917   2.837   3.797   1.170
10325TIP3    H130918   2.838   3.743   1.091
10325TIP3    H230919   2.780   3.870   1.147
10326TIP3   OH230920   7.991   2.938   5.691
10326TIP3    H130921   7.932   2.937   5.767
10326TIP3    H230922   7.953   3.003   5.633
10327TIP3   OH230923   7.904   4.039   5.524
10327TIP3    H130924   7.941   3.954   5.547
10327TIP3    H230925   7.886   4.033   5.431
10328TIP3   OH230926   1.015   3.862   2.931
10328TIP3    H130927   1.044   3.887   2.843
10328TIP3    H230928   1.040   3.770   2.939
10329TIP3   OH230929   1.228   3.102   5.418
10329TIP3    H130930   1.272   3.053   5.349
10329TIP3    H230931   1.179   3.170   5.372
10330TIP3   OH230932   1.863   3.327   0.699
10330TIP3    H130933   1.838   3.416   0.721
10330TIP3    H230934   1.808   3.304   0.624
10331TIP3   OH230935   5.282   3.526   1.878
10331TIP3    H130936   5.366   3.568   1.901
10331TIP3    H230937   5.259   3.476   1.957
10332TIP3   OH230938   4.294   0.093   3.696
10332TIP3    H130939   4.289   0.091   3.600
10332TIP3    H230940   4.301   0.001   3.722
10333TIP3   OH230941   7.581   7.028   2.449
10333TIP3    H130942   7.631   6.993   2.522
10333TIP3    H230943   7.585   6.960   2.382
10334TIP3   OH230944   7.779   2.853   3.911
10334TIP3    H130945   7.851   2.791   3.918
10334TIP3    H230946   7.812   2.934   3.951
10335TIP3   OH230947   6.252   1.677   6.286
10335TIP3    H130948   6.296   1.714   6.210
10335TIP3    H230949   6.170   1.727   6.293
10336TIP3   OH230950   3.278   1.867   3.600
10336TIP3    H130951   3.194   1.823   3.591
10336TIP3    H230952   3.343   1.800   3.581
10337TIP3   OH230953   4.009   5.984   3.655
10337TIP3    H130954   3.948   5.926   3.610
10337TIP3    H230955   3.973   6.072   3.643
10338TIP3   OH230956   3.255   7.710   1.410
10338TIP3    H130957   3.337   7.669   1.383
10338TIP3    H230958   3.262   7.800   1.377
10339TIP3   OH230959   7.610   5.662   5.488
10339TIP3    H130960   7.544   5.729   5.505
10339TIP3    H230961   7.675   5.706   5.432
10340TIP3   OH230962   0.544   1.933   0.471
10340TIP3    H130963   0.456   1.971   0.469
10340TIP3    H230964   0.592   1.980   0.403
10341TIP3   OH230965   7.733   6.425   2.260
10341TIP3    H130966   7.736   6.392   2.350
10341TIP3    H230967   7.809   6.483   2.253
10342TIP3   OH230968   0.767   6.611   2.365
10342TIP3    H130969   0.791   6.623   2.273
10342TIP3    H230970   0.732   6.522   2.369
10343TIP3   OH230971   2.181   3.059   5.078
10343TIP3    H130972   2.122   3.091   5.009
10343TIP3    H230973   2.235   2.993   5.034
10344TIP3   OH230974   2.396   7.656   4.504
10344TIP3    H130975   2.390   7.719   4.576
10344TIP3    H230976   2.444   7.703   4.435
10345TIP3   OH230977   1.579   3.863   4.050
10345TIP3    H130978   1.558   3.890   3.961
10345TIP3    H230979   1.636   3.932   4.083
10346TIP3   OH230980   3.733   5.614   3.283
10346TIP3    H130981   3.677   5.692   3.282
10346TIP3    H230982   3.678   5.546   3.321
10347TIP3   OH230983   2.378   3.718   3.551
10347TIP3    H130984   2.331   3.639   3.526
10347TIP3    H230985   2.447   3.688   3.611
10348TIP3   OH230986   7.079   2.470   6.328
10348TIP3    H130987   7.166   2.508   6.337
10348TIP3    H230988   7.095   2.385   6.286
10349TIP3   OH230989   1.975   3.569   5.020
10349TIP3    H130990   1.885   3.541   5.004
10349TIP3    H230991   2.029   3.499   4.983
10350TIP3   OH230992   3.255   6.721   4.002
10350TIP3    H130993   3.275   6.758   4.088
10350TIP3    H230994   3.203   6.788   3.959
10351TIP3   OH230995   1.498   0.978   3.964
10351TIP3    H130996   1.574   1.008   4.014
10351TIP3    H230997   1.536   0.940   3.884
10352TIP3   OH230998   3.333   3.599   0.419
10352TIP3    H130999   3.385   3.678   0.399
10352TIP3    H231000   3.248   3.633   0.446
10353TIP3   OH231001   7.562   1.570   0.298
10353TIP3    H131002   7.556   1.475   0.309
10353TIP3    H231003   7.601   1.602   0.379
10354TIP3   OH231004   1.434   4.909   4.449
10354TIP3    H131005   1.407   5.001   4.458
10354TIP3    H231006   1.363   4.868   4.401
10355TIP3   OH231007   7.261   1.209   6.418
10355TIP3    H131008   7.305   1.246   6.341
10355TIP3    H231009   7.181   1.170   6.383
10356TIP3   OH231010   7.419   3.400   0.595
10356TIP3    H131011   7.350   3.435   0.539
10356TIP3    H231012   7.459   3.477   0.635
10357TIP3   OH231013   4.864   7.513   4.832
10357TIP3    H131014   4.793   7.554   4.881
10357TIP3    H231015   4.943   7.533   4.882
10358TIP3   OH231016   5.518   1.317   2.241
10358TIP3    H131017   5.443   1.258   2.233
10358TIP3    H231018   5.537   1.319   2.335
10359TIP3   OH231019   7.760   2.175   6.087
10359TIP3    H131020   7.794   2.264   6.086
10359TIP3    H231021   7.828   2.124   6.042
10360TIP3   OH231022   5.858   0.641   2.892
10360TIP3    H131023   5.888   0.726   2.924
10360TIP3    H231024   5.872   0.644   2.798
10361TIP3   OH231025   1.039   5.258   2.279
10361TIP3    H131026   1.081   5.244   2.194
10361TIP3    H231027   1.089   5.203   2.340
10362TIP3   OH231028   7.993   6.325   2.756
10362TIP3    H131029   7.995   6.230   2.743
10362TIP3    H231030   7.910   6.341   2.800
10363TIP3   OH231031   5.545   4.066   3.473
10363TIP3    H131032   5.604   3.991   3.475
10363TIP3    H231033   5.485   4.047   3.401
10364TIP3   OH231034   7.314   5.145   3.762
10364TIP3    H131035   7.266   5.136   3.845
10364TIP3    H231036   7.386   5.083   3.769
10365TIP3   OH231037   6.672   2.611   5.979
10365TIP3    H131038   6.641   2.557   5.906
10365TIP3    H231039   6.717   2.684   5.937
10366TIP3   OH231040   7.322   6.225   4.453
10366TIP3    H131041   7.416   6.213   4.465
10366TIP3    H231042   7.287   6.136   4.447
10367TIP3   OH231043   7.971   0.107   3.370
10367TIP3    H131044   8.010   0.186   3.333
10367TIP3    H231045   7.886   0.099   3.325
10368TIP3   OH231046   7.472   5.686   0.988
10368TIP3    H131047   7.413   5.651   1.055
10368TIP3    H231048   7.426   5.762   0.953
10369TIP3   OH231049   3.216   6.353   1.118
10369TIP3    H131050   3.200   6.304   1.037
10369TIP3    H231051   3.136   6.405   1.131
10370TIP3   OH231052   1.115   3.545   3.118
10370TIP3    H131053   1.167   3.568   3.195
10370TIP3    H231054   1.158   3.591   3.046
10371TIP3   OH231055   6.671   7.443   6.043
10371TIP3    H131056   6.591   7.421   5.995
10371TIP3    H231057   6.641   7.464   6.131
10372TIP3   OH231058   2.545   4.735   4.543
10372TIP3    H131059   2.513   4.669   4.605
10372TIP3    H231060   2.467   4.786   4.521
10373TIP3   OH231061   7.813   2.707   6.477
10373TIP3    H131062   7.765   2.787   6.498
10373TIP3    H231063   7.751   2.654   6.427
10374TIP3   OH231064   0.451   4.848   2.864
10374TIP3    H131065   0.463   4.820   2.955
10374TIP3    H231066   0.361   4.823   2.843
10375TIP3   OH231067   8.024   3.802   2.505
10375TIP3    H131068   8.105   3.851   2.521
10375TIP3    H231069   8.046   3.742   2.433
10376TIP3   OH231070   7.184   2.322   5.143
10376TIP3    H131071   7.150   2.346   5.230
10376TIP3    H231072   7.229   2.401   5.113
10377TIP3   OH231073   2.274   6.851   2.732
10377TIP3    H131074   2.321   6.934   2.743
10377TIP3    H231075   2.217   6.866   2.657
10378TIP3   OH231076   6.042   1.554   3.304
10378TIP3    H131077   6.038   1.542   3.399
10378TIP3    H231078   6.102   1.627   3.291
10379TIP3   OH231079   3.566   7.373   0.121
10379TIP3    H131080   3.515   7.293   0.111
10379TIP3    H231081   3.556   7.419   0.038
10380TIP3   OH231082   6.365   1.209   1.409
10380TIP3    H131083   6.414   1.291   1.416
10380TIP3    H231084   6.363   1.174   1.498
10381TIP3   OH231085   4.960   4.228   3.349
10381TIP3    H131086   4.954   4.284   3.426
10381TIP3    H231087   4.890   4.258   3.291
10382TIP3   OH231088   4.185   5.154   5.723
10382TIP3    H131089   4.142   5.131   5.805
10382TIP3    H231090   4.147   5.238   5.698
10383TIP3   OH231091   7.038   2.939   2.417
10383TIP3    H131092   7.014   3.018   2.369
10383TIP3    H231093   7.050   2.872   2.350
10384TIP3   OH231094   6.981   5.236   3.614
10384TIP3    H131095   6.972   5.266   3.705
10384TIP3    H231096   7.074   5.245   3.596
10385TIP3   OH231097   4.087   6.667   3.896
10385TIP3    H131098   4.048   6.754   3.886
10385TIP3    H231099   4.095   6.634   3.807
10386TIP3   OH231100   3.608   2.317   2.410
10386TIP3    H131101   3.630   2.399   2.367
10386TIP3    H231102   3.512   2.315   2.412
10387TIP3   OH231103   1.494   7.634   0.255
10387TIP3    H131104   1.423   7.617   0.193
10387TIP3    H231105   1.574   7.614   0.207
10388TIP3   OH231106   5.288   0.935   2.057
10388TIP3    H131107   5.313   0.849   2.024
10388TIP3    H231108   5.276   0.988   1.979
10389TIP3   OH231109   4.305   4.105   1.959
10389TIP3    H131110   4.211   4.089   1.946
10389TIP3    H231111   4.342   4.018   1.971
10390TIP3   OH231112   6.641   0.256   3.655
10390TIP3    H131113   6.587   0.275   3.578
10390TIP3    H231114   6.609   0.315   3.723
10391TIP3   OH231115   1.936   6.722   6.527
10391TIP3    H131116   1.918   6.642   6.575
10391TIP3    H231117   1.946   6.693   6.436
10392TIP3   OH231118   0.295   1.944   1.890
10392TIP3    H131119   0.268   2.036   1.897
10392TIP3    H231120   0.261   1.903   1.970
10393TIP3   OH231121   4.723   7.516   3.571
10393TIP3    H131122   4.638   7.473   3.580
10393TIP3    H231123   4.707   7.591   3.513
10394TIP3   OH231124   2.647   7.566   6.307
10394TIP3    H131125   2.655   7.651   6.263
10394TIP3    H231126   2.607   7.509   6.241
10395TIP3   OH231127   8.250   1.489   3.243
10395TIP3    H131128   8.190   1.416   3.237
10395TIP3    H231129   8.250   1.528   3.155
10396TIP3   OH231130   6.548   2.545   1.768
10396TIP3    H131131   6.517   2.579   1.852
10396TIP3    H231132   6.580   2.623   1.721
10397TIP3   OH231133   2.100   0.115   0.619
10397TIP3    H131134   2.112   0.193   0.565
10397TIP3    H231135   2.086   0.149   0.707
10398TIP3   OH231136   4.420   0.079   1.058
10398TIP3    H131137   4.338   0.110   1.096
10398TIP3    H231138   4.394   0.013   0.993
10399TIP3   OH231139   6.816   2.767   0.938
10399TIP3    H131140   6.800   2.677   0.911
10399TIP3    H231141   6.743   2.789   0.995
10400TIP3   OH231142   5.586   5.035   1.222
10400TIP3    H131143   5.514   4.995   1.271
10400TIP3    H231144   5.640   5.077   1.290
10401TIP3   OH231145   1.372   7.193   0.220
10401TIP3    H131146   1.349   7.207   0.312
10401TIP3    H231147   1.321   7.259   0.172
10402TIP3   OH231148   4.296   5.129   2.065
10402TIP3    H131149   4.268   5.192   2.131
10402TIP3    H231150   4.385   5.156   2.042
10403TIP3   OH231151   8.132   6.865   5.777
10403TIP3    H131152   8.145   6.853   5.872
10403TIP3    H231153   8.209   6.823   5.737
10404TIP3   OH231154   4.620   0.852   0.109
10404TIP3    H131155   4.589   0.942   0.095
10404TIP3    H231156   4.714   0.861   0.124
10405TIP3   OH231157   3.213   5.304   1.584
10405TIP3    H131158   3.298   5.261   1.581
10405TIP3    H231159   3.177   5.280   1.669
10406TIP3   OH231160   1.227   0.856   6.228
10406TIP3    H131161   1.222   0.765   6.197
10406TIP3    H231162   1.321   0.874   6.233
10407TIP3   OH231163   2.613   6.285   1.774
10407TIP3    H131164   2.569   6.277   1.859
10407TIP3    H231165   2.586   6.206   1.727
10408TIP3   OH231166   5.093   6.878   4.112
10408TIP3    H131167   5.052   6.794   4.091
10408TIP3    H231168   5.187   6.861   4.110
10409TIP3   OH231169   5.107   7.422   0.895
10409TIP3    H131170   5.097   7.498   0.953
10409TIP3    H231171   5.201   7.416   0.881
10410TIP3   OH231172   7.580   7.523   3.010
10410TIP3    H131173   7.561   7.590   2.944
10410TIP3    H231174   7.676   7.515   3.009
10411TIP3   OH231175   4.172   0.416   1.195
10411TIP3    H131176   4.266   0.420   1.175
10411TIP3    H231177   4.167   0.438   1.288
10412TIP3   OH231178   3.688   0.033   5.989
10412TIP3    H131179   3.617   0.096   5.982
10412TIP3    H231180   3.690  -0.011   5.904
10413TIP3   OH231181   6.811   6.432   6.217
10413TIP3    H131182   6.743   6.398   6.275
10413TIP3    H231183   6.769   6.504   6.171
10414TIP3   OH231184   4.909   1.523   1.433
10414TIP3    H131185   4.827   1.476   1.451
10414TIP3    H231186   4.931   1.565   1.516
10415TIP3   OH231187   4.782   4.732   5.858
10415TIP3    H131188   4.711   4.675   5.828
10415TIP3    H231189   4.739   4.815   5.878
10416TIP3   OH231190   7.272   7.152   4.481
10416TIP3    H131191   7.350   7.130   4.531
10416TIP3    H231192   7.274   7.094   4.405
10417TIP3   OH231193   1.834   6.531   1.580
10417TIP3    H131194   1.909   6.580   1.548
10417TIP3    H231195   1.863   6.440   1.579
10418TIP3   OH231196   3.383   0.964   3.043
10418TIP3    H131197   3.289   0.977   3.043
10418TIP3    H231198   3.416   1.012   2.968
10419TIP3   OH231199   8.056   6.703   1.445
10419TIP3    H131200   7.962   6.717   1.447
10419TIP3    H231201   8.089   6.748   1.522
10420TIP3   OH231202   3.822   3.546   6.544
10420TIP3    H131203   3.764   3.471   6.532
10420TIP3    H231204   3.910   3.512   6.524
10421TIP3   OH231205   1.003   3.418   1.019
10421TIP3    H131206   0.916   3.407   0.981
10421TIP3    H231207   1.063   3.387   0.951
10422TIP3   OH231208   7.520   6.430   2.550
10422TIP3    H131209   7.428   6.443   2.528
10422TIP3    H231210   7.520   6.399   2.640
10423TIP3   OH231211   1.708   1.717   0.716
10423TIP3    H131212   1.624   1.683   0.747
10423TIP3    H231213   1.774   1.667   0.764
10424TIP3   OH231214   3.957   0.030   3.358
10424TIP3    H131215   3.865   0.033   3.385
10424TIP3    H231216   3.966  -0.053   3.312
10425TIP3   OH231217   7.321   6.835   4.435
10425TIP3    H131218   7.244   6.887   4.459
10425TIP3    H231219   7.338   6.782   4.513
10426TIP3   OH231220   3.662   0.554   0.359
10426TIP3    H131221   3.613   0.583   0.436
10426TIP3    H231222   3.595   0.540   0.292
10427TIP3   OH231223   2.536   2.082   1.719
10427TIP3    H131224   2.547   2.057   1.628
10427TIP3    H231225   2.566   2.173   1.722
10428TIP3   OH231226   5.061   2.151   0.344
10428TIP3    H131227   5.073   2.240   0.313
10428TIP3    H231228   5.146   2.109   0.331
10429TIP3   OH231229   4.022   1.970   4.146
10429TIP3    H131230   4.071   1.898   4.187
10429TIP3    H231231   3.931   1.939   4.143
10430TIP3   OH231232   1.688   1.026   6.523
10430TIP3    H131233   1.650   1.078   6.594
10430TIP3    H231234   1.778   1.057   6.516
10431TIP3   OH231235   2.983   7.365   5.163
10431TIP3    H131236   2.921   7.293   5.148
10431TIP3    H231237   3.063   7.321   5.191
10432TIP3   OH231238   7.544   4.098   3.065
10432TIP3    H131239   7.580   4.172   3.114
10432TIP3    H231240   7.453   4.093   3.093
10433TIP3   OH231241   2.081   6.957   1.957
10433TIP3    H131242   2.023   7.022   1.997
10433TIP3    H231243   2.033   6.875   1.964
10434TIP3   OH231244   2.547   4.444   2.579
10434TIP3    H131245   2.545   4.525   2.527
10434TIP3    H231246   2.546   4.474   2.670
10435TIP3   OH231247   6.620   7.333   3.698
10435TIP3    H131248   6.714   7.344   3.680
10435TIP3    H231249   6.602   7.394   3.770
10436TIP3   OH231250   5.166   7.172   0.063
10436TIP3    H131251   5.186   7.187  -0.030
10436TIP3    H231252   5.186   7.080   0.077
10437TIP3   OH231253   7.227   2.711   4.835
10437TIP3    H131254   7.308   2.710   4.784
10437TIP3    H231255   7.187   2.626   4.818
10438TIP3   OH231256   3.076   1.650   5.339
10438TIP3    H131257   3.097   1.586   5.271
10438TIP3    H231258   3.021   1.715   5.294
10439TIP3   OH231259   3.388   5.963   3.496
10439TIP3    H131260   3.375   5.870   3.477
10439TIP3    H231261   3.391   5.968   3.592
10440TIP3   OH231262   5.127   4.571   1.731
10440TIP3    H131263   5.194   4.610   1.674
10440TIP3    H231264   5.153   4.598   1.819
10441TIP3   OH231265   2.053   3.986   0.454
10441TIP3    H131266   2.101   4.040   0.517
10441TIP3    H231267   2.105   3.907   0.446
10442TIP3   OH231268   6.875   5.421   6.599
10442TIP3    H131269   6.846   5.378   6.519
10442TIP3    H231270   6.906   5.506   6.571
10443TIP3   OH231271   3.088   1.643   3.579
10443TIP3    H131272   3.026   1.638   3.652
10443TIP3    H231273   3.113   1.551   3.563
10444TIP3   OH231274   6.091   2.947   5.925
10444TIP3    H131275   6.083   2.858   5.892
10444TIP3    H231276   6.161   2.986   5.872
10445TIP3   OH231277   6.585   1.699   3.971
10445TIP3    H131278   6.569   1.784   3.929
10445TIP3    H231279   6.620   1.721   4.057
10446TIP3   OH231280   7.129   2.751   5.564
10446TIP3    H131281   7.146   2.752   5.470
10446TIP3    H231282   7.047   2.799   5.575
10447TIP3   OH231283   4.558   7.740   3.798
10447TIP3    H131284   4.473   7.768   3.832
10447TIP3    H231285   4.542   7.728   3.704
10448TIP3   OH231286   7.094   6.377   1.523
10448TIP3    H131287   7.178   6.414   1.497
10448TIP3    H231288   7.035   6.453   1.524
10449TIP3   OH231289   6.510   0.643   6.525
10449TIP3    H131290   6.537   0.617   6.614
10449TIP3    H231291   6.415   0.653   6.531
10450TIP3   OH231292   7.246   0.873   5.290
10450TIP3    H131293   7.255   0.778   5.288
10450TIP3    H231294   7.151   0.888   5.287
10451TIP3   OH231295   7.454   4.448   2.445
10451TIP3    H131296   7.441   4.418   2.355
10451TIP3    H231297   7.397   4.392   2.497
10452TIP3   OH231298   3.273   3.911   1.729
10452TIP3    H131299   3.242   3.969   1.798
10452TIP3    H231300   3.362   3.941   1.710
10453TIP3   OH231301   3.743   3.740   5.109
10453TIP3    H131302   3.662   3.714   5.067
10453TIP3    H231303   3.722   3.742   5.203
10454TIP3   OH231304   0.249   3.723   5.881
10454TIP3    H131305   0.231   3.770   5.963
10454TIP3    H231306   0.226   3.632   5.900
10455TIP3   OH231307   7.253   4.853   0.502
10455TIP3    H131308   7.344   4.823   0.506
10455TIP3    H231309   7.210   4.811   0.576
10456TIP3   OH231310   6.036   0.971   2.672
10456TIP3    H131311   5.976   0.996   2.742
10456TIP3    H231312   6.123   0.976   2.712
10457TIP3   OH231313   7.939   0.746   2.810
10457TIP3    H131314   7.945   0.792   2.894
10457TIP3    H231315   7.909   0.813   2.748
10458TIP3   OH231316   5.050   6.797   4.805
10458TIP3    H131317   4.956   6.781   4.795
10458TIP3    H231318   5.075   6.844   4.726
10459TIP3   OH231319   1.750   7.569   0.122
10459TIP3    H131320   1.814   7.534   0.060
10459TIP3    H231321   1.790   7.650   0.155
10460TIP3   OH231322   1.923   0.863   2.407
10460TIP3    H131323   1.944   0.808   2.482
10460TIP3    H231324   1.918   0.952   2.442
10461TIP3   OH231325   3.352   0.769   0.865
10461TIP3    H131326   3.396   0.825   0.801
10461TIP3    H231327   3.310   0.831   0.926
10462TIP3   OH231328   3.238   1.288   4.248
10462TIP3    H131329   3.321   1.291   4.295
10462TIP3    H231330   3.257   1.329   4.163
10463TIP3   OH231331   1.327   4.157   5.197
10463TIP3    H131332   1.283   4.202   5.125
10463TIP3    H231333   1.310   4.212   5.274
10464TIP3   OH231334   5.609   1.938   2.895
10464TIP3    H131335   5.613   1.843   2.903
10464TIP3    H231336   5.515   1.957   2.887
10465TIP3   OH231337   8.185   0.856   4.692
10465TIP3    H131338   8.122   0.784   4.695
10465TIP3    H231339   8.170   0.905   4.773
10466TIP3   OH231340   6.452   5.602   5.216
10466TIP3    H131341   6.431   5.597   5.123
10466TIP3    H231342   6.527   5.544   5.227
10467TIP3   OH231343   0.695   3.939   3.059
10467TIP3    H131344   0.766   3.952   3.122
10467TIP3    H231345   0.615   3.960   3.108
10468TIP3   OH231346   2.250   1.391   4.162
10468TIP3    H131347   2.344   1.376   4.157
10468TIP3    H231348   2.212   1.304   4.171
10469TIP3   OH231349   2.540   4.834   5.152
10469TIP3    H131350   2.565   4.914   5.198
10469TIP3    H231351   2.585   4.841   5.067
10470TIP3   OH231352   5.896   4.696   1.299
10470TIP3    H131353   5.803   4.673   1.301
10470TIP3    H231354   5.900   4.778   1.250
10471TIP3   OH231355   0.301   0.722   5.106
10471TIP3    H131356   0.367   0.736   5.039
10471TIP3    H231357   0.348   0.679   5.178
10472TIP3   OH231358   7.451   0.076   0.386
10472TIP3    H131359   7.511   0.113   0.451
10472TIP3    H231360   7.500   0.003   0.347
10473TIP3   OH231361   0.051   4.450   0.664
10473TIP3    H131362   0.031   4.375   0.718
10473TIP3    H231363   0.146   4.445   0.649
10474TIP3   OH231364   8.193   4.504   5.331
10474TIP3    H131365   8.182   4.504   5.426
10474TIP3    H231366   8.233   4.419   5.312
10475TIP3   OH231367   4.605   1.521   2.455
10475TIP3    H131368   4.661   1.458   2.501
10475TIP3    H231369   4.665   1.589   2.425
10476TIP3   OH231370   4.063   7.172   4.220
10476TIP3    H131371   4.150   7.161   4.182
10476TIP3    H231372   4.042   7.265   4.205
10477TIP3   OH231373   6.664   5.051   1.888
10477TIP3    H131374   6.590   5.017   1.938
10477TIP3    H231375   6.720   4.975   1.873
10478TIP3   OH231376   7.757   5.220   3.804
10478TIP3    H131377   7.690   5.159   3.836
10478TIP3    H231378   7.839   5.186   3.841
10479TIP3   OH231379   1.080   5.743   6.104
10479TIP3    H131380   0.986   5.756   6.119
10479TIP3    H231381   1.085   5.688   6.026
10480TIP3   OH231382   7.068   0.811   6.443
10480TIP3    H131383   7.028   0.825   6.529
10480TIP3    H231384   7.100   0.721   6.446
10481TIP3   OH231385   5.479   3.051   5.276
10481TIP3    H131386   5.507   3.091   5.194
10481TIP3    H231387   5.383   3.052   5.271
10482TIP3   OH231388   5.598   3.969   0.564
10482TIP3    H131389   5.653   3.985   0.487
10482TIP3    H231390   5.656   3.985   0.639
10483TIP3   OH231391   6.273   0.959   0.224
10483TIP3    H131392   6.367   0.950   0.240
10483TIP3    H231393   6.242   1.016   0.294
10484TIP3   OH231394   7.365   0.065   1.836
10484TIP3    H131395   7.399   0.067   1.747
10484TIP3    H231396   7.410   0.137   1.880
10485TIP3   OH231397   7.234   0.615   5.165
10485TIP3    H131398   7.257   0.554   5.236
10485TIP3    H231399   7.296   0.595   5.095
10486TIP3   OH231400   2.454   1.741   1.630
10486TIP3    H131401   2.510   1.787   1.568
10486TIP3    H231402   2.513   1.715   1.701
10487TIP3   OH231403   6.070   5.721   6.292
10487TIP3    H131404   6.033   5.761   6.213
10487TIP3    H231405   6.027   5.768   6.364
10488TIP3   OH231406   7.688   0.791   6.349
10488TIP3    H131407   7.686   0.857   6.418
10488TIP3    H231408   7.600   0.754   6.348
10489TIP3   OH231409   3.159   0.321   6.544
10489TIP3    H131410   3.147   0.385   6.615
10489TIP3    H231411   3.247   0.286   6.559
10490TIP3   OH231412   3.547   7.831   3.817
10490TIP3    H131413   3.477   7.768   3.800
10490TIP3    H231414   3.603   7.787   3.882
10491TIP3   OH231415   8.147   5.394   1.869
10491TIP3    H131416   8.074   5.456   1.861
10491TIP3    H231417   8.107   5.308   1.854
10492TIP3   OH231418   3.472   1.926   2.292
10492TIP3    H131419   3.460   2.004   2.238
10492TIP3    H231420   3.454   1.853   2.234
10493TIP3   OH231421   2.532   6.203   3.147
10493TIP3    H131422   2.627   6.212   3.156
10493TIP3    H231423   2.520   6.169   3.059
10494TIP3   OH231424   2.064   6.549   6.038
10494TIP3    H131425   2.014   6.506   5.968
10494TIP3    H231426   2.094   6.631   6.000
10495TIP3   OH231427   6.759   2.803   6.477
10495TIP3    H131428   6.743   2.895   6.499
10495TIP3    H231429   6.855   2.794   6.481
10496TIP3   OH231430   3.865   3.326   1.572
10496TIP3    H131431   3.843   3.290   1.486
10496TIP3    H231432   3.927   3.263   1.609
10497TIP3   OH231433   3.694   7.355   1.580
10497TIP3    H131434   3.670   7.350   1.487
10497TIP3    H231435   3.790   7.355   1.579
10498TIP3   OH231436   0.202   2.453   6.168
10498TIP3    H131437   0.199   2.405   6.086
10498TIP3    H231438   0.143   2.527   6.154
10499TIP3   OH231439   2.629   1.861   1.867
10499TIP3    H131440   2.612   1.878   1.959
10499TIP3    H231441   2.578   1.928   1.820
10500TIP3   OH231442   6.769   1.170   1.682
10500TIP3    H131443   6.709   1.099   1.660
10500TIP3    H231444   6.851   1.146   1.639
10501TIP3   OH231445   4.763   2.459   6.013
10501TIP3    H131446   4.693   2.485   5.954
10501TIP3    H231447   4.836   2.517   5.991
10502TIP3   OH231448   4.735   5.338   0.461
10502TIP3    H131449   4.705   5.257   0.500
10502TIP3    H231450   4.825   5.320   0.433
10503TIP3   OH231451   7.220   3.140   6.228
10503TIP3    H131452   7.281   3.145   6.155
10503TIP3    H231453   7.190   3.049   6.228
10504TIP3   OH231454   2.553   2.634   1.560
10504TIP3    H131455   2.482   2.656   1.498
10504TIP3    H231456   2.622   2.696   1.538
10505TIP3   OH231457   7.992   3.840   1.514
10505TIP3    H131458   7.969   3.781   1.585
10505TIP3    H231459   7.921   3.829   1.450
10506TIP3   OH231460   0.814   3.936   0.719
10506TIP3    H131461   0.886   3.987   0.756
10506TIP3    H231462   0.816   3.853   0.767
10507TIP3   OH231463   5.453   2.932   1.533
10507TIP3    H131464   5.359   2.946   1.523
10507TIP3    H231465   5.482   2.905   1.446
10508TIP3   OH231466   6.682   5.034   6.083
10508TIP3    H131467   6.612   4.977   6.051
10508TIP3    H231468   6.660   5.050   6.175
10509TIP3   OH231469   8.110   4.039   3.632
10509TIP3    H131470   8.197   4.076   3.621
10509TIP3    H231471   8.051   4.106   3.598
10510TIP3   OH231472   3.246   5.644   5.340
10510TIP3    H131473   3.187   5.573   5.315
10510TIP3    H231474   3.188   5.716   5.364
10511TIP3   OH231475   6.121   6.360   5.615
10511TIP3    H131476   6.097   6.420   5.545
10511TIP3    H231477   6.065   6.283   5.601
10512TIP3   OH231478   1.445   6.717   4.491
10512TIP3    H131479   1.373   6.779   4.485
10512TIP3    H231480   1.469   6.716   4.583
10513TIP3   OH231481   4.829   2.629   6.501
10513TIP3    H131482   4.829   2.581   6.584
10513TIP3    H231483   4.857   2.565   6.436
10514TIP3   OH231484   2.100   3.378   1.210
10514TIP3    H131485   2.115   3.377   1.116
10514TIP3    H231486   2.037   3.307   1.225
10515TIP3   OH231487   7.699   4.565   1.531
10515TIP3    H131488   7.701   4.569   1.626
10515TIP3    H231489   7.755   4.637   1.502
10516TIP3   OH231490   2.523   7.803   3.183
10516TIP3    H131491   2.499   7.740   3.115
10516TIP3    H231492   2.500   7.888   3.144
10517TIP3   OH231493   0.988   0.075   0.605
10517TIP3    H131494   0.916   0.100   0.664
10517TIP3    H231495   1.001  -0.018   0.621
10518TIP3   OH231496   7.768   2.954   1.828
10518TIP3    H131497   7.834   2.906   1.879
10518TIP3    H231498   7.688   2.945   1.880
10519TIP3   OH231499   4.875   3.257   0.044
10519TIP3    H131500   4.870   3.162   0.054
10519TIP3    H231501   4.785   3.287   0.060
10520TIP3   OH231502   3.601   3.112   1.160
10520TIP3    H131503   3.598   3.019   1.184
10520TIP3    H231504   3.555   3.117   1.076
10521TIP3   OH231505   2.612   2.813   0.720
10521TIP3    H131506   2.626   2.736   0.666
10521TIP3    H231507   2.659   2.883   0.675
10522TIP3   OH231508   2.546   0.418   4.409
10522TIP3    H131509   2.623   0.429   4.353
10522TIP3    H231510   2.524   0.506   4.438
10523TIP3   OH231511   7.702   6.832   6.708
10523TIP3    H131512   7.694   6.886   6.630
10523TIP3    H231513   7.617   6.839   6.752
10524TIP3   OH231514   0.224   2.090   5.210
10524TIP3    H131515   0.160   2.082   5.139
10524TIP3    H231516   0.214   2.180   5.240
10525TIP3   OH231517   2.190   0.333   1.159
10525TIP3    H131518   2.278   0.364   1.135
10525TIP3    H231519   2.178   0.254   1.106
10526TIP3   OH231520   2.312   3.044   0.610
10526TIP3    H131521   2.394   3.088   0.633
10526TIP3    H231522   2.313   3.041   0.515
10527TIP3   OH231523   7.520   1.780   4.702
10527TIP3    H131524   7.540   1.786   4.795
10527TIP3    H231525   7.496   1.688   4.688
10528TIP3   OH231526   6.310   3.403   2.969
10528TIP3    H131527   6.400   3.372   2.984
10528TIP3    H231528   6.299   3.399   2.874
10529TIP3   OH231529   6.704   1.657   5.118
10529TIP3    H131530   6.680   1.596   5.188
10529TIP3    H231531   6.672   1.742   5.150
10530TIP3   OH231532   4.676   0.366   6.122
10530TIP3    H131533   4.715   0.278   6.122
10530TIP3    H231534   4.645   0.378   6.032
10531TIP3   OH231535   1.056   2.950   3.296
10531TIP3    H131536   1.035   2.986   3.382
10531TIP3    H231537   0.973   2.947   3.249
10532TIP3   OH231538   1.524   6.738   0.202
10532TIP3    H131539   1.504   6.823   0.242
10532TIP3    H231540   1.571   6.690   0.270
10533TIP3   OH231541   1.923   1.297   6.760
10533TIP3    H131542   1.857   1.339   6.815
10533TIP3    H231543   1.875   1.270   6.681
10534TIP3   OH231544   2.387   1.475   3.009
10534TIP3    H131545   2.372   1.398   3.065
10534TIP3    H231546   2.472   1.509   3.038
10535TIP3   OH231547   7.449   4.320   0.322
10535TIP3    H131548   7.529   4.267   0.319
10535TIP3    H231549   7.473   4.401   0.276
10536TIP3   OH231550   0.621   2.308   1.395
10536TIP3    H131551   0.670   2.387   1.374
10536TIP3    H231552   0.686   2.248   1.429
10537TIP3   OH231553   6.013   6.478   4.107
10537TIP3    H131554   5.978   6.390   4.095
10537TIP3    H231555   6.106   6.471   4.088
10538TIP3   OH231556   3.778   5.006   6.337
10538TIP3    H131557   3.776   4.912   6.322
10538TIP3    H231558   3.847   5.018   6.403
10539TIP3   OH231559   6.022   7.724   1.448
10539TIP3    H131560   6.097   7.759   1.496
10539TIP3    H231561   5.969   7.800   1.427
10540TIP3   OH231562   8.001   7.129   3.011
10540TIP3    H131563   8.056   7.172   3.076
10540TIP3    H231564   8.032   7.163   2.927
10541TIP3   OH231565   5.873   2.981   5.184
10541TIP3    H131566   5.880   2.985   5.279
10541TIP3    H231567   5.944   2.924   5.156
10542TIP3   OH231568   8.223   3.864   1.329
10542TIP3    H131569   8.179   3.932   1.279
10542TIP3    H231570   8.178   3.863   1.413
10543TIP3   OH231571   4.675   5.068   1.978
10543TIP3    H131572   4.706   5.023   2.057
10543TIP3    H231573   4.629   5.145   2.012
10544TIP3   OH231574   3.657   0.967   3.329
10544TIP3    H131575   3.708   1.043   3.357
10544TIP3    H231576   3.582   1.004   3.283
10545TIP3   OH231577   5.281   7.239   5.587
10545TIP3    H131578   5.370   7.272   5.590
10545TIP3    H231579   5.235   7.298   5.526
10546TIP3   OH231580   8.131   0.174   2.257
10546TIP3    H131581   8.185   0.129   2.322
10546TIP3    H231582   8.069   0.225   2.308
10547TIP3   OH231583   7.129   0.014   2.393
10547TIP3    H131584   7.056  -0.037   2.429
10547TIP3    H231585   7.097   0.045   2.309
10548TIP3   OH231586   7.301   0.460   5.930
10548TIP3    H131587   7.277   0.521   5.860
10548TIP3    H231588   7.390   0.433   5.910
10549TIP3   OH231589   7.386   6.645   6.019
10549TIP3    H131590   7.471   6.622   5.983
10549TIP3    H231591   7.354   6.715   5.962
10550TIP3   OH231592   1.295   0.881   3.284
10550TIP3    H131593   1.268   0.920   3.201
10550TIP3    H231594   1.327   0.955   3.336
10551TIP3   OH231595   0.067   6.259   0.162
10551TIP3    H131596   0.065   6.163   0.159
10551TIP3    H231597  -0.005   6.283   0.220
10552TIP3   OH231598   6.366   5.038   0.169
10552TIP3    H131599   6.332   5.088   0.243
10552TIP3    H231600   6.392   4.954   0.206
10553TIP3   OH231601   0.079   0.397   0.889
10553TIP3    H131602   0.081   0.436   0.802
10553TIP3    H231603   0.149   0.331   0.887
10554TIP3   OH231604   5.006   7.110   3.789
10554TIP3    H131605   4.934   7.049   3.806
10554TIP3    H231606   4.964   7.195   3.776
10555TIP3   OH231607   0.917   2.854   4.317
10555TIP3    H131608   0.870   2.844   4.400
10555TIP3    H231609   0.857   2.904   4.262
10556TIP3   OH231610   0.070   3.582   1.421
10556TIP3    H131611   0.041   3.633   1.346
10556TIP3    H231612   0.064   3.491   1.393
10557TIP3   OH231613   3.066   4.610   0.522
10557TIP3    H131614   3.119   4.555   0.464
10557TIP3    H231615   3.124   4.631   0.595
10558TIP3   OH231616   7.197   5.787   6.176
10558TIP3    H131617   7.253   5.778   6.099
10558TIP3    H231618   7.109   5.802   6.141
10559TIP3   OH231619   0.306   0.765   3.146
10559TIP3    H131620   0.337   0.698   3.206
10559TIP3    H231621   0.333   0.848   3.185
10560TIP3   OH231622   1.858   3.593   5.763
10560TIP3    H131623   1.915   3.670   5.754
10560TIP3    H231624   1.812   3.587   5.679
10561TIP3   OH231625   6.914   1.024   4.572
10561TIP3    H131626   6.882   0.984   4.492
10561TIP3    H231627   7.008   1.034   4.559
10562TIP3   OH231628   3.343   4.439   4.936
10562TIP3    H131629   3.292   4.510   4.898
10562TIP3    H231630   3.367   4.470   5.023
10563TIP3   OH231631   6.420   0.343   2.244
10563TIP3    H131632   6.416   0.294   2.325
10563TIP3    H231633   6.495   0.307   2.197
10564TIP3   OH231634   6.716   7.135   5.295
10564TIP3    H131635   6.751   7.217   5.259
10564TIP3    H231636   6.630   7.125   5.254
10565TIP3   OH231637   2.294   0.114   0.218
10565TIP3    H131638   2.253   0.028   0.216
10565TIP3    H231639   2.237   0.169   0.164
10566TIP3   OH231640   5.944   7.056   1.665
10566TIP3    H131641   5.902   6.982   1.623
10566TIP3    H231642   6.005   7.090   1.599
10567TIP3   OH231643   1.389   3.650   0.522
10567TIP3    H131644   1.303   3.625   0.554
10567TIP3    H231645   1.392   3.745   0.531
10568TIP3   OH231646   1.256   3.397   0.834
10568TIP3    H131647   1.223   3.487   0.832
10568TIP3    H231648   1.350   3.406   0.852
10569TIP3   OH231649   4.420   2.312   6.523
10569TIP3    H131650   4.363   2.315   6.600
10569TIP3    H231651   4.506   2.289   6.558
10570TIP3   OH231652   7.859   6.692   2.177
10570TIP3    H131653   7.811   6.758   2.227
10570TIP3    H231654   7.851   6.721   2.086
10571TIP3   OH231655   7.660   3.625   3.913
10571TIP3    H131656   7.597   3.664   3.973
10571TIP3    H231657   7.741   3.673   3.929
10572TIP3   OH231658   7.901   5.584   2.504
10572TIP3    H131659   7.941   5.569   2.590
10572TIP3    H231660   7.933   5.511   2.450
10573TIP3   OH231661   2.320   0.772   0.222
10573TIP3    H131662   2.247   0.737   0.273
10573TIP3    H231663   2.279   0.811   0.145
10574TIP3   OH231664   1.993   6.190   6.227
10574TIP3    H131665   2.068   6.202   6.285
10574TIP3    H231666   2.022   6.123   6.164
10575TIP3   OH231667   4.805   4.479   1.071
10575TIP3    H131668   4.790   4.401   1.124
10575TIP3    H231669   4.718   4.505   1.041
10576TIP3   OH231670   7.165   4.435   4.808
10576TIP3    H131671   7.142   4.364   4.867
10576TIP3    H231672   7.238   4.402   4.757
10577TIP3   OH231673   3.151   5.467   3.588
10577TIP3    H131674   3.194   5.522   3.653
10577TIP3    H231675   3.130   5.386   3.634
10578TIP3   OH231676   4.391   3.522   6.066
10578TIP3    H131677   4.446   3.582   6.017
10578TIP3    H231678   4.365   3.455   6.003
10579TIP3   OH231679   5.199   1.909   6.499
10579TIP3    H131680   5.268   1.971   6.520
10579TIP3    H231681   5.145   1.906   6.577
10580TIP3   OH231682   0.191   1.631   4.968
10580TIP3    H131683   0.280   1.640   4.933
10580TIP3    H231684   0.163   1.720   4.988
10581TIP3   OH231685   6.894   4.564   1.150
10581TIP3    H131686   6.977   4.604   1.125
10581TIP3    H231687   6.827   4.627   1.125
10582TIP3   OH231688   7.126   6.219   3.791
10582TIP3    H131689   7.127   6.226   3.886
10582TIP3    H231690   7.182   6.290   3.761
10583TIP3   OH231691   1.511   1.900   4.477
10583TIP3    H131692   1.446   1.871   4.541
10583TIP3    H231693   1.527   1.823   4.422
10584TIP3   OH231694   7.741   0.120   2.660
10584TIP3    H131695   7.660   0.099   2.706
10584TIP3    H231696   7.725   0.094   2.569
10585TIP3   OH231697   6.247   5.967   4.074
10585TIP3    H131698   6.183   6.000   4.011
10585TIP3    H231699   6.194   5.926   4.142
10586TIP3   OH231700   2.041   7.405   2.402
10586TIP3    H131701   1.994   7.322   2.407
10586TIP3    H231702   2.130   7.380   2.375
10587TIP3   OH231703   4.634   5.304   5.028
10587TIP3    H131704   4.660   5.374   4.968
10587TIP3    H231705   4.709   5.244   5.030
10588TIP3   OH231706   2.564   2.219   1.094
10588TIP3    H131707   2.474   2.244   1.073
10588TIP3    H231708   2.559   2.126   1.116
10589TIP3   OH231709   7.358   6.707   2.847
10589TIP3    H131710   7.294   6.702   2.776
10589TIP3    H231711   7.307   6.691   2.926
10590TIP3   OH231712   6.015   7.087   0.664
10590TIP3    H131713   6.038   7.013   0.609
10590TIP3    H231714   6.099   7.128   0.686
10591TIP3   OH231715   5.455   0.711   0.494
10591TIP3    H131716   5.530   0.706   0.436
10591TIP3    H231717   5.446   0.804   0.515
10592TIP3   OH231718   8.028   1.732   2.074
10592TIP3    H131719   8.056   1.823   2.069
10592TIP3    H231720   8.085   1.686   2.012
10593TIP3   OH231721   3.474   1.433   5.815
10593TIP3    H131722   3.411   1.505   5.804
10593TIP3    H231723   3.551   1.474   5.853
10594TIP3   OH231724   7.939   0.603   4.399
10594TIP3    H131725   7.937   0.549   4.320
10594TIP3    H231726   8.032   0.619   4.415
10595TIP3   OH231727   5.620   6.881   2.312
10595TIP3    H131728   5.587   6.807   2.363
10595TIP3    H231729   5.711   6.860   2.294
10596TIP3   OH231730   7.215   1.650   0.422
10596TIP3    H131731   7.127   1.630   0.391
10596TIP3    H231732   7.257   1.564   0.430
10597TIP3   OH231733   5.113   4.206   6.176
10597TIP3    H131734   5.117   4.274   6.243
10597TIP3    H231735   5.187   4.148   6.196
10598TIP3   OH231736   1.390   0.037   3.640
10598TIP3    H131737   1.336  -0.040   3.624
10598TIP3    H231738   1.347   0.082   3.713
10599TIP3   OH231739   3.693   6.592   6.207
10599TIP3    H131740   3.762   6.604   6.141
10599TIP3    H231741   3.724   6.641   6.283
10600TIP3   OH231742   6.637   3.886   5.081
10600TIP3    H131743   6.717   3.919   5.121
10600TIP3    H231744   6.659   3.873   4.989
10601TIP3   OH231745   5.068   3.333   5.055
10601TIP3    H131746   5.139   3.395   5.039
10601TIP3    H231747   5.096   3.284   5.133
10602TIP3   OH231748   8.092   7.178   5.523
10602TIP3    H131749   8.061   7.126   5.597
10602TIP3    H231750   8.025   7.246   5.513
10603TIP3   OH231751   6.595   5.448   6.691
10603TIP3    H131752   6.567   5.530   6.651
10603TIP3    H231753   6.691   5.451   6.686
10604TIP3   OH231754   2.345   1.684   4.678
10604TIP3    H131755   2.394   1.667   4.758
10604TIP3    H231756   2.283   1.752   4.702
10605TIP3   OH231757   6.949   5.330   6.071
10605TIP3    H131758   6.954   5.273   6.148
10605TIP3    H231759   7.033   5.317   6.026
10606TIP3   OH231760   6.240   7.117   1.062
10606TIP3    H131761   6.212   7.200   1.100
10606TIP3    H231762   6.159   7.078   1.028
10607TIP3   OH231763   3.297   5.202   5.846
10607TIP3    H131764   3.291   5.240   5.758
10607TIP3    H231765   3.226   5.138   5.849
10608TIP3   OH231766   3.794   7.758   6.524
10608TIP3    H131767   3.889   7.756   6.513
10608TIP3    H231768   3.778   7.835   6.579
10609TIP3   OH231769   3.431   0.247   0.610
10609TIP3    H131770   3.377   0.252   0.532
10609TIP3    H231771   3.383   0.190   0.670
10610TIP3   OH231772   1.108   2.235   4.726
10610TIP3    H131773   1.166   2.296   4.772
10610TIP3    H231774   1.073   2.286   4.653
10611TIP3   OH231775   2.304   2.869   4.917
10611TIP3    H131776   2.397   2.876   4.899
10611TIP3    H231777   2.276   2.790   4.870
10612TIP3   OH231778   1.379   6.069   1.074
10612TIP3    H131779   1.287   6.042   1.069
10612TIP3    H231780   1.392   6.126   0.998
10613TIP3   OH231781   5.159   3.429   1.652
10613TIP3    H131782   5.219   3.474   1.712
10613TIP3    H231783   5.131   3.351   1.700
10614TIP3   OH231784   3.815   7.141   1.899
10614TIP3    H131785   3.720   7.138   1.887
10614TIP3    H231786   3.842   7.049   1.900
10615TIP3   OH231787   3.656   1.983   2.968
10615TIP3    H131788   3.723   2.016   2.908
10615TIP3    H231789   3.679   2.022   3.053
10616TIP3   OH231790   0.665   6.843   1.096
10616TIP3    H131791   0.644   6.935   1.084
10616TIP3    H231792   0.759   6.837   1.078
10617TIP3   OH231793   3.207   0.128   4.045
10617TIP3    H131794   3.235   0.197   4.104
10617TIP3    H231795   3.125   0.096   4.083
10618TIP3   OH231796   2.892   0.380   4.663
10618TIP3    H131797   2.819   0.319   4.650
10618TIP3    H231798   2.882   0.444   4.593
10619TIP3   OH231799   4.780   7.250   3.431
10619TIP3    H131800   4.767   7.169   3.381
10619TIP3    H231801   4.730   7.316   3.383
10620TIP3   OH231802   1.650   5.616   1.804
10620TIP3    H131803   1.567   5.570   1.813
10620TIP3    H231804   1.628   5.696   1.756
10621TIP3   OH231805   1.948   2.294   4.028
10621TIP3    H131806   1.975   2.222   4.086
10621TIP3    H231807   1.856   2.308   4.048
10622TIP3   OH231808   2.519   6.527   1.184
10622TIP3    H131809   2.565   6.473   1.248
10622TIP3    H231810   2.554   6.499   1.099
10623TIP3   OH231811   5.555   2.803   2.198
10623TIP3    H131812   5.483   2.839   2.146
10623TIP3    H231813   5.580   2.723   2.151
10624TIP3   OH231814   2.917   0.216   3.528
10624TIP3    H131815   3.002   0.257   3.546
10624TIP3    H231816   2.891   0.177   3.611
10625TIP3   OH231817   8.033   0.587   0.393
10625TIP3    H131818   8.072   0.506   0.359
10625TIP3    H231819   8.048   0.651   0.323
10626TIP3   OH231820   6.042   2.388   4.181
10626TIP3    H131821   6.063   2.381   4.088
10626TIP3    H231822   6.039   2.482   4.198
10627TIP3   OH231823   0.117   6.776   4.719
10627TIP3    H131824   0.080   6.709   4.777
10627TIP3    H231825   0.054   6.783   4.647
10628TIP3   OH231826   4.345   6.971   5.712
10628TIP3    H131827   4.440   6.967   5.699
10628TIP3    H231828   4.311   6.895   5.663
10629TIP3   OH231829   5.573   0.105   0.596
10629TIP3    H131830   5.626   0.030   0.621
10629TIP3    H231831   5.542   0.084   0.508
10630TIP3   OH231832   7.946   0.954   5.904
10630TIP3    H131833   7.911   0.866   5.921
10630TIP3    H231834   7.875   1.000   5.860
10631TIP3   OH231835   2.235   5.697   3.104
10631TIP3    H131836   2.310   5.756   3.112
10631TIP3    H231837   2.274   5.611   3.089
10632TIP3   OH231838   2.689   4.184   4.018
10632TIP3    H131839   2.641   4.107   4.049
10632TIP3    H231840   2.635   4.258   4.045
10633TIP3   OH231841   2.669   4.260   2.779
10633TIP3    H131842   2.654   4.317   2.703
10633TIP3    H231843   2.723   4.189   2.746
10634TIP3   OH231844   6.611   7.139   3.887
10634TIP3    H131845   6.585   7.181   3.804
10634TIP3    H231846   6.540   7.161   3.947
10635TIP3   OH231847   1.333   6.559   5.699
10635TIP3    H131848   1.411   6.525   5.656
10635TIP3    H231849   1.365   6.617   5.767
10636TIP3   OH231850   8.157   4.405   3.555
10636TIP3    H131851   8.074   4.378   3.514
10636TIP3    H231852   8.224   4.361   3.504
10637TIP3   OH231853   6.560   4.111   4.770
10637TIP3    H131854   6.575   4.021   4.743
10637TIP3    H231855   6.513   4.151   4.697
10638TIP3   OH231856   6.882   4.722   6.257
10638TIP3    H131857   6.867   4.743   6.165
10638TIP3    H231858   6.977   4.731   6.269
10639TIP3   OH231859   1.064   5.601   5.859
10639TIP3    H131860   1.121   5.635   5.790
10639TIP3    H231861   1.000   5.546   5.813
10640TIP3   OH231862   4.516   7.308   2.631
10640TIP3    H131863   4.523   7.228   2.683
10640TIP3    H231864   4.605   7.340   2.624
10641TIP3   OH231865   3.365   4.551   1.202
10641TIP3    H131866   3.310   4.630   1.197
10641TIP3    H231867   3.367   4.529   1.295
10642TIP3   OH231868   7.907   6.879   4.434
10642TIP3    H131869   7.860   6.823   4.373
10642TIP3    H231870   7.978   6.917   4.383
10643TIP3   OH231871   7.497   7.514   5.118
10643TIP3    H131872   7.536   7.436   5.078
10643TIP3    H231873   7.456   7.481   5.198
10644TIP3   OH231874   0.098   3.500   1.073
10644TIP3    H131875   0.101   3.508   0.978
10644TIP3    H231876   0.012   3.534   1.097
10645TIP3   OH231877   2.290   2.029   1.088
10645TIP3    H131878   2.368   1.980   1.116
10645TIP3    H231879   2.312   2.061   1.001
10646TIP3   OH231880   0.175   0.541   4.908
10646TIP3    H131881   0.216   0.585   4.983
10646TIP3    H231882   0.081   0.549   4.924
10647TIP3   OH231883   1.793   2.638   4.086
10647TIP3    H131884   1.758   2.618   4.000
10647TIP3    H231885   1.718   2.675   4.134
10648TIP3   OH231886   3.493   3.885   1.260
10648TIP3    H131887   3.493   3.881   1.355
10648TIP3    H231888   3.569   3.834   1.234
10649TIP3   OH231889   4.320   6.972   2.659
10649TIP3    H131890   4.396   7.008   2.703
10649TIP3    H231891   4.340   6.978   2.566
10650TIP3   OH231892   7.617   3.904   2.026
10650TIP3    H131893   7.611   3.811   2.002
10650TIP3    H231894   7.618   3.950   1.942
10651TIP3   OH231895   0.315   2.570   2.600
10651TIP3    H131896   0.330   2.624   2.678
10651TIP3    H231897   0.365   2.489   2.617
10652TIP3   OH231898   5.446   6.354   2.241
10652TIP3    H131899   5.498   6.300   2.300
10652TIP3    H231900   5.441   6.304   2.160
10653TIP3   OH231901   5.034   1.164   2.278
10653TIP3    H131902   5.011   1.071   2.272
10653TIP3    H231903   5.005   1.202   2.196
10654TIP3   OH231904   7.208   4.622   0.903
10654TIP3    H131905   7.276   4.632   0.836
10654TIP3    H231906   7.181   4.531   0.896
10655TIP3   OH231907   1.919   3.978   4.801
10655TIP3    H131908   1.906   4.018   4.716
10655TIP3    H231909   1.870   3.895   4.796
10656TIP3   OH231910   2.719   1.075   5.957
10656TIP3    H131911   2.713   0.984   5.929
10656TIP3    H231912   2.748   1.123   5.879
10657TIP3   OH231913   5.938   4.288   3.183
10657TIP3    H131914   5.988   4.370   3.181
10657TIP3    H231915   5.925   4.266   3.091
10658TIP3   OH231916   5.106   6.947   6.153
10658TIP3    H131917   5.186   6.957   6.206
10658TIP3    H231918   5.042   7.005   6.194
10659TIP3   OH231919   2.017   6.847   5.718
10659TIP3    H131920   1.958   6.918   5.692
10659TIP3    H231921   2.103   6.889   5.725
10660TIP3   OH231922   0.083   7.232   3.551
10660TIP3    H131923   0.003   7.268   3.588
10660TIP3    H231924   0.142   7.307   3.542
10661TIP3   OH231925   7.414   1.513   2.920
10661TIP3    H131926   7.467   1.590   2.896
10661TIP3    H231927   7.443   1.445   2.859
10662TIP3   OH231928   6.639   4.872   3.186
10662TIP3    H131929   6.568   4.810   3.165
10662TIP3    H231930   6.708   4.852   3.123
10663TIP3   OH231931   7.223   3.915   5.352
10663TIP3    H131932   7.163   3.841   5.360
10663TIP3    H231933   7.261   3.905   5.264
10664TIP3   OH231934   5.207   2.534   1.658
10664TIP3    H131935   5.274   2.594   1.689
10664TIP3    H231936   5.251   2.449   1.654
10665TIP3   OH231937   1.266   1.856   1.012
10665TIP3    H131938   1.302   1.932   1.057
10665TIP3    H231939   1.273   1.785   1.075
10666TIP3   OH231940   7.923   1.615   3.474
10666TIP3    H131941   7.864   1.685   3.501
10666TIP3    H231942   7.899   1.598   3.382
10667TIP3   OH231943   2.694   6.398   3.431
10667TIP3    H131944   2.658   6.345   3.503
10667TIP3    H231945   2.617   6.441   3.393
10668TIP3   OH231946   6.730   1.766   3.706
10668TIP3    H131947   6.783   1.718   3.769
10668TIP3    H231948   6.789   1.834   3.673
10669TIP3   OH231949   5.753   6.333   2.132
10669TIP3    H131950   5.732   6.416   2.089
10669TIP3    H231951   5.705   6.267   2.082
10670TIP3   OH231952   1.350   0.441   4.838
10670TIP3    H131953   1.383   0.381   4.905
10670TIP3    H231954   1.429   0.481   4.801
10671TIP3   OH231955   6.414   6.079   4.552
10671TIP3    H131956   6.454   6.097   4.467
10671TIP3    H231957   6.339   6.024   4.532
10672TIP3   OH231958   7.451   3.707   4.074
10672TIP3    H131959   7.445   3.615   4.101
10672TIP3    H231960   7.449   3.756   4.156
10673TIP3   OH231961   3.903   6.938   1.426
10673TIP3    H131962   3.916   6.878   1.353
10673TIP3    H231963   3.898   7.025   1.386
10674TIP3   OH231964   7.448   5.298   4.554
10674TIP3    H131965   7.445   5.206   4.528
10674TIP3    H231966   7.365   5.313   4.598
10675TIP3   OH231967   4.596   1.902   2.109
10675TIP3    H131968   4.689   1.886   2.127
10675TIP3    H231969   4.584   1.874   2.019
10676TIP3   OH231970   0.619   7.355   1.094
10676TIP3    H131971   0.709   7.380   1.116
10676TIP3    H231972   0.621   7.338   1.000
10677TIP3   OH231973   0.200   3.823   1.268
10677TIP3    H131974   0.106   3.813   1.279
10677TIP3    H231975   0.217   3.916   1.286
10678TIP3   OH231976   8.136   7.661   3.728
10678TIP3    H131977   8.071   7.671   3.797
10678TIP3    H231978   8.220   7.659   3.775
10679TIP3   OH231979   3.557   7.185   4.327
10679TIP3    H131980   3.524   7.274   4.323
10679TIP3    H231981   3.642   7.189   4.283
10680TIP3   OH231982   7.394   4.513   3.169
10680TIP3    H131983   7.405   4.459   3.091
10680TIP3    H231984   7.447   4.591   3.152
10681TIP3   OH231985   1.200   7.398   6.484
10681TIP3    H131986   1.208   7.406   6.389
10681TIP3    H231987   1.285   7.367   6.513
10682TIP3   OH231988   1.186   5.073   3.731
10682TIP3    H131989   1.131   5.064   3.808
10682TIP3    H231990   1.125   5.090   3.659
10683TIP3   OH231991   8.036   6.019   6.484
10683TIP3    H131992   8.008   6.008   6.575
10683TIP3    H231993   7.955   6.027   6.435
10684TIP3   OH231994   1.564   4.500   1.524
10684TIP3    H131995   1.581   4.411   1.493
10684TIP3    H231996   1.649   4.531   1.555
10685TIP3   OH231997   2.411   6.967   5.376
10685TIP3    H131998   2.320   6.996   5.365
10685TIP3    H231999   2.426   6.906   5.303
10686TIP3   OH232000   4.114   5.910   1.073
10686TIP3    H132001   4.132   6.004   1.084
10686TIP3    H232002   4.120   5.896   0.978
10687TIP3   OH232003   2.986   4.298   1.442
10687TIP3    H132004   3.001   4.212   1.482
10687TIP3    H232005   2.916   4.283   1.378
10688TIP3   OH232006   5.949   2.557   3.358
10688TIP3    H132007   5.988   2.470   3.345
10688TIP3    H232008   5.937   2.591   3.270
10689TIP3   OH232009   2.137   1.214   3.419
10689TIP3    H132010   2.118   1.210   3.512
10689TIP3    H232011   2.091   1.293   3.388
10690TIP3   OH232012   0.209   0.582   6.084
10690TIP3    H132013   0.305   0.578   6.091
10690TIP3    H232014   0.178   0.544   6.166
10691TIP3   OH232015   0.851   0.148   5.873
10691TIP3    H132016   0.855   0.208   5.799
10691TIP3    H232017   0.880   0.199   5.948
10692TIP3   OH232018   6.197   4.322   6.286
10692TIP3    H132019   6.130   4.255   6.279
10692TIP3    H232020   6.277   4.275   6.308
10693TIP3   OH232021   5.172   3.492   3.071
10693TIP3    H132022   5.145   3.462   3.158
10693TIP3    H232023   5.142   3.583   3.066
10694TIP3   OH232024   2.556   0.021   4.222
10694TIP3    H132025   2.519   0.104   4.252
10694TIP3    H232026   2.599   0.042   4.140
10695TIP3   OH232027   6.810   7.014   5.530
10695TIP3    H132028   6.807   7.084   5.465
10695TIP3    H232029   6.754   6.945   5.494
10696TIP3   OH232030   4.596   3.827   2.500
10696TIP3    H132031   4.595   3.857   2.591
10696TIP3    H232032   4.683   3.850   2.467
10697TIP3   OH232033   5.721   6.203   0.031
10697TIP3    H132034   5.729   6.143   0.106
10697TIP3    H232035   5.801   6.188  -0.020
10698TIP3   OH232036   4.034   4.902   0.352
10698TIP3    H132037   3.940   4.908   0.370
10698TIP3    H232038   4.039   4.851   0.271
10699TIP3   OH232039   1.442   4.829   0.745
10699TIP3    H132040   1.399   4.840   0.660
10699TIP3    H232041   1.399   4.893   0.802
10700TIP3   OH232042   4.385   0.759   5.675
10700TIP3    H132043   4.439   0.708   5.734
10700TIP3    H232044   4.441   0.777   5.600
10701TIP3   OH232045   8.059   4.460   2.521
10701TIP3    H132046   8.096   4.502   2.444
10701TIP3    H232047   7.964   4.465   2.508
10702TIP3   OH232048   0.472   3.556   6.340
10702TIP3    H132049   0.508   3.645   6.344
10702TIP3    H232050   0.531   3.503   6.393
10703TIP3   OH232051   6.209   6.777   1.385
10703TIP3    H132052   6.169   6.729   1.313
10703TIP3    H232053   6.303   6.772   1.369
10704TIP3   OH232054   7.669   2.321   2.228
10704TIP3    H132055   7.580   2.288   2.210
10704TIP3    H232056   7.661   2.365   2.313
10705TIP3   OH232057   2.675   7.726   2.289
10705TIP3    H132058   2.649   7.663   2.356
10705TIP3    H232059   2.768   7.709   2.275
10706TIP3   OH232060   4.191   2.496   2.233
10706TIP3    H132061   4.239   2.423   2.195
10706TIP3    H232062   4.222   2.500   2.324
10707TIP3   OH232063   3.782   5.546   1.735
10707TIP3    H132064   3.817   5.629   1.703
10707TIP3    H232065   3.802   5.483   1.666
10708TIP3   OH232066   2.938   5.814   2.728
10708TIP3    H132067   3.023   5.785   2.761
10708TIP3    H232068   2.883   5.820   2.807
10709TIP3   OH232069   2.586   2.048   4.990
10709TIP3    H132070   2.537   2.023   5.068
10709TIP3    H232071   2.675   2.063   5.022
10710TIP3   OH232072   3.432   6.586   6.471
10710TIP3    H132073   3.407   6.676   6.449
10710TIP3    H232074   3.411   6.535   6.392
10711TIP3   OH232075   6.578   6.397   5.094
10711TIP3    H132076   6.530   6.399   5.177
10711TIP3    H232077   6.668   6.377   5.120
10712TIP3   OH232078   1.089   7.239   1.011
10712TIP3    H132079   1.170   7.232   1.061
10712TIP3    H232080   1.108   7.193   0.929
10713TIP3   OH232081   4.335   4.964   3.757
10713TIP3    H132082   4.257   4.981   3.809
10713TIP3    H232083   4.378   4.892   3.802
10714TIP3   OH232084   2.510   3.783   4.606
10714TIP3    H132085   2.562   3.844   4.660
10714TIP3    H232086   2.438   3.757   4.663
10715TIP3   OH232087   7.378   0.870   6.232
10715TIP3    H132088   7.378   0.871   6.327
10715TIP3    H232089   7.438   0.940   6.207
10716TIP3   OH232090   5.789   1.778   0.644
10716TIP3    H132091   5.733   1.701   0.653
10716TIP3    H232092   5.857   1.765   0.710
10717TIP3   OH232093   6.744   6.711   3.072
10717TIP3    H132094   6.673   6.699   3.009
10717TIP3    H232095   6.708   6.770   3.138
10718TIP3   OH232096   2.009   1.647   1.467
10718TIP3    H132097   1.957   1.727   1.480
10718TIP3    H232098   1.993   1.596   1.547
10719TIP3   OH232099   3.498   3.632   5.054
10719TIP3    H132100   3.413   3.632   5.098
10719TIP3    H232101   3.526   3.541   5.054
10720TIP3   OH232102   4.021   0.091   2.274
10720TIP3    H132103   4.063   0.006   2.262
10720TIP3    H232104   4.089   0.146   2.314
10721TIP3   OH232105   5.761   1.235   0.754
10721TIP3    H132106   5.769   1.313   0.808
10721TIP3    H232107   5.842   1.186   0.770
10722TIP3   OH232108   2.013   1.511   4.564
10722TIP3    H132109   1.917   1.502   4.565
10722TIP3    H232110   2.041   1.470   4.646
10723TIP3   OH232111   8.135   1.832   2.797
10723TIP3    H132112   8.098   1.899   2.740
10723TIP3    H232113   8.147   1.876   2.882
10724TIP3   OH232114   4.593   3.186   2.878
10724TIP3    H132115   4.530   3.247   2.840
10724TIP3    H232116   4.673   3.200   2.827
10725TIP3   OH232117   4.645   1.169   3.534
10725TIP3    H132118   4.571   1.144   3.479
10725TIP3    H232119   4.668   1.258   3.505
10726TIP3   OH232120   4.958   0.742   5.728
10726TIP3    H132121   4.956   0.692   5.646
10726TIP3    H232122   4.923   0.683   5.794
10727TIP3   OH232123   4.336   3.878   2.472
10727TIP3    H132124   4.426   3.850   2.456
10727TIP3    H232125   4.317   3.848   2.561
10728TIP3   OH232126   1.103   3.834   3.976
10728TIP3    H132127   1.133   3.743   3.972
10728TIP3    H232128   1.090   3.859   3.884
10729TIP3   OH232129   6.708   7.723   4.566
10729TIP3    H132130   6.734   7.777   4.641
10729TIP3    H232131   6.616   7.742   4.553
10730TIP3   OH232132   3.052   1.224   5.381
10730TIP3    H132133   3.021   1.280   5.309
10730TIP3    H232134   3.013   1.139   5.364
10731TIP3   OH232135   6.104   0.146   0.004
10731TIP3    H132136   6.015   0.154  -0.031
10731TIP3    H232137   6.112   0.217   0.068
10732TIP3   OH232138   4.664   1.759   0.992
10732TIP3    H132139   4.654   1.664   0.989
10732TIP3    H232140   4.682   1.784   0.901
10733TIP3   OH232141   0.593   6.646   3.711
10733TIP3    H132142   0.597   6.725   3.765
10733TIP3    H232143   0.659   6.588   3.748
10734TIP3   OH232144   1.118   5.332   5.738
10734TIP3    H132145   1.041   5.369   5.693
10734TIP3    H232146   1.122   5.241   5.708
10735TIP3   OH232147   0.869   6.041   2.670
10735TIP3    H132148   0.920   6.105   2.620
10735TIP3    H232149   0.923   5.961   2.669
10736TIP3   OH232150   3.485   6.193   0.935
10736TIP3    H132151   3.394   6.209   0.958
10736TIP3    H232152   3.484   6.179   0.840
10737TIP3   OH232153   3.144   6.538   4.432
10737TIP3    H132154   3.114   6.508   4.518
10737TIP3    H232155   3.063   6.551   4.382
10738TIP3   OH232156   0.612   1.682   2.603
10738TIP3    H132157   0.633   1.613   2.540
10738TIP3    H232158   0.696   1.722   2.623
10739TIP3   OH232159   6.859   4.793   4.122
10739TIP3    H132160   6.790   4.833   4.174
10739TIP3    H232161   6.940   4.822   4.163
10740TIP3   OH232162   4.894   6.192   1.896
10740TIP3    H132163   4.921   6.134   1.824
10740TIP3    H232164   4.976   6.220   1.936
10741TIP3   OH232165   6.202   7.098   5.673
10741TIP3    H132166   6.238   7.155   5.605
10741TIP3    H232167   6.278   7.055   5.712
10742TIP3   OH232168   6.313   3.281   6.519
10742TIP3    H132169   6.348   3.213   6.577
10742TIP3    H232170   6.341   3.254   6.431
10743TIP3   OH232171   1.821   1.444   2.238
10743TIP3    H132172   1.846   1.537   2.241
10743TIP3    H232173   1.893   1.402   2.191
10744TIP3   OH232174   0.153   7.148   1.747
10744TIP3    H132175   0.231   7.173   1.796
10744TIP3    H232176   0.089   7.122   1.814
10745TIP3   OH232177   2.127   5.111   0.792
10745TIP3    H132178   2.167   5.160   0.864
10745TIP3    H232179   2.176   5.029   0.788
10746TIP3   OH232180   5.887   1.473   2.601
10746TIP3    H132181   5.806   1.492   2.648
10746TIP3    H232182   5.935   1.414   2.659
10747TIP3   OH232183   2.384   3.784   0.143
10747TIP3    H132184   2.337   3.867   0.154
10747TIP3    H232185   2.463   3.808   0.096
10748TIP3   OH232186   2.009   1.067   3.910
10748TIP3    H132187   2.023   1.095   3.820
10748TIP3    H232188   1.937   1.003   3.903
10749TIP3   OH232189   2.665   1.787   5.360
10749TIP3    H132190   2.601   1.858   5.355
10749TIP3    H232191   2.724   1.802   5.286
10750TIP3   OH232192   7.107   1.596   2.309
10750TIP3    H132193   7.054   1.673   2.290
10750TIP3    H232194   7.167   1.588   2.235
10751TIP3   OH232195   2.138   5.590   3.643
10751TIP3    H132196   2.132   5.648   3.718
10751TIP3    H232197   2.220   5.541   3.656
10752TIP3   OH232198   5.992   1.758   4.304
10752TIP3    H132199   6.045   1.700   4.359
10752TIP3    H232200   6.028   1.845   4.319
10753TIP3   OH232201   0.821   4.537   2.327
10753TIP3    H132202   0.764   4.609   2.299
10753TIP3    H232203   0.853   4.499   2.245
10754TIP3   OH232204   7.086   4.586   4.062
10754TIP3    H132205   7.044   4.532   3.995
10754TIP3    H232206   7.014   4.634   4.103
10755TIP3   OH232207   7.381   0.399   4.731
10755TIP3    H132208   7.385   0.367   4.641
10755TIP3    H232209   7.322   0.337   4.775
10756TIP3   OH232210   6.950   0.819   0.839
10756TIP3    H132211   6.872   0.848   0.791
10756TIP3    H232212   7.021   0.830   0.776
10757TIP3   OH232213   3.679   0.687   1.071
10757TIP3    H132214   3.659   0.772   1.110
10757TIP3    H232215   3.628   0.624   1.123
10758TIP3   OH232216   1.883   1.892   4.350
10758TIP3    H132217   1.957   1.852   4.395
10758TIP3    H232218   1.912   1.979   4.326
10759TIP3   OH232219   0.081   0.441   0.546
10759TIP3    H132220  -0.014   0.439   0.532
10759TIP3    H232221   0.113   0.508   0.485
10760TIP3   OH232222   2.560   4.231   3.052
10760TIP3    H132223   2.571   4.155   3.108
10760TIP3    H232224   2.593   4.204   2.966
10761TIP3   OH232225   6.224   0.838   2.461
10761TIP3    H132226   6.200   0.917   2.510
10761TIP3    H232227   6.240   0.869   2.372
10762TIP3   OH232228   3.206   4.008   5.290
10762TIP3    H132229   3.273   4.074   5.271
10762TIP3    H232230   3.232   3.971   5.374
10763TIP3   OH232231   7.790   3.777   6.575
10763TIP3    H132232   7.767   3.870   6.584
10763TIP3    H232233   7.819   3.768   6.484
10764TIP3   OH232234   4.981   3.833   1.360
10764TIP3    H132235   4.985   3.925   1.386
10764TIP3    H232236   5.046   3.824   1.291
10765TIP3   OH232237   3.431   2.343   0.676
10765TIP3    H132238   3.448   2.424   0.724
10765TIP3    H232239   3.337   2.343   0.660
10766TIP3   OH232240   0.882   1.869   3.002
10766TIP3    H132241   0.813   1.912   2.952
10766TIP3    H232242   0.958   1.927   2.993
10767TIP3   OH232243   3.163   5.542   2.787
10767TIP3    H132244   3.172   5.636   2.805
10767TIP3    H232245   3.075   5.520   2.817
10768TIP3   OH232246   3.319   1.882   0.180
10768TIP3    H132247   3.241   1.831   0.202
10768TIP3    H232248   3.383   1.817   0.152
10769TIP3   OH232249   0.239   0.840   3.690
10769TIP3    H132250   0.232   0.933   3.711
10769TIP3    H232251   0.148   0.810   3.685
10770TIP3   OH232252   1.614   0.879   4.611
10770TIP3    H132253   1.574   0.843   4.532
10770TIP3    H232254   1.549   0.863   4.680
10771TIP3   OH232255   5.066   6.250   4.095
10771TIP3    H132256   5.084   6.243   4.189
10771TIP3    H232257   5.067   6.344   4.077
10772TIP3   OH232258   0.860   3.504   1.638
10772TIP3    H132259   0.938   3.545   1.674
10772TIP3    H232260   0.812   3.473   1.715
10773TIP3   OH232261   4.174   1.328   6.033
10773TIP3    H132262   4.097   1.280   6.004
10773TIP3    H232263   4.247   1.285   5.989
10774TIP3   OH232264   4.318   6.164   3.446
10774TIP3    H132265   4.256   6.145   3.376
10774TIP3    H232266   4.326   6.083   3.495
10775TIP3   OH232267   7.669   0.204   4.862
10775TIP3    H132268   7.616   0.126   4.847
10775TIP3    H232269   7.667   0.251   4.779
10776TIP3   OH232270   2.247   3.292   4.123
10776TIP3    H132271   2.306   3.367   4.123
10776TIP3    H232272   2.306   3.216   4.118
10777TIP3   OH232273   2.995   3.426   1.122
10777TIP3    H132274   2.967   3.463   1.205
10777TIP3    H232275   3.089   3.441   1.119
10778TIP3   OH232276   5.582   0.705   1.984
10778TIP3    H132277   5.515   0.639   1.964
10778TIP3    H232278   5.577   0.716   2.079
10779TIP3   OH232279   6.048   5.949   5.665
10779TIP3    H132280   6.067   5.855   5.660
10779TIP3    H232281   6.110   5.989   5.604
10780TIP3   OH232282   3.702   5.173   0.493
10780TIP3    H132283   3.619   5.181   0.445
10780TIP3    H232284   3.685   5.212   0.578
10781TIP3   OH232285   3.867   6.272   1.895
10781TIP3    H132286   3.930   6.341   1.871
10781TIP3    H232287   3.873   6.267   1.990
10782TIP3   OH232288   5.137   4.385   6.394
10782TIP3    H132289   5.113   4.409   6.483
10782TIP3    H232290   5.232   4.400   6.390
10783TIP3   OH232291   5.315   2.001   4.183
10783TIP3    H132292   5.396   2.044   4.213
10783TIP3    H232293   5.294   2.045   4.101
10784TIP3   OH232294   2.587   4.459   6.287
10784TIP3    H132295   2.641   4.535   6.267
10784TIP3    H232296   2.644   4.384   6.270
10785TIP3   OH232297   4.222   5.423   6.156
10785TIP3    H132298   4.136   5.407   6.116
10785TIP3    H232299   4.283   5.372   6.103
10786TIP3   OH232300   6.381   3.776   2.721
10786TIP3    H132301   6.300   3.822   2.697
10786TIP3    H232302   6.444   3.803   2.654
10787TIP3   OH232303   4.092   1.864   0.098
10787TIP3    H132304   4.110   1.926   0.027
10787TIP3    H232305   4.069   1.918   0.173
10788TIP3   OH232306   6.346   1.269   6.754
10788TIP3    H132307   6.335   1.364   6.752
10788TIP3    H232308   6.266   1.235   6.715
10789TIP3   OH232309   6.380   0.588   5.577
10789TIP3    H132310   6.356   0.675   5.547
10789TIP3    H232311   6.457   0.602   5.632
10790TIP3   OH232312   5.706   7.201   4.463
10790TIP3    H132313   5.687   7.236   4.376
10790TIP3    H232314   5.746   7.275   4.510
10791TIP3   OH232315   3.487   0.175   4.775
10791TIP3    H132316   3.582   0.168   4.763
10791TIP3    H232317   3.456   0.085   4.762
10792TIP3   OH232318   0.050   1.205   1.618
10792TIP3    H132319   0.049   1.110   1.610
10792TIP3    H232320   0.008   1.237   1.538
10793TIP3   OH232321   1.780   4.666   1.875
10793TIP3    H132322   1.706   4.632   1.824
10793TIP3    H232323   1.744   4.681   1.962
10794TIP3   OH232324   0.804   6.074   1.961
10794TIP3    H132325   0.860   6.008   2.003
10794TIP3    H232326   0.720   6.068   2.007
10795TIP3   OH232327   2.846   4.642   3.156
10795TIP3    H132328   2.826   4.732   3.182
10795TIP3    H232329   2.849   4.594   3.239
10796TIP3   OH232330   6.435   4.448   6.714
10796TIP3    H132331   6.398   4.359   6.711
10796TIP3    H232332   6.454   4.469   6.623
10797TIP3   OH232333   4.880   3.201   1.630
10797TIP3    H132334   4.936   3.128   1.655
10797TIP3    H232335   4.859   3.245   1.712
10798TIP3   OH232336   2.659   2.330   1.329
10798TIP3    H132337   2.640   2.299   1.241
10798TIP3    H232338   2.682   2.423   1.318
10799TIP3   OH232339   5.987   7.496   6.782
10799TIP3    H132340   6.075   7.458   6.779
10799TIP3    H232341   5.976   7.537   6.696
10800TIP3   OH232342   7.357   4.177   6.552
10800TIP3    H132343   7.333   4.231   6.627
10800TIP3    H232344   7.275   4.168   6.502
10801TIP3   OH232345   6.353   7.200   4.019
10801TIP3    H132346   6.308   7.278   4.053
10801TIP3    H232347   6.295   7.128   4.041
10802TIP3   OH232348   2.944   6.371   3.655
10802TIP3    H132349   2.941   6.366   3.751
10802TIP3    H232350   2.926   6.463   3.635
10803TIP3   OH232351   3.345   4.804   4.695
10803TIP3    H132352   3.250   4.804   4.687
10803TIP3    H232353   3.371   4.893   4.671
10804TIP3   OH232354   7.457   3.569   6.639
10804TIP3    H132355   7.401   3.506   6.595
10804TIP3    H232356   7.479   3.634   6.572
10805TIP3   OH232357   5.095   4.745   5.428
10805TIP3    H132358   5.026   4.779   5.371
10805TIP3    H232359   5.054   4.738   5.514
10806TIP3   OH232360   5.566   7.391   6.442
10806TIP3    H132361   5.491   7.439   6.408
10806TIP3    H232362   5.603   7.348   6.365
10807TIP3   OH232363   5.862   4.810   0.582
10807TIP3    H132364   5.900   4.875   0.641
10807TIP3    H232365   5.930   4.743   0.572
10808TIP3   OH232366   6.755   3.137   2.111
10808TIP3    H132367   6.785   3.197   2.179
10808TIP3    H232368   6.692   3.080   2.156
10809TIP3   OH232369   3.237   2.357   4.108
10809TIP3    H132370   3.319   2.362   4.157
10809TIP3    H232371   3.263   2.332   4.019
10810TIP3   OH232372   3.642   2.741   4.312
10810TIP3    H132373   3.670   2.804   4.245
10810TIP3    H232374   3.723   2.697   4.339
10811TIP3   OH232375   7.972   2.450   2.149
10811TIP3    H132376   7.890   2.445   2.100
10811TIP3    H232377   7.992   2.543   2.154
10812TIP3   OH232378   1.706   1.304   1.318
10812TIP3    H132379   1.655   1.363   1.374
10812TIP3    H232380   1.686   1.332   1.229
10813TIP3   OH232381   3.972   1.731   5.524
10813TIP3    H132382   3.884   1.702   5.497
10813TIP3    H232383   4.009   1.769   5.445
10814TIP3   OH232384   2.667   7.268   5.924
10814TIP3    H132385   2.728   7.196   5.939
10814TIP3    H232386   2.722   7.341   5.896
10815TIP3   OH232387   0.727   3.644   0.898
10815TIP3    H132388   0.686   3.648   0.985
10815TIP3    H232389   0.766   3.556   0.895
10816TIP3   OH232390   5.643   4.429   4.481
10816TIP3    H132391   5.677   4.517   4.468
10816TIP3    H232392   5.559   4.441   4.525
10817TIP3   OH232393   0.925   7.712   2.025
10817TIP3    H132394   0.994   7.651   1.999
10817TIP3    H232395   0.962   7.799   2.010
10818TIP3   OH232396   4.700   7.478   6.175
10818TIP3    H132397   4.753   7.399   6.190
10818TIP3    H232398   4.707   7.528   6.256
10819TIP3   OH232399   7.597   4.442   5.404
10819TIP3    H132400   7.569   4.500   5.475
10819TIP3    H232401   7.611   4.357   5.447
10820TIP3   OH232402   4.669   0.383   0.038
10820TIP3    H132403   4.729   0.311   0.058
10820TIP3    H232404   4.596   0.370   0.098
10821TIP3   OH232405   5.224   4.682   0.945
10821TIP3    H132406   5.307   4.722   0.921
10821TIP3    H232407   5.206   4.713   1.033
10822TIP3   OH232408   0.591   5.288   0.829
10822TIP3    H132409   0.665   5.256   0.778
10822TIP3    H232410   0.614   5.379   0.850
10823TIP3   OH232411   0.061   1.012   4.554
10823TIP3    H132412   0.123   0.942   4.535
10823TIP3    H232413  -0.007   0.971   4.607
10824TIP3   OH232414   6.222   7.436   6.036
10824TIP3    H132415   6.165   7.504   6.070
10824TIP3    H232416   6.191   7.420   5.947
10825TIP3   OH232417   8.328   1.627   2.526
10825TIP3    H132418   8.356   1.546   2.483
10825TIP3    H232419   8.234   1.631   2.510
10826TIP3   OH232420   7.376   2.366   0.530
10826TIP3    H132421   7.379   2.285   0.478
10826TIP3    H232422   7.418   2.431   0.474
10827TIP3   OH232423   4.121   3.822   5.882
10827TIP3    H132424   4.205   3.856   5.851
10827TIP3    H232425   4.141   3.780   5.966
10828TIP3   OH232426   3.474   2.875   2.833
10828TIP3    H132427   3.465   2.970   2.829
10828TIP3    H232428   3.525   2.859   2.912
10829TIP3   OH232429   3.571   3.799   5.484
10829TIP3    H132430   3.500   3.760   5.535
10829TIP3    H232431   3.527   3.861   5.426
10830TIP3   OH232432   2.913   1.419   1.337
10830TIP3    H132433   2.983   1.466   1.292
10830TIP3    H232434   2.839   1.421   1.277
10831TIP3   OH232435   5.333   0.536   1.545
10831TIP3    H132436   5.376   0.458   1.579
10831TIP3    H232437   5.381   0.609   1.586
10832TIP3   OH232438   5.872   5.656   0.615
10832TIP3    H132439   5.960   5.678   0.587
10832TIP3    H232440   5.861   5.564   0.593
10833TIP3   OH232441   1.402   0.599   3.277
10833TIP3    H132442   1.392   0.695   3.275
10833TIP3    H232443   1.331   0.567   3.222
10834TIP3   OH232444   2.958   6.298   1.373
10834TIP3    H132445   3.029   6.234   1.369
10834TIP3    H232446   2.925   6.291   1.463
10835TIP3   OH232447   7.767   4.751   4.094
10835TIP3    H132448   7.745   4.690   4.164
10835TIP3    H232449   7.740   4.705   4.014
10836TIP3   OH232450   2.487   6.944   4.015
10836TIP3    H132451   2.517   7.011   3.953
10836TIP3    H232452   2.555   6.940   4.081
10837TIP3   OH232453   7.434   1.490   4.035
10837TIP3    H132454   7.474   1.430   3.972
10837TIP3    H232455   7.471   1.466   4.119
10838TIP3   OH232456   1.131   3.506   1.717
10838TIP3    H132457   1.170   3.568   1.780
10838TIP3    H232458   1.127   3.423   1.764
10839TIP3   OH232459   7.160   5.202   0.683
10839TIP3    H132460   7.070   5.197   0.716
10839TIP3    H232461   7.212   5.153   0.748
10840TIP3   OH232462   6.407   2.481   6.115
10840TIP3    H132463   6.354   2.474   6.194
10840TIP3    H232464   6.427   2.390   6.093
10841TIP3   OH232465   2.874   5.486   2.752
10841TIP3    H132466   2.859   5.462   2.661
10841TIP3    H232467   2.813   5.430   2.801
10842TIP3   OH232468   6.145   2.062   3.876
10842TIP3    H132469   6.165   2.046   3.969
10842TIP3    H232470   6.078   1.997   3.855
10843TIP3   OH232471   6.248   1.687   1.683
10843TIP3    H132472   6.217   1.683   1.774
10843TIP3    H232473   6.331   1.639   1.685
10844TIP3   OH232474   1.373   6.807   5.530
10844TIP3    H132475   1.353   6.788   5.622
10844TIP3    H232476   1.369   6.721   5.487
10845TIP3   OH232477   4.923   2.090   4.006
10845TIP3    H132478   4.907   2.048   3.922
10845TIP3    H232479   4.934   2.183   3.985
10846TIP3   OH232480   3.752   2.136   2.242
10846TIP3    H132481   3.716   2.180   2.320
10846TIP3    H232482   3.674   2.108   2.194
10847TIP3   OH232483   0.973   7.011   1.263
10847TIP3    H132484   0.931   6.996   1.347
10847TIP3    H232485   1.062   7.038   1.284
10848TIP3   OH232486   4.671   7.058   4.699
10848TIP3    H132487   4.748   7.107   4.670
10848TIP3    H232488   4.706   6.979   4.739
10849TIP3   OH232489   8.093   2.824   1.027
10849TIP3    H132490   8.009   2.865   1.045
10849TIP3    H232491   8.115   2.778   1.108
10850TIP3   OH232492   5.394   3.409   3.596
10850TIP3    H132493   5.400   3.419   3.691
10850TIP3    H232494   5.356   3.492   3.565
10851TIP3   OH232495   7.782   0.309   0.751
10851TIP3    H132496   7.872   0.277   0.759
10851TIP3    H232497   7.758   0.336   0.839
10852TIP3   OH232498   1.082   4.044   2.704
10852TIP3    H132499   1.163   4.016   2.747
10852TIP3    H232500   1.112   4.093   2.627
10853TIP3   OH232501   7.595   7.652   1.800
10853TIP3    H132502   7.591   7.683   1.890
10853TIP3    H232503   7.525   7.586   1.794
10854TIP3   OH232504   7.794   6.245   0.738
10854TIP3    H132505   7.865   6.206   0.687
10854TIP3    H232506   7.738   6.171   0.761
10855TIP3   OH232507   4.277   5.197   1.772
10855TIP3    H132508   4.255   5.185   1.865
10855TIP3    H232509   4.192   5.205   1.728
10856TIP3   OH232510   7.448   4.779   2.659
10856TIP3    H132511   7.464   4.840   2.731
10856TIP3    H232512   7.372   4.728   2.686
10857TIP3   OH232513   4.284   7.670   5.769
10857TIP3    H132514   4.339   7.668   5.691
10857TIP3    H232515   4.337   7.630   5.838
10858TIP3   OH232516   5.816   7.101   5.438
10858TIP3    H132517   5.897   7.061   5.470
10858TIP3    H232518   5.751   7.085   5.506
10859TIP3   OH232519   2.785   3.500   5.776
10859TIP3    H132520   2.803   3.584   5.817
10859TIP3    H232521   2.861   3.446   5.797
10860TIP3   OH232522   4.091   1.836   1.405
10860TIP3    H132523   4.184   1.843   1.425
10860TIP3    H232524   4.087   1.771   1.334
10861TIP3   OH232525   1.536   4.476   2.181
10861TIP3    H132526   1.441   4.480   2.195
10861TIP3    H232527   1.546   4.433   2.096
10862TIP3   OH232528   4.257   3.593   1.911
10862TIP3    H132529   4.286   3.577   1.821
10862TIP3    H232530   4.234   3.506   1.945
10863TIP3   OH232531   0.305   1.701   0.760
10863TIP3    H132532   0.345   1.619   0.788
10863TIP3    H232533   0.377   1.764   0.760
10864TIP3   OH232534   1.199   0.972   3.724
10864TIP3    H132535   1.143   0.985   3.801
10864TIP3    H232536   1.164   1.032   3.659
10865TIP3   OH232537   3.928   0.514   5.181
10865TIP3    H132538   3.989   0.500   5.254
10865TIP3    H232539   3.928   0.609   5.167
10866TIP3   OH232540   6.689   7.636   1.187
10866TIP3    H132541   6.751   7.653   1.258
10866TIP3    H232542   6.668   7.723   1.152
10867TIP3   OH232543   0.458   3.785   3.512
10867TIP3    H132544   0.436   3.692   3.509
10867TIP3    H232545   0.529   3.791   3.577
10868TIP3   OH232546   2.609   0.127   0.985
10868TIP3    H132547   2.568   0.059   0.931
10868TIP3    H232548   2.691   0.147   0.939
10869TIP3   OH232549   0.569   2.639   1.704
10869TIP3    H132550   0.642   2.577   1.700
10869TIP3    H232551   0.494   2.586   1.732
10870TIP3   OH232552   4.221   7.613   5.057
10870TIP3    H132553   4.158   7.668   5.010
10870TIP3    H232554   4.191   7.524   5.042
10871TIP3   OH232555   1.355   2.457   0.487
10871TIP3    H132556   1.402   2.391   0.537
10871TIP3    H232557   1.290   2.492   0.548
10872TIP3   OH232558   3.459   0.475   5.043
10872TIP3    H132559   3.526   0.538   5.073
10872TIP3    H232560   3.495   0.389   5.066
10873TIP3   OH232561   2.671   6.563   4.928
10873TIP3    H132562   2.758   6.524   4.933
10873TIP3    H232563   2.631   6.545   5.013
10874TIP3   OH232564   1.540   5.913   6.195
10874TIP3    H132565   1.513   5.971   6.124
10874TIP3    H232566   1.507   5.827   6.169
10875TIP3   OH232567   2.719   6.186   3.927
10875TIP3    H132568   2.802   6.141   3.941
10875TIP3    H232569   2.745   6.278   3.914
10876TIP3   OH232570   0.980   7.423   4.654
10876TIP3    H132571   1.002   7.428   4.562
10876TIP3    H232572   0.891   7.387   4.656
10877TIP3   OH232573   7.334   6.722   1.613
10877TIP3    H132574   7.382   6.700   1.534
10877TIP3    H232575   7.397   6.772   1.666
10878TIP3   OH232576   6.312   6.908   5.303
10878TIP3    H132577   6.275   6.861   5.229
10878TIP3    H232578   6.263   6.877   5.379
10879TIP3   OH232579   3.944   1.470   2.911
10879TIP3    H132580   3.993   1.482   2.829
10879TIP3    H232581   4.012   1.463   2.978
10880TIP3   OH232582   5.294   5.222   0.583
10880TIP3    H132583   5.277   5.160   0.654
10880TIP3    H232584   5.266   5.177   0.504
10881TIP3   OH232585   0.231   4.961   0.428
10881TIP3    H132586   0.211   4.920   0.343
10881TIP3    H232587   0.152   4.945   0.480
10882TIP3   OH232588   7.217   0.148   3.009
10882TIP3    H132589   7.286   0.152   3.075
10882TIP3    H232590   7.145   0.101   3.052
10883TIP3   OH232591   5.662   2.739   1.680
10883TIP3    H132592   5.713   2.753   1.600
10883TIP3    H232593   5.727   2.743   1.750
10884TIP3   OH232594   0.336   5.395   2.713
10884TIP3    H132595   0.304   5.386   2.803
10884TIP3    H232596   0.346   5.306   2.682
10885TIP3   OH232597   7.877   0.205   1.173
10885TIP3    H132598   7.970   0.228   1.167
10885TIP3    H232599   7.837   0.277   1.222
10886TIP3   OH232600   4.239   7.178   5.883
10886TIP3    H132601   4.294   7.118   5.834
10886TIP3    H232602   4.223   7.251   5.824
10887TIP3   OH232603   2.215   7.074   4.516
10887TIP3    H132604   2.264   7.151   4.544
10887TIP3    H232605   2.191   7.030   4.597
10888TIP3   OH232606   0.587   2.988   6.319
10888TIP3    H132607   0.626   2.998   6.232
10888TIP3    H232608   0.630   2.911   6.356
10889TIP3   OH232609   2.598   6.913   1.972
10889TIP3    H132610   2.550   6.846   2.020
10889TIP3    H232611   2.683   6.918   2.015
10890TIP3   OH232612   6.986   0.838   6.712
10890TIP3    H132613   7.020   0.926   6.728
10890TIP3    H232614   7.007   0.790   6.792
10891TIP3   OH232615   4.094   1.333   4.107
10891TIP3    H132616   4.066   1.424   4.112
10891TIP3    H232617   4.145   1.328   4.026
10892TIP3   OH232618   0.522   1.440   4.529
10892TIP3    H132619   0.607   1.462   4.564
10892TIP3    H232620   0.474   1.522   4.528
10893TIP3   OH232621   4.889   5.045   2.982
10893TIP3    H132622   4.797   5.039   2.957
10893TIP3    H232623   4.888   5.077   3.072
10894TIP3   OH232624   2.603   2.365   4.136
10894TIP3    H132625   2.520   2.403   4.166
10894TIP3    H232626   2.636   2.317   4.211
10895TIP3   OH232627   7.799   1.921   5.516
10895TIP3    H132628   7.793   1.987   5.447
10895TIP3    H232629   7.756   1.962   5.592
10896TIP3   OH232630   2.713   5.899   0.647
10896TIP3    H132631   2.687   5.961   0.715
10896TIP3    H232632   2.808   5.909   0.641
10897TIP3   OH232633   1.426   7.490   5.901
10897TIP3    H132634   1.364   7.540   5.848
10897TIP3    H232635   1.426   7.533   5.986
10898TIP3   OH232636   5.431   0.642   6.164
10898TIP3    H132637   5.514   0.608   6.131
10898TIP3    H232638   5.445   0.736   6.172
10899TIP3   OH232639   5.976   4.092   2.104
10899TIP3    H132640   6.056   4.040   2.113
10899TIP3    H232641   5.906   4.027   2.095
10900TIP3   OH232642   7.632   6.545   1.109
10900TIP3    H132643   7.641   6.495   1.027
10900TIP3    H232644   7.651   6.481   1.177
10901TIP3   OH232645   1.929   5.208   2.837
10901TIP3    H132646   1.940   5.296   2.801
10901TIP3    H232647   1.923   5.151   2.760
10902TIP3   OH232648   1.020   3.428   0.050
10902TIP3    H132649   0.942   3.372   0.055
10902TIP3    H232650   0.998   3.494  -0.016
10903TIP3   OH232651   8.075   0.062   3.704
10903TIP3    H132652   8.009   0.038   3.639
10903TIP3    H232653   8.152   0.087   3.652
10904TIP3   OH232654   0.708   0.550   0.675
10904TIP3    H132655   0.651   0.605   0.729
10904TIP3    H232656   0.706   0.592   0.589
10905TIP3   OH232657   1.633   6.980   2.080
10905TIP3    H132658   1.639   6.906   2.019
10905TIP3    H232659   1.551   7.023   2.059
10906TIP3   OH232660   0.019   7.485   5.287
10906TIP3    H132661   0.053   7.572   5.264
10906TIP3    H232662   0.019   7.437   5.205
10907TIP3   OH232663   4.943   7.796   4.187
10907TIP3    H132664   4.943   7.701   4.191
10907TIP3    H232665   5.034   7.821   4.200
10908TIP3   OH232666   2.708   7.056   5.610
10908TIP3    H132667   2.765   6.981   5.624
10908TIP3    H232668   2.630   7.038   5.663
10909TIP3   OH232669   7.266   0.115   0.204
10909TIP3    H132670   7.346   0.106   0.256
10909TIP3    H232671   7.203   0.155   0.264
10910TIP3   OH232672   7.119   5.210   2.540
10910TIP3    H132673   7.131   5.162   2.458
10910TIP3    H232674   7.207   5.240   2.562
10911TIP3   OH232675   0.650   5.783   2.460
10911TIP3    H132676   0.724   5.726   2.483
10911TIP3    H232677   0.582   5.722   2.430
10912TIP3   OH232678   4.791   5.224   4.298
10912TIP3    H132679   4.867   5.182   4.257
10912TIP3    H232680   4.726   5.155   4.306
10913TIP3   OH232681   3.485   4.015   4.155
10913TIP3    H132682   3.496   4.021   4.250
10913TIP3    H232683   3.574   4.025   4.120
10914TIP3   OH232684   2.209   0.400   5.272
10914TIP3    H132685   2.195   0.441   5.357
10914TIP3    H232686   2.214   0.306   5.292
10915TIP3   OH232687   3.839   5.075   6.089
10915TIP3    H132688   3.812   5.054   6.178
10915TIP3    H232689   3.815   4.997   6.038
10916TIP3   OH232690   8.109   1.642   4.432
10916TIP3    H132691   8.096   1.551   4.459
10916TIP3    H232692   8.153   1.635   4.347
10917TIP3   OH232693   2.502   3.181   0.754
10917TIP3    H132694   2.539   3.267   0.734
10917TIP3    H232695   2.575   3.131   0.789
10918TIP3   OH232696   1.114   7.807   1.756
10918TIP3    H132697   1.056   7.731   1.755
10918TIP3    H232698   1.068   7.872   1.808
10919TIP3   OH232699   7.352   3.541   4.748
10919TIP3    H132700   7.313   3.611   4.801
10919TIP3    H232701   7.279   3.504   4.699
10920TIP3   OH232702   1.198   0.903   4.494
10920TIP3    H132703   1.154   0.982   4.524
10920TIP3    H232704   1.168   0.891   4.404
10921TIP3   OH232705   6.110   1.146   3.687
10921TIP3    H132706   6.157   1.202   3.624
10921TIP3    H232707   6.027   1.126   3.643
10922TIP3   OH232708   0.319   7.420   5.240
10922TIP3    H132709   0.342   7.486   5.305
10922TIP3    H232710   0.357   7.452   5.158
10923TIP3   OH232711   6.673   0.355   1.740
10923TIP3    H132712   6.706   0.417   1.675
10923TIP3    H232713   6.578   0.367   1.739
10924TIP3   OH232714   0.510   1.624   0.508
10924TIP3    H132715   0.528   1.718   0.507
10924TIP3    H232716   0.426   1.615   0.463
10925TIP3   OH232717   2.784   2.599   4.371
10925TIP3    H132718   2.785   2.665   4.302
10925TIP3    H232719   2.795   2.649   4.452
10926TIP3   OH232720   4.018   6.043   6.017
10926TIP3    H132721   3.937   6.083   6.049
10926TIP3    H232722   4.019   5.955   6.055
10927TIP3   OH232723   2.957   5.889   5.693
10927TIP3    H132724   3.029   5.841   5.734
10927TIP3    H232725   2.879   5.861   5.741
10928TIP3   OH232726   1.818   1.578   1.778
10928TIP3    H132727   1.850   1.520   1.709
10928TIP3    H232728   1.753   1.526   1.825
10929TIP3   OH232729   2.099   1.960   5.910
10929TIP3    H132730   2.164   2.026   5.936
10929TIP3    H232731   2.015   2.005   5.920
10930TIP3   OH232732   4.119   2.882   0.381
10930TIP3    H132733   4.206   2.850   0.404
10930TIP3    H232734   4.097   2.837   0.299
10931TIP3   OH232735   5.339   2.804   5.428
10931TIP3    H132736   5.413   2.840   5.477
10931TIP3    H232737   5.325   2.717   5.465
10932TIP3   OH232738   4.782   5.127   2.420
10932TIP3    H132739   4.858   5.171   2.458
10932TIP3    H232740   4.751   5.070   2.490
10933TIP3   OH232741   4.170   7.163   6.294
10933TIP3    H132742   4.155   7.100   6.365
10933TIP3    H232743   4.176   7.248   6.339
10934TIP3   OH232744   0.071   4.634   0.243
10934TIP3    H132745   0.031   4.593   0.320
10934TIP3    H232746   0.069   4.565   0.176
10935TIP3   OH232747   4.975   6.192   1.251
10935TIP3    H132748   4.934   6.169   1.335
10935TIP3    H232749   4.910   6.169   1.185
10936TIP3   OH232750   5.229   1.552   1.589
10936TIP3    H132751   5.316   1.511   1.590
10936TIP3    H232752   5.168   1.479   1.594
10937TIP3   OH232753   7.090   4.385   2.401
10937TIP3    H132754   7.122   4.440   2.329
10937TIP3    H232755   7.074   4.447   2.472
10938TIP3   OH232756   3.917   0.589   6.669
10938TIP3    H132757   3.971   0.624   6.598
10938TIP3    H232758   3.883   0.507   6.634
10939TIP3   OH232759   6.983   7.714   0.824
10939TIP3    H132760   6.957   7.795   0.781
10939TIP3    H232761   6.904   7.685   0.871
10940TIP3   OH232762   4.926   4.953   5.399
10940TIP3    H132763   4.974   5.033   5.420
10940TIP3    H232764   4.850   4.955   5.458
10941TIP3   OH232765   4.394   4.739   6.123
10941TIP3    H132766   4.453   4.666   6.146
10941TIP3    H232767   4.306   4.701   6.129
10942TIP3   OH232768   2.439   0.910   4.558
10942TIP3    H132769   2.343   0.915   4.560
10942TIP3    H232770   2.468   0.999   4.580
10943TIP3   OH232771   2.958   5.566   3.120
10943TIP3    H132772   2.893   5.559   3.050
10943TIP3    H232773   2.917   5.523   3.195
10944TIP3   OH232774   6.239   6.609   5.969
10944TIP3    H132775   6.266   6.520   5.992
10944TIP3    H232776   6.168   6.597   5.906
10945TIP3   OH232777   2.469   5.583   5.135
10945TIP3    H132778   2.454   5.648   5.204
10945TIP3    H232779   2.408   5.512   5.156
10946TIP3   OH232780   6.391   1.177   5.053
10946TIP3    H132781   6.391   1.152   4.961
10946TIP3    H232782   6.484   1.183   5.077
10947TIP3   OH232783   4.751   4.274   1.979
10947TIP3    H132784   4.794   4.229   1.906
10947TIP3    H232785   4.784   4.230   2.057
10948TIP3   OH232786   6.187   5.605   2.313
10948TIP3    H132787   6.243   5.529   2.330
10948TIP3    H232788   6.225   5.675   2.366
10949TIP3   OH232789   3.235   1.970   0.517
10949TIP3    H132790   3.237   1.879   0.545
10949TIP3    H232791   3.305   2.013   0.566
10950TIP3   OH232792   0.899   3.509   6.323
10950TIP3    H132793   0.973   3.478   6.376
10950TIP3    H232794   0.892   3.602   6.344
10951TIP3   OH232795   1.821   3.032   2.254
10951TIP3    H132796   1.884   2.971   2.292
10951TIP3    H232797   1.875   3.103   2.218
10952TIP3   OH232798   0.940   4.659   4.982
10952TIP3    H132799   0.956   4.720   5.054
10952TIP3    H232800   0.857   4.616   5.005
10953TIP3   OH232801   6.995   5.061   1.572
10953TIP3    H132802   7.042   4.978   1.573
10953TIP3    H232803   6.977   5.079   1.664
10954TIP3   OH232804   0.821   1.735   4.496
10954TIP3    H132805   0.828   1.706   4.406
10954TIP3    H232806   0.752   1.680   4.534
10955TIP3   OH232807   1.867   4.816   5.265
10955TIP3    H132808   1.869   4.729   5.304
10955TIP3    H232809   1.778   4.824   5.230
10956TIP3   OH232810   7.952   1.617   6.197
10956TIP3    H132811   7.875   1.641   6.247
10956TIP3    H232812   8.013   1.689   6.210
10957TIP3   OH232813   3.436   5.799   4.649
10957TIP3    H132814   3.456   5.785   4.557
10957TIP3    H232815   3.406   5.889   4.655
10958TIP3   OH232816   3.527   3.624   3.372
10958TIP3    H132817   3.613   3.586   3.353
10958TIP3    H232818   3.515   3.611   3.466
10959TIP3   OH232819   1.344   4.363   3.255
10959TIP3    H132820   1.278   4.415   3.210
10959TIP3    H232821   1.408   4.427   3.286
10960TIP3   OH232822   3.254   4.357   3.577
10960TIP3    H132823   3.263   4.298   3.652
10960TIP3    H232824   3.170   4.401   3.591
10961TIP3   OH232825   2.744   4.883   3.282
10961TIP3    H132826   2.658   4.841   3.285
10961TIP3    H232827   2.753   4.924   3.368
10962TIP3   OH232828   6.177   3.835   0.720
10962TIP3    H132829   6.135   3.876   0.796
10962TIP3    H232830   6.229   3.905   0.681
10963TIP3   OH232831   6.436   5.817   5.568
10963TIP3    H132832   6.479   5.870   5.636
10963TIP3    H232833   6.362   5.776   5.614
10964TIP3   OH232834   2.522   7.611   3.372
10964TIP3    H132835   2.513   7.691   3.319
10964TIP3    H232836   2.582   7.555   3.322
10965TIP3   OH232837   1.973   4.556   3.933
10965TIP3    H132838   1.967   4.540   4.027
10965TIP3    H232839   2.067   4.558   3.916
10966TIP3   OH232840   7.287   7.187   1.346
10966TIP3    H132841   7.306   7.093   1.338
10966TIP3    H232842   7.330   7.226   1.270
10967TIP3   OH232843   3.688   4.383   2.610
10967TIP3    H132844   3.632   4.421   2.543
10967TIP3    H232845   3.766   4.355   2.562
10968TIP3   OH232846   4.606   2.546   3.245
10968TIP3    H132847   4.655   2.465   3.233
10968TIP3    H232848   4.590   2.578   3.156
10969TIP3   OH232849   6.048   7.214   1.442
10969TIP3    H132850   6.132   7.237   1.403
10969TIP3    H232851   6.029   7.127   1.409
10970TIP3   OH232852   3.757   5.517   5.471
10970TIP3    H132853   3.696   5.453   5.433
10970TIP3    H232854   3.705   5.562   5.538
10971TIP3   OH232855   7.298   2.880   3.768
10971TIP3    H132856   7.317   2.937   3.694
10971TIP3    H232857   7.381   2.836   3.786
10972TIP3   OH232858   4.884   7.319   5.748
10972TIP3    H132859   4.811   7.380   5.733
10972TIP3    H232860   4.867   7.246   5.687
10973TIP3   OH232861   0.920   0.137   5.199
10973TIP3    H132862   0.898   0.230   5.207
10973TIP3    H232863   0.962   0.130   5.113
10974TIP3   OH232864   5.014   0.936   3.984
10974TIP3    H132865   5.044   0.930   3.894
10974TIP3    H232866   4.920   0.922   3.979
10975TIP3   OH232867   7.406   0.782   1.978
10975TIP3    H132868   7.349   0.732   2.036
10975TIP3    H232869   7.365   0.868   1.973
10976TIP3   OH232870   0.566   0.149   3.516
10976TIP3    H132871   0.632   0.209   3.551
10976TIP3    H232872   0.596   0.062   3.541
10977TIP3   OH232873   4.295   5.021   4.939
10977TIP3    H132874   4.213   5.042   4.894
10977TIP3    H232875   4.272   4.951   5.000
10978TIP3   OH232876   2.369   0.290   0.432
10978TIP3    H132877   2.414   0.235   0.496
10978TIP3    H232878   2.350   0.231   0.359
10979TIP3   OH232879   6.733   6.777   2.547
10979TIP3    H132880   6.663   6.730   2.502
10979TIP3    H232881   6.769   6.713   2.608
10980TIP3   OH232882   6.349   2.431   0.371
10980TIP3    H132883   6.300   2.460   0.294
10980TIP3    H232884   6.378   2.342   0.348
10981TIP3   OH232885   7.165   5.325   2.935
10981TIP3    H132886   7.242   5.380   2.923
10981TIP3    H232887   7.108   5.375   2.994
10982TIP3   OH232888   3.775   4.127   0.274
10982TIP3    H132889   3.755   4.080   0.193
10982TIP3    H232890   3.699   4.184   0.288
10983TIP3   OH232891   7.500   2.024   4.518
10983TIP3    H132892   7.499   1.946   4.573
10983TIP3    H232893   7.442   2.003   4.445
10984TIP3   OH232894   6.825   0.796   1.656
10984TIP3    H132895   6.878   0.872   1.634
10984TIP3    H232896   6.734   0.825   1.643
10985TIP3   OH232897   3.488   3.288   5.830
10985TIP3    H132898   3.483   3.235   5.909
10985TIP3    H232899   3.558   3.350   5.847
10986TIP3   OH232900   7.982   6.997   0.238
10986TIP3    H132901   7.980   7.026   0.147
10986TIP3    H232902   8.018   7.071   0.286
10987TIP3   OH232903   2.811   7.576   4.033
10987TIP3    H132904   2.749   7.526   3.980
10987TIP3    H232905   2.816   7.661   3.990
10988TIP3   OH232906   3.902   6.616   6.020
10988TIP3    H132907   3.967   6.657   6.077
10988TIP3    H232908   3.902   6.671   5.942
10989TIP3   OH232909   4.173   0.880   2.882
10989TIP3    H132910   4.108   0.899   2.814
10989TIP3    H232911   4.248   0.934   2.858
10990TIP3   OH232912   5.738   3.895   6.231
10990TIP3    H132913   5.750   3.968   6.170
10990TIP3    H232914   5.649   3.864   6.215
10991TIP3   OH232915   1.122   4.032   5.573
10991TIP3    H132916   1.184   4.100   5.602
10991TIP3    H232917   1.075   4.007   5.652
10992TIP3   OH232918   1.211   6.703   2.553
10992TIP3    H132919   1.174   6.684   2.639
10992TIP3    H232920   1.150   6.664   2.491
10993TIP3   OH232921   6.033   5.792   3.495
10993TIP3    H132922   6.098   5.772   3.563
10993TIP3    H232923   6.081   5.785   3.413
10994TIP3   OH232924   4.578   0.705   0.391
10994TIP3    H132925   4.578   0.703   0.295
10994TIP3    H232926   4.641   0.773   0.413
10995TIP3   OH232927   0.789   3.388   0.866
10995TIP3    H132928   0.817   3.324   0.801
10995TIP3    H232929   0.694   3.373   0.876
10996TIP3   OH232930   3.297   1.337   5.451
10996TIP3    H132931   3.215   1.298   5.423
10996TIP3    H232932   3.272   1.395   5.524
10997TIP3   OH232933   0.381   2.692   1.956
10997TIP3    H132934   0.341   2.620   1.908
10997TIP3    H232935   0.315   2.762   1.954
10998TIP3   OH232936   5.963   6.269   5.224
10998TIP3    H132937   5.953   6.222   5.307
10998TIP3    H232938   6.051   6.246   5.194
10999TIP3   OH232939   0.928   2.549   2.243
10999TIP3    H132940   0.985   2.492   2.294
10999TIP3    H232941   0.952   2.638   2.271
11000TIP3   OH232942   5.746   5.087   0.053
11000TIP3    H132943   5.678   5.061  -0.010
11000TIP3    H232944   5.722   5.043   0.134
11001TIP3   OH232945   3.383   1.565   4.119
11001TIP3    H132946   3.328   1.593   4.046
11001TIP3    H232947   3.394   1.470   4.107
11002TIP3   OH232948   7.617   4.905   2.051
11002TIP3    H132949   7.551   4.941   2.111
11002TIP3    H232950   7.597   4.811   2.049
11003TIP3   OH232951   4.695  -0.001   5.668
11003TIP3    H132952   4.741   0.050   5.733
11003TIP3    H232953   4.755  -0.073   5.647
11004TIP3   OH232954   2.674   1.530   1.527
11004TIP3    H132955   2.728   1.453   1.542
11004TIP3    H232956   2.638   1.552   1.613
11005TIP3   OH232957   8.264   5.998   4.039
11005TIP3    H132958   8.216   6.032   3.963
11005TIP3    H232959   8.351   6.037   4.031
11006TIP3   OH232960   3.137   1.154   6.135
11006TIP3    H132961   3.117   1.148   6.042
11006TIP3    H232962   3.222   1.197   6.138
11007TIP3   OH232963   4.739   6.972   4.228
11007TIP3    H132964   4.701   7.042   4.282
11007TIP3    H232965   4.712   6.993   4.139
11008TIP3   OH232966   3.009   2.235   2.087
11008TIP3    H132967   3.004   2.175   2.162
11008TIP3    H232968   2.994   2.179   2.011
11009TIP3   OH232969   6.010   6.474   2.936
11009TIP3    H132970   6.103   6.457   2.953
11009TIP3    H232971   6.005   6.568   2.921
11010TIP3   OH232972   6.142   5.296   3.757
11010TIP3    H132973   6.225   5.319   3.714
11010TIP3    H232974   6.095   5.379   3.763
11011TIP3   OH232975   4.656   1.523   2.141
11011TIP3    H132976   4.578   1.539   2.088
11011TIP3    H232977   4.622   1.503   2.229
11012TIP3   OH232978   3.423   2.335   2.722
11012TIP3    H132979   3.429   2.419   2.767
11012TIP3    H232980   3.455   2.352   2.634
11013TIP3   OH232981   7.277   6.895   5.051
11013TIP3    H132982   7.365   6.891   5.015
11013TIP3    H232983   7.245   6.982   5.025
11014TIP3   OH232984   4.049   1.450   0.636
11014TIP3    H132985   3.977   1.447   0.699
11014TIP3    H232986   4.102   1.373   0.656
11015TIP3   OH232987   3.086   2.604   4.091
11015TIP3    H132988   3.126   2.518   4.097
11015TIP3    H232989   3.141   2.651   4.028
11016TIP3   OH232990   5.019   6.590   4.069
11016TIP3    H132991   4.948   6.565   4.129
11016TIP3    H232992   5.098   6.556   4.111
11017TIP3   OH232993   1.969   1.682   2.760
11017TIP3    H132994   1.925   1.767   2.763
11017TIP3    H232995   2.061   1.702   2.746
11018TIP3   OH232996   0.345   6.486   5.921
11018TIP3    H132997   0.296   6.562   5.952
11018TIP3    H232998   0.382   6.447   6.001
11019TIP3   OH232999   8.180   6.131   4.323
11019TIP3    H133000   8.137   6.129   4.408
11019TIP3    H233001   8.260   6.081   4.335
11020TIP3   OH233002   2.806   1.690   2.716
11020TIP3    H133003   2.821   1.717   2.807
11020TIP3    H233004   2.713   1.666   2.714
11021TIP3   OH233005   5.825   6.737   4.876
11021TIP3    H133006   5.914   6.770   4.863
11021TIP3    H233007   5.837   6.654   4.923
11022TIP3   OH233008   4.054   6.737   5.348
11022TIP3    H133009   4.044   6.657   5.297
11022TIP3    H233010   3.966   6.776   5.349
11023TIP3   OH233011   5.208   3.545   1.197
11023TIP3    H133012   5.223   3.632   1.159
11023TIP3    H233013   5.233   3.555   1.289
11024TIP3   OH233014   7.192   3.174   2.082
11024TIP3    H133015   7.260   3.204   2.142
11024TIP3    H233016   7.143   3.253   2.059
11025TIP3   OH233017   4.375   6.798   5.187
11025TIP3    H133018   4.405   6.707   5.180
11025TIP3    H233019   4.446   6.849   5.148
11026TIP3   OH233020   3.334   1.106   3.878
11026TIP3    H133021   3.246   1.086   3.910
11026TIP3    H233022   3.320   1.140   3.789
11027TIP3   OH233023   7.921   6.652   3.672
11027TIP3    H133024   7.928   6.705   3.752
11027TIP3    H233025   7.833   6.671   3.638
11028TIP3   OH233026   0.763   7.195   3.387
11028TIP3    H133027   0.750   7.223   3.296
11028TIP3    H233028   0.832   7.252   3.420
11029TIP3   OH233029   6.169   7.287   2.169
11029TIP3    H133030   6.113   7.316   2.097
11029TIP3    H233031   6.252   7.264   2.127
11030TIP3   OH233032   7.106   4.180   4.508
11030TIP3    H133033   7.197   4.190   4.481
11030TIP3    H233034   7.059   4.250   4.461
11031TIP3   OH233035   7.319   5.883   2.499
11031TIP3    H133036   7.355   5.861   2.585
11031TIP3    H233037   7.263   5.809   2.477
11032TIP3   OH233038   0.391   6.078   0.501
11032TIP3    H133039   0.371   6.145   0.436
11032TIP3    H233040   0.463   6.115   0.552
11033TIP3   OH233041   6.132   0.930   6.436
11033TIP3    H133042   6.135   1.002   6.499
11033TIP3    H233043   6.197   0.954   6.369
11034TIP3   OH233044   7.445   0.328   4.458
11034TIP3    H133045   7.421   0.242   4.492
11034TIP3    H233046   7.533   0.315   4.421
11035TIP3   OH233047   4.222   1.383   3.856
11035TIP3    H133048   4.137   1.372   3.811
11035TIP3    H233049   4.285   1.390   3.785
11036TIP3   OH233050   2.734   6.540   2.156
11036TIP3    H133051   2.725   6.635   2.149
11036TIP3    H233052   2.654   6.511   2.200
11037TIP3   OH233053   0.319   4.078   1.360
11037TIP3    H133054   0.262   4.144   1.399
11037TIP3    H233055   0.337   4.111   1.272
11038TIP3   OH233056   0.531   0.587   5.231
11038TIP3    H133057   0.583   0.526   5.285
11038TIP3    H233058   0.562   0.572   5.142
11039TIP3   OH233059   0.971   2.898   5.466
11039TIP3    H133060   1.030   2.942   5.404
11039TIP3    H233061   0.985   2.805   5.451
11040TIP3   OH233062   2.688   6.653   0.069
11040TIP3    H133063   2.755   6.720   0.059
11040TIP3    H233064   2.613   6.685   0.019
11041TIP3   OH233065   3.384   3.295   4.990
11041TIP3    H133066   3.314   3.305   4.925
11041TIP3    H233067   3.434   3.219   4.959
11042TIP3   OH233068   4.430   5.649   4.127
11042TIP3    H133069   4.475   5.635   4.210
11042TIP3    H233070   4.394   5.738   4.133
11043TIP3   OH233071   6.257   1.418   1.129
11043TIP3    H133072   6.294   1.506   1.138
11043TIP3    H233073   6.323   1.369   1.080
11044TIP3   OH233074   7.013   1.307   1.040
11044TIP3    H133075   6.992   1.321   1.132
11044TIP3    H233076   7.095   1.356   1.027
11045TIP3   OH233077   1.789   2.491   3.432
11045TIP3    H133078   1.773   2.446   3.349
11045TIP3    H233079   1.702   2.506   3.469
11046TIP3   OH233080   3.767   4.201   5.071
11046TIP3    H133081   3.728   4.136   5.013
11046TIP3    H233082   3.769   4.282   5.020
11047TIP3   OH233083   2.225   4.668   5.919
11047TIP3    H133084   2.180   4.703   5.842
11047TIP3    H233085   2.230   4.742   5.980
11048TIP3   OH233086   8.021   1.090   0.631
11048TIP3    H133087   8.054   1.170   0.672
11048TIP3    H233088   8.084   1.023   0.656
11049TIP3   OH233089   7.442   2.149   3.146
11049TIP3    H133090   7.471   2.240   3.141
11049TIP3    H233091   7.402   2.142   3.233
11050TIP3   OH233092   6.349   1.649   0.413
11050TIP3    H133093   6.429   1.673   0.366
11050TIP3    H233094   6.336   1.721   0.475
11051TIP3   OH233095   6.515   3.646   4.030
11051TIP3    H133096   6.554   3.716   3.979
11051TIP3    H233097   6.589   3.605   4.075
11052TIP3   OH233098   7.320   4.813   1.245
11052TIP3    H133099   7.362   4.828   1.329
11052TIP3    H233100   7.365   4.737   1.209
11053TIP3   OH233101   0.824   5.083   3.792
11053TIP3    H133102   0.762   5.144   3.751
11053TIP3    H233103   0.891   5.140   3.831
11054TIP3   OH233104   3.517   5.341   5.591
11054TIP3    H133105   3.593   5.360   5.647
11054TIP3    H233106   3.516   5.246   5.584
11055TIP3   OH233107   3.674   3.071   5.667
11055TIP3    H133108   3.636   3.077   5.755
11055TIP3    H233109   3.725   3.152   5.658
11056TIP3   OH233110   8.250   0.925   5.465
11056TIP3    H133111   8.304   0.858   5.508
11056TIP3    H233112   8.270   1.005   5.514
11057TIP3   OH233113   1.968   1.669   6.602
11057TIP3    H133114   1.917   1.746   6.581
11057TIP3    H233115   1.910   1.595   6.582
11058TIP3   OH233116   0.263   6.607   6.328
11058TIP3    H133117   0.357   6.598   6.339
11058TIP3    H233118   0.233   6.654   6.406
11059TIP3   OH233119   4.989   2.986   3.961
11059TIP3    H133120   4.901   2.949   3.969
11059TIP3    H233121   5.024   2.949   3.880
11060TIP3   OH233122   1.170   2.050   1.314
11060TIP3    H133123   1.133   2.138   1.304
11060TIP3    H233124   1.094   1.992   1.315
11061TIP3   OH233125   4.371   4.906   1.182
11061TIP3    H133126   4.362   4.992   1.222
11061TIP3    H233127   4.433   4.860   1.239
11062TIP3   OH233128   7.765   7.634   6.474
11062TIP3    H133129   7.674   7.605   6.462
11062TIP3    H233130   7.816   7.553   6.472
11063TIP3   OH233131   4.807   6.544   1.773
11063TIP3    H133132   4.742   6.612   1.790
11063TIP3    H233133   4.844   6.524   1.859
11064TIP3   OH233134   2.014   6.101   4.394
11064TIP3    H133135   2.041   6.070   4.480
11064TIP3    H233136   2.095   6.105   4.343
11065TIP3   OH233137   5.052   4.058   4.960
11065TIP3    H133138   4.999   4.063   4.881
11065TIP3    H233139   5.000   4.104   5.026
11066TIP3   OH233140   7.101   7.535   2.805
11066TIP3    H133141   7.132   7.446   2.821
11066TIP3    H233142   7.006   7.528   2.804
11067TIP3   OH233143   4.811   3.602   4.269
11067TIP3    H133144   4.801   3.570   4.359
11067TIP3    H233145   4.874   3.543   4.229
11068TIP3   OH233146   2.918   1.490   3.177
11068TIP3    H133147   2.983   1.497   3.106
11068TIP3    H233148   2.944   1.558   3.239
11069TIP3   OH233149   2.791   4.635   1.537
11069TIP3    H133150   2.763   4.559   1.589
11069TIP3    H233151   2.715   4.693   1.537
11070TIP3   OH233152   7.843   7.346   2.537
11070TIP3    H133153   7.883   7.330   2.622
11070TIP3    H233154   7.890   7.421   2.501
11071TIP3   OH233155   1.863   1.785   3.271
11071TIP3    H133156   1.811   1.749   3.343
11071TIP3    H233157   1.843   1.728   3.197
11072TIP3   OH233158   7.761   1.252   6.038
11072TIP3    H133159   7.795   1.333   6.077
11072TIP3    H233160   7.671   1.274   6.012
11073TIP3   OH233161   2.314   4.706   5.242
11073TIP3    H133162   2.292   4.644   5.171
11073TIP3    H233163   2.394   4.749   5.212
11074TIP3   OH233164   6.010   3.830   1.144
11074TIP3    H133165   6.051   3.837   1.230
11074TIP3    H233166   5.916   3.836   1.162
11075TIP3   OH233167   6.357   5.179   5.951
11075TIP3    H133168   6.417   5.199   5.878
11075TIP3    H233169   6.279   5.231   5.933
11076TIP3   OH233170   2.654   1.902   1.512
11076TIP3    H133171   2.713   1.839   1.471
11076TIP3    H233172   2.697   1.986   1.499
11077TIP3   OH233173   7.309   7.381   1.147
11077TIP3    H133174   7.268   7.312   1.095
11077TIP3    H233175   7.271   7.462   1.114
11078TIP3   OH233176   2.748   5.874   2.293
11078TIP3    H133177   2.742   5.779   2.285
11078TIP3    H233178   2.716   5.893   2.381
11079TIP3   OH233179   5.968   6.525   2.500
11079TIP3    H133180   5.937   6.594   2.441
11079TIP3    H233181   6.037   6.567   2.552
11080TIP3   OH233182   4.844   7.629   2.839
11080TIP3    H133183   4.794   7.708   2.857
11080TIP3    H233184   4.820   7.605   2.749
11081TIP3   OH233185   6.045   6.422   3.789
11081TIP3    H133186   6.005   6.339   3.764
11081TIP3    H233187   5.982   6.488   3.762
11082TIP3   OH233188   1.821   5.983   2.039
11082TIP3    H133189   1.783   5.902   2.074
11082TIP3    H233190   1.872   5.955   1.963
11083TIP3   OH233191   5.584   4.600   6.379
11083TIP3    H133192   5.544   4.625   6.296
11083TIP3    H233193   5.594   4.682   6.428
11084TIP3   OH233194   3.472   7.797   5.218
11084TIP3    H133195   3.422   7.721   5.248
11084TIP3    H233196   3.410   7.870   5.221
11085TIP3   OH233197   1.849   5.012   5.694
11085TIP3    H133198   1.815   5.085   5.642
11085TIP3    H233199   1.781   4.995   5.759
11086TIP3   OH233200   1.429   1.572   1.107
11086TIP3    H133201   1.345   1.529   1.126
11086TIP3    H233202   1.488   1.501   1.082
11087TIP3   OH233203   7.057   7.655   1.265
11087TIP3    H133204   7.089   7.599   1.193
11087TIP3    H233205   7.013   7.594   1.324
11088TIP3   OH233206   5.366   6.874   4.490
11088TIP3    H133207   5.364   6.814   4.564
11088TIP3    H233208   5.276   6.906   4.482
11089TIP3   OH233209   5.549   3.862   5.703
11089TIP3    H133210   5.462   3.849   5.740
11089TIP3    H233211   5.607   3.810   5.759
11090TIP3   OH233212   2.652   7.814   6.218
11090TIP3    H133213   2.715   7.843   6.285
11090TIP3    H233214   2.622   7.894   6.177
11091TIP3   OH233215   2.808   0.601   2.712
11091TIP3    H133216   2.878   0.540   2.734
11091TIP3    H233217   2.808   0.664   2.784
11092TIP3   OH233218   5.905   1.684   1.941
11092TIP3    H133219   5.902   1.616   2.009
11092TIP3    H233220   5.999   1.697   1.924
11093TIP3   OH233221   4.266   2.596   5.464
11093TIP3    H133222   4.191   2.536   5.454
11093TIP3    H233223   4.319   2.580   5.386
11094TIP3   OH233224   2.683   5.666   6.345
11094TIP3    H133225   2.725   5.659   6.259
11094TIP3    H233226   2.679   5.576   6.377
11095TIP3   OH233227   3.173   7.789   2.445
11095TIP3    H133228   3.125   7.713   2.411
11095TIP3    H233229   3.108   7.837   2.497
11096TIP3   OH233230   3.540   0.240   2.926
11096TIP3    H133231   3.569   0.234   3.017
11096TIP3    H233232   3.613   0.282   2.881
11097TIP3   OH233233   2.231   7.698   4.104
11097TIP3    H133234   2.312   7.673   4.059
11097TIP3    H233235   2.163   7.645   4.062
11098TIP3   OH233236   3.166   2.341   1.324
11098TIP3    H133237   3.084   2.344   1.276
11098TIP3    H233238   3.205   2.427   1.308
11099TIP3   OH233239   5.628   3.015   0.224
11099TIP3    H133240   5.583   2.980   0.147
11099TIP3    H233241   5.585   3.099   0.240
11100TIP3   OH233242   5.986   7.786   4.263
11100TIP3    H133243   5.976   7.698   4.298
11100TIP3    H233244   6.033   7.834   4.331
11101TIP3   OH233245   8.142   1.235   5.397
11101TIP3    H133246   8.200   1.180   5.343
11101TIP3    H233247   8.054   1.213   5.367
11102TIP3   OH233248   0.859   3.008   2.178
11102TIP3    H133249   0.857   3.103   2.186
11102TIP3    H233250   0.848   2.976   2.267
11103TIP3   OH233251   4.119   1.226   2.657
11103TIP3    H133252   4.112   1.246   2.564
11103TIP3    H233253   4.176   1.149   2.661
11104TIP3   OH233254   1.379   3.246   2.704
11104TIP3    H133255   1.354   3.293   2.783
11104TIP3    H233256   1.340   3.160   2.713
11105TIP3   OH233257   2.610   1.598   2.312
11105TIP3    H133258   2.553   1.523   2.328
11105TIP3    H233259   2.581   1.664   2.375
11106TIP3   OH233260   0.478   5.045   3.188
11106TIP3    H133261   0.411   4.977   3.190
11106TIP3    H233262   0.530   5.030   3.267
11107TIP3   OH233263   3.344   0.689   2.886
11107TIP3    H133264   3.292   0.667   2.808
11107TIP3    H233265   3.361   0.783   2.878
11108TIP3   OH233266   2.462   7.527   1.280
11108TIP3    H133267   2.473   7.535   1.186
11108TIP3    H233268   2.520   7.593   1.318
11109TIP3   OH233269   5.669   2.268   3.815
11109TIP3    H133270   5.679   2.276   3.720
11109TIP3    H233271   5.731   2.200   3.841
11110TIP3   OH233272   3.732   4.702   2.517
11110TIP3    H133273   3.773   4.700   2.430
11110TIP3    H233274   3.658   4.642   2.510
11111TIP3   OH233275   7.721   1.114   6.320
11111TIP3    H133276   7.788   1.169   6.280
11111TIP3    H233277   7.729   1.131   6.414
11112TIP3   OH233278   4.179   7.824   3.271
11112TIP3    H133279   4.102   7.863   3.314
11112TIP3    H233280   4.162   7.730   3.273
11113TIP3   OH233281   7.451   0.493   0.394
11113TIP3    H133282   7.547   0.495   0.392
11113TIP3    H233283   7.424   0.552   0.324
11114TIP3   OH233284   0.775   3.394   5.162
11114TIP3    H133285   0.826   3.315   5.145
11114TIP3    H233286   0.686   3.372   5.135
11115TIP3   OH233287   5.751   7.009   1.023
11115TIP3    H133288   5.699   7.058   1.087
11115TIP3    H233289   5.719   6.919   1.029
11116TIP3   OH233290   1.110   2.920   3.667
11116TIP3    H133291   1.069   2.986   3.611
11116TIP3    H233292   1.183   2.967   3.709
11117TIP3   OH233293   3.992   6.449   3.330
11117TIP3    H133294   3.992   6.515   3.261
11117TIP3    H233295   4.006   6.366   3.283
11118TIP3   OH233296   1.507   2.138   5.700
11118TIP3    H133297   1.598   2.164   5.710
11118TIP3    H233298   1.459   2.221   5.692
11119TIP3   OH233299   6.822   2.094   2.250
11119TIP3    H133300   6.864   2.009   2.238
11119TIP3    H233301   6.732   2.082   2.219
11120TIP3   OH233302   2.693   7.466   2.053
11120TIP3    H133303   2.702   7.394   2.117
11120TIP3    H233304   2.706   7.424   1.968
11121TIP3   OH233305   4.296   6.738   2.820
11121TIP3    H133306   4.240   6.812   2.795
11121TIP3    H233307   4.366   6.738   2.755
11122TIP3   OH233308   6.184   3.867   4.527
11122TIP3    H133309   6.175   3.797   4.592
11122TIP3    H233310   6.154   3.946   4.572
11123TIP3   OH233311   8.034   0.767   3.853
11123TIP3    H133312   8.001   0.679   3.837
11123TIP3    H233313   7.959   0.816   3.886
11124TIP3   OH233314   1.460   3.446   1.083
11124TIP3    H133315   1.405   3.440   1.161
11124TIP3    H233316   1.493   3.357   1.070
11125TIP3   OH233317   5.095   2.578   5.364
11125TIP3    H133318   5.009   2.620   5.357
11125TIP3    H233319   5.153   2.633   5.310
11126TIP3   OH233320   0.324   2.100   0.518
11126TIP3    H133321   0.324   2.179   0.465
11126TIP3    H233322   0.294   2.129   0.605
11127TIP3   OH233323   1.530   5.716   3.945
11127TIP3    H133324   1.461   5.726   4.010
11127TIP3    H233325   1.561   5.626   3.956
11128TIP3   OH233326   1.178   2.781   5.276
11128TIP3    H133327   1.182   2.828   5.193
11128TIP3    H233328   1.257   2.727   5.277
11129TIP3   OH233329   3.433   7.809   2.350
11129TIP3    H133330   3.413   7.879   2.288
11129TIP3    H233331   3.348   7.786   2.388
11130TIP3   OH233332   2.740   0.688   4.881
11130TIP3    H133333   2.772   0.620   4.821
11130TIP3    H233334   2.818   0.739   4.903
11131TIP3   OH233335   3.305   5.691   3.455
11131TIP3    H133336   3.391   5.653   3.433
11131TIP3    H233337   3.242   5.630   3.416
11132TIP3   OH233338   2.111   5.179   1.464
11132TIP3    H133339   2.070   5.174   1.550
11132TIP3    H233340   2.046   5.222   1.409
11133TIP3   OH233341   0.632   6.744   0.545
11133TIP3    H133342   0.603   6.825   0.587
11133TIP3    H233343   0.556   6.713   0.496
11134TIP3   OH233344   3.378   2.629   6.392
11134TIP3    H133345   3.460   2.594   6.358
11134TIP3    H233346   3.339   2.676   6.318
11135TIP3   OH233347   1.618   3.672   3.299
11135TIP3    H133348   1.663   3.592   3.273
11135TIP3    H233349   1.646   3.737   3.235
11136TIP3   OH233350   7.565   6.907   3.696
11136TIP3    H133351   7.634   6.947   3.749
11136TIP3    H233352   7.580   6.813   3.706
11137TIP3   OH233353   6.871   7.587   5.569
11137TIP3    H133354   6.852   7.502   5.609
11137TIP3    H233355   6.786   7.631   5.564
11138TIP3   OH233356   4.461   5.367   0.739
11138TIP3    H133357   4.509   5.296   0.696
11138TIP3    H233358   4.453   5.435   0.671
11139TIP3   OH233359   5.034   6.059   3.497
11139TIP3    H133360   4.996   5.994   3.556
11139TIP3    H233361   5.063   6.130   3.554
11140TIP3   OH233362   0.180   7.654   2.029
11140TIP3    H133363   0.200   7.601   1.951
11140TIP3    H233364   0.154   7.590   2.095
11141TIP3   OH233365   2.586   7.563   6.631
11141TIP3    H133366   2.622   7.557   6.720
11141TIP3    H233367   2.662   7.567   6.574
11142TIP3   OH233368   6.781   4.112   2.740
11142TIP3    H133369   6.809   4.166   2.666
11142TIP3    H233370   6.686   4.127   2.746
11143TIP3   OH233371   8.051   2.651   6.229
11143TIP3    H133372   8.035   2.669   6.322
11143TIP3    H233373   7.990   2.708   6.183
11144TIP3   OH233374   0.208   4.294   1.497
11144TIP3    H133375   0.114   4.279   1.507
11144TIP3    H233376   0.242   4.298   1.587
11145TIP3   OH233377   6.996   6.427   3.508
11145TIP3    H133378   6.936   6.357   3.534
11145TIP3    H233379   7.014   6.410   3.416
11146TIP3   OH233380   7.066   5.305   1.468
11146TIP3    H133381   7.157   5.302   1.496
11146TIP3    H233382   7.025   5.229   1.510
11147TIP3   OH233383   6.251   6.805   4.344
11147TIP3    H133384   6.279   6.892   4.319
11147TIP3    H233385   6.178   6.785   4.286
11148TIP3   OH233386   5.044   7.549   5.639
11148TIP3    H133387   4.987   7.485   5.596
11148TIP3    H233388   4.986   7.602   5.693
11149TIP3   OH233389   7.136   5.388   4.132
11149TIP3    H133390   7.110   5.401   4.223
11149TIP3    H233391   7.171   5.299   4.130
11150TIP3   OH233392   7.518   5.199   4.889
11150TIP3    H133393   7.593   5.259   4.885
11150TIP3    H233394   7.510   5.163   4.801
11151TIP3   OH233395   0.466   6.615   0.380
11151TIP3    H133396   0.407   6.667   0.326
11151TIP3    H233397   0.426   6.528   0.383
11152TIP3   OH233398   1.045   2.299   5.550
11152TIP3    H133399   1.073   2.335   5.634
11152TIP3    H233400   1.084   2.358   5.485
11153TIP3   OH233401   8.065   5.869   3.176
11153TIP3    H133402   8.084   5.955   3.213
11153TIP3    H233403   7.983   5.843   3.217
11154TIP3   OH233404   3.251   0.572   3.819
11154TIP3    H133405   3.265   0.666   3.819
11154TIP3    H233406   3.336   0.534   3.797
11155TIP3   OH233407   6.708   6.651   6.631
11155TIP3    H133408   6.713   6.697   6.547
11155TIP3    H233409   6.702   6.559   6.608
11156TIP3   OH233410   1.723   7.053   0.034
11156TIP3    H133411   1.812   7.076   0.007
11156TIP3    H233412   1.718   6.958   0.024
11157TIP3   OH233413   5.943   4.649   2.177
11157TIP3    H133414   6.027   4.616   2.210
11157TIP3    H233415   5.967   4.710   2.107
11158TIP3   OH233416   4.752   2.623   4.705
11158TIP3    H133417   4.663   2.648   4.677
11158TIP3    H233418   4.740   2.539   4.750
11159TIP3   OH233419   0.954   4.652   5.682
11159TIP3    H133420   0.886   4.679   5.620
11159TIP3    H233421   0.907   4.634   5.763
11160TIP3   OH233422   3.920   3.709   2.974
11160TIP3    H133423   3.904   3.768   3.047
11160TIP3    H233424   4.007   3.733   2.942
11161TIP3   OH233425   6.433   1.985   5.048
11161TIP3    H133426   6.366   1.933   5.003
11161TIP3    H233427   6.493   2.011   4.978
11162TIP3   OH233428   3.822   7.595   5.900
11162TIP3    H133429   3.841   7.540   5.824
11162TIP3    H233430   3.904   7.641   5.917
11163TIP3   OH233431   2.872   4.062   3.846
11163TIP3    H133432   2.799   4.111   3.884
11163TIP3    H233433   2.884   3.987   3.904
11164TIP3   OH233434   1.807   4.946   5.973
11164TIP3    H133435   1.811   4.875   6.036
11164TIP3    H233436   1.750   5.011   6.014
11165TIP3   OH233437   7.168   1.267   2.661
11165TIP3    H133438   7.167   1.362   2.645
11165TIP3    H233439   7.177   1.259   2.756
11166TIP3   OH233440   4.229   5.051   0.467
11166TIP3    H133441   4.164   4.994   0.425
11166TIP3    H233442   4.198   5.140   0.448
11167TIP3   OH233443   4.630   3.165   5.655
11167TIP3    H133444   4.610   3.170   5.748
11167TIP3    H233445   4.546   3.150   5.613
11168TIP3   OH233446   6.894   5.154   2.918
11168TIP3    H133447   6.841   5.230   2.895
11168TIP3    H233448   6.980   5.190   2.938
11169TIP3   OH233449   0.626   1.876   2.881
11169TIP3    H133450   0.669   1.792   2.898
11169TIP3    H233451   0.564   1.887   2.953
11170TIP3   OH233452   6.843   1.472   2.229
11170TIP3    H133453   6.930   1.493   2.264
11170TIP3    H233454   6.848   1.378   2.209
11171TIP3   OH233455   4.436   7.710   4.096
11171TIP3    H133456   4.375   7.711   4.022
11171TIP3    H233457   4.511   7.660   4.065
11172TIP3   OH233458   6.294   3.138   2.187
11172TIP3    H133459   6.249   3.129   2.271
11172TIP3    H233460   6.237   3.094   2.125
11173TIP3   OH233461   2.034   5.425   0.015
11173TIP3    H133462   2.065   5.387   0.097
11173TIP3    H233463   2.012   5.516   0.036
11174TIP3   OH233464   4.640   6.713   5.820
11174TIP3    H133465   4.559   6.661   5.823
11174TIP3    H233466   4.634   6.762   5.738
11175TIP3   OH233467   2.142   7.146   3.169
11175TIP3    H133468   2.112   7.098   3.092
11175TIP3    H233469   2.163   7.233   3.136
11176TIP3   OH233470   0.508   5.004   0.816
11176TIP3    H133471   0.487   4.992   0.908
11176TIP3    H233472   0.529   5.098   0.809
11177TIP3   OH233473   6.298   0.841   5.474
11177TIP3    H133474   6.363   0.878   5.535
11177TIP3    H233475   6.308   0.894   5.395
11178TIP3   OH233476   4.532   7.350   3.916
11178TIP3    H133477   4.590   7.413   3.959
11178TIP3    H233478   4.587   7.305   3.852
11179TIP3   OH233479   4.082   2.318   3.218
11179TIP3    H133480   4.031   2.264   3.277
11179TIP3    H233481   4.160   2.341   3.268
11180TIP3   OH233482   7.621   4.107   6.501
11180TIP3    H133483   7.634   4.090   6.408
11180TIP3    H233484   7.526   4.113   6.511
11181TIP3   OH233485   4.286   2.685   4.496
11181TIP3    H133486   4.216   2.690   4.561
11181TIP3    H233487   4.240   2.682   4.412
11182TIP3   OH233488   1.011   3.178   0.446
11182TIP3    H133489   0.951   3.236   0.398
11182TIP3    H233490   1.070   3.145   0.379
11183TIP3   OH233491   7.916   3.626   1.063
11183TIP3    H133492   7.881   3.670   0.986
11183TIP3    H233493   7.841   3.579   1.100
11184TIP3   OH233494   3.974   5.012   2.674
11184TIP3    H133495   4.069   5.021   2.684
11184TIP3    H233496   3.963   4.948   2.604
11185TIP3   OH233497   1.207   6.915   5.813
11185TIP3    H133498   1.180   6.982   5.876
11185TIP3    H233499   1.302   6.915   5.818
11186TIP3   OH233500   4.141   3.568   6.169
11186TIP3    H133501   4.225   3.570   6.124
11186TIP3    H233502   4.110   3.478   6.159
11187TIP3   OH233503   2.630   2.690   5.269
11187TIP3    H133504   2.702   2.630   5.289
11187TIP3    H233505   2.566   2.637   5.222
11188TIP3   OH233506   4.199   6.443   5.895
11188TIP3    H133507   4.125   6.468   5.950
11188TIP3    H233508   4.173   6.465   5.806
11189TIP3   OH233509   4.466   6.816   3.769
11189TIP3    H133510   4.550   6.771   3.781
11189TIP3    H233511   4.406   6.747   3.743
11190TIP3   OH233512   6.497   2.349   5.328
11190TIP3    H133513   6.411   2.311   5.311
11190TIP3    H233514   6.555   2.274   5.343
11191TIP3   OH233515   3.006   6.691   6.329
11191TIP3    H133516   3.045   6.717   6.245
11191TIP3    H233517   2.981   6.599   6.316
11192TIP3   OH233518   3.108   5.178   4.120
11192TIP3    H133519   3.107   5.114   4.192
11192TIP3    H233520   3.064   5.255   4.156
11193TIP3   OH233521   3.675   6.437   4.651
11193TIP3    H133522   3.770   6.436   4.651
11193TIP3    H233523   3.651   6.528   4.669
11194TIP3   OH233524   3.644   6.311   3.560
11194TIP3    H133525   3.589   6.274   3.492
11194TIP3    H233526   3.583   6.331   3.632
11195TIP3   OH233527   4.824   2.668   2.385
11195TIP3    H133528   4.790   2.669   2.474
11195TIP3    H233529   4.897   2.606   2.388
11196TIP3   OH233530   6.199   0.061   3.355
11196TIP3    H133531   6.244  -0.018   3.324
11196TIP3    H233532   6.240   0.132   3.306
11197TIP3   OH233533   6.617   1.326   4.754
11197TIP3    H133534   6.689   1.305   4.695
11197TIP3    H233535   6.607   1.421   4.748
11198TIP3   OH233536   4.293   1.557   4.974
11198TIP3    H133537   4.200   1.574   4.987
11198TIP3    H233538   4.296   1.492   4.904
11199TIP3   OH233539   2.326   1.517   0.574
11199TIP3    H133540   2.302   1.599   0.616
11199TIP3    H233541   2.373   1.468   0.643
11200TIP3   OH233542   7.562   5.184   2.883
11200TIP3    H133543   7.554   5.105   2.829
11200TIP3    H233544   7.485   5.182   2.940
11201TIP3   OH233545   5.887   6.859   6.048
11201TIP3    H133546   5.975   6.874   6.013
11201TIP3    H233547   5.897   6.871   6.143
11202TIP3   OH233548   7.300   1.307   1.664
11202TIP3    H133549   7.265   1.388   1.701
11202TIP3    H233550   7.243   1.286   1.591
11203TIP3   OH233551   6.100   1.429   3.027
11203TIP3    H133552   6.074   1.456   3.115
11203TIP3    H233553   6.194   1.414   3.033
11204TIP3   OH233554   6.824   2.492   6.393
11204TIP3    H133555   6.816   2.586   6.409
11204TIP3    H233556   6.919   2.476   6.389
11205TIP3   OH233557   3.321   0.527   4.421
11205TIP3    H133558   3.322   0.523   4.325
11205TIP3    H233559   3.245   0.581   4.442
11206TIP3   OH233560   2.776   6.381   4.411
11206TIP3    H133561   2.839   6.310   4.426
11206TIP3    H233562   2.693   6.335   4.392
11207TIP3   OH233563   4.481   4.694   1.931
11207TIP3    H133564   4.395   4.732   1.913
11207TIP3    H233565   4.542   4.743   1.876
11208TIP3   OH233566   0.686   4.300   1.551
11208TIP3    H133567   0.647   4.384   1.576
11208TIP3    H233568   0.697   4.254   1.634
11209TIP3   OH233569   0.819   4.421   3.291
11209TIP3    H133570   0.865   4.393   3.212
11209TIP3    H233571   0.730   4.387   3.280
11210TIP3   OH233572   1.411   2.843   0.437
11210TIP3    H133573   1.476   2.790   0.484
11210TIP3    H233574   1.331   2.790   0.440
11211TIP3   OH233575   2.598   6.162   4.408
11211TIP3    H133576   2.643   6.097   4.354
11211TIP3    H233577   2.610   6.131   4.498
11212TIP3   OH233578   2.446   5.886   3.160
11212TIP3    H133579   2.402   5.948   3.219
11212TIP3    H233580   2.454   5.934   3.078
11213TIP3   OH233581   2.326   4.248   3.755
11213TIP3    H133582   2.398   4.203   3.712
11213TIP3    H233583   2.265   4.179   3.778
11214TIP3   OH233584   7.811   6.480   5.319
11214TIP3    H133585   7.747   6.515   5.381
11214TIP3    H233586   7.884   6.451   5.373
11215TIP3   OH233587   3.665   2.636   4.000
11215TIP3    H133588   3.608   2.590   3.938
11215TIP3    H233589   3.657   2.585   4.081
11216TIP3   OH233590   7.203   2.176   3.353
11216TIP3    H133591   7.173   2.265   3.336
11216TIP3    H233592   7.141   2.121   3.304
11217TIP3   OH233593   7.824   0.152   1.821
11217TIP3    H133594   7.772   0.210   1.767
11217TIP3    H233595   7.884   0.109   1.760
11218TIP3   OH233596   7.024   1.326   5.597
11218TIP3    H133597   7.004   1.362   5.684
11218TIP3    H233598   7.115   1.296   5.604
11219TIP3   OH233599   2.149   4.321   4.741
11219TIP3    H133600   2.062   4.292   4.768
11219TIP3    H233601   2.138   4.347   4.649
11220TIP3   OH233602   3.973   1.490   2.174
11220TIP3    H133603   3.962   1.443   2.092
11220TIP3    H233604   3.889   1.533   2.190
11221TIP3   OH233605   5.053   5.686   1.111
11221TIP3    H133606   5.126   5.626   1.095
11221TIP3    H233607   5.013   5.699   1.025
11222TIP3   OH233608   2.907   0.785   2.368
11222TIP3    H133609   2.959   0.715   2.410
11222TIP3    H233610   2.828   0.741   2.338
11223TIP3   OH233611   4.551   0.959   6.497
11223TIP3    H133612   4.611   0.891   6.529
11223TIP3    H233613   4.522   0.927   6.411
11224TIP3   OH233614   6.808   3.499   6.619
11224TIP3    H133615   6.886   3.530   6.573
11224TIP3    H233616   6.780   3.423   6.567
11225TIP3   OH233617   2.184   1.155   0.754
11225TIP3    H133618   2.135   1.202   0.822
11225TIP3    H233619   2.154   1.064   0.761
11226TIP3   OH233620   8.188   4.215   1.230
11226TIP3    H133621   8.237   4.287   1.268
11226TIP3    H233622   8.254   4.161   1.187
11227TIP3   OH233623   4.569   1.551   0.588
11227TIP3    H133624   4.560   1.462   0.554
11227TIP3    H233625   4.492   1.563   0.645
11228TIP3   OH233626   3.254   2.439   1.589
11228TIP3    H133627   3.308   2.515   1.568
11228TIP3    H233628   3.233   2.401   1.503
11229TIP3   OH233629   5.498   7.463   3.026
11229TIP3    H133630   5.440   7.524   3.071
11229TIP3    H233631   5.583   7.478   3.066
11230TIP3   OH233632   0.983   6.784   2.994
11230TIP3    H133633   1.014   6.860   3.043
11230TIP3    H233634   1.015   6.709   3.043
11231TIP3   OH233635   2.683   2.753   2.551
11231TIP3    H133636   2.684   2.692   2.478
11231TIP3    H233637   2.729   2.830   2.518
11232TIP3   OH233638   5.339   4.774   4.932
11232TIP3    H133639   5.344   4.684   4.963
11232TIP3    H233640   5.337   4.827   5.011
11233TIP3   OH233641   4.351   0.164   1.969
11233TIP3    H133642   4.408   0.120   1.906
11233TIP3    H233643   4.399   0.159   2.052
11234TIP3   OH233644   6.766   7.375   5.183
11234TIP3    H133645   6.759   7.404   5.092
11234TIP3    H233646   6.697   7.422   5.229
11235TIP3   OH233647   6.510   0.459   1.215
11235TIP3    H133648   6.447   0.511   1.165
11235TIP3    H233649   6.594   0.501   1.198
11236TIP3   OH233650   6.508   1.198   2.958
11236TIP3    H133651   6.533   1.164   2.872
11236TIP3    H233652   6.547   1.137   3.021
11237TIP3   OH233653   0.929   2.729   2.760
11237TIP3    H133654   1.009   2.782   2.765
11237TIP3    H233655   0.879   2.770   2.689
11238TIP3   OH233656   0.656   1.484   4.085
11238TIP3    H133657   0.719   1.412   4.092
11238TIP3    H233658   0.595   1.455   4.017
11239TIP3   OH233659   7.031   7.558   0.552
11239TIP3    H133660   7.073   7.623   0.609
11239TIP3    H233661   6.944   7.546   0.591
11240TIP3   OH233662   2.002   4.478   5.554
11240TIP3    H133663   1.963   4.510   5.473
11240TIP3    H233664   2.083   4.527   5.563
11241TIP3   OH233665   5.443   4.594   1.449
11241TIP3    H133666   5.413   4.653   1.518
11241TIP3    H233667   5.381   4.608   1.378
11242TIP3   OH233668   7.080   1.900   6.139
11242TIP3    H133669   7.152   1.868   6.193
11242TIP3    H233670   7.055   1.824   6.086
11243TIP3   OH233671   5.821   1.616   1.583
11243TIP3    H133672   5.799   1.680   1.650
11243TIP3    H233673   5.862   1.544   1.631
11244TIP3   OH233674   1.935   4.917   0.873
11244TIP3    H133675   1.862   4.880   0.823
11244TIP3    H233676   1.996   4.950   0.807
11245TIP3   OH233677   6.391   2.941   0.982
11245TIP3    H133678   6.437   3.001   1.041
11245TIP3    H233679   6.458   2.916   0.917
11246TIP3   OH233680   5.618   6.440   4.876
11246TIP3    H133681   5.604   6.347   4.891
11246TIP3    H233682   5.680   6.466   4.944
11247TIP3   OH233683   7.260   7.517   6.529
11247TIP3    H133684   7.173   7.509   6.569
11247TIP3    H233685   7.296   7.597   6.567
11248TIP3   OH233686   0.297   2.514   1.783
11248TIP3    H133687   0.344   2.442   1.742
11248TIP3    H233688   0.218   2.474   1.819
11249TIP3   OH233689   7.227   2.329   0.263
11249TIP3    H133690   7.310   2.374   0.247
11249TIP3    H233691   7.208   2.283   0.181
11250TIP3   OH233692   2.813   4.538   2.131
11250TIP3    H133693   2.897   4.493   2.142
11250TIP3    H233694   2.751   4.485   2.181
11251TIP3   OH233695   0.698   7.597   2.998
11251TIP3    H133696   0.642   7.531   2.957
11251TIP3    H233697   0.764   7.616   2.932
11252TIP3   OH233698   7.453   5.919   3.910
11252TIP3    H133699   7.473   5.983   3.978
11252TIP3    H233700   7.358   5.923   3.899
11253TIP3   OH233701   3.608   7.411   3.166
11253TIP3    H133702   3.614   7.381   3.257
11253TIP3    H233703   3.516   7.396   3.142
11254TIP3   OH233704   3.636   4.027   4.895
11254TIP3    H133705   3.705   3.964   4.915
11254TIP3    H233706   3.624   4.021   4.800
11255TIP3   OH233707   4.326   0.599   3.235
11255TIP3    H133708   4.250   0.546   3.258
11255TIP3    H233709   4.304   0.687   3.266
11256TIP3   OH233710   6.853   1.668   6.289
11256TIP3    H133711   6.863   1.645   6.196
11256TIP3    H233712   6.781   1.613   6.320
11257TIP3   OH233713   0.515   1.723   4.140
11257TIP3    H133714   0.571   1.649   4.118
11257TIP3    H233715   0.476   1.750   4.057
11258TIP3   OH233716   1.389   2.136   6.362
11258TIP3    H133717   1.358   2.192   6.291
11258TIP3    H233718   1.392   2.048   6.324
11259TIP3   OH233719   4.495   0.047   6.185
11259TIP3    H133720   4.419   0.087   6.144
11259TIP3    H233721   4.475   0.047   6.278
11260TIP3   OH233722   2.707   6.053   3.311
11260TIP3    H133723   2.612   6.044   3.303
11260TIP3    H233724   2.731   5.995   3.384
11261TIP3   OH233725   8.219   3.666   0.139
11261TIP3    H133726   8.192   3.756   0.161
11261TIP3    H233727   8.280   3.642   0.208
11262TIP3   OH233728   6.627   1.820   0.894
11262TIP3    H133729   6.717   1.833   0.865
11262TIP3    H233730   6.632   1.752   0.961
11263TIP3   OH233731   3.708   7.037   5.661
11263TIP3    H133732   3.792   7.066   5.623
11263TIP3    H233733   3.648   7.034   5.586
11264TIP3   OH233734   5.798   5.872   1.909
11264TIP3    H133735   5.883   5.879   1.954
11264TIP3    H233736   5.733   5.893   1.977
11265TIP3   OH233737   3.285   5.835   6.758
11265TIP3    H133738   3.339   5.841   6.679
11265TIP3    H233739   3.292   5.743   6.784
11266TIP3   OH233740   3.938   2.479   6.363
11266TIP3    H133741   3.928   2.486   6.458
11266TIP3    H233742   4.022   2.434   6.351
11267TIP3   OH233743   5.174   5.794   0.081
11267TIP3    H133744   5.140   5.806  -0.008
11267TIP3    H233745   5.269   5.787   0.069
11268TIP3   OH233746   0.877   7.663   6.475
11268TIP3    H133747   0.956   7.639   6.427
11268TIP3    H233748   0.806   7.650   6.412
11269TIP3   OH233749   3.352   4.996   6.386
11269TIP3    H133750   3.301   4.996   6.467
11269TIP3    H233751   3.428   5.051   6.407
11270TIP3   OH233752   5.718   4.033   6.011
11270TIP3    H133753   5.721   4.043   5.916
11270TIP3    H233754   5.700   4.121   6.044
11271TIP3   OH233755   2.603   3.983   0.277
11271TIP3    H133756   2.522   4.004   0.322
11271TIP3    H233757   2.672   4.002   0.341
11272TIP3   OH233758   4.487   2.293   5.752
11272TIP3    H133759   4.405   2.301   5.704
11272TIP3    H233760   4.495   2.375   5.801
11273TIP3   OH233761   1.938   4.732   4.685
11273TIP3    H133762   1.849   4.761   4.662
11273TIP3    H233763   1.928   4.638   4.701
11274TIP3   OH233764   4.336   4.322   4.179
11274TIP3    H133765   4.241   4.332   4.181
11274TIP3    H233766   4.360   4.303   4.270
11275TIP3   OH233767   5.858   0.640   0.043
11275TIP3    H133768   5.862   0.698  -0.034
11275TIP3    H233769   5.765   0.622   0.055
11276TIP3   OH233770   2.656   4.586   4.797
11276TIP3    H133771   2.630   4.531   4.871
11276TIP3    H233772   2.701   4.660   4.838
11277TIP3   OH233773   0.332   3.009   1.394
11277TIP3    H133774   0.406   2.986   1.338
11277TIP3    H233775   0.297   2.925   1.425
11278TIP3   OH233776   6.512  -0.054   3.579
11278TIP3    H133777   6.495   0.036   3.550
11278TIP3    H233778   6.500  -0.051   3.674
11279TIP3   OH233779   4.380   4.570   1.166
11279TIP3    H133780   4.380   4.594   1.258
11279TIP3    H233781   4.292   4.593   1.135
11280TIP3   OH233782   3.425   1.324   4.022
11280TIP3    H133783   3.409   1.245   3.970
11280TIP3    H233784   3.515   1.316   4.051
11281TIP3   OH233785   3.932   6.458   0.336
11281TIP3    H133786   3.930   6.541   0.287
11281TIP3    H233787   3.895   6.394   0.275
11282TIP3   OH233788   5.882   0.557   1.480
11282TIP3    H133789   5.967   0.594   1.457
11282TIP3    H233790   5.818   0.612   1.435
11283TIP3   OH233791   0.669   6.220   5.571
11283TIP3    H133792   0.671   6.313   5.592
11283TIP3    H233793   0.671   6.176   5.656
11284TIP3   OH233794   1.812   2.542   5.704
11284TIP3    H133795   1.860   2.561   5.784
11284TIP3    H233796   1.862   2.585   5.635
11285TIP3   OH233797   2.324   3.042   2.325
11285TIP3    H133798   2.358   2.960   2.290
11285TIP3    H233799   2.370   3.110   2.276
11286TIP3   OH233800   4.591   6.546   2.092
11286TIP3    H133801   4.682   6.537   2.121
11286TIP3    H233802   4.592   6.622   2.033
11287TIP3   OH233803   7.193   5.658   0.865
11287TIP3    H133804   7.137   5.595   0.820
11287TIP3    H233805   7.224   5.611   0.943
11288TIP3   OH233806   4.393   6.383   0.110
11288TIP3    H133807   4.322   6.321   0.127
11288TIP3    H233808   4.404   6.382   0.015
11289TIP3   OH233809   2.911   0.989   6.147
11289TIP3    H133810   2.843   1.030   6.093
11289TIP3    H233811   2.984   1.050   6.144
11290TIP3   OH233812   5.739   2.312   2.305
11290TIP3    H133813   5.825   2.272   2.320
11290TIP3    H233814   5.709   2.274   2.222
11291TIP3   OH233815   0.463   4.075   2.603
11291TIP3    H133816   0.524   4.070   2.529
11291TIP3    H233817   0.502   4.019   2.670
11292TIP3   OH233818   5.569   6.602   6.666
11292TIP3    H133819   5.590   6.511   6.687
11292TIP3    H233820   5.549   6.642   6.751
11293TIP3   OH233821   1.198   5.507   6.231
11293TIP3    H133822   1.187   5.594   6.193
11293TIP3    H233823   1.178   5.447   6.159
11294TIP3   OH233824   6.347   7.393   2.799
11294TIP3    H133825   6.427   7.446   2.800
11294TIP3    H233826   6.350   7.347   2.715
11295TIP3   OH233827   1.578   0.564   1.818
11295TIP3    H133828   1.540   0.554   1.905
11295TIP3    H233829   1.591   0.658   1.807
11296TIP3   OH233830   1.754   4.216   0.721
11296TIP3    H133831   1.848   4.198   0.715
11296TIP3    H233832   1.744   4.265   0.802
11297TIP3   OH233833   5.229   3.644   3.961
11297TIP3    H133834   5.240   3.554   3.929
11297TIP3    H233835   5.270   3.642   4.048
11298TIP3   OH233836   7.639   5.115   0.945
11298TIP3    H133837   7.622   5.116   0.851
11298TIP3    H233838   7.734   5.128   0.952
11299TIP3   OH233839   1.103   3.460   4.092
11299TIP3    H133840   1.023   3.477   4.142
11299TIP3    H233841   1.078   3.471   4.001
11300TIP3   OH233842   7.439   2.238   0.995
11300TIP3    H133843   7.470   2.165   0.941
11300TIP3    H233844   7.398   2.298   0.932
11301TIP3   OH233845   2.914   3.165   0.685
11301TIP3    H133846   2.968   3.191   0.760
11301TIP3    H233847   2.832   3.135   0.724
11302TIP3   OH233848   2.274   5.725   4.843
11302TIP3    H133849   2.265   5.724   4.748
11302TIP3    H233850   2.368   5.711   4.858
11303TIP3   OH233851   6.172   1.598   0.895
11303TIP3    H133852   6.182   1.521   0.839
11303TIP3    H233853   6.241   1.588   0.961
11304TIP3   OH233854   6.380   5.613   4.208
11304TIP3    H133855   6.382   5.533   4.260
11304TIP3    H233856   6.430   5.677   4.258
11305TIP3   OH233857   4.825   1.769   2.950
11305TIP3    H133858   4.733   1.763   2.977
11305TIP3    H233859   4.822   1.771   2.854
11306TIP3   OH233860   3.832   6.125   1.679
11306TIP3    H133861   3.896   6.175   1.629
11306TIP3    H233862   3.849   6.148   1.770
11307TIP3   OH233863   2.910   3.997   6.208
11307TIP3    H133864   2.990   4.022   6.161
11307TIP3    H233865   2.845   3.986   6.138
11308TIP3   OH233866   2.711   2.750   2.952
11308TIP3    H133867   2.652   2.759   2.878
11308TIP3    H233868   2.785   2.700   2.917
11309TIP3   OH233869   7.677   2.630   5.765
11309TIP3    H133870   7.587   2.635   5.799
11309TIP3    H233871   7.727   2.588   5.835
11310TIP3   OH233872   2.652   7.444   3.868
11310TIP3    H133873   2.577   7.489   3.830
11310TIP3    H233874   2.627   7.351   3.869
11311TIP3   OH233875   5.139   0.150   4.278
11311TIP3    H133876   5.207   0.089   4.308
11311TIP3    H233877   5.062   0.096   4.263
11312TIP3   OH233878   6.212   1.188   0.343
11312TIP3    H133879   6.303   1.211   0.326
11312TIP3    H233880   6.169   1.270   0.367
11313TIP3   OH233881   7.267   2.532   3.039
11313TIP3    H133882   7.306   2.619   3.040
11313TIP3    H233883   7.181   2.545   2.998
11314TIP3   OH233884   3.178   4.937   6.608
11314TIP3    H133885   3.125   5.011   6.636
11314TIP3    H233886   3.116   4.865   6.596
11315TIP3   OH233887   4.854   6.348   3.604
11315TIP3    H133888   4.921   6.312   3.546
11315TIP3    H233889   4.899   6.357   3.689
11316TIP3   OH233890   0.214   4.567   1.725
11316TIP3    H133891   0.181   4.489   1.770
11316TIP3    H233892   0.221   4.633   1.794
11317TIP3   OH233893   0.060   2.728   5.791
11317TIP3    H133894  -0.013   2.673   5.820
11317TIP3    H233895   0.095   2.766   5.872
11318TIP3   OH233896   1.063   7.334   1.546
11318TIP3    H133897   1.071   7.289   1.630
11318TIP3    H233898   1.153   7.348   1.518
11319TIP3   OH233899   6.375   5.177   1.232
11319TIP3    H133900   6.403   5.087   1.251
11319TIP3    H233901   6.438   5.232   1.278
11320TIP3   OH233902   3.964   7.169   1.281
11320TIP3    H133903   3.958   7.263   1.295
11320TIP3    H233904   3.893   7.148   1.221
11321TIP3   OH233905   2.645   7.424   0.637
11321TIP3    H133906   2.623   7.514   0.661
11321TIP3    H233907   2.564   7.388   0.603
11322TIP3   OH233908   4.499   0.458   3.966
11322TIP3    H133909   4.554   0.424   4.037
11322TIP3    H233910   4.561   0.503   3.908
11323TIP3   OH233911   5.474   3.973   2.656
11323TIP3    H133912   5.569   3.980   2.646
11323TIP3    H233913   5.440   3.992   2.568
11324TIP3   OH233914   4.673   6.350   5.661
11324TIP3    H133915   4.731   6.408   5.611
11324TIP3    H233916   4.703   6.360   5.752
11325TIP3   OH233917   4.540   4.106   4.278
11325TIP3    H133918   4.518   4.089   4.370
11325TIP3    H233919   4.457   4.101   4.231
11326TIP3   OH233920   0.943   3.923   4.185
11326TIP3    H133921   0.996   3.882   4.118
11326TIP3    H233922   0.919   4.008   4.148
11327TIP3   OH233923   5.514   2.703   4.594
11327TIP3    H133924   5.506   2.639   4.524
11327TIP3    H233925   5.462   2.668   4.666
11328TIP3   OH233926   2.869   2.023   2.589
11328TIP3    H133927   2.860   1.929   2.606
11328TIP3    H233928   2.903   2.059   2.671
11329TIP3   OH233929   0.373   5.909   4.993
11329TIP3    H133930   0.348   5.878   5.080
11329TIP3    H233931   0.468   5.916   4.996
11330TIP3   OH233932   2.367   1.589   5.817
11330TIP3    H133933   2.419   1.657   5.861
11330TIP3    H233934   2.424   1.555   5.748
11331TIP3   OH233935   5.149   0.671   1.742
11331TIP3    H133936   5.232   0.707   1.771
11331TIP3    H233937   5.166   0.577   1.729
11332TIP3   OH233938   0.632   6.356   2.920
11332TIP3    H133939   0.652   6.447   2.941
11332TIP3    H233940   0.542   6.357   2.889
11333TIP3   OH233941   4.344   1.413   4.713
11333TIP3    H133942   4.258   1.401   4.674
11333TIP3    H233943   4.379   1.492   4.672
11334TIP3   OH233944   6.503   5.523   2.897
11334TIP3    H133945   6.504   5.427   2.906
11334TIP3    H233946   6.446   5.539   2.822
11335TIP3   OH233947   1.904   6.281   1.408
11335TIP3    H133948   1.919   6.192   1.377
11335TIP3    H233949   1.941   6.337   1.339
11336TIP3   OH233950   0.829   5.060   3.213
11336TIP3    H133951   0.742   5.095   3.236
11336TIP3    H233952   0.857   5.114   3.139
11337TIP3   OH233953   0.973   0.410   0.529
11337TIP3    H133954   0.920   0.400   0.450
11337TIP3    H233955   0.913   0.392   0.601
11338TIP3   OH233956   7.259   6.637   5.131
11338TIP3    H133957   7.270   6.730   5.111
11338TIP3    H233958   7.171   6.616   5.100
11339TIP3   OH233959   5.345   6.783   5.944
11339TIP3    H133960   5.284   6.846   5.906
11339TIP3    H233961   5.398   6.835   6.005
11340TIP3   OH233962   1.512   6.175   1.534
11340TIP3    H133963   1.571   6.201   1.605
11340TIP3    H233964   1.555   6.204   1.454
11341TIP3   OH233965   1.445   1.029   2.647
11341TIP3    H133966   1.386   1.054   2.576
11341TIP3    H233967   1.401   1.058   2.727
11342TIP3   OH233968   6.686   5.399   6.179
11342TIP3    H133969   6.645   5.458   6.116
11342TIP3    H233970   6.774   5.383   6.144
11343TIP3   OH233971   7.117   3.888   4.308
11343TIP3    H133972   7.202   3.844   4.311
11343TIP3    H233973   7.132   3.971   4.353
11344TIP3   OH233974   0.683   4.282   1.247
11344TIP3    H133975   0.667   4.273   1.341
11344TIP3    H233976   0.691   4.192   1.215
11345TIP3   OH233977   6.765   4.439   6.115
11345TIP3    H133978   6.760   4.458   6.209
11345TIP3    H233979   6.693   4.378   6.099
11346TIP3   OH233980   5.936   2.559   5.187
11346TIP3    H133981   5.998   2.495   5.151
11346TIP3    H233982   5.926   2.624   5.117
11347TIP3   OH233983   6.575   2.519   1.397
11347TIP3    H133984   6.620   2.602   1.415
11347TIP3    H233985   6.589   2.504   1.304
11348TIP3   OH233986   2.972   0.434  -0.023
11348TIP3    H133987   2.990   0.470  -0.110
11348TIP3    H233988   2.931   0.506   0.025
11349TIP3   OH233989   3.552   6.777   0.603
11349TIP3    H133990   3.464   6.740   0.616
11349TIP3    H233991   3.585   6.792   0.692
11350TIP3   OH233992   1.894   7.150   1.350
11350TIP3    H133993   1.827   7.217   1.365
11350TIP3    H233994   1.959   7.165   1.418
11351TIP3   OH233995   5.496   2.077   6.191
11351TIP3    H133996   5.465   1.995   6.230
11351TIP3    H233997   5.443   2.145   6.234
11352TIP3   OH233998   3.885   7.337   5.412
11352TIP3    H133999   3.900   7.353   5.319
11352TIP3    H234000   3.790   7.329   5.420
11353TIP3   OH234001   4.673   4.396   0.506
11353TIP3    H134002   4.708   4.432   0.425
11353TIP3    H234003   4.718   4.444   0.575
11354TIP3   OH234004   3.661   1.034   1.464
11354TIP3    H134005   3.741   0.981   1.459
11354TIP3    H234006   3.691   1.121   1.490
11355TIP3   OH234007   2.690   2.354   5.417
11355TIP3    H134008   2.697   2.376   5.324
11355TIP3    H234009   2.739   2.424   5.462
11356TIP3   OH234010   1.510   2.561   2.918
11356TIP3    H134011   1.441   2.526   2.862
11356TIP3    H234012   1.465   2.594   2.995
11357TIP3   OH234013   0.056   1.863   4.933
11357TIP3    H134014   0.003   1.860   5.013
11357TIP3    H234015   0.023   1.940   4.886
11358TIP3   OH234016   0.561   3.535   2.477
11358TIP3    H134017   0.468   3.514   2.490
11358TIP3    H234018   0.600   3.531   2.564
11359TIP3   OH234019   7.524   1.336   2.712
11359TIP3    H134020   7.468   1.291   2.649
11359TIP3    H234021   7.570   1.265   2.758
11360TIP3   OH234022   6.306   6.134   4.952
11360TIP3    H134023   6.377   6.166   4.896
11360TIP3    H234024   6.347   6.068   5.007
11361TIP3   OH234025   5.470   0.331   1.952
11361TIP3    H134026   5.431   0.254   1.994
11361TIP3    H234027   5.558   0.303   1.927
11362TIP3   OH234028   1.144   0.597   6.133
11362TIP3    H134029   1.191   0.591   6.050
11362TIP3    H234030   1.162   0.514   6.177
11363TIP3   OH234031   0.111   7.338   2.470
11363TIP3    H134032   0.191   7.285   2.466
11363TIP3    H234033   0.111   7.387   2.387
11364TIP3   OH234034   6.276   2.177   5.258
11364TIP3    H134035   6.216   2.140   5.323
11364TIP3    H234036   6.292   2.106   5.196
11365TIP3   OH234037   6.613   0.096   2.629
11365TIP3    H134038   6.592   0.115   2.537
11365TIP3    H234039   6.708   0.107   2.635
11366TIP3   OH234040   6.391   3.246   6.243
11366TIP3    H134041   6.449   3.268   6.170
11366TIP3    H234042   6.303   3.267   6.211
11367TIP3   OH234043   7.405   0.188   1.130
11367TIP3    H134044   7.333   0.234   1.087
11367TIP3    H234045   7.484   0.223   1.088
11368TIP3   OH234046   0.938   4.392   2.117
11368TIP3    H134047   0.937   4.354   2.029
11368TIP3    H234048   1.028   4.423   2.129
11369TIP3   OH234049   0.917   3.780   4.454
11369TIP3    H134050   0.964   3.813   4.378
11369TIP3    H234051   0.932   3.685   4.452
11370TIP3   OH234052   0.832   2.572   0.404
11370TIP3    H134053   0.741   2.593   0.424
11370TIP3    H234054   0.837   2.575   0.308
11371TIP3   OH234055   0.860   7.542   0.909
11371TIP3    H134056   0.911   7.575   0.835
11371TIP3    H234057   0.925   7.507   0.970
11372TIP3   OH234058   5.599   7.637   2.277
11372TIP3    H134059   5.604   7.670   2.367
11372TIP3    H234060   5.636   7.549   2.282
11373TIP3   OH234061   0.388   1.897   5.116
11373TIP3    H134062   0.449   1.942   5.175
11373TIP3    H234063   0.316   1.959   5.105
11374TIP3   OH234064   5.640   2.080   1.707
11374TIP3    H134065   5.669   2.057   1.619
11374TIP3    H234066   5.714   2.125   1.746
11375TIP3   OH234067   8.101   1.049   1.051
11375TIP3    H134068   8.128   1.087   1.135
11375TIP3    H234069   8.169   0.985   1.030
11376TIP3   OH234070   0.809   7.761   1.087
11376TIP3    H134071   0.746   7.824   1.052
11376TIP3    H234072   0.839   7.712   1.010
11377TIP3   OH234073   0.169   6.320   2.685
11377TIP3    H134074   0.085   6.366   2.680
11377TIP3    H234075   0.165   6.256   2.613
11378TIP3   OH234076   6.215   2.290   1.702
11378TIP3    H134077   6.177   2.353   1.763
11378TIP3    H234078   6.272   2.341   1.646
11379TIP3   OH234079   5.792   3.670   6.539
11379TIP3    H134080   5.766   3.591   6.491
11379TIP3    H234081   5.879   3.649   6.574
11380TIP3   OH234082   5.031   2.953   0.996
11380TIP3    H134083   5.121   2.954   1.030
11380TIP3    H234084   4.985   3.018   1.047
11381TIP3   OH234085   6.110   3.295   3.125
11381TIP3    H134086   6.101   3.273   3.032
11381TIP3    H234087   6.166   3.372   3.126
11382TIP3   OH234088   3.994   5.547   2.728
11382TIP3    H134089   3.945   5.489   2.786
11382TIP3    H234090   3.952   5.632   2.738
11383TIP3   OH234091   4.540   4.606   5.856
11383TIP3    H134092   4.463   4.651   5.889
11383TIP3    H234093   4.516   4.513   5.857
11384TIP3   OH234094   0.799   1.851   5.994
11384TIP3    H134095   0.867   1.917   5.990
11384TIP3    H234096   0.720   1.899   6.019
11385TIP3   OH234097   1.632   7.279   5.191
11385TIP3    H134098   1.659   7.203   5.243
11385TIP3    H234099   1.584   7.334   5.253
11386TIP3   OH234100   6.684   2.047   1.316
11386TIP3    H134101   6.759   2.054   1.374
11386TIP3    H234102   6.654   1.956   1.326
11387TIP3   OH234103   1.132   2.975   6.082
11387TIP3    H134104   1.053   3.008   6.041
11387TIP3    H234105   1.181   3.054   6.106
11388TIP3   OH234106   5.759   0.221   5.029
11388TIP3    H134107   5.758   0.151   5.093
11388TIP3    H234108   5.720   0.296   5.074
11389TIP3   OH234109   3.038   0.363   2.780
11389TIP3    H134110   2.986   0.283   2.789
11389TIP3    H234111   3.120   0.343   2.825
11390TIP3   OH234112   7.363   6.465   4.317
11390TIP3    H134113   7.357   6.385   4.369
11390TIP3    H234114   7.454   6.492   4.323
11391TIP3   OH234115   3.524   7.436   4.567
11391TIP3    H134116   3.524   7.527   4.595
11391TIP3    H234117   3.542   7.386   4.647
11392TIP3   OH234118   7.432   3.474   1.455
11392TIP3    H134119   7.342   3.456   1.482
11392TIP3    H234120   7.425   3.494   1.361
11393TIP3   OH234121   1.974   6.331   3.332
11393TIP3    H134122   2.054   6.282   3.352
11393TIP3    H234123   1.950   6.302   3.244
11394TIP3   OH234124   5.429   5.173   6.697
11394TIP3    H134125   5.361   5.241   6.697
11394TIP3    H234126   5.429   5.139   6.607
11395TIP3   OH234127   5.550   1.216   4.993
11395TIP3    H134128   5.523   1.144   5.050
11395TIP3    H234129   5.610   1.175   4.930
11396TIP3   OH234130   3.088   0.709   1.117
11396TIP3    H134131   3.114   0.704   1.209
11396TIP3    H234132   3.038   0.790   1.112
11397TIP3   OH234133   2.618   6.583   4.196
11397TIP3    H134134   2.575   6.633   4.265
11397TIP3    H234135   2.631   6.496   4.234
11398TIP3   OH234136   8.141   2.723   5.398
11398TIP3    H134137   8.129   2.693   5.488
11398TIP3    H234138   8.053   2.731   5.363
11399TIP3   OH234139   3.998   3.720   1.929
11399TIP3    H134140   4.092   3.709   1.941
11399TIP3    H234141   3.958   3.681   2.007
11400TIP3   OH234142   2.729   5.775   3.406
11400TIP3    H134143   2.643   5.732   3.398
11400TIP3    H234144   2.776   5.748   3.326
11401TIP3   OH234145   1.162   5.491   1.758
11401TIP3    H134146   1.119   5.564   1.804
11401TIP3    H234147   1.217   5.534   1.693
11402TIP3   OH234148   7.680   3.956   4.020
11402TIP3    H134149   7.627   3.985   4.095
11402TIP3    H234150   7.746   3.898   4.058
11403TIP3   OH234151   0.008   3.645   0.670
11403TIP3    H134152  -0.043   3.627   0.749
11403TIP3    H234153   0.097   3.659   0.702
11404TIP3   OH234154   3.130   7.390   4.011
11404TIP3    H134155   3.040   7.421   4.007
11404TIP3    H234156   3.127   7.314   4.069
11405TIP3   OH234157   2.068   1.102   3.092
11405TIP3    H134158   2.141   1.162   3.077
11405TIP3    H234159   1.999   1.133   3.034
11406TIP3   OH234160   6.655   5.358   3.113
11406TIP3    H134161   6.712   5.284   3.136
11406TIP3    H234162   6.681   5.382   3.024
11407TIP3   OH234163   2.842   6.991   6.305
11407TIP3    H134164   2.904   6.946   6.247
11407TIP3    H234165   2.855   6.950   6.390
11408TIP3   OH234166   7.777   7.331   6.650
11408TIP3    H134167   7.766   7.327   6.555
11408TIP3    H234168   7.716   7.266   6.684
11409TIP3   OH234169   4.108   7.301   2.739
11409TIP3    H134170   4.050   7.322   2.812
11409TIP3    H234171   4.053   7.253   2.677
11410TIP3   OH234172   4.126   5.752   5.787
11410TIP3    H134173   4.140   5.834   5.835
11410TIP3    H234174   4.184   5.759   5.711
11411TIP3   OH234175   1.889   7.500   5.384
11411TIP3    H134176   1.975   7.535   5.361
11411TIP3    H234177   1.829   7.536   5.319
11412TIP3   OH234178   2.492   3.272   0.269
11412TIP3    H134179   2.510   3.305   0.181
11412TIP3    H234180   2.409   3.313   0.293
11413TIP3   OH234181   4.273   2.249   2.077
11413TIP3    H134182   4.350   2.217   2.126
11413TIP3    H234183   4.199   2.206   2.121
11414TIP3   OH234184   1.950   4.291   3.632
11414TIP3    H134185   1.880   4.324   3.575
11414TIP3    H234186   2.014   4.363   3.636
11415TIP3   OH234187   4.691   4.921   6.507
11415TIP3    H134188   4.609   4.970   6.497
11415TIP3    H234189   4.727   4.916   6.419
11416TIP3   OH234190   5.074   4.827   0.554
11416TIP3    H134191   5.167   4.806   0.565
11416TIP3    H234192   5.048   4.777   0.477
11417TIP3   OH234193   2.523   6.417   0.098
11417TIP3    H134194   2.498   6.455   0.182
11417TIP3    H234195   2.593   6.473   0.066
11418TIP3   OH234196   7.622   0.789   3.707
11418TIP3    H134197   7.597   0.698   3.724
11418TIP3    H234198   7.551   0.841   3.744
11419TIP3   OH234199   0.197   1.039   2.034
11419TIP3    H134200   0.213   0.952   1.998
11419TIP3    H234201   0.117   1.068   1.990
11420TIP3   OH234202   5.165   0.868   0.322
11420TIP3    H134203   5.151   0.844   0.414
11420TIP3    H234204   5.163   0.963   0.322
11421TIP3   OH234205   3.759   0.198   4.480
11421TIP3    H134206   3.839   0.158   4.445
11421TIP3    H234207   3.787   0.239   4.562
11422TIP3   OH234208   1.283   1.095   5.465
11422TIP3    H134209   1.301   1.088   5.371
11422TIP3    H234210   1.190   1.074   5.472
11423TIP3   OH234211   2.451   5.385   0.253
11423TIP3    H134212   2.454   5.301   0.300
11423TIP3    H234213   2.533   5.389   0.205
11424TIP3   OH234214   2.272   1.349   5.260
11424TIP3    H134215   2.343   1.287   5.244
11424TIP3    H234216   2.308   1.435   5.237
11425TIP3   OH234217   6.240   7.453   1.455
11425TIP3    H134218   6.185   7.521   1.495
11425TIP3    H234219   6.329   7.478   1.479
11426TIP3   OH234220   7.389   7.083   5.623
11426TIP3    H134221   7.471   7.046   5.590
11426TIP3    H234222   7.347   7.121   5.545
11427TIP3   OH234223   4.117   5.688   4.006
11427TIP3    H134224   4.151   5.754   4.066
11427TIP3    H234225   4.190   5.667   3.948
11428TIP3   OH234226   4.823   2.249   1.749
11428TIP3    H134227   4.867   2.333   1.739
11428TIP3    H234228   4.894   2.186   1.762
11429TIP3   OH234229   5.999   5.597   4.614
11429TIP3    H134230   5.950   5.677   4.632
11429TIP3    H234231   6.090   5.625   4.606
11430TIP3   OH234232   5.055   7.370   3.454
11430TIP3    H134233   5.096   7.315   3.388
11430TIP3    H234234   4.966   7.335   3.462
11431TIP3   OH234235   1.180   5.590   4.624
11431TIP3    H134236   1.263   5.627   4.595
11431TIP3    H234237   1.113   5.636   4.572
11432TIP3   OH234238   3.908   5.906   1.922
11432TIP3    H134239   3.969   5.849   1.969
11432TIP3    H234240   3.961   5.946   1.852
11433TIP3   OH234241   0.255   2.015   6.597
11433TIP3    H134242   0.320   1.998   6.666
11433TIP3    H234243   0.270   2.106   6.572
11434TIP3   OH234244   6.201   6.367   6.748
11434TIP3    H134245   6.135   6.325   6.805
11434TIP3    H234246   6.156   6.443   6.712
11435TIP3   OH234247   8.118   0.756   0.174
11435TIP3    H134248   8.059   0.823   0.138
11435TIP3    H234249   8.179   0.736   0.103
11436TIP3   OH234250   5.885   5.160   1.746
11436TIP3    H134251   5.974   5.195   1.748
11436TIP3    H234252   5.836   5.223   1.694
11437TIP3   OH234253   1.873   4.152   0.292
11437TIP3    H134254   1.796   4.135   0.347
11437TIP3    H234255   1.932   4.079   0.309
11438TIP3   OH234256   3.576   4.505   0.036
11438TIP3    H134257   3.540   4.568   0.099
11438TIP3    H234258   3.537   4.422   0.061
11439TIP3   OH234259   5.522   3.519   4.689
11439TIP3    H134260   5.479   3.434   4.697
11439TIP3    H234261   5.598   3.502   4.633
11440TIP3   OH234262   6.946   0.590   3.406
11440TIP3    H134263   6.967   0.672   3.451
11440TIP3    H234264   6.933   0.527   3.477
11441TIP3   OH234265   1.027   7.069   3.031
11441TIP3    H134266   1.020   7.145   3.088
11441TIP3    H234267   1.007   7.103   2.944
11442TIP3   OH234268   4.398   4.613   1.463
11442TIP3    H134269   4.326   4.552   1.475
11442TIP3    H234270   4.454   4.601   1.539
11443TIP3   OH234271   6.947   2.420   5.617
11443TIP3    H134272   6.987   2.350   5.669
11443TIP3    H234273   6.853   2.402   5.621
11444TIP3   OH234274   0.862   1.135   5.566
11444TIP3    H134275   0.802   1.186   5.621
11444TIP3    H234276   0.816   1.126   5.482
11445TIP3   OH234277   5.881   1.603   5.063
11445TIP3    H134278   5.951   1.613   5.128
11445TIP3    H234279   5.906   1.662   4.992
11446TIP3   OH234280   1.762   5.333   3.518
11446TIP3    H134281   1.846   5.316   3.561
11446TIP3    H234282   1.741   5.423   3.543
11447TIP3   OH234283   6.177   0.741   0.364
11447TIP3    H134284   6.216   0.798   0.297
11447TIP3    H234285   6.112   0.690   0.316
11448TIP3   OH234286   0.455   2.331   1.606
11448TIP3    H134287   0.538   2.336   1.559
11448TIP3    H234288   0.455   2.243   1.645
11449TIP3   OH234289   3.247   6.937   1.445
11449TIP3    H134290   3.279   6.955   1.534
11449TIP3    H234291   3.202   6.853   1.453
11450TIP3   OH234292   2.257   0.749   5.341
11450TIP3    H134293   2.177   0.793   5.312
11450TIP3    H234294   2.233   0.710   5.425
11451TIP3   OH234295   0.026   5.403   1.584
11451TIP3    H134296  -0.004   5.323   1.540
11451TIP3    H234297   0.098   5.435   1.529
11452TIP3   OH234298   7.324   6.838   0.159
11452TIP3    H134299   7.297   6.747   0.170
11452TIP3    H234300   7.395   6.851   0.222
11453TIP3   OH234301   2.820   1.514   0.236
11453TIP3    H134302   2.778   1.432   0.210
11453TIP3    H234303   2.750   1.564   0.279
11454TIP3   OH234304   5.654   7.122   1.670
11454TIP3    H134305   5.725   7.063   1.696
11454TIP3    H234306   5.698   7.203   1.645
11455TIP3   OH234307   3.231   3.509   3.448
11455TIP3    H134308   3.171   3.558   3.392
11455TIP3    H234309   3.190   3.512   3.535
11456TIP3   OH234310   3.197   7.339   5.572
11456TIP3    H134311   3.103   7.317   5.573
11456TIP3    H234312   3.222   7.332   5.480
11457TIP3   OH234313   1.521   3.812   6.454
11457TIP3    H134314   1.496   3.868   6.526
11457TIP3    H234315   1.552   3.872   6.386
11458TIP3   OH234316   2.361   6.623   3.158
11458TIP3    H134317   2.410   6.569   3.097
11458TIP3    H234318   2.412   6.620   3.239
11459TIP3   OH234319   6.211   2.151   1.236
11459TIP3    H134320   6.293   2.134   1.282
11459TIP3    H234321   6.212   2.245   1.220
11460TIP3   OH234322   2.169   7.430   1.606
11460TIP3    H134323   2.243   7.398   1.659
11460TIP3    H234324   2.114   7.478   1.668
11461TIP3   OH234325   4.405   6.444   1.861
11461TIP3    H134326   4.477   6.464   1.920
11461TIP3    H234327   4.328   6.482   1.904
11462TIP3   OH234328   6.671   3.055   5.273
11462TIP3    H134329   6.740   3.021   5.217
11462TIP3    H234330   6.704   3.139   5.304
11463TIP3   OH234331   3.665   2.409   0.494
11463TIP3    H134332   3.581   2.389   0.452
11463TIP3    H234333   3.656   2.499   0.524
11464TIP3   OH234334   1.292   5.122   2.691
11464TIP3    H134335   1.387   5.137   2.686
11464TIP3    H234336   1.285   5.036   2.733
11465TIP3   OH234337   0.360   6.843   4.544
11465TIP3    H134338   0.437   6.797   4.576
11465TIP3    H234339   0.291   6.823   4.608
11466TIP3   OH234340   7.823   3.696   5.577
11466TIP3    H134341   7.768   3.702   5.499
11466TIP3    H234342   7.894   3.758   5.561
11467TIP3   OH234343   7.127   1.620   5.181
11467TIP3    H134344   7.198   1.668   5.138
11467TIP3    H234345   7.155   1.615   5.273
11468TIP3   OH234346   5.952   1.687   2.441
11468TIP3    H134347   5.867   1.729   2.430
11468TIP3    H234348   5.938   1.621   2.510
11469TIP3   OH234349   3.792   4.366   2.070
11469TIP3    H134350   3.775   4.274   2.051
11469TIP3    H234351   3.855   4.393   2.003
11470TIP3   OH234352   6.464   4.013   4.052
11470TIP3    H134353   6.466   4.107   4.039
11470TIP3    H234354   6.490   4.000   4.143
11471TIP3   OH234355   7.744   7.755   1.348
11471TIP3    H134356   7.746   7.717   1.436
11471TIP3    H234357   7.792   7.837   1.356
11472TIP3   OH234358   5.864   2.194   0.545
11472TIP3    H134359   5.787   2.140   0.563
11472TIP3    H234360   5.906   2.152   0.470
11473TIP3   OH234361   1.235   2.817  -0.018
11473TIP3    H134362   1.318   2.771  -0.025
11473TIP3    H234363   1.192   2.778   0.058
11474TIP3   OH234364   0.351   0.617   4.676
11474TIP3    H134365   0.273   0.566   4.696
11474TIP3    H234366   0.318   0.702   4.647
11475TIP3   OH234367   4.609   7.468   4.534
11475TIP3    H134368   4.695   7.449   4.496
11475TIP3    H234369   4.567   7.525   4.469
11476TIP3   OH234370   1.917   6.256   6.748
11476TIP3    H134371   1.912   6.168   6.709
11476TIP3    H234372   2.010   6.273   6.756
11477TIP3   OH234373   1.439   4.311   6.392
11477TIP3    H134374   1.384   4.381   6.356
11477TIP3    H234375   1.378   4.253   6.437
11478TIP3   OH234376   6.691   5.668   2.087
11478TIP3    H134377   6.698   5.655   2.181
11478TIP3    H234378   6.607   5.713   2.075
11479TIP3   OH234379   0.540   3.131   1.929
11479TIP3    H134380   0.621   3.182   1.926
11479TIP3    H234381   0.562   3.054   1.982
11480TIP3   OH234382   2.936   3.366   4.871
11480TIP3    H134383   2.884   3.335   4.945
11480TIP3    H234384   2.874   3.370   4.798
11481TIP3   OH234385   3.537   1.774   4.207
11481TIP3    H134386   3.475   1.709   4.173
11481TIP3    H234387   3.491   1.857   4.197
11482TIP3   OH234388   3.786   3.189   2.292
11482TIP3    H134389   3.791   3.122   2.360
11482TIP3    H234390   3.772   3.140   2.211
11483TIP3   OH234391   2.750   6.753   6.793
11483TIP3    H134392   2.816   6.704   6.744
11483TIP3    H234393   2.673   6.695   6.794
11484TIP3   OH234394   5.019   6.283   2.310
11484TIP3    H134395   5.101   6.272   2.358
11484TIP3    H234396   4.968   6.344   2.363
11485TIP3   OH234397   4.994   3.511   3.552
11485TIP3    H134398   5.029   3.438   3.604
11485TIP3    H234399   4.921   3.545   3.604
11486TIP3   OH234400   7.838   0.181   0.379
11486TIP3    H134401   7.857   0.149   0.291
11486TIP3    H234402   7.885   0.120   0.437
11487TIP3   OH234403   3.203   3.826   3.800
11487TIP3    H134404   3.198   3.856   3.891
11487TIP3    H234405   3.295   3.839   3.776
11488TIP3   OH234406   3.998   6.903   4.546
11488TIP3    H134407   4.011   6.813   4.578
11488TIP3    H234408   4.055   6.956   4.601
11489TIP3   OH234409   5.921   5.770   5.207
11489TIP3    H134410   5.951   5.679   5.213
11489TIP3    H234411   5.885   5.788   5.294
11490TIP3   OH234412   8.027   3.582   5.036
11490TIP3    H134413   8.088   3.524   4.990
11490TIP3    H234414   8.044   3.669   5.000
11491TIP3   OH234415   7.824   1.749   4.485
11491TIP3    H134416   7.895   1.710   4.433
11491TIP3    H234417   7.758   1.680   4.489
11492TIP3   OH234418  -0.008   1.108   0.305
11492TIP3    H134419   0.008   1.167   0.379
11492TIP3    H234420   0.024   1.023   0.334
11493TIP3   OH234421   1.934   0.166   4.287
11493TIP3    H134422   1.941   0.234   4.220
11493TIP3    H234423   1.860   0.112   4.259
11494TIP3   OH234424   7.294   1.045   4.057
11494TIP3    H134425   7.251   1.116   4.105
11494TIP3    H234426   7.335   0.992   4.125
11495TIP3   OH234427   1.629   7.659   4.896
11495TIP3    H134428   1.607   7.567   4.909
11495TIP3    H234429   1.557   7.694   4.843
11496TIP3   OH234430   1.262   3.206   3.921
11496TIP3    H134431   1.234   3.157   3.998
11496TIP3    H234432   1.186   3.262   3.900
11497TIP3   OH234433   6.212   4.713   4.378
11497TIP3    H134434   6.154   4.749   4.444
11497TIP3    H234435   6.205   4.773   4.304
11498TIP3   OH234436   6.128   5.600   0.512
11498TIP3    H134437   6.111   5.580   0.421
11498TIP3    H234438   6.198   5.538   0.537
11499TIP3   OH234439   2.306   7.384   2.324
11499TIP3    H134440   2.393   7.344   2.325
11499TIP3    H234441   2.323   7.478   2.321
11500TIP3   OH234442   7.569   2.601   6.311
11500TIP3    H134443   7.498   2.646   6.356
11500TIP3    H234444   7.575   2.645   6.226
11501TIP3   OH234445   0.316   2.974   5.906
11501TIP3    H134446   0.354   2.904   5.852
11501TIP3    H234447   0.242   2.933   5.950
11502TIP3   OH234448   7.460   1.771   6.040
11502TIP3    H134449   7.397   1.715   6.087
11502TIP3    H234450   7.408   1.843   6.006
11503TIP3   OH234451   7.909   3.492   0.715
11503TIP3    H134452   7.859   3.573   0.730
11503TIP3    H234453   7.860   3.424   0.761
11504TIP3   OH234454   4.000   1.114   6.127
11504TIP3    H134455   3.979   1.084   6.038
11504TIP3    H234456   3.915   1.120   6.171
11505TIP3   OH234457   2.950   1.725   3.804
11505TIP3    H134458   2.961   1.631   3.821
11505TIP3    H234459   2.893   1.756   3.874
11506TIP3   OH234460   4.929   6.891   0.240
11506TIP3    H134461   4.879   6.963   0.202
11506TIP3    H234462   4.865   6.839   0.288
11507TIP3   OH234463   1.872   3.216   1.224
11507TIP3    H134464   1.780   3.199   1.243
11507TIP3    H234465   1.871   3.256   1.137
11508TIP3   OH234466   5.795   4.428   6.472
11508TIP3    H134467   5.741   4.491   6.425
11508TIP3    H234468   5.885   4.453   6.451
11509TIP3   OH234469   1.167   2.502   2.980
11509TIP3    H134470   1.150   2.587   3.021
11509TIP3    H234471   1.176   2.522   2.887
11510TIP3   OH234472   4.297   5.928   3.598
11510TIP3    H134473   4.325   5.837   3.589
11510TIP3    H234474   4.205   5.922   3.626
11511TIP3   OH234475   1.491   0.378   6.337
11511TIP3    H134476   1.572   0.416   6.302
11511TIP3    H234477   1.520   0.324   6.411
11512TIP3   OH234478   7.436   3.049   3.458
11512TIP3    H134479   7.504   3.107   3.492
11512TIP3    H234480   7.359   3.066   3.513
11513TIP3   OH234481   2.961   6.175   3.454
11513TIP3    H134482   2.908   6.218   3.386
11513TIP3    H234483   2.963   6.238   3.526
11514TIP3   OH234484   4.697   4.300   3.256
11514TIP3    H134485   4.662   4.389   3.251
11514TIP3    H234486   4.648   4.251   3.189
11515TIP3   OH234487   3.959   1.115   4.934
11515TIP3    H134488   3.878   1.064   4.932
11515TIP3    H234489   4.018   1.070   4.873
11516TIP3   OH234490   8.160   2.804   4.124
11516TIP3    H134491   8.119   2.737   4.069
11516TIP3    H234492   8.217   2.755   4.183
11517TIP3   OH234493   0.872   0.890   6.646
11517TIP3    H134494   0.946   0.853   6.598
11517TIP3    H234495   0.811   0.918   6.579
11518TIP3   OH234496   3.192   0.991   0.975
11518TIP3    H134497   3.212   1.051   0.903
11518TIP3    H234498   3.156   1.047   1.044
11519TIP3   OH234499   3.852   1.712   6.787
11519TIP3    H134500   3.944   1.687   6.795
11519TIP3    H234501   3.847   1.757   6.703
11520TIP3   OH234502   0.378   1.497   3.340
11520TIP3    H134503   0.377   1.519   3.246
11520TIP3    H234504   0.315   1.558   3.379
11521TIP3   OH234505   1.824   0.275   2.086
11521TIP3    H134506   1.899   0.246   2.138
11521TIP3    H234507   1.842   0.367   2.067
11522TIP3   OH234508   4.927   7.098   6.300
11522TIP3    H134509   4.857   7.092   6.235
11522TIP3    H234510   4.901   7.172   6.355
11523TIP3   OH234511   0.736   0.332   4.085
11523TIP3    H134512   0.788   0.255   4.106
11523TIP3    H234513   0.786   0.376   4.016
11524TIP3   OH234514   5.458   2.913   0.035
11524TIP3    H134515   5.390   2.915  -0.033
11524TIP3    H234516   5.466   2.821   0.058
11525TIP3   OH234517   4.338   1.204   5.849
11525TIP3    H134518   4.361   1.267   5.781
11525TIP3    H234519   4.311   1.125   5.802
11526TIP3   OH234520   3.195   5.978   1.992
11526TIP3    H134521   3.286   5.981   1.964
11526TIP3    H234522   3.196   6.006   2.084
11527TIP3   OH234523   4.077   4.117   1.438
11527TIP3    H134524   4.161   4.077   1.417
11527TIP3    H234525   4.022   4.099   1.362
11528TIP3   OH234526   2.152   5.202   5.381
11528TIP3    H134527   2.061   5.175   5.369
11528TIP3    H234528   2.177   5.165   5.465
11529TIP3   OH234529   8.247   3.431   4.978
11529TIP3    H134530   8.261   3.467   5.066
11529TIP3    H234531   8.320   3.371   4.965
11530TIP3   OH234532   4.981   5.175   2.062
11530TIP3    H134533   5.027   5.139   1.986
11530TIP3    H234534   4.895   5.132   2.060
11531TIP3   OH234535   6.423   3.124   5.925
11531TIP3    H134536   6.506   3.170   5.920
11531TIP3    H234537   6.405   3.097   5.835
11532TIP3   OH234538   1.059   7.098   0.683
11532TIP3    H134539   1.037   7.017   0.637
11532TIP3    H234540   1.155   7.101   0.682
11533TIP3   OH234541   2.877   6.220   2.400
11533TIP3    H134542   2.811   6.202   2.334
11533TIP3    H234543   2.859   6.309   2.429
11534TIP3   OH234544   5.597   3.170   6.135
11534TIP3    H134545   5.578   3.243   6.195
11534TIP3    H234546   5.677   3.131   6.169
11535TIP3   OH234547   7.528   5.038   1.215
11535TIP3    H134548   7.438   5.007   1.216
11535TIP3    H234549   7.538   5.081   1.130
11536TIP3   OH234550   3.881   4.226   3.338
11536TIP3    H134551   3.918   4.306   3.300
11536TIP3    H234552   3.804   4.207   3.284
11537TIP3   OH234553   8.232   3.964   2.556
11537TIP3    H134554   8.295   3.947   2.627
11537TIP3    H234555   8.213   4.058   2.564
11538TIP3   OH234556   5.298   5.742   5.887
11538TIP3    H134557   5.205   5.752   5.870
11538TIP3    H234558   5.314   5.796   5.964
11539TIP3   OH234559   3.837   7.066   2.910
11539TIP3    H134560   3.889   7.143   2.934
11539TIP3    H234561   3.876   6.994   2.960
11540TIP3   OH234562   1.319   1.620   4.953
11540TIP3    H134563   1.306   1.594   4.862
11540TIP3    H234564   1.390   1.563   4.985
11541TIP3   OH234565   2.806   5.265   5.607
11541TIP3    H134566   2.831   5.354   5.631
11541TIP3    H234567   2.761   5.275   5.523
11542TIP3   OH234568   3.678   6.628   3.208
11542TIP3    H134569   3.688   6.684   3.131
11542TIP3    H234570   3.694   6.539   3.175
11543TIP3   OH234571   3.009   1.637   4.838
11543TIP3    H134572   3.024   1.545   4.818
11543TIP3    H234573   3.097   1.673   4.852
11544TIP3   OH234574   6.430   2.152   1.432
11544TIP3    H134575   6.420   2.179   1.524
11544TIP3    H234576   6.524   2.139   1.421
11545TIP3   OH234577   2.182   2.001   2.537
11545TIP3    H134578   2.149   1.994   2.447
11545TIP3    H234579   2.174   1.913   2.573
11546TIP3   OH234580   6.346   4.464   1.225
11546TIP3    H134581   6.413   4.493   1.287
11546TIP3    H234582   6.379   4.492   1.140
11547TIP3   OH234583   1.148   0.479   1.420
11547TIP3    H134584   1.215   0.536   1.456
11547TIP3    H234585   1.065   0.525   1.435
11548TIP3   OH234586   2.839   5.463   1.014
11548TIP3    H134587   2.862   5.461   0.921
11548TIP3    H234588   2.898   5.399   1.055
11549TIP3   OH234589   0.051   1.493   5.644
11549TIP3    H134590   0.084   1.430   5.580
11549TIP3    H234591   0.073   1.579   5.607
11550TIP3   OH234592   8.250   3.209   5.505
11550TIP3    H134593   8.214   3.268   5.571
11550TIP3    H234594   8.253   3.123   5.548
11551TIP3   OH234595   7.305   4.343   1.928
11551TIP3    H134596   7.266   4.268   1.882
11551TIP3    H234597   7.372   4.375   1.869
11552TIP3   OH234598   2.773   5.081   3.649
11552TIP3    H134599   2.739   4.992   3.641
11552TIP3    H234600   2.857   5.080   3.604
11553TIP3   OH234601   6.567   3.082   2.308
11553TIP3    H134602   6.522   3.160   2.276
11553TIP3    H234603   6.512   3.050   2.380
11554TIP3   OH234604   2.797   3.222   1.135
11554TIP3    H134605   2.815   3.193   1.225
11554TIP3    H234606   2.870   3.281   1.114
11555TIP3   OH234607   6.177   3.551   3.645
11555TIP3    H134608   6.157   3.513   3.731
11555TIP3    H234609   6.265   3.587   3.654
11556TIP3   OH234610   2.665   3.865   3.661
11556TIP3    H134611   2.602   3.938   3.661
11556TIP3    H234612   2.653   3.824   3.746
11557TIP3   OH234613   5.542   5.954   3.937
11557TIP3    H134614   5.525   6.017   4.007
11557TIP3    H234615   5.467   5.894   3.939
11558TIP3   OH234616   6.676   2.295   0.183
11558TIP3    H134617   6.637   2.262   0.264
11558TIP3    H234618   6.607   2.348   0.143
11559TIP3   OH234619   0.873   6.918   6.254
11559TIP3    H134620   0.851   6.991   6.312
11559TIP3    H234621   0.911   6.852   6.312
11560TIP3   OH234622   6.598   1.473   6.271
11560TIP3    H134623   6.590   1.418   6.349
11560TIP3    H234624   6.583   1.413   6.197
11561TIP3   OH234625   2.037   1.724   1.853
11561TIP3    H134626   2.110   1.697   1.797
11561TIP3    H234627   1.959   1.689   1.809
11562TIP3   OH234628   0.176   2.354   0.560
11562TIP3    H134629   0.097   2.343   0.613
11562TIP3    H234630   0.175   2.446   0.534
11563TIP3   OH234631   3.902   4.302   0.467
11563TIP3    H134632   3.868   4.390   0.454
11563TIP3    H234633   3.859   4.249   0.400
11564TIP3   OH234634   2.390   1.390   2.149
11564TIP3    H134635   2.340   1.334   2.207
11564TIP3    H234636   2.324   1.443   2.104
11565TIP3   OH234637   7.486   7.349   4.755
11565TIP3    H134638   7.578   7.332   4.733
11565TIP3    H234639   7.481   7.335   4.850
11566TIP3   OH234640   5.921   2.824   2.752
11566TIP3    H134641   5.962   2.738   2.745
11566TIP3    H234642   5.895   2.831   2.844
11567TIP3   OH234643   2.654   3.026   3.664
11567TIP3    H134644   2.639   2.981   3.581
11567TIP3    H234645   2.742   2.998   3.691
11568TIP3   OH234646   2.426   5.204   5.749
11568TIP3    H134647   2.388   5.119   5.774
11568TIP3    H234648   2.505   5.211   5.804
11569TIP3   OH234649   8.293   1.413   6.134
11569TIP3    H134650   8.237   1.381   6.064
11569TIP3    H234651   8.316   1.335   6.185
11570TIP3   OH234652   7.079   4.202   0.024
11570TIP3    H134653   7.152   4.200  -0.038
11570TIP3    H234654   7.120   4.206   0.110
11571TIP3   OH234655   0.117   4.579   2.987
11571TIP3    H134656   0.029   4.541   2.987
11571TIP3    H234657   0.139   4.587   3.080
11572TIP3   OH234658   1.184   2.967   2.516
11572TIP3    H134659   1.278   2.971   2.535
11572TIP3    H234660   1.161   3.055   2.486
11573TIP3   OH234661   2.485   0.821   5.183
11573TIP3    H134662   2.397   0.805   5.215
11573TIP3    H234663   2.473   0.857   5.095
11574TIP3   OH234664   3.076   4.858   0.382
11574TIP3    H134665   3.126   4.826   0.308
11574TIP3    H234666   3.067   4.782   0.440
11575TIP3   OH234667   5.921   3.448   3.290
11575TIP3    H134668   5.979   3.394   3.237
11575TIP3    H234669   5.864   3.386   3.336
11576TIP3   OH234670   2.831   7.605   6.530
11576TIP3    H134671   2.917   7.646   6.521
11576TIP3    H234672   2.798   7.598   6.441
11577TIP3   OH234673   3.808   1.795   4.151
11577TIP3    H134674   3.717   1.807   4.180
11577TIP3    H234675   3.829   1.705   4.176
11578TIP3   OH234676   5.131   2.281   4.869
11578TIP3    H134677   5.226   2.270   4.862
11578TIP3    H234678   5.119   2.347   4.937
11579TIP3   OH234679   6.792   2.965   1.890
11579TIP3    H134680   6.768   3.044   1.939
11579TIP3    H234681   6.872   2.989   1.843
11580TIP3   OH234682   5.439   0.386   5.560
11580TIP3    H134683   5.476   0.350   5.640
11580TIP3    H234684   5.352   0.347   5.554
11581TIP3   OH234685   5.319   0.029   1.815
11581TIP3    H134686   5.380  -0.014   1.874
11581TIP3    H234687   5.257  -0.040   1.791
11582TIP3   OH234688   6.157   6.648   2.649
11582TIP3    H134689   6.166   6.739   2.621
11582TIP3    H234690   6.240   6.627   2.691
11583TIP3   OH234691   1.310   4.351   0.643
11583TIP3    H134692   1.231   4.343   0.695
11583TIP3    H234693   1.343   4.439   0.663
11584TIP3   OH234694   5.033   3.112   2.880
11584TIP3    H134695   5.009   3.107   2.973
11584TIP3    H234696   5.043   3.021   2.853
11585TIP3   OH234697   0.147   5.319   2.326
11585TIP3    H134698   0.142   5.224   2.333
11585TIP3    H234699   0.058   5.349   2.341
11586TIP3   OH234700   6.661   4.760   1.575
11586TIP3    H134701   6.728   4.815   1.536
11586TIP3    H234702   6.586   4.818   1.586
11587TIP3   OH234703   7.027   4.640   5.418
11587TIP3    H134704   7.120   4.658   5.406
11587TIP3    H234705   7.022   4.545   5.427
11588TIP3   OH234706   2.631   7.336   6.418
11588TIP3    H134707   2.586   7.359   6.499
11588TIP3    H234708   2.654   7.420   6.379
11589TIP3   OH234709   1.505   0.338   5.042
11589TIP3    H134710   1.570   0.267   5.052
11589TIP3    H234711   1.549   0.415   5.076
11590TIP3   OH234712   4.896   3.801   4.121
11590TIP3    H134713   4.848   3.741   4.179
11590TIP3    H234714   4.834   3.820   4.050
11591TIP3   OH234715   5.178   4.469   4.781
11591TIP3    H134716   5.131   4.538   4.734
11591TIP3    H234717   5.108   4.416   4.821
11592TIP3   OH234718   2.756   4.919   2.559
11592TIP3    H134719   2.818   4.899   2.488
11592TIP3    H234720   2.773   5.010   2.581
11593TIP3   OH234721   7.067   2.424   1.732
11593TIP3    H134722   7.131   2.353   1.719
11593TIP3    H234723   7.052   2.458   1.644
11594TIP3   OH234724   4.397   4.830   4.466
11594TIP3    H134725   4.306   4.843   4.493
11594TIP3    H234726   4.416   4.905   4.410
11595TIP3   OH234727   4.528   3.620   4.991
11595TIP3    H134728   4.483   3.704   4.982
11595TIP3    H234729   4.547   3.613   5.085
11596TIP3   OH234730   7.836   4.890   0.333
11596TIP3    H134731   7.804   4.802   0.353
11596TIP3    H234732   7.785   4.917   0.256
11597TIP3   OH234733   2.288   4.830   2.561
11597TIP3    H134734   2.301   4.847   2.654
11597TIP3    H234735   2.367   4.784   2.533
11598TIP3   OH234736   1.448   4.497   5.142
11598TIP3    H134737   1.369   4.546   5.161
11598TIP3    H234738   1.441   4.474   5.050
11599TIP3   OH234739   1.371   6.759   4.082
11599TIP3    H134740   1.396   6.699   4.152
11599TIP3    H234741   1.444   6.756   4.020
11600TIP3   OH234742   7.914   4.457   5.215
11600TIP3    H134743   7.870   4.505   5.285
11600TIP3    H234744   7.989   4.416   5.257
11601TIP3   OH234745   5.898   6.764   2.805
11601TIP3    H134746   5.966   6.715   2.758
11601TIP3    H234747   5.937   6.850   2.822
11602TIP3   OH234748   4.864   3.233   4.555
11602TIP3    H134749   4.899   3.147   4.577
11602TIP3    H234750   4.930   3.271   4.496
11603TIP3   OH234751   8.125   2.203   0.595
11603TIP3    H134752   8.163   2.216   0.508
11603TIP3    H234753   8.031   2.192   0.579
11604TIP3   OH234754   4.833   1.206   4.636
11604TIP3    H134755   4.836   1.242   4.548
11604TIP3    H234756   4.742   1.216   4.664
11605TIP3   OH234757   6.379   4.221   1.453
11605TIP3    H134758   6.292   4.227   1.412
11605TIP3    H234759   6.431   4.170   1.391
11606TIP3   OH234760   4.453   6.300   3.155
11606TIP3    H134761   4.515   6.282   3.226
11606TIP3    H234762   4.482   6.243   3.083
11607TIP3   OH234763   5.721   4.636   5.316
11607TIP3    H134764   5.638   4.601   5.347
11607TIP3    H234765   5.772   4.653   5.395
11608TIP3   OH234766   0.668   7.263   5.644
11608TIP3    H134767   0.757   7.273   5.609
11608TIP3    H234768   0.647   7.349   5.680
11609TIP3   OH234769   6.135   1.630   4.516
11609TIP3    H134770   6.114   1.649   4.607
11609TIP3    H234771   6.219   1.674   4.501
11610TIP3   OH234772   7.760   7.137   3.411
11610TIP3    H134773   7.753   7.134   3.316
11610TIP3    H234774   7.671   7.158   3.441
11611TIP3   OH234775   4.838   0.048   2.600
11611TIP3    H134776   4.908  -0.004   2.561
11611TIP3    H234777   4.863   0.055   2.692
11612TIP3   OH234778   4.791   1.710   0.187
11612TIP3    H134779   4.844   1.787   0.168
11612TIP3    H234780   4.839   1.663   0.255
11613TIP3   OH234781   5.583   7.327   5.314
11613TIP3    H134782   5.526   7.379   5.256
11613TIP3    H234783   5.669   7.330   5.272
11614TIP3   OH234784   6.096   4.932   0.155
11614TIP3    H134785   6.174   4.938   0.101
11614TIP3    H234786   6.127   4.895   0.238
11615TIP3   OH234787   1.123   1.295   6.256
11615TIP3    H134788   1.204   1.346   6.264
11615TIP3    H234789   1.057   1.359   6.229
11616TIP3   OH234790   6.914   0.431   5.733
11616TIP3    H134791   6.863   0.352   5.721
11616TIP3    H234792   6.900   0.456   5.824
11617TIP3   OH234793   0.758   2.333   6.249
11617TIP3    H134794   0.842   2.287   6.260
11617TIP3    H234795   0.776   2.422   6.278
11618TIP3   OH234796   0.717   6.902   2.584
11618TIP3    H134797   0.657   6.848   2.635
11618TIP3    H234798   0.688   6.992   2.598
11619TIP3   OH234799   6.983   2.643   5.771
11619TIP3    H134800   6.983   2.572   5.707
11619TIP3    H234801   7.058   2.698   5.747
11620TIP3   OH234802   0.284   0.522   2.600
11620TIP3    H134803   0.305   0.575   2.677
11620TIP3    H234804   0.330   0.565   2.528
11621TIP3   OH234805   7.449   2.768   5.464
11621TIP3    H134806   7.543   2.776   5.481
11621TIP3    H234807   7.409   2.840   5.514
11622TIP3   OH234808   5.977   4.660   4.132
11622TIP3    H134809   6.022   4.744   4.142
11622TIP3    H234810   5.895   4.682   4.088
11623TIP3   OH234811   8.063   4.614   3.159
11623TIP3    H134812   8.079   4.570   3.075
11623TIP3    H234813   7.998   4.681   3.138
11624TIP3   OH234814   6.297   6.296   6.280
11624TIP3    H134815   6.314   6.202   6.288
11624TIP3    H234816   6.349   6.336   6.350
11625TIP3   OH234817   2.353   6.907   3.778
11625TIP3    H134818   2.385   6.818   3.766
11625TIP3    H234819   2.376   6.929   3.868
11626TIP3   OH234820   4.246   3.297   6.198
11626TIP3    H134821   4.274   3.244   6.272
11626TIP3    H234822   4.294   3.379   6.207
11627TIP3   OH234823   6.843   1.031   3.329
11627TIP3    H134824   6.837   0.936   3.338
11627TIP3    H234825   6.833   1.064   3.419
11628TIP3   OH234826   4.365   5.524   6.680
11628TIP3    H134827   4.354   5.484   6.766
11628TIP3    H234828   4.297   5.482   6.626
11629TIP3   OH234829   4.838   3.573   2.841
11629TIP3    H134830   4.781   3.650   2.835
11629TIP3    H234831   4.926   3.609   2.851
11630TIP3   OH234832   2.628   5.624   4.258
11630TIP3    H134833   2.597   5.570   4.186
11630TIP3    H234834   2.702   5.575   4.294
11631TIP3   OH234835   0.870   3.238   4.803
11631TIP3    H134836   0.864   3.331   4.781
11631TIP3    H234837   0.787   3.200   4.772
11632TIP3   OH234838   0.150   2.786   2.283
11632TIP3    H134839   0.140   2.835   2.365
11632TIP3    H234840   0.228   2.733   2.296
11633TIP3   OH234841   4.919   0.343   2.466
11633TIP3    H134842   4.879   0.426   2.441
11633TIP3    H234843   4.956   0.359   2.553
11634TIP3   OH234844   7.479   2.932   2.493
11634TIP3    H134845   7.398   2.965   2.455
11634TIP3    H234846   7.527   3.011   2.520
11635TIP3   OH234847   2.772   3.857   3.014
11635TIP3    H134848   2.693   3.811   2.988
11635TIP3    H234849   2.844   3.796   2.995
11636TIP3   OH234850   0.202   3.465   4.764
11636TIP3    H134851   0.211   3.557   4.738
11636TIP3    H234852   0.189   3.468   4.859
11637TIP3   OH234853   6.095   2.993   5.408
11637TIP3    H134854   6.186   2.965   5.413
11637TIP3    H234855   6.100   3.088   5.401
11638TIP3   OH234856   3.333   3.292   1.363
11638TIP3    H134857   3.239   3.295   1.380
11638TIP3    H234858   3.351   3.201   1.340
11639TIP3   OH234859   7.276   0.440   5.373
11639TIP3    H134860   7.337   0.452   5.446
11639TIP3    H234861   7.190   0.435   5.414
11640TIP3   OH234862   1.485   7.407   6.543
11640TIP3    H134863   1.543   7.398   6.618
11640TIP3    H234864   1.542   7.428   6.469
11641TIP3   OH234865   1.131   5.163   6.553
11641TIP3    H134866   1.126   5.084   6.608
11641TIP3    H234867   1.176   5.227   6.608
11642TIP3   OH234868   3.997   7.228   6.600
11642TIP3    H134869   3.932   7.237   6.529
11642TIP3    H234870   3.998   7.315   6.641
11643TIP3   OH234871   5.597   7.456   0.956
11643TIP3    H134872   5.675   7.406   0.978
11643TIP3    H234873   5.606   7.538   1.005
11644TIP3   OH234874   1.500   5.242   3.457
11644TIP3    H134875   1.477   5.234   3.550
11644TIP3    H234876   1.592   5.267   3.457
11645TIP3   OH234877   7.746   3.674   4.298
11645TIP3    H134878   7.654   3.653   4.317
11645TIP3    H234879   7.779   3.598   4.251
11646TIP3   OH234880   3.223   2.178   4.624
11646TIP3    H134881   3.155   2.148   4.563
11646TIP3    H234882   3.264   2.252   4.579
11647TIP3   OH234883   7.610   3.707   1.383
11647TIP3    H134884   7.537   3.686   1.325
11647TIP3    H234885   7.580   3.680   1.470
11648TIP3   OH234886   1.954   7.705   2.855
11648TIP3    H134887   2.007   7.689   2.777
11648TIP3    H234888   1.963   7.625   2.908
11649TIP3   OH234889   1.363   5.399   6.556
11649TIP3    H134890   1.398   5.359   6.476
11649TIP3    H234891   1.378   5.493   6.544
11650TIP3   OH234892   3.505   5.139   6.090
11650TIP3    H134893   3.442   5.153   6.019
11650TIP3    H234894   3.553   5.060   6.064
11651TIP3   OH234895   4.726   0.625   3.973
11651TIP3    H134896   4.806   0.573   3.978
11651TIP3    H234897   4.755   0.714   3.992
11652TIP3   OH234898   5.153   3.780   2.414
11652TIP3    H134899   5.127   3.856   2.466
11652TIP3    H234900   5.203   3.726   2.474
11653TIP3   OH234901   2.538   2.668   1.828
11653TIP3    H134902   2.555   2.649   1.735
11653TIP3    H234903   2.587   2.600   1.875
11654TIP3   OH234904   2.870   7.003   5.946
11654TIP3    H134905   2.945   6.989   6.004
11654TIP3    H234906   2.909   7.015   5.859
11655TIP3   OH234907   1.567   6.588   2.170
11655TIP3    H134908   1.574   6.630   2.256
11655TIP3    H234909   1.620   6.509   2.178
11656TIP3   OH234910   5.748   5.307   3.573
11656TIP3    H134911   5.741   5.252   3.651
11656TIP3    H234912   5.814   5.372   3.595
11657TIP3   OH234913   1.658   0.315   0.383
11657TIP3    H134914   1.632   0.395   0.430
11657TIP3    H234915   1.620   0.325   0.296
11658TIP3   OH234916   3.468   3.545   3.631
11658TIP3    H134917   3.374   3.550   3.616
11658TIP3    H234918   3.487   3.451   3.637
11659TIP3   OH234919   2.868   1.029   3.072
11659TIP3    H134920   2.839   0.953   3.122
11659TIP3    H234921   2.827   1.104   3.116
11660TIP3   OH234922   0.919   4.868   5.416
11660TIP3    H134923   0.912   4.895   5.324
11660TIP3    H234924   1.002   4.820   5.421
11661TIP3   OH234925   0.291   0.863   6.014
11661TIP3    H134926   0.269   0.781   6.057
11661TIP3    H234927   0.374   0.890   6.052
11662TIP3   OH234928   3.389   2.513   1.284
11662TIP3    H134929   3.450   2.467   1.226
11662TIP3    H234930   3.444   2.551   1.352
11663TIP3   OH234931   0.596   2.003   3.505
11663TIP3    H134932   0.559   2.044   3.583
11663TIP3    H234933   0.537   1.930   3.486
11664TIP3   OH234934   4.771   7.025   0.618
11664TIP3    H134935   4.707   7.014   0.547
11664TIP3    H234936   4.836   7.085   0.582
11665TIP3   OH234937   8.046   5.394   0.782
11665TIP3    H134938   8.019   5.389   0.873
11665TIP3    H234939   8.108   5.321   0.771
11666TIP3   OH234940   6.376   5.123   1.584
11666TIP3    H134941   6.397   5.030   1.579
11666TIP3    H234942   6.461   5.167   1.582
11667TIP3   OH234943   2.830   0.454   1.052
11667TIP3    H134944   2.888   0.505   1.110
11667TIP3    H234945   2.811   0.513   0.980
11668TIP3   OH234946   5.418   0.535   4.767
11668TIP3    H134947   5.510   0.513   4.754
11668TIP3    H234948   5.373   0.451   4.772
11669TIP3   OH234949   1.929   3.288   0.329
11669TIP3    H134950   1.922   3.200   0.364
11669TIP3    H234951   1.912   3.279   0.235
11670TIP3   OH234952   3.256   1.123   2.352
11670TIP3    H134953   3.220   1.038   2.378
11670TIP3    H234954   3.232   1.131   2.260
11671TIP3   OH234955   3.212   6.157   3.842
11671TIP3    H134956   3.267   6.189   3.913
11671TIP3    H234957   3.205   6.232   3.782
11672TIP3   OH234958   0.891   3.284   2.246
11672TIP3    H134959   0.882   3.354   2.181
11672TIP3    H234960   0.827   3.305   2.313
11673TIP3   OH234961   0.614   4.826   3.983
11673TIP3    H134962   0.671   4.888   3.938
11673TIP3    H234963   0.601   4.756   3.919
11674TIP3   OH234964   3.938   0.192   6.070
11674TIP3    H134965   3.843   0.182   6.066
11674TIP3    H234966   3.954   0.276   6.028
11675TIP3   OH234967   7.273   1.169   0.770
11675TIP3    H134968   7.356   1.152   0.726
11675TIP3    H234969   7.267   1.264   0.775
11676TIP3   OH234970   5.901   2.812   2.103
11676TIP3    H134971   5.843   2.735   2.104
11676TIP3    H234972   5.898   2.844   2.193
11677TIP3   OH234973   1.122   4.683   2.710
11677TIP3    H134974   1.104   4.618   2.643
11677TIP3    H234975   1.038   4.698   2.753
11678TIP3   OH234976   6.639   7.748   3.139
11678TIP3    H134977   6.619   7.735   3.232
11678TIP3    H234978   6.613   7.665   3.098
11679TIP3   OH234979   2.809   5.864   2.955
11679TIP3    H134980   2.813   5.948   3.000
11679TIP3    H234981   2.777   5.803   3.021
11680TIP3   OH234982   2.472   0.064   5.252
11680TIP3    H134983   2.443   0.141   5.203
11680TIP3    H234984   2.438  -0.011   5.202
11681TIP3   OH234985   6.828   5.528   0.869
11681TIP3    H134986   6.879   5.494   0.795
11681TIP3    H234987   6.744   5.553   0.830
11682TIP3   OH234988   6.730   7.156   6.149
11682TIP3    H134989   6.681   7.181   6.070
11682TIP3    H234990   6.821   7.170   6.126
11683TIP3   OH234991   2.705   6.993   6.626
11683TIP3    H134992   2.787   6.971   6.581
11683TIP3    H234993   2.698   6.930   6.697
11684TIP3   OH234994   6.443   0.649   3.785
11684TIP3    H134995   6.405   0.617   3.703
11684TIP3    H234996   6.518   0.701   3.757
11685TIP3   OH234997   0.356   2.163   1.345
11685TIP3    H134998   0.444   2.192   1.369
11685TIP3    H234999   0.300   2.238   1.363
11686TIP3   OH235000   3.331   6.167   6.317
11686TIP3    H135001   3.307   6.256   6.290
11686TIP3    H235002   3.257   6.113   6.291
11687TIP3   OH235003   1.564   5.038   0.924
11687TIP3    H135004   1.513   4.982   0.982
11687TIP3    H235005   1.568   5.122   0.969
11688TIP3   OH235006   7.592   3.723   0.433
11688TIP3    H135007   7.526   3.793   0.432
11688TIP3    H235008   7.625   3.720   0.344
11689TIP3   OH235009   7.207   4.213   0.265
11689TIP3    H135010   7.297   4.245   0.273
11689TIP3    H235011   7.170   4.224   0.353
11690TIP3   OH235012   1.580   3.418   3.874
11690TIP3    H135013   1.486   3.416   3.855
11690TIP3    H235014   1.614   3.486   3.816
11691TIP3   OH235015   5.484   7.611   4.286
11691TIP3    H135016   5.449   7.691   4.324
11691TIP3    H235017   5.454   7.612   4.195
11692TIP3   OH235018   3.923   1.659   5.202
11692TIP3    H135019   3.838   1.704   5.198
11692TIP3    H235020   3.900   1.566   5.206
11693TIP3   OH235021   7.209   4.064   4.757
11693TIP3    H135022   7.293   4.055   4.711
11693TIP3    H235023   7.156   4.118   4.699
11694TIP3   OH235024   6.220   2.275   4.849
11694TIP3    H135025   6.177   2.262   4.765
11694TIP3    H235026   6.311   2.251   4.834
11695TIP3   OH235027   2.679   4.101   6.362
11695TIP3    H135028   2.757   4.056   6.331
11695TIP3    H235029   2.619   4.099   6.287
11696TIP3   OH235030   6.709   0.809   4.528
11696TIP3    H135031   6.799   0.785   4.504
11696TIP3    H235032   6.700   0.899   4.498
11697TIP3   OH235033   1.348   2.088   1.104
11697TIP3    H135034   1.285   2.122   1.041
11697TIP3    H235035   1.301   2.089   1.188
11698TIP3   OH235036   5.003   1.184   0.428
11698TIP3    H135037   5.020   1.274   0.458
11698TIP3    H235038   5.086   1.155   0.392
11699TIP3   OH235039   1.879   2.330   4.914
11699TIP3    H135040   1.820   2.405   4.900
11699TIP3    H235041   1.833   2.276   4.978
11700TIP3   OH235042   5.366   4.145   3.668
11700TIP3    H135043   5.354   4.227   3.620
11700TIP3    H235044   5.425   4.093   3.613
11701TIP3   OH235045   4.350   7.502   1.600
11701TIP3    H135046   4.347   7.591   1.565
11701TIP3    H235047   4.341   7.513   1.694
11702TIP3   OH235048   1.493   2.937   3.153
11702TIP3    H135049   1.408   2.902   3.180
11702TIP3    H235050   1.557   2.877   3.191
11703TIP3   OH235051   5.974   7.566   5.964
11703TIP3    H135052   5.963   7.494   5.902
11703TIP3    H235053   6.002   7.640   5.909
11704TIP3   OH235054   4.152   2.692   5.983
11704TIP3    H135055   4.099   2.680   6.062
11704TIP3    H235056   4.235   2.649   6.003
11705TIP3   OH235057   7.566   3.863   3.353
11705TIP3    H135058   7.616   3.888   3.276
11705TIP3    H235059   7.475   3.858   3.323
11706TIP3   OH235060   2.762   2.330   4.365
11706TIP3    H135061   2.855   2.316   4.348
11706TIP3    H235062   2.753   2.425   4.372
11707TIP3   OH235063   3.245   5.821   5.693
11707TIP3    H135064   3.244   5.869   5.610
11707TIP3    H235065   3.302   5.746   5.676
11708TIP3   OH235066   3.519   5.908   0.916
11708TIP3    H135067   3.430   5.935   0.941
11708TIP3    H235068   3.575   5.981   0.943
11709TIP3   OH235069   3.381   4.574   5.168
11709TIP3    H135070   3.471   4.582   5.199
11709TIP3    H235071   3.368   4.648   5.109
11710TIP3   OH235072   1.963   2.393   5.266
11710TIP3    H135073   2.047   2.424   5.231
11710TIP3    H235074   1.901   2.411   5.195
11711TIP3   OH235075   7.709   5.508   0.123
11711TIP3    H135076   7.705   5.566   0.046
11711TIP3    H235077   7.798   5.471   0.120
11712TIP3   OH235078   6.245   6.134   6.586
11712TIP3    H135079   6.324   6.088   6.613
11712TIP3    H235080   6.234   6.203   6.651
11713TIP3   OH235081   0.253   3.208   2.254
11713TIP3    H135082   0.322   3.153   2.292
11713TIP3    H235083   0.183   3.206   2.320
11714TIP3   OH235084   5.623   4.097   4.820
11714TIP3    H135085   5.708   4.141   4.814
11714TIP3    H235086   5.574   4.129   4.744
11715TIP3   OH235087   2.650   6.630   1.734
11715TIP3    H135088   2.683   6.715   1.705
11715TIP3    H235089   2.721   6.593   1.786
11716TIP3   OH235090   4.404   3.946   3.388
11716TIP3    H135091   4.356   3.897   3.321
11716TIP3    H235092   4.373   3.911   3.471
11717TIP3   OH235093   5.479   2.257   0.732
11717TIP3    H135094   5.519   2.182   0.687
11717TIP3    H235095   5.463   2.321   0.662
11718TIP3   OH235096   5.358   7.543   6.369
11718TIP3    H135097   5.299   7.608   6.406
11718TIP3    H235098   5.415   7.593   6.310
11719TIP3   OH235099   0.593   2.931   1.751
11719TIP3    H135100   0.517   2.979   1.784
11719TIP3    H235101   0.569   2.838   1.760
11720TIP3   OH235102   3.201   4.433   2.894
11720TIP3    H135103   3.285   4.391   2.872
11720TIP3    H235104   3.137   4.385   2.842
11721TIP3   OH235105   6.059   3.318   6.632
11721TIP3    H135106   6.005   3.247   6.666
11721TIP3    H235107   6.144   3.278   6.613
11722TIP3   OH235108   5.274   6.145   5.754
11722TIP3    H135109   5.283   6.156   5.848
11722TIP3    H235110   5.187   6.106   5.743
11723TIP3   OH235111   6.093   4.147   5.685
11723TIP3    H135112   6.167   4.205   5.672
11723TIP3    H235113   6.067   4.121   5.597
11724TIP3   OH235114   2.648   2.155   0.770
11724TIP3    H135115   2.683   2.238   0.804
11724TIP3    H235116   2.692   2.087   0.822
11725TIP3   OH235117   2.280   0.314   2.200
11725TIP3    H135118   2.230   0.289   2.277
11725TIP3    H235119   2.364   0.344   2.234
11726TIP3   OH235120   4.315   0.269   0.542
11726TIP3    H135121   4.395   0.316   0.565
11726TIP3    H235122   4.263   0.269   0.623
11727TIP3   OH235123   5.525   0.751   1.589
11727TIP3    H135124   5.604   0.794   1.620
11727TIP3    H235125   5.509   0.789   1.502
11728TIP3   OH235126   3.514   4.551   0.539
11728TIP3    H135127   3.554   4.629   0.578
11728TIP3    H235128   3.524   4.484   0.607
11729TIP3   OH235129   6.969   6.373   2.131
11729TIP3    H135130   7.021   6.293   2.140
11729TIP3    H235131   7.028   6.436   2.090
11730TIP3   OH235132   3.371   3.622   4.791
11730TIP3    H135133   3.364   3.527   4.782
11730TIP3    H235134   3.429   3.635   4.866
11731TIP3   OH235135   7.417   5.965   3.465
11731TIP3    H135136   7.497   6.007   3.432
11731TIP3    H235137   7.354   6.037   3.473
11732TIP3   OH235138   1.097   2.610   4.352
11732TIP3    H135139   1.022   2.669   4.360
11732TIP3    H235140   1.095   2.582   4.260
11733TIP3   OH235141   2.851   2.839   3.584
11733TIP3    H135142   2.822   2.764   3.637
11733TIP3    H235143   2.861   2.804   3.496
11734TIP3   OH235144   3.789   2.842   5.705
11734TIP3    H135145   3.739   2.914   5.667
11734TIP3    H235146   3.868   2.883   5.740
11735TIP3   OH235147   2.861   7.455   1.458
11735TIP3    H135148   2.832   7.497   1.377
11735TIP3    H235149   2.838   7.518   1.527
11736TIP3   OH235150   1.461   1.587   1.773
11736TIP3    H135151   1.453   1.629   1.687
11736TIP3    H235152   1.378   1.607   1.818
11737TIP3   OH235153   2.465   0.942   4.248
11737TIP3    H135154   2.411   0.892   4.309
11737TIP3    H235155   2.530   0.985   4.303
11738TIP3   OH235156   4.328   6.885   6.285
11738TIP3    H135157   4.403   6.874   6.343
11738TIP3    H235158   4.259   6.921   6.340
11739TIP3   OH235159   7.164   5.656   5.026
11739TIP3    H135160   7.152   5.693   5.114
11739TIP3    H235161   7.258   5.642   5.019
11740TIP3   OH235162   8.121   6.909   3.626
11740TIP3    H135163   8.086   6.998   3.636
11740TIP3    H235164   8.060   6.865   3.567
11741TIP3   OH235165   6.389   2.274   3.176
11741TIP3    H135166   6.398   2.338   3.246
11741TIP3    H235167   6.307   2.296   3.133
11742TIP3   OH235168   2.275   6.120   0.644
11742TIP3    H135169   2.217   6.051   0.611
11742TIP3    H235170   2.359   6.104   0.602
11743TIP3   OH235171   1.885   0.258   6.187
11743TIP3    H135172   1.848   0.182   6.232
11743TIP3    H235173   1.814   0.322   6.186
11744TIP3   OH235174   1.212   6.686   6.008
11744TIP3    H135175   1.289   6.682   6.066
11744TIP3    H235176   1.244   6.731   5.930
11745TIP3   OH235177   2.104   5.888   2.466
11745TIP3    H135178   2.109   5.902   2.371
11745TIP3    H235179   2.038   5.951   2.496
11746TIP3   OH235180   7.085   7.354   4.409
11746TIP3    H135181   7.150   7.286   4.427
11746TIP3    H235182   7.135   7.426   4.370
11747TIP3   OH235183   0.628   3.604   1.176
11747TIP3    H135184   0.703   3.554   1.208
11747TIP3    H235185   0.565   3.601   1.248
11748TIP3   OH235186   7.350   3.555   2.709
11748TIP3    H135187   7.290   3.525   2.641
11748TIP3    H235188   7.365   3.647   2.690
11749TIP3   OH235189   3.515   4.776   6.435
11749TIP3    H135190   3.585   4.828   6.475
11749TIP3    H235191   3.462   4.841   6.389
11750TIP3   OH235192   6.420   4.242   4.555
11750TIP3    H135193   6.392   4.204   4.472
11750TIP3    H235194   6.414   4.336   4.542
11751TIP3   OH235195   0.903   3.249   1.499
11751TIP3    H135196   0.968   3.276   1.434
11751TIP3    H235197   0.856   3.330   1.522
11752TIP3   OH235198   5.689   5.392   6.384
11752TIP3    H135199   5.769   5.444   6.373
11752TIP3    H235200   5.633   5.447   6.440
11753TIP3   OH235201   1.993   3.507   4.741
11753TIP3    H135202   2.059   3.524   4.674
11753TIP3    H235203   1.973   3.413   4.732
11754TIP3   OH235204   2.833   7.156   3.951
11754TIP3    H135205   2.841   7.138   4.044
11754TIP3    H235206   2.744   7.191   3.941
11755TIP3   OH235207   2.516   6.352   4.797
11755TIP3    H135208   2.562   6.406   4.861
11755TIP3    H235209   2.550   6.263   4.813
11756TIP3   OH235210   7.327   5.598   1.663
11756TIP3    H135211   7.238   5.609   1.628
11756TIP3    H235212   7.357   5.687   1.679
11757TIP3   OH235213   3.468   3.467   2.156
11757TIP3    H135214   3.388   3.416   2.150
11757TIP3    H235215   3.442   3.548   2.201
11758TIP3   OH235216   3.465   7.691   4.196
11758TIP3    H135217   3.419   7.763   4.239
11758TIP3    H235218   3.556   7.701   4.225
11759TIP3   OH235219   3.400   4.482   1.477
11759TIP3    H135220   3.312   4.519   1.485
11759TIP3    H235221   3.395   4.399   1.524
11760TIP3   OH235222   7.668   5.604   2.680
11760TIP3    H135223   7.710   5.586   2.596
11760TIP3    H235224   7.680   5.523   2.730
11761TIP3   OH235225   2.441   6.646   4.770
11761TIP3    H135226   2.416   6.570   4.718
11761TIP3    H235227   2.517   6.617   4.821
11762TIP3   OH235228   2.520   2.831   6.538
11762TIP3    H135229   2.487   2.917   6.563
11762TIP3    H235230   2.474   2.770   6.597
11763TIP3   OH235231   3.241   4.415   4.520
11763TIP3    H135232   3.315   4.369   4.561
11763TIP3    H235233   3.276   4.502   4.500
11764TIP3   OH235234   5.988   4.028   2.441
11764TIP3    H135235   6.029   3.948   2.408
11764TIP3    H235236   5.894   4.012   2.431
11765TIP3   OH235237   7.807   2.064   0.581
11765TIP3    H135238   7.804   1.968   0.582
11765TIP3    H235239   7.841   2.089   0.667
11766TIP3   OH235240   2.265   6.498   6.247
11766TIP3    H135241   2.328   6.568   6.228
11766TIP3    H235242   2.220   6.484   6.164
11767TIP3   OH235243   6.488   7.475   4.642
11767TIP3    H135244   6.449   7.553   4.604
11767TIP3    H235245   6.433   7.403   4.610
11768TIP3   OH235246   4.466   6.982   6.014
11768TIP3    H135247   4.420   6.977   6.097
11768TIP3    H235248   4.435   6.906   5.964
11769TIP3   OH235249   3.608   7.241   2.525
11769TIP3    H135250   3.592   7.173   2.590
11769TIP3    H235251   3.681   7.293   2.561
11770TIP3   OH235252   7.523   3.130   6.741
11770TIP3    H135253   7.567   3.045   6.736
11770TIP3    H235254   7.578   3.189   6.691
11771TIP3   OH235255   2.387   0.134   5.667
11771TIP3    H135256   2.479   0.160   5.668
11771TIP3    H235257   2.338   0.216   5.662
11772TIP3   OH235258   2.875   5.608   5.365
11772TIP3    H135259   2.956   5.560   5.383
11772TIP3    H235260   2.889   5.649   5.280
11773TIP3   OH235261   6.785   6.837   0.021
11773TIP3    H135262   6.760   6.910  -0.036
11773TIP3    H235263   6.845   6.875   0.085
11774TIP3   OH235264   5.841   0.131   3.415
11774TIP3    H135265   5.890   0.069   3.468
11774TIP3    H235266   5.769   0.158   3.471
11775TIP3   OH235267   0.810   3.545   3.737
11775TIP3    H135268   0.738   3.552   3.799
11775TIP3    H235269   0.800   3.621   3.680
11776TIP3   OH235270   0.654   6.582   0.987
11776TIP3    H135271   0.708   6.598   0.909
11776TIP3    H235272   0.628   6.669   1.016
11777TIP3   OH235273   5.365   6.621   0.564
11777TIP3    H135274   5.439   6.597   0.620
11777TIP3    H235275   5.370   6.716   0.557
11778TIP3   OH235276   5.281   0.565   0.641
11778TIP3    H135277   5.353   0.615   0.603
11778TIP3    H235278   5.322   0.485   0.674
11779TIP3   OH235279   1.622   2.489   4.908
11779TIP3    H135280   1.618   2.523   4.998
11779TIP3    H235281   1.537   2.448   4.895
11780TIP3   OH235282   4.016   2.417   4.868
11780TIP3    H135283   4.014   2.490   4.930
11780TIP3    H235284   3.926   2.409   4.836
11781TIP3   OH235285   5.299   2.621   0.106
11781TIP3    H135286   5.245   2.682   0.055
11781TIP3    H235287   5.378   2.609   0.053
11782TIP3   OH235288   4.116   2.841   2.883
11782TIP3    H135289   4.082   2.894   2.955
11782TIP3    H235290   4.186   2.894   2.845
11783TIP3   OH235291   4.015   5.782   1.307
11783TIP3    H135292   4.038   5.791   1.215
11783TIP3    H235293   3.925   5.814   1.313
11784TIP3   OH235294   2.612   7.162   3.123
11784TIP3    H135295   2.593   7.082   3.171
11784TIP3    H235296   2.676   7.137   3.057
11785TIP3   OH235297   4.669   1.183   6.789
11785TIP3    H135298   4.598   1.153   6.732
11785TIP3    H235299   4.645   1.273   6.811
11786TIP3   OH235300   1.378   3.677   5.958
11786TIP3    H135301   1.447   3.662   6.022
11786TIP3    H235302   1.411   3.748   5.903
11787TIP3   OH235303   7.378   4.303   2.177
11787TIP3    H135304   7.383   4.306   2.082
11787TIP3    H235305   7.443   4.238   2.203
11788TIP3   OH235306   5.535   0.191   0.895
11788TIP3    H135307   5.559   0.180   0.803
11788TIP3    H235308   5.615   0.173   0.944
11789TIP3   OH235309   0.539   2.512   6.690
11789TIP3    H135310   0.541   2.450   6.764
11789TIP3    H235311   0.533   2.456   6.613
11790TIP3   OH235312   6.088   5.236   0.585
11790TIP3    H135313   5.994   5.240   0.605
11790TIP3    H235314   6.126   5.310   0.632
11791TIP3   OH235315   2.079   5.511   3.390
11791TIP3    H135316   2.093   5.585   3.331
11791TIP3    H235317   2.095   5.546   3.478
11792TIP3   OH235318   1.068   0.681   0.932
11792TIP3    H135319   1.069   0.716   1.021
11792TIP3    H235320   1.103   0.752   0.878
11793TIP3   OH235321   7.753   1.579   1.404
11793TIP3    H135322   7.803   1.499   1.385
11793TIP3    H235323   7.790   1.612   1.486
11794TIP3   OH235324   6.642   5.289   0.446
11794TIP3    H135325   6.629   5.282   0.352
11794TIP3    H235326   6.613   5.205   0.481
11795TIP3   OH235327   5.012   2.769   6.721
11795TIP3    H135328   5.052   2.834   6.664
11795TIP3    H235329   4.993   2.695   6.664
11796TIP3   OH235330   1.474   6.367   5.188
11796TIP3    H135331   1.436   6.378   5.102
11796TIP3    H235332   1.447   6.280   5.216
11797TIP3   OH235333   4.940   5.214   3.907
11797TIP3    H135334   4.972   5.139   3.957
11797TIP3    H235335   4.951   5.288   3.966
11798TIP3   OH235336   5.357   5.789   0.682
11798TIP3    H135337   5.366   5.697   0.706
11798TIP3    H235338   5.327   5.832   0.763
11799TIP3   OH235339   2.129   7.704   0.062
11799TIP3    H135340   2.121   7.650  -0.016
11799TIP3    H235341   2.137   7.642   0.134
11800TIP3   OH235342   5.734   3.054   6.578
11800TIP3    H135343   5.650   3.030   6.617
11800TIP3    H235344   5.762   3.132   6.625
11801TIP3   OH235345   3.448   3.684   5.693
11801TIP3    H135346   3.409   3.597   5.695
11801TIP3    H235347   3.375   3.745   5.705
11802TIP3   OH235348   7.076   0.690   1.220
11802TIP3    H135349   7.121   0.699   1.304
11802TIP3    H235350   7.043   0.600   1.220
11803TIP3   OH235351   0.842   1.977   4.375
11803TIP3    H135352   0.863   1.897   4.424
11803TIP3    H235353   0.850   2.048   4.438
11804TIP3   OH235354   6.040   5.368   5.712
11804TIP3    H135355   6.051   5.346   5.805
11804TIP3    H235356   6.121   5.338   5.671
11805TIP3   OH235357   1.889   7.609   6.607
11805TIP3    H135358   1.910   7.540   6.670
11805TIP3    H235359   1.891   7.689   6.659
11806TIP3   OH235360   4.997   4.115   1.299
11806TIP3    H135361   4.925   4.178   1.299
11806TIP3    H235362   5.032   4.119   1.210
11807TIP3   OH235363   5.972   2.684   4.155
11807TIP3    H135364   6.008   2.754   4.209
11807TIP3    H235365   5.891   2.721   4.119
11808TIP3   OH235366  -0.034   7.185   4.280
11808TIP3    H135367   0.036   7.245   4.253
11808TIP3    H235368  -0.071   7.225   4.359
11809TIP3   OH235369   0.464   2.352   2.298
11809TIP3    H135370   0.404   2.422   2.271
11809TIP3    H235371   0.514   2.332   2.219
11810TIP3   OH235372   4.646   5.733   5.979
11810TIP3    H135373   4.566   5.772   5.943
11810TIP3    H235374   4.715   5.795   5.954
11811TIP3   OH235375   5.105   2.698   6.211
11811TIP3    H135376   5.067   2.646   6.140
11811TIP3    H235377   5.196   2.670   6.215
11812TIP3   OH235378   4.812   1.889   1.535
11812TIP3    H135379   4.791   1.877   1.628
11812TIP3    H235380   4.768   1.816   1.491
11813TIP3   OH235381   5.146   6.551   3.652
11813TIP3    H135382   5.211   6.510   3.708
11813TIP3    H235383   5.106   6.478   3.603
11814TIP3   OH235384   1.937   2.940   1.865
11814TIP3    H135385   1.957   2.902   1.779
11814TIP3    H235386   1.899   2.868   1.915
11815TIP3   OH235387   0.560   5.214   1.789
11815TIP3    H135388   0.610   5.154   1.735
11815TIP3    H235389   0.470   5.202   1.762
11816TIP3   OH235390   2.179   1.962   1.609
11816TIP3    H135391   2.265   1.930   1.584
11816TIP3    H235392   2.130   1.967   1.527
11817TIP3   OH235393   2.652   7.394   3.251
11817TIP3    H135394   2.635   7.310   3.209
11817TIP3    H235395   2.724   7.432   3.201
11818TIP3   OH235396   2.883   1.819   5.183
11818TIP3    H135397   2.947   1.890   5.178
11818TIP3    H235398   2.845   1.815   5.095
11819TIP3   OH235399   6.836   0.582   3.820
11819TIP3    H135400   6.787   0.649   3.773
11819TIP3    H235401   6.769   0.534   3.870
11820TIP3   OH235402   6.942   4.715   2.509
11820TIP3    H135403   6.871   4.727   2.446
11820TIP3    H235404   6.925   4.780   2.577
11821TIP3   OH235405   5.572   6.005   4.629
11821TIP3    H135406   5.662   6.025   4.603
11821TIP3    H235407   5.549   5.926   4.581
11822TIP3   OH235408   4.874   7.284   6.023
11822TIP3    H135409   4.874   7.311   5.932
11822TIP3    H235410   4.964   7.296   6.052
11823TIP3   OH235411   4.462   2.206   0.564
11823TIP3    H135412   4.369   2.195   0.544
11823TIP3    H235413   4.507   2.171   0.487
11824TIP3   OH235414   1.856   4.469   1.170
11824TIP3    H135415   1.840   4.407   1.099
11824TIP3    H235416   1.873   4.552   1.126
11825TIP3   OH235417   8.148   1.775   3.454
11825TIP3    H135418   8.072   1.717   3.463
11825TIP3    H235419   8.110   1.863   3.446
11826TIP3   OH235420   7.567   0.382   1.889
11826TIP3    H135421   7.625   0.368   1.814
11826TIP3    H235422   7.563   0.298   1.933
11827TIP3   OH235423   0.104   3.512   3.421
11827TIP3    H135424   0.080   3.423   3.449
11827TIP3    H235425   0.021   3.553   3.398
11828TIP3   OH235426   1.521   5.911   5.678
11828TIP3    H135427   1.541   6.004   5.691
11828TIP3    H235428   1.461   5.909   5.604
11829TIP3   OH235429   0.202   3.936   3.092
11829TIP3    H135430   0.256   3.866   3.056
11829TIP3    H235431   0.124   3.892   3.125
11830TIP3   OH235432   4.191   5.927   2.351
11830TIP3    H135433   4.191   6.016   2.385
11830TIP3    H235434   4.133   5.930   2.275
11831TIP3   OH235435   7.881   7.023   6.526
11831TIP3    H135436   7.808   7.082   6.512
11831TIP3    H235437   7.904   7.035   6.619
11832TIP3   OH235438   0.215   6.088   1.403
11832TIP3    H135439   0.152   6.110   1.335
11832TIP3    H235440   0.242   5.998   1.383
11833TIP3   OH235441   1.825   7.018   5.598
11833TIP3    H135442   1.804   7.070   5.520
11833TIP3    H235443   1.835   7.083   5.668
11834TIP3   OH235444   4.182   1.272   0.794
11834TIP3    H135445   4.272   1.266   0.760
11834TIP3    H235446   4.187   1.234   0.881
11835TIP3   OH235447   3.460   1.925   4.926
11835TIP3    H135448   3.514   1.984   4.873
11835TIP3    H235449   3.408   1.984   4.980
11836TIP3   OH235450   8.316   5.306   3.494
11836TIP3    H135451   8.370   5.260   3.429
11836TIP3    H235452   8.230   5.265   3.487
11837TIP3   OH235453   5.332   7.288   1.746
11837TIP3    H135454   5.312   7.205   1.789
11837TIP3    H235455   5.416   7.315   1.785
11838TIP3   OH235456   5.474   6.896   1.694
11838TIP3    H135457   5.514   6.812   1.720
11838TIP3    H235458   5.546   6.959   1.697
11839TIP3   OH235459   1.654   2.561   2.372
11839TIP3    H135460   1.675   2.625   2.304
11839TIP3    H235461   1.682   2.477   2.336
11840TIP3   OH235462   7.261   7.048   4.221
11840TIP3    H135463   7.182   7.061   4.169
11840TIP3    H235464   7.296   6.964   4.192
11841TIP3   OH235465   6.486   4.790   4.134
11841TIP3    H135466   6.478   4.824   4.045
11841TIP3    H235467   6.570   4.824   4.165
11842TIP3   OH235468   6.013   2.885   3.272
11842TIP3    H135469   6.050   2.971   3.291
11842TIP3    H235470   6.086   2.824   3.285
11843TIP3   OH235471   1.300   0.149   4.678
11843TIP3    H135472   1.242   0.197   4.619
11843TIP3    H235473   1.353   0.217   4.720
11844TIP3   OH235474   0.709   3.011   5.537
11844TIP3    H135475   0.667   2.930   5.567
11844TIP3    H235476   0.791   2.983   5.498
11845TIP3   OH235477   4.281   1.543   2.240
11845TIP3    H135478   4.323   1.628   2.252
11845TIP3    H235479   4.191   1.564   2.215
11846TIP3   OH235480   3.344   2.401   3.486
11846TIP3    H135481   3.415   2.452   3.524
11846TIP3    H235482   3.372   2.310   3.496
11847TIP3   OH235483   2.725   3.147   6.048
11847TIP3    H135484   2.673   3.067   6.040
11847TIP3    H235485   2.662   3.214   6.075
11848TIP3   OH235486   3.462   2.076   0.614
11848TIP3    H135487   3.553   2.057   0.634
11848TIP3    H235488   3.448   2.166   0.645
11849TIP3   OH235489   6.431   5.329   0.952
11849TIP3    H135490   6.402   5.248   0.996
11849TIP3    H235491   6.497   5.365   1.010
11850TIP3   OH235492   7.127   1.141   3.713
11850TIP3    H135493   7.127   1.089   3.794
11850TIP3    H235494   7.167   1.084   3.648
11851TIP3   OH235495   0.469   3.889   6.000
11851TIP3    H135496   0.439   3.864   5.913
11851TIP3    H235497   0.440   3.817   6.057
11852TIP3   OH235498   4.047   3.404   2.710
11852TIP3    H135499   4.105   3.452   2.651
11852TIP3    H235500   3.982   3.469   2.738
11853TIP3   OH235501   6.674   6.760   0.425
11853TIP3    H135502   6.734   6.793   0.492
11853TIP3    H235503   6.654   6.837   0.371
11854TIP3   OH235504   2.536   3.978   4.124
11854TIP3    H135505   2.548   3.898   4.072
11854TIP3    H235506   2.566   3.954   4.212
11855TIP3   OH235507   7.068   3.176   1.343
11855TIP3    H135508   6.996   3.138   1.392
11855TIP3    H235509   7.146   3.154   1.394
11856TIP3   OH235510   3.040   3.336   1.684
11856TIP3    H135511   2.987   3.267   1.723
11856TIP3    H235512   3.043   3.405   1.750
11857TIP3   OH235513   0.431   1.885   6.089
11857TIP3    H135514   0.456   1.887   6.182
11857TIP3    H235515   0.438   1.976   6.060
11858TIP3   OH235516   0.065   7.648   4.695
11858TIP3    H135517   0.139   7.664   4.636
11858TIP3    H235518  -0.012   7.661   4.639
11859TIP3   OH235519   6.287   0.412   5.362
11859TIP3    H135520   6.321   0.330   5.396
11859TIP3    H235521   6.332   0.480   5.413
11860TIP3   OH235522   5.748   0.856   1.729
11860TIP3    H135523   5.789   0.850   1.815
11860TIP3    H235524   5.765   0.946   1.701
11861TIP3   OH235525   2.888   2.535   5.268
11861TIP3    H135526   2.958   2.518   5.330
11861TIP3    H235527   2.907   2.478   5.193
11862TIP3   OH235528   3.062   3.922   4.243
11862TIP3    H135529   3.090   3.855   4.306
11862TIP3    H235530   2.983   3.959   4.281
11863TIP3   OH235531   3.245   2.350   2.150
11863TIP3    H135532   3.162   2.339   2.103
11863TIP3    H235533   3.313   2.343   2.083
11864TIP3   OH235534   6.467   6.489   0.810
11864TIP3    H135535   6.381   6.449   0.827
11864TIP3    H235536   6.499   6.515   0.896
11865TIP3   OH235537   3.757   0.526   2.362
11865TIP3    H135538   3.802   0.475   2.430
11865TIP3    H235539   3.684   0.568   2.407
11866TIP3   OH235540   7.903   2.063   0.874
11866TIP3    H135541   7.919   2.134   0.936
11866TIP3    H235542   7.908   1.983   0.927
11867TIP3   OH235543   5.366   5.919   1.408
11867TIP3    H135544   5.378   5.995   1.351
11867TIP3    H235545   5.272   5.903   1.408
11868TIP3   OH235546   3.217  -0.027   5.175
11868TIP3    H135547   3.199  -0.029   5.269
11868TIP3    H235548   3.179   0.057   5.146
11869TIP3   OH235549   6.775   4.729   4.577
11869TIP3    H135550   6.829   4.808   4.579
11869TIP3    H235551   6.688   4.760   4.601
11870TIP3   OH235552   3.961   4.841   3.721
11870TIP3    H135553   3.892   4.786   3.757
11870TIP3    H235554   4.042   4.796   3.745
11871TIP3   OH235555   0.310   6.012   2.282
11871TIP3    H135556   0.403   6.025   2.303
11871TIP3    H235557   0.295   5.919   2.299
11872TIP3   OH235558   3.128   4.964   3.931
11872TIP3    H135559   3.142   5.050   3.972
11872TIP3    H235560   3.082   4.914   3.998
11873TIP3   OH235561   5.409   1.102   3.568
11873TIP3    H135562   5.433   1.174   3.625
11873TIP3    H235563   5.313   1.096   3.575
11874TIP3   OH235564   4.163   3.815   2.252
11874TIP3    H135565   4.108   3.891   2.233
11874TIP3    H235566   4.208   3.837   2.334
11875TIP3   OH235567   1.318   4.910   0.509
11875TIP3    H135568   1.329   4.905   0.414
11875TIP3    H235569   1.323   5.003   0.529
11876TIP3   OH235570   8.166   4.250   4.835
11876TIP3    H135571   8.085   4.299   4.853
11876TIP3    H235572   8.214   4.252   4.917
11877TIP3   OH235573   2.942   0.770   6.537
11877TIP3    H135574   2.905   0.687   6.507
11877TIP3    H235575   2.940   0.764   6.632
11878TIP3   OH235576   6.947   5.388   4.611
11878TIP3    H135577   6.957   5.441   4.690
11878TIP3    H235578   6.863   5.344   4.623
11879TIP3   OH235579   1.879   1.827   4.657
11879TIP3    H135580   1.915   1.912   4.682
11879TIP3    H235581   1.824   1.845   4.581
11880TIP3   OH235582   2.041   1.891   0.660
11880TIP3    H135583   1.962   1.941   0.682
11880TIP3    H235584   2.097   1.954   0.615
11881TIP3   OH235585   1.689   4.461   0.592
11881TIP3    H135586   1.729   4.433   0.510
11881TIP3    H235587   1.694   4.384   0.649
11882TIP3   OH235588   3.790   2.884   5.377
11882TIP3    H135589   3.738   2.821   5.426
11882TIP3    H235590   3.881   2.866   5.402
11883TIP3   OH235591   3.004   6.833   3.411
11883TIP3    H135592   2.990   6.926   3.430
11883TIP3    H235593   3.059   6.833   3.333
11884TIP3   OH235594   1.638   1.405   1.893
11884TIP3    H135595   1.596   1.339   1.949
11884TIP3    H235596   1.568   1.467   1.873
11885TIP3   OH235597   5.441   7.129   4.437
11885TIP3    H135598   5.444   7.034   4.453
11885TIP3    H235599   5.533   7.155   4.431
11886TIP3   OH235600   5.649   4.374   1.476
11886TIP3    H135601   5.705   4.437   1.522
11886TIP3    H235602   5.561   4.411   1.483
11887TIP3   OH235603   4.255   0.193   4.344
11887TIP3    H135604   4.252   0.147   4.260
11887TIP3    H235605   4.166   0.190   4.377
11888TIP3   OH235606   1.492   2.782   0.757
11888TIP3    H135607   1.491   2.852   0.822
11888TIP3    H235608   1.530   2.707   0.802
11889TIP3   OH235609   4.910   7.578   3.968
11889TIP3    H135610   4.940   7.512   3.907
11889TIP3    H235611   4.882   7.651   3.913
11890TIP3   OH235612   4.533   7.419   6.452
11890TIP3    H135613   4.585   7.495   6.424
11890TIP3    H235614   4.563   7.401   6.541
11891TIP3   OH235615   1.455   2.767   3.432
11891TIP3    H135616   1.373   2.766   3.481
11891TIP3    H235617   1.498   2.685   3.456
11892TIP3   OH235618   2.461   7.001   4.370
11892TIP3    H135619   2.387   7.049   4.332
11892TIP3    H235620   2.421   6.945   4.437
11893TIP3   OH235621   1.805   4.594   6.605
11893TIP3    H135622   1.718   4.565   6.631
11893TIP3    H235623   1.864   4.530   6.644
11894TIP3   OH235624   2.240   6.925   4.189
11894TIP3    H135625   2.325   6.939   4.147
11894TIP3    H235626   2.212   6.838   4.158
11895TIP3   OH235627   0.257   1.379   5.043
11895TIP3    H135628   0.227   1.465   5.013
11895TIP3    H235629   0.301   1.397   5.126
11896TIP3   OH235630   4.291   2.097   0.153
11896TIP3    H135631   4.251   2.177   0.186
11896TIP3    H235632   4.345   2.066   0.226
11897TIP3   OH235633   3.452   4.983   4.208
11897TIP3    H135634   3.491   5.039   4.140
11897TIP3    H235635   3.526   4.943   4.252
11898TIP3   OH235636   2.431   5.259   2.329
11898TIP3    H135637   2.474   5.285   2.248
11898TIP3    H235638   2.402   5.169   2.313
11899TIP3   OH235639   6.895   5.385   0.506
11899TIP3    H135640   6.934   5.387   0.419
11899TIP3    H235641   6.810   5.342   0.493
11900TIP3   OH235642   4.273   3.708   3.503
11900TIP3    H135643   4.250   3.618   3.477
11900TIP3    H235644   4.316   3.698   3.588
11901TIP3   OH235645   6.865   1.775   3.351
11901TIP3    H135646   6.902   1.833   3.418
11901TIP3    H235647   6.941   1.731   3.313
11902TIP3   OH235648   6.998   4.237   3.242
11902TIP3    H135649   7.023   4.157   3.196
11902TIP3    H235650   6.904   4.225   3.261
11903TIP3   OH235651   6.308   1.414   5.766
11903TIP3    H135652   6.370   1.344   5.784
11903TIP3    H235653   6.331   1.444   5.678
11904TIP3   OH235654   6.561   1.722   0.235
11904TIP3    H135655   6.603   1.805   0.211
11904TIP3    H235656   6.562   1.671   0.155
11905TIP3   OH235657   0.130   6.178   4.564
11905TIP3    H135658   0.055   6.220   4.607
11905TIP3    H235659   0.163   6.116   4.629
11906TIP3   OH235660   0.730   2.565   1.300
11906TIP3    H135661   0.812   2.605   1.272
11906TIP3    H235662   0.685   2.635   1.349
11907TIP3   OH235663   6.544   6.904   4.080
11907TIP3    H135664   6.597   6.951   4.015
11907TIP3    H235665   6.585   6.818   4.087
11908TIP3   OH235666   3.222   3.126   0.191
11908TIP3    H135667   3.315   3.124   0.168
11908TIP3    H235668   3.209   3.212   0.231
11909TIP3   OH235669   2.725   5.686   1.377
11909TIP3    H135670   2.649   5.742   1.394
11909TIP3    H235671   2.799   5.735   1.411
11910TIP3   OH235672   5.943   2.118   5.045
11910TIP3    H135673   5.958   2.203   5.003
11910TIP3    H235674   5.896   2.140   5.126
11911TIP3   OH235675   4.129   7.001   6.060
11911TIP3    H135676   4.153   7.066   5.994
11911TIP3    H235677   4.153   7.041   6.144
11912TIP3   OH235678   1.182   5.543   3.468
11912TIP3    H135679   1.124   5.615   3.496
11912TIP3    H235680   1.220   5.574   3.386
11913TIP3   OH235681   4.646   2.423   3.605
11913TIP3    H135682   4.695   2.461   3.532
11913TIP3    H235683   4.606   2.344   3.569
11914TIP3   OH235684   6.603   0.960   1.607
11914TIP3    H135685   6.525   0.994   1.651
11914TIP3    H235686   6.573   0.939   1.519
11915TIP3   OH235687   3.272   3.912   4.580
11915TIP3    H135688   3.359   3.875   4.563
11915TIP3    H235689   3.235   3.856   4.648
11916TIP3   OH235690   7.835   0.878   3.346
11916TIP3    H135691   7.903   0.847   3.405
11916TIP3    H235692   7.766   0.812   3.353
11917TIP3   OH235693   0.202   2.767   6.257
11917TIP3    H135694   0.230   2.750   6.347
11917TIP3    H235695   0.283   2.785   6.209
11918TIP3   OH235696   4.395   0.664   2.978
11918TIP3    H135697   4.313   0.685   2.933
11918TIP3    H235698   4.368   0.631   3.063
11919TIP3   OH235699   4.569   3.292   3.367
11919TIP3    H135700   4.602   3.335   3.288
11919TIP3    H235701   4.576   3.198   3.348
11920TIP3   OH235702   7.053   1.757   3.929
11920TIP3    H135703   7.073   1.766   3.836
11920TIP3    H235704   7.000   1.678   3.936
11921TIP3   OH235705   2.547   4.579   2.817
11921TIP3    H135706   2.477   4.576   2.882
11921TIP3    H235707   2.627   4.584   2.869
11922TIP3   OH235708   1.643   5.316   6.579
11922TIP3    H135709   1.563   5.271   6.606
11922TIP3    H235710   1.653   5.387   6.643
11923TIP3   OH235711   6.725   6.130   5.014
11923TIP3    H135712   6.663   6.110   4.944
11923TIP3    H235713   6.670   6.147   5.091
11924TIP3   OH235714   5.320   5.834   2.167
11924TIP3    H135715   5.268   5.782   2.106
11924TIP3    H235716   5.270   5.915   2.179
11925TIP3   OH235717   8.140   1.321   2.881
11925TIP3    H135718   8.098   1.397   2.840
11925TIP3    H235719   8.213   1.300   2.823
11926TIP3   OH235720   2.091   1.473   3.382
11926TIP3    H135721   2.150   1.540   3.417
11926TIP3    H235722   2.005   1.494   3.419
11927TIP3   OH235723   5.616   3.491   5.436
11927TIP3    H135724   5.558   3.415   5.447
11927TIP3    H235725   5.598   3.522   5.347
11928TIP3   OH235726   3.262   4.457   0.390
11928TIP3    H135727   3.340   4.490   0.434
11928TIP3    H235728   3.293   4.429   0.304
11929TIP3   OH235729   7.684   6.564   5.009
11929TIP3    H135730   7.636   6.523   4.936
11929TIP3    H235731   7.757   6.505   5.026
11930TIP3   OH235732   7.222   5.638   5.781
11930TIP3    H135733   7.290   5.572   5.787
11930TIP3    H235734   7.153   5.598   5.728
11931TIP3   OH235735   4.226   4.095   2.343
11931TIP3    H135736   4.259   4.011   2.374
11931TIP3    H235737   4.193   4.138   2.422
11932TIP3   OH235738   6.932   7.748   6.453
11932TIP3    H135739   6.960   7.702   6.533
11932TIP3    H235740   6.902   7.678   6.395
11933TIP3   OH235741   0.773   5.299   4.599
11933TIP3    H135742   0.746   5.326   4.512
11933TIP3    H235743   0.791   5.381   4.646
11934TIP3   OH235744   0.510   0.080   3.975
11934TIP3    H135745   0.439   0.030   3.935
11934TIP3    H235746   0.514   0.047   4.065
11935TIP3   OH235747   4.768   0.386   3.727
11935TIP3    H135748   4.753   0.480   3.734
11935TIP3    H235749   4.836   0.368   3.793
11936TIP3   OH235750   2.008   6.432   1.957
11936TIP3    H135751   1.958   6.381   2.021
11936TIP3    H235752   1.988   6.391   1.873
11937TIP3   OH235753   8.196   0.536   2.287
11937TIP3    H135754   8.263   0.501   2.345
11937TIP3    H235755   8.134   0.464   2.276
11938TIP3   OH235756   7.021   2.148   6.273
11938TIP3    H135757   7.030   2.054   6.259
11938TIP3    H235758   7.060   2.162   6.360
11939TIP3   OH235759   6.657   4.188   6.042
11939TIP3    H135760   6.712   4.148   6.109
11939TIP3    H235761   6.580   4.132   6.037
11940TIP3   OH235762   6.459   5.514   6.344
11940TIP3    H135763   6.411   5.475   6.417
11940TIP3    H235764   6.525   5.449   6.322
11941TIP3   OH235765   3.597   6.298   5.035
11941TIP3    H135766   3.680   6.253   5.049
11941TIP3    H235767   3.540   6.265   5.104
11942TIP3   OH235768   2.663   7.703   1.320
11942TIP3    H135769   2.736   7.731   1.375
11942TIP3    H235770   2.638   7.782   1.272
11943TIP3   OH235771   6.599   2.539   4.521
11943TIP3    H135772   6.615   2.534   4.427
11943TIP3    H235773   6.590   2.448   4.549
11944TIP3   OH235774   5.401   4.894   0.872
11944TIP3    H135775   5.427   4.962   0.934
11944TIP3    H235776   5.341   4.939   0.812
11945TIP3   OH235777   3.388   7.030   6.025
11945TIP3    H135778   3.321   7.001   5.963
11945TIP3    H235779   3.418   6.949   6.066
11946TIP3   OH235780   4.820   4.805   3.634
11946TIP3    H135781   4.889   4.761   3.584
11946TIP3    H235782   4.862   4.884   3.668
11947TIP3   OH235783   1.587   3.922   5.373
11947TIP3    H135784   1.610   4.006   5.335
11947TIP3    H235785   1.544   3.945   5.456
11948TIP3   OH235786   1.732   4.780   2.932
11948TIP3    H135787   1.795   4.843   2.968
11948TIP3    H235788   1.767   4.694   2.956
11949TIP3   OH235789   4.333   1.946   3.828
11949TIP3    H135790   4.285   1.866   3.806
11949TIP3    H235791   4.420   1.916   3.854
11950TIP3   OH235792   4.706   2.687   2.641
11950TIP3    H135793   4.754   2.672   2.723
11950TIP3    H235794   4.667   2.774   2.652
11951TIP3   OH235795   6.677   0.436   4.986
11951TIP3    H135796   6.646   0.376   5.054
11951TIP3    H235797   6.770   0.448   5.004
11952TIP3   OH235798   2.285   5.808   3.488
11952TIP3    H135799   2.283   5.767   3.575
11952TIP3    H235800   2.314   5.898   3.505
11953TIP3   OH235801   0.846   1.571   3.439
11953TIP3    H135802   0.822   1.566   3.532
11953TIP3    H235803   0.876   1.661   3.428
11954TIP3   OH235804   7.801   1.990   3.747
11954TIP3    H135805   7.801   2.080   3.715
11954TIP3    H235806   7.834   1.939   3.673
11955TIP3   OH235807   5.971   0.971   5.951
11955TIP3    H135808   5.977   1.029   5.876
11955TIP3    H235809   5.877   0.959   5.964
11956TIP3   OH235810   1.083   4.890   4.502
11956TIP3    H135811   1.028   4.963   4.474
11956TIP3    H235812   1.131   4.865   4.423
11957TIP3   OH235813   5.614   0.029   2.881
11957TIP3    H135814   5.684  -0.016   2.928
11957TIP3    H235815   5.649   0.117   2.863
11958TIP3   OH235816   2.546   2.067   4.307
11958TIP3    H135817   2.484   2.138   4.321
11958TIP3    H235818   2.513   2.021   4.230
11959TIP3   OH235819   3.655   3.537   5.868
11959TIP3    H135820   3.740   3.570   5.895
11959TIP3    H235821   3.595   3.610   5.884
11960TIP3   OH235822   7.394   0.821   4.875
11960TIP3    H135823   7.403   0.727   4.890
11960TIP3    H235824   7.413   0.861   4.960
11961TIP3   OH235825   5.913   5.993   1.293
11961TIP3    H135826   5.829   5.969   1.331
11961TIP3    H235827   5.958   5.909   1.278
11962TIP3   OH235828   5.025   3.461   4.818
11962TIP3    H135829   5.028   3.551   4.850
11962TIP3    H235830   5.016   3.408   4.897
11963TIP3   OH235831   3.376   3.624   6.745
11963TIP3    H135832   3.343   3.620   6.656
11963TIP3    H235833   3.454   3.568   6.744
11964TIP3   OH235834   1.966   7.322   4.767
11964TIP3    H135835   1.924   7.379   4.703
11964TIP3    H235836   1.906   7.247   4.774
11965TIP3   OH235837   8.103   4.730   3.444
11965TIP3    H135838   8.074   4.667   3.378
11965TIP3    H235839   8.098   4.681   3.526
11966TIP3   OH235840   0.897   1.538   1.834
11966TIP3    H135841   0.948   1.533   1.753
11966TIP3    H235842   0.928   1.465   1.887
11967TIP3   OH235843   2.759   5.354   6.252
11967TIP3    H135844   2.672   5.339   6.215
11967TIP3    H235845   2.743   5.370   6.345
11968TIP3   OH235846   2.408   4.960   3.505
11968TIP3    H135847   2.352   4.929   3.576
11968TIP3    H235848   2.398   5.055   3.507
11969TIP3   OH235849   4.176   4.526   2.849
11969TIP3    H135850   4.212   4.601   2.801
11969TIP3    H235851   4.084   4.523   2.823
11970TIP3   OH235852   2.949   5.352   3.375
11970TIP3    H135853   2.997   5.419   3.423
11970TIP3    H235854   2.955   5.274   3.430
11971TIP3   OH235855   6.121   5.106   4.400
11971TIP3    H135856   6.046   5.130   4.345
11971TIP3    H235857   6.190   5.084   4.337
11972TIP3   OH235858   2.691   7.323   4.836
11972TIP3    H135859   2.739   7.390   4.787
11972TIP3    H235860   2.759   7.265   4.870
11973TIP3   OH235861   1.816   3.773   3.549
11973TIP3    H135862   1.769   3.851   3.521
11973TIP3    H235863   1.852   3.736   3.469
11974TIP3   OH235864   2.307   5.967   5.595
11974TIP3    H135865   2.381   6.025   5.615
11974TIP3    H235866   2.243   6.023   5.553
11975TIP3   OH235867   4.963   7.333   0.162
11975TIP3    H135868   4.988   7.411   0.112
11975TIP3    H235869   5.032   7.270   0.143
11976TIP3   OH235870   0.787   5.662   1.898
11976TIP3    H135871   0.735   5.622   1.830
11976TIP3    H235872   0.756   5.753   1.902
11977TIP3   OH235873   4.114   3.356   2.959
11977TIP3    H135874   4.043   3.301   2.990
11977TIP3    H235875   4.102   3.361   2.864
11978TIP3   OH235876   6.348   2.849   1.996
11978TIP3    H135877   6.268   2.901   1.991
11978TIP3    H235878   6.397   2.873   1.916
11979TIP3   OH235879   0.652   2.954   2.748
11979TIP3    H135880   0.743   2.937   2.769
11979TIP3    H235881   0.606   2.945   2.831
11980TIP3   OH235882   0.825   3.833   3.610
11980TIP3    H135883   0.859   3.922   3.618
11980TIP3    H235884   0.747   3.831   3.665
11981TIP3   OH235885   3.228   4.243   2.289
11981TIP3    H135886   3.301   4.224   2.231
11981TIP3    H235887   3.237   4.180   2.361
11982TIP3   OH235888   6.535   0.975   0.298
11982TIP3    H135889   6.575   1.059   0.279
11982TIP3    H235890   6.593   0.934   0.361
11983TIP3   OH235891   3.426   1.815   5.453
11983TIP3    H135892   3.331   1.824   5.446
11983TIP3    H235893   3.441   1.720   5.451
11984TIP3   OH235894   3.115   6.285   1.735
11984TIP3    H135895   3.138   6.367   1.692
11984TIP3    H235896   3.039   6.253   1.687
11985TIP3   OH235897   4.079   2.536   3.626
11985TIP3    H135898   4.143   2.467   3.644
11985TIP3    H235899   4.013   2.525   3.695
11986TIP3   OH235900   0.897   6.113   5.449
11986TIP3    H135901   0.802   6.125   5.446
11986TIP3    H235902   0.932   6.193   5.409
11987TIP3   OH235903   2.834   1.802   2.971
11987TIP3    H135904   2.930   1.812   2.969
11987TIP3    H235905   2.803   1.883   3.012
11988TIP3   OH235906   2.414   0.160   3.980
11988TIP3    H135907   2.481   0.147   3.914
11988TIP3    H235908   2.389   0.072   4.008
11989TIP3   OH235909   1.454   6.984   6.465
11989TIP3    H135910   1.528   6.985   6.525
11989TIP3    H235911   1.409   6.902   6.485
11990TIP3   OH235912   1.435   7.631   4.178
11990TIP3    H135913   1.489   7.669   4.108
11990TIP3    H235914   1.361   7.692   4.186
11991TIP3   OH235915   2.489   6.156   2.178
11991TIP3    H135916   2.472   6.245   2.146
11991TIP3    H235917   2.584   6.145   2.167
11992TIP3   OH235918   2.400   7.476   2.616
11992TIP3    H135919   2.305   7.478   2.619
11992TIP3    H235920   2.424   7.389   2.648
11993TIP3   OH235921   7.344   2.395   1.178
11993TIP3    H135922   7.381   2.332   1.118
11993TIP3    H235923   7.418   2.450   1.205
11994TIP3   OH235924   0.636   3.214   1.656
11994TIP3    H135925   0.548   3.175   1.655
11994TIP3    H235926   0.622   3.305   1.633
11995TIP3   OH235927   3.002   6.534   2.232
11995TIP3    H135928   2.914   6.560   2.208
11995TIP3    H235929   2.992   6.491   2.317
11996TIP3   OH235930   1.981   4.109   0.027
11996TIP3    H135931   1.966   4.120   0.121
11996TIP3    H235932   2.039   4.181   0.003
11997TIP3   OH235933   7.654   0.678   1.119
11997TIP3    H135934   7.711   0.703   1.192
11997TIP3    H235935   7.712   0.631   1.060
11998TIP3   OH235936   1.892   5.981   5.589
11998TIP3    H135937   1.961   6.003   5.526
11998TIP3    H235938   1.820   6.040   5.567
11999TIP3   OH235939   6.448   7.412   0.752
11999TIP3    H135940   6.494   7.475   0.697
11999TIP3    H235941   6.513   7.343   0.768
12000TIP3   OH235942   1.025   0.699   3.982
12000TIP3    H135943   0.944   0.732   3.945
12000TIP3    H235944   1.078   0.672   3.907
12001TIP3   OH235945   7.569   6.229   3.512
12001TIP3    H135946   7.617   6.250   3.431
12001TIP3    H235947   7.620   6.270   3.582
12002TIP3   OH235948   4.862   4.179   6.603
12002TIP3    H135949   4.862   4.188   6.698
12002TIP3    H235950   4.906   4.096   6.586
12003TIP3   OH235951   0.450   7.068   5.118
12003TIP3    H135952   0.391   7.103   5.183
12003TIP3    H235953   0.536   7.105   5.140
12004TIP3   OH235954   6.801   1.410   4.294
12004TIP3    H135955   6.829   1.467   4.223
12004TIP3    H235956   6.778   1.469   4.365
12005TIP3   OH235957   3.035   2.472   3.815
12005TIP3    H135958   2.984   2.457   3.895
12005TIP3    H235959   3.048   2.385   3.778
12006TIP3   OH235960   1.802   3.465   2.154
12006TIP3    H135961   1.824   3.558   2.156
12006TIP3    H235962   1.776   3.444   2.244
12007TIP3   OH235963   2.258   1.715   3.650
12007TIP3    H135964   2.180   1.668   3.623
12007TIP3    H235965   2.308   1.727   3.569
12008TIP3   OH235966   6.870   5.103   4.411
12008TIP3    H135967   6.962   5.120   4.433
12008TIP3    H235968   6.821   5.137   4.485
12009TIP3   OH235969   3.368   0.947   6.513
12009TIP3    H135970   3.297   1.006   6.538
12009TIP3    H235971   3.422   0.940   6.592
12010TIP3   OH235972   1.765   2.421   0.411
12010TIP3    H135973   1.804   2.334   0.403
12010TIP3    H235974   1.833   2.474   0.453
12011TIP3   OH235975   6.795   3.142   2.770
12011TIP3    H135976   6.789   3.161   2.676
12011TIP3    H235977   6.774   3.226   2.812
12012TIP3   OH235978   8.203   2.422   0.379
12012TIP3    H135979   8.259   2.360   0.332
12012TIP3    H235980   8.117   2.413   0.336
12013TIP3   OH235981   6.777   5.668   4.691
12013TIP3    H135982   6.865   5.661   4.655
12013TIP3    H235983   6.790   5.701   4.780
12014TIP3   OH235984   3.726   1.007   5.113
12014TIP3    H135985   3.708   1.077   5.049
12014TIP3    H235986   3.732   1.053   5.197
12015TIP3   OH235987   1.276   7.318   4.987
12015TIP3    H135988   1.238   7.246   4.936
12015TIP3    H235989   1.285   7.282   5.076
12016TIP3   OH235990   6.919   1.250   3.927
12016TIP3    H135991   6.861   1.325   3.912
12016TIP3    H235992   7.006   1.290   3.935
12017TIP3   OH235993   7.161   1.864   1.644
12017TIP3    H135994   7.107   1.911   1.707
12017TIP3    H235995   7.251   1.893   1.662
12018TIP3   OH235996   4.098   7.653   5.376
12018TIP3    H135997   4.143   7.623   5.297
12018TIP3    H235998   4.014   7.607   5.374
12019TIP3   OH235999   2.656   1.634   0.433
12019TIP3    H136000   2.624   1.572   0.498
12019TIP3    H236001   2.674   1.714   0.482
12020TIP3   OH236002   4.501   4.362   2.003
12020TIP3    H136003   4.578   4.309   1.986
12020TIP3    H236004   4.531   4.453   1.998
12021TIP3   OH236005   4.636   5.870   2.402
12021TIP3    H136006   4.604   5.956   2.375
12021TIP3    H236007   4.563   5.810   2.385
12022TIP3   OH236008   3.610   5.363   1.091
12022TIP3    H136009   3.552   5.287   1.081
12022TIP3    H236010   3.680   5.332   1.148
12023TIP3   OH236011   2.490   5.405   1.564
12023TIP3    H136012   2.546   5.438   1.494
12023TIP3    H236013   2.402   5.431   1.537
12024TIP3   OH236014   6.924   6.987   5.180
12024TIP3    H136015   6.848   7.031   5.217
12024TIP3    H236016   6.992   6.997   5.246
12025TIP3   OH236017   8.210   5.488   5.718
12025TIP3    H136018   8.182   5.580   5.723
12025TIP3    H236019   8.201   5.466   5.626
12026TIP3   OH236020   3.552   4.493   2.140
12026TIP3    H136021   3.622   4.430   2.123
12026TIP3    H236022   3.504   4.498   2.057
12027TIP3   OH236023   5.911   5.903   1.632
12027TIP3    H136024   5.842   5.879   1.694
12027TIP3    H236025   5.899   5.843   1.558
12028TIP3   OH236026   0.038   1.566   0.381
12028TIP3    H136027   0.072   1.649   0.414
12028TIP3    H236028  -0.033   1.543   0.440
12029TIP3   OH236029   3.420   7.537   3.951
12029TIP3    H136030   3.504   7.549   3.906
12029TIP3    H236031   3.428   7.589   4.031
12030TIP3   OH236032   4.340   7.280   3.563
12030TIP3    H136033   4.374   7.260   3.650
12030TIP3    H236034   4.275   7.211   3.546
12031TIP3   OH236035   6.569   5.260   0.188
12031TIP3    H136036   6.616   5.276   0.106
12031TIP3    H236037   6.543   5.168   0.184
12032TIP3   OH236038   5.963   3.648   2.143
12032TIP3    H136039   5.993   3.558   2.132
12032TIP3    H236040   5.916   3.649   2.226
12033TIP3   OH236041   7.734   2.425   1.982
12033TIP3    H136042   7.699   2.378   2.057
12033TIP3    H236043   7.668   2.491   1.961
12034TIP3   OH236044   6.591   0.827   1.305
12034TIP3    H136045   6.630   0.747   1.270
12034TIP3    H236046   6.555   0.872   1.228
12035TIP3   OH236047   3.559   0.480   5.947
12035TIP3    H136048   3.554   0.488   6.043
12035TIP3    H236049   3.653   0.479   5.928
12036TIP3   OH236050   7.807   0.980   3.844
12036TIP3    H136051   7.803   0.927   3.923
12036TIP3    H236052   7.759   0.930   3.778
12037TIP3   OH236053   5.646   3.505   1.328
12037TIP3    H136054   5.731   3.547   1.341
12037TIP3    H236055   5.661   3.413   1.350
12038TIP3   OH236056   2.843   7.464   1.119
12038TIP3    H136057   2.763   7.509   1.146
12038TIP3    H236058   2.821   7.422   1.036
12039TIP3   OH236059   0.294   4.290   6.676
12039TIP3    H136060   0.262   4.307   6.587
12039TIP3    H236061   0.278   4.371   6.723
12040TIP3   OH236062   1.387   5.070   5.983
12040TIP3    H136063   1.431   5.127   5.920
12040TIP3    H236064   1.391   5.118   6.066
12041TIP3   OH236065   1.931   4.214   4.921
12041TIP3    H136066   1.950   4.125   4.890
12041TIP3    H236067   2.000   4.234   4.984
12042TIP3   OH236068   6.858   1.783   2.221
12042TIP3    H136069   6.917   1.768   2.147
12042TIP3    H236070   6.814   1.699   2.234
12043TIP3   OH236071   7.185   1.072   6.008
12043TIP3    H136072   7.201   1.005   5.942
12043TIP3    H236073   7.188   1.024   6.091
12044TIP3   OH236074   6.187   2.509   0.129
12044TIP3    H136075   6.124   2.579   0.147
12044TIP3    H236076   6.136   2.429   0.137
12045TIP3   OH236077   4.692   1.206   0.610
12045TIP3    H136078   4.683   1.262   0.533
12045TIP3    H236079   4.779   1.168   0.601
12046TIP3   OH236080   0.313   0.311   5.262
12046TIP3    H136081   0.323   0.325   5.168
12046TIP3    H236082   0.395   0.269   5.289
12047TIP3   OH236083   0.200   0.963   2.427
12047TIP3    H136084   0.246   0.915   2.496
12047TIP3    H236085   0.127   0.907   2.402
12048TIP3   OH236086   1.333   3.281   0.405
12048TIP3    H136087   1.320   3.287   0.311
12048TIP3    H236088   1.377   3.363   0.429
12049TIP3   OH236089   3.283   2.102   1.358
12049TIP3    H136090   3.243   2.188   1.351
12049TIP3    H236091   3.214   2.046   1.394
12050TIP3   OH236092   3.849   5.871   5.558
12050TIP3    H136093   3.901   5.951   5.565
12050TIP3    H236094   3.761   5.902   5.536
12051TIP3   OH236095   3.936   4.108   0.653
12051TIP3    H136096   3.886   4.176   0.609
12051TIP3    H236097   4.010   4.155   0.693
12052TIP3   OH236098   8.049   7.739   5.920
12052TIP3    H136099   7.976   7.793   5.953
12052TIP3    H236100   8.084   7.789   5.846
12053TIP3   OH236101   6.109   3.811   6.590
12053TIP3    H136102   6.048   3.867   6.542
12053TIP3    H236103   6.055   3.738   6.620
12054TIP3   OH236104   6.107   0.451   0.036
12054TIP3    H136105   6.083   0.417   0.122
12054TIP3    H236106   6.024   0.464  -0.008
12055TIP3   OH236107   0.431   1.140   4.992
12055TIP3    H136108   0.356   1.193   5.018
12055TIP3    H236109   0.405   1.101   4.909
12056TIP3   OH236110   0.924   5.666   0.971
12056TIP3    H136111   1.012   5.632   0.989
12056TIP3    H236112   0.923   5.680   0.876
12057TIP3   OH236113   0.528   6.559   6.341
12057TIP3    H136114   0.591   6.629   6.324
12057TIP3    H236115   0.558   6.518   6.422
12058TIP3   OH236116   7.565   6.134   2.802
12058TIP3    H136117   7.495   6.158   2.741
12058TIP3    H236118   7.585   6.043   2.780
12059TIP3   OH236119   7.999   4.250   5.675
12059TIP3    H136120   8.088   4.273   5.648
12059TIP3    H236121   7.972   4.182   5.613
12060TIP3   OH236122   7.076   6.844   2.789
12060TIP3    H136123   7.104   6.765   2.743
12060TIP3    H236124   7.001   6.876   2.739
12061TIP3   OH236125   5.316   5.764   3.981
12061TIP3    H136126   5.253   5.749   4.051
12061TIP3    H236127   5.267   5.746   3.901
12062TIP3   OH236128   4.587   7.643   2.654
12062TIP3    H136129   4.611   7.730   2.621
12062TIP3    H236130   4.608   7.584   2.582
12063TIP3   OH236131   5.537   2.104   2.554
12063TIP3    H136132   5.473   2.079   2.488
12063TIP3    H236133   5.610   2.043   2.541
12064TIP3   OH236134   0.200   5.661   1.716
12064TIP3    H136135   0.213   5.631   1.626
12064TIP3    H236136   0.182   5.755   1.708
12065TIP3   OH236137   5.324   2.015   2.004
12065TIP3    H136138   5.313   1.998   1.911
12065TIP3    H236139   5.378   1.942   2.035
12066TIP3   OH236140   3.004   1.798   5.946
12066TIP3    H136141   2.952   1.867   5.988
12066TIP3    H236142   3.049   1.755   6.018
12067TIP3   OH236143   1.375   1.365   6.452
12067TIP3    H136144   1.341   1.415   6.377
12067TIP3    H236145   1.436   1.303   6.413
12068TIP3   OH236146   0.252   7.619   3.180
12068TIP3    H136147   0.180   7.570   3.141
12068TIP3    H236148   0.312   7.551   3.212
12069TIP3   OH236149   7.235   1.807   5.008
12069TIP3    H136150   7.190   1.891   5.004
12069TIP3    H236151   7.328   1.830   5.019
12070TIP3   OH236152   6.009   6.982   1.336
12070TIP3    H136153   5.959   6.903   1.356
12070TIP3    H236154   6.100   6.953   1.331
12071TIP3   OH236155   1.069   4.082   1.089
12071TIP3    H136156   1.131   4.017   1.121
12071TIP3    H236157   1.047   4.135   1.166
12072TIP3   OH236158   7.472   2.078   5.231
12072TIP3    H136159   7.458   2.165   5.266
12072TIP3    H236160   7.425   2.020   5.291
12073TIP3   OH236161   4.227   3.281   1.899
12073TIP3    H136162   4.261   3.196   1.869
12073TIP3    H236163   4.176   3.313   1.824
12074TIP3   OH236164   4.438   0.500   2.137
12074TIP3    H136165   4.477   0.487   2.223
12074TIP3    H236166   4.360   0.445   2.137
12075TIP3   OH236167   2.318   4.134   4.828
12075TIP3    H136168   2.397   4.184   4.848
12075TIP3    H236169   2.253   4.200   4.803
12076TIP3   OH236170   8.298   4.915   4.052
12076TIP3    H136171   8.215   4.879   4.021
12076TIP3    H236172   8.276   4.960   4.134
12077TIP3   OH236173   2.868   2.411   0.318
12077TIP3    H136174   2.855   2.317   0.325
12077TIP3    H236175   2.780   2.447   0.309
12078TIP3   OH236176   3.512   1.961   1.467
12078TIP3    H136177   3.430   1.978   1.421
12078TIP3    H236178   3.554   1.891   1.418
12079TIP3   OH236179   4.070   6.528   1.443
12079TIP3    H136180   4.134   6.566   1.503
12079TIP3    H236181   4.089   6.434   1.443
12080TIP3   OH236182   3.634   5.901   3.253
12080TIP3    H136183   3.640   5.972   3.189
12080TIP3    H236184   3.558   5.850   3.226
12081TIP3   OH236185   2.759   1.411   1.100
12081TIP3    H136186   2.788   1.370   1.018
12081TIP3    H236187   2.783   1.503   1.091
12082TIP3   OH236188   3.405   5.226   3.945
12082TIP3    H136189   3.346   5.256   3.876
12082TIP3    H236190   3.446   5.147   3.910
12083TIP3   OH236191   5.906   5.749   6.067
12083TIP3    H136192   5.832   5.768   6.126
12083TIP3    H236193   5.878   5.670   6.019
12084TIP3   OH236194   0.768   7.654   6.195
12084TIP3    H136195   0.684   7.699   6.208
12084TIP3    H236196   0.804   7.694   6.117
12085TIP3   OH236197   2.832   7.119   4.218
12085TIP3    H136198   2.743   7.154   4.223
12085TIP3    H236199   2.828   7.039   4.270
12086TIP3   OH236200   1.325   0.745   3.781
12086TIP3    H136201   1.390   0.739   3.711
12086TIP3    H236202   1.273   0.822   3.758
12087TIP3   OH236203   4.006   2.924   4.324
12087TIP3    H136204   4.050   2.842   4.303
12087TIP3    H236205   4.075   2.990   4.324
12088TIP3   OH236206   2.325   4.186   5.510
12088TIP3    H136207   2.396   4.158   5.569
12088TIP3    H236208   2.369   4.234   5.440
12089TIP3   OH236209   3.224   1.329   3.028
12089TIP3    H136210   3.227   1.253   2.970
12089TIP3    H236211   3.193   1.400   2.972
12090TIP3   OH236212   4.483   1.605   4.159
12090TIP3    H136213   4.462   1.659   4.235
12090TIP3    H236214   4.437   1.647   4.087
12091TIP3   OH236215   6.766   5.441   2.855
12091TIP3    H136216   6.676   5.466   2.834
12091TIP3    H236217   6.809   5.432   2.770
12092TIP3   OH236218   1.710   1.196   3.773
12092TIP3    H136219   1.665   1.112   3.769
12092TIP3    H236220   1.716   1.216   3.866
12093TIP3   OH236221   7.932   6.674   6.700
12093TIP3    H136222   7.896   6.600   6.650
12093TIP3    H236223   7.857   6.732   6.714
12094TIP3   OH236224   3.290   6.496   1.626
12094TIP3    H136225   3.351   6.461   1.561
12094TIP3    H236226   3.347   6.538   1.691
12095TIP3   OH236227   6.781   4.102   0.695
12095TIP3    H136228   6.827   4.160   0.755
12095TIP3    H236229   6.833   4.021   0.696
12096TIP3   OH236230   7.428   0.970   5.104
12096TIP3    H136231   7.353   0.937   5.152
12096TIP3    H236232   7.469   1.033   5.163
12097TIP3   OH236233   2.655   4.675   3.999
12097TIP3    H136234   2.749   4.672   4.021
12097TIP3    H236235   2.641   4.766   3.971
12098TIP3   OH236236   2.401   7.056   1.770
12098TIP3    H136237   2.419   7.000   1.845
12098TIP3    H236238   2.321   7.021   1.732
12099TIP3   OH236239   0.055   4.352   1.825
12099TIP3    H136240   0.036   4.330   1.916
12099TIP3    H236241   0.118   4.286   1.797
12100TIP3   OH236242   1.307   4.332   2.681
12100TIP3    H136243   1.365   4.395   2.639
12100TIP3    H236244   1.248   4.303   2.611
12101TIP3   OH236245   3.683   6.349   0.528
12101TIP3    H136246   3.600   6.395   0.543
12101TIP3    H236247   3.711   6.378   0.441
12102TIP3   OH236248   1.679   0.818   0.972
12102TIP3    H136249   1.618   0.891   0.982
12102TIP3    H236250   1.730   0.840   0.894
12103TIP3   OH236251   5.635   6.056   6.469
12103TIP3    H136252   5.725   6.035   6.496
12103TIP3    H236253   5.638   6.054   6.374
12104TIP3   OH236254   6.460   0.059   6.288
12104TIP3    H136255   6.456   0.141   6.337
12104TIP3    H236256   6.503  -0.003   6.347
12105TIP3   OH236257   6.496   1.468   4.422
12105TIP3    H136258   6.568   1.514   4.465
12105TIP3    H236259   6.429   1.534   4.410
12106TIP3   OH236260   5.233   3.628   3.527
12106TIP3    H136261   5.243   3.694   3.459
12106TIP3    H236262   5.140   3.604   3.524
12107TIP3   OH236263   3.085   2.660   6.661
12107TIP3    H136264   3.010   2.658   6.719
12107TIP3    H236265   3.155   2.617   6.710
12108TIP3   OH236266   0.787   5.407   2.028
12108TIP3    H136267   0.781   5.500   2.006
12108TIP3    H236268   0.835   5.368   1.955
12109TIP3   OH236269   5.179   5.292   1.757
12109TIP3    H136270   5.221   5.336   1.831
12109TIP3    H236271   5.135   5.216   1.796
12110TIP3   OH236272   2.986   5.924   0.535
12110TIP3    H136273   2.966   5.983   0.463
12110TIP3    H236274   2.975   5.836   0.498
12111TIP3   OH236275   3.645   5.486   3.001
12111TIP3    H136276   3.611   5.504   3.089
12111TIP3    H236277   3.710   5.417   3.013
12112TIP3   OH236278   4.380   2.262   1.761
12112TIP3    H136279   4.461   2.303   1.729
12112TIP3    H236280   4.353   2.316   1.835
12113TIP3   OH236281   2.429   3.067   6.032
12113TIP3    H136282   2.347   3.055   6.080
12113TIP3    H236283   2.403   3.063   5.940
12114TIP3   OH236284   0.281   6.358   4.363
12114TIP3    H136285   0.355   6.405   4.401
12114TIP3    H236286   0.261   6.290   4.427
12115TIP3   OH236287   7.266   4.761   5.587
12115TIP3    H136288   7.226   4.843   5.556
12115TIP3    H236289   7.242   4.756   5.679
12116TIP3   OH236290   0.178   1.034   2.853
12116TIP3    H136291   0.265   1.048   2.890
12116TIP3    H236292   0.119   1.078   2.914
12117TIP3   OH236293   3.041   4.667   4.893
12117TIP3    H136294   3.040   4.731   4.822
12117TIP3    H236295   3.051   4.583   4.848
12118TIP3   OH236296   7.301   5.155   0.426
12118TIP3    H136297   7.277   5.175   0.517
12118TIP3    H236298   7.261   5.069   0.410
12119TIP3   OH236299   1.798   1.179   4.837
12119TIP3    H136300   1.878   1.141   4.800
12119TIP3    H236301   1.827   1.261   4.878
12120TIP3   OH236302   5.495   2.813   6.536
12120TIP3    H136303   5.494   2.893   6.589
12120TIP3    H236304   5.533   2.841   6.452
12121TIP3   OH236305   1.061   6.165   4.520
12121TIP3    H136306   1.016   6.237   4.564
12121TIP3    H236307   1.091   6.203   4.437
12122TIP3   OH236308   7.762   4.612   0.314
12122TIP3    H136309   7.746   4.551   0.386
12122TIP3    H236310   7.851   4.593   0.286
12123TIP3   OH236311   6.300   4.203   1.170
12123TIP3    H136312   6.216   4.198   1.216
12123TIP3    H236313   6.336   4.288   1.193
12124TIP3   OH236314   4.305   2.016   5.500
12124TIP3    H136315   4.367   2.068   5.448
12124TIP3    H236316   4.222   2.025   5.454
12125TIP3   OH236317   2.057   4.266   3.347
12125TIP3    H136318   1.989   4.332   3.339
12125TIP3    H236319   2.139   4.315   3.353
12126TIP3   OH236320   7.487   7.673   4.392
12126TIP3    H136321   7.425   7.695   4.461
12126TIP3    H236322   7.557   7.739   4.401
12127TIP3   OH236323   4.551   5.726   6.629
12127TIP3    H136324   4.613   5.690   6.566
12127TIP3    H236325   4.488   5.655   6.643
12128TIP3   OH236326   3.318   7.244   1.499
12128TIP3    H136327   3.346   7.229   1.589
12128TIP3    H236328   3.285   7.333   1.498
12129TIP3   OH236329   4.587   5.334   2.983
12129TIP3    H136330   4.609   5.420   3.019
12129TIP3    H236331   4.502   5.313   3.020
12130TIP3   OH236332   3.460   2.558   0.859
12130TIP3    H136333   3.417   2.637   0.891
12130TIP3    H236334   3.539   2.589   0.816
12131TIP3   OH236335   2.666   4.558   0.701
12131TIP3    H136336   2.692   4.471   0.733
12131TIP3    H236337   2.702   4.618   0.766
12132TIP3   OH236338   1.838   5.666   1.160
12132TIP3    H136339   1.920   5.703   1.195
12132TIP3    H236340   1.772   5.731   1.182
12133TIP3   OH236341   2.435   0.671   4.096
12133TIP3    H136342   2.371   0.657   4.166
12133TIP3    H236343   2.438   0.766   4.085
12134TIP3   OH236344   7.430   3.577   3.133
12134TIP3    H136345   7.353   3.550   3.082
12134TIP3    H236346   7.427   3.673   3.132
12135TIP3   OH236347   1.184   2.560   2.729
12135TIP3    H136348   1.245   2.600   2.667
12135TIP3    H236349   1.107   2.540   2.677
12136TIP3   OH236350   6.564   1.554   0.044
12136TIP3    H136351   6.658   1.550   0.027
12136TIP3    H236352   6.524   1.532  -0.041
12137TIP3   OH236353   4.829   4.529   0.691
12137TIP3    H136354   4.829   4.568   0.779
12137TIP3    H236355   4.922   4.517   0.670
12138TIP3   OH236356   1.335   5.037   2.171
12138TIP3    H136357   1.327   4.980   2.094
12138TIP3    H236358   1.396   4.991   2.228
12139TIP3   OH236359   3.407   4.977   1.251
12139TIP3    H136360   3.459   4.953   1.327
12139TIP3    H236361   3.357   4.897   1.230
12140TIP3   OH236362   3.086   2.885   1.027
12140TIP3    H136363   3.169   2.875   0.979
12140TIP3    H236364   3.086   2.977   1.054
12141TIP3   OH236365   7.561   6.088   4.094
12141TIP3    H136366   7.544   6.059   4.183
12141TIP3    H236367   7.531   6.178   4.090
12142TIP3   OH236368   1.974   7.267   5.331
12142TIP3    H136369   1.952   7.357   5.351
12142TIP3    H236370   1.909   7.241   5.265
12143TIP3   OH236371   7.817   2.738   3.180
12143TIP3    H136372   7.723   2.728   3.200
12143TIP3    H236373   7.826   2.831   3.158
12144TIP3   OH236374   3.874   1.599   1.438
12144TIP3    H136375   3.828   1.644   1.508
12144TIP3    H236376   3.895   1.668   1.375
12145TIP3   OH236377   7.475   3.230   6.390
12145TIP3    H136378   7.442   3.245   6.301
12145TIP3    H236379   7.543   3.164   6.380
12146TIP3   OH236380   1.244   3.493   6.255
12146TIP3    H136381   1.297   3.521   6.181
12146TIP3    H236382   1.227   3.574   6.304
12147TIP3   OH236383   7.422   4.141   6.066
12147TIP3    H136384   7.329   4.143   6.045
12147TIP3    H236385   7.435   4.214   6.127
12148TIP3   OH236386   6.950   3.865   6.175
12148TIP3    H136387   6.957   3.885   6.269
12148TIP3    H236388   6.886   3.928   6.142
12149TIP3   OH236389   0.120   6.167   5.977
12149TIP3    H136390   0.154   6.236   6.035
12149TIP3    H236391   0.100   6.094   6.036
12150TIP3   OH236392   5.584   6.884   6.098
12150TIP3    H136393   5.677   6.897   6.081
12150TIP3    H236394   5.539   6.941   6.036
12151TIP3   OH236395   1.172   5.276   0.960
12151TIP3    H136396   1.189   5.183   0.976
12151TIP3    H236397   1.111   5.276   0.886
12152TIP3   OH236398   6.649   2.515   4.230
12152TIP3    H136399   6.680   2.553   4.148
12152TIP3    H236400   6.564   2.476   4.207
12153TIP3   OH236401   1.132  -0.076   0.385
12153TIP3    H136402   1.200  -0.027   0.337
12153TIP3    H236403   1.093  -0.011   0.443
12154TIP3   OH236404   6.886   1.693   0.790
12154TIP3    H136405   6.938   1.663   0.715
12154TIP3    H236406   6.943   1.756   0.835
12155TIP3   OH236407   6.657   2.833   3.613
12155TIP3    H136408   6.722   2.864   3.676
12155TIP3    H236409   6.589   2.792   3.667
12156TIP3   OH236410   0.893   3.526   0.500
12156TIP3    H136411   0.892   3.451   0.441
12156TIP3    H236412   0.814   3.515   0.553
12157TIP3   OH236413   7.095   0.122   5.619
12157TIP3    H136414   7.117   0.042   5.667
12157TIP3    H236415   7.153   0.122   5.543
12158TIP3   OH236416   6.830   3.645   1.982
12158TIP3    H136417   6.907   3.677   2.030
12158TIP3    H236418   6.865   3.618   1.897
12159TIP3   OH236419   5.219   2.165   0.690
12159TIP3    H136420   5.129   2.193   0.672
12159TIP3    H236421   5.266   2.247   0.706
12160TIP3   OH236422   8.222   2.122   3.328
12160TIP3    H136423   8.161   2.062   3.371
12160TIP3    H236424   8.192   2.209   3.354
12161TIP3   OH236425   5.481   3.237   0.223
12161TIP3    H136426   5.412   3.195   0.172
12161TIP3    H236427   5.445   3.243   0.312
12162TIP3   OH236428   5.677   7.315   0.217
12162TIP3    H136429   5.663   7.249   0.149
12162TIP3    H236430   5.641   7.395   0.179
12163TIP3   OH236431   2.134   1.200   3.718
12163TIP3    H136432   2.163   1.274   3.772
12163TIP3    H236433   2.206   1.137   3.722
12164TIP3   OH236434   6.692   6.412   2.402
12164TIP3    H136435   6.784   6.437   2.412
12164TIP3    H236436   6.686   6.381   2.312
12165TIP3   OH236437   4.606   6.628   6.326
12165TIP3    H136438   4.532   6.665   6.375
12165TIP3    H236439   4.681   6.639   6.384
12166TIP3   OH236440   7.432   7.281   1.995
12166TIP3    H136441   7.472   7.311   1.914
12166TIP3    H236442   7.450   7.188   1.998
12167TIP3   OH236443   4.639   6.740   4.299
12167TIP3    H136444   4.694   6.817   4.285
12167TIP3    H236445   4.556   6.775   4.330
12168TIP3   OH236446   0.319   5.003   4.804
12168TIP3    H136447   0.317   5.050   4.887
12168TIP3    H236448   0.411   4.979   4.792
12169TIP3   OH236449   3.295   7.320   3.417
12169TIP3    H136450   3.344   7.251   3.372
12169TIP3    H236451   3.320   7.311   3.509
12170TIP3   OH236452   7.119   7.374   6.168
12170TIP3    H136453   7.156   7.319   6.236
12170TIP3    H236454   7.132   7.324   6.087
12171TIP3   OH236455   4.103   7.199   1.793
12171TIP3    H136456   4.082   7.291   1.808
12171TIP3    H236457   4.024   7.152   1.818
12172TIP3   OH236458   2.105   3.195   5.430
12172TIP3    H136459   2.129   3.247   5.353
12172TIP3    H236460   2.044   3.251   5.479
12173TIP3   OH236461   3.095   1.903   3.015
12173TIP3    H136462   3.190   1.899   3.011
12173TIP3    H236463   3.073   1.985   2.970
12174TIP3   OH236464   7.302   0.966   3.562
12174TIP3    H136465   7.370   0.931   3.620
12174TIP3    H236466   7.293   0.900   3.493
12175TIP3   OH236467   0.387   0.518   1.593
12175TIP3    H136468   0.321   0.500   1.660
12175TIP3    H236469   0.437   0.437   1.586
12176TIP3   OH236470   1.722   1.251   5.909
12176TIP3    H136471   1.670   1.268   5.988
12176TIP3    H236472   1.803   1.299   5.923
12177TIP3   OH236473   0.381   5.216   3.017
12177TIP3    H136474   0.439   5.286   3.049
12177TIP3    H236475   0.416   5.136   3.057
12178TIP3   OH236476   0.119   2.616   0.942
12178TIP3    H136477   0.083   2.638   0.856
12178TIP3    H236478   0.045   2.581   0.990
12179TIP3   OH236479   3.743   2.262   3.584
12179TIP3    H136480   3.689   2.322   3.532
12179TIP3    H236481   3.742   2.299   3.672
12180TIP3   OH236482   0.195   4.289   0.392
12180TIP3    H136483   0.118   4.244   0.426
12180TIP3    H236484   0.238   4.326   0.469
12181TIP3   OH236485   3.216   6.780   6.497
12181TIP3    H136486   3.256   6.866   6.480
12181TIP3    H236487   3.138   6.779   6.441
12182TIP3   OH236488   6.998   4.880   1.327
12182TIP3    H136489   7.081   4.856   1.284
12182TIP3    H236490   7.000   4.976   1.330
12183TIP3   OH236491   6.536   4.284   0.371
12183TIP3    H136492   6.516   4.227   0.296
12183TIP3    H236493   6.631   4.294   0.369
12184TIP3   OH236494   6.739   4.250   3.083
12184TIP3    H136495   6.698   4.310   3.021
12184TIP3    H236496   6.682   4.252   3.160
12185TIP3   OH236497   0.625   7.530   1.480
12185TIP3    H136498   0.685   7.455   1.475
12185TIP3    H236499   0.674   7.603   1.441
12186TIP3   OH236500   1.730   1.280   0.342
12186TIP3    H136501   1.685   1.203   0.309
12186TIP3    H236502   1.744   1.335   0.265
12187TIP3   OH236503   6.877   0.023   4.924
12187TIP3    H136504   6.899   0.116   4.928
12187TIP3    H236505   6.788   0.020   4.889
12188TIP3   OH236506   6.432   5.948   1.810
12188TIP3    H136507   6.479   5.956   1.728
12188TIP3    H236508   6.495   5.911   1.871
12189TIP3   OH236509   6.514   3.472   4.992
12189TIP3    H136510   6.545   3.391   4.953
12189TIP3    H236511   6.593   3.519   5.017
12190TIP3   OH236512   4.593   5.338   5.784
12190TIP3    H136513   4.684   5.316   5.761
12190TIP3    H236514   4.601   5.394   5.860
12191TIP3   OH236515   1.058   1.424   4.457
12191TIP3    H136516   1.069   1.498   4.517
12191TIP3    H236517   1.044   1.464   4.371
12192TIP3   OH236518   7.063   6.069   4.505
12192TIP3    H136519   6.981   6.046   4.461
12192TIP3    H236520   7.131   6.024   4.454
12193TIP3   OH236521   7.111   4.895   6.176
12193TIP3    H136522   7.042   4.925   6.118
12193TIP3    H236523   7.192   4.926   6.137
12194TIP3   OH236524   3.953   0.912   2.708
12194TIP3    H136525   3.871   0.863   2.712
12194TIP3    H236526   3.963   0.933   2.615
12195TIP3   OH236527   5.033   2.818   2.759
12195TIP3    H136528   5.046   2.733   2.802
12195TIP3    H236529   5.070   2.807   2.672
12196TIP3   OH236530   2.900   1.728   2.024
12196TIP3    H136531   2.980   1.769   2.054
12196TIP3    H236532   2.882   1.660   2.089
12197TIP3   OH236533   7.570   4.015   4.738
12197TIP3    H136534   7.661   4.018   4.707
12197TIP3    H236535   7.567   4.077   4.811
12198TIP3   OH236536   6.730   5.238   4.606
12198TIP3    H136537   6.650   5.186   4.593
12198TIP3    H236538   6.751   5.225   4.699
12199TIP3   OH236539   3.952   0.514   2.156
12199TIP3    H136540   4.044   0.536   2.163
12199TIP3    H236541   3.909   0.568   2.222
12200TIP3   OH236542   4.194   0.109   3.450
12200TIP3    H136543   4.247   0.160   3.389
12200TIP3    H236544   4.114   0.088   3.401
12201TIP3   OH236545   4.781   3.483   1.551
12201TIP3    H136546   4.802   3.397   1.588
12201TIP3    H236547   4.712   3.465   1.487
12202TIP3   OH236548   5.070   7.444   2.028
12202TIP3    H136549   5.127   7.498   1.973
12202TIP3    H236550   5.009   7.403   1.967
12203TIP3   OH236551   7.763   6.229   4.762
12203TIP3    H136552   7.843   6.212   4.713
12203TIP3    H236553   7.700   6.167   4.726
12204TIP3   OH236554   5.607   5.448   1.598
12204TIP3    H136555   5.560   5.523   1.561
12204TIP3    H236556   5.671   5.425   1.531
12205TIP3   OH236557   5.232   1.688   2.253
12205TIP3    H136558   5.213   1.596   2.269
12205TIP3    H236559   5.300   1.687   2.185
12206TIP3   OH236560   7.853   2.410   4.031
12206TIP3    H136561   7.811   2.352   4.094
12206TIP3    H236562   7.922   2.356   3.991
12207TIP3   OH236563   1.042   5.892   0.598
12207TIP3    H136564   1.025   5.979   0.632
12207TIP3    H236565   1.121   5.862   0.643
12208TIP3   OH236566   1.338   5.779   5.830
12208TIP3    H136567   1.332   5.695   5.784
12208TIP3    H236568   1.393   5.833   5.773
12209TIP3   OH236569   0.998   4.363   2.761
12209TIP3    H136570   0.959   4.277   2.778
12209TIP3    H236571   0.953   4.395   2.683
12210TIP3   OH236572   1.598   0.628   0.203
12210TIP3    H136573   1.693   0.618   0.197
12210TIP3    H236574   1.563   0.547   0.168
12211TIP3   OH236575   0.176   4.393   5.623
12211TIP3    H136576   0.265   4.364   5.642
12211TIP3    H236577   0.150   4.341   5.547
12212TIP3   OH236578   0.896   0.792   5.827
12212TIP3    H136579   0.830   0.723   5.836
12212TIP3    H236580   0.895   0.838   5.911
12213TIP3   OH236581   6.253   3.409   4.817
12213TIP3    H136582   6.216   3.400   4.905
12213TIP3    H236583   6.300   3.326   4.803
12214TIP3   OH236584   2.408   4.210   4.548
12214TIP3    H136585   2.332   4.187   4.603
12214TIP3    H236586   2.380   4.191   4.459
12215TIP3   OH236587   7.509   6.227   2.246
12215TIP3    H136588   7.464   6.309   2.268
12215TIP3    H236589   7.550   6.200   2.329
12216TIP3   OH236590   1.675   0.298   0.674
12216TIP3    H136591   1.720   0.270   0.754
12216TIP3    H236592   1.730   0.368   0.639
12217TIP3   OH236593   3.431   5.749   3.147
12217TIP3    H136594   3.338   5.771   3.154
12217TIP3    H236595   3.436   5.692   3.070
12218TIP3   OH236596   7.989   7.103   6.776
12218TIP3    H136597   7.966   7.180   6.828
12218TIP3    H236598   8.055   7.135   6.714
12219TIP3   OH236599   1.504   3.281   0.767
12219TIP3    H136600   1.577   3.266   0.707
12219TIP3    H236601   1.430   3.237   0.727
12220TIP3   OH236602   6.941   5.421   1.945
12220TIP3    H136603   6.974   5.511   1.947
12220TIP3    H236604   6.990   5.379   1.875
12221TIP3   OH236605   2.553   1.365   2.458
12221TIP3    H136606   2.567   1.273   2.478
12221TIP3    H236607   2.632   1.409   2.489
12222TIP3   OH236608   3.947   5.907   6.761
12222TIP3    H136609   3.873   5.931   6.706
12222TIP3    H236610   3.966   5.816   6.737
12223TIP3   OH236611   3.716   2.009   0.693
12223TIP3    H136612   3.756   2.095   0.706
12223TIP3    H236613   3.701   1.976   0.782
12224TIP3   OH236614   8.000   2.014   3.456
12224TIP3    H136615   8.002   2.086   3.520
12224TIP3    H236616   7.907   1.999   3.439
12225TIP3   OH236617   3.533   2.354   5.245
12225TIP3    H136618   3.475   2.307   5.186
12225TIP3    H236619   3.482   2.430   5.274
12226TIP3   OH236620   0.776   2.034   6.372
12226TIP3    H136621   0.741   2.013   6.285
12226TIP3    H236622   0.783   1.949   6.416
12227TIP3   OH236623   0.601   6.272   3.292
12227TIP3    H136624   0.616   6.354   3.246
12227TIP3    H236625   0.508   6.273   3.313
12228TIP3   OH236626   1.527   0.942   5.708
12228TIP3    H136627   1.473   1.010   5.668
12228TIP3    H236628   1.474   0.863   5.704
12229TIP3   OH236629   4.997   4.819   3.344
12229TIP3    H136630   4.984   4.729   3.375
12229TIP3    H236631   5.053   4.859   3.410
12230TIP3   OH236632   3.098   2.782   4.926
12230TIP3    H136633   3.033   2.714   4.908
12230TIP3    H236634   3.120   2.817   4.839
12231TIP3   OH236635   0.184   5.757   4.654
12231TIP3    H136636   0.208   5.666   4.633
12231TIP3    H236637   0.092   5.751   4.683
12232TIP3   OH236638   0.799   6.825   5.802
12232TIP3    H136639   0.841   6.862   5.724
12232TIP3    H236640   0.860   6.757   5.832
12233TIP3   OH236641   2.858   0.641   1.310
12233TIP3    H136642   2.913   0.711   1.345
12233TIP3    H236643   2.802   0.685   1.245
12234TIP3   OH236644   5.829   6.768   5.531
12234TIP3    H136645   5.852   6.835   5.596
12234TIP3    H236646   5.759   6.718   5.572
12235TIP3   OH236647   6.957   1.902   1.862
12235TIP3    H136648   6.899   1.871   1.792
12235TIP3    H236649   6.943   1.997   1.863
12236TIP3   OH236650   6.267   2.536   3.733
12236TIP3    H136651   6.234   2.602   3.672
12236TIP3    H236652   6.265   2.454   3.684
12237TIP3   OH236653   2.190   1.020   5.474
12237TIP3    H136654   2.192   0.940   5.528
12237TIP3    H236655   2.271   1.017   5.424
12238TIP3   OH236656   0.681   5.445   4.393
12238TIP3    H136657   0.719   5.533   4.397
12238TIP3    H236658   0.587   5.458   4.404
12239TIP3   OH236659   2.656   4.306   6.523
12239TIP3    H136660   2.643   4.248   6.448
12239TIP3    H236661   2.570   4.345   6.538
12240TIP3   OH236662   4.422   7.564   4.343
12240TIP3    H136663   4.424   7.590   4.250
12240TIP3    H236664   4.337   7.596   4.374
12241TIP3   OH236665   6.886   5.767   5.594
12241TIP3    H136666   6.893   5.861   5.577
12241TIP3    H236667   6.825   5.761   5.668
12242TIP3   OH236668   8.131   2.738   4.801
12242TIP3    H136669   8.174   2.722   4.885
12242TIP3    H236670   8.084   2.656   4.783
12243TIP3   OH236671   5.792   5.892   3.480
12243TIP3    H136672   5.882   5.868   3.501
12243TIP3    H236673   5.739   5.827   3.526
12244TIP3   OH236674   6.031   1.334   1.271
12244TIP3    H136675   6.112   1.362   1.229
12244TIP3    H236676   5.994   1.270   1.210
12245TIP3   OH236677   0.107   4.840   6.790
12245TIP3    H136678   0.133   4.831   6.698
12245TIP3    H236679   0.016   4.809   6.792
12246TIP3   OH236680   5.219   7.039   5.393
12246TIP3    H136681   5.293   7.069   5.341
12246TIP3    H236682   5.205   7.108   5.458
12247TIP3   OH236683   1.880   0.857   4.231
12247TIP3    H136684   1.843   0.923   4.172
12247TIP3    H236685   1.825   0.780   4.219
12248TIP3   OH236686   5.856   5.678   3.740
12248TIP3    H136687   5.934   5.627   3.764
12248TIP3    H236688   5.867   5.760   3.789
12249TIP3   OH236689   6.898   7.145   0.042
12249TIP3    H136690   6.863   7.110  -0.040
12249TIP3    H236691   6.907   7.239   0.025
12250TIP3   OH236692   8.205   2.589   2.321
12250TIP3    H136693   8.211   2.498   2.291
12250TIP3    H236694   8.283   2.602   2.374
12251TIP3   OH236695   0.557   5.842   2.739
12251TIP3    H136696   0.500   5.872   2.668
12251TIP3    H236697   0.642   5.831   2.697
12252TIP3   OH236698   3.281   6.572   0.457
12252TIP3    H136699   3.187   6.552   0.453
12252TIP3    H236700   3.289   6.657   0.412
12253TIP3   OH236701   0.318   2.551   4.236
12253TIP3    H136702   0.392   2.597   4.276
12253TIP3    H236703   0.351   2.463   4.219
12254TIP3   OH236704   6.569   1.939   6.527
12254TIP3    H136705   6.656   1.970   6.502
12254TIP3    H236706   6.521   1.935   6.444
12255TIP3   OH236707   6.333   0.246   4.530
12255TIP3    H136708   6.321   0.290   4.614
12255TIP3    H236709   6.408   0.188   4.544
12256TIP3   OH236710   4.466   6.112   1.290
12256TIP3    H136711   4.412   6.033   1.295
12256TIP3    H236712   4.475   6.140   1.382
12257TIP3   OH236713   1.946   7.278   6.375
12257TIP3    H136714   1.979   7.219   6.443
12257TIP3    H236715   2.024   7.302   6.325
12258TIP3   OH236716   4.769   7.597   5.312
12258TIP3    H136717   4.738   7.557   5.230
12258TIP3    H236718   4.828   7.532   5.350
12259TIP3   OH236719   4.185   2.706   0.627
12259TIP3    H136720   4.157   2.615   0.626
12259TIP3    H236721   4.136   2.747   0.555
12260TIP3   OH236722   1.935   6.893   4.218
12260TIP3    H136723   1.946   6.842   4.137
12260TIP3    H236724   1.847   6.871   4.248
12261TIP3   OH236725   4.772   7.354   2.560
12261TIP3    H136726   4.834   7.425   2.545
12261TIP3    H236727   4.811   7.303   2.632
12262TIP3   OH236728   7.239   6.705   3.096
12262TIP3    H136729   7.149   6.688   3.125
12262TIP3    H236730   7.292   6.691   3.174
12263TIP3   OH236731   0.408   7.565   5.006
12263TIP3    H136732   0.428   7.641   5.060
12263TIP3    H236733   0.334   7.593   4.952
12264TIP3   OH236734   0.623   3.284   5.510
12264TIP3    H136735   0.646   3.198   5.544
12264TIP3    H236736   0.706   3.330   5.503
12265TIP3   OH236737   3.903   4.683   5.602
12265TIP3    H136738   3.973   4.621   5.621
12265TIP3    H236739   3.947   4.767   5.594
12266TIP3   OH236740   1.588   3.719   0.744
12266TIP3    H136741   1.527   3.698   0.674
12266TIP3    H236742   1.589   3.815   0.748
12267TIP3   OH236743   2.583   0.194   5.910
12267TIP3    H136744   2.557   0.284   5.928
12267TIP3    H236745   2.617   0.196   5.820
12268TIP3   OH236746   1.749   5.961   2.366
12268TIP3    H136747   1.663   5.972   2.407
12268TIP3    H236748   1.749   5.871   2.333
12269TIP3   OH236749   2.873   2.075   5.072
12269TIP3    H136750   2.935   2.034   5.012
12269TIP3    H236751   2.920   2.151   5.107
12270TIP3   OH236752   0.936   2.953   6.410
12270TIP3    H136753   0.869   2.895   6.446
12270TIP3    H236754   1.019   2.909   6.431
12271TIP3   OH236755   0.385   3.117   6.463
12271TIP3    H136756   0.300   3.081   6.437
12271TIP3    H236757   0.448   3.072   6.407
12272TIP3   OH236758   4.014   4.053   5.792
12272TIP3    H136759   4.045   3.973   5.833
12272TIP3    H236760   3.918   4.046   5.793
12273TIP3   OH236761   3.758   5.134   2.203
12273TIP3    H136762   3.697   5.066   2.231
12273TIP3    H236763   3.702   5.211   2.187
12274TIP3   OH236764   5.625   4.868   5.174
12274TIP3    H136765   5.596   4.782   5.204
12274TIP3    H236766   5.719   4.869   5.193
12275TIP3   OH236767   6.515   4.346   5.302
12275TIP3    H136768   6.488   4.413   5.239
12275TIP3    H236769   6.432   4.315   5.339
12276TIP3   OH236770   1.330   2.055   0.253
12276TIP3    H136771   1.244   2.029   0.221
12276TIP3    H236772   1.390   1.992   0.213
12277TIP3   OH236773   5.705   0.043   5.236
12277TIP3    H136774   5.666  -0.041   5.259
12277TIP3    H236775   5.638   0.107   5.261
12278TIP3   OH236776   5.295   1.520   3.893
12278TIP3    H136777   5.221   1.578   3.873
12278TIP3    H236778   5.268   1.473   3.972
12279TIP3   OH236779   2.683   6.881   6.113
12279TIP3    H136780   2.731   6.927   6.182
12279TIP3    H236781   2.695   6.935   6.035
12280TIP3   OH236782   2.536   7.377   2.961
12280TIP3    H136783   2.497   7.315   2.899
12280TIP3    H236784   2.558   7.324   3.037
12281TIP3   OH236785   2.253   3.551   5.701
12281TIP3    H136786   2.213   3.629   5.739
12281TIP3    H236787   2.344   3.554   5.730
12282TIP3   OH236788   4.670   1.578   5.722
12282TIP3    H136789   4.697   1.521   5.794
12282TIP3    H236790   4.689   1.667   5.753
12283TIP3   OH236791   1.736   0.513   1.252
12283TIP3    H136792   1.815   0.474   1.291
12283TIP3    H236793   1.664   0.458   1.283
12284TIP3   OH236794   7.506   2.606   0.700
12284TIP3    H136795   7.546   2.522   0.680
12284TIP3    H236796   7.569   2.650   0.758
12285TIP3   OH236797   2.715   1.387   6.774
12285TIP3    H136798   2.778   1.407   6.705
12285TIP3    H236799   2.706   1.291   6.769
12286TIP3   OH236800   1.232   4.888   4.751
12286TIP3    H136801   1.195   4.883   4.663
12286TIP3    H236802   1.295   4.959   4.747
12287TIP3   OH236803   6.597   0.120   1.015
12287TIP3    H136804   6.522   0.173   0.986
12287TIP3    H236805   6.561   0.065   1.085
12288TIP3   OH236806   2.740   0.302   2.999
12288TIP3    H136807   2.682   0.368   2.961
12288TIP3    H236808   2.816   0.351   3.031
12289TIP3   OH236809   7.135   2.061   4.983
12289TIP3    H136810   7.216   2.072   4.934
12289TIP3    H236811   7.133   2.135   5.043
12290TIP3   OH236812   4.263   1.644   1.047
12290TIP3    H136813   4.238   1.565   1.095
12290TIP3    H236814   4.317   1.613   0.975
12291TIP3   OH236815   7.039   5.870   4.692
12291TIP3    H136816   7.079   5.946   4.650
12291TIP3    H236817   7.081   5.865   4.778
12292TIP3   OH236818   3.988   2.011   4.885
12292TIP3    H136819   4.056   1.955   4.850
12292TIP3    H236820   3.907   1.963   4.870
12293TIP3   OH236821   1.320   1.474   1.471
12293TIP3    H136822   1.349   1.552   1.519
12293TIP3    H236823   1.380   1.405   1.500
12294TIP3   OH236824   0.275   3.991   1.900
12294TIP3    H136825   0.276   4.014   1.993
12294TIP3    H236826   0.196   3.938   1.890
12295TIP3   OH236827   4.291   6.035   0.093
12295TIP3    H136828   4.206   6.034   0.138
12295TIP3    H236829   4.268   6.041   0.000
12296TIP3   OH236830   5.009   6.691   6.547
12296TIP3    H136831   5.051   6.638   6.479
12296TIP3    H236832   5.044   6.779   6.533
12297TIP3   OH236833   7.788   6.756   1.318
12297TIP3    H136834   7.813   6.675   1.275
12297TIP3    H236835   7.845   6.823   1.279
12298TIP3   OH236836   2.612   5.368   2.519
12298TIP3    H136837   2.646   5.322   2.443
12298TIP3    H236838   2.525   5.332   2.533
12299TIP3   OH236839   4.902   0.216   1.282
12299TIP3    H136840   4.923   0.200   1.190
12299TIP3    H236841   4.964   0.161   1.330
12300TIP3   OH236842   1.386   3.017   6.338
12300TIP3    H136843   1.373   3.048   6.248
12300TIP3    H236844   1.374   3.095   6.392
12301TIP3   OH236845   3.202   1.130   6.634
12301TIP3    H136846   3.158   1.134   6.719
12301TIP3    H236847   3.141   1.081   6.578
12302TIP3   OH236848   5.432   6.857   3.043
12302TIP3    H136849   5.495   6.834   3.112
12302TIP3    H236850   5.486   6.870   2.965
12303TIP3   OH236851   4.908   4.835   1.050
12303TIP3    H136852   4.898   4.929   1.033
12303TIP3    H236853   4.913   4.796   0.963
12304TIP3   OH236854   3.276   3.779   0.997
12304TIP3    H136855   3.343   3.774   1.065
12304TIP3    H236856   3.299   3.709   0.936
12305TIP3   OH236857   0.810   5.277   3.491
12305TIP3    H136858   0.728   5.261   3.538
12305TIP3    H236859   0.786   5.339   3.422
12306TIP3   OH236860   6.781   1.062   0.446
12306TIP3    H136861   6.818   0.988   0.397
12306TIP3    H236862   6.778   1.031   0.536
12307TIP3   OH236863   8.177   5.079   4.583
12307TIP3    H136864   8.249   5.041   4.634
12307TIP3    H236865   8.215   5.096   4.497
12308TIP3   OH236866   1.330   7.398   1.571
12308TIP3    H136867   1.401   7.451   1.608
12308TIP3    H236868   1.356   7.308   1.589
12309TIP3   OH236869   1.870   2.801   5.893
12309TIP3    H136870   1.807   2.756   5.949
12309TIP3    H236871   1.822   2.876   5.858
12310TIP3   OH236872   4.599   4.684   4.231
12310TIP3    H136873   4.597   4.779   4.226
12310TIP3    H236874   4.687   4.663   4.261
12311TIP3   OH236875   4.662   2.268   3.848
12311TIP3    H136876   4.652   2.330   3.775
12311TIP3    H236877   4.735   2.303   3.899
12312TIP3   OH236878   7.978   4.614   0.588
12312TIP3    H136879   8.040   4.605   0.661
12312TIP3    H236880   7.905   4.557   0.612
12313TIP3   OH236881   3.097   0.552   5.376
12313TIP3    H136882   3.167   0.555   5.312
12313TIP3    H236883   3.023   0.514   5.329
12314TIP3   OH236884   5.266   2.601   2.003
12314TIP3    H136885   5.234   2.691   2.008
12314TIP3    H236886   5.318   2.599   1.922
12315TIP3   OH236887   7.176   5.840   5.596
12315TIP3    H136888   7.090   5.799   5.603
12315TIP3    H236889   7.237   5.775   5.631
12316TIP3   OH236890   3.731   0.588   2.990
12316TIP3    H136891   3.669   0.627   3.052
12316TIP3    H236892   3.817   0.615   3.021
12317TIP3   OH236893   5.614   4.726   5.611
12317TIP3    H136894   5.590   4.813   5.577
12317TIP3    H236895   5.703   4.739   5.645
12318TIP3   OH236896   7.268   7.527   4.291
12318TIP3    H136897   7.304   7.454   4.241
12318TIP3    H236898   7.344   7.571   4.328
12319TIP3   OH236899   1.229   2.628   2.178
12319TIP3    H136900   1.166   2.658   2.244
12319TIP3    H236901   1.315   2.640   2.220
12320TIP3   OH236902   3.364   6.157   6.667
12320TIP3    H136903   3.413   6.204   6.599
12320TIP3    H236904   3.424   6.154   6.742
12321TIP3   OH236905   4.437   5.647   2.405
12321TIP3    H136906   4.494   5.625   2.479
12321TIP3    H236907   4.349   5.647   2.443
12322TIP3   OH236908   1.207   0.796   2.211
12322TIP3    H136909   1.119   0.796   2.172
12322TIP3    H236910   1.234   0.705   2.209
12323TIP3   OH236911   2.357   3.584   3.014
12323TIP3    H136912   2.333   3.493   2.998
12323TIP3    H236913   2.446   3.591   2.980
12324TIP3   OH236914   3.600   4.323   0.382
12324TIP3    H136915   3.563   4.297   0.466
12324TIP3    H236916   3.642   4.408   0.400
12325TIP3   OH236917   7.737   5.107   3.317
12325TIP3    H136918   7.775   5.173   3.375
12325TIP3    H236919   7.768   5.130   3.230
12326TIP3   OH236920   5.853   2.543   6.744
12326TIP3    H136921   5.763   2.555   6.712
12326TIP3    H236922   5.882   2.632   6.767
12327TIP3   OH236923   8.140   6.878   4.035
12327TIP3    H136924   8.148   6.970   4.057
12327TIP3    H236925   8.226   6.855   3.999
12328TIP3   OH236926   3.273   4.194   1.341
12328TIP3    H136927   3.284   4.132   1.269
12328TIP3    H236928   3.179   4.208   1.347
12329TIP3   OH236929   3.256   4.361   6.032
12329TIP3    H136930   3.222   4.448   6.011
12329TIP3    H236931   3.319   4.375   6.102
12330TIP3   OH236932   2.966   6.027   3.807
12330TIP3    H136933   3.055   6.060   3.819
12330TIP3    H236934   2.951   6.031   3.713
12331TIP3   OH236935   7.726   0.786   5.064
12331TIP3    H136936   7.774   0.812   5.143
12331TIP3    H236937   7.735   0.861   5.004
12332TIP3   OH236938   7.293   1.860   6.290
12332TIP3    H136939   7.364   1.797   6.306
12332TIP3    H236940   7.267   1.889   6.378
12333TIP3   OH236941   1.178   0.586   4.474
12333TIP3    H136942   1.253   0.645   4.461
12333TIP3    H236943   1.142   0.573   4.386
12334TIP3   OH236944   0.361   0.545   3.365
12334TIP3    H136945   0.387   0.473   3.308
12334TIP3    H236946   0.358   0.506   3.453
12335TIP3   OH236947   4.926   5.362   3.139
12335TIP3    H136948   4.947   5.356   3.232
12335TIP3    H236949   4.865   5.435   3.133
12336TIP3   OH236950   8.221   3.989   5.323
12336TIP3    H136951   8.192   3.907   5.362
12336TIP3    H236952   8.298   3.965   5.271
12337TIP3   OH236953   4.872   4.070   6.138
12337TIP3    H136954   4.853   4.096   6.228
12337TIP3    H236955   4.954   4.113   6.117
12338TIP3   OH236956   6.384   2.093   0.161
12338TIP3    H136957   6.335   2.015   0.188
12338TIP3    H236958   6.442   2.061   0.092
12339TIP3   OH236959   5.583   6.403   3.463
12339TIP3    H136960   5.656   6.361   3.509
12339TIP3    H236961   5.610   6.405   3.372
12340TIP3   OH236962   1.614   6.800   5.650
12340TIP3    H136963   1.697   6.819   5.605
12340TIP3    H236964   1.548   6.809   5.581
12341TIP3   OH236965   2.565   2.360   1.683
12341TIP3    H136966   2.535   2.407   1.605
12341TIP3    H236967   2.630   2.417   1.722
12342TIP3   OH236968   3.189   1.237   3.344
12342TIP3    H136969   3.147   1.296   3.407
12342TIP3    H236970   3.277   1.273   3.333
12343TIP3   OH236971   4.287   2.073   3.168
12343TIP3    H136972   4.331   2.028   3.241
12343TIP3    H236973   4.329   2.159   3.164
12344TIP3   OH236974   0.437   1.346   5.645
12344TIP3    H136975   0.390   1.317   5.567
12344TIP3    H236976   0.435   1.442   5.641
12345TIP3   OH236977   1.691   6.942   4.915
12345TIP3    H136978   1.711   6.851   4.895
12345TIP3    H236979   1.640   6.973   4.841
12346TIP3   OH236980   4.657   6.978   3.023
12346TIP3    H136981   4.620   7.061   3.054
12346TIP3    H236982   4.666   6.925   3.102
12347TIP3   OH236983   0.296   0.224   0.825
12347TIP3    H136984   0.334   0.137   0.837
12347TIP3    H236985   0.364   0.284   0.856
12348TIP3   OH236986   5.769   4.855   2.360
12348TIP3    H136987   5.839   4.799   2.328
12348TIP3    H236988   5.761   4.924   2.294
12349TIP3   OH236989   2.897   0.335   4.149
12349TIP3    H136990   2.977   0.355   4.101
12349TIP3    H236991   2.849   0.417   4.150
12350TIP3   OH236992   3.601   4.010   6.609
12350TIP3    H136993   3.598   3.937   6.670
12350TIP3    H236994   3.510   4.026   6.585
12351TIP3   OH236995   3.961   0.802   5.083
12351TIP3    H136996   3.979   0.838   5.170
12351TIP3    H236997   3.899   0.864   5.045
12352TIP3   OH236998   1.666   6.504   5.622
12352TIP3    H136999   1.761   6.496   5.612
12352TIP3    H237000   1.639   6.559   5.548
12353TIP3   OH237001   4.043   0.867   6.510
12353TIP3    H137002   4.094   0.948   6.500
12353TIP3    H237003   4.085   0.805   6.450
12354TIP3   OH237004   2.363   2.126   0.825
12354TIP3    H137005   2.451   2.145   0.794
12354TIP3    H237006   2.305   2.161   0.757
12355TIP3   OH237007   2.630   0.493   3.420
12355TIP3    H137008   2.611   0.418   3.363
12355TIP3    H237009   2.589   0.470   3.504
12356TIP3   OH237010   6.510   3.307   4.323
12356TIP3    H137011   6.515   3.296   4.228
12356TIP3    H237012   6.541   3.224   4.359
12357TIP3   OH237013   0.670   3.666   1.540
12357TIP3    H137014   0.626   3.605   1.482
12357TIP3    H237015   0.744   3.617   1.576
12358TIP3   OH237016   3.126   6.903   3.832
12358TIP3    H137017   3.063   6.966   3.797
12358TIP3    H237018   3.203   6.913   3.776
12359TIP3   OH237019   2.488   1.908   6.313
12359TIP3    H137020   2.573   1.950   6.326
12359TIP3    H237021   2.508   1.815   6.306
12360TIP3   OH237022   0.710   5.193   4.960
12360TIP3    H137023   0.726   5.281   4.926
12360TIP3    H237024   0.638   5.204   5.022
12361TIP3   OH237025   4.362   0.679   5.223
12361TIP3    H137026   4.434   0.669   5.285
12361TIP3    H237027   4.285   0.649   5.272
12362TIP3   OH237028   5.661   0.123   2.354
12362TIP3    H137029   5.571   0.121   2.319
12362TIP3    H237030   5.694   0.035   2.338
12363TIP3   OH237031   4.637   7.135   1.638
12363TIP3    H137032   4.600   7.175   1.717
12363TIP3    H237033   4.688   7.205   1.597
12364TIP3   OH237034   3.413   5.682   0.451
12364TIP3    H137035   3.450   5.751   0.505
12364TIP3    H237036   3.321   5.676   0.479
12365TIP3   OH237037   3.935   7.338   0.530
12365TIP3    H137038   3.939   7.302   0.442
12365TIP3    H237039   3.914   7.264   0.587
12366TIP3   OH237040   3.523   5.365   2.271
12366TIP3    H137041   3.615   5.384   2.291
12366TIP3    H237042   3.492   5.443   2.225
12367TIP3   OH237043   6.867   6.771   1.570
12367TIP3    H137044   6.941   6.831   1.579
12367TIP3    H237045   6.817   6.806   1.496
12368TIP3   OH237046   3.874   4.066   6.564
12368TIP3    H137047   3.900   3.974   6.569
12368TIP3    H237048   3.781   4.067   6.589
12369TIP3   OH237049   2.463   7.062   4.750
12369TIP3    H137050   2.413   7.143   4.750
12369TIP3    H237051   2.462   7.033   4.842
12370TIP3   OH237052   3.302   1.987   3.262
12370TIP3    H137053   3.345   2.030   3.189
12370TIP3    H237054   3.233   2.047   3.289
12371TIP3   OH237055   1.007   2.073   6.004
12371TIP3    H137056   1.083   2.125   5.975
12371TIP3    H237057   1.005   2.084   6.099
12372TIP3   OH237058   5.742   0.532   2.416
12372TIP3    H137059   5.809   0.594   2.387
12372TIP3    H237060   5.687   0.583   2.476
12373TIP3   OH237061   5.152   1.065   1.202
12373TIP3    H137062   5.152   1.033   1.112
12373TIP3    H237063   5.108   0.996   1.253
12374TIP3   OH237064   4.657   5.301   1.246
12374TIP3    H137065   4.666   5.391   1.276
12374TIP3    H237066   4.623   5.253   1.322
12375TIP3   OH237067   4.240   0.786   4.990
12375TIP3    H137068   4.278   0.751   5.070
12375TIP3    H237069   4.146   0.775   5.001
12376TIP3   OH237070   0.956   6.628   5.953
12376TIP3    H137071   0.933   6.554   6.010
12376TIP3    H237072   1.036   6.663   5.991
12377TIP3   OH237073   5.923   2.896   5.599
12377TIP3    H137074   5.973   2.963   5.554
12377TIP3    H237075   5.847   2.881   5.543
12378TIP3   OH237076   1.551   4.779   6.486
12378TIP3    H137077   1.632   4.812   6.524
12378TIP3    H237078   1.578   4.741   6.402
12379TIP3   OH237079   8.231   2.499   6.113
12379TIP3    H137080   8.166   2.543   6.169
12379TIP3    H237081   8.223   2.542   6.029
12380TIP3   OH237082   4.212   4.842   1.499
12380TIP3    H137083   4.270   4.897   1.552
12380TIP3    H237084   4.265   4.765   1.479
12381TIP3   OH237085   2.513   2.504   6.199
12381TIP3    H137086   2.457   2.574   6.167
12381TIP3    H237087   2.599   2.522   6.163
12382TIP3   OH237088   6.248   1.917   1.087
12382TIP3    H137089   6.178   1.863   1.124
12382TIP3    H237090   6.253   1.993   1.144
12383TIP3   OH237091   1.592   7.497   1.644
12383TIP3    H137092   1.597   7.588   1.671
12383TIP3    H237093   1.604   7.447   1.726
12384TIP3   OH237094   4.425   1.688   4.667
12384TIP3    H137095   4.448   1.701   4.759
12384TIP3    H237096   4.502   1.717   4.619
12385TIP3   OH237097   7.889   2.152   4.201
12385TIP3    H137098   7.959   2.168   4.264
12385TIP3    H237099   7.841   2.078   4.237
12386TIP3   OH237100   3.416   4.317   0.167
12386TIP3    H137101   3.488   4.332   0.229
12386TIP3    H237102   3.416   4.222   0.153
12387TIP3   OH237103   5.207   5.117   0.341
12387TIP3    H137104   5.198   5.152   0.253
12387TIP3    H237105   5.265   5.042   0.332
12388TIP3   OH237106   1.726   4.856   4.533
12388TIP3    H137107   1.728   4.922   4.602
12388TIP3    H237108   1.639   4.866   4.494
12389TIP3   OH237109   4.434   0.934   5.253
12389TIP3    H137110   4.522   0.916   5.284
12389TIP3    H237111   4.399   0.848   5.230
12390TIP3   OH237112   1.604   5.234   4.505
12390TIP3    H137113   1.526   5.237   4.560
12390TIP3    H237114   1.579   5.281   4.425
12391TIP3   OH237115   4.584   1.286   4.752
12391TIP3    H137116   4.610   1.359   4.808
12391TIP3    H237117   4.491   1.299   4.737
12392TIP3   OH237118   4.331   4.451   6.403
12392TIP3    H137119   4.344   4.510   6.477
12392TIP3    H237120   4.414   4.403   6.396
12393TIP3   OH237121   4.106   6.097   6.635
12393TIP3    H137122   4.040   6.144   6.584
12393TIP3    H237123   4.057   6.039   6.692
12394TIP3   OH237124   3.615   6.408   2.002
12394TIP3    H137125   3.521   6.391   1.988
12394TIP3    H237126   3.658   6.332   1.962
12395TIP3   OH237127   6.897   1.119   2.903
12395TIP3    H137128   6.939   1.133   2.988
12395TIP3    H237129   6.911   1.201   2.856
12396TIP3   OH237130   1.658   0.538   3.256
12396TIP3    H137131   1.678   0.454   3.213
12396TIP3    H237132   1.565   0.533   3.275
12397TIP3   OH237133   0.057   1.251   2.695
12397TIP3    H137134   0.100   1.167   2.713
12397TIP3    H237135   0.106   1.315   2.747
12398TIP3   OH237136   6.286   5.951   0.981
12398TIP3    H137137   6.208   5.948   1.036
12398TIP3    H237138   6.297   5.862   0.950
12399TIP3   OH237139   3.720   6.003   2.110
12399TIP3    H137140   3.772   6.074   2.147
12399TIP3    H237141   3.770   5.973   2.034
12400TIP3   OH237142   2.149   7.669   5.616
12400TIP3    H137143   2.222   7.628   5.663
12400TIP3    H237144   2.171   7.656   5.524
12401TIP3   OH237145   1.884   0.910   4.684
12401TIP3    H137146   1.796   0.907   4.647
12401TIP3    H237147   1.932   0.969   4.625
12402TIP3   OH237148   3.973   6.845   6.460
12402TIP3    H137149   4.047   6.906   6.469
12402TIP3    H237150   3.917   6.864   6.535
12403TIP3   OH237151   4.702   5.758   2.104
12403TIP3    H137152   4.616   5.794   2.081
12403TIP3    H237153   4.711   5.774   2.198
12404TIP3   OH237154   1.646   4.376   2.750
12404TIP3    H137155   1.588   4.365   2.826
12404TIP3    H237156   1.591   4.416   2.683
12405TIP3   OH237157   2.814   3.241   2.008
12405TIP3    H137158   2.833   3.198   1.925
12405TIP3    H237159   2.722   3.269   2.001
12406TIP3   OH237160   1.129   7.393   0.131
12406TIP3    H137161   1.091   7.450   0.198
12406TIP3    H237162   1.179   7.453   0.075
12407TIP3   OH237163   4.440   3.469   6.451
12407TIP3    H137164   4.510   3.441   6.392
12407TIP3    H237165   4.459   3.426   6.534
12408TIP3   OH237166   4.837   1.689   4.019
12408TIP3    H137167   4.784   1.636   3.959
12408TIP3    H237168   4.922   1.696   3.976
12409TIP3   OH237169   1.333   0.772   4.065
12409TIP3    H137170   1.404   0.835   4.079
12409TIP3    H237171   1.324   0.766   3.970
12410TIP3   OH237172   2.901   2.209   1.691
12410TIP3    H137173   2.951   2.270   1.745
12410TIP3    H237174   2.870   2.142   1.752
12411TIP3   OH237175   6.808   4.520   3.437
12411TIP3    H137176   6.775   4.513   3.526
12411TIP3    H237177   6.730   4.518   3.382
12412TIP3   OH237178   4.355   0.908   2.272
12412TIP3    H137179   4.341   1.002   2.263
12412TIP3    H237180   4.302   0.869   2.201
12413TIP3   OH237181   6.059   7.650   3.597
12413TIP3    H137182   5.989   7.713   3.617
12413TIP3    H237183   6.053   7.585   3.667
12414TIP3   OH237184   0.940   6.992   6.610
12414TIP3    H137185   0.966   7.046   6.536
12414TIP3    H237186   0.852   7.022   6.632
12415TIP3   OH237187   4.921   6.579   4.334
12415TIP3    H137188   4.872   6.658   4.356
12415TIP3    H237189   5.007   6.593   4.372
12416TIP3   OH237190   2.551   7.248   4.221
12416TIP3    H137191   2.516   7.299   4.147
12416TIP3    H237192   2.478   7.191   4.247
12417TIP3   OH237193   1.114   2.211   0.947
12417TIP3    H137194   1.063   2.142   0.905
12417TIP3    H237195   1.185   2.229   0.886
12418TIP3   OH237196   6.238   4.852   1.141
12418TIP3    H137197   6.294   4.824   1.214
12418TIP3    H237198   6.276   4.810   1.064
12419TIP3   OH237199   1.945   0.392   0.997
12419TIP3    H137200   1.916   0.430   1.080
12419TIP3    H237201   2.040   0.394   1.001
12420TIP3   OH237202   6.377   0.058   0.671
12420TIP3    H137203   6.342   0.098   0.750
12420TIP3    H237204   6.360  -0.036   0.682
12421TIP3   OH237205   0.035   3.600   1.678
12421TIP3    H137206   0.028   3.636   1.590
12421TIP3    H237207   0.060   3.509   1.665
12422TIP3   OH237208   4.191   2.113   0.964
12422TIP3    H137209   4.142   2.186   1.002
12422TIP3    H237210   4.268   2.153   0.924
12423TIP3   OH237211   3.329   4.302   4.208
12423TIP3    H137212   3.284   4.319   4.291
12423TIP3    H237213   3.362   4.212   4.217
12424TIP3   OH237214   6.933   6.106   2.630
12424TIP3    H137215   6.840   6.106   2.606
12424TIP3    H237216   6.965   6.020   2.603
12425TIP3   OH237217   3.040   6.348   3.196
12425TIP3    H137218   3.130   6.378   3.203
12425TIP3    H237219   2.995   6.388   3.270
12426TIP3   OH237220   1.755   1.627   3.049
12426TIP3    H137221   1.831   1.582   3.012
12426TIP3    H237222   1.682   1.602   2.992
12427TIP3   OH237223   3.238   2.108   1.076
12427TIP3    H137224   3.261   2.108   1.169
12427TIP3    H237225   3.144   2.127   1.075
12428TIP3   OH237226   0.747   1.088   6.124
12428TIP3    H137227   0.757   1.181   6.148
12428TIP3    H237228   0.835   1.052   6.130
12429TIP3   OH237229   2.991   7.097   1.484
12429TIP3    H137230   2.980   7.073   1.576
12429TIP3    H237231   2.904   7.087   1.445
12430TIP3   OH237232   5.177   7.526   1.748
12430TIP3    H137233   5.234   7.449   1.743
12430TIP3    H237234   5.113   7.513   1.677
12431TIP3   OH237235   7.827   7.181   1.799
12431TIP3    H137236   7.737   7.211   1.782
12431TIP3    H237237   7.848   7.124   1.725
12432TIP3   OH237238   3.775   2.958   4.168
12432TIP3    H137239   3.800   2.916   4.086
12432TIP3    H237240   3.856   2.961   4.218
12433TIP3   OH237241   0.694   0.960   2.411
12433TIP3    H137242   0.652   1.045   2.418
12433TIP3    H237243   0.675   0.915   2.493
12434TIP3   OH237244   3.670   2.606   2.811
12434TIP3    H137245   3.688   2.523   2.855
12434TIP3    H237246   3.581   2.629   2.836
12435TIP3   OH237247   3.430   4.162   6.272
12435TIP3    H137248   3.409   4.121   6.356
12435TIP3    H237249   3.472   4.093   6.222
12436TIP3   OH237250   2.864   0.899   5.577
12436TIP3    H137251   2.870   0.929   5.486
12436TIP3    H237252   2.953   0.873   5.600
12437TIP3   OH237253   3.180   5.210   2.660
12437TIP3    H137254   3.114   5.183   2.724
12437TIP3    H237255   3.134   5.272   2.604
12438TIP3   OH237256   3.732   4.168   1.463
12438TIP3    H137257   3.744   4.073   1.465
12438TIP3    H237258   3.685   4.188   1.543
12439TIP3   OH237259   3.548   2.849   1.229
12439TIP3    H137260   3.614   2.781   1.217
12439TIP3    H237261   3.558   2.877   1.320
12440TIP3   OH237262   0.024   7.727   5.079
12440TIP3    H137263   0.095   7.758   5.022
12440TIP3    H237264  -0.010   7.649   5.035
12441TIP3   OH237265   3.073   4.862   3.045
12441TIP3    H137266   3.105   4.823   3.126
12441TIP3    H237267   3.124   4.818   2.976
12442TIP3   OH237268   3.426   5.160   2.122
12442TIP3    H137269   3.467   5.210   2.192
12442TIP3    H237270   3.389   5.225   2.063
12443TIP3   OH237271   5.882   5.425   4.085
12443TIP3    H137272   5.867   5.501   4.141
12443TIP3    H237273   5.907   5.462   4.000
12444TIP3   OH237274   7.616   1.347   3.876
12444TIP3    H137275   7.694   1.323   3.826
12444TIP3    H237276   7.576   1.264   3.901
12445TIP3   OH237277   1.221   3.247   6.118
12445TIP3    H137278   1.219   3.301   6.038
12445TIP3    H237279   1.145   3.276   6.168
12446TIP3   OH237280   8.095   4.154   5.115
12446TIP3    H137281   8.170   4.126   5.167
12446TIP3    H237282   8.021   4.105   5.150
12447TIP3   OH237283   7.021   5.542   2.254
12447TIP3    H137284   7.031   5.469   2.193
12447TIP3    H237285   7.007   5.618   2.198
12448TIP3   OH237286   0.914   3.129   5.980
12448TIP3    H137287   0.859   3.195   5.937
12448TIP3    H237288   0.942   3.170   6.061
12449TIP3   OH237289   5.830   2.227   4.175
12449TIP3    H137290   5.842   2.182   4.091
12449TIP3    H237291   5.906   2.285   4.182
12450TIP3   OH237292   0.265   4.208   3.399
12450TIP3    H137293   0.241   4.206   3.306
12450TIP3    H237294   0.184   4.186   3.445
12451TIP3   OH237295   1.561   1.789   6.779
12451TIP3    H137296   1.534   1.721   6.718
12451TIP3    H237297   1.551   1.871   6.731
12452TIP3   OH237298   3.646   4.612   3.392
12452TIP3    H137299   3.637   4.569   3.477
12452TIP3    H237300   3.637   4.541   3.328
12453TIP3   OH237301   1.235   6.435   3.060
12453TIP3    H137302   1.311   6.489   3.082
12453TIP3    H237303   1.258   6.348   3.094
12454TIP3   OH237304   6.156   4.880   2.066
12454TIP3    H137305   6.093   4.940   2.107
12454TIP3    H237306   6.134   4.881   1.973
12455TIP3   OH237307   0.353   2.654   1.320
12455TIP3    H137308   0.377   2.693   1.236
12455TIP3    H237309   0.412   2.695   1.383
12456TIP3   OH237310   1.246   0.195   6.504
12456TIP3    H137311   1.256   0.260   6.435
12456TIP3    H237312   1.314   0.130   6.486
12457TIP3   OH237313   4.217   6.665   1.647
12457TIP3    H137314   4.228   6.732   1.580
12457TIP3    H237315   4.293   6.677   1.705
12458TIP3   OH237316   5.699   3.998   2.410
12458TIP3    H137317   5.650   4.078   2.429
12458TIP3    H237318   5.659   3.964   2.330
12459TIP3   OH237319   4.406   2.516   6.348
12459TIP3    H137320   4.427   2.438   6.399
12459TIP3    H237321   4.490   2.560   6.335
12460TIP3   OH237322   8.097   2.580   5.886
12460TIP3    H137323   8.056   2.607   5.804
12460TIP3    H237324   8.025   2.576   5.949
12461TIP3   OH237325   3.696   3.783   4.258
12461TIP3    H137326   3.687   3.730   4.178
12461TIP3    H237327   3.639   3.741   4.322
12462TIP3   OH237328   2.807   2.563   6.419
12462TIP3    H137329   2.810   2.659   6.427
12462TIP3    H237330   2.744   2.535   6.485
12463TIP3   OH237331   1.085   3.326   5.713
12463TIP3    H137332   1.114   3.357   5.799
12463TIP3    H237333   1.060   3.405   5.666
12464TIP3   OH237334   0.867   1.373   3.252
12464TIP3    H137335   0.872   1.455   3.302
12464TIP3    H237336   0.791   1.328   3.287
12465TIP3   OH237337   1.223   1.540   2.246
12465TIP3    H137338   1.243   1.565   2.336
12465TIP3    H237339   1.233   1.445   2.244
12466TIP3   OH237340   6.083   3.421   0.442
12466TIP3    H137341   6.065   3.328   0.430
12466TIP3    H237342   5.998   3.463   0.433
12467TIP3   OH237343   3.104   1.785   1.141
12467TIP3    H137344   3.058   1.830   1.212
12467TIP3    H237345   3.163   1.851   1.105
12468TIP3   OH237346   2.295   6.559   2.712
12468TIP3    H137347   2.294   6.654   2.724
12468TIP3    H237348   2.235   6.525   2.778
12469TIP3   OH237349   0.649   6.512   0.157
12469TIP3    H137350   0.607   6.585   0.203
12469TIP3    H237351   0.585   6.485   0.091
12470TIP3   OH237352   6.904   3.003   3.331
12470TIP3    H137353   6.824   3.048   3.358
12470TIP3    H237354   6.892   2.912   3.359
12471TIP3   OH237355   4.988   0.116   2.834
12471TIP3    H137356   5.011   0.142   2.924
12471TIP3    H237357   5.070   0.082   2.798
12472TIP3   OH237358   6.577   0.237   5.206
12472TIP3    H137359   6.573   0.145   5.233
12472TIP3    H237360   6.574   0.286   5.288
12473TIP3   OH237361   2.130   4.443   3.002
12473TIP3    H137362   2.115   4.451   2.908
12473TIP3    H237363   2.166   4.355   3.013
12474TIP3   OH237364   7.868   0.423   4.881
12474TIP3    H137365   7.870   0.420   4.976
12474TIP3    H237366   7.862   0.332   4.854
12475TIP3   OH237367   7.230   6.034   4.824
12475TIP3    H137368   7.272   6.116   4.850
12475TIP3    H237369   7.143   6.039   4.865
12476TIP3   OH237370   7.483   2.089   4.817
12476TIP3    H137371   7.398   2.095   4.773
12476TIP3    H237372   7.544   2.133   4.758
12477TIP3   OH237373   6.042   2.955   3.935
12477TIP3    H137374   6.075   2.866   3.947
12477TIP3    H237375   6.021   2.960   3.842
12478TIP3   OH237376   6.301   6.334   4.648
12478TIP3    H137377   6.385   6.325   4.693
12478TIP3    H237378   6.320   6.310   4.557
12479TIP3   OH237379   0.839   1.299   4.194
12479TIP3    H137380   0.899   1.228   4.171
12479TIP3    H237381   0.811   1.278   4.284
12480TIP3   OH237382   6.306   0.573   4.328
12480TIP3    H137383   6.316   0.596   4.236
12480TIP3    H237384   6.390   0.595   4.368
12481TIP3   OH237385   4.064   5.139   4.785
12481TIP3    H137386   3.987   5.111   4.835
12481TIP3    H237387   4.061   5.234   4.786
12482TIP3   OH237388   2.346   3.327   5.959
12482TIP3    H137389   2.412   3.311   6.027
12482TIP3    H237390   2.397   3.330   5.877
12483TIP3   OH237391   0.512   1.945   0.754
12483TIP3    H137392   0.487   2.035   0.776
12483TIP3    H237393   0.540   1.949   0.663
12484TIP3   OH237394   1.086   2.382   6.287
12484TIP3    H137395   1.071   2.297   6.329
12484TIP3    H237396   1.165   2.370   6.235
12485TIP3   OH237397   7.336   2.253   2.346
12485TIP3    H137398   7.280   2.253   2.423
12485TIP3    H237399   7.301   2.323   2.291
12486TIP3   OH237400   2.796   0.951   3.594
12486TIP3    H137401   2.739   1.024   3.572
12486TIP3    H237402   2.885   0.985   3.579
12487TIP3   OH237403   7.134   5.746   3.102
12487TIP3    H137404   7.118   5.786   3.188
12487TIP3    H237405   7.213   5.788   3.070
12488TIP3   OH237406   8.291   2.107   4.825
12488TIP3    H137407   8.199   2.115   4.849
12488TIP3    H237408   8.295   2.141   4.735
12489TIP3   OH237409   7.190   2.796   2.812
12489TIP3    H137410   7.188   2.762   2.722
12489TIP3    H237411   7.106   2.839   2.823
12490TIP3   OH237412   4.882   2.928   3.275
12490TIP3    H137413   4.814   2.896   3.334
12490TIP3    H237414   4.964   2.912   3.322
12491TIP3   OH237415   6.886   2.958   5.648
12491TIP3    H137416   6.875   2.932   5.739
12491TIP3    H237417   6.797   2.963   5.613
12492TIP3   OH237418   1.011   4.894   3.330
12492TIP3    H137419   0.975   4.809   3.355
12492TIP3    H237420   0.950   4.928   3.264
12493TIP3   OH237421   8.223   6.450   2.723
12493TIP3    H137422   8.189   6.526   2.770
12493TIP3    H237423   8.149   6.388   2.721
12494TIP3   OH237424   3.671   0.042   3.330
12494TIP3    H137425   3.717   0.085   3.257
12494TIP3    H237426   3.579   0.042   3.305
12495TIP3   OH237427   5.955   4.875   3.830
12495TIP3    H137428   5.952   4.811   3.759
12495TIP3    H237429   5.900   4.837   3.899
12496TIP3   OH237430   7.705   7.594   5.877
12496TIP3    H137431   7.757   7.674   5.880
12496TIP3    H237432   7.668   7.592   5.788
12497TIP3   OH237433   7.194   4.676   2.262
12497TIP3    H137434   7.280   4.713   2.283
12497TIP3    H237435   7.138   4.701   2.336
12498TIP3   OH237436   5.756   5.625   4.229
12498TIP3    H137437   5.777   5.710   4.268
12498TIP3    H237438   5.668   5.635   4.194
12499TIP3   OH237439   3.845   0.460   3.869
12499TIP3    H137440   3.872   0.449   3.960
12499TIP3    H237441   3.749   0.455   3.872
12500TIP3   OH237442   7.504   5.644   4.178
12500TIP3    H137443   7.436   5.581   4.202
12500TIP3    H237444   7.573   5.591   4.137
12501TIP3   OH237445   7.792   0.131   1.468
12501TIP3    H137446   7.833   0.141   1.382
12501TIP3    H237447   7.855   0.078   1.518
12502TIP3   OH237448   5.932   1.415   1.706
12502TIP3    H137449   5.976   1.347   1.655
12502TIP3    H237450   5.977   1.417   1.790
12503TIP3   OH237451   5.692   1.852   3.257
12503TIP3    H137452   5.613   1.849   3.203
12503TIP3    H237453   5.748   1.917   3.214
12504TIP3   OH237454   2.376   3.471   0.743
12504TIP3    H137455   2.312   3.420   0.693
12504TIP3    H237456   2.339   3.474   0.832
12505TIP3   OH237457   7.584   3.294   1.597
12505TIP3    H137458   7.521   3.355   1.558
12505TIP3    H237459   7.539   3.210   1.597
12506TIP3   OH237460   2.768   2.363   5.003
12506TIP3    H137461   2.825   2.413   4.946
12506TIP3    H237462   2.822   2.289   5.032
12507TIP3   OH237463   7.109   2.221   3.974
12507TIP3    H137464   7.111   2.311   3.943
12507TIP3    H237465   7.172   2.175   3.918
12508TIP3   OH237466   1.907   5.915   4.003
12508TIP3    H137467   1.837   5.913   3.937
12508TIP3    H237468   1.866   5.955   4.079
12509TIP3   OH237469   0.279   4.393   1.251
12509TIP3    H137470   0.264   4.366   1.342
12509TIP3    H237471   0.194   4.427   1.222
12510TIP3   OH237472   5.061   0.839   1.321
12510TIP3    H137473   5.070   0.762   1.266
12510TIP3    H237474   4.994   0.816   1.385
12511TIP3   OH237475   7.600   0.507   3.715
12511TIP3    H137476   7.586   0.436   3.653
12511TIP3    H237477   7.599   0.464   3.801
12512TIP3   OH237478   1.166   6.902   0.919
12512TIP3    H137479   1.118   6.878   0.839
12512TIP3    H237480   1.245   6.946   0.888
12513TIP3   OH237481   4.596   0.879   0.702
12513TIP3    H137482   4.572   0.950   0.761
12513TIP3    H237483   4.524   0.816   0.709
12514TIP3   OH237484   0.762   1.227   2.721
12514TIP3    H137485   0.799   1.314   2.737
12514TIP3    H237486   0.776   1.179   2.803
12515TIP3   OH237487   0.932   2.543   3.189
12515TIP3    H137488   0.943   2.543   3.094
12515TIP3    H237489   1.013   2.505   3.222
12516TIP3   OH237490   5.447   5.848   1.766
12516TIP3    H137491   5.523   5.803   1.804
12516TIP3    H237492   5.398   5.779   1.721
12517TIP3   OH237493   1.012   3.885   5.764
12517TIP3    H137494   1.022   3.853   5.854
12517TIP3    H237495   0.925   3.925   5.762
12518TIP3   OH237496   8.138   0.714   1.821
12518TIP3    H137497   8.071   0.654   1.853
12518TIP3    H237498   8.197   0.726   1.896
12519TIP3   OH237499   3.905   5.599   6.107
12519TIP3    H137500   3.933   5.524   6.054
12519TIP3    H237501   3.848   5.649   6.049
12520TIP3   OH237502   5.365   4.971   5.132
12520TIP3    H137503   5.448   4.924   5.146
12520TIP3    H237504   5.389   5.063   5.137
12521TIP3   OH237505   2.929   4.964   2.141
12521TIP3    H137506   2.917   5.045   2.091
12521TIP3    H237507   3.024   4.957   2.153
12522TIP3   OH237508   6.387   4.706   6.752
12522TIP3    H137509   6.343   4.725   6.669
12522TIP3    H237510   6.376   4.611   6.764
12523TIP3   OH237511   5.882   6.586   6.090
12523TIP3    H137512   5.970   6.560   6.118
12523TIP3    H237513   5.890   6.679   6.068
12524TIP3   OH237514   3.841   4.390   6.707
12524TIP3    H137515   3.920   4.427   6.745
12524TIP3    H237516   3.853   4.399   6.612
12525TIP3   OH237517   5.574   7.650   3.617
12525TIP3    H137518   5.619   7.575   3.577
12525TIP3    H237519   5.519   7.684   3.548
12526TIP3   OH237520   7.239   0.955   5.728
12526TIP3    H137521   7.249   1.027   5.667
12526TIP3    H237522   7.150   0.923   5.713
12527TIP3   OH237523   5.343   2.661   2.759
12527TIP3    H137524   5.264   2.642   2.810
12527TIP3    H237525   5.314   2.718   2.688
12528TIP3   OH237526   8.182   2.060   3.942
12528TIP3    H137527   8.183   1.982   3.887
12528TIP3    H237528   8.274   2.087   3.946
12529TIP3   OH237529   3.873   7.120   3.688
12529TIP3    H137530   3.917   7.116   3.603
12529TIP3    H237531   3.788   7.079   3.674
12530TIP3   OH237532   0.740   1.475   0.437
12530TIP3    H137533   0.738   1.509   0.347
12530TIP3    H237534   0.665   1.517   0.479
12531TIP3   OH237535   2.343   5.416   3.599
12531TIP3    H137536   2.384   5.418   3.512
12531TIP3    H237537   2.402   5.363   3.652
12532TIP3   OH237538   4.635   6.265   0.104
12532TIP3    H137539   4.543   6.284   0.126
12532TIP3    H237540   4.678   6.350   0.105
12533TIP3   OH237541   8.010   4.183   3.378
12533TIP3    H137542   7.975   4.258   3.330
12533TIP3    H237543   8.056   4.131   3.313
12534TIP3   OH237544   5.419   4.883   5.984
12534TIP3    H137545   5.455   4.926   5.906
12534TIP3    H237546   5.389   4.955   6.039
12535TIP3   OH237547   2.588   6.033   6.230
12535TIP3    H137548   2.523   6.085   6.277
12535TIP3    H237549   2.669   6.084   6.237
12536TIP3   OH237550   5.679   0.512   4.738
12536TIP3    H137551   5.752   0.540   4.682
12536TIP3    H237552   5.679   0.417   4.731
12537TIP3   OH237553   2.846   0.288   1.697
12537TIP3    H137554   2.840   0.319   1.607
12537TIP3    H237555   2.755   0.284   1.727
12538TIP3   OH237556   5.953   6.712   5.203
12538TIP3    H137557   5.880   6.765   5.236
12538TIP3    H237558   5.998   6.769   5.142
12539TIP3   OH237559   4.763   4.706   2.873
12539TIP3    H137560   4.787   4.699   2.965
12539TIP3    H237561   4.847   4.703   2.826
12540TIP3   OH237562   4.955   2.611   1.130
12540TIP3    H137563   4.873   2.654   1.155
12540TIP3    H237564   4.935   2.570   1.045
12541TIP3   OH237565   3.775   4.000   3.120
12541TIP3    H137566   3.694   4.039   3.154
12541TIP3    H237567   3.799   4.056   3.047
12542TIP3   OH237568   3.698   2.059   6.261
12542TIP3    H137569   3.721   2.151   6.248
12542TIP3    H237570   3.739   2.036   6.344
12543TIP3   OH237571   1.280   6.154   6.722
12543TIP3    H137572   1.319   6.229   6.676
12543TIP3    H237573   1.220   6.193   6.785
12544TIP3   OH237574   4.319   1.558   0.418
12544TIP3    H137575   4.383   1.584   0.351
12544TIP3    H237576   4.303   1.465   0.400
12545TIP3   OH237577   4.522   1.619   3.374
12545TIP3    H137578   4.614   1.614   3.400
12545TIP3    H237579   4.515   1.560   3.299
12546TIP3   OH237580   4.790   4.409   3.499
12546TIP3    H137581   4.751   4.372   3.578
12546TIP3    H237582   4.729   4.387   3.429
12547TIP3   OH237583   3.180   5.372   6.045
12547TIP3    H137584   3.091   5.342   6.028
12547TIP3    H237585   3.229   5.348   5.965
12548TIP3   OH237586   5.712   4.666   0.049
12548TIP3    H137587   5.808   4.661   0.045
12548TIP3    H237588   5.692   4.653   0.142
12549TIP3   OH237589   3.050   1.495   2.879
12549TIP3    H137590   2.975   1.445   2.847
12549TIP3    H237591   3.081   1.543   2.802
12550TIP3   OH237592   2.086   0.594   3.778
12550TIP3    H137593   2.089   0.631   3.866
12550TIP3    H237594   2.111   0.667   3.721
12551TIP3   OH237595   1.626   7.294   4.245
12551TIP3    H137596   1.657   7.383   4.261
12551TIP3    H237597   1.547   7.306   4.193
12552TIP3   OH237598   0.637   1.438   4.914
12552TIP3    H137599   0.728   1.465   4.910
12552TIP3    H237600   0.633   1.375   4.986
12553TIP3   OH237601   2.110   2.785   1.666
12553TIP3    H137602   2.100   2.826   1.580
12553TIP3    H237603   2.115   2.691   1.648
12554TIP3   OH237604   1.171   0.317   4.526
12554TIP3    H137605   1.080   0.316   4.496
12554TIP3    H237606   1.194   0.410   4.527
12555TIP3   OH237607   3.412   4.245   5.330
12555TIP3    H137608   3.460   4.301   5.269
12555TIP3    H237609   3.351   4.304   5.375
12556TIP3   OH237610   1.844   1.144   5.143
12556TIP3    H137611   1.892   1.164   5.063
12556TIP3    H237612   1.867   1.214   5.204
12557TIP3   OH237613   2.129   1.776   4.453
12557TIP3    H137614   2.155   1.839   4.521
12557TIP3    H237615   2.108   1.696   4.501
12558TIP3   OH237616   7.610   2.393   1.369
12558TIP3    H137617   7.605   2.478   1.325
12558TIP3    H237618   7.697   2.392   1.409
12559TIP3   OH237619   3.773   0.892   3.847
12559TIP3    H137620   3.738   0.973   3.884
12559TIP3    H237621   3.865   0.912   3.828
12560TIP3   OH237622   0.717   5.764   6.410
12560TIP3    H137623   0.663   5.818   6.467
12560TIP3    H237624   0.753   5.696   6.467
12561TIP3   OH237625   7.037   0.042   3.897
12561TIP3    H137626   6.981   0.007   3.829
12561TIP3    H237627   7.018   0.136   3.897
12562TIP3   OH237628   0.700   5.609   0.152
12562TIP3    H137629   0.759   5.681   0.129
12562TIP3    H237630   0.727   5.584   0.240
12563TIP3   OH237631   1.941   6.214   2.114
12563TIP3    H137632   2.012   6.164   2.153
12563TIP3    H237633   1.890   6.149   2.065
12564TIP3   OH237634   6.471   5.824   2.073
12564TIP3    H137635   6.395   5.787   2.029
12564TIP3    H237636   6.435   5.865   2.153
12565TIP3   OH237637   8.168   1.820   3.820
12565TIP3    H137638   8.080   1.783   3.822
12565TIP3    H237639   8.210   1.779   3.745
12566TIP3   OH237640   5.446   5.230   5.169
12566TIP3    H137641   5.370   5.278   5.201
12566TIP3    H237642   5.521   5.280   5.200
12567TIP3   OH237643   0.263   5.529   1.478
12567TIP3    H137644   0.354   5.545   1.501
12567TIP3    H237645   0.251   5.573   1.393
12568TIP3   OH237646   4.797   5.861   1.851
12568TIP3    H137647   4.775   5.809   1.774
12568TIP3    H237648   4.751   5.818   1.924
12569TIP3   OH237649   6.602   7.673   3.418
12569TIP3    H137650   6.615   7.731   3.494
12569TIP3    H237651   6.533   7.613   3.446
12570TIP3   OH237652   5.533   3.120   5.868
12570TIP3    H137653   5.625   3.142   5.876
12570TIP3    H237654   5.486   3.198   5.897
12571TIP3   OH237655   7.722   0.576   2.929
12571TIP3    H137656   7.787   0.630   2.885
12571TIP3    H237657   7.747   0.578   3.022
12572TIP3   OH237658   3.716   4.496   4.712
12572TIP3    H137659   3.666   4.551   4.651
12572TIP3    H237660   3.743   4.420   4.659
12573TIP3   OH237661   7.720   4.580   3.163
12573TIP3    H137662   7.647   4.589   3.101
12573TIP3    H237663   7.715   4.488   3.191
12574TIP3   OH237664   4.744   7.421   0.936
12574TIP3    H137665   4.821   7.387   0.982
12574TIP3    H237666   4.751   7.516   0.944
12575TIP3   OH237667   1.540   3.073   0.374
12575TIP3    H137668   1.485   2.998   0.399
12575TIP3    H237669   1.477   3.141   0.352
12576TIP3   OH237670   7.820   2.267   2.510
12576TIP3    H137671   7.911   2.288   2.528
12576TIP3    H237672   7.776   2.352   2.503
12577TIP3   OH237673   2.108   7.519   3.913
12577TIP3    H137674   2.013   7.522   3.925
12577TIP3    H237675   2.126   7.429   3.887
12578TIP3   OH237676   4.306   0.817   5.986
12578TIP3    H137677   4.391   0.793   5.949
12578TIP3    H237678   4.267   0.733   6.012
12579TIP3   OH237679   3.152   3.214   2.690
12579TIP3    H137680   3.173   3.184   2.602
12579TIP3    H237681   3.147   3.133   2.742
12580TIP3   OH237682   2.198   1.434   4.774
12580TIP3    H137683   2.272   1.469   4.724
12580TIP3    H237684   2.155   1.511   4.811
12581TIP3   OH237685   5.365   2.675   4.001
12581TIP3    H137686   5.409   2.757   3.980
12581TIP3    H237687   5.432   2.608   3.990
12582TIP3   OH237688   1.483   1.170   0.659
12582TIP3    H137689   1.509   1.094   0.711
12582TIP3    H237690   1.565   1.201   0.620
12583TIP3   OH237691   3.714   0.557   4.583
12583TIP3    H137692   3.767   0.483   4.553
12583TIP3    H237693   3.648   0.518   4.640
12584TIP3   OH237694   0.075   0.518   6.649
12584TIP3    H137695   0.089   0.574   6.726
12584TIP3    H237696   0.014   0.568   6.594
12585TIP3   OH237697   5.104   6.264   0.860
12585TIP3    H137698   5.113   6.359   0.853
12585TIP3    H237699   5.137   6.231   0.777
12586TIP3   OH237700   3.526   0.788   5.608
12586TIP3    H137701   3.495   0.706   5.647
12586TIP3    H237702   3.622   0.784   5.617
12587TIP3   OH237703   6.016   6.382   1.163
12587TIP3    H137704   6.100   6.355   1.126
12587TIP3    H237705   5.952   6.326   1.121
12588TIP3   OH237706   5.024   6.691   6.037
12588TIP3    H137707   5.030   6.785   6.050
12588TIP3    H237708   4.931   6.675   6.019
12589TIP3   OH237709   5.916   6.956   3.091
12589TIP3    H137710   5.978   6.972   3.020
12589TIP3    H237711   5.900   7.043   3.129
12590TIP3   OH237712   4.474   3.407   0.763
12590TIP3    H137713   4.389   3.364   0.774
12590TIP3    H237714   4.452   3.498   0.740
12591TIP3   OH237715   3.710   6.503   4.331
12591TIP3    H137716   3.643   6.542   4.387
12591TIP3    H237717   3.753   6.438   4.385
12592TIP3   OH237718   1.725   4.945   2.692
12592TIP3    H137719   1.764   4.918   2.776
12592TIP3    H237720   1.795   4.993   2.648
12593TIP3   OH237721   5.618   5.619   1.809
12593TIP3    H137722   5.679   5.589   1.876
12593TIP3    H237723   5.610   5.544   1.749
12594TIP3   OH237724   1.944   3.202   3.009
12594TIP3    H137725   1.931   3.118   3.054
12594TIP3    H237726   1.935   3.180   2.916
12595TIP3   OH237727   2.209   6.863   6.331
12595TIP3    H137728   2.189   6.915   6.253
12595TIP3    H237729   2.135   6.802   6.337
12596TIP3   OH237730   1.194   0.666   4.887
12596TIP3    H137731   1.239   0.583   4.876
12596TIP3    H237732   1.181   0.673   4.982
12597TIP3   OH237733   2.768   0.823   5.837
12597TIP3    H137734   2.854   0.810   5.878
12597TIP3    H237735   2.787   0.835   5.744
12598TIP3   OH237736   8.203   1.177   3.518
12598TIP3    H137737   8.167   1.107   3.573
12598TIP3    H237738   8.167   1.258   3.556
12599TIP3   OH237739   6.535   5.803   4.911
12599TIP3    H137740   6.540   5.870   4.843
12599TIP3    H237741   6.603   5.826   4.973
12600TIP3   OH237742   8.003   5.850   4.550
12600TIP3    H137743   8.036   5.808   4.471
12600TIP3    H237744   8.054   5.812   4.621
12601TIP3   OH237745   0.813   3.642   6.676
12601TIP3    H137746   0.890   3.625   6.621
12601TIP3    H237747   0.756   3.696   6.622
12602TIP3   OH237748   7.070   1.266   1.473
12602TIP3    H137749   7.099   1.227   1.390
12602TIP3    H237750   7.033   1.193   1.522
12603TIP3   OH237751   1.170   4.238   2.467
12603TIP3    H137752   1.113   4.180   2.416
12603TIP3    H237753   1.257   4.223   2.431
12604TIP3   OH237754   5.361   6.598   2.210
12604TIP3    H137755   5.267   6.584   2.207
12604TIP3    H237756   5.398   6.512   2.230
12605TIP3   OH237757   0.593   6.225   1.803
12605TIP3    H137758   0.513   6.231   1.855
12605TIP3    H237759   0.662   6.207   1.867
12606TIP3   OH237760   6.819   5.567   3.743
12606TIP3    H137761   6.752   5.541   3.680
12606TIP3    H237762   6.858   5.485   3.773
12607TIP3   OH237763   2.517   0.327   1.190
12607TIP3    H137764   2.527   0.245   1.141
12607TIP3    H237765   2.598   0.336   1.238
12608TIP3   OH237766   4.155   4.961   6.749
12608TIP3    H137767   4.172   5.021   6.821
12608TIP3    H237768   4.228   4.973   6.688
12609TIP3   OH237769   3.985   6.874   3.031
12609TIP3    H137770   4.032   6.847   2.952
12609TIP3    H237771   3.983   6.797   3.087
12610TIP3   OH237772   4.154   6.715   6.145
12610TIP3    H137773   4.225   6.747   6.200
12610TIP3    H237774   4.133   6.788   6.088
12611TIP3   OH237775   6.634   7.182   2.070
12611TIP3    H137776   6.681   7.255   2.031
12611TIP3    H237777   6.542   7.198   2.049
12612TIP3   OH237778   5.392   5.874   1.098
12612TIP3    H137779   5.325   5.895   1.163
12612TIP3    H237780   5.343   5.837   1.024
12613TIP3   OH237781   5.750   5.313   5.037
12613TIP3    H137782   5.842   5.288   5.043
12613TIP3    H237783   5.705   5.234   5.007
12614TIP3   OH237784   1.119   0.860   2.520
12614TIP3    H137785   1.058   0.930   2.545
12614TIP3    H237786   1.076   0.815   2.447
12615TIP3   OH237787   1.964   2.960   1.145
12615TIP3    H137788   1.980   2.977   1.052
12615TIP3    H237789   1.900   3.026   1.171
12616TIP3   OH237790   4.825   4.778   2.521
12616TIP3    H137791   4.909   4.777   2.566
12616TIP3    H237792   4.842   4.737   2.436
12617TIP3   OH237793   1.596   0.938   5.963
12617TIP3    H137794   1.580   0.915   5.872
12617TIP3    H237795   1.691   0.949   5.969
12618TIP3   OH237796   3.747   5.693   1.284
12618TIP3    H137797   3.670   5.644   1.258
12618TIP3    H237798   3.714   5.780   1.306
12619TIP3   OH237799   3.356   4.232   1.615
12619TIP3    H137800   3.419   4.160   1.613
12619TIP3    H237801   3.293   4.211   1.546
12620TIP3   OH237802   1.583   1.705   2.082
12620TIP3    H137803   1.611   1.614   2.097
12620TIP3    H237804   1.664   1.752   2.061
12621TIP3   OH237805   7.983   2.788   4.432
12621TIP3    H137806   8.056   2.729   4.454
12621TIP3    H237807   7.912   2.760   4.490
12622TIP3   OH237808   4.360   0.599   1.295
12622TIP3    H137809   4.321   0.663   1.236
12622TIP3    H237810   4.435   0.564   1.248
12623TIP3   OH237811   7.095   6.340   0.014
12623TIP3    H137812   7.020   6.380   0.058
12623TIP3    H237813   7.133   6.281   0.079
12624TIP3   OH237814   5.936   5.139   3.000
12624TIP3    H137815   5.901   5.207   3.057
12624TIP3    H237816   6.013   5.106   3.046
12625TIP3   OH237817   4.967   6.691   3.814
12625TIP3    H137818   5.043   6.658   3.767
12625TIP3    H237819   4.984   6.667   3.906
12626TIP3   OH237820   0.956   0.694   0.561
12626TIP3    H137821   0.937   0.624   0.624
12626TIP3    H237822   1.044   0.673   0.527
12627TIP3   OH237823   0.705   4.183   3.781
12627TIP3    H137824   0.792   4.152   3.756
12627TIP3    H237825   0.686   4.254   3.721
12628TIP3   OH237826   5.523   6.195   1.989
12628TIP3    H137827   5.515   6.243   1.907
12628TIP3    H237828   5.451   6.132   1.987
12629TIP3   OH237829   5.592   6.995   5.565
12629TIP3    H137830   5.552   7.004   5.652
12629TIP3    H237831   5.518   6.990   5.505
12630TIP3   OH237832   1.751   0.610   4.191
12630TIP3    H137833   1.657   0.605   4.205
12630TIP3    H237834   1.771   0.539   4.131
12631TIP3   OH237835   3.641   4.636   1.459
12631TIP3    H137836   3.618   4.603   1.545
12631TIP3    H237837   3.600   4.574   1.398
12632TIP3   OH237838   4.033   7.465   1.820
12632TIP3    H137839   3.975   7.487   1.893
12632TIP3    H237840   4.120   7.495   1.848
12633TIP3   OH237841   0.942   3.772   6.376
12633TIP3    H137842   1.036   3.789   6.375
12633TIP3    H237843   0.902   3.859   6.379
12634TIP3   OH237844   2.355   0.548   5.044
12634TIP3    H137845   2.308   0.631   5.041
12634TIP3    H237846   2.316   0.501   5.118
12635TIP3   OH237847   6.720   4.687   3.900
12635TIP3    H137848   6.642   4.673   3.953
12635TIP3    H237849   6.787   4.714   3.963
12636TIP3   OH237850   3.644   0.702   4.044
12636TIP3    H137851   3.725   0.692   4.094
12636TIP3    H237852   3.638   0.796   4.027
12637TIP3   OH237853   7.128   6.615   2.098
12637TIP3    H137854   7.133   6.686   2.034
12637TIP3    H237855   7.184   6.546   2.062
12638TIP3   OH237856   1.950   7.203   1.068
12638TIP3    H137857   1.961   7.261   1.143
12638TIP3    H237858   1.890   7.135   1.099
12639TIP3   OH237859   0.746   7.764   0.562
12639TIP3    H137860   0.729   7.671   0.544
12639TIP3    H237861   0.666   7.808   0.535
12640TIP3   OH237862   2.933   7.218   4.583
12640TIP3    H137863   2.855   7.172   4.550
12640TIP3    H237864   2.902   7.307   4.603
12641TIP3   OH237865   0.563   1.116   0.806
12641TIP3    H137866   0.514   1.192   0.774
12641TIP3    H237867   0.543   1.047   0.743
12642TIP3   OH237868   7.208   5.479   3.759
12642TIP3    H137869   7.147   5.533   3.708
12642TIP3    H237870   7.240   5.537   3.828
12643TIP3   OH237871   0.535   1.017   0.532
12643TIP3    H137872   0.576   1.099   0.504
12643TIP3    H237873   0.608   0.957   0.544
12644TIP3   OH237874   5.393   1.661   5.920
12644TIP3    H137875   5.402   1.661   5.824
12644TIP3    H237876   5.446   1.586   5.948
12645TIP3   OH237877   0.712   2.811   3.375
12645TIP3    H137878   0.627   2.850   3.353
12645TIP3    H237879   0.751   2.790   3.290
12646TIP3   OH237880   1.303   0.491   0.109
12646TIP3    H137881   1.284   0.477   0.202
12646TIP3    H237882   1.312   0.586   0.100
12647TIP3   OH237883   5.556   6.184   6.207
12647TIP3    H137884   5.487   6.170   6.142
12647TIP3    H237885   5.638   6.177   6.158
12648TIP3   OH237886   5.853   4.682   3.343
12648TIP3    H137887   5.905   4.609   3.310
12648TIP3    H237888   5.870   4.753   3.281
12649TIP3   OH237889   6.982   1.650   2.712
12649TIP3    H137890   7.056   1.610   2.666
12649TIP3    H237891   6.975   1.738   2.673
12650TIP3   OH237892   3.631   0.566   2.128
12650TIP3    H137893   3.546   0.541   2.163
12650TIP3    H237894   3.695   0.528   2.189
12651TIP3   OH237895   4.214   6.252   4.796
12651TIP3    H137896   4.275   6.239   4.724
12651TIP3    H237897   4.160   6.174   4.796
12652TIP3   OH237898   7.836   6.184   1.731
12652TIP3    H137899   7.854   6.090   1.720
12652TIP3    H237900   7.822   6.194   1.825
12653TIP3   OH237901   6.752   7.032   2.900
12653TIP3    H137902   6.707   7.085   2.966
12653TIP3    H237903   6.782   6.955   2.949
12654TIP3   OH237904   4.653   4.180   1.353
12654TIP3    H137905   4.677   4.163   1.262
12654TIP3    H237906   4.557   4.173   1.355
12655TIP3   OH237907   1.161   6.140   2.015
12655TIP3    H137908   1.122   6.225   1.994
12655TIP3    H237909   1.223   6.158   2.086
12656TIP3   OH237910   0.630   2.081   2.660
12656TIP3    H137911   0.698   2.057   2.597
12656TIP3    H237912   0.625   2.007   2.721
12657TIP3   OH237913   4.555   7.297   0.449
12657TIP3    H137914   4.594   7.333   0.529
12657TIP3    H237915   4.587   7.207   0.444
12658TIP3   OH237916   7.809   6.494   3.360
12658TIP3    H137917   7.775   6.441   3.288
12658TIP3    H237918   7.742   6.562   3.373
12659TIP3   OH237919   7.691   3.349   0.183
12659TIP3    H137920   7.668   3.319   0.271
12659TIP3    H237921   7.693   3.270   0.130
12660TIP3   OH237922   5.569   1.377   4.755
12660TIP3    H137923   5.549   1.305   4.814
12660TIP3    H237924   5.522   1.356   4.674
12661TIP3   OH237925   5.412   5.550   0.785
12661TIP3    H137926   5.464   5.490   0.733
12661TIP3    H237927   5.367   5.494   0.849
12662TIP3   OH237928   0.024   5.122   6.430
12662TIP3    H137929  -0.059   5.130   6.383
12662TIP3    H237930   0.077   5.195   6.398
12663TIP3   OH237931   5.450   5.411   4.299
12663TIP3    H137932   5.478   5.486   4.248
12663TIP3    H237933   5.385   5.445   4.360
12664TIP3   OH237934   7.231   3.259   4.339
12664TIP3    H137935   7.208   3.269   4.432
12664TIP3    H237936   7.215   3.166   4.321
12665TIP3   OH237937   4.510   1.435   5.383
12665TIP3    H137938   4.469   1.401   5.462
12665TIP3    H237939   4.565   1.364   5.351
12666TIP3   OH237940   5.286   7.256   6.507
12666TIP3    H137941   5.344   7.330   6.522
12666TIP3    H237942   5.311   7.223   6.421
12667TIP3   OH237943   6.998   6.948   1.185
12667TIP3    H137944   6.983   6.870   1.238
12667TIP3    H237945   6.918   6.959   1.135
12668TIP3   OH237946   4.355   0.847   1.725
12668TIP3    H137947   4.370   0.775   1.664
12668TIP3    H237948   4.329   0.805   1.807
12669TIP3   OH237949   6.863   7.014   3.228
12669TIP3    H137950   6.808   7.065   3.288
12669TIP3    H237951   6.847   6.923   3.252
12670TIP3   OH237952   5.120   5.680   2.037
12670TIP3    H137953   5.135   5.632   1.955
12670TIP3    H237954   5.073   5.618   2.093
12671TIP3   OH237955   0.682   0.906   5.572
12671TIP3    H137956   0.632   0.977   5.614
12671TIP3    H237957   0.772   0.920   5.601
12672TIP3   OH237958   7.413   6.496   4.756
12672TIP3    H137959   7.395   6.588   4.772
12672TIP3    H237960   7.502   6.495   4.718
12673TIP3   OH237961   0.274   5.803   3.743
12673TIP3    H137962   0.369   5.813   3.735
12673TIP3    H237963   0.262   5.715   3.778
12674TIP3   OH237964   5.607   4.585   2.131
12674TIP3    H137965   5.516   4.595   2.161
12674TIP3    H237966   5.653   4.660   2.168
12675TIP3   OH237967   3.441   2.019   6.200
12675TIP3    H137968   3.413   1.937   6.160
12675TIP3    H237969   3.536   2.012   6.206
12676TIP3   OH237970   1.949   6.864   0.460
12676TIP3    H137971   1.977   6.907   0.541
12676TIP3    H237972   1.961   6.930   0.392
12677TIP3   OH237973   2.426   6.626   3.722
12677TIP3    H137974   2.428   6.607   3.816
12677TIP3    H237975   2.367   6.560   3.685
12678TIP3   OH237976   7.747   0.660   4.836
12678TIP3    H137977   7.728   0.685   4.927
12678TIP3    H237978   7.809   0.588   4.843
12679TIP3   OH237979   1.525   3.940   4.849
12679TIP3    H137980   1.449   3.952   4.792
12679TIP3    H237981   1.488   3.929   4.936
12680TIP3   OH237982   3.130   7.277   4.407
12680TIP3    H137983   3.181   7.322   4.474
12680TIP3    H237984   3.041   7.272   4.443
12681TIP3   OH237985   3.608   1.150   2.857
12681TIP3    H137986   3.678   1.182   2.800
12681TIP3    H237987   3.647   1.076   2.904
12682TIP3   OH237988   6.748   3.678   3.627
12682TIP3    H137989   6.704   3.621   3.563
12682TIP3    H237990   6.837   3.643   3.632
12683TIP3   OH237991   3.785   0.881   1.722
12683TIP3    H137992   3.811   0.828   1.797
12683TIP3    H237993   3.699   0.848   1.698
12684TIP3   OH237994   3.557   3.478   1.369
12684TIP3    H137995   3.484   3.416   1.377
12684TIP3    H237996   3.605   3.449   1.292
12685TIP3   OH237997   4.688   4.409   6.659
12685TIP3    H137998   4.660   4.339   6.719
12685TIP3    H237999   4.673   4.372   6.572
12686TIP3   OH238000   4.884   1.388   1.019
12686TIP3    H138001   4.803   1.350   0.985
12686TIP3    H238002   4.897   1.345   1.104
12687TIP3   OH238003   3.339   3.291   6.194
12687TIP3    H138004   3.430   3.268   6.174
12687TIP3    H238005   3.305   3.328   6.113
12688TIP3   OH238006   4.661   6.696   2.418
12688TIP3    H138007   4.749   6.661   2.429
12688TIP3    H238008   4.672   6.772   2.361
12689TIP3   OH238009   3.614   1.506   3.477
12689TIP3    H138010   3.554   1.567   3.521
12689TIP3    H238011   3.590   1.511   3.385
12690TIP3   OH238012   1.735   5.708   6.650
12690TIP3    H138013   1.701   5.700   6.561
12690TIP3    H238014   1.787   5.788   6.648
12691TIP3   OH238015   1.769   3.882   0.256
12691TIP3    H138016   1.691   3.842   0.293
12691TIP3    H238017   1.836   3.871   0.324
12692TIP3   OH238018   6.913   3.537   3.948
12692TIP3    H138019   6.980   3.517   3.881
12692TIP3    H238020   6.953   3.603   4.003
12693TIP3   OH238021   2.589   1.397   5.342
12693TIP3    H138022   2.563   1.473   5.292
12693TIP3    H238023   2.663   1.426   5.395
12694TIP3   OH238024   6.577   7.413   6.506
12694TIP3    H138025   6.590   7.321   6.528
12694TIP3    H238026   6.627   7.461   6.572
12695TIP3   OH238027   3.300   5.037   5.293
12695TIP3    H138028   3.248   5.062   5.217
12695TIP3    H238029   3.250   4.966   5.334
12696TIP3   OH238030   5.509   3.181   2.934
12696TIP3    H138031   5.562   3.213   3.007
12696TIP3    H238032   5.418   3.193   2.964
12697TIP3   OH238033   5.808   7.339   1.564
12697TIP3    H138034   5.840   7.426   1.589
12697TIP3    H238035   5.885   7.294   1.528
12698TIP3   OH238036   6.389   6.054   0.315
12698TIP3    H138037   6.375   6.112   0.240
12698TIP3    H238038   6.484   6.052   0.325
12699TIP3   OH238039   3.891   2.803   2.682
12699TIP3    H138040   3.821   2.762   2.733
12699TIP3    H238041   3.971   2.785   2.731
12700TIP3   OH238042   0.888   7.668   4.889
12700TIP3    H138043   0.853   7.691   4.975
12700TIP3    H238044   0.943   7.591   4.906
12701TIP3   OH238045   6.980   5.345   1.044
12701TIP3    H138046   6.958   5.438   1.032
12701TIP3    H238047   6.988   5.312   0.955
12702TIP3   OH238048   5.892   3.619   1.416
12702TIP3    H138049   5.883   3.687   1.483
12702TIP3    H238050   5.986   3.603   1.412
12703TIP3   OH238051   1.075   6.424   2.657
12703TIP3    H138052   1.071   6.349   2.717
12703TIP3    H238053   1.094   6.385   2.572
12704TIP3   OH238054   2.367   7.581   0.674
12704TIP3    H138055   2.293   7.594   0.733
12704TIP3    H238056   2.360   7.489   0.646
12705TIP3   OH238057   3.383   3.954   2.715
12705TIP3    H138058   3.472   3.988   2.714
12705TIP3    H238059   3.361   3.946   2.808
12706TIP3   OH238060   0.638   2.140   1.823
12706TIP3    H138061   0.575   2.165   1.890
12706TIP3    H238062   0.586   2.093   1.758
12707TIP3   OH238063   4.690   4.888   4.508
12707TIP3    H138064   4.655   4.929   4.429
12707TIP3    H238065   4.717   4.801   4.480
12708TIP3   OH238066   6.125   0.065   4.480
12708TIP3    H138067   6.042   0.099   4.515
12708TIP3    H238068   6.182   0.142   4.477
12709TIP3   OH238069   5.020   2.110   0.881
12709TIP3    H138070   5.024   2.104   0.786
12709TIP3    H238071   5.080   2.042   0.912
12710TIP3   OH238072   4.459   0.437   3.506
12710TIP3    H138073   4.365   0.451   3.517
12710TIP3    H238074   4.499   0.500   3.566
12711TIP3   OH238075   3.240   4.192   1.873
12711TIP3    H138076   3.273   4.228   1.791
12711TIP3    H238077   3.178   4.258   1.905
12712TIP3   OH238078   1.477   5.737   0.132
12712TIP3    H138079   1.395   5.744   0.083
12712TIP3    H238080   1.507   5.827   0.141
12713TIP3   OH238081   3.110   0.804   5.694
12713TIP3    H138082   3.179   0.870   5.698
12713TIP3    H238083   3.087   0.789   5.786
12714TIP3   OH238084   0.616   6.050   2.186
12714TIP3    H138085   0.640   6.052   2.279
12714TIP3    H238086   0.593   5.958   2.170
12715TIP3   OH238087   8.073   4.720   5.193
12715TIP3    H138088   8.089   4.652   5.258
12715TIP3    H238089   7.992   4.693   5.149
12716TIP3   OH238090   6.323   5.982   6.001
12716TIP3    H138091   6.306   5.888   6.002
12716TIP3    H238092   6.288   6.013   5.918
12717TIP3   OH238093   4.072   1.695   2.484
12717TIP3    H138094   4.038   1.763   2.426
12717TIP3    H238095   4.016   1.620   2.469
12718TIP3   OH238096   6.324   7.329   0.031
12718TIP3    H138097   6.338   7.301  -0.059
12718TIP3    H238098   6.397   7.290   0.080
12719TIP3   OH238099   5.723   4.179   6.379
12719TIP3    H138100   5.669   4.119   6.430
12719TIP3    H238101   5.758   4.240   6.444
12720TIP3   OH238102   1.384   7.697   0.505
12720TIP3    H138103   1.350   7.786   0.496
12720TIP3    H238104   1.412   7.674   0.417
12721TIP3   OH238105   7.546   2.009   3.873
12721TIP3    H138106   7.634   1.974   3.883
12721TIP3    H238107   7.498   1.939   3.827
12722TIP3   OH238108   0.436   3.424   0.707
12722TIP3    H138109   0.464   3.372   0.781
12722TIP3    H238110   0.363   3.477   0.741
12723TIP3   OH238111   4.301   3.146   3.214
12723TIP3    H138112   4.293   3.213   3.281
12723TIP3    H238113   4.233   3.082   3.236
12724TIP3   OH238114   1.509   3.495   4.930
12724TIP3    H138115   1.430   3.477   4.979
12724TIP3    H238116   1.563   3.417   4.941
12725TIP3   OH238117   2.968   2.523   4.875
12725TIP3    H138118   3.035   2.458   4.896
12725TIP3    H238119   2.968   2.528   4.780
12726TIP3   OH238120   8.114   4.162   3.130
12726TIP3    H138121   8.022   4.188   3.128
12726TIP3    H238122   8.132   4.134   3.040
12727TIP3   OH238123   2.852   5.762   3.830
12727TIP3    H138124   2.887   5.846   3.799
12727TIP3    H238125   2.838   5.775   3.923
12728TIP3   OH238126   8.100   4.964   1.362
12728TIP3    H138127   8.109   4.878   1.401
12728TIP3    H238128   8.035   4.953   1.293
12729TIP3   OH238129   4.771   5.122   3.226
12729TIP3    H138130   4.745   5.204   3.186
12729TIP3    H238131   4.711   5.111   3.300
12730TIP3   OH238132   7.052   3.762   2.914
12730TIP3    H138133   6.971   3.726   2.950
12730TIP3    H238134   7.105   3.685   2.895
12731TIP3   OH238135   6.826   0.484   2.804
12731TIP3    H138136   6.804   0.460   2.714
12731TIP3    H238137   6.803   0.577   2.811
12732TIP3   OH238138   3.593   7.247   6.281
12732TIP3    H138139   3.577   7.155   6.299
12732TIP3    H238140   3.511   7.279   6.243
12733TIP3   OH238141   6.601   3.002   4.140
12733TIP3    H138142   6.589   3.089   4.101
12733TIP3    H238143   6.527   2.992   4.199
12734TIP3   OH238144   1.928   1.937   3.604
12734TIP3    H138145   1.984   1.940   3.527
12734TIP3    H238146   1.987   1.916   3.676
12735TIP3   OH238147   5.179   1.777   0.908
12735TIP3    H138148   5.227   1.841   0.856
12735TIP3    H238149   5.248   1.725   0.951
12736TIP3   OH238150   5.810   3.875   2.115
12736TIP3    H138151   5.716   3.856   2.124
12736TIP3    H238152   5.853   3.791   2.128
12737TIP3   OH238153   0.778   5.555   2.580
12737TIP3    H138154   0.868   5.527   2.559
12737TIP3    H238155   0.742   5.481   2.630
12738TIP3   OH238156   5.103   5.211   6.743
12738TIP3    H138157   5.118   5.128   6.789
12738TIP3    H238158   5.097   5.187   6.651
12739TIP3   OH238159   6.340   4.913   2.577
12739TIP3    H138160   6.260   4.872   2.542
12739TIP3    H238161   6.385   4.946   2.499
12740TIP3   OH238162   8.239   4.214   1.564
12740TIP3    H138163   8.269   4.264   1.640
12740TIP3    H238164   8.147   4.195   1.583
12741TIP3   OH238165   6.674   1.471   5.322
12741TIP3    H138166   6.667   1.507   5.410
12741TIP3    H238167   6.766   1.449   5.312
12742TIP3   OH238168   3.274   3.710   1.518
12742TIP3    H138169   3.365   3.731   1.496
12742TIP3    H238170   3.261   3.750   1.604
12743TIP3   OH238171   2.462   0.932   6.651
12743TIP3    H138172   2.434   1.016   6.686
12743TIP3    H238173   2.397   0.870   6.682
12744TIP3   OH238174   2.103   4.206   5.135
12744TIP3    H138175   2.044   4.136   5.164
12744TIP3    H238176   2.191   4.170   5.147
12745TIP3   OH238177   1.489   1.666   6.091
12745TIP3    H138178   1.451   1.737   6.039
12745TIP3    H238179   1.583   1.678   6.083
12746TIP3   OH238180   0.218   4.502   3.249
12746TIP3    H138181   0.134   4.457   3.252
12746TIP3    H238182   0.228   4.540   3.336
12747TIP3   OH238183   6.609   6.983   5.732
12747TIP3    H138184   6.666   6.968   5.656
12747TIP3    H238185   6.635   6.916   5.795
12748TIP3   OH238186   5.500   6.506   3.993
12748TIP3    H138187   5.465   6.463   3.915
12748TIP3    H238188   5.513   6.597   3.967
12749TIP3   OH238189   0.688   0.595   0.397
12749TIP3    H138190   0.744   0.520   0.377
12749TIP3    H238191   0.695   0.651   0.320
12750TIP3   OH238192   1.604   1.184   4.645
12750TIP3    H138193   1.668   1.197   4.716
12750TIP3    H238194   1.645   1.119   4.588
12751TIP3   OH238195   1.211   6.222   4.009
12751TIP3    H138196   1.172   6.285   3.948
12751TIP3    H238197   1.170   6.138   3.986
12752TIP3   OH238198   3.809   3.587   2.089
12752TIP3    H138199   3.774   3.527   2.155
12752TIP3    H238200   3.733   3.636   2.058
12753TIP3   OH238201   4.342   1.886   1.519
12753TIP3    H138202   4.330   1.919   1.608
12753TIP3    H238203   4.366   1.963   1.468
12754TIP3   OH238204   1.610   2.254   5.228
12754TIP3    H138205   1.540   2.189   5.239
12754TIP3    H238206   1.686   2.203   5.201
12755TIP3   OH238207   2.703   5.058   6.568
12755TIP3    H138208   2.645   5.114   6.619
12755TIP3    H238209   2.757   5.119   6.517
12756TIP3   OH238210   4.118   2.275   6.652
12756TIP3    H138211   4.038   2.327   6.660
12756TIP3    H238212   4.185   2.329   6.694
12757TIP3   OH238213   6.242   6.525   3.552
12757TIP3    H138214   6.293   6.541   3.632
12757TIP3    H238215   6.152   6.516   3.583
12758TIP3   OH238216   6.620   4.485   0.866
12758TIP3    H138217   6.618   4.525   0.953
12758TIP3    H238218   6.564   4.408   0.873
12759TIP3   OH238219   6.279   1.086   3.138
12759TIP3    H138220   6.372   1.106   3.151
12759TIP3    H238221   6.269   0.997   3.171
12760TIP3   OH238222   0.385   4.863   1.342
12760TIP3    H138223   0.316   4.821   1.393
12760TIP3    H238224   0.450   4.795   1.327
12761TIP3   OH238225   0.353   7.731   6.687
12761TIP3    H138226   0.318   7.703   6.602
12761TIP3    H238227   0.304   7.681   6.751
12762TIP3   OH238228   4.857   0.965   0.686
12762TIP3    H138229   4.773   0.920   0.676
12762TIP3    H238230   4.870   0.969   0.781
12763TIP3   OH238231   3.806   0.064   4.748
12763TIP3    H138232   3.834  -0.006   4.688
12763TIP3    H238233   3.804   0.023   4.834
12764TIP3   OH238234   4.309   3.256   3.877
12764TIP3    H138235   4.331   3.172   3.837
12764TIP3    H238236   4.389   3.283   3.922
12765TIP3   OH238237   3.472   5.952   1.969
12765TIP3    H138238   3.507   5.864   1.958
12765TIP3    H238239   3.546   6.004   1.999
12766TIP3   OH238240   3.812   3.467   2.916
12766TIP3    H138241   3.859   3.541   2.953
12766TIP3    H238242   3.722   3.478   2.946
12767TIP3   OH238243   1.938   0.369   4.134
12767TIP3    H138244   2.026   0.366   4.096
12767TIP3    H238245   1.879   0.374   4.059
12768TIP3   OH238246   0.408   4.780   3.719
12768TIP3    H138247   0.394   4.824   3.635
12768TIP3    H238248   0.327   4.795   3.769
12769TIP3   OH238249   2.822   7.090   1.191
12769TIP3    H138250   2.781   7.114   1.274
12769TIP3    H238251   2.756   7.038   1.145
12770TIP3   OH238252   3.256   6.478   2.845
12770TIP3    H138253   3.351   6.483   2.857
12770TIP3    H238254   3.244   6.422   2.769
12771TIP3   OH238255   2.516   3.305   3.446
12771TIP3    H138256   2.497   3.289   3.539
12771TIP3    H238257   2.430   3.309   3.405
12772TIP3   OH238258   8.256   2.668   5.047
12772TIP3    H138259   8.308   2.597   5.010
12772TIP3    H238260   8.183   2.625   5.091
12773TIP3   OH238261   5.460   2.965   5.666
12773TIP3    H138262   5.470   2.870   5.677
12773TIP3    H238263   5.504   3.003   5.742
12774TIP3   OH238264   7.351   6.499   1.789
12774TIP3    H138265   7.314   6.563   1.728
12774TIP3    H238266   7.444   6.494   1.764
12775TIP3   OH238267   8.227   2.398   5.713
12775TIP3    H138268   8.192   2.451   5.785
12775TIP3    H238269   8.274   2.461   5.658
12776TIP3   OH238270   1.212   2.067   1.645
12776TIP3    H138271   1.168   2.128   1.585
12776TIP3    H238272   1.280   2.120   1.687
12777TIP3   OH238273   5.604   0.093   1.171
12777TIP3    H138274   5.577   0.184   1.162
12777TIP3    H238275   5.652   0.090   1.254
12778TIP3   OH238276   8.279   7.296   2.116
12778TIP3    H138277   8.270   7.200   2.115
12778TIP3    H238278   8.241   7.325   2.033
12779TIP3   OH238279   0.712   4.918   5.838
12779TIP3    H138280   0.679   4.940   5.751
12779TIP3    H238281   0.746   5.001   5.873
12780TIP3   OH238282   7.816   2.625   1.710
12780TIP3    H138283   7.887   2.629   1.647
12780TIP3    H238284   7.858   2.638   1.795
12781TIP3   OH238285   3.913   4.262   2.482
12781TIP3    H138286   4.000   4.274   2.521
12781TIP3    H238287   3.898   4.167   2.485
12782TIP3   OH238288   1.272   2.743   6.286
12782TIP3    H138289   1.201   2.777   6.231
12782TIP3    H238290   1.296   2.816   6.343
12783TIP3   OH238291   6.936   1.673   4.948
12783TIP3    H138292   7.022   1.675   4.989
12783TIP3    H238293   6.875   1.690   5.020
12784TIP3   OH238294   7.808   4.852   1.418
12784TIP3    H138295   7.831   4.894   1.501
12784TIP3    H238296   7.830   4.917   1.352
12785TIP3   OH238297   4.300   5.562   0.436
12785TIP3    H138298   4.378   5.511   0.413
12785TIP3    H238299   4.329   5.653   0.430
12786TIP3   OH238300   6.257   7.205   0.746
12786TIP3    H138301   6.318   7.279   0.742
12786TIP3    H238302   6.213   7.215   0.830
12787TIP3   OH238303   3.114   5.345   3.033
12787TIP3    H138304   3.183   5.383   2.980
12787TIP3    H238305   3.055   5.418   3.052
12788TIP3   OH238306   5.937   6.887   0.471
12788TIP3    H138307   5.946   6.963   0.413
12788TIP3    H238308   5.874   6.830   0.427
12789TIP3   OH238309   1.518   2.239   0.554
12789TIP3    H138310   1.564   2.213   0.633
12789TIP3    H238311   1.571   2.204   0.482
12790TIP3   OH238312   2.480   7.280   5.111
12790TIP3    H138313   2.519   7.279   5.024
12790TIP3    H238314   2.549   7.244   5.168
12791TIP3   OH238315   0.539   0.927   5.333
12791TIP3    H138316   0.576   0.904   5.418
12791TIP3    H238317   0.500   0.846   5.300
12792TIP3   OH238318   8.246   6.325   0.610
12792TIP3    H138319   8.237   6.377   0.690
12792TIP3    H238320   8.285   6.242   0.640
12793TIP3   OH238321   1.717   7.266   2.605
12793TIP3    H138322   1.753   7.178   2.601
12793TIP3    H238323   1.632   7.255   2.649
12794TIP3   OH238324   3.893   4.476   2.302
12794TIP3    H138325   3.852   4.444   2.221
12794TIP3    H238326   3.892   4.401   2.361
12795TIP3   OH238327   7.140   6.648   5.506
12795TIP3    H138328   7.076   6.630   5.575
12795TIP3    H238329   7.179   6.562   5.488
12796TIP3   OH238330   4.450   5.256   0.159
12796TIP3    H138331   4.439   5.168   0.194
12796TIP3    H238332   4.460   5.312   0.235
12797TIP3   OH238333  -0.004   0.532   2.561
12797TIP3    H138334  -0.021   0.593   2.632
12797TIP3    H238335   0.092   0.524   2.558
12798TIP3   OH238336   2.315   3.545   2.494
12798TIP3    H138337   2.396   3.558   2.445
12798TIP3    H238338   2.246   3.554   2.429
12799TIP3   OH238339   0.145   2.893   2.568
12799TIP3    H138340   0.190   2.977   2.578
12799TIP3    H238341   0.200   2.830   2.615
12800TIP3   OH238342   6.827   7.404   4.600
12800TIP3    H138343   6.902   7.401   4.539
12800TIP3    H238344   6.788   7.490   4.586
12801TIP3   OH238345   1.199   5.552   2.172
12801TIP3    H138346   1.171   5.460   2.175
12801TIP3    H238347   1.187   5.577   2.080
12802TIP3   OH238348   1.397   0.668   2.907
12802TIP3    H138349   1.467   0.697   2.849
12802TIP3    H238350   1.412   0.574   2.917
12803TIP3   OH238351   6.748   1.804   2.571
12803TIP3    H138352   6.682   1.812   2.502
12803TIP3    H238353   6.760   1.710   2.583
12804TIP3   OH238354   5.414   4.017   1.370
12804TIP3    H138355   5.344   3.982   1.425
12804TIP3    H238356   5.456   4.083   1.424
12805TIP3   OH238357   7.830   2.076   2.850
12805TIP3    H138358   7.750   2.045   2.807
12805TIP3    H238359   7.862   1.999   2.898
12806TIP3   OH238360   5.385   4.567   5.672
12806TIP3    H138361   5.475   4.544   5.695
12806TIP3    H238362   5.331   4.519   5.735
12807TIP3   OH238363   7.774   5.493   3.807
12807TIP3    H138364   7.772   5.397   3.807
12807TIP3    H238365   7.832   5.515   3.881
12808TIP3   OH238366   6.547   1.867   2.380
12808TIP3    H138367   6.454   1.867   2.358
12808TIP3    H238368   6.592   1.869   2.296
12809TIP3   OH238369   4.403   5.817   5.747
12809TIP3    H138370   4.464   5.889   5.764
12809TIP3    H238371   4.407   5.762   5.825
12810TIP3   OH238372   1.978   2.662   6.519
12810TIP3    H138373   2.063   2.673   6.563
12810TIP3    H238374   1.924   2.733   6.554
12811TIP3   OH238375   1.782   2.214   6.513
12811TIP3    H138376   1.867   2.238   6.476
12811TIP3    H238377   1.791   2.122   6.538
12812TIP3   OH238378   7.223   4.489   0.198
12812TIP3    H138379   7.176   4.427   0.254
12812TIP3    H238380   7.285   4.532   0.257
12813TIP3   OH238381   2.300   4.785   3.692
12813TIP3    H138382   2.215   4.828   3.679
12813TIP3    H238383   2.289   4.735   3.773
12814TIP3   OH238384   6.709   5.723   1.513
12814TIP3    H138385   6.702   5.817   1.528
12814TIP3    H238386   6.757   5.690   1.589
12815TIP3   OH238387   4.563   1.659   3.767
12815TIP3    H138388   4.492   1.623   3.820
12815TIP3    H238389   4.634   1.596   3.776
12816TIP3   OH238390   1.761   7.761   0.682
12816TIP3    H138391   1.776   7.855   0.691
12816TIP3    H238392   1.798   7.738   0.596
12817TIP3   OH238393   4.093   6.491   5.638
12817TIP3    H138394   4.033   6.419   5.657
12817TIP3    H238395   4.037   6.560   5.602
12818TIP3   OH238396   6.079   6.639   1.202
12818TIP3    H138397   6.062   6.546   1.187
12818TIP3    H238398   5.992   6.679   1.200
12819TIP3   OH238399   5.076   1.827   1.885
12819TIP3    H138400   5.084   1.915   1.847
12819TIP3    H238401   5.156   1.782   1.858
12820TIP3   OH238402   1.715   4.383   0.310
12820TIP3    H138403   1.800   4.339   0.304
12820TIP3    H238404   1.667   4.354   0.233
12821TIP3   OH238405   6.539   0.537   5.922
12821TIP3    H138406   6.492   0.609   5.964
12821TIP3    H238407   6.505   0.458   5.965
12822TIP3   OH238408   5.358   0.247   4.904
12822TIP3    H138409   5.263   0.243   4.886
12822TIP3    H238410   5.370   0.188   4.978
12823TIP3   OH238411   5.371   6.895   0.598
12823TIP3    H138412   5.396   6.915   0.508
12823TIP3    H238413   5.367   6.980   0.641
12824TIP3   OH238414   6.090   2.559   4.445
12824TIP3    H138415   6.169   2.606   4.473
12824TIP3    H238416   6.094   2.475   4.491
12825TIP3   OH238417   4.697   0.840   2.721
12825TIP3    H138418   4.655   0.865   2.803
12825TIP3    H238419   4.633   0.864   2.654
12826TIP3   OH238420   2.321   0.095   2.362
12826TIP3    H138421   2.404   0.141   2.370
12826TIP3    H238422   2.336   0.031   2.292
12827TIP3   OH238423   5.327   5.678   4.515
12827TIP3    H138424   5.245   5.716   4.545
12827TIP3    H238425   5.321   5.586   4.542
12828TIP3   OH238426   5.764   0.216   0.152
12828TIP3    H138427   5.736   0.221   0.061
12828TIP3    H238428   5.709   0.279   0.198
12829TIP3   OH238429   1.477   4.867   2.321
12829TIP3    H138430   1.564   4.829   2.336
12829TIP3    H238431   1.417   4.794   2.335
12830TIP3   OH238432   7.479   7.197   2.907
12830TIP3    H138433   7.414   7.149   2.856
12830TIP3    H238434   7.509   7.267   2.848
12831TIP3   OH238435   3.677   0.042   0.372
12831TIP3    H138436   3.601   0.089   0.339
12831TIP3    H238437   3.652   0.015   0.461
12832TIP3   OH238438   2.926   1.986   3.753
12832TIP3    H138439   2.950   1.900   3.786
12832TIP3    H238440   2.890   2.032   3.829
12833TIP3   OH238441   5.739   4.155   3.674
12833TIP3    H138442   5.667   4.141   3.612
12833TIP3    H238443   5.817   4.162   3.620
12834TIP3   OH238444   7.334   4.625   5.364
12834TIP3    H138445   7.345   4.540   5.406
12834TIP3    H238446   7.328   4.687   5.437
12835TIP3   OH238447   1.161   2.774   1.803
12835TIP3    H138448   1.129   2.685   1.788
12835TIP3    H238449   1.203   2.798   1.720
12836TIP3   OH238450   3.325   0.518   0.657
12836TIP3    H138451   3.266   0.578   0.701
12836TIP3    H238452   3.321   0.438   0.710
12837TIP3   OH238453   3.028   7.673   3.844
12837TIP3    H138454   2.948   7.620   3.844
12837TIP3    H238455   3.098   7.609   3.858
12838TIP3   OH238456   0.243   6.617   3.280
12838TIP3    H138457   0.221   6.657   3.196
12838TIP3    H238458   0.162   6.623   3.331
12839TIP3   OH238459   7.915   7.600   2.565
12839TIP3    H138460   7.962   7.646   2.496
12839TIP3    H238461   7.832   7.648   2.573
12840TIP3   OH238462   6.105   6.827   5.493
12840TIP3    H138463   6.080   6.895   5.556
12840TIP3    H238464   6.022   6.795   5.458
12841TIP3   OH238465   5.277   0.775   3.946
12841TIP3    H138466   5.214   0.845   3.929
12841TIP3    H238467   5.251   0.740   4.031
12842TIP3   OH238468   2.525   6.878   6.443
12842TIP3    H138469   2.575   6.802   6.414
12842TIP3    H238470   2.587   6.930   6.494
12843TIP3   OH238471   6.484   1.570   1.743
12843TIP3    H138472   6.512   1.635   1.679
12843TIP3    H238473   6.565   1.524   1.767
12844TIP3   OH238474   1.497   7.560   5.283
12844TIP3    H138475   1.463   7.649   5.290
12844TIP3    H238476   1.505   7.530   5.374
12845TIP3   OH238477   1.143   7.530   2.015
12845TIP3    H138478   1.153   7.456   2.075
12845TIP3    H238479   1.217   7.588   2.035
12846TIP3   OH238480   1.281   1.551   3.896
12846TIP3    H138481   1.359   1.606   3.894
12846TIP3    H238482   1.211   1.607   3.862
12847TIP3   OH238483   6.696   3.470   1.313
12847TIP3    H138484   6.702   3.531   1.240
12847TIP3    H238485   6.615   3.421   1.297
12848TIP3   OH238486   7.848   5.141   5.464
12848TIP3    H138487   7.927   5.087   5.453
12848TIP3    H238488   7.834   5.144   5.559
12849TIP3   OH238489   7.334   4.334   2.674
12849TIP3    H138490   7.284   4.256   2.698
12849TIP3    H238491   7.267   4.398   2.648
12850TIP3   OH238492   6.114   5.471   6.636
12850TIP3    H138493   6.071   5.424   6.564
12850TIP3    H238494   6.174   5.407   6.674
12851TIP3   OH238495   4.409   5.726   2.672
12851TIP3    H138496   4.504   5.723   2.663
12851TIP3    H238497   4.385   5.642   2.710
12852TIP3   OH238498   6.349   6.915   5.766
12852TIP3    H138499   6.397   6.836   5.741
12852TIP3    H238500   6.262   6.884   5.790
12853TIP3   OH238501   1.295   4.672   5.984
12853TIP3    H138502   1.213   4.657   6.032
12853TIP3    H238503   1.283   4.625   5.902
12854TIP3   OH238504   3.839   7.370   5.127
12854TIP3    H138505   3.766   7.376   5.189
12854TIP3    H238506   3.815   7.298   5.069
12855TIP3   OH238507   5.520   7.389   0.552
12855TIP3    H138508   5.551   7.459   0.495
12855TIP3    H238509   5.590   7.323   0.549
12856TIP3   OH238510   0.491   4.146   0.436
12856TIP3    H138511   0.564   4.083   0.429
12856TIP3    H238512   0.533   4.232   0.429
12857TIP3   OH238513   4.755   5.902   2.963
12857TIP3    H138514   4.776   5.901   3.057
12857TIP3    H238515   4.673   5.852   2.956
12858TIP3   OH238516   5.916   3.137   4.670
12858TIP3    H138517   5.924   3.159   4.763
12858TIP3    H238518   5.832   3.092   4.663
12859TIP3   OH238519   5.617   1.067   6.598
12859TIP3    H138520   5.559   1.073   6.522
12859TIP3    H238521   5.599   0.981   6.636
12860TIP3   OH238522   2.967   7.695   2.230
12860TIP3    H138523   3.039   7.726   2.175
12860TIP3    H238524   2.997   7.609   2.262
12861TIP3   OH238525   2.255   2.846   3.518
12861TIP3    H138526   2.307   2.784   3.467
12861TIP3    H238527   2.176   2.859   3.466
12862TIP3   OH238528   3.446   7.519   1.343
12862TIP3    H138529   3.506   7.457   1.384
12862TIP3    H238530   3.422   7.478   1.260
12863TIP3   OH238531   5.702   0.178   1.995
12863TIP3    H138532   5.750   0.262   1.998
12863TIP3    H238533   5.764   0.117   1.955
12864TIP3   OH238534   4.517   6.275   4.120
12864TIP3    H138535   4.463   6.305   4.047
12864TIP3    H238536   4.543   6.354   4.166
12865TIP3   OH238537   2.803   4.289   2.429
12865TIP3    H138538   2.713   4.306   2.400
12865TIP3    H238539   2.842   4.376   2.438
12866TIP3   OH238540   5.506   6.134   2.874
12866TIP3    H138541   5.532   6.042   2.879
12866TIP3    H238542   5.461   6.140   2.789
12867TIP3   OH238543   8.136   5.041   0.991
12867TIP3    H138544   8.109   4.951   1.006
12867TIP3    H238545   8.055   5.090   0.983
12868TIP3   OH238546   6.548   6.769   3.284
12868TIP3    H138547   6.545   6.828   3.360
12868TIP3    H238548   6.532   6.682   3.321
12869TIP3   OH238549   6.357   5.137   5.402
12869TIP3    H138550   6.308   5.057   5.385
12869TIP3    H238551   6.449   5.109   5.405
12870TIP3   OH238552   1.297   7.724   0.845
12870TIP3    H138553   1.386   7.709   0.813
12870TIP3    H238554   1.308   7.740   0.939
12871TIP3   OH238555   0.444   1.016   1.241
12871TIP3    H138556   0.437   1.039   1.149
12871TIP3    H238557   0.424   1.097   1.288
12872TIP3   OH238558   0.117   5.720   2.767
12872TIP3    H138559   0.199   5.727   2.817
12872TIP3    H238560   0.057   5.675   2.827
12873TIP3   OH238561   5.245   2.285   5.700
12873TIP3    H138562   5.282   2.372   5.711
12873TIP3    H238563   5.216   2.260   5.788
12874TIP3   OH238564   4.306   5.324   2.263
12874TIP3    H138565   4.381   5.366   2.305
12874TIP3    H238566   4.261   5.278   2.334
12875TIP3   OH238567   2.929   1.676   4.575
12875TIP3    H138568   2.922   1.670   4.671
12875TIP3    H238569   2.853   1.628   4.543
12876TIP3   OH238570   8.114   3.911   0.230
12876TIP3    H138571   8.103   4.006   0.232
12876TIP3    H238572   8.050   3.880   0.166
12877TIP3   OH238573   7.894   7.043   5.293
12877TIP3    H138574   7.858   7.128   5.270
12877TIP3    H238575   7.839   7.011   5.365
12878TIP3   OH238576   7.802   5.567   6.165
12878TIP3    H138577   7.835   5.594   6.251
12878TIP3    H238578   7.707   5.561   6.177
12879TIP3   OH238579   5.362   6.585   3.137
12879TIP3    H138580   5.398   6.663   3.180
12879TIP3    H238581   5.353   6.610   3.045
12880TIP3   OH238582   1.677   2.429   6.278
12880TIP3    H138583   1.593   2.471   6.299
12880TIP3    H238584   1.721   2.420   6.363
12881TIP3   OH238585   6.660   1.009   3.975
12881TIP3    H138586   6.564   1.003   3.970
12881TIP3    H238587   6.675   1.065   4.052
12882TIP3   OH238588   3.974   6.102   5.550
12882TIP3    H138589   4.039   6.087   5.619
12882TIP3    H238590   3.940   6.189   5.568
12883TIP3   OH238591   6.884   1.567   4.084
12883TIP3    H138592   6.803   1.529   4.050
12883TIP3    H238593   6.865   1.660   4.094
12884TIP3   OH238594   6.089   4.846   0.866
12884TIP3    H138595   6.046   4.793   0.933
12884TIP3    H238596   6.182   4.825   0.873
12885TIP3   OH238597   5.827   3.008   5.840
12885TIP3    H138598   5.916   3.002   5.875
12885TIP3    H238599   5.837   2.984   5.747
12886TIP3   OH238600   7.294   7.673   3.215
12886TIP3    H138601   7.318   7.581   3.224
12886TIP3    H238602   7.279   7.686   3.121
12887TIP3   OH238603   5.111   6.960   1.495
12887TIP3    H138604   5.166   6.883   1.484
12887TIP3    H238605   5.078   6.979   1.407
12888TIP3   OH238606   3.280   1.706   4.893
12888TIP3    H138607   3.344   1.777   4.896
12888TIP3    H238608   3.328   1.633   4.853
12889TIP3   OH238609   2.075   2.926   1.418
12889TIP3    H138610   1.999   2.969   1.458
12889TIP3    H238611   2.058   2.928   1.324
12890TIP3   OH238612   5.302   5.402   4.601
12890TIP3    H138613   5.225   5.346   4.605
12890TIP3    H238614   5.374   5.346   4.629
12891TIP3   OH238615   6.126   5.303   5.988
12891TIP3    H138616   6.145   5.364   6.059
12891TIP3    H238617   6.060   5.244   6.024
12892TIP3   OH238618   7.946   4.305   1.231
12892TIP3    H138619   7.951   4.388   1.279
12892TIP3    H238620   8.030   4.262   1.248
12893TIP3   OH238621   3.400   4.730   4.952
12893TIP3    H138622   3.345   4.804   4.977
12893TIP3    H238623   3.394   4.727   4.856
12894TIP3   OH238624   3.286   3.748   2.485
12894TIP3    H138625   3.284   3.659   2.449
12894TIP3    H238626   3.199   3.760   2.524
12895TIP3   OH238627   5.745   6.665   4.385
12895TIP3    H138628   5.814   6.601   4.401
12895TIP3    H238629   5.731   6.707   4.469
12896TIP3   OH238630   4.902   3.654   5.474
12896TIP3    H138631   4.832   3.663   5.409
12896TIP3    H238632   4.917   3.742   5.506
12897TIP3   OH238633   4.433   1.238   6.231
12897TIP3    H138634   4.372   1.165   6.229
12897TIP3    H238635   4.378   1.316   6.235
12898TIP3   OH238636   4.391   3.337   6.687
12898TIP3    H138637   4.442   3.276   6.739
12898TIP3    H238638   4.318   3.361   6.744
12899TIP3   OH238639   6.035   4.633   5.437
12899TIP3    H138640   6.065   4.611   5.525
12899TIP3    H238641   6.091   4.706   5.410
12900TIP3   OH238642   7.147   1.497   2.988
12900TIP3    H138643   7.237   1.515   2.962
12900TIP3    H238644   7.112   1.582   3.014
12901TIP3   OH238645   4.327   0.211   5.962
12901TIP3    H138646   4.372   0.157   5.896
12901TIP3    H238647   4.329   0.300   5.926
12902TIP3   OH238648   2.062   6.214   2.688
12902TIP3    H138649   2.045   6.168   2.606
12902TIP3    H238650   2.144   6.175   2.721
12903TIP3   OH238651   8.114   6.919   0.702
12903TIP3    H138652   8.143   6.992   0.647
12903TIP3    H238653   8.165   6.928   0.782
12904TIP3   OH238654   4.196   3.684   2.933
12904TIP3    H138655   4.274   3.653   2.886
12904TIP3    H238656   4.194   3.631   3.013
12905TIP3   OH238657   3.943   3.768   2.527
12905TIP3    H138658   3.882   3.737   2.595
12905TIP3    H238659   3.942   3.698   2.462
12906TIP3   OH238660   6.701   3.064   6.551
12906TIP3    H138661   6.714   3.131   6.483
12906TIP3    H238662   6.716   3.111   6.633
12907TIP3   OH238663   0.105   5.866   1.971
12907TIP3    H138664   0.092   5.854   1.877
12907TIP3    H238665   0.114   5.778   2.007
12908TIP3   OH238666   6.117   5.576   2.969
12908TIP3    H138667   6.163   5.591   2.887
12908TIP3    H238668   6.186   5.551   3.031
12909TIP3   OH238669   6.236   6.766   5.070
12909TIP3    H138670   6.178   6.826   5.024
12909TIP3    H238671   6.216   6.680   5.034
12910TIP3   OH238672   2.497   2.587   1.247
12910TIP3    H138673   2.457   2.568   1.332
12910TIP3    H238674   2.450   2.531   1.185
12911TIP3   OH238675   7.922   0.894   3.032
12911TIP3    H138676   7.905   0.869   3.123
12911TIP3    H238677   7.932   0.989   3.036
12912TIP3   OH238678   7.500   2.395   4.554
12912TIP3    H138679   7.556   2.424   4.481
12912TIP3    H238680   7.558   2.339   4.607
12913TIP3   OH238681   4.682   6.904   5.077
12913TIP3    H138682   4.663   6.827   5.024
12913TIP3    H238683   4.776   6.918   5.067
12914TIP3   OH238684   6.763   3.844   2.462
12914TIP3    H138685   6.778   3.752   2.438
12914TIP3    H238686   6.732   3.885   2.381
12915TIP3   OH238687   0.411   4.801   5.121
12915TIP3    H138688   0.446   4.859   5.188
12915TIP3    H238689   0.393   4.859   5.047
12916TIP3   OH238690   3.463   7.628   6.107
12916TIP3    H138691   3.472   7.538   6.075
12916TIP3    H238692   3.468   7.621   6.202
12917TIP3   OH238693   7.935   4.131   0.533
12917TIP3    H138694   7.976   4.047   0.555
12917TIP3    H238695   7.939   4.181   0.615
12918TIP3   OH238696   7.621   6.615   5.897
12918TIP3    H138697   7.659   6.530   5.920
12918TIP3    H238698   7.679   6.649   5.829
12919TIP3   OH238699   0.903   1.953   3.842
12919TIP3    H138700   0.910   1.908   3.757
12919TIP3    H238701   0.977   2.014   3.843
12920TIP3   OH238702   5.758   7.206   0.451
12920TIP3    H138703   5.748   7.237   0.362
12920TIP3    H238704   5.729   7.115   0.449
12921TIP3   OH238705   4.067   2.291   0.277
12921TIP3    H138706   3.981   2.330   0.291
12921TIP3    H238707   4.067   2.214   0.334
12922TIP3   OH238708   6.722   5.003   0.117
12922TIP3    H138709   6.691   4.926   0.070
12922TIP3    H238710   6.804   4.976   0.157
12923TIP3   OH238711   8.057   1.237   1.877
12923TIP3    H138712   8.012   1.208   1.956
12923TIP3    H238713   8.000   1.208   1.805
12924TIP3   OH238714   1.711   7.193   4.001
12924TIP3    H138715   1.680   7.214   4.089
12924TIP3    H238716   1.656   7.246   3.943
12925TIP3   OH238717   2.855   6.149   3.115
12925TIP3    H138718   2.823   6.087   3.181
12925TIP3    H238719   2.923   6.199   3.160
12926TIP3   OH238720   0.710   1.874   0.963
12926TIP3    H138721   0.648   1.877   0.890
12926TIP3    H238722   0.659   1.903   1.038
12927TIP3   OH238723   3.938   3.242   3.231
12927TIP3    H138724   3.852   3.216   3.263
12927TIP3    H238725   3.934   3.226   3.136
12928TIP3   OH238726   6.357   7.433   0.315
12928TIP3    H138727   6.333   7.375   0.242
12928TIP3    H238728   6.416   7.381   0.369
12929TIP3   OH238729   1.327   6.161   3.153
12929TIP3    H138730   1.323   6.148   3.059
12929TIP3    H238731   1.402   6.109   3.182
12930TIP3   OH238732   4.998   1.684   5.585
12930TIP3    H138733   5.001   1.778   5.603
12930TIP3    H238734   4.932   1.675   5.517
12931TIP3   OH238735   5.752   3.295   2.603
12931TIP3    H138736   5.832   3.292   2.550
12931TIP3    H238737   5.783   3.304   2.693
12932TIP3   OH238738   2.292   2.074   0.253
12932TIP3    H138739   2.387   2.075   0.266
12932TIP3    H238740   2.261   2.156   0.293
12933TIP3   OH238741   4.022   7.273   0.259
12933TIP3    H138742   4.118   7.272   0.255
12933TIP3    H238743   3.996   7.331   0.188
12934TIP3   OH238744   7.781   4.853   3.799
12934TIP3    H138745   7.706   4.809   3.840
12934TIP3    H238746   7.761   4.853   3.706
12935TIP3   OH238747   5.897   7.656   2.688
12935TIP3    H138748   5.942   7.582   2.729
12935TIP3    H238749   5.967   7.716   2.661
12936TIP3   OH238750   4.740   6.118   1.074
12936TIP3    H138751   4.690   6.199   1.065
12936TIP3    H238752   4.709   6.080   1.156
12937TIP3   OH238753   6.411   0.555   5.137
12937TIP3    H138754   6.390   0.467   5.169
12937TIP3    H238755   6.327   0.591   5.108
12938TIP3   OH238756   6.800   5.048   3.811
12938TIP3    H138757   6.738   5.036   3.739
12938TIP3    H238758   6.836   5.136   3.797
12939TIP3   OH238759   2.096   0.316   0.131
12939TIP3    H138760   2.131   0.402   0.151
12939TIP3    H238761   2.023   0.305   0.192
12940TIP3   OH238762   6.188   2.668   2.594
12940TIP3    H138763   6.168   2.576   2.612
12940TIP3    H238764   6.266   2.665   2.539
12941TIP3   OH238765   2.688   6.255   5.060
12941TIP3    H138766   2.619   6.312   5.093
12941TIP3    H238767   2.654   6.166   5.073
12942TIP3   OH238768   0.227   7.394   0.998
12942TIP3    H138769   0.266   7.402   0.911
12942TIP3    H238770   0.298   7.419   1.058
12943TIP3   OH238771   6.932   6.011   2.276
12943TIP3    H138772   6.841   6.041   2.284
12943TIP3    H238773   6.980   6.064   2.339
12944TIP3   OH238774   0.585   1.222   2.446
12944TIP3    H138775   0.498   1.186   2.434
12944TIP3    H238776   0.573   1.295   2.507
12945TIP3   OH238777   7.479   3.532   0.065
12945TIP3    H138778   7.389   3.522   0.097
12945TIP3    H238779   7.528   3.464   0.109
12946TIP3   OH238780   3.890   7.645   2.477
12946TIP3    H138781   3.828   7.665   2.407
12946TIP3    H238782   3.845   7.581   2.532
12947TIP3   OH238783   0.589   0.447   1.149
12947TIP3    H138784   0.550   0.512   1.208
12947TIP3    H238785   0.683   0.453   1.167
12948TIP3   OH238786   2.815   4.835   0.264
12948TIP3    H138787   2.748   4.901   0.284
12948TIP3    H238788   2.893   4.867   0.309
12949TIP3   OH238789   1.843   6.001   2.952
12949TIP3    H138790   1.819   5.916   2.987
12949TIP3    H238791   1.780   6.017   2.881
12950TIP3   OH238792   1.648   0.178   4.465
12950TIP3    H138793   1.582   0.115   4.436
12950TIP3    H238794   1.711   0.125   4.514
12951TIP3   OH238795   6.986   6.650   6.000
12951TIP3    H138796   7.039   6.627   6.076
12951TIP3    H238797   6.903   6.682   6.037
12952TIP3   OH238798   0.461   4.613   0.422
12952TIP3    H138799   0.469   4.662   0.340
12952TIP3    H238800   0.498   4.671   0.489
12953TIP3   OH238801   7.353   3.794   5.107
12953TIP3    H138802   7.443   3.813   5.132
12953TIP3    H238803   7.358   3.756   5.020
12954TIP3   OH238804   0.104   5.688   4.973
12954TIP3    H138805   0.180   5.679   4.915
12954TIP3    H238806   0.138   5.670   5.060
12955TIP3   OH238807   2.491   7.361   6.136
12955TIP3    H138808   2.477   7.281   6.186
12955TIP3    H238809   2.543   7.334   6.061
12956TIP3   OH238810   8.216   6.430   3.097
12956TIP3    H138811   8.141   6.371   3.102
12956TIP3    H238812   8.182   6.509   3.055
12957TIP3   OH238813   5.911   2.208   6.410
12957TIP3    H138814   5.941   2.196   6.320
12957TIP3    H238815   5.927   2.300   6.429
12958TIP3   OH238816   0.374   5.894   6.000
12958TIP3    H138817   0.399   5.970   6.054
12958TIP3    H238818   0.457   5.855   5.974
12959TIP3   OH238819   5.253   0.242   0.293
12959TIP3    H138820   5.282   0.329   0.321
12959TIP3    H238821   5.245   0.193   0.375
12960TIP3   OH238822   8.170   0.207   5.377
12960TIP3    H138823   8.181   0.115   5.401
12960TIP3    H238824   8.076   0.217   5.360
12961TIP3   OH238825   7.245   6.435   0.342
12961TIP3    H138826   7.283   6.436   0.430
12961TIP3    H238827   7.313   6.475   0.286
12962TIP3   OH238828   5.719   4.937   2.808
12962TIP3    H138829   5.777   4.876   2.854
12962TIP3    H238830   5.671   4.982   2.878
12963TIP3   OH238831   1.335   3.936   0.145
12963TIP3    H138832   1.281   3.935   0.066
12963TIP3    H238833   1.339   4.028   0.171
12964TIP3   OH238834   7.769   6.778   0.543
12964TIP3    H138835   7.748   6.760   0.451
12964TIP3    H238836   7.736   6.702   0.591
12965TIP3   OH238837   5.801   4.499   1.787
12965TIP3    H138838   5.807   4.430   1.853
12965TIP3    H238839   5.880   4.551   1.799
12966TIP3   OH238840   0.443   4.577   4.451
12966TIP3    H138841   0.416   4.641   4.385
12966TIP3    H238842   0.364   4.527   4.471
12967TIP3   OH238843   6.270   2.346   0.903
12967TIP3    H138844   6.338   2.346   0.835
12967TIP3    H238845   6.188   2.335   0.854
12968TIP3   OH238846   1.306   1.814   4.664
12968TIP3    H138847   1.227   1.854   4.628
12968TIP3    H238848   1.317   1.733   4.614
12969TIP3   OH238849   3.559   7.788   4.917
12969TIP3    H138850   3.556   7.879   4.948
12969TIP3    H238851   3.489   7.745   4.966
12970TIP3   OH238852   4.352   5.877   0.405
12970TIP3    H138853   4.261   5.864   0.433
12970TIP3    H238854   4.391   5.932   0.473
12971TIP3   OH238855   3.311   7.041   2.646
12971TIP3    H138856   3.392   7.052   2.697
12971TIP3    H238857   3.322   6.956   2.604
12972TIP3   OH238858   1.221   2.230   5.860
12972TIP3    H138859   1.278   2.297   5.823
12972TIP3    H238860   1.237   2.152   5.806
12973TIP3   OH238861   3.159   5.640   1.359
12973TIP3    H138862   3.137   5.722   1.314
12973TIP3    H238863   3.196   5.668   1.442
12974TIP3   OH238864   5.607   2.428   1.662
12974TIP3    H138865   5.635   2.337   1.666
12974TIP3    H238866   5.683   2.478   1.692
12975TIP3   OH238867   5.947   6.149   5.462
12975TIP3    H138868   5.977   6.059   5.474
12975TIP3    H238869   5.855   6.148   5.486
12976TIP3   OH238870   7.401   7.557   5.824
12976TIP3    H138871   7.309   7.562   5.797
12976TIP3    H238872   7.448   7.535   5.743
12977TIP3   OH238873   1.225   7.179   4.448
12977TIP3    H138874   1.270   7.262   4.430
12977TIP3    H238875   1.139   7.189   4.407
12978TIP3   OH238876   5.240   0.870   2.356
12978TIP3    H138877   5.230   0.887   2.263
12978TIP3    H238878   5.152   0.878   2.392
12979TIP3   OH238879   2.908   3.222   2.859
12979TIP3    H138880   2.846   3.159   2.822
12979TIP3    H238881   2.977   3.230   2.793
12980TIP3   OH238882   0.450   7.218   5.980
12980TIP3    H138883   0.409   7.192   5.898
12980TIP3    H238884   0.541   7.188   5.973
12981TIP3   OH238885   2.602   2.920   3.382
12981TIP3    H138886   2.518   2.876   3.393
12981TIP3    H238887   2.581   3.000   3.333
12982TIP3   OH238888   4.480   2.115   5.321
12982TIP3    H138889   4.431   2.121   5.239
12982TIP3    H238890   4.544   2.046   5.305
12983TIP3   OH238891   5.273   1.886   6.054
12983TIP3    H138892   5.299   1.817   5.992
12983TIP3    H238893   5.306   1.856   6.139
12984TIP3   OH238894   0.170   6.474   5.700
12984TIP3    H138895   0.174   6.569   5.689
12984TIP3    H238896   0.224   6.456   5.777
12985TIP3   OH238897   5.355   1.599   5.096
12985TIP3    H138898   5.436   1.547   5.106
12985TIP3    H238899   5.285   1.535   5.107
12986TIP3   OH238900   4.021   0.936   0.524
12986TIP3    H138901   3.931   0.906   0.512
12986TIP3    H238902   4.075   0.863   0.493
12987TIP3   OH238903   5.207   6.601   4.922
12987TIP3    H138904   5.146   6.671   4.895
12987TIP3    H238905   5.294   6.640   4.913
12988TIP3   OH238906   4.202   0.726   4.688
12988TIP3    H138907   4.170   0.697   4.774
12988TIP3    H238908   4.285   0.678   4.677
12989TIP3   OH238909   7.429   0.865   1.607
12989TIP3    H138910   7.434   0.889   1.700
12989TIP3    H238911   7.519   0.846   1.583
12990TIP3   OH238912   3.050   5.395   0.537
12990TIP3    H138913   3.059   5.375   0.630
12990TIP3    H238914   2.968   5.354   0.511
12991TIP3   OH238915   2.188   7.478   4.782
12991TIP3    H138916   2.110   7.423   4.782
12991TIP3    H238917   2.193   7.513   4.871
12992TIP3   OH238918   4.479   2.072   6.409
12992TIP3    H138919   4.413   2.014   6.448
12992TIP3    H238920   4.450   2.160   6.434
12993TIP3   OH238921   2.841   2.850   5.899
12993TIP3    H138922   2.745   2.846   5.905
12993TIP3    H238923   2.858   2.874   5.808
12994TIP3   OH238924   7.720   1.955   4.345
12994TIP3    H138925   7.642   1.966   4.400
12994TIP3    H238926   7.775   1.893   4.393
12995TIP3   OH238927   7.922   1.297   6.327
12995TIP3    H138928   7.977   1.227   6.293
12995TIP3    H238929   7.965   1.377   6.298
12996TIP3   OH238930   2.774   7.747   1.946
12996TIP3    H138931   2.829   7.806   1.997
12996TIP3    H238932   2.733   7.689   2.011
12997TIP3   OH238933   2.842   5.160   3.988
12997TIP3    H138934   2.855   5.067   3.970
12997TIP3    H238935   2.896   5.178   4.065
12998TIP3   OH238936   1.438   1.960   2.969
12998TIP3    H138937   1.521   2.006   2.972
12998TIP3    H238938   1.372   2.027   2.985
12999TIP3   OH238939   5.490   6.268   4.524
12999TIP3    H138940   5.540   6.191   4.550
12999TIP3    H238941   5.408   6.261   4.573
13000TIP3   OH238942   0.663   6.812   2.018
13000TIP3    H138943   0.636   6.832   2.108
13000TIP3    H238944   0.751   6.776   2.028
13001TIP3   OH238945   4.621   4.747   5.421
13001TIP3    H138946   4.682   4.776   5.354
13001TIP3    H238947   4.552   4.702   5.373
13002TIP3   OH238948   7.784   3.470   1.536
13002TIP3    H138949   7.708   3.413   1.547
13002TIP3    H238950   7.799   3.471   1.442
13003TIP3   OH238951   6.195   4.070   3.342
13003TIP3    H138952   6.165   3.996   3.288
13003TIP3    H238953   6.253   4.030   3.407
13004TIP3   OH238954   7.515   0.701   5.274
13004TIP3    H138955   7.565   0.727   5.197
13004TIP3    H238956   7.539   0.609   5.289
13005TIP3   OH238957   4.115   5.994   3.915
13005TIP3    H138958   4.200   6.025   3.886
13005TIP3    H238959   4.061   5.992   3.836
13006TIP3   OH238960   8.021   1.121   0.214
13006TIP3    H138961   8.108   1.117   0.254
13006TIP3    H238962   8.038   1.120   0.120
13007TIP3   OH238963   3.033   3.532   6.736
13007TIP3    H138964   3.049   3.614   6.691
13007TIP3    H238965   2.947   3.543   6.777
13008TIP3   OH238966   4.499   3.127   0.019
13008TIP3    H138967   4.420   3.100   0.067
13008TIP3    H238968   4.495   3.222   0.019
13009TIP3   OH238969   2.903   0.406   5.878
13009TIP3    H138970   2.955   0.440   5.805
13009TIP3    H238971   2.813   0.405   5.846
13010TIP3   OH238972   4.530   5.746   3.037
13010TIP3    H138973   4.437   5.722   3.040
13010TIP3    H238974   4.550   5.779   3.124
13011TIP3   OH238975   0.225   7.741   4.491
13011TIP3    H138976   0.204   7.831   4.469
13011TIP3    H238977   0.318   7.732   4.471
13012TIP3   OH238978   0.301   3.758   2.533
13012TIP3    H138979   0.316   3.666   2.558
13012TIP3    H238980   0.313   3.759   2.438
13013TIP3   OH238981   5.025   5.087   1.344
13013TIP3    H138982   4.959   5.112   1.279
13013TIP3    H238983   4.977   5.082   1.427
13014TIP3   OH238984   4.551   7.483   0.254
13014TIP3    H138985   4.633   7.529   0.270
13014TIP3    H238986   4.551   7.411   0.317
13015TIP3   OH238987   5.862   0.293   2.392
13015TIP3    H138988   5.804   0.369   2.396
13015TIP3    H238989   5.806   0.221   2.362
13016TIP3   OH238990   0.026   1.358   1.245
13016TIP3    H138991   0.063   1.438   1.284
13016TIP3    H238992  -0.029   1.321   1.313
13017TIP3   OH238993   2.946   1.676   0.055
13017TIP3    H138994   3.027   1.681   0.105
13017TIP3    H238995   2.893   1.611   0.100
13018TIP3   OH238996   3.882   6.650   5.601
13018TIP3    H138997   3.845   6.685   5.520
13018TIP3    H238998   3.806   6.640   5.659
13019TIP3   OH238999   1.445   3.931   5.660
13019TIP3    H139000   1.363   3.898   5.625
13019TIP3    H239001   1.423   3.960   5.748
13020TIP3   OH239002   3.041   6.380   4.124
13020TIP3    H139003   3.005   6.440   4.189
13020TIP3    H239004   3.136   6.387   4.135
13021TIP3   OH239005   0.404   2.861   0.513
13021TIP3    H139006   0.393   2.882   0.420
13021TIP3    H239007   0.315   2.859   0.548
13022TIP3   OH239008   6.670   0.583   5.666
13022TIP3    H139009   6.631   0.584   5.753
13022TIP3    H239010   6.749   0.530   5.676
13023TIP3   OH239011   3.082   3.723   3.025
13023TIP3    H139012   3.003   3.729   3.079
13023TIP3    H239013   3.067   3.647   2.969
13024TIP3   OH239014   0.704   5.592   0.749
13024TIP3    H139015   0.650   5.588   0.670
13024TIP3    H239016   0.793   5.602   0.715
13025TIP3   OH239017   0.102   1.645   6.006
13025TIP3    H139018   0.070   1.590   6.077
13025TIP3    H239019   0.132   1.584   5.939
13026TIP3   OH239020   7.566   0.475   1.463
13026TIP3    H139021   7.559   0.570   1.476
13026TIP3    H239022   7.489   0.452   1.411
13027TIP3   OH239023   5.108   0.976   0.959
13027TIP3    H139024   5.130   0.990   0.867
13027TIP3    H239025   5.020   0.939   0.958
13028TIP3   OH239026   2.943   0.574   3.922
13028TIP3    H139027   3.017   0.544   3.975
13028TIP3    H239028   2.962   0.666   3.904
13029TIP3   OH239029   2.479   0.681   2.380
13029TIP3    H139030   2.390   0.646   2.381
13029TIP3    H239031   2.471   0.766   2.338
13030TIP3   OH239032   6.626   5.067   3.560
13030TIP3    H139033   6.621   4.973   3.579
13030TIP3    H239034   6.537   5.091   3.535
13031TIP3   OH239035   6.080   6.512   4.766
13031TIP3    H139036   6.050   6.446   4.830
13031TIP3    H239037   6.133   6.462   4.704
13032TIP3   OH239038   7.170   1.694   3.671
13032TIP3    H139039   7.094   1.656   3.628
13032TIP3    H239040   7.220   1.619   3.703
13033TIP3   OH239041   4.383   4.964   6.274
13033TIP3    H139042   4.403   4.878   6.235
13033TIP3    H239043   4.393   5.025   6.201
13034TIP3   OH239044   4.453   3.104   2.302
13034TIP3    H139045   4.426   3.195   2.300
13034TIP3    H239046   4.531   3.103   2.359
13035TIP3   OH239047   1.449   2.679   4.454
13035TIP3    H139048   1.496   2.697   4.535
13035TIP3    H239049   1.510   2.626   4.403
13036TIP3   OH239050   4.177   4.892   0.988
13036TIP3    H139051   4.215   4.906   0.902
13036TIP3    H239052   4.251   4.892   1.049
13037TIP3   OH239053   0.447   6.293   0.808
13037TIP3    H139054   0.431   6.375   0.761
13037TIP3    H239055   0.513   6.248   0.756
13038TIP3   OH239056   3.629   6.698   1.435
13038TIP3    H139057   3.676   6.718   1.354
13038TIP3    H239058   3.674   6.621   1.470
13039TIP3   OH239059   1.616   6.179   4.371
13039TIP3    H139060   1.649   6.264   4.343
13039TIP3    H239061   1.654   6.166   4.458
13040TIP3   OH239062   5.018   7.362   1.347
13040TIP3    H139063   5.016   7.269   1.367
13040TIP3    H239064   5.108   7.389   1.363
13041TIP3   OH239065   3.921   3.217   4.979
13041TIP3    H139066   3.894   3.176   5.061
13041TIP3    H239067   3.847   3.204   4.920
13042TIP3   OH239068   7.201   5.302   4.652
13042TIP3    H139069   7.111   5.320   4.623
13042TIP3    H239070   7.196   5.307   4.748
13043TIP3   OH239071   2.952   7.111   3.312
13043TIP3    H139072   2.930   7.025   3.277
13043TIP3    H239073   2.973   7.163   3.234
13044TIP3   OH239074   7.530   7.767   6.146
13044TIP3    H139075   7.594   7.770   6.217
13044TIP3    H239076   7.476   7.846   6.159
13045TIP3   OH239077   2.150   0.777   2.063
13045TIP3    H139078   2.245   0.790   2.061
13045TIP3    H239079   2.139   0.686   2.090
13046TIP3   OH239080   8.146   5.697   5.256
13046TIP3    H139081   8.239   5.678   5.264
13046TIP3    H239082   8.135   5.728   5.166
13047TIP3   OH239083   6.036   7.322   0.136
13047TIP3    H139084   6.116   7.361   0.101
13047TIP3    H239085   5.966   7.358   0.082
13048TIP3   OH239086   6.363   2.735   5.876
13048TIP3    H139087   6.276   2.725   5.838
13048TIP3    H239088   6.416   2.772   5.805
13049TIP3   OH239089   5.995   5.189   5.042
13049TIP3    H139090   6.026   5.103   5.015
13049TIP3    H239091   6.073   5.234   5.074
13050TIP3   OH239092   8.096   4.008   2.058
13050TIP3    H139093   8.086   4.058   2.139
13050TIP3    H239094   8.006   3.983   2.034
13051TIP3   OH239095   6.999   2.138   1.145
13051TIP3    H139096   7.012   2.052   1.186
13051TIP3    H239097   7.087   2.175   1.140
13052TIP3   OH239098   7.861   7.567   3.011
13052TIP3    H139099   7.906   7.522   3.082
13052TIP3    H239100   7.931   7.606   2.958
13053TIP3   OH239101   5.560   2.549   1.426
13053TIP3    H139102   5.573   2.521   1.516
13053TIP3    H239103   5.483   2.500   1.396
13054TIP3   OH239104   7.381   5.965   0.309
13054TIP3    H139105   7.318   6.019   0.261
13054TIP3    H239106   7.383   6.004   0.396
13055TIP3   OH239107   4.874   7.058   0.985
13055TIP3    H139108   4.783   7.047   0.960
13055TIP3    H239109   4.884   7.151   1.002
13056TIP3   OH239110   1.824   5.816   3.429
13056TIP3    H139111   1.846   5.897   3.474
13056TIP3    H239112   1.903   5.793   3.381
13057TIP3   OH239113   4.059   5.384   3.312
13057TIP3    H139114   4.119   5.436   3.258
13057TIP3    H239115   4.030   5.445   3.380
13058TIP3   OH239116   0.160   3.084   1.097
13058TIP3    H139117   0.088   3.087   1.161
13058TIP3    H239118   0.118   3.099   1.013
13059TIP3   OH239119  -0.003   1.554   4.787
13059TIP3    H139120  -0.026   1.625   4.726
13059TIP3    H239121   0.080   1.583   4.826
13060TIP3   OH239122   1.139   2.370   4.482
13060TIP3    H139123   1.159   2.454   4.440
13060TIP3    H239124   1.203   2.309   4.445
13061TIP3   OH239125   0.393   7.220   1.869
13061TIP3    H139126   0.419   7.130   1.853
13061TIP3    H239127   0.453   7.272   1.816
13062TIP3   OH239128   5.286   7.655   5.697
13062TIP3    H139129   5.259   7.714   5.768
13062TIP3    H239130   5.205   7.616   5.666
13063TIP3   OH239131   0.856   6.811   3.660
13063TIP3    H139132   0.834   6.867   3.585
13063TIP3    H239133   0.806   6.847   3.733
13064TIP3   OH239134   1.773   2.237   5.690
13064TIP3    H139135   1.790   2.331   5.694
13064TIP3    H239136   1.809   2.209   5.606
13065TIP3   OH239137   3.195   3.947   2.017
13065TIP3    H139138   3.227   4.031   1.984
13065TIP3    H239139   3.100   3.959   2.024
13066TIP3   OH239140   6.601   3.675   5.824
13066TIP3    H139141   6.676   3.674   5.883
13066TIP3    H239142   6.621   3.744   5.761
13067TIP3   OH239143   7.002   1.160   0.683
13067TIP3    H139144   7.040   1.146   0.596
13067TIP3    H239145   7.076   1.152   0.743
13068TIP3   OH239146   1.406   2.415   5.789
13068TIP3    H139147   1.413   2.492   5.733
13068TIP3    H239148   1.439   2.445   5.874
13069TIP3   OH239149   3.647   4.098   4.623
13069TIP3    H139150   3.675   4.170   4.566
13069TIP3    H239151   3.664   4.019   4.572
13070TIP3   OH239152   0.924   0.217   4.406
13070TIP3    H139153   0.924   0.145   4.469
13070TIP3    H239154   0.927   0.174   4.321
13071TIP3   OH239155   0.964   4.489   3.774
13071TIP3    H139156   1.021   4.446   3.710
13071TIP3    H239157   0.955   4.425   3.844
13072TIP3   OH239158   7.556   0.246   6.495
13072TIP3    H139159   7.631   0.210   6.541
13072TIP3    H239160   7.498   0.277   6.565
13073TIP3   OH239161   1.692   3.890   3.082
13073TIP3    H139162   1.785   3.887   3.061
13073TIP3    H239163   1.674   3.983   3.098
13074TIP3   OH239164   7.383   2.741   1.013
13074TIP3    H139165   7.288   2.747   1.020
13074TIP3    H239166   7.400   2.749   0.919
13075TIP3   OH239167   2.114   5.785   2.858
13075TIP3    H139168   2.154   5.720   2.800
13075TIP3    H239169   2.146   5.762   2.945
13076TIP3   OH239170   7.346   5.799   5.954
13076TIP3    H139171   7.427   5.813   5.906
13076TIP3    H239172   7.305   5.725   5.911
13077TIP3   OH239173   0.739   5.731   4.809
13077TIP3    H139174   0.790   5.683   4.744
13077TIP3    H239175   0.659   5.757   4.763
13078TIP3   OH239176   4.978   3.073   0.454
13078TIP3    H139177   4.929   3.155   0.455
13078TIP3    H239178   5.057   3.093   0.403
13079TIP3   OH239179   6.987   4.816   0.122
13079TIP3    H139180   6.983   4.836   0.216
13079TIP3    H239181   6.919   4.750   0.109
13080TIP3   OH239182   7.584   6.362   0.933
13080TIP3    H139183   7.518   6.314   0.984
13080TIP3    H239184   7.653   6.298   0.916
13081TIP3   OH239185   6.779   2.181   2.900
13081TIP3    H139186   6.722   2.148   2.969
13081TIP3    H239187   6.775   2.277   2.909
13082TIP3   OH239188   7.537   5.186   1.453
13082TIP3    H139189   7.514   5.112   1.510
13082TIP3    H239190   7.498   5.164   1.369
13083TIP3   OH239191   2.382   2.848   3.764
13083TIP3    H139192   2.338   2.882   3.686
13083TIP3    H239193   2.326   2.776   3.793
13084TIP3   OH239194   5.681   2.142   4.692
13084TIP3    H139195   5.652   2.220   4.740
13084TIP3    H239196   5.699   2.077   4.760
13085TIP3   OH239197   6.480   5.548   0.242
13085TIP3    H139198   6.525   5.464   0.247
13085TIP3    H239199   6.509   5.587   0.160
13086TIP3   OH239200   5.115   4.766   6.462
13086TIP3    H139201   5.181   4.738   6.526
13086TIP3    H239202   5.033   4.762   6.511
13087TIP3   OH239203   4.565   6.799   1.247
13087TIP3    H139204   4.622   6.784   1.172
13087TIP3    H239205   4.624   6.821   1.319
13088TIP3   OH239206   7.691   2.409   3.564
13088TIP3    H139207   7.703   2.436   3.474
13088TIP3    H239208   7.597   2.394   3.573
13089TIP3   OH239209   3.288   3.081   4.605
13089TIP3    H139210   3.313   3.173   4.615
13089TIP3    H239211   3.267   3.071   4.513
13090TIP3   OH239212   6.976   0.616   1.871
13090TIP3    H139213   6.944   0.678   1.806
13090TIP3    H239214   7.067   0.598   1.845
13091TIP3   OH239215   6.414   5.806   6.334
13091TIP3    H139216   6.429   5.713   6.318
13091TIP3    H239217   6.347   5.809   6.402
13092TIP3   OH239218   3.122   1.787   4.432
13092TIP3    H139219   3.064   1.760   4.503
13092TIP3    H239220   3.072   1.768   4.352
13093TIP3   OH239221   0.501   1.771   1.921
13093TIP3    H139222   0.454   1.695   1.957
13093TIP3    H239223   0.431   1.831   1.894
13094TIP3   OH239224   6.203   6.723   0.939
13094TIP3    H139225   6.172   6.801   0.893
13094TIP3    H239226   6.154   6.723   1.021
13095TIP3   OH239227   1.165   0.709   5.166
13095TIP3    H139228   1.156   0.653   5.243
13095TIP3    H239229   1.088   0.765   5.167
13096TIP3   OH239230   2.186   2.402   3.689
13096TIP3    H139231   2.187   2.307   3.696
13096TIP3    H239232   2.174   2.420   3.596
13097TIP3   OH239233   4.067   0.487   5.398
13097TIP3    H139234   3.991   0.475   5.454
13097TIP3    H239235   4.110   0.566   5.432
13098TIP3   OH239236   3.380   4.151   0.843
13098TIP3    H139237   3.348   4.131   0.931
13098TIP3    H239238   3.390   4.066   0.801
13099TIP3   OH239239   5.148   5.522   2.866
13099TIP3    H139240   5.224   5.572   2.895
13099TIP3    H239241   5.073   5.568   2.905
13100TIP3   OH239242   0.588   7.555   2.682
13100TIP3    H139243   0.620   7.644   2.698
13100TIP3    H239244   0.667   7.504   2.666
13101TIP3   OH239245   4.640   1.486   6.578
13101TIP3    H139246   4.626   1.400   6.541
13101TIP3    H239247   4.676   1.538   6.506
13102TIP3   OH239248   3.061   5.839   5.442
13102TIP3    H139249   3.014   5.854   5.524
13102TIP3    H239250   2.992   5.826   5.377
13103TIP3   OH239251   0.040   0.427   3.070
13103TIP3    H139252  -0.037   0.374   3.052
13103TIP3    H239253   0.025   0.464   3.157
13104TIP3   OH239254   5.623   7.710   3.910
13104TIP3    H139255   5.595   7.695   3.819
13104TIP3    H239256   5.546   7.691   3.962
13105TIP3   OH239257   3.787   3.176   1.366
13105TIP3    H139258   3.822   3.091   1.392
13105TIP3    H239259   3.723   3.157   1.298
13106TIP3   OH239260   4.869   3.294   2.766
13106TIP3    H139261   4.925   3.228   2.808
13106TIP3    H239262   4.862   3.364   2.831
13107TIP3   OH239263   6.073   0.610   5.617
13107TIP3    H139264   6.116   0.688   5.583
13107TIP3    H239265   6.145   0.549   5.636
13108TIP3   OH239266   4.009   2.105   0.721
13108TIP3    H139267   3.984   2.136   0.808
13108TIP3    H239268   3.999   2.010   0.726
13109TIP3   OH239269   5.114   1.170   3.435
13109TIP3    H139270   5.112   1.145   3.342
13109TIP3    H239271   5.044   1.119   3.475
13110TIP3   OH239272   3.581   3.212   6.114
13110TIP3    H139273   3.651   3.245   6.058
13110TIP3    H239274   3.625   3.181   6.193
13111TIP3   OH239275   2.600   0.616   1.471
13111TIP3    H139276   2.673   0.565   1.435
13111TIP3    H239277   2.630   0.707   1.467
13112TIP3   OH239278   7.154   7.021   3.301
13112TIP3    H139279   7.164   7.111   3.271
13112TIP3    H239280   7.061   7.001   3.287
13113TIP3   OH239281   3.305   6.793   2.517
13113TIP3    H139282   3.357   6.763   2.443
13113TIP3    H239283   3.226   6.739   2.514
13114TIP3   OH239284   7.517   5.245   3.233
13114TIP3    H139285   7.571   5.171   3.260
13114TIP3    H239286   7.458   5.208   3.167
13115TIP3   OH239287   1.558   1.197   4.957
13115TIP3    H139288   1.642   1.176   4.916
13115TIP3    H239289   1.549   1.133   5.028
13116TIP3   OH239290   5.138   2.889   3.391
13116TIP3    H139291   5.182   2.805   3.378
13116TIP3    H239292   5.209   2.953   3.402
13117TIP3   OH239293   3.714   3.968   3.992
13117TIP3    H139294   3.786   3.982   3.931
13117TIP3    H239295   3.700   3.873   3.990
13118TIP3   OH239296   5.190   7.762   6.460
13118TIP3    H139297   5.217   7.827   6.525
13118TIP3    H239298   5.156   7.814   6.387
13119TIP3   OH239299   0.967   0.243   3.164
13119TIP3    H139300   0.883   0.209   3.135
13119TIP3    H239301   1.027   0.169   3.158
13120TIP3   OH239302   3.284   7.393   6.318
13120TIP3    H139303   3.190   7.403   6.336
13120TIP3    H239304   3.288   7.353   6.231
13121TIP3   OH239305   5.984   7.012   3.854
13121TIP3    H139306   6.029   6.937   3.893
13121TIP3    H239307   6.049   7.052   3.796
13122TIP3   OH239308   7.865   1.271   5.331
13122TIP3    H139309   7.785   1.224   5.309
13122TIP3    H239310   7.848   1.307   5.418
13123TIP3   OH239311   6.132   3.944   0.145
13123TIP3    H139312   6.209   3.930   0.090
13123TIP3    H239313   6.071   3.876   0.118
13124TIP3   OH239314   1.720   4.855   4.005
13124TIP3    H139315   1.662   4.880   3.933
13124TIP3    H239316   1.676   4.782   4.047
13125TIP3   OH239317   0.737   6.665   6.500
13125TIP3    H139318   0.751   6.677   6.594
13125TIP3    H239319   0.825   6.667   6.463
13126TIP3   OH239320   1.243   6.973   0.460
13126TIP3    H139321   1.248   7.068   0.477
13126TIP3    H239322   1.332   6.949   0.432
13127TIP3   OH239323   7.295   1.599   6.169
13127TIP3    H139324   7.346   1.545   6.229
13127TIP3    H239325   7.207   1.600   6.206
13128TIP3   OH239326   5.176   2.923   1.446
13128TIP3    H139327   5.171   2.828   1.434
13128TIP3    H239328   5.188   2.958   1.358
13129TIP3   OH239329   2.549   0.638   0.626
13129TIP3    H139330   2.502   0.605   0.549
13129TIP3    H239331   2.533   0.732   0.625
13130TIP3   OH239332   3.234   5.691   6.325
13130TIP3    H139333   3.148   5.720   6.294
13130TIP3    H239334   3.228   5.595   6.325
13131TIP3   OH239335   7.551   6.943   6.240
13131TIP3    H139336   7.580   6.852   6.226
13131TIP3    H239337   7.572   6.960   6.331
13132TIP3   OH239338   7.544   6.594   6.544
13132TIP3    H139339   7.633   6.616   6.574
13132TIP3    H239340   7.554   6.509   6.502
13133TIP3   OH239341   4.649   5.414   3.860
13133TIP3    H139342   4.745   5.415   3.865
13133TIP3    H239343   4.627   5.321   3.853
13134TIP3   OH239344   6.417   5.399   3.648
13134TIP3    H139345   6.462   5.471   3.603
13134TIP3    H239346   6.414   5.427   3.739
13135TIP3   OH239347   7.149   3.691   6.160
13135TIP3    H139348   7.079   3.756   6.172
13135TIP3    H239349   7.224   3.742   6.129
13136TIP3   OH239350   7.783   6.773   0.214
13136TIP3    H139351   7.765   6.764   0.121
13136TIP3    H239352   7.848   6.844   0.220
13137TIP3   OH239353   6.073   6.313   4.934
13137TIP3    H139354   6.116   6.244   4.984
13137TIP3    H239355   5.994   6.272   4.900
13138TIP3   OH239356   5.927   6.356   0.715
13138TIP3    H139357   6.002   6.381   0.661
13138TIP3    H239358   5.913   6.431   0.773
13139TIP3   OH239359   5.544   4.880   3.841
13139TIP3    H139360   5.484   4.827   3.788
13139TIP3    H239361   5.562   4.956   3.786
13140TIP3   OH239362   1.987   4.851   2.975
13140TIP3    H139363   2.074   4.877   3.005
13140TIP3    H239364   2.003   4.799   2.896
13141TIP3   OH239365   1.234   3.792   5.600
13141TIP3    H139366   1.177   3.786   5.677
13141TIP3    H239367   1.180   3.836   5.534
13142TIP3   OH239368   7.839   7.220   5.050
13142TIP3    H139369   7.926   7.239   5.016
13142TIP3    H239370   7.819   7.293   5.107
13143TIP3   OH239371   0.808   2.985   1.460
13143TIP3    H139372   0.807   3.081   1.453
13143TIP3    H239373   0.901   2.963   1.460
13144TIP3   OH239374   0.012   0.129   3.567
13144TIP3    H139375   0.100   0.161   3.588
13144TIP3    H239376   0.011   0.123   3.472
13145TIP3   OH239377   6.123   5.942   4.810
13145TIP3    H139378   6.143   5.851   4.833
13145TIP3    H239379   6.145   5.992   4.889
13146TIP3   OH239380   4.868   0.481   2.195
13146TIP3    H139381   4.830   0.425   2.127
13146TIP3    H239382   4.810   0.557   2.198
13147TIP3   OH239383   1.031   6.565   2.392
13147TIP3    H139384   0.938   6.579   2.407
13147TIP3    H239385   1.036   6.516   2.310
13148TIP3   OH239386   3.746   3.528   3.670
13148TIP3    H139387   3.659   3.533   3.710
13148TIP3    H239388   3.770   3.436   3.677
13149TIP3   OH239389   5.450   1.648   5.657
13149TIP3    H139390   5.452   1.557   5.629
13149TIP3    H239391   5.452   1.699   5.576
13150TIP3   OH239392   7.047   7.536   2.151
13150TIP3    H139393   7.128   7.486   2.149
13150TIP3    H239394   6.979   7.471   2.171
13151TIP3   OH239395   4.640   7.554   1.371
13151TIP3    H139396   4.699   7.622   1.339
13151TIP3    H239397   4.552   7.588   1.350
13152TIP3   OH239398   3.648   0.243   3.517
13152TIP3    H139399   3.625   0.167   3.464
13152TIP3    H239400   3.566   0.290   3.529
13153TIP3   OH239401   7.812   3.276   6.715
13153TIP3    H139402   7.829   3.363   6.678
13153TIP3    H239403   7.845   3.215   6.650
13154TIP3   OH239404   4.022   0.573   0.752
13154TIP3    H139405   3.969   0.555   0.675
13154TIP3    H239406   3.980   0.524   0.822
13155TIP3   OH239407   5.781   0.493   5.419
13155TIP3    H139408   5.730   0.412   5.424
13155TIP3    H239409   5.871   0.463   5.401
13156TIP3   OH239410   3.844   6.322   5.635
13156TIP3    H139411   3.781   6.371   5.688
13156TIP3    H239412   3.795   6.294   5.558
13157TIP3   OH239413   5.700   4.742   2.602
13157TIP3    H139414   5.707   4.821   2.654
13157TIP3    H239415   5.734   4.767   2.516
13158TIP3   OH239416   7.464   5.054   2.237
13158TIP3    H139417   7.507   5.085   2.316
13158TIP3    H239418   7.434   5.133   2.192
13159TIP3   OH239419   1.226   5.012   0.211
13159TIP3    H139420   1.225   5.102   0.244
13159TIP3    H239421   1.134   4.995   0.188
13160TIP3   OH239422   4.927   5.136   6.460
13160TIP3    H139423   4.925   5.228   6.488
13160TIP3    H239424   4.835   5.109   6.462
13161TIP3   OH239425   4.521   5.841   1.530
13161TIP3    H139426   4.459   5.806   1.594
13161TIP3    H239427   4.496   5.800   1.447
13162TIP3   OH239428   2.557   0.800   3.757
13162TIP3    H139429   2.598   0.816   3.673
13162TIP3    H239430   2.615   0.843   3.821
13163TIP3   OH239431   6.984   7.475   1.470
13163TIP3    H139432   7.028   7.472   1.555
13163TIP3    H239433   6.994   7.387   1.435
13164TIP3   OH239434   0.595   4.190   3.242
13164TIP3    H139435   0.535   4.116   3.253
13164TIP3    H239436   0.556   4.242   3.172
13165TIP3   OH239437   0.491   4.743   0.679
13165TIP3    H139438   0.534   4.686   0.742
13165TIP3    H239439   0.456   4.816   0.731
13166TIP3   OH239440   2.246   1.167   2.799
13166TIP3    H139441   2.236   1.216   2.881
13166TIP3    H239442   2.246   1.234   2.731
13167TIP3   OH239443   7.736   0.863   4.657
13167TIP3    H139444   7.735   0.940   4.714
13167TIP3    H239445   7.750   0.789   4.717
13168TIP3   OH239446   3.388   2.604   2.822
13168TIP3    H139447   3.337   2.587   2.743
13168TIP3    H239448   3.378   2.698   2.838
13169TIP3   OH239449   7.940   3.737   4.475
13169TIP3    H139450   7.855   3.734   4.433
13169TIP3    H239451   7.920   3.742   4.569
13170TIP3   OH239452   6.354   1.388   3.068
13170TIP3    H139453   6.410   1.429   3.134
13170TIP3    H239454   6.407   1.316   3.033
13171TIP3   OH239455   3.945   4.015   1.193
13171TIP3    H139456   4.013   3.997   1.127
13171TIP3    H239457   3.863   4.018   1.143
13172TIP3   OH239458   2.280   4.919   1.744
13172TIP3    H139459   2.347   4.939   1.809
13172TIP3    H239460   2.206   4.975   1.768
13173TIP3   OH239461   1.189   6.924   0.090
13173TIP3    H139462   1.238   6.997   0.052
13173TIP3    H239463   1.243   6.847   0.074
13174TIP3   OH239464   3.543   1.178   5.705
13174TIP3    H139465   3.639   1.186   5.702
13174TIP3    H239466   3.515   1.256   5.753
13175TIP3   OH239467   4.018   1.974   6.194
13175TIP3    H139468   4.079   2.037   6.155
13175TIP3    H239469   3.959   1.950   6.123
13176TIP3   OH239470   2.883   1.818   1.733
13176TIP3    H139471   2.797   1.859   1.721
13176TIP3    H239472   2.890   1.803   1.827
13177TIP3   OH239473   2.689   0.885   1.422
13177TIP3    H139474   2.615   0.939   1.448
13177TIP3    H239475   2.766   0.942   1.434
13178TIP3   OH239476   4.027   1.872   0.962
13178TIP3    H139477   4.041   1.832   0.877
13178TIP3    H239478   4.097   1.937   0.971
13179TIP3   OH239479   2.215   5.500   0.957
13179TIP3    H139480   2.148   5.546   0.907
13179TIP3    H239481   2.166   5.451   1.023
13180TIP3   OH239482   4.424   5.117   6.055
13180TIP3    H139483   4.332   5.122   6.029
13180TIP3    H239484   4.459   5.204   6.039
13181TIP3   OH239485   2.455   1.414   0.189
13181TIP3    H139486   2.423   1.396   0.101
13181TIP3    H239487   2.386   1.382   0.247
13182TIP3   OH239488   1.591   3.216   1.014
13182TIP3    H139489   1.608   3.123   0.995
13182TIP3    H239490   1.560   3.251   0.930
13183TIP3   OH239491   5.696   4.467   2.541
13183TIP3    H139492   5.751   4.460   2.463
13183TIP3    H239493   5.686   4.561   2.555
13184TIP3   OH239494   4.414   7.731   1.294
13184TIP3    H139495   4.433   7.709   1.203
13184TIP3    H239496   4.319   7.721   1.302
13185TIP3   OH239497   4.944   2.153   4.735
13185TIP3    H139498   4.950   2.072   4.786
13185TIP3    H239499   5.025   2.200   4.755
13186TIP3   OH239500   6.271   4.554   5.640
13186TIP3    H139501   6.278   4.496   5.715
13186TIP3    H239502   6.318   4.633   5.667
13187TIP3   OH239503   2.518   1.337   3.356
13187TIP3    H139504   2.514   1.250   3.395
13187TIP3    H239505   2.590   1.331   3.292
13188TIP3   OH239506   4.109   0.533   2.803
13188TIP3    H139507   4.042   0.564   2.741
13188TIP3    H239508   4.182   0.507   2.747
13189TIP3   OH239509   1.107   6.324   6.112
13189TIP3    H139510   1.155   6.341   6.193
13189TIP3    H239511   1.170   6.281   6.055
13190TIP3   OH239512   6.549   1.291   1.857
13190TIP3    H139513   6.593   1.338   1.928
13190TIP3    H239514   6.617   1.275   1.792
13191TIP3   OH239515   7.859   5.760   3.332
13191TIP3    H139516   7.837   5.728   3.419
13191TIP3    H239517   7.883   5.682   3.283
13192TIP3   OH239518   5.862   6.364   6.398
13192TIP3    H139519   5.780   6.316   6.395
13192TIP3    H239520   5.904   6.336   6.479
13193TIP3   OH239521   8.114   6.688   0.905
13193TIP3    H139522   8.182   6.747   0.871
13193TIP3    H239523   8.082   6.641   0.828
13194TIP3   OH239524   2.424   1.075   2.230
13194TIP3    H139525   2.346   1.116   2.267
13194TIP3    H239526   2.496   1.132   2.258
13195TIP3   OH239527   1.258   0.163   3.864
13195TIP3    H139528   1.241   0.171   3.958
13195TIP3    H239529   1.274   0.252   3.834
13196TIP3   OH239530   4.441   1.319   2.347
13196TIP3    H139531   4.372   1.370   2.305
13196TIP3    H239532   4.498   1.385   2.387
13197TIP3   OH239533   6.483   4.811   4.563
13197TIP3    H139534   6.425   4.789   4.636
13197TIP3    H239535   6.465   4.743   4.498
13198TIP3   OH239536   2.478   1.514   5.107
13198TIP3    H139537   2.454   1.433   5.062
13198TIP3    H239538   2.472   1.582   5.040
13199TIP3   OH239539   7.110   0.153   6.288
13199TIP3    H139540   7.128   0.223   6.225
13199TIP3    H239541   7.123   0.195   6.373
13200TIP3   OH239542   0.693   5.322   2.789
13200TIP3    H139543   0.763   5.268   2.826
13200TIP3    H239544   0.681   5.392   2.853
13201TIP3   OH239545   1.837   5.228   0.088
13201TIP3    H139546   1.895   5.302   0.068
13201TIP3    H239547   1.852   5.166   0.016
13202TIP3   OH239548   4.929   3.373   3.311
13202TIP3    H139549   4.850   3.409   3.270
13202TIP3    H239550   4.946   3.431   3.385
13203TIP3   OH239551   2.278   3.700   4.071
13203TIP3    H139552   2.290   3.718   3.978
13203TIP3    H239553   2.183   3.689   4.081
13204TIP3   OH239554   6.953   3.811   5.535
13204TIP3    H139555   6.857   3.817   5.541
13204TIP3    H239556   6.971   3.718   5.551
13205TIP3   OH239557   6.601   6.511   4.251
13205TIP3    H139558   6.587   6.458   4.330
13205TIP3    H239559   6.675   6.568   4.274
13206TIP3   OH239560   1.754   2.007   0.687
13206TIP3    H139561   1.717   1.918   0.689
13206TIP3    H239562   1.704   2.054   0.754
13207TIP3   OH239563   3.960   6.820   0.553
13207TIP3    H139564   3.896   6.885   0.525
13207TIP3    H239565   4.042   6.848   0.513
13208TIP3   OH239566   1.222   0.358   6.219
13208TIP3    H139567   1.314   0.341   6.239
13208TIP3    H239568   1.189   0.275   6.186
13209TIP3   OH239569   0.924   7.185   2.830
13209TIP3    H139570   0.880   7.135   2.761
13209TIP3    H239571   0.914   7.276   2.803
13210TIP3   OH239572   0.991   1.046   3.364
13210TIP3    H139573   0.904   1.007   3.362
13210TIP3    H239574   0.995   1.099   3.284
13211TIP3   OH239575   6.181   1.801  -0.049
13211TIP3    H139576   6.234   1.726  -0.073
13211TIP3    H239577   6.192   1.810   0.045
13212TIP3   OH239578   4.209   7.074   4.601
13212TIP3    H139579   4.187   7.113   4.686
13212TIP3    H239580   4.203   7.147   4.539
13213TIP3   OH239581   6.291   2.576   5.151
13213TIP3    H139582   6.234   2.506   5.119
13213TIP3    H239583   6.362   2.581   5.086
13214TIP3   OH239584   3.743   1.279   4.036
13214TIP3    H139585   3.726   1.187   4.019
13214TIP3    H239586   3.770   1.282   4.128
13215TIP3   OH239587   1.114   2.486   1.765
13215TIP3    H139588   1.038   2.502   1.821
13215TIP3    H239589   1.137   2.395   1.783
13216TIP3   OH239590   4.621   0.626   3.265
13216TIP3    H139591   4.526   0.620   3.256
13216TIP3    H239592   4.644   0.551   3.319
13217TIP3   OH239593   1.223   3.727   4.453
13217TIP3    H139594   1.286   3.736   4.382
13217TIP3    H239595   1.204   3.633   4.457
13218TIP3   OH239596   6.697   1.252   5.008
13218TIP3    H139597   6.679   1.267   4.915
13218TIP3    H239598   6.782   1.292   5.022
13219TIP3   OH239599   4.162   7.577   3.490
13219TIP3    H139600   4.078   7.606   3.454
13219TIP3    H239601   4.194   7.512   3.427
13220TIP3   OH239602   4.732   2.918   5.609
13220TIP3    H139603   4.713   3.011   5.597
13220TIP3    H239604   4.696   2.876   5.530
13221TIP3   OH239605   0.874   6.965   5.582
13221TIP3    H139606   0.863   7.058   5.563
13221TIP3    H239607   0.793   6.925   5.551
13222TIP3   OH239608   1.576   1.419   2.380
13222TIP3    H139609   1.668   1.411   2.355
13222TIP3    H239610   1.536   1.338   2.349
13223TIP3   OH239611   4.410   1.058   6.710
13223TIP3    H139612   4.322   1.023   6.725
13223TIP3    H239613   4.434   1.025   6.623
13224TIP3   OH239614   0.156   6.783   1.820
13224TIP3    H139615   0.152   6.855   1.882
13224TIP3    H239616   0.171   6.705   1.874
13225TIP3   OH239617   8.082   0.629   0.692
13225TIP3    H139618   8.078   0.538   0.720
13225TIP3    H239619   8.018   0.634   0.620
13226TIP3   OH239620   2.755   2.325   5.803
13226TIP3    H139621   2.722   2.414   5.814
13226TIP3    H239622   2.822   2.316   5.872
13227TIP3   OH239623   0.680   6.634   5.636
13227TIP3    H139624   0.630   6.560   5.671
13227TIP3    H239625   0.693   6.692   5.711
13228TIP3   OH239626   4.755   0.889   3.334
13228TIP3    H139627   4.701   0.811   3.317
13228TIP3    H239628   4.735   0.948   3.261
13229TIP3   OH239629   2.819   5.438   4.394
13229TIP3    H139630   2.804   5.479   4.479
13229TIP3    H239631   2.772   5.355   4.399
13230TIP3   OH239632   6.543   3.626   1.825
13230TIP3    H139633   6.583   3.560   1.882
13230TIP3    H239634   6.532   3.581   1.741
13231TIP3   OH239635   6.737   5.735   2.988
13231TIP3    H139636   6.669   5.681   2.948
13231TIP3    H239637   6.770   5.788   2.915
13232TIP3   OH239638   0.059   6.641   0.424
13232TIP3    H139639  -0.028   6.649   0.387
13232TIP3    H239640   0.114   6.613   0.351
13233TIP3   OH239641   6.877   3.281   5.665
13233TIP3    H139642   6.886   3.216   5.735
13233TIP3    H239643   6.800   3.253   5.616
13234TIP3   OH239644   4.854   6.070   2.184
13234TIP3    H139645   4.944   6.101   2.194
13234TIP3    H239646   4.853   6.025   2.100
13235TIP3   OH239647   1.980   3.992   2.499
13235TIP3    H139648   1.937   3.978   2.584
13235TIP3    H239649   1.909   4.011   2.439
13236TIP3   OH239650   0.773   3.778   3.318
13236TIP3    H139651   0.784   3.825   3.401
13236TIP3    H239652   0.799   3.688   3.338
13237TIP3   OH239653   6.308   1.914   0.527
13237TIP3    H139654   6.393   1.950   0.552
13237TIP3    H239655   6.271   1.882   0.609
13238TIP3   OH239656   0.433   4.632   4.717
13238TIP3    H139657   0.514   4.634   4.767
13238TIP3    H239658   0.460   4.640   4.626
13239TIP3   OH239659   8.057   6.052   0.937
13239TIP3    H139660   8.020   6.048   0.848
13239TIP3    H239661   8.028   5.970   0.978
13240TIP3   OH239662   4.384   2.971   6.522
13240TIP3    H139663   4.365   2.957   6.614
13240TIP3    H239664   4.417   2.887   6.491
13241TIP3   OH239665   5.735   4.529   5.966
13241TIP3    H139666   5.824   4.549   5.935
13241TIP3    H239667   5.696   4.615   5.983
13242TIP3   OH239668   3.106   3.119   5.642
13242TIP3    H139669   3.198   3.140   5.624
13242TIP3    H239670   3.073   3.197   5.688
13243TIP3   OH239671   0.459   5.880   3.395
13243TIP3    H139672   0.487   5.876   3.304
13243TIP3    H239673   0.389   5.815   3.402
13244TIP3   OH239674   4.667   7.556   1.698
13244TIP3    H139675   4.627   7.634   1.660
13244TIP3    H239676   4.599   7.488   1.689
13245TIP3   OH239677   2.059   0.489   6.243
13245TIP3    H139678   2.028   0.399   6.237
13245TIP3    H239679   2.070   0.517   6.152
13246TIP3   OH239680   1.369   4.611   5.527
13246TIP3    H139681   1.359   4.697   5.486
13246TIP3    H239682   1.461   4.589   5.513
13247TIP3   OH239683   2.644   6.300   1.305
13247TIP3    H139684   2.726   6.325   1.350
13247TIP3    H239685   2.673   6.251   1.228
13248TIP3   OH239686   4.262   3.992   1.300
13248TIP3    H139687   4.328   3.996   1.369
13248TIP3    H239688   4.312   3.984   1.219
13249TIP3   OH239689   3.753   2.311   0.724
13249TIP3    H139690   3.753   2.332   0.631
13249TIP3    H239691   3.667   2.339   0.756
13250TIP3   OH239692   2.332   0.605   1.481
13250TIP3    H139693   2.308   0.530   1.536
13250TIP3    H239694   2.426   0.598   1.470
13251TIP3   OH239695   1.893   5.467   1.525
13251TIP3    H139696   1.911   5.416   1.446
13251TIP3    H239697   1.848   5.406   1.583
13252TIP3   OH239698   1.098   2.559   6.495
13252TIP3    H139699   1.105   2.484   6.437
13252TIP3    H239700   1.188   2.583   6.515
13253TIP3   OH239701   4.957   1.966   5.606
13253TIP3    H139702   5.020   1.965   5.534
13253TIP3    H239703   4.884   2.020   5.573
13254TIP3   OH239704   4.146   6.205   2.637
13254TIP3    H139705   4.226   6.238   2.597
13254TIP3    H239706   4.170   6.119   2.672
13255TIP3   OH239707   6.102   4.227   1.358
13255TIP3    H139708   6.053   4.309   1.348
13255TIP3    H239709   6.037   4.158   1.343
13256TIP3   OH239710   0.753   5.368   4.097
13256TIP3    H139711   0.716   5.370   4.185
13256TIP3    H239712   0.839   5.329   4.108
13257TIP3   OH239713   7.822   6.093   3.999
13257TIP3    H139714   7.869   6.091   4.083
13257TIP3    H239715   7.733   6.067   4.021
13258TIP3   OH239716   2.480   6.619   0.328
13258TIP3    H139717   2.568   6.655   0.325
13258TIP3    H239718   2.423   6.695   0.338
13259TIP3   OH239719   2.304   0.951   3.757
13259TIP3    H139720   2.370   0.884   3.778
13259TIP3    H239721   2.329   1.027   3.811
13260TIP3   OH239722   7.264   5.391   1.929
13260TIP3    H139723   7.275   5.359   1.840
13260TIP3    H239724   7.326   5.463   1.937
13261TIP3   OH239725   7.740   2.374   0.256
13261TIP3    H139726   7.821   2.425   0.253
13261TIP3    H239727   7.768   2.286   0.280
13262TIP3   OH239728   4.445   1.213   0.716
13262TIP3    H139729   4.517   1.247   0.663
13262TIP3    H239730   4.430   1.125   0.682
13263TIP3   OH239731   1.573   3.153   1.383
13263TIP3    H139732   1.541   3.103   1.307
13263TIP3    H239733   1.498   3.155   1.443
13264TIP3   OH239734   6.100   4.072   6.700
13264TIP3    H139735   6.022   4.086   6.646
13264TIP3    H239736   6.170   4.119   6.656
13265TIP3   OH239737   1.632   6.586   0.885
13265TIP3    H139738   1.699   6.579   0.817
13265TIP3    H239739   1.673   6.637   0.955
13266TIP3   OH239740   7.005   6.222   6.198
13266TIP3    H139741   7.030   6.181   6.115
13266TIP3    H239742   6.937   6.286   6.174
13267TIP3   OH239743   4.275   5.330   4.679
13267TIP3    H139744   4.344   5.277   4.639
13267TIP3    H239745   4.306   5.346   4.769
13268TIP3   OH239746   1.057   0.793   6.470
13268TIP3    H139747   1.054   0.869   6.412
13268TIP3    H239748   1.143   0.753   6.453
13269TIP3   OH239749   4.684   3.339   1.131
13269TIP3    H139750   4.712   3.431   1.136
13269TIP3    H239751   4.765   3.291   1.110
13270TIP3   OH239752   1.214   3.194   1.044
13270TIP3    H139753   1.250   3.245   0.971
13270TIP3    H239754   1.206   3.257   1.115
13271TIP3   OH239755   8.232   0.133   5.956
13271TIP3    H139756   8.306   0.189   5.981
13271TIP3    H239757   8.273   0.056   5.915
13272TIP3   OH239758   7.710   7.686   3.225
13272TIP3    H139759   7.661   7.609   3.254
13272TIP3    H239760   7.745   7.661   3.139
13273TIP3   OH239761   3.035   7.574   4.942
13273TIP3    H139762   2.974   7.545   4.874
13273TIP3    H239763   3.043   7.500   5.001
13274TIP3   OH239764   4.271   5.665   4.838
13274TIP3    H139765   4.267   5.723   4.763
13274TIP3    H239766   4.201   5.696   4.896
13275TIP3   OH239767   4.939   3.399   3.888
13275TIP3    H139768   4.901   3.407   3.975
13275TIP3    H239769   4.864   3.388   3.830
13276TIP3   OH239770   5.429   1.333   6.225
13276TIP3    H139771   5.342   1.301   6.248
13276TIP3    H239772   5.426   1.343   6.129
13277TIP3   OH239773   6.253   6.448   4.027
13277TIP3    H139774   6.309   6.506   4.078
13277TIP3    H239775   6.246   6.490   3.942
13278TIP3   OH239776   1.669   5.052   4.741
13278TIP3    H139777   1.701   5.134   4.780
13278TIP3    H239778   1.614   5.081   4.667
13279TIP3   OH239779   6.392   6.010   3.301
13279TIP3    H139780   6.358   5.924   3.326
13279TIP3    H239781   6.323   6.071   3.328
13280TIP3   OH239782   4.593   5.309   2.342
13280TIP3    H139783   4.640   5.392   2.345
13280TIP3    H239784   4.661   5.243   2.349
13281TIP3   OH239785   7.268   4.529   6.671
13281TIP3    H139786   7.343   4.475   6.693
13281TIP3    H239787   7.261   4.592   6.744
13282TIP3   OH239788   7.201   5.442   6.357
13282TIP3    H139789   7.155   5.519   6.389
13282TIP3    H239790   7.160   5.369   6.403
13283TIP3   OH239791   2.053   4.728   2.742
13283TIP3    H139792   2.055   4.633   2.755
13283TIP3    H239793   2.138   4.758   2.774
13284TIP3   OH239794   4.813   7.180   2.763
13284TIP3    H139795   4.835   7.094   2.728
13284TIP3    H239796   4.889   7.206   2.814
13285TIP3   OH239797   5.175   7.125   2.661
13285TIP3    H139798   5.190   7.053   2.723
13285TIP3    H239799   5.166   7.202   2.716
13286TIP3   OH239800   7.032   2.948   1.702
13286TIP3    H139801   7.075   2.869   1.670
13286TIP3    H239802   6.998   2.990   1.623
13287TIP3   OH239803   1.614   1.984   5.499
13287TIP3    H139804   1.553   2.001   5.570
13287TIP3    H239805   1.558   1.951   5.428
13288TIP3   OH239806   5.431   0.195   3.710
13288TIP3    H139807   5.369   0.136   3.667
13288TIP3    H239808   5.380   0.273   3.731
13289TIP3   OH239809   5.401   5.092   2.097
13289TIP3    H139810   5.442   5.046   2.023
13289TIP3    H239811   5.459   5.074   2.171
13290TIP3   OH239812   7.736   4.634   5.085
13290TIP3    H139813   7.650   4.593   5.094
13290TIP3    H239814   7.797   4.572   5.123
13291TIP3   OH239815   1.502   6.703   6.570
13291TIP3    H139816   1.552   6.658   6.502
13291TIP3    H239817   1.504   6.643   6.644
13292TIP3   OH239818   3.842   7.475   0.120
13292TIP3    H139819   3.828   7.469   0.214
13292TIP3    H239820   3.754   7.471   0.082
13293TIP3   OH239821   1.165   5.448   0.551
13293TIP3    H139822   1.132   5.398   0.476
13293TIP3    H239823   1.200   5.528   0.512
13294TIP3   OH239824   3.593   6.492   1.012
13294TIP3    H139825   3.619   6.440   0.936
13294TIP3    H239826   3.508   6.530   0.988
13295TIP3   OH239827   3.228   5.414   6.306
13295TIP3    H139828   3.204   5.398   6.215
13295TIP3    H239829   3.180   5.348   6.355
13296TIP3   OH239830   6.077   6.474   4.398
13296TIP3    H139831   6.053   6.563   4.425
13296TIP3    H239832   6.000   6.421   4.417
13297TIP3   OH239833   0.317   6.466   6.640
13297TIP3    H139834   0.235   6.514   6.633
13297TIP3    H239835   0.382   6.533   6.664
13298TIP3   OH239836   1.273   2.807   1.355
13298TIP3    H139837   1.358   2.838   1.323
13298TIP3    H239838   1.294   2.752   1.430
13299TIP3   OH239839   5.082   7.557   4.254
13299TIP3    H139840   5.110   7.467   4.267
13299TIP3    H239841   5.124   7.584   4.173
13300TIP3   OH239842   0.149   5.078   3.343
13300TIP3    H139843   0.221   5.141   3.346
13300TIP3    H239844   0.098   5.103   3.265
13301TIP3   OH239845   2.315   6.268   3.292
13301TIP3    H139846   2.263   6.306   3.220
13301TIP3    H239847   2.406   6.280   3.264
13302TIP3   OH239848   8.207   1.877   5.176
13302TIP3    H139849   8.249   1.805   5.222
13302TIP3    H239850   8.216   1.952   5.235
13303TIP3   OH239851   5.597   5.048   0.591
13303TIP3    H139852   5.592   4.980   0.658
13303TIP3    H239853   5.602   5.130   0.641
13304TIP3   OH239854   1.743   4.293   5.552
13304TIP3    H139855   1.817   4.337   5.595
13304TIP3    H239856   1.671   4.300   5.614
13305TIP3   OH239857   2.250   4.415   0.229
13305TIP3    H139858   2.212   4.372   0.306
13305TIP3    H239859   2.344   4.421   0.249
13306TIP3   OH239860   4.035   1.331   1.154
13306TIP3    H139861   4.034   1.239   1.127
13306TIP3    H239862   3.951   1.343   1.200
13307TIP3   OH239863   3.429   3.131   2.817
13307TIP3    H139864   3.430   3.191   2.891
13307TIP3    H239865   3.419   3.188   2.740
13308TIP3   OH239866   1.244   6.462   0.660
13308TIP3    H139867   1.277   6.545   0.626
13308TIP3    H239868   1.181   6.487   0.727
13309TIP3   OH239869   2.545   7.189   3.885
13309TIP3    H139870   2.455   7.216   3.902
13309TIP3    H239871   2.544   7.160   3.794
13310TIP3   OH239872   2.731   2.312   6.611
13310TIP3    H139873   2.675   2.327   6.687
13310TIP3    H239874   2.813   2.280   6.648
13311TIP3   OH239875   1.042   1.373   0.268
13311TIP3    H139876   1.007   1.291   0.301
13311TIP3    H239877   1.130   1.380   0.307
13312TIP3   OH239878   6.647   2.683   0.055
13312TIP3    H139879   6.676   2.714   0.140
13312TIP3    H239880   6.659   2.757  -0.004
13313TIP3   OH239881   8.119   5.240   4.995
13313TIP3    H139882   8.079   5.152   4.998
13313TIP3    H239883   8.069   5.291   5.059
13314TIP3   OH239884   2.233   3.760   3.812
13314TIP3    H139885   2.148   3.718   3.794
13314TIP3    H239886   2.284   3.745   3.733
13315TIP3   OH239887   3.156   4.947   4.264
13315TIP3    H139888   3.194   4.883   4.205
13315TIP3    H239889   3.231   4.990   4.305
13316TIP3   OH239890   0.945   7.351   6.535
13316TIP3    H139891   1.040   7.364   6.533
13316TIP3    H239892   0.908   7.439   6.542
13317TIP3   OH239893   0.564   0.921   3.035
13317TIP3    H139894   0.582   0.909   3.128
13317TIP3    H239895   0.579   0.834   2.997
13318TIP3   OH239896   8.050   2.101   6.319
13318TIP3    H139897   7.981   2.140   6.373
13318TIP3    H239898   8.131   2.139   6.353
13319TIP3   OH239899   6.464   5.258   4.999
13319TIP3    H139900   6.413   5.257   4.918
13319TIP3    H239901   6.435   5.180   5.046
13320TIP3   OH239902   4.187   1.777   4.264
13320TIP3    H139903   4.239   1.848   4.301
13320TIP3    H239904   4.221   1.698   4.305
13321TIP3   OH239905   3.905   6.865   6.174
13321TIP3    H139906   3.947   6.833   6.254
13321TIP3    H239907   3.978   6.897   6.120
13322TIP3   OH239908   2.013   4.187   0.692
13322TIP3    H139909   2.068   4.226   0.760
13322TIP3    H239910   2.009   4.094   0.715
13323TIP3   OH239911   4.955   2.064   6.542
13323TIP3    H139912   4.965   2.114   6.461
13323TIP3    H239913   4.867   2.028   6.538
13324TIP3   OH239914   2.875   0.092   2.661
13324TIP3    H139915   2.888   0.029   2.589
13324TIP3    H239916   2.780   0.093   2.675
13325TIP3   OH239917   7.818   2.596   1.175
13325TIP3    H139918   7.863   2.534   1.232
13325TIP3    H239919   7.872   2.602   1.097
13326TIP3   OH239920   1.370   5.287   4.011
13326TIP3    H139921   1.449   5.332   4.043
13326TIP3    H239922   1.364   5.312   3.919
13327TIP3   OH239923   7.244   6.923   6.143
13327TIP3    H139924   7.246   6.829   6.156
13327TIP3    H239925   7.335   6.947   6.123
13328TIP3   OH239926   2.322   1.181   6.133
13328TIP3    H139927   2.358   1.130   6.206
13328TIP3    H239928   2.250   1.230   6.173
13329TIP3   OH239929   4.881   1.305   4.363
13329TIP3    H139930   4.807   1.357   4.330
13329TIP3    H239931   4.860   1.215   4.338
13330TIP3   OH239932   1.510   4.602   1.781
13330TIP3    H139933   1.504   4.581   1.688
13330TIP3    H239934   1.420   4.616   1.809
13331TIP3   OH239935   5.322   4.313   2.522
13331TIP3    H139936   5.226   4.310   2.520
13331TIP3    H239937   5.343   4.385   2.580
13332TIP3   OH239938   6.302   1.685   3.218
13332TIP3    H139939   6.384   1.637   3.220
13332TIP3    H239940   6.326   1.774   3.245
13333TIP3   OH239941   1.891   3.890   5.751
13333TIP3    H139942   1.987   3.892   5.745
13333TIP3    H239943   1.866   3.981   5.760
13334TIP3   OH239944   7.242   0.809   0.948
13334TIP3    H139945   7.184   0.740   0.982
13334TIP3    H239946   7.213   0.822   0.858
13335TIP3   OH239947   1.575   2.987   4.488
13335TIP3    H139948   1.514   2.999   4.560
13335TIP3    H239949   1.536   2.917   4.435
13336TIP3   OH239950   6.169   3.409   6.123
13336TIP3    H139951   6.211   3.471   6.182
13336TIP3    H239952   6.080   3.398   6.158
13337TIP3   OH239953   5.556   3.271   2.324
13337TIP3    H139954   5.597   3.270   2.411
13337TIP3    H239955   5.519   3.359   2.316
13338TIP3   OH239956   6.263   3.774   6.300
13338TIP3    H139957   6.190   3.734   6.347
13338TIP3    H239958   6.236   3.865   6.286
13339TIP3   OH239959   6.614   0.472   0.119
13339TIP3    H139960   6.638   0.526   0.194
13339TIP3    H239961   6.525   0.442   0.138
13340TIP3   OH239962   6.423   3.932   3.468
13340TIP3    H139963   6.441   3.867   3.400
13340TIP3    H239964   6.505   3.939   3.516
13341TIP3   OH239965   7.065   2.810   3.139
13341TIP3    H139966   7.003   2.870   3.180
13341TIP3    H239967   7.145   2.816   3.192
13342TIP3   OH239968   6.556   6.252   1.262
13342TIP3    H139969   6.532   6.177   1.316
13342TIP3    H239970   6.537   6.223   1.172
13343TIP3   OH239971   3.855   7.507   4.826
13343TIP3    H139972   3.907   7.498   4.746
13343TIP3    H239973   3.858   7.420   4.866
13344TIP3   OH239974   7.206   2.719   1.681
13344TIP3    H139975   7.192   2.645   1.741
13344TIP3    H239976   7.273   2.688   1.621
13345TIP3   OH239977   7.011   3.039   4.448
13345TIP3    H139978   6.955   3.062   4.522
13345TIP3    H239979   6.951   3.003   4.383
13346TIP3   OH239980   0.435   5.342   5.736
13346TIP3    H139981   0.408   5.252   5.721
13346TIP3    H239982   0.411   5.360   5.827
13347TIP3   OH239983   4.540   4.709   2.214
13347TIP3    H139984   4.628   4.672   2.223
13347TIP3    H239985   4.520   4.701   2.121
13348TIP3   OH239986   0.348   2.859   4.691
13348TIP3    H139987   0.384   2.772   4.674
13348TIP3    H239988   0.351   2.903   4.606
13349TIP3   OH239989   0.584   3.504   3.899
13349TIP3    H139990   0.658   3.451   3.928
13349TIP3    H239991   0.544   3.537   3.979
13350TIP3   OH239992   6.805   0.790   4.077
13350TIP3    H139993   6.730   0.843   4.050
13350TIP3    H239994   6.769   0.703   4.093
13351TIP3   OH239995   0.458   0.453   3.621
13351TIP3    H139996   0.390   0.443   3.689
13351TIP3    H239997   0.532   0.492   3.667
13352TIP3   OH239998   4.108   5.893   0.599
13352TIP3    H139999   4.133   5.935   0.682
13352TIP3    H240000   4.013   5.904   0.595
13353TIP3   OH240001   3.882   1.901   4.483
13353TIP3    H140002   3.939   1.841   4.435
13353TIP3    H240003   3.919   1.903   4.572
13354TIP3   OH240004   5.593   5.524   3.166
13354TIP3    H140005   5.612   5.606   3.120
13354TIP3    H240006   5.571   5.462   3.097
13355TIP3   OH240007   0.252   7.575   5.865
13355TIP3    H140008   0.290   7.495   5.901
13355TIP3    H240009   0.167   7.548   5.830
13356TIP3   OH240010   0.941   0.779   2.073
13356TIP3    H140011   0.952   0.857   2.018
13356TIP3    H240012   0.946   0.706   2.012
13357TIP3   OH240013   5.693   6.854   5.300
13357TIP3    H140014   5.697   6.943   5.265
13357TIP3    H240015   5.703   6.865   5.395
13358TIP3   OH240016   1.022   2.100   6.274
13358TIP3    H140017   1.085   2.040   6.315
13358TIP3    H240018   0.937   2.075   6.312
13359TIP3   OH240019   8.181   6.797   0.222
13359TIP3    H140020   8.152   6.708   0.240
13359TIP3    H240021   8.102   6.850   0.223
13360TIP3   OH240022   6.484   7.020   0.967
13360TIP3    H140023   6.465   6.931   0.998
13360TIP3    H240024   6.406   7.071   0.991
13361TIP3   OH240025   6.959   3.351   5.210
13361TIP3    H140026   7.037   3.342   5.264
13361TIP3    H240027   6.903   3.412   5.258
13362TIP3   OH240028   1.871   0.112   2.453
13362TIP3    H140029   1.876   0.103   2.548
13362TIP3    H240030   1.788   0.158   2.438
13363TIP3   OH240031   6.213   1.705   4.068
13363TIP3    H140032   6.181   1.793   4.083
13363TIP3    H240033   6.257   1.710   3.982
13364TIP3   OH240034   7.567   1.462   1.779
13364TIP3    H140035   7.575   1.386   1.721
13364TIP3    H240036   7.619   1.438   1.856
13365TIP3   OH240037   6.120   3.967   0.943
13365TIP3    H140038   6.096   4.060   0.941
13365TIP3    H240039   6.075   3.933   1.020
13366TIP3   OH240040   5.576   6.529   1.572
13366TIP3    H140041   5.621   6.572   1.644
13366TIP3    H240042   5.633   6.543   1.496
13367TIP3   OH240043   7.453   3.202   5.671
13367TIP3    H140044   7.504   3.283   5.663
13367TIP3    H240045   7.362   3.230   5.659
13368TIP3   OH240046   4.768   1.248   3.938
13368TIP3    H140047   4.686   1.236   3.889
13368TIP3    H240048   4.756   1.198   4.019
13369TIP3   OH240049   3.995   6.641   1.859
13369TIP3    H140050   4.057   6.569   1.868
13369TIP3    H240051   3.969   6.662   1.948
13370TIP3   OH240052   5.412   2.441   0.518
13370TIP3    H140053   5.401   2.471   0.608
13370TIP3    H240054   5.373   2.511   0.465
13371TIP3   OH240055   6.267   7.119   4.847
13371TIP3    H140056   6.270   7.173   4.926
13371TIP3    H240057   6.355   7.081   4.840
13372TIP3   OH240058   2.712   2.426   4.665
13372TIP3    H140059   2.745   2.338   4.647
13372TIP3    H240060   2.790   2.478   4.682
13373TIP3   OH240061   6.210   0.828   3.221
13373TIP3    H140062   6.177   0.834   3.311
13373TIP3    H240063   6.151   0.765   3.179
13374TIP3   OH240064   2.892   3.667   1.992
13374TIP3    H140065   2.833   3.631   1.926
13374TIP3    H240066   2.937   3.590   2.028
13375TIP3   OH240067   1.168   4.331   0.908
13375TIP3    H140068   1.183   4.237   0.918
13375TIP3    H240069   1.164   4.365   0.998
13376TIP3   OH240070   5.695   6.085   4.302
13376TIP3    H140071   5.709   5.990   4.295
13376TIP3    H240072   5.620   6.103   4.245
13377TIP3   OH240073   1.801   0.621   3.726
13377TIP3    H140074   1.816   0.630   3.632
13377TIP3    H240075   1.889   0.613   3.764
13378TIP3   OH240076   0.803   2.475   1.663
13378TIP3    H140077   0.849   2.439   1.739
13378TIP3    H240078   0.873   2.505   1.605
13379TIP3   OH240079   2.348   4.283   2.488
13379TIP3    H140080   2.305   4.353   2.440
13379TIP3    H240081   2.423   4.325   2.530
13380TIP3   OH240082   2.079   2.708   2.054
13380TIP3    H140083   2.155   2.730   2.000
13380TIP3    H240084   2.099   2.621   2.089
13381TIP3   OH240085   5.732   1.340   6.610
13381TIP3    H140086   5.714   1.247   6.620
13381TIP3    H240087   5.715   1.358   6.518
13382TIP3   OH240088   0.252   7.794   2.926
13382TIP3    H140089   0.237   7.700   2.934
13382TIP3    H240090   0.220   7.816   2.839
13383TIP3   OH240091   3.528   5.476   3.994
13383TIP3    H140092   3.620   5.459   3.974
13383TIP3    H240093   3.488   5.389   3.995
13384TIP3   OH240094   0.394   3.291   1.398
13384TIP3    H140095   0.353   3.218   1.444
13384TIP3    H240096   0.379   3.367   1.454
13385TIP3   OH240097   0.000   7.524   2.656
13385TIP3    H140098   0.003   7.450   2.595
13385TIP3    H240099   0.055   7.591   2.614
13386TIP3   OH240100   7.484   5.985   5.082
13386TIP3    H140101   7.574   5.997   5.113
13386TIP3    H240102   7.475   6.047   5.010
13387TIP3   OH240103   2.726   0.558   6.140
13387TIP3    H140104   2.759   0.634   6.188
13387TIP3    H240105   2.763   0.566   6.052
13388TIP3   OH240106   2.310   2.621   1.456
13388TIP3    H140107   2.221   2.615   1.421
13388TIP3    H240108   2.298   2.618   1.551
13389TIP3   OH240109   1.080   3.062   4.564
13389TIP3    H140110   1.021   3.006   4.513
13389TIP3    H240111   1.029   3.085   4.642
13390TIP3   OH240112   4.578   4.647   6.312
13390TIP3    H140113   4.526   4.669   6.389
13390TIP3    H240114   4.634   4.724   6.299
13391TIP3   OH240115   3.206   6.132   5.426
13391TIP3    H140116   3.181   6.048   5.388
13391TIP3    H240117   3.125   6.182   5.430
13392TIP3   OH240118   6.575   3.292   4.062
13392TIP3    H140119   6.543   3.308   3.973
13392TIP3    H240120   6.617   3.375   4.087
13393TIP3   OH240121   2.720   2.006   6.399
13393TIP3    H140122   2.780   2.079   6.384
13393TIP3    H240123   2.729   1.986   6.492
13394TIP3   OH240124   0.018   6.218   4.869
13394TIP3    H140125   0.051   6.130   4.889
13394TIP3    H240126  -0.025   6.246   4.950
13395TIP3   OH240127   7.039   1.496   4.714
13395TIP3    H140128   6.970   1.457   4.660
13395TIP3    H240129   7.006   1.489   4.804
13396TIP3   OH240130   7.813   3.513   5.793
13396TIP3    H140131   7.783   3.581   5.854
13396TIP3    H240132   7.853   3.562   5.721
13397TIP3   OH240133   0.134   6.711   4.410
13397TIP3    H140134   0.182   6.658   4.474
13397TIP3    H240135   0.044   6.679   4.415
13398TIP3   OH240136   2.671   4.027   0.561
13398TIP3    H140137   2.736   3.976   0.512
13398TIP3    H240138   2.686   4.117   0.534
13399TIP3   OH240139   1.182   4.573   4.584
13399TIP3    H140140   1.152   4.610   4.501
13399TIP3    H240141   1.270   4.609   4.597
13400TIP3   OH240142   1.616   4.134   3.148
13400TIP3    H140143   1.629   4.170   3.236
13400TIP3    H240144   1.652   4.201   3.090
13401TIP3   OH240145   4.699   5.973   3.806
13401TIP3    H140146   4.751   6.043   3.848
13401TIP3    H240147   4.609   6.004   3.812
13402TIP3   OH240148   4.027   3.455   3.383
13402TIP3    H140149   4.022   3.384   3.319
13402TIP3    H240150   4.111   3.441   3.427
13403TIP3   OH240151   5.094   3.901   5.706
13403TIP3    H140152   5.164   3.963   5.725
13403TIP3    H240153   5.034   3.910   5.780
13404TIP3   OH240154   8.173   0.127   0.290
13404TIP3    H140155   8.151   0.084   0.373
13404TIP3    H240156   8.113   0.088   0.227
13405TIP3   OH240157   7.622   4.186   0.693
13405TIP3    H140158   7.636   4.095   0.665
13405TIP3    H240159   7.705   4.212   0.733
13406TIP3   OH240160   7.423   2.379   5.989
13406TIP3    H140161   7.422   2.460   5.938
13406TIP3    H240162   7.394   2.405   6.077
13407TIP3   OH240163   5.884   6.606   3.547
13407TIP3    H140164   5.936   6.653   3.612
13407TIP3    H240165   5.795   6.638   3.559
13408TIP3   OH240166   1.015   4.814   2.491
13408TIP3    H140167   1.051   4.773   2.412
13408TIP3    H240168   1.067   4.779   2.563
13409TIP3   OH240169   2.512   4.585   4.224
13409TIP3    H140170   2.582   4.534   4.265
13409TIP3    H240171   2.539   4.592   4.132
13410TIP3   OH240172   5.148   3.650   0.746
13410TIP3    H140173   5.150   3.697   0.663
13410TIP3    H240174   5.188   3.565   0.727
13411TIP3   OH240175   3.945   0.639   2.582
13411TIP3    H140176   3.859   0.682   2.577
13411TIP3    H240177   4.008   0.709   2.565
13412TIP3   OH240178   4.441   3.802   4.555
13412TIP3    H140179   4.537   3.796   4.547
13412TIP3    H240180   4.415   3.719   4.595
13413TIP3   OH240181   3.960   5.253   3.621
13413TIP3    H140182   4.055   5.237   3.624
13413TIP3    H240183   3.922   5.170   3.593
13414TIP3   OH240184   3.053   5.457   2.260
13414TIP3    H140185   3.077   5.441   2.351
13414TIP3    H240186   3.065   5.551   2.248
13415TIP3   OH240187   2.038   6.311   0.683
13415TIP3    H140188   2.105   6.280   0.622
13415TIP3    H240189   2.084   6.319   0.767
13416TIP3   OH240190   7.564   5.559   0.346
13416TIP3    H140191   7.606   5.530   0.265
13416TIP3    H240192   7.538   5.478   0.390
13417TIP3   OH240193   4.264   3.476   4.518
13417TIP3    H140194   4.172   3.460   4.540
13417TIP3    H240195   4.306   3.496   4.602
13418TIP3   OH240196   6.226  -0.001   1.750
13418TIP3    H140197   6.305   0.006   1.696
13418TIP3    H240198   6.196   0.089   1.761
13419TIP3   OH240199   1.067   6.333   1.340
13419TIP3    H140200   1.013   6.288   1.275
13419TIP3    H240201   1.155   6.298   1.326
13420TIP3   OH240202   7.241   3.755   1.495
13420TIP3    H140203   7.213   3.664   1.493
13420TIP3    H240204   7.256   3.778   1.403
13421TIP3   OH240205   0.319   1.002   3.318
13421TIP3    H140206   0.280   1.089   3.310
13421TIP3    H240207   0.408   1.017   3.348
13422TIP3   OH240208   5.839   7.538   6.193
13422TIP3    H140209   5.916   7.548   6.248
13422TIP3    H240210   5.872   7.545   6.103
13423TIP3   OH240211   0.317   2.003   1.087
13423TIP3    H140212   0.319   2.059   1.165
13423TIP3    H240213   0.280   2.059   1.019
13424TIP3   OH240214   1.884   1.142   2.481
13424TIP3    H140215   1.931   1.220   2.510
13424TIP3    H240216   1.833   1.115   2.558
13425TIP3   OH240217   4.444   2.238   3.500
13425TIP3    H140218   4.423   2.144   3.498
13425TIP3    H240219   4.518   2.247   3.440
13426TIP3   OH240220   5.412   0.063   5.124
13426TIP3    H140221   5.359  -0.017   5.132
13426TIP3    H240222   5.384   0.117   5.197
13427TIP3   OH240223   2.253   6.816   0.242
13427TIP3    H140224   2.242   6.884   0.309
13427TIP3    H240225   2.181   6.755   0.258
13428TIP3   OH240226   1.356   2.937   4.679
13428TIP3    H140227   1.282   2.990   4.649
13428TIP3    H240228   1.326   2.847   4.671
13429TIP3   OH240229   1.309   6.720   0.608
13429TIP3    H140230   1.242   6.779   0.645
13429TIP3    H240231   1.383   6.777   0.589
13430TIP3   OH240232   8.080   2.987   6.415
13430TIP3    H140233   8.128   2.906   6.396
13430TIP3    H240234   8.072   2.988   6.511
13431TIP3   OH240235   1.629   4.297   0.075
13431TIP3    H140236   1.702   4.324   0.019
13431TIP3    H240237   1.584   4.230   0.023
13432TIP3   OH240238   8.117   6.558   3.464
13432TIP3    H140239   8.069   6.492   3.415
13432TIP3    H240240   8.063   6.574   3.542
13433TIP3   OH240241   6.543   5.350   1.370
13433TIP3    H140242   6.639   5.352   1.371
13433TIP3    H240243   6.517   5.385   1.455
13434TIP3   OH240244   1.800   3.571   0.316
13434TIP3    H140245   1.826   3.632   0.385
13434TIP3    H240246   1.846   3.489   0.338
13435TIP3   OH240247   7.669   2.803   5.095
13435TIP3    H140248   7.618   2.826   5.017
13435TIP3    H240249   7.612   2.744   5.144
13436TIP3   OH240250   5.322   4.082   3.268
13436TIP3    H140251   5.265   4.069   3.191
13436TIP3    H240252   5.273   4.142   3.324
13437TIP3   OH240253   7.515   2.919   4.837
13437TIP3    H140254   7.515   2.914   4.741
13437TIP3    H240255   7.517   3.013   4.856
13438TIP3   OH240256   0.818   2.118   1.484
13438TIP3    H140257   0.829   2.032   1.526
13438TIP3    H240258   0.844   2.104   1.393
13439TIP3   OH240259   1.830   5.025   3.562
13439TIP3    H140260   1.779   5.085   3.616
13439TIP3    H240261   1.797   4.938   3.584
13440TIP3   OH240262   2.189   5.272   4.099
13440TIP3    H140263   2.109   5.282   4.150
13440TIP3    H240264   2.242   5.210   4.150
13441TIP3   OH240265   8.198   7.146   4.013
13441TIP3    H140266   8.213   7.164   4.106
13441TIP3    H240267   8.108   7.175   3.998
13442TIP3   OH240268   3.823   2.482   3.804
13442TIP3    H140269   3.753   2.492   3.740
13442TIP3    H240270   3.810   2.554   3.865
13443TIP3   OH240271   6.657   4.708   0.697
13443TIP3    H140272   6.599   4.700   0.621
13443TIP3    H240273   6.633   4.635   0.753
13444TIP3   OH240274   3.577   1.778   3.902
13444TIP3    H140275   3.579   1.748   3.993
13444TIP3    H240276   3.667   1.804   3.884
13445TIP3   OH240277   6.290   2.084   2.079
13445TIP3    H140278   6.325   2.001   2.046
13445TIP3    H240279   6.201   2.062   2.108
13446TIP3   OH240280   2.579   3.379   1.980
13446TIP3    H140281   2.554   3.470   1.995
13446TIP3    H240282   2.537   3.356   1.896
13447TIP3   OH240283   5.950   0.571   0.314
13447TIP3    H140284   5.922   0.571   0.223
13447TIP3    H240285   5.965   0.478   0.334
13448TIP3   OH240286   6.452   1.973   6.284
13448TIP3    H140287   6.528   1.954   6.228
13448TIP3    H240288   6.394   2.024   6.228
13449TIP3   OH240289   3.855   5.589   0.831
13449TIP3    H140290   3.860   5.557   0.921
13449TIP3    H240291   3.842   5.684   0.840
13450TIP3   OH240292   0.394   6.835   1.522
13450TIP3    H140293   0.470   6.781   1.500
13450TIP3    H240294   0.319   6.782   1.494
13451TIP3   OH240295   3.075   7.471   0.841
13451TIP3    H140296   3.001   7.482   0.901
13451TIP3    H240297   3.086   7.376   0.835
13452TIP3   OH240298   2.947   5.407   1.531
13452TIP3    H140299   2.929   5.351   1.606
13452TIP3    H240300   3.042   5.417   1.531
13453TIP3   OH240301   4.934   5.408   6.519
13453TIP3    H140302   5.029   5.418   6.525
13453TIP3    H240303   4.899   5.495   6.537
13454TIP3   OH240304   4.441   0.091   2.859
13454TIP3    H140305   4.372   0.055   2.914
13454TIP3    H240306   4.499   0.017   2.841
13455TIP3   OH240307   1.620   6.919   1.570
13455TIP3    H140308   1.698   6.867   1.589
13455TIP3    H240309   1.625   6.935   1.475
13456TIP3   OH240310   6.550   6.904   2.117
13456TIP3    H140311   6.556   6.993   2.085
13456TIP3    H240312   6.638   6.883   2.149
13457TIP3   OH240313   7.184   7.142   4.939
13457TIP3    H140314   7.176   7.198   4.862
13457TIP3    H240315   7.174   7.202   5.013
13458TIP3   OH240316   3.257   2.040   2.504
13458TIP3    H140317   3.347   2.009   2.514
13458TIP3    H240318   3.264   2.135   2.515
13459TIP3   OH240319   3.039   2.479   5.696
13459TIP3    H140320   3.102   2.542   5.732
13459TIP3    H240321   3.017   2.422   5.769
13460TIP3   OH240322   0.150   7.050   3.336
13460TIP3    H140323   0.199   6.968   3.332
13460TIP3    H240324   0.132   7.063   3.429
13461TIP3   OH240325   5.428   7.046   1.011
13461TIP3    H140326   5.339   7.015   1.029
13461TIP3    H240327   5.485   6.974   1.041
13462TIP3   OH240328   5.528   3.733   0.736
13462TIP3    H140329   5.473   3.659   0.710
13462TIP3    H240330   5.515   3.799   0.668
13463TIP3   OH240331   5.224   1.336   3.054
13463TIP3    H140332   5.209   1.323   2.960
13463TIP3    H240333   5.239   1.247   3.087
13464TIP3   OH240334   5.311   4.826   5.559
13464TIP3    H140335   5.238   4.800   5.502
13464TIP3    H240336   5.339   4.745   5.601
13465TIP3   OH240337   3.750   0.744   4.784
13465TIP3    H140338   3.825   0.796   4.754
13465TIP3    H240339   3.733   0.683   4.712
13466TIP3   OH240340   6.416   6.842   1.675
13466TIP3    H140341   6.427   6.926   1.631
13466TIP3    H240342   6.469   6.780   1.624
13467TIP3   OH240343   5.652   2.258   5.039
13467TIP3    H140344   5.687   2.191   5.099
13467TIP3    H240345   5.665   2.341   5.086
13468TIP3   OH240346   7.221   4.868   4.733
13468TIP3    H140347   7.268   4.791   4.765
13468TIP3    H240348   7.288   4.937   4.732
13469TIP3   OH240349   8.125   7.678   6.635
13469TIP3    H140350   8.115   7.708   6.725
13469TIP3    H240351   8.170   7.750   6.591
13470TIP3   OH240352   0.102   0.911   1.628
13470TIP3    H140353   0.142   0.854   1.694
13470TIP3    H240354   0.017   0.872   1.612
13471TIP3   OH240355   5.359   0.668   3.688
13471TIP3    H140356   5.349   0.705   3.776
13471TIP3    H240357   5.419   0.727   3.643
13472TIP3   OH240358   3.652   3.864   2.881
13472TIP3    H140359   3.674   3.957   2.880
13472TIP3    H240360   3.637   3.843   2.973
13473TIP3   OH240361   2.300   4.979   5.820
13473TIP3    H140362   2.231   4.951   5.761
13473TIP3    H240363   2.256   4.989   5.905
13474TIP3   OH240364   1.486   5.525   3.570
13474TIP3    H140365   1.454   5.457   3.629
13474TIP3    H240366   1.437   5.511   3.489
13475TIP3   OH240367   2.442   4.415   3.943
13475TIP3    H140368   2.436   4.357   4.020
13475TIP3    H240369   2.401   4.365   3.873
13476TIP3   OH240370   7.384   4.332   2.972
13476TIP3    H140371   7.451   4.320   2.905
13476TIP3    H240372   7.313   4.274   2.944
13477TIP3   OH240373   4.254   3.917   0.747
13477TIP3    H140374   4.342   3.953   0.748
13477TIP3    H240375   4.217   3.948   0.664
13478TIP3   OH240376   8.074   5.170   6.315
13478TIP3    H140377   8.056   5.084   6.277
13478TIP3    H240378   8.054   5.232   6.244
13479TIP3   OH240379   3.041   5.572   5.789
13479TIP3    H140380   2.981   5.560   5.715
13479TIP3    H240381   3.124   5.534   5.760
13480TIP3   OH240382   1.540   4.968   1.918
13480TIP3    H140383   1.585   4.888   1.946
13480TIP3    H240384   1.447   4.947   1.925
13481TIP3   OH240385   6.742   4.021   1.396
13481TIP3    H140386   6.783   4.051   1.478
13481TIP3    H240387   6.745   4.098   1.339
13482TIP3   OH240388   6.912   4.467   0.322
13482TIP3    H140389   6.869   4.402   0.377
13482TIP3    H240390   6.895   4.438   0.233
13483TIP3   OH240391   7.038   7.206   1.817
13483TIP3    H140392   6.982   7.129   1.808
13483TIP3    H240393   7.073   7.201   1.905
13484TIP3   OH240394   1.175   2.882   2.050
13484TIP3    H140395   1.192   2.852   1.961
13484TIP3    H240396   1.226   2.823   2.105
13485TIP3   OH240397   3.821   5.064   4.892
13485TIP3    H140398   3.826   5.078   4.986
13485TIP3    H240399   3.734   5.027   4.877
13486TIP3   OH240400   3.736   0.415   4.967
13486TIP3    H140401   3.778   0.447   5.047
13486TIP3    H240402   3.669   0.353   4.997
13487TIP3   OH240403   7.731   7.025   0.678
13487TIP3    H140404   7.640   7.057   0.681
13487TIP3    H240405   7.724   6.937   0.643
13488TIP3   OH240406   7.365   2.554   1.514
13488TIP3    H140407   7.335   2.465   1.494
13488TIP3    H240408   7.460   2.550   1.508
13489TIP3   OH240409   5.280   4.756   4.349
13489TIP3    H140410   5.260   4.663   4.352
13489TIP3    H240411   5.317   4.776   4.435
13490TIP3   OH240412   3.259   4.710   3.213
13490TIP3    H140413   3.349   4.743   3.215
13490TIP3    H240414   3.267   4.622   3.176
13491TIP3   OH240415   8.070   5.356   1.246
13491TIP3    H140416   8.008   5.304   1.195
13491TIP3    H240417   8.071   5.314   1.332
13492TIP3   OH240418   6.284   2.753   4.528
13492TIP3    H140419   6.300   2.684   4.593
13492TIP3    H240420   6.314   2.833   4.571
13493TIP3   OH240421   4.240   7.128   0.734
13493TIP3    H140422   4.245   7.210   0.685
13493TIP3    H240423   4.152   7.128   0.772
13494TIP3   OH240424   7.720   4.472   4.843
13494TIP3    H140425   7.727   4.562   4.872
13494TIP3    H240426   7.797   4.428   4.880
13495TIP3   OH240427   7.775   2.164   4.935
13495TIP3    H140428   7.720   2.095   4.972
13495TIP3    H240429   7.746   2.171   4.843
13496TIP3   OH240430   7.009   6.358   5.892
13496TIP3    H140431   6.924   6.363   5.934
13496TIP3    H240432   6.994   6.303   5.814
13497TIP3   OH240433   8.234   3.991   1.813
13497TIP3    H140434   8.188   4.016   1.893
13497TIP3    H240435   8.268   3.904   1.831
13498TIP3   OH240436   7.038   3.211   3.565
13498TIP3    H140437   7.105   3.182   3.627
13498TIP3    H240438   7.084   3.218   3.481
13499TIP3   OH240439   2.478   5.535   2.272
13499TIP3    H140440   2.414   5.525   2.202
13499TIP3    H240441   2.466   5.458   2.327
13500TIP3   OH240442   5.735   4.290   5.131
13500TIP3    H140443   5.784   4.326   5.205
13500TIP3    H240444   5.785   4.213   5.104
13501TIP3   OH240445   3.389   4.112   4.428
13501TIP3    H140446   3.414   4.176   4.495
13501TIP3    H240447   3.333   4.049   4.474
13502TIP3   OH240448   3.381   5.709   4.064
13502TIP3    H140449   3.447   5.770   4.097
13502TIP3    H240450   3.422   5.623   4.071
13503TIP3   OH240451   6.535   6.627   2.440
13503TIP3    H140452   6.532   6.638   2.345
13503TIP3    H240453   6.566   6.538   2.454
13504TIP3   OH240454   6.548   7.762   5.502
13504TIP3    H140455   6.612   7.805   5.558
13504TIP3    H240456   6.480   7.828   5.488
13505TIP3   OH240457   1.313   3.945   2.487
13505TIP3    H140458   1.348   3.968   2.573
13505TIP3    H240459   1.260   3.867   2.501
13506TIP3   OH240460   5.789   2.248   1.109
13506TIP3    H140461   5.703   2.251   1.069
13506TIP3    H240462   5.789   2.322   1.171
13507TIP3   OH240463   7.761   4.988   4.241
13507TIP3    H140464   7.765   4.909   4.187
13507TIP3    H240465   7.847   4.992   4.284
13508TIP3   OH240466   0.886   3.512   3.461
13508TIP3    H140467   0.874   3.484   3.551
13508TIP3    H240468   0.976   3.545   3.458
13509TIP3   OH240469   1.153   0.478   3.145
13509TIP3    H140470   1.073   0.426   3.139
13509TIP3    H240471   1.164   0.514   3.058
13510TIP3   OH240472   4.792   5.096   1.131
13510TIP3    H140473   4.759   5.172   1.179
13510TIP3    H240474   4.724   5.028   1.144
13511TIP3   OH240475   5.805   0.298   6.141
13511TIP3    H140476   5.793   0.357   6.215
13511TIP3    H240477   5.811   0.356   6.064
13512TIP3   OH240478   2.156   4.725   5.655
13512TIP3    H140479   2.089   4.763   5.598
13512TIP3    H240480   2.210   4.673   5.596
13513TIP3   OH240481   2.780   1.778   4.024
13513TIP3    H140482   2.742   1.743   4.105
13513TIP3    H240483   2.739   1.864   4.014
13514TIP3   OH240484   8.146   7.821   2.700
13514TIP3    H140485   8.112   7.769   2.628
13514TIP3    H240486   8.146   7.761   2.775
13515TIP3   OH240487   3.694   6.205   5.431
13515TIP3    H140488   3.706   6.127   5.377
13515TIP3    H240489   3.605   6.198   5.463
13516TIP3   OH240490   1.994   1.958   1.359
13516TIP3    H140491   1.937   2.020   1.405
13516TIP3    H240492   1.957   1.953   1.271
13517TIP3   OH240493   6.688   3.461   3.237
13517TIP3    H140494   6.616   3.506   3.280
13517TIP3    H240495   6.745   3.433   3.309
13518TIP3   OH240496   5.800   5.314   1.076
13518TIP3    H140497   5.850   5.247   1.029
13518TIP3    H240498   5.859   5.389   1.079
13519TIP3   OH240499   2.744   2.129   5.536
13519TIP3    H140500   2.741   2.218   5.503
13519TIP3    H240501   2.835   2.117   5.562
13520TIP3   OH240502   7.194   0.174   0.542
13520TIP3    H140503   7.283   0.195   0.513
13520TIP3    H240504   7.185   0.080   0.526
13521TIP3   OH240505   0.483   4.316   0.770
13521TIP3    H140506   0.564   4.297   0.724
13521TIP3    H240507   0.505   4.384   0.833
13522TIP3   OH240508   4.071   1.757   6.394
13522TIP3    H140509   4.095   1.665   6.389
13522TIP3    H240510   4.078   1.789   6.304
13523TIP3   OH240511   5.996   7.129   4.769
13523TIP3    H140512   5.968   7.045   4.735
13523TIP3    H240513   6.079   7.111   4.813
13524TIP3   OH240514   6.012   6.729   3.764
13524TIP3    H140515   6.078   6.720   3.833
13524TIP3    H240516   5.931   6.698   3.805
13525TIP3   OH240517   2.042   1.582   2.450
13525TIP3    H140518   2.088   1.611   2.529
13525TIP3    H240519   2.101   1.519   2.409
13526TIP3   OH240520   5.156   2.960   2.273
13526TIP3    H140521   5.142   2.933   2.183
13526TIP3    H240522   5.251   2.966   2.282
13527TIP3   OH240523   2.958   0.962   5.293
13527TIP3    H140524   2.903   1.017   5.237
13527TIP3    H240525   2.967   0.880   5.245
13528TIP3   OH240526   6.604   6.316   5.961
13528TIP3    H140527   6.679   6.264   5.988
13528TIP3    H240528   6.597   6.301   5.867
13529TIP3   OH240529   8.055   0.311   0.791
13529TIP3    H140530   8.100   0.234   0.756
13529TIP3    H240531   8.092   0.323   0.878
13530TIP3   OH240532   7.008   6.253   4.757
13530TIP3    H140533   7.033   6.293   4.841
13530TIP3    H240534   7.068   6.291   4.693
13531TIP3   OH240535   4.823   6.044   5.415
13531TIP3    H140536   4.786   6.042   5.504
13531TIP3    H240537   4.770   6.108   5.368
13532TIP3   OH240538   7.749   0.264   4.531
13532TIP3    H140539   7.710   0.262   4.444
13532TIP3    H240540   7.837   0.302   4.518
13533TIP3   OH240541   7.914   5.323   2.335
13533TIP3    H140542   7.872   5.294   2.254
13533TIP3    H240543   7.970   5.249   2.361
13534TIP3   OH240544   4.113   7.282   3.220
13534TIP3    H140545   4.151   7.195   3.204
13534TIP3    H240546   4.019   7.266   3.226
13535TIP3   OH240547   7.674   7.507   4.178
13535TIP3    H140548   7.665   7.413   4.195
13535TIP3    H240549   7.638   7.549   4.255
13536TIP3   OH240550   1.170   1.534   0.906
13536TIP3    H140551   1.232   1.463   0.890
13536TIP3    H240552   1.146   1.565   0.819
13537TIP3   OH240553   6.181   5.680   4.873
13537TIP3    H140554   6.225   5.671   4.789
13537TIP3    H240555   6.119   5.607   4.876
13538TIP3   OH240556   3.842   6.172   5.047
13538TIP3    H140557   3.817   6.115   4.975
13538TIP3    H240558   3.900   6.118   5.101
13539TIP3   OH240559   1.832   3.239   3.892
13539TIP3    H140560   1.845   3.273   3.980
13539TIP3    H240561   1.747   3.274   3.864
13540TIP3   OH240562   1.659   7.624   3.844
13540TIP3    H140563   1.605   7.546   3.848
13540TIP3    H240564   1.714   7.611   3.767
13541TIP3   OH240565   2.297   3.325   2.647
13541TIP3    H140566   2.331   3.399   2.598
13541TIP3    H240567   2.228   3.289   2.591
13542TIP3   OH240568   1.947   7.442   1.236
13542TIP3    H140569   2.042   7.436   1.249
13542TIP3    H240570   1.917   7.500   1.305
13543TIP3   OH240571   2.297   1.519   6.147
13543TIP3    H140572   2.303   1.493   6.055
13543TIP3    H240573   2.297   1.615   6.144
13544TIP3   OH240574   6.317   0.688   0.089
13544TIP3    H140575   6.288   0.597   0.084
13544TIP3    H240576   6.237   0.739   0.074
13545TIP3   OH240577   0.328   1.111   5.351
13545TIP3    H140578   0.399   1.050   5.368
13545TIP3    H240579   0.277   1.070   5.281
13546TIP3   OH240580   3.439   7.680   1.999
13546TIP3    H140581   3.472   7.590   1.996
13546TIP3    H240582   3.469   7.718   1.916
13547TIP3   OH240583   4.723   2.993   0.101
13547TIP3    H140584   4.706   3.009   0.194
13547TIP3    H240585   4.646   3.027   0.057
13548TIP3   OH240586   0.701   3.313   5.931
13548TIP3    H140587   0.614   3.296   5.966
13548TIP3    H240588   0.686   3.361   5.850
13549TIP3   OH240589   4.181   1.734   3.712
13549TIP3    H140590   4.096   1.706   3.747
13549TIP3    H240591   4.183   1.699   3.623
13550TIP3   OH240592   3.966   3.263   4.530
13550TIP3    H140593   3.887   3.212   4.548
13550TIP3    H240594   4.019   3.205   4.476
13551TIP3   OH240595   3.566   3.559   2.538
13551TIP3    H140596   3.645   3.582   2.587
13551TIP3    H240597   3.598   3.509   2.463
13552TIP3   OH240598   3.005   2.257   6.198
13552TIP3    H140599   2.936   2.234   6.260
13552TIP3    H240600   3.086   2.242   6.246
13553TIP3   OH240601   6.717   1.789   4.194
13553TIP3    H140602   6.729   1.743   4.277
13553TIP3    H240603   6.725   1.882   4.217
13554TIP3   OH240604   5.961   5.349   3.157
13554TIP3    H140605   5.955   5.381   3.067
13554TIP3    H240606   5.925   5.420   3.210
13555TIP3   OH240607   1.568   5.656   0.925
13555TIP3    H140608   1.644   5.619   0.879
13555TIP3    H240609   1.498   5.593   0.910
13556TIP3   OH240610   2.870   3.208   0.382
13556TIP3    H140611   2.851   3.121   0.347
13556TIP3    H240612   2.902   3.192   0.471
13557TIP3   OH240613   0.476   0.645   6.166
13557TIP3    H140614   0.512   0.718   6.114
13557TIP3    H240615   0.527   0.646   6.247
13558TIP3   OH240616   3.216   7.625   1.660
13558TIP3    H140617   3.303   7.645   1.696
13558TIP3    H240618   3.216   7.666   1.574
13559TIP3   OH240619   6.657   6.186   6.289
13559TIP3    H140620   6.729   6.126   6.266
13559TIP3    H240621   6.582   6.154   6.239
13560TIP3   OH240622   4.440   2.500   4.655
13560TIP3    H140623   4.356   2.526   4.617
13560TIP3    H240624   4.440   2.405   4.650
13561TIP3   OH240625   0.964   5.877   5.623
13561TIP3    H140626   0.952   5.939   5.551
13561TIP3    H240627   0.897   5.900   5.687
13562TIP3   OH240628   4.066   5.835   4.953
13562TIP3    H140629   4.001   5.804   4.891
13562TIP3    H240630   4.027   5.818   5.039
13563TIP3   OH240631   8.157   6.631   4.382
13563TIP3    H140632   8.141   6.658   4.292
13563TIP3    H240633   8.191   6.541   4.375
13564TIP3   OH240634   5.326   3.936   0.936
13564TIP3    H140635   5.414   3.974   0.939
13564TIP3    H240636   5.284   3.980   0.861
13565TIP3   OH240637   1.595   7.785   1.731
13565TIP3    H140638   1.610   7.796   1.637
13565TIP3    H240639   1.501   7.774   1.739
13566TIP3   OH240640   6.871   7.527   6.269
13566TIP3    H140641   6.795   7.538   6.212
13566TIP3    H240642   6.943   7.505   6.211
13567TIP3   OH240643   3.525   5.083   5.557
13567TIP3    H140644   3.586   5.032   5.504
13567TIP3    H240645   3.508   5.029   5.634
13568TIP3   OH240646   0.858   2.539   0.142
13568TIP3    H140647   0.872   2.584   0.059
13568TIP3    H240648   0.856   2.447   0.119
13569TIP3   OH240649   1.574   3.618   6.150
13569TIP3    H140650   1.566   3.560   6.226
13569TIP3    H240651   1.644   3.679   6.173
13570TIP3   OH240652   4.827   3.173   6.643
13570TIP3    H140653   4.793   3.098   6.594
13570TIP3    H240654   4.922   3.171   6.627
13571TIP3   OH240655   3.523   1.326   1.606
13571TIP3    H140656   3.483   1.356   1.525
13571TIP3    H240657   3.489   1.386   1.673
13572TIP3   OH240658   1.101   6.362   6.583
13572TIP3    H140659   1.168   6.365   6.515
13572TIP3    H240660   1.106   6.449   6.624
13573TIP3   OH240661   7.248   4.969   6.443
13573TIP3    H140662   7.257   4.893   6.500
13573TIP3    H240663   7.205   4.936   6.365
13574TIP3   OH240664   4.325   4.200   3.845
13574TIP3    H140665   4.366   4.200   3.932
13574TIP3    H240666   4.316   4.292   3.823
13575TIP3   OH240667   3.370   7.412   0.360
13575TIP3    H140668   3.343   7.347   0.294
13575TIP3    H240669   3.328   7.382   0.441
13576TIP3   OH240670   3.958   5.101   0.625
13576TIP3    H140671   3.953   5.153   0.706
13576TIP3    H240672   3.956   5.010   0.656
13577TIP3   OH240673   4.601   2.289   2.909
13577TIP3    H140674   4.671   2.295   2.975
13577TIP3    H240675   4.645   2.308   2.826
13578TIP3   OH240676   3.042   6.689   6.695
13578TIP3    H140677   3.076   6.736   6.771
13578TIP3    H240678   3.116   6.685   6.634
13579TIP3   OH240679   1.632   1.682   5.201
13579TIP3    H140680   1.582   1.664   5.281
13579TIP3    H240681   1.614   1.607   5.145
13580TIP3   OH240682   4.300   5.505   5.605
13580TIP3    H140683   4.315   5.569   5.535
13580TIP3    H240684   4.218   5.463   5.582
13581TIP3   OH240685   3.972   7.387   4.618
13581TIP3    H140686   4.059   7.378   4.580
13581TIP3    H240687   3.949   7.299   4.646
13582TIP3   OH240688   4.536   3.869   1.463
13582TIP3    H140689   4.615   3.824   1.434
13582TIP3    H240690   4.497   3.810   1.527
13583TIP3   OH240691   1.067   6.245   2.863
13583TIP3    H140692   1.105   6.303   2.930
13583TIP3    H240693   0.984   6.216   2.901
13584TIP3   OH240694   1.826   2.551   2.593
13584TIP3    H140695   1.777   2.565   2.512
13584TIP3    H240696   1.765   2.506   2.651
13585TIP3   OH240697   7.508   6.358   0.538
13585TIP3    H140698   7.458   6.425   0.583
13585TIP3    H240699   7.581   6.405   0.497
13586TIP3   OH240700   5.022   2.203   4.237
13586TIP3    H140701   4.986   2.209   4.326
13586TIP3    H240702   4.982   2.125   4.200
13587TIP3   OH240703   3.743   4.480   4.992
13587TIP3    H140704   3.838   4.493   4.987
13587TIP3    H240705   3.713   4.493   4.902
13588TIP3   OH240706   4.837   5.351   4.802
13588TIP3    H140707   4.837   5.266   4.758
13588TIP3    H240708   4.897   5.340   4.876
13589TIP3   OH240709   3.029   4.077   5.518
13589TIP3    H140710   2.940   4.099   5.493
13589TIP3    H240711   3.074   4.059   5.435
13590TIP3   OH240712   6.024   7.087   0.284
13590TIP3    H140713   6.117   7.071   0.268
13590TIP3    H240714   6.004   7.165   0.232
13591TIP3   OH240715   1.896   1.343   3.642
13591TIP3    H140716   1.968   1.281   3.656
13591TIP3    H240717   1.817   1.292   3.660
13592TIP3   OH240718   2.618   5.420   4.049
13592TIP3    H140719   2.596   5.413   3.956
13592TIP3    H240720   2.571   5.348   4.091
13593TIP3   OH240721   4.494   6.174   2.704
13593TIP3    H140722   4.482   6.173   2.609
13593TIP3    H240723   4.492   6.267   2.727
13594TIP3   OH240724   1.072   4.310   3.269
13594TIP3    H140725   1.046   4.327   3.359
13594TIP3    H240726   1.063   4.215   3.259
13595TIP3   OH240727   6.945   4.287   5.934
13595TIP3    H140728   6.901   4.332   6.006
13595TIP3    H240729   6.973   4.357   5.876
13596TIP3   OH240730   7.447   2.666   0.452
13596TIP3    H140731   7.466   2.677   0.545
13596TIP3    H240732   7.427   2.755   0.421
13597TIP3   OH240733   7.379   5.428   5.859
13597TIP3    H140734   7.393   5.436   5.953
13597TIP3    H240735   7.446   5.366   5.830
13598TIP3   OH240736   4.920   4.865   6.056
13598TIP3    H140737   5.005   4.822   6.069
13598TIP3    H240738   4.879   4.816   5.984
13599TIP3   OH240739   7.545   1.442   0.867
13599TIP3    H140740   7.460   1.434   0.911
13599TIP3    H240741   7.559   1.537   0.859
13600TIP3   OH240742   2.437   3.783   6.007
13600TIP3    H140743   2.472   3.716   5.948
13600TIP3    H240744   2.483   3.768   6.090
13601TIP3   OH240745   1.948   6.148   0.265
13601TIP3    H140746   1.987   6.207   0.201
13601TIP3    H240747   1.874   6.107   0.220
13602TIP3   OH240748   6.999   5.106   1.880
13602TIP3    H140749   7.045   5.027   1.907
13602TIP3    H240750   6.970   5.147   1.961
13603TIP3   OH240751   4.501   7.032   1.122
13603TIP3    H140752   4.500   6.956   1.180
13603TIP3    H240753   4.537   7.103   1.176
13604TIP3   OH240754   0.992   2.467   5.995
13604TIP3    H140755   1.024   2.427   6.076
13604TIP3    H240756   1.036   2.552   5.991
13605TIP3   OH240757   5.951   5.856   0.038
13605TIP3    H140758   6.019   5.833   0.101
13605TIP3    H240759   5.932   5.774  -0.007
13606TIP3   OH240760   1.334   2.712   6.632
13606TIP3    H140761   1.417   2.747   6.664
13606TIP3    H240762   1.335   2.620   6.658
13607TIP3   OH240763   1.243   4.732   5.017
13607TIP3    H140764   1.317   4.782   4.983
13607TIP3    H240765   1.219   4.673   4.946
13608TIP3   OH240766   1.993   1.442   1.270
13608TIP3    H140767   1.910   1.437   1.224
13608TIP3    H240768   1.973   1.489   1.351
13609TIP3   OH240769   0.277   4.084   4.592
13609TIP3    H140770   0.220   4.011   4.567
13609TIP3    H240771   0.232   4.126   4.665
13610TIP3   OH240772   5.256   7.748   2.507
13610TIP3    H140773   5.286   7.657   2.502
13610TIP3    H240774   5.211   7.763   2.424
13611TIP3   OH240775   6.798   1.947   0.116
13611TIP3    H140776   6.726   2.007   0.096
13611TIP3    H240777   6.875   1.989   0.079
13612TIP3   OH240778   0.172   2.390   5.915
13612TIP3    H140779   0.163   2.301   5.881
13612TIP3    H240780   0.238   2.431   5.859
13613TIP3   OH240781   5.827   2.401   1.342
13613TIP3    H140782   5.782   2.484   1.362
13613TIP3    H240783   5.777   2.335   1.389
13614TIP3   OH240784   6.816   6.896   2.256
13614TIP3    H140785   6.813   6.905   2.351
13614TIP3    H240786   6.907   6.870   2.237
13615TIP3   OH240787   3.392   6.729   2.975
13615TIP3    H140788   3.363   6.659   2.918
13615TIP3    H240789   3.343   6.716   3.056
13616TIP3   OH240790   3.235   3.390   5.950
13616TIP3    H140791   3.149   3.409   5.911
13616TIP3    H240792   3.290   3.366   5.875
13617TIP3   OH240793   2.860   7.593   5.259
13617TIP3    H140794   2.784   7.554   5.302
13617TIP3    H240795   2.923   7.521   5.252
13618TIP3   OH240796   2.145   4.642   0.430
13618TIP3    H140797   2.144   4.563   0.377
13618TIP3    H240798   2.054   4.672   0.430
13619TIP3   OH240799   6.611   2.692   6.281
13619TIP3    H140800   6.635   2.606   6.314
13619TIP3    H240801   6.624   2.751   6.355
13620TIP3   OH240802   2.098   1.084   1.365
13620TIP3    H140803   2.009   1.050   1.350
13620TIP3    H240804   2.141   1.016   1.415
13621TIP3   OH240805   7.561   4.567   4.253
13621TIP3    H140806   7.517   4.547   4.171
13621TIP3    H240807   7.506   4.634   4.294
13622TIP3   OH240808   3.109   4.587   6.028
13622TIP3    H140809   3.116   4.649   6.100
13622TIP3    H240810   3.015   4.574   6.016
13623TIP3   OH240811   1.629   2.155   3.025
13623TIP3    H140812   1.669   2.078   3.065
13623TIP3    H240813   1.632   2.138   2.931
13624TIP3   OH240814   3.984   3.632   4.562
13624TIP3    H140815   4.001   3.626   4.655
13624TIP3    H240816   3.989   3.726   4.542
13625TIP3   OH240817   2.852   6.467   5.130
13625TIP3    H140818   2.791   6.471   5.204
13625TIP3    H240819   2.827   6.387   5.083
13626TIP3   OH240820   3.281   6.752   1.903
13626TIP3    H140821   3.316   6.840   1.889
13626TIP3    H240822   3.342   6.695   1.857
13627TIP3   OH240823   4.352   6.650   3.559
13627TIP3    H140824   4.428   6.674   3.506
13627TIP3    H240825   4.360   6.555   3.570
13628TIP3   OH240826   4.906   4.728   5.617
13628TIP3    H140827   4.925   4.748   5.708
13628TIP3    H240828   4.824   4.677   5.620
13629TIP3   OH240829   6.567   7.118   3.171
13629TIP3    H140830   6.535   7.109   3.260
13629TIP3    H240831   6.495   7.086   3.116
13630TIP3   OH240832   3.868   2.013   5.949
13630TIP3    H140833   3.830   1.931   5.917
13630TIP3    H240834   3.797   2.077   5.944
13631TIP3   OH240835   4.421   2.301   4.384
13631TIP3    H140836   4.345   2.292   4.441
13631TIP3    H240837   4.418   2.224   4.327
13632TIP3   OH240838   5.816   1.125   5.061
13632TIP3    H140839   5.807   1.210   5.017
13632TIP3    H240840   5.775   1.138   5.146
13633TIP3   OH240841   1.997   0.975   1.657
13633TIP3    H140842   1.952   0.904   1.610
13633TIP3    H240843   1.968   0.965   1.748
13634TIP3   OH240844   6.822   7.072   4.489
13634TIP3    H140845   6.830   7.152   4.437
13634TIP3    H240846   6.740   7.032   4.460
13635TIP3   OH240847   1.097   3.885   3.370
13635TIP3    H140848   1.006   3.901   3.395
13635TIP3    H240849   1.111   3.942   3.295
13636TIP3   OH240850   5.568   4.164   2.150
13636TIP3    H140851   5.475   4.143   2.141
13636TIP3    H240852   5.573   4.214   2.232
13637TIP3   OH240853   6.710   2.212   1.103
13637TIP3    H140854   6.795   2.169   1.113
13637TIP3    H240855   6.656   2.172   1.171
13638TIP3   OH240856   3.819   1.160   4.601
13638TIP3    H140857   3.854   1.101   4.667
13638TIP3    H240858   3.779   1.232   4.650
13639TIP3   OH240859   7.411   6.251   4.951
13639TIP3    H140860   7.426   6.321   4.888
13639TIP3    H240861   7.455   6.280   5.031
13640TIP3   OH240862   2.211   1.725   3.102
13640TIP3    H140863   2.268   1.706   3.027
13640TIP3    H240864   2.136   1.666   3.090
13641TIP3   OH240865   2.479   4.252   4.170
13641TIP3    H140866   2.554   4.299   4.206
13641TIP3    H240867   2.503   4.160   4.176
13642TIP3   OH240868   0.794   0.822   0.880
13642TIP3    H140869   0.849   0.751   0.913
13642TIP3    H240870   0.769   0.871   0.958
13643TIP3   OH240871   2.572   3.689   2.874
13643TIP3    H140872   2.500   3.726   2.822
13643TIP3    H240873   2.608   3.620   2.818
13644TIP3   OH240874   3.651   0.114   0.737
13644TIP3    H140875   3.600   0.186   0.773
13644TIP3    H240876   3.600   0.083   0.663
13645TIP3   OH240877   6.523   6.378   4.831
13645TIP3    H140878   6.565   6.389   4.916
13645TIP3    H240879   6.595   6.360   4.771
13646TIP3   OH240880   4.633   5.698   5.600
13646TIP3    H140881   4.571   5.627   5.614
13646TIP3    H240882   4.592   5.754   5.534
13647TIP3   OH240883   2.516   3.577   5.801
13647TIP3    H140884   2.607   3.554   5.821
13647TIP3    H240885   2.521   3.626   5.719
13648TIP3   OH240886   6.030   1.828   6.266
13648TIP3    H140887   5.942   1.789   6.277
13648TIP3    H240888   6.021   1.884   6.189
13649TIP3   OH240889   6.632   0.018   0.770
13649TIP3    H140890   6.631   0.071   0.849
13649TIP3    H240891   6.551   0.040   0.724
13650TIP3   OH240892   3.972   6.902   1.764
13650TIP3    H140893   4.016   6.941   1.688
13650TIP3    H240894   3.994   6.809   1.759
13651TIP3   OH240895   5.159   4.194   4.632
13651TIP3    H140896   5.223   4.219   4.566
13651TIP3    H240897   5.210   4.184   4.713
13652TIP3   OH240898   4.171   0.176   0.328
13652TIP3    H140899   4.215   0.221   0.400
13652TIP3    H240900   4.086   0.152   0.363
13653TIP3   OH240901   7.192   3.914   6.589
13653TIP3    H140902   7.283   3.888   6.572
13653TIP3    H240903   7.160   3.946   6.505
13654TIP3   OH240904   7.504   6.564   2.215
13654TIP3    H140905   7.586   6.515   2.211
13654TIP3    H240906   7.447   6.522   2.151
13655TIP3   OH240907   6.640   2.811   1.721
13655TIP3    H140908   6.678   2.855   1.797
13655TIP3    H240909   6.596   2.881   1.673
13656TIP3   OH240910   8.312   7.458   3.098
13656TIP3    H140911   8.349   7.405   3.168
13656TIP3    H240912   8.224   7.423   3.085
13657TIP3   OH240913   5.317   6.672   0.281
13657TIP3    H140914   5.315   6.589   0.233
13657TIP3    H240915   5.339   6.647   0.371
13658TIP3   OH240916   0.933   7.339   0.622
13658TIP3    H140917   0.979   7.418   0.651
13658TIP3    H240918   0.999   7.270   0.625
13659TIP3   OH240919   7.569   6.681   4.013
13659TIP3    H140920   7.487   6.670   4.061
13659TIP3    H240921   7.629   6.718   4.078
13660TIP3   OH240922   7.830   3.068   1.587
13660TIP3    H140923   7.905   3.008   1.589
13660TIP3    H240924   7.811   3.085   1.679
13661TIP3   OH240925   0.957   0.655   1.484
13661TIP3    H140926   0.877   0.703   1.465
13661TIP3    H240927   1.002   0.707   1.550
13662TIP3   OH240928   5.473   0.666   5.044
13662TIP3    H140929   5.517   0.751   5.033
13662TIP3    H240930   5.468   0.631   4.954
13663TIP3   OH240931   5.668   5.213   4.364
13663TIP3    H140932   5.610   5.286   4.342
13663TIP3    H240933   5.751   5.255   4.389
13664TIP3   OH240934   2.167   1.103   1.969
13664TIP3    H140935   2.245   1.107   1.913
13664TIP3    H240936   2.125   1.020   1.946
13665TIP3   OH240937   1.291   3.774   4.860
13665TIP3    H140938   1.356   3.736   4.801
13665TIP3    H240939   1.225   3.706   4.870
13666TIP3   OH240940   1.722   4.675   2.151
13666TIP3    H140941   1.650   4.612   2.147
13666TIP3    H240942   1.735   4.691   2.244
13667TIP3   OH240943   6.439   4.632   0.119
13667TIP3    H140944   6.404   4.558   0.167
13667TIP3    H240945   6.450   4.600   0.029
13668TIP3   OH240946   7.742   2.333   3.295
13668TIP3    H140947   7.661   2.346   3.245
13668TIP3    H240948   7.812   2.359   3.235
13669TIP3   OH240949   0.603   6.245   5.279
13669TIP3    H140950   0.557   6.181   5.334
13669TIP3    H240951   0.646   6.304   5.341
13670TIP3   OH240952   6.884   0.526   0.602
13670TIP3    H140953   6.848   0.479   0.677
13670TIP3    H240954   6.971   0.555   0.631
13671TIP3   OH240955   2.291   5.688   3.929
13671TIP3    H140956   2.386   5.698   3.934
13671TIP3    H240957   2.277   5.593   3.927
13672TIP3   OH240958   2.007   4.547   2.086
13672TIP3    H140959   1.983   4.545   2.179
13672TIP3    H240960   1.923   4.554   2.040
13673TIP3   OH240961   8.142   7.428   3.560
13673TIP3    H140962   8.095   7.478   3.494
13673TIP3    H240963   8.157   7.490   3.631
13674TIP3   OH240964   0.110   3.453   2.101
13674TIP3    H140965   0.100   3.379   2.160
13674TIP3    H240966   0.047   3.436   2.030
13675TIP3   OH240967   0.589   6.373   1.162
13675TIP3    H140968   0.661   6.381   1.225
13675TIP3    H240969   0.603   6.444   1.100
13676TIP3   OH240970   5.141   0.173   0.761
13676TIP3    H140971   5.077   0.243   0.746
13676TIP3    H240972   5.099   0.114   0.823
13677TIP3   OH240973   5.920   1.957   1.953
13677TIP3    H140974   5.908   1.865   1.977
13677TIP3    H240975   5.973   1.955   1.874
13678TIP3   OH240976   0.779   4.628   6.574
13678TIP3    H140977   0.697   4.583   6.554
13678TIP3    H240978   0.789   4.620   6.669
13679TIP3   OH240979   4.758   6.679   6.063
13679TIP3    H140980   4.721   6.758   6.024
13679TIP3    H240981   4.685   6.640   6.112
13680TIP3   OH240982   1.229   4.330   5.413
13680TIP3    H140983   1.238   4.425   5.409
13680TIP3    H240984   1.239   4.308   5.506
13681TIP3   OH240985   8.075   3.308   6.188
13681TIP3    H140986   8.165   3.303   6.157
13681TIP3    H240987   8.081   3.295   6.283
13682TIP3   OH240988   4.432   7.604   5.981
13682TIP3    H140989   4.401   7.637   6.066
13682TIP3    H240990   4.489   7.531   6.004
13683TIP3   OH240991   3.844   6.857   5.025
13683TIP3    H140992   3.839   6.920   5.097
13683TIP3    H240993   3.775   6.793   5.046
13684TIP3   OH240994   6.829   0.396   2.531
13684TIP3    H140995   6.914   0.439   2.531
13684TIP3    H240996   6.849   0.304   2.550
13685TIP3   OH240997   2.831   2.819   0.957
13685TIP3    H140998   2.921   2.815   0.989
13685TIP3    H240999   2.830   2.763   0.880
13686TIP3   OH241000   2.824   3.415   3.382
13686TIP3    H141001   2.734   3.387   3.401
13686TIP3    H241002   2.878   3.338   3.400
13687TIP3   OH241003   4.978   4.826   4.901
13687TIP3    H141004   4.926   4.882   4.959
13687TIP3    H241005   5.055   4.802   4.953
13688TIP3   OH241006  -0.020   7.032   2.144
13688TIP3    H141007   0.033   7.007   2.220
13688TIP3    H241008  -0.104   7.060   2.182
13689TIP3   OH241009   0.587   1.139   4.063
13689TIP3    H141010   0.554   1.063   4.016
13689TIP3    H241011   0.680   1.122   4.076
13690TIP3   OH241012   7.092   2.118   3.632
13690TIP3    H141013   7.140   2.124   3.549
13690TIP3    H241014   7.161   2.113   3.698
13691TIP3   OH241015   4.087   1.611   4.044
13691TIP3    H141016   4.015   1.616   3.980
13691TIP3    H241017   4.074   1.688   4.100
13692TIP3   OH241018   6.062   1.341   4.581
13692TIP3    H141019   6.065   1.276   4.511
13692TIP3    H241020   6.088   1.423   4.540
13693TIP3   OH241021   4.888   4.074   4.275
13693TIP3    H141022   4.906   4.059   4.368
13693TIP3    H241023   4.893   3.987   4.235
13694TIP3   OH241024   4.405   7.423   5.185
13694TIP3    H141025   4.315   7.444   5.161
13694TIP3    H241026   4.398   7.354   5.250
13695TIP3   OH241027   7.439   6.943   0.645
13695TIP3    H141028   7.394   6.862   0.620
13695TIP3    H241029   7.396   7.011   0.592
13696TIP3   OH241030   0.265   2.508   5.655
13696TIP3    H141031   0.335   2.563   5.618
13696TIP3    H241032   0.188   2.565   5.655
13697TIP3   OH241033   3.768   2.340   0.222
13697TIP3    H141034   3.716   2.289   0.284
13697TIP3    H241035   3.724   2.425   0.218
13698TIP3   OH241036   1.691   3.102   5.458
13698TIP3    H141037   1.732   3.085   5.373
13698TIP3    H241038   1.600   3.125   5.437
13699TIP3   OH241039   8.217   5.516   6.554
13699TIP3    H141040   8.176   5.565   6.625
13699TIP3    H241041   8.179   5.429   6.560
13700TIP3   OH241042   5.160   4.402   5.748
13700TIP3    H141043   5.068   4.380   5.766
13700TIP3    H241044   5.163   4.416   5.653
13701TIP3   OH241045   7.555   5.503   5.255
13701TIP3    H141046   7.559   5.551   5.337
13701TIP3    H241047   7.540   5.570   5.188
13702TIP3   OH241048   0.511   4.572   1.610
13702TIP3    H141049   0.420   4.598   1.625
13702TIP3    H241050   0.524   4.585   1.516
13703TIP3   OH241051   4.673   1.728   1.278
13703TIP3    H141052   4.610   1.659   1.256
13703TIP3    H241053   4.759   1.689   1.261
13704TIP3   OH241054   0.836   1.867   0.490
13704TIP3    H141055   0.748   1.847   0.459
13704TIP3    H241056   0.837   1.962   0.502
13705TIP3   OH241057   2.753   1.264   3.150
13705TIP3    H141058   2.829   1.319   3.170
13705TIP3    H241059   2.731   1.286   3.060
13706TIP3   OH241060   7.793   5.212   2.598
13706TIP3    H141061   7.808   5.119   2.609
13706TIP3    H241062   7.862   5.241   2.538
13707TIP3   OH241063   5.312   5.796   5.388
13707TIP3    H141064   5.238   5.848   5.419
13707TIP3    H241065   5.379   5.860   5.365
13708TIP3   OH241066   7.962   7.004   2.147
13708TIP3    H141067   7.922   7.028   2.231
13708TIP3    H241068   7.941   7.076   2.088
13709TIP3   OH241069   5.413   0.085   0.099
13709TIP3    H141070   5.373   0.073   0.013
13709TIP3    H241071   5.341   0.114   0.155
13710TIP3   OH241072   4.904   4.663   2.253
13710TIP3    H141073   4.995   4.631   2.253
13710TIP3    H241074   4.861   4.611   2.184
13711TIP3   OH241075   1.691   6.169   0.479
13711TIP3    H141076   1.774   6.146   0.519
13711TIP3    H241077   1.647   6.085   0.464
13712TIP3   OH241078   4.605   6.230   3.662
13712TIP3    H141079   4.554   6.283   3.723
13712TIP3    H241080   4.689   6.275   3.653
13713TIP3   OH241081   3.956   6.830   1.162
13713TIP3    H141082   4.051   6.824   1.152
13713TIP3    H241083   3.920   6.794   1.081
13714TIP3   OH241084   6.436   4.762   5.130
13714TIP3    H141085   6.473   4.764   5.218
13714TIP3    H241086   6.423   4.669   5.111
13715TIP3   OH241087   1.048   5.736   6.517
13715TIP3    H141088   1.119   5.681   6.483
13715TIP3    H241089   1.021   5.789   6.443
13716TIP3   OH241090   2.434   7.442   4.055
13716TIP3    H141091   2.472   7.524   4.024
13716TIP3    H241092   2.392   7.404   3.978
13717TIP3   OH241093   8.153   0.651   6.487
13717TIP3    H141094   8.118   0.689   6.568
13717TIP3    H241095   8.090   0.677   6.419
13718TIP3   OH241096   5.141   2.309   2.887
13718TIP3    H141097   5.192   2.354   2.955
13718TIP3    H241098   5.207   2.261   2.836
13719TIP3   OH241099   2.194   0.567   2.383
13719TIP3    H141100   2.119   0.620   2.409
13719TIP3    H241101   2.177   0.542   2.293
13720TIP3   OH241102   1.873   0.649   4.850
13720TIP3    H141103   1.925   0.582   4.805
13720TIP3    H241104   1.894   0.731   4.805
13721TIP3   OH241105   0.611   3.350   6.489
13721TIP3    H141106   0.694   3.311   6.516
13721TIP3    H241107   0.556   3.276   6.464
13722TIP3   OH241108   3.089   6.814   0.346
13722TIP3    H141109   3.166   6.867   0.329
13722TIP3    H241110   3.083   6.755   0.271
13723TIP3   OH241111   4.931   6.812   1.984
13723TIP3    H141112   5.026   6.810   1.980
13723TIP3    H241113   4.906   6.876   1.917
13724TIP3   OH241114   4.464   1.736   2.337
13724TIP3    H141115   4.554   1.761   2.315
13724TIP3    H241116   4.436   1.802   2.400
13725TIP3   OH241117   1.600   0.596   0.747
13725TIP3    H141118   1.614   0.564   0.836
13725TIP3    H241119   1.505   0.602   0.738
13726TIP3   OH241120   1.772   0.827   5.345
13726TIP3    H141121   1.738   0.909   5.381
13726TIP3    H241122   1.724   0.759   5.391
13727TIP3   OH241123   4.632   3.873   3.621
13727TIP3    H141124   4.539   3.858   3.639
13727TIP3    H241125   4.634   3.914   3.534
13728TIP3   OH241126   5.040   1.481   4.947
13728TIP3    H141127   5.085   1.448   5.024
13728TIP3    H241128   5.109   1.493   4.882
13729TIP3   OH241129   5.509   6.703   6.274
13729TIP3    H141130   5.577   6.692   6.340
13729TIP3    H241131   5.550   6.754   6.204
13730TIP3   OH241132   5.157   1.010   1.644
13730TIP3    H141133   5.199   1.044   1.723
13730TIP3    H241134   5.108   0.934   1.674
13731TIP3   OH241135   5.849   5.509   2.948
13731TIP3    H141136   5.810   5.573   3.007
13731TIP3    H241137   5.936   5.544   2.929
13732TIP3   OH241138   2.105   5.954   2.210
13732TIP3    H141139   2.199   5.946   2.224
13732TIP3    H241140   2.084   5.884   2.148
13733TIP3   OH241141   1.504   5.362   1.654
13733TIP3    H141142   1.553   5.316   1.723
13733TIP3    H241143   1.429   5.305   1.637
13734TIP3   OH241144   3.112   3.370   6.550
13734TIP3    H141145   3.084   3.425   6.623
13734TIP3    H241146   3.031   3.327   6.520
13735TIP3   OH241147   2.973   5.679   2.483
13735TIP3    H141148   2.892   5.662   2.436
13735TIP3    H241149   2.947   5.679   2.576
13736TIP3   OH241150   2.501   4.555   3.293
13736TIP3    H141151   2.579   4.503   3.275
13736TIP3    H241152   2.486   4.543   3.387
13737TIP3   OH241153   0.099   5.592   2.040
13737TIP3    H141154   0.163   5.554   2.100
13737TIP3    H241155   0.020   5.603   2.093
13738TIP3   OH241156   6.509   6.002   5.740
13738TIP3    H141157   6.474   6.090   5.751
13738TIP3    H241158   6.523   5.971   5.830
13739TIP3   OH241159   0.382   5.158   5.100
13739TIP3    H141160   0.287   5.159   5.116
13739TIP3    H241161   0.419   5.119   5.179
13740TIP3   OH241162   8.139   1.020   2.296
13740TIP3    H141163   8.189   0.948   2.335
13740TIP3    H241164   8.144   1.091   2.360
13741TIP3   OH241165   1.758   7.678   2.656
13741TIP3    H141166   1.821   7.652   2.723
13741TIP3    H241167   1.678   7.630   2.678
13742TIP3   OH241168   2.464   4.548   6.516
13742TIP3    H141169   2.491   4.637   6.538
13742TIP3    H241170   2.495   4.534   6.427
13743TIP3   OH241171   2.602   2.484   0.405
13743TIP3    H141172   2.612   2.478   0.500
13743TIP3    H241173   2.527   2.542   0.392
13744TIP3   OH241174   3.276   0.035   0.406
13744TIP3    H141175   3.201   0.042   0.465
13744TIP3    H241176   3.268  -0.052   0.367
13745TIP3   OH241177   1.728   5.342   0.837
13745TIP3    H141178   1.769   5.426   0.819
13745TIP3    H241179   1.641   5.350   0.798
13746TIP3   OH241180   8.273   2.581   1.646
13746TIP3    H141181   8.239   2.492   1.640
13746TIP3    H241182   8.311   2.586   1.734
13747TIP3   OH241183   8.068   5.665   2.746
13747TIP3    H141184   8.009   5.739   2.758
13747TIP3    H241185   8.139   5.680   2.807
13748TIP3   OH241186   3.688   4.952   1.031
13748TIP3    H141187   3.675   4.869   1.077
13748TIP3    H241188   3.753   4.999   1.085
13749TIP3   OH241189   6.765   2.682   1.514
13749TIP3    H141190   6.839   2.739   1.536
13749TIP3    H241191   6.705   2.692   1.588
13750TIP3   OH241192   6.369   7.558   2.475
13750TIP3    H141193   6.279   7.586   2.485
13750TIP3    H241194   6.367   7.464   2.492
13751TIP3   OH241195   1.101   2.209   0.372
13751TIP3    H141196   1.192   2.189   0.349
13751TIP3    H241197   1.050   2.145   0.323
13752TIP3   OH241198   0.511   5.933   5.680
13752TIP3    H141199   0.537   5.862   5.739
13752TIP3    H241200   0.543   6.013   5.722
13753TIP3   OH241201   2.817   3.251   4.621
13753TIP3    H141202   2.838   3.171   4.670
13753TIP3    H241203   2.785   3.219   4.536
13754TIP3   OH241204   1.864   5.335   5.652
13754TIP3    H141205   1.947   5.352   5.607
13754TIP3    H241206   1.889   5.328   5.745
13755TIP3   OH241207   1.044   4.067   4.401
13755TIP3    H141208   0.979   4.083   4.470
13755TIP3    H241209   1.001   4.007   4.341
13756TIP3   OH241210   4.581   2.736   6.339
13756TIP3    H141211   4.660   2.697   6.375
13756TIP3    H241212   4.611   2.784   6.261
13757TIP3   OH241213   0.513   3.079   4.096
13757TIP3    H141214   0.458   3.063   4.173
13757TIP3    H241215   0.455   3.064   4.021
13758TIP3   OH241216   4.437   3.629   3.700
13758TIP3    H141217   4.488   3.669   3.770
13758TIP3    H241218   4.474   3.541   3.691
13759TIP3   OH241219   2.415   0.978   6.311
13759TIP3    H141220   2.344   0.944   6.365
13759TIP3    H241221   2.491   0.977   6.369
13760TIP3   OH241222   3.439   2.708   5.147
13760TIP3    H141223   3.529   2.696   5.179
13760TIP3    H241224   3.414   2.795   5.178
13761TIP3   OH241225   7.409   7.060   4.694
13761TIP3    H141226   7.492   7.022   4.664
13761TIP3    H241227   7.434   7.142   4.736
13762TIP3   OH241228   3.265   5.482   5.666
13762TIP3    H141229   3.252   5.415   5.599
13762TIP3    H241230   3.360   5.498   5.666
13763TIP3   OH241231   7.136   5.571   2.762
13763TIP3    H141232   7.088   5.519   2.697
13763TIP3    H241233   7.118   5.528   2.846
13764TIP3   OH241234   5.698   1.950   2.261
13764TIP3    H141235   5.665   1.887   2.326
13764TIP3    H241236   5.763   2.001   2.309
13765TIP3   OH241237   5.679   2.842   5.396
13765TIP3    H141238   5.633   2.925   5.382
13765TIP3    H241239   5.648   2.785   5.326
13766TIP3   OH241240   3.621   1.496   6.361
13766TIP3    H141241   3.609   1.402   6.356
13766TIP3    H241242   3.703   1.507   6.410
13767TIP3   OH241243   2.062   1.955   6.460
13767TIP3    H141244   2.065   1.976   6.553
13767TIP3    H241245   2.146   1.989   6.426
13768TIP3   OH241246   7.137   0.733   0.407
13768TIP3    H141247   7.099   0.647   0.392
13768TIP3    H241248   7.198   0.746   0.335
13769TIP3   OH241249   5.551   6.333   0.961
13769TIP3    H141250   5.599   6.290   0.891
13769TIP3    H241251   5.478   6.274   0.981
13770TIP3   OH241252   2.522   2.221   0.353
13770TIP3    H141253   2.518   2.317   0.343
13770TIP3    H241254   2.529   2.188   0.263
13771TIP3   OH241255   5.661   1.576   0.074
13771TIP3    H141256   5.633   1.504   0.131
13771TIP3    H241257   5.581   1.625   0.056
13772TIP3   OH241258   0.696   1.498   6.481
13772TIP3    H141259   0.603   1.482   6.467
13772TIP3    H241260   0.716   1.450   6.562
13773TIP3   OH241261   3.041   6.384   6.364
13773TIP3    H141262   3.080   6.345   6.442
13773TIP3    H241263   3.110   6.441   6.329
13774TIP3   OH241264   3.403   0.802   1.493
13774TIP3    H141265   3.466   0.790   1.564
13774TIP3    H241266   3.381   0.896   1.496
13775TIP3   OH241267   5.481   2.763   2.451
13775TIP3    H141268   5.517   2.772   2.363
13775TIP3    H241269   5.558   2.756   2.508
13776TIP3   OH241270   1.077   0.724   1.190
13776TIP3    H141271   1.015   0.709   1.261
13776TIP3    H241272   1.155   0.759   1.234
13777TIP3   OH241273   7.404   1.067   4.674
13777TIP3    H141274   7.468   1.138   4.676
13777TIP3    H241275   7.323   1.106   4.705
13778TIP3   OH241276   0.121   7.662   3.750
13778TIP3    H141277   0.120   7.646   3.655
13778TIP3    H241278   0.197   7.718   3.764
13779TIP3   OH241279   1.481   6.908   3.370
13779TIP3    H141280   1.545   6.956   3.422
13779TIP3    H241281   1.501   6.816   3.386
13780TIP3   OH241282   2.031   4.548   1.390
13780TIP3    H141283   2.095   4.619   1.397
13780TIP3    H241284   2.022   4.533   1.296
13781TIP3   OH241285   8.066   0.434   0.046
13781TIP3    H141286   8.123   0.435  -0.031
13781TIP3    H241287   8.125   0.452   0.120
13782TIP3   OH241288   2.314   0.615   1.805
13782TIP3    H141289   2.343   0.533   1.847
13782TIP3    H241290   2.226   0.595   1.773
13783TIP3   OH241291   4.507   2.529   1.219
13783TIP3    H141292   4.555   2.586   1.279
13783TIP3    H241293   4.516   2.441   1.256
13784TIP3   OH241294   5.379   4.513   3.857
13784TIP3    H141295   5.454   4.545   3.907
13784TIP3    H241296   5.406   4.427   3.824
13785TIP3   OH241297   4.610   1.874   5.302
13785TIP3    H141298   4.646   1.810   5.363
13785TIP3    H241299   4.545   1.825   5.251
13786TIP3   OH241300   1.731   6.714   0.478
13786TIP3    H141301   1.801   6.766   0.439
13786TIP3    H241302   1.770   6.675   0.555
13787TIP3   OH241303   6.714   5.690   5.129
13787TIP3    H141304   6.689   5.622   5.067
13787TIP3    H241305   6.798   5.723   5.095
13788TIP3   OH241306   3.099   1.498   1.113
13788TIP3    H141307   3.127   1.498   1.022
13788TIP3    H241308   3.124   1.585   1.145
13789TIP3   OH241309   3.705   7.748   1.625
13789TIP3    H141310   3.749   7.790   1.699
13789TIP3    H241311   3.674   7.665   1.659
13790TIP3   OH241312   0.937   1.946   0.769
13790TIP3    H141313   0.886   1.993   0.704
13790TIP3    H241314   0.873   1.919   0.835
13791TIP3   OH241315   6.941   5.396   2.637
13791TIP3    H141316   6.906   5.395   2.548
13791TIP3    H241317   7.007   5.327   2.638
13792TIP3   OH241318   7.107   7.714   4.369
13792TIP3    H141319   7.159   7.652   4.317
13792TIP3    H241320   7.124   7.689   4.460
13793TIP3   OH241321   5.182   4.083   0.774
13793TIP3    H141322   5.094   4.056   0.745
13793TIP3    H241323   5.225   4.114   0.695
13794TIP3   OH241324   5.265   4.223   5.245
13794TIP3    H141325   5.284   4.130   5.249
13794TIP3    H241326   5.320   4.256   5.174
13795TIP3   OH241327   0.871   2.125   0.572
13795TIP3    H141328   0.817   2.192   0.615
13795TIP3    H241329   0.937   2.175   0.523
13796TIP3   OH241330   6.068   2.284   0.209
13796TIP3    H141331   6.066   2.219   0.140
13796TIP3    H241332   6.109   2.240   0.283
13797TIP3   OH241333   8.035   2.026   6.711
13797TIP3    H141334   7.994   2.018   6.625
13797TIP3    H241335   8.047   2.121   6.723
13798TIP3   OH241336   3.566   6.297   6.520
13798TIP3    H141337   3.529   6.371   6.471
13798TIP3    H241338   3.654   6.288   6.485
13799TIP3   OH241339   5.827   3.842   4.940
13799TIP3    H141340   5.918   3.811   4.949
13799TIP3    H241341   5.776   3.778   4.989
13800TIP3   OH241342   1.391   7.618   6.155
13800TIP3    H141343   1.340   7.609   6.236
13800TIP3    H241344   1.362   7.701   6.118
13801TIP3   OH241345   1.933   5.169   6.252
13801TIP3    H141346   1.891   5.102   6.306
13801TIP3    H241347   1.874   5.244   6.256
13802TIP3   OH241348   2.084   0.195   6.610
13802TIP3    H141349   2.012   0.249   6.578
13802TIP3    H241350   2.088   0.121   6.550
13803TIP3   OH241351   7.265   7.706   2.951
13803TIP3    H141352   7.338   7.677   2.897
13803TIP3    H241353   7.187   7.685   2.901
13804TIP3   OH241354   3.571   1.041   3.996
13804TIP3    H141355   3.494   1.052   3.940
13804TIP3    H241356   3.546   1.080   4.079
13805TIP3   OH241357   1.961   5.581   2.224
13805TIP3    H141358   1.896   5.634   2.270
13805TIP3    H241359   1.914   5.502   2.197
13806TIP3   OH241360   0.751   6.140   1.460
13806TIP3    H141361   0.710   6.104   1.539
13806TIP3    H241362   0.744   6.235   1.471
13807TIP3   OH241363   1.505   6.289   3.428
13807TIP3    H141364   1.454   6.210   3.448
13807TIP3    H241365   1.504   6.339   3.509
13808TIP3   OH241366   6.008   2.054   5.787
13808TIP3    H141367   5.915   2.052   5.810
13808TIP3    H241368   6.012   2.011   5.702
13809TIP3   OH241369   4.593   7.088   2.194
13809TIP3    H141370   4.617   6.996   2.185
13809TIP3    H241371   4.643   7.132   2.126
13810TIP3   OH241372   5.678   4.880   0.810
13810TIP3    H141373   5.616   4.842   0.873
13810TIP3    H241374   5.721   4.805   0.770
13811TIP3   OH241375   2.619   5.558   5.422
13811TIP3    H141376   2.709   5.586   5.402
13811TIP3    H241377   2.565   5.632   5.397
13812TIP3   OH241378   2.311   2.717   5.679
13812TIP3    H141379   2.400   2.730   5.645
13812TIP3    H241380   2.258   2.699   5.601
13813TIP3   OH241381   3.367   1.729   3.351
13813TIP3    H141382   3.367   1.713   3.257
13813TIP3    H241383   3.357   1.824   3.359
13814TIP3   OH241384   3.423   0.796   5.989
13814TIP3    H141385   3.410   0.727   5.923
13814TIP3    H241386   3.472   0.864   5.943
13815TIP3   OH241387   8.102   5.924   1.618
13815TIP3    H141388   8.109   6.002   1.563
13815TIP3    H241389   8.012   5.893   1.605
13816TIP3   OH241390   5.920   2.836   6.503
13816TIP3    H141391   5.843   2.888   6.526
13816TIP3    H241392   5.989   2.900   6.488
13817TIP3   OH241393   2.197   6.744   2.961
13817TIP3    H141394   2.279   6.723   3.006
13817TIP3    H241395   2.225   6.784   2.879
13818TIP3   OH241396   4.364   4.981   5.481
13818TIP3    H141397   4.396   5.025   5.560
13818TIP3    H241398   4.419   5.016   5.411
13819TIP3   OH241399   6.050   2.288   0.741
13819TIP3    H141400   5.964   2.303   0.703
13819TIP3    H241401   6.111   2.336   0.684
13820TIP3   OH241402   5.748   1.591   3.224
13820TIP3    H141403   5.740   1.678   3.264
13820TIP3    H241404   5.840   1.568   3.236
13821TIP3   OH241405   6.741   2.707   2.027
13821TIP3    H141406   6.670   2.742   2.082
13821TIP3    H241407   6.757   2.776   1.962
13822TIP3   OH241408   0.641   0.589   2.461
13822TIP3    H141409   0.650   0.648   2.536
13822TIP3    H241410   0.594   0.641   2.395
13823TIP3   OH241411   0.746   7.510   0.174
13823TIP3    H141412   0.763   7.603   0.158
13823TIP3    H241413   0.771   7.466   0.093
13824TIP3   OH241414   0.187   1.961   3.730
13824TIP3    H141415   0.133   1.906   3.787
13824TIP3    H241416   0.163   2.051   3.753
13825TIP3   OH241417   7.390   5.475   2.926
13825TIP3    H141418   7.410   5.568   2.935
13825TIP3    H241419   7.466   5.430   2.963
13826TIP3   OH241420   2.003   3.167   2.682
13826TIP3    H141421   1.924   3.114   2.672
13826TIP3    H241422   2.036   3.178   2.593
13827TIP3   OH241423   6.238   5.998   5.474
13827TIP3    H141424   6.327   5.973   5.501
13827TIP3    H241425   6.213   5.930   5.412
13828TIP3   OH241426   3.440   2.042   4.181
13828TIP3    H141427   3.393   2.123   4.202
13828TIP3    H241428   3.530   2.070   4.164
13829TIP3   OH241429   2.926   4.139   3.026
13829TIP3    H141430   2.999   4.105   3.078
13829TIP3    H241431   2.862   4.068   3.025
13830TIP3   OH241432   0.797   7.036   4.915
13830TIP3    H141433   0.788   7.129   4.896
13830TIP3    H241434   0.769   7.027   5.006
13831TIP3   OH241435   1.651   2.527   5.185
13831TIP3    H141436   1.650   2.438   5.220
13831TIP3    H241437   1.584   2.573   5.236
13832TIP3   OH241438   4.801   5.483   1.983
13832TIP3    H141439   4.780   5.554   2.043
13832TIP3    H241440   4.885   5.449   2.014
13833TIP3   OH241441   5.598   6.932   4.978
13833TIP3    H141442   5.673   6.889   4.937
13833TIP3    H241443   5.635   7.007   5.025
13834TIP3   OH241444   3.220   2.153   5.494
13834TIP3    H141445   3.219   2.064   5.528
13834TIP3    H241446   3.309   2.165   5.460
13835TIP3   OH241447   1.228   0.351   5.757
13835TIP3    H141448   1.221   0.430   5.810
13835TIP3    H241449   1.258   0.382   5.671
13836TIP3   OH241450   7.436   2.964   6.373
13836TIP3    H141451   7.385   3.039   6.406
13836TIP3    H241452   7.386   2.887   6.401
13837TIP3   OH241453   3.446   1.094   5.338
13837TIP3    H141454   3.398   1.162   5.386
13837TIP3    H241455   3.394   1.015   5.351
13838TIP3   OH241456   4.143   5.960   3.017
13838TIP3    H141457   4.098   5.922   2.941
13838TIP3    H241458   4.208   6.018   2.978
13839TIP3   OH241459   8.131   1.015   3.739
13839TIP3    H141460   8.124   1.069   3.818
13839TIP3    H241461   8.088   0.933   3.762
13840TIP3   OH241462   1.790   4.432   4.801
13840TIP3    H141463   1.772   4.508   4.856
13840TIP3    H241464   1.817   4.364   4.863
13841TIP3   OH241465   1.159   3.980   6.714
13841TIP3    H141466   1.076   3.975   6.762
13841TIP3    H241467   1.226   3.980   6.782
13842TIP3   OH241468   1.083   2.266   2.600
13842TIP3    H141469   1.119   2.177   2.608
13842TIP3    H241470   1.118   2.314   2.674
13843TIP3   OH241471   2.260   1.941   4.700
13843TIP3    H141472   2.221   1.974   4.781
13843TIP3    H241473   2.351   1.970   4.704
13844TIP3   OH241474   2.648   2.524   0.681
13844TIP3    H141475   2.673   2.474   0.759
13844TIP3    H241476   2.730   2.558   0.646
13845TIP3   OH241477   3.212   5.050   6.141
13845TIP3    H141478   3.305   5.067   6.156
13845TIP3    H241479   3.167   5.101   6.208
13846TIP3   OH241480   7.100   4.488   3.110
13846TIP3    H141481   7.187   4.453   3.131
13846TIP3    H241482   7.041   4.414   3.126
13847TIP3   OH241483   6.126   6.156   1.365
13847TIP3    H141484   6.136   6.127   1.456
13847TIP3    H241485   6.041   6.120   1.338
13848TIP3   OH241486   4.023   1.841   0.702
13848TIP3    H141487   4.082   1.820   0.629
13848TIP3    H241488   3.944   1.790   0.683
13849TIP3   OH241489   7.027   2.709   2.562
13849TIP3    H141490   6.945   2.667   2.586
13849TIP3    H241491   7.003   2.799   2.541
13850TIP3   OH241492   5.431   4.921   4.066
13850TIP3    H141493   5.378   4.842   4.062
13850TIP3    H241494   5.490   4.914   3.991
13851TIP3   OH241495   4.963   6.493   6.274
13851TIP3    H141496   4.869   6.508   6.267
13851TIP3    H241497   5.003   6.558   6.215
13852TIP3   OH241498   6.352   0.990   4.034
13852TIP3    H141499   6.266   0.959   4.005
13852TIP3    H241500   6.348   0.984   4.130
13853TIP3   OH241501   0.671   3.314   3.371
13853TIP3    H141502   0.606   3.365   3.322
13853TIP3    H241503   0.749   3.370   3.371
13854TIP3   OH241504   5.570   6.122   5.826
13854TIP3    H141505   5.486   6.133   5.782
13854TIP3    H241506   5.627   6.188   5.787
13855TIP3   OH241507   4.890   1.811   4.783
13855TIP3    H141508   4.875   1.737   4.842
13855TIP3    H241509   4.925   1.880   4.840
13856TIP3   OH241510   0.864   2.268   4.850
13856TIP3    H141511   0.948   2.277   4.806
13856TIP3    H241512   0.866   2.334   4.919
13857TIP3   OH241513   4.778   6.811   4.764
13857TIP3    H141514   4.791   6.734   4.709
13857TIP3    H241515   4.698   6.792   4.813
13858TIP3   OH241516   6.818   1.295   4.582
13858TIP3    H141517   6.839   1.338   4.499
13858TIP3    H241518   6.871   1.216   4.583
13859TIP3   OH241519   7.405   7.798   1.062
13859TIP3    H141520   7.461   7.723   1.043
13859TIP3    H241521   7.436   7.831   1.146
13860TIP3   OH241522   6.091   4.570   1.828
13860TIP3    H141523   6.133   4.570   1.742
13860TIP3    H241524   6.158   4.538   1.888
13861TIP3   OH241525   3.625   2.069   4.708
13861TIP3    H141526   3.544   2.019   4.697
13861TIP3    H241527   3.605   2.155   4.670
13862TIP3   OH241528   6.798   4.828   1.066
13862TIP3    H141529   6.890   4.836   1.094
13862TIP3    H241530   6.757   4.910   1.095
13863TIP3   OH241531   7.224   3.940   0.227
13863TIP3    H141532   7.189   4.028   0.210
13863TIP3    H241533   7.295   3.954   0.289
13864TIP3   OH241534   2.374   6.726   5.230
13864TIP3    H141535   2.308   6.712   5.162
13864TIP3    H241536   2.437   6.655   5.215
13865TIP3   OH241537   4.437   7.530   3.520
13865TIP3    H141538   4.434   7.438   3.547
13865TIP3    H241539   4.350   7.564   3.543
13866TIP3   OH241540   3.239   7.607   5.842
13866TIP3    H141541   3.190   7.647   5.770
13866TIP3    H241542   3.302   7.549   5.800
13867TIP3   OH241543   2.047   1.904   1.096
13867TIP3    H141544   2.136   1.932   1.073
13867TIP3    H241545   2.043   1.813   1.066
13868TIP3   OH241546   3.161   1.713   6.191
13868TIP3    H141547   3.132   1.622   6.195
13868TIP3    H241548   3.171   1.739   6.283
13869TIP3   OH241549   6.349   3.703   6.041
13869TIP3    H141550   6.313   3.722   6.128
13869TIP3    H241551   6.401   3.780   6.019
13870TIP3   OH241552   2.623   1.472   2.059
13870TIP3    H141553   2.547   1.415   2.078
13870TIP3    H241554   2.617   1.541   2.125
13871TIP3   OH241555   1.149   0.123   6.748
13871TIP3    H141556   1.185   0.150   6.663
13871TIP3    H241557   1.055   0.113   6.732
13872TIP3   OH241558   1.520   0.797   6.202
13872TIP3    H141559   1.549   0.801   6.111
13872TIP3    H241560   1.598   0.819   6.253
13873TIP3   OH241561   3.525   1.860   6.548
13873TIP3    H141562   3.619   1.860   6.531
13873TIP3    H241563   3.500   1.767   6.544
13874TIP3   OH241564   1.668   3.017   2.945
13874TIP3    H141565   1.589   3.023   2.999
13874TIP3    H241566   1.740   3.014   3.007
13875TIP3   OH241567   3.804   6.495   1.533
13875TIP3    H141568   3.895   6.519   1.514
13875TIP3    H241569   3.795   6.510   1.627
13876TIP3   OH241570   5.617   7.303   3.324
13876TIP3    H141571   5.546   7.368   3.325
13876TIP3    H241572   5.671   7.327   3.249
13877TIP3   OH241573   7.713   1.341   5.565
13877TIP3    H141574   7.759   1.326   5.648
13877TIP3    H241575   7.621   1.332   5.587
13878TIP3   OH241576   0.290   3.623   0.290
13878TIP3    H141577   0.321   3.598   0.203
13878TIP3    H241578   0.213   3.568   0.304
13879TIP3   OH241579   2.999   0.186   5.098
13879TIP3    H141580   2.967   0.102   5.064
13879TIP3    H241581   2.971   0.251   5.034
13880TIP3   OH241582   4.481   0.805   4.580
13880TIP3    H141583   4.467   0.735   4.644
13880TIP3    H241584   4.480   0.886   4.631
13881TIP3   OH241585   4.753   3.518   3.729
13881TIP3    H141586   4.727   3.548   3.817
13881TIP3    H241587   4.684   3.458   3.703
13882TIP3   OH241588   7.565   4.004   3.614
13882TIP3    H141589   7.641   3.970   3.662
13882TIP3    H241590   7.565   3.957   3.531
13883TIP3   OH241591   1.824   0.531   1.993
13883TIP3    H141592   1.736   0.495   2.007
13883TIP3    H241593   1.834   0.596   2.062
13884TIP3   OH241594   2.951   2.154   1.102
13884TIP3    H141595   2.884   2.137   1.168
13884TIP3    H241596   2.948   2.248   1.088
13885TIP3   OH241597   3.938   6.410   4.627
13885TIP3    H141598   4.011   6.456   4.586
13885TIP3    H241599   3.962   6.404   4.720
13886TIP3   OH241600   4.558   2.945   2.638
13886TIP3    H141601   4.588   3.001   2.566
13886TIP3    H241602   4.572   2.998   2.717
13887TIP3   OH241603   5.693   6.460   5.472
13887TIP3    H141604   5.660   6.418   5.392
13887TIP3    H241605   5.785   6.478   5.453
13888TIP3   OH241606   2.799   4.793   3.587
13888TIP3    H141607   2.768   4.721   3.533
13888TIP3    H241608   2.874   4.758   3.634
13889TIP3   OH241609   7.790   4.070   1.270
13889TIP3    H141610   7.826   3.982   1.285
13889TIP3    H241611   7.867   4.127   1.273
13890TIP3   OH241612   2.257   6.097   4.225
13890TIP3    H141613   2.341   6.054   4.240
13890TIP3    H241614   2.217   6.047   4.154
13891TIP3   OH241615   2.421   7.083   3.571
13891TIP3    H141616   2.426   7.005   3.516
13891TIP3    H241617   2.370   7.057   3.647
13892TIP3   OH241618   6.085   1.650   2.203
13892TIP3    H141619   6.022   1.695   2.260
13892TIP3    H241620   6.145   1.607   2.264
13893TIP3   OH241621   6.897   0.846   0.330
13893TIP3    H141622   6.990   0.827   0.346
13893TIP3    H241623   6.856   0.761   0.320
13894TIP3   OH241624   5.454   3.850   6.315
13894TIP3    H141625   5.387   3.792   6.352
13894TIP3    H241626   5.406   3.930   6.294
13895TIP3   OH241627   5.774   3.575   2.923
13895TIP3    H141628   5.832   3.650   2.937
13895TIP3    H241629   5.686   3.612   2.929
13896TIP3   OH241630   5.305   6.793   5.250
13896TIP3    H141631   5.300   6.800   5.155
13896TIP3    H241632   5.267   6.874   5.283
13897TIP3   OH241633   2.851   3.858   1.661
13897TIP3    H141634   2.840   3.808   1.580
13897TIP3    H241635   2.896   3.797   1.720
13898TIP3   OH241636   5.697   1.422   6.366
13898TIP3    H141637   5.620   1.459   6.323
13898TIP3    H241638   5.763   1.491   6.360
13899TIP3   OH241639   7.555   0.361   5.783
13899TIP3    H141640   7.515   0.275   5.792
13899TIP3    H241641   7.641   0.344   5.744
13900TIP3   OH241642   0.801   7.803   5.369
13900TIP3    H141643   0.750   7.775   5.446
13900TIP3    H241644   0.794   7.899   5.370
13901TIP3   OH241645   0.228   3.359   3.096
13901TIP3    H141646   0.271   3.343   3.011
13901TIP3    H241647   0.145   3.313   3.089
13902TIP3   OH241648   5.185   6.517   4.516
13902TIP3    H141649   5.224   6.463   4.447
13902TIP3    H241650   5.259   6.541   4.572
13903TIP3   OH241651   8.228   6.258   3.901
13903TIP3    H141652   8.153   6.204   3.876
13903TIP3    H241653   8.272   6.278   3.818
13904TIP3   OH241654   5.637   1.068   4.783
13904TIP3    H141655   5.641   0.973   4.766
13904TIP3    H241656   5.690   1.107   4.713
13905TIP3   OH241657   0.951   0.552   1.948
13905TIP3    H141658   0.893   0.558   1.872
13905TIP3    H241659   0.980   0.460   1.948
13906TIP3   OH241660   1.880   2.431   1.561
13906TIP3    H141661   1.961   2.414   1.609
13906TIP3    H241662   1.816   2.373   1.603
13907TIP3   OH241663   0.671   5.918   5.004
13907TIP3    H141664   0.715   5.859   4.943
13907TIP3    H241665   0.726   5.917   5.082
13908TIP3   OH241666   2.893   2.253   3.294
13908TIP3    H141667   2.914   2.277   3.204
13908TIP3    H241668   2.823   2.314   3.319
13909TIP3   OH241669   7.022   3.656   1.234
13909TIP3    H141670   6.977   3.578   1.264
13909TIP3    H241671   7.090   3.624   1.175
13910TIP3   OH241672   2.425   5.178   2.659
13910TIP3    H141673   2.424   5.194   2.754
13910TIP3    H241674   2.494   5.113   2.646
13911TIP3   OH241675   7.074   4.421   3.423
13911TIP3    H141676   7.065   4.351   3.358
13911TIP3    H241677   6.988   4.463   3.424
13912TIP3   OH241678   6.621   2.164   1.907
13912TIP3    H141679   6.706   2.156   1.864
13912TIP3    H241680   6.611   2.258   1.923
13913TIP3   OH241681   1.319   6.264   1.307
13913TIP3    H141682   1.350   6.210   1.380
13913TIP3    H241683   1.364   6.228   1.230
13914TIP3   OH241684   2.534   1.595   3.657
13914TIP3    H141685   2.552   1.541   3.734
13914TIP3    H241686   2.563   1.683   3.682
13915TIP3   OH241687   4.908   5.906   0.040
13915TIP3    H141688   4.988   5.903   0.093
13915TIP3    H241689   4.866   5.822   0.056
13916TIP3   OH241690   6.958   1.123   5.194
13916TIP3    H141691   6.987   1.148   5.281
13916TIP3    H241692   6.918   1.203   5.158
13917TIP3   OH241693   3.751   1.927   0.394
13917TIP3    H141694   3.731   1.870   0.469
13917TIP3    H241695   3.666   1.963   0.369
13918TIP3   OH241696   2.144   5.640   5.099
13918TIP3    H141697   2.091   5.699   5.045
13918TIP3    H241698   2.215   5.612   5.040
13919TIP3   OH241699   3.703   4.710   0.729
13919TIP3    H141700   3.702   4.625   0.774
13919TIP3    H241701   3.780   4.755   0.763
13920TIP3   OH241702   3.390   5.007   2.427
13920TIP3    H141703   3.375   4.958   2.508
13920TIP3    H241704   3.328   5.080   2.432
13921TIP3   OH241705   0.677   4.195   2.149
13921TIP3    H141706   0.754   4.252   2.149
13921TIP3    H241707   0.605   4.251   2.177
13922TIP3   OH241708   6.793   3.753   2.747
13922TIP3    H141709   6.768   3.802   2.668
13922TIP3    H241710   6.877   3.713   2.724
13923TIP3   OH241711   4.487   2.884   4.996
13923TIP3    H141712   4.519   2.964   4.953
13923TIP3    H241713   4.451   2.832   4.924
13924TIP3   OH241714   0.377   3.482   2.871
13924TIP3    H141715   0.440   3.414   2.897
13924TIP3    H241716   0.412   3.562   2.909
13925TIP3   OH241717   5.809   0.627   4.492
13925TIP3    H141718   5.891   0.581   4.514
13925TIP3    H241719   5.802   0.618   4.397
13926TIP3   OH241720   3.282   4.744   4.119
13926TIP3    H141721   3.342   4.671   4.106
13926TIP3    H241722   3.334   4.822   4.098
13927TIP3   OH241723   7.409   1.130   6.636
13927TIP3    H141724   7.485   1.181   6.607
13927TIP3    H241725   7.343   1.145   6.568
13928TIP3   OH241726   3.993   5.158   1.774
13928TIP3    H141727   3.917   5.100   1.779
13928TIP3    H241728   3.989   5.211   1.854
13929TIP3   OH241729   2.805   6.416   1.919
13929TIP3    H141730   2.732   6.388   1.864
13929TIP3    H241731   2.764   6.461   1.993
13930TIP3   OH241732   6.510   6.536   0.357
13930TIP3    H141733   6.431   6.574   0.320
13930TIP3    H241734   6.557   6.610   0.396
13931TIP3   OH241735   5.101   0.921   4.469
13931TIP3    H141736   5.066   0.833   4.477
13931TIP3    H241737   5.026   0.976   4.447
13932TIP3   OH241738   3.638   0.452   1.845
13932TIP3    H141739   3.665   0.483   1.932
13932TIP3    H241740   3.542   0.457   1.847
13933TIP3   OH241741   1.312   6.705   0.013
13933TIP3    H141742   1.383   6.707   0.076
13933TIP3    H241743   1.351   6.671  -0.067
13934TIP3   OH241744   4.373   5.577   1.889
13934TIP3    H141745   4.425   5.563   1.969
13934TIP3    H241746   4.284   5.554   1.915
13935TIP3   OH241747   8.291   6.054   2.148
13935TIP3    H141748   8.313   5.978   2.095
13935TIP3    H241749   8.275   6.019   2.236
13936TIP3   OH241750   4.312   6.367   5.072
13936TIP3    H141751   4.268   6.314   5.006
13936TIP3    H241752   4.261   6.353   5.152
13937TIP3   OH241753   5.417   0.752   5.319
13937TIP3    H141754   5.405   0.716   5.232
13937TIP3    H241755   5.512   0.752   5.333
13938TIP3   OH241756   4.159   0.232   5.298
13938TIP3    H141757   4.209   0.293   5.244
13938TIP3    H241758   4.095   0.287   5.343
13939TIP3   OH241759   4.421   5.252   4.081
13939TIP3    H141760   4.455   5.163   4.089
13939TIP3    H241761   4.381   5.269   4.167
13940TIP3   OH241762   7.723   5.000   1.829
13940TIP3    H141763   7.663   5.074   1.831
13940TIP3    H241764   7.708   4.955   1.912
13941TIP3   OH241765   3.665   4.515   3.673
13941TIP3    H141766   3.700   4.463   3.745
13941TIP3    H241767   3.616   4.453   3.620
13942TIP3   OH241768   5.763   4.027   1.206
13942TIP3    H141769   5.730   4.000   1.291
13942TIP3    H241770   5.784   4.120   1.216
13943TIP3   OH241771   0.114   4.010   5.961
13943TIP3    H141772   0.148   4.048   6.043
13943TIP3    H241773   0.085   4.085   5.910
13944TIP3   OH241774   4.534   6.159   5.416
13944TIP3    H141775   4.440   6.154   5.401
13944TIP3    H241776   4.545   6.234   5.474
13945TIP3   OH241777   3.414   6.299   5.798
13945TIP3    H141778   3.502   6.280   5.830
13945TIP3    H241779   3.361   6.224   5.825
13946TIP3   OH241780   1.841   7.713   4.257
13946TIP3    H141781   1.861   7.669   4.174
13946TIP3    H241782   1.800   7.795   4.231
13947TIP3   OH241783   1.264   6.020   1.523
13947TIP3    H141784   1.327   6.089   1.546
13947TIP3    H241785   1.213   6.008   1.602
13948TIP3   OH241786   0.325   7.688   0.600
13948TIP3    H141787   0.304   7.601   0.633
13948TIP3    H241788   0.401   7.715   0.650
13949TIP3   OH241789   5.400   6.357   2.759
13949TIP3    H141790   5.438   6.364   2.847
13949TIP3    H241791   5.476   6.358   2.700
13950TIP3   OH241792   0.003   7.811   1.876
13950TIP3    H141793   0.003   7.820   1.781
13950TIP3    H241794   0.077   7.754   1.895
13951TIP3   OH241795   0.053   3.313   1.598
13951TIP3    H141796  -0.038   3.337   1.584
13951TIP3    H241797   0.082   3.277   1.514
13952TIP3   OH241798   4.224   1.572   5.412
13952TIP3    H141799   4.211   1.657   5.369
13952TIP3    H241800   4.294   1.588   5.475
13953TIP3   OH241801   6.423   1.376   0.899
13953TIP3    H141802   6.409   1.358   0.806
13953TIP3    H241803   6.511   1.412   0.904
13954TIP3   OH241804   5.890   3.751   4.046
13954TIP3    H141805   5.800   3.783   4.053
13954TIP3    H241806   5.889   3.692   3.971
13955TIP3   OH241807   3.775   0.948   2.988
13955TIP3    H141808   3.822   0.883   2.936
13955TIP3    H241809   3.761   0.905   3.073
13956TIP3   OH241810   1.982   0.943   3.302
13956TIP3    H141811   1.998   0.984   3.216
13956TIP3    H241812   1.906   0.887   3.288
13957TIP3   OH241813   1.748   3.977  -0.057
13957TIP3    H141814   1.839   4.004  -0.041
13957TIP3    H241815   1.730   3.913   0.012
13958TIP3   OH241816   0.727   3.481   4.678
13958TIP3    H141817   0.663   3.490   4.608
13958TIP3    H241818   0.676   3.489   4.758
13959TIP3   OH241819   7.534   7.257   1.726
13959TIP3    H141820   7.573   7.328   1.675
13959TIP3    H241821   7.442   7.254   1.697
13960TIP3   OH241822   5.769   3.829   0.311
13960TIP3    H141823   5.821   3.786   0.380
13960TIP3    H241824   5.690   3.775   0.303
13961TIP3   OH241825   2.851   4.111   2.630
13961TIP3    H141826   2.829   4.159   2.550
13961TIP3    H241827   2.867   4.021   2.600
13962TIP3   OH241828   3.897   2.150   0.971
13962TIP3    H141829   3.822   2.173   1.026
13962TIP3    H241830   3.929   2.067   1.006
13963TIP3   OH241831   1.229   7.312   2.173
13963TIP3    H141832   1.191   7.226   2.155
13963TIP3    H241833   1.304   7.293   2.231
13964TIP3   OH241834   5.668   0.884   5.036
13964TIP3    H141835   5.728   0.958   5.028
13964TIP3    H241836   5.712   0.813   4.989
13965TIP3   OH241837   3.448   3.030   3.657
13965TIP3    H141838   3.361   3.021   3.619
13965TIP3    H241839   3.480   2.941   3.669
13966TIP3   OH241840   7.213   5.840   2.772
13966TIP3    H141841   7.184   5.750   2.760
13966TIP3    H241842   7.284   5.834   2.836
13967TIP3   OH241843   4.148   2.638   0.963
13967TIP3    H141844   4.095   2.568   0.926
13967TIP3    H241845   4.183   2.602   1.044
13968TIP3   OH241846   2.516   0.330   0.752
13968TIP3    H141847   2.535   0.384   0.675
13968TIP3    H241848   2.580   0.259   0.748
13969TIP3   OH241849   4.508   3.745   0.571
13969TIP3    H141850   4.461   3.678   0.620
13969TIP3    H241851   4.439   3.801   0.534
13970TIP3   OH241852   4.785   7.123   0.173
13970TIP3    H141853   4.834   7.199   0.142
13970TIP3    H241854   4.704   7.125   0.122
13971TIP3   OH241855   4.161   3.746   0.240
13971TIP3    H141856   4.192   3.710   0.156
13971TIP3    H241857   4.143   3.838   0.222
13972TIP3   OH241858   6.729   4.541   6.373
13972TIP3    H141859   6.735   4.559   6.467
13972TIP3    H241860   6.775   4.614   6.332
13973TIP3   OH241861   5.778   1.260   6.106
13973TIP3    H141862   5.767   1.181   6.159
13973TIP3    H241863   5.756   1.233   6.017
13974TIP3   OH241864   0.614   5.596   6.093
13974TIP3    H141865   0.678   5.642   6.147
13974TIP3    H241866   0.530   5.619   6.131
13975TIP3   OH241867   4.838   7.733   6.657
13975TIP3    H141868   4.823   7.667   6.724
13975TIP3    H241869   4.806   7.815   6.696
13976TIP3   OH241870   2.593   0.187   1.494
13976TIP3    H141871   2.597   0.251   1.565
13976TIP3    H241872   2.659   0.217   1.431
13977TIP3   OH241873   0.383   6.344   1.362
13977TIP3    H141874   0.302   6.385   1.332
13977TIP3    H241875   0.448   6.369   1.296
13978TIP3   OH241876   6.001   4.638   0.114
13978TIP3    H141877   5.995   4.733   0.128
13978TIP3    H241878   6.066   4.609   0.178
13979TIP3   OH241879   0.882   0.757   5.149
13979TIP3    H141880   0.893   0.689   5.083
13979TIP3    H241881   0.862   0.710   5.230
13980TIP3   OH241882   3.795   2.038   5.531
13980TIP3    H141883   3.758   2.051   5.444
13980TIP3    H241884   3.773   1.948   5.553
13981TIP3   OH241885   7.603   2.416   2.729
13981TIP3    H141886   7.666   2.462   2.673
13981TIP3    H241887   7.655   2.386   2.804
13982TIP3   OH241888   7.470   5.356   0.089
13982TIP3    H141889   7.450   5.379  -0.002
13982TIP3    H241890   7.552   5.400   0.108
13983TIP3   OH241891   7.920   1.375   5.092
13983TIP3    H141892   7.974   1.449   5.120
13983TIP3    H241893   7.904   1.325   5.171
13984TIP3   OH241894   2.380   3.525   4.933
13984TIP3    H141895   2.389   3.430   4.933
13984TIP3    H241896   2.313   3.543   4.866
13985TIP3   OH241897   0.603   0.800   2.660
13985TIP3    H141898   0.610   0.770   2.750
13985TIP3    H241899   0.519   0.846   2.656
13986TIP3   OH241900   8.322   0.705   3.870
13986TIP3    H141901   8.247   0.725   3.815
13986TIP3    H241902   8.337   0.785   3.920
13987TIP3   OH241903   6.506   0.666   0.366
13987TIP3    H141904   6.453   0.718   0.305
13987TIP3    H241905   6.466   0.682   0.452
13988TIP3   OH241906   1.725   1.469   4.562
13988TIP3    H141907   1.682   1.534   4.505
13988TIP3    H241908   1.706   1.385   4.520
13989TIP3   OH241909   6.374   3.891   6.555
13989TIP3    H141910   6.285   3.856   6.551
13989TIP3    H241911   6.424   3.825   6.602
13990TIP3   OH241912   5.444   5.049   0.184
13990TIP3    H141913   5.457   4.984   0.116
13990TIP3    H241914   5.483   5.011   0.263
13991TIP3   OH241915   4.066   3.339   5.911
13991TIP3    H141916   4.119   3.352   5.833
13991TIP3    H241917   4.128   3.312   5.978
13992TIP3   OH241918   7.574   0.638   5.722
13992TIP3    H141919   7.574   0.545   5.744
13992TIP3    H241920   7.666   0.664   5.725
13993TIP3   OH241921   5.934   7.605   0.270
13993TIP3    H141922   5.982   7.671   0.220
13993TIP3    H241923   5.992   7.528   0.271
13994TIP3   OH241924   2.723   7.629   2.764
13994TIP3    H141925   2.650   7.608   2.822
13994TIP3    H241926   2.775   7.692   2.813
13995TIP3   OH241927   5.804   4.014   0.740
13995TIP3    H141928   5.818   3.942   0.801
13995TIP3    H241929   5.885   4.019   0.690
13996TIP3   OH241930   6.862   6.203   1.234
13996TIP3    H141931   6.869   6.298   1.222
13996TIP3    H241932   6.771   6.189   1.258
13997TIP3   OH241933   0.270   4.276   2.547
13997TIP3    H141934   0.196   4.284   2.608
13997TIP3    H241935   0.335   4.225   2.594
13998TIP3   OH241936   7.606   1.985   2.721
13998TIP3    H141937   7.541   2.029   2.776
13998TIP3    H241938   7.594   2.024   2.634
13999TIP3   OH241939   6.648   3.138   3.732
13999TIP3    H141940   6.709   3.074   3.768
13999TIP3    H241941   6.697   3.220   3.732
14000TIP3   OH241942   2.592   5.094   6.123
14000TIP3    H141943   2.538   5.171   6.139
14000TIP3    H241944   2.546   5.047   6.053
14001TIP3   OH241945   3.016   3.564   1.395
14001TIP3    H141946   3.036   3.473   1.415
14001TIP3    H241947   3.083   3.615   1.442
14002TIP3   OH241948   3.796   5.863   1.572
14002TIP3    H141949   3.728   5.866   1.504
14002TIP3    H241950   3.780   5.941   1.626
14003TIP3   OH241951   7.683   6.369   3.167
14003TIP3    H141952   7.659   6.423   3.091
14003TIP3    H241953   7.705   6.284   3.130
14004TIP3   OH241954   1.623   1.644   4.371
14004TIP3    H141955   1.694   1.632   4.307
14004TIP3    H241956   1.543   1.628   4.321
14005TIP3   OH241957   6.634   5.010   5.136
14005TIP3    H141958   6.716   4.967   5.114
14005TIP3    H241959   6.573   4.982   5.067
14006TIP3   OH241960   8.265   6.557   1.717
14006TIP3    H141961   8.291   6.639   1.760
14006TIP3    H241962   8.175   6.542   1.745
14007TIP3   OH241963   1.967   5.637   0.568
14007TIP3    H141964   1.972   5.689   0.488
14007TIP3    H241965   2.020   5.559   0.550
14008TIP3   OH241966   3.793   7.010   5.237
14008TIP3    H141967   3.700   7.022   5.258
14008TIP3    H241968   3.836   7.007   5.322
14009TIP3   OH241969   4.182   4.233   0.610
14009TIP3    H141970   4.134   4.273   0.538
14009TIP3    H241971   4.219   4.153   0.572
14010TIP3   OH241972   6.022   1.348   5.711
14010TIP3    H141973   6.116   1.340   5.724
14010TIP3    H241974   5.991   1.257   5.704
14011TIP3   OH241975   2.856   0.157   4.367
14011TIP3    H141976   2.802   0.199   4.435
14011TIP3    H241977   2.806   0.168   4.287
14012TIP3   OH241978   5.885   5.917   6.454
14012TIP3    H141979   5.950   5.988   6.449
14012TIP3    H241980   5.901   5.876   6.539
14013TIP3   OH241981   2.082   6.313   0.074
14013TIP3    H141982   2.154   6.345   0.020
14013TIP3    H241983   2.005   6.321   0.019
14014TIP3   OH241984   1.233   1.687   5.286
14014TIP3    H141985   1.170   1.620   5.261
14014TIP3    H241986   1.261   1.726   5.204
14015TIP3   OH241987   2.168   5.905   1.513
14015TIP3    H141988   2.241   5.864   1.560
14015TIP3    H241989   2.096   5.843   1.521
14016TIP3   OH241990   8.172   2.543   2.786
14016TIP3    H141991   8.218   2.624   2.808
14016TIP3    H241992   8.083   2.557   2.817
14017TIP3   OH241993   5.987   6.010   0.556
14017TIP3    H141994   6.079   6.001   0.582
14017TIP3    H241995   5.943   6.038   0.636
14018TIP3   OH241996   0.406   0.780   5.533
14018TIP3    H141997   0.422   0.805   5.624
14018TIP3    H241998   0.328   0.725   5.536
14019TIP3   OH241999   6.939   4.906   5.961
14019TIP3    H142000   6.904   4.819   5.941
14019TIP3    H242001   6.864   4.956   5.991
14020TIP3   OH242002   3.190   7.716   5.203
14020TIP3    H142003   3.187   7.689   5.111
14020TIP3    H242004   3.107   7.761   5.217
14021TIP3   OH242005   7.790   3.275   4.399
14021TIP3    H142006   7.848   3.199   4.400
14021TIP3    H242007   7.788   3.304   4.308
14022TIP3   OH242008   2.581   5.120   4.063
14022TIP3    H142009   2.525   5.084   3.994
14022TIP3    H242010   2.666   5.132   4.021
14023TIP3   OH242011   4.667   0.799   1.775
14023TIP3    H142012   4.746   0.764   1.816
14023TIP3    H242013   4.644   0.735   1.708
14024TIP3   OH242014   5.801   6.637   3.884
14024TIP3    H142015   5.816   6.601   3.971
14024TIP3    H242016   5.706   6.632   3.872
14025TIP3   OH242017   6.232   0.885   1.006
14025TIP3    H142018   6.244   0.957   0.944
14025TIP3    H242019   6.255   0.923   1.091
14026TIP3   OH242020   7.708   4.574   2.138
14026TIP3    H142021   7.738   4.486   2.117
14026TIP3    H242022   7.786   4.629   2.125
14027TIP3   OH242023   0.865   2.459   5.054
14027TIP3    H142024   0.859   2.421   5.141
14027TIP3    H242025   0.948   2.507   5.054
14028TIP3   OH242026   7.168   4.145   2.816
14028TIP3    H142027   7.099   4.203   2.848
14028TIP3    H242028   7.123   4.076   2.768
14029TIP3   OH242029   4.302   7.249   0.276
14029TIP3    H142030   4.297   7.343   0.294
14029TIP3    H242031   4.392   7.225   0.297
14030TIP3   OH242032   5.769   5.858   4.966
14030TIP3    H142033   5.705   5.790   4.944
14030TIP3    H242034   5.830   5.815   5.025
14031TIP3   OH242035   5.572   6.730   1.361
14031TIP3    H142036   5.577   6.641   1.324
14031TIP3    H242037   5.491   6.729   1.413
14032TIP3   OH242038   1.700   4.067   0.492
14032TIP3    H142039   1.720   4.112   0.574
14032TIP3    H242040   1.608   4.087   0.474
14033TIP3   OH242041   4.535   1.862   4.358
14033TIP3    H142042   4.575   1.791   4.408
14033TIP3    H242043   4.608   1.903   4.313
14034TIP3   OH242044   0.695   0.332   1.933
14034TIP3    H142045   0.756   0.297   1.998
14034TIP3    H242046   0.638   0.391   1.983
14035TIP3   OH242047   0.604   6.205   0.598
14035TIP3    H142048   0.661   6.138   0.638
14035TIP3    H242049   0.638   6.216   0.510
14036TIP3   OH242050   3.239   2.146   6.325
14036TIP3    H142051   3.286   2.226   6.348
14036TIP3    H242052   3.303   2.094   6.277
14037TIP3   OH242053   3.048   1.334   3.576
14037TIP3    H142054   2.956   1.351   3.557
14037TIP3    H242055   3.056   1.344   3.671
14038TIP3   OH242056   3.942   2.591   2.184
14038TIP3    H142057   3.897   2.601   2.268
14038TIP3    H242058   4.026   2.552   2.206
14039TIP3   OH242059   4.100   6.806   3.290
14039TIP3    H142060   4.068   6.777   3.375
14039TIP3    H242061   4.135   6.728   3.249
14040TIP3   OH242062   0.473   2.677   5.448
14040TIP3    H142063   0.516   2.606   5.401
14040TIP3    H242064   0.413   2.715   5.385
14041TIP3   OH242065   3.914   1.131   3.406
14041TIP3    H142066   3.979   1.086   3.351
14041TIP3    H242067   3.927   1.224   3.387
14042TIP3   OH242068   2.872   4.766   2.336
14042TIP3    H142069   2.893   4.832   2.270
14042TIP3    H242070   2.874   4.683   2.289
14043TIP3   OH242071   4.210   4.315   3.186
14043TIP3    H142072   4.207   4.301   3.092
14043TIP3    H242073   4.133   4.369   3.205
14044TIP3   OH242074   3.626   5.580   4.523
14044TIP3    H142075   3.603   5.564   4.432
14044TIP3    H242076   3.688   5.510   4.544
14045TIP3   OH242077   5.087   7.006   0.726
14045TIP3    H142078   5.144   7.082   0.717
14045TIP3    H242079   5.052   6.991   0.638
14046TIP3   OH242080   1.590   3.038   4.161
14046TIP3    H142081   1.543   3.051   4.244
14046TIP3    H242082   1.588   3.123   4.118
14047TIP3   OH242083   7.986   5.063   3.813
14047TIP3    H142084   7.924   4.992   3.794
14047TIP3    H242085   8.039   5.069   3.733
14048TIP3   OH242086   4.239   4.249   6.104
14048TIP3    H142087   4.265   4.197   6.180
14048TIP3    H242088   4.151   4.217   6.082
14049TIP3   OH242089   6.868   3.445   1.542
14049TIP3    H142090   6.830   3.531   1.556
14049TIP3    H242091   6.852   3.425   1.450
14050TIP3   OH242092   4.675   7.087   5.658
14050TIP3    H142093   4.753   7.055   5.704
14050TIP3    H242094   4.655   7.019   5.593
14051TIP3   OH242095   7.175   2.269   2.572
14051TIP3    H142096   7.242   2.289   2.637
14051TIP3    H242097   7.125   2.350   2.564
14052TIP3   OH242098   2.185   7.674   2.057
14052TIP3    H142099   2.221   7.757   2.026
14052TIP3    H242100   2.256   7.634   2.107
14053TIP3   OH242101   1.262   7.148   5.960
14053TIP3    H142102   1.235   7.109   6.043
14053TIP3    H242103   1.341   7.198   5.982
14054TIP3   OH242104   6.308   3.153   2.642
14054TIP3    H142105   6.280   3.098   2.716
14054TIP3    H242106   6.372   3.213   2.680
14055TIP3   OH242107   1.999   5.351   4.353
14055TIP3    H142108   1.965   5.308   4.432
14055TIP3    H242109   1.924   5.355   4.294
14056TIP3   OH242110   1.057   4.559   0.020
14056TIP3    H142111   0.982   4.596   0.067
14056TIP3    H242112   1.059   4.467   0.047
14057TIP3   OH242113   6.367   7.626   0.944
14057TIP3    H142114   6.397   7.712   0.913
14057TIP3    H242115   6.407   7.563   0.884
14058TIP3   OH242116   2.965   2.902   5.652
14058TIP3    H142117   3.013   2.856   5.583
14058TIP3    H242118   2.995   2.993   5.646
14059TIP3   OH242119   3.722   1.346   3.240
14059TIP3    H142120   3.646   1.310   3.286
14059TIP3    H242121   3.778   1.380   3.310
14060TIP3   OH242122   3.811   6.705   4.178
14060TIP3    H142123   3.771   6.726   4.094
14060TIP3    H242124   3.770   6.623   4.205
14061TIP3   OH242125   1.392   2.638   3.182
14061TIP3    H142126   1.299   2.644   3.161
14061TIP3    H242127   1.400   2.677   3.269
14062TIP3   OH242128   2.899   0.858   1.674
14062TIP3    H142129   2.806   0.856   1.696
14062TIP3    H242130   2.922   0.951   1.674
14063TIP3   OH242131   8.264   5.126   2.845
14063TIP3    H142132   8.201   5.163   2.783
14063TIP3    H242133   8.333   5.088   2.791
14064TIP3   OH242134   4.858   3.378   0.487
14064TIP3    H142135   4.800   3.310   0.522
14064TIP3    H242136   4.824   3.460   0.522
14065TIP3   OH242137   2.079   3.075   5.682
14065TIP3    H142138   2.129   3.153   5.662
14065TIP3    H242139   2.141   3.018   5.729
14066TIP3   OH242140   5.216   4.886   2.141
14066TIP3    H142141   5.268   4.965   2.129
14066TIP3    H242142   5.162   4.904   2.218
14067TIP3   OH242143   2.180   4.121   5.911
14067TIP3    H142144   2.108   4.088   5.857
14067TIP3    H242145   2.188   4.213   5.887
14068TIP3   OH242146   5.171   6.990   1.082
14068TIP3    H142147   5.200   6.923   1.144
14068TIP3    H242148   5.108   7.043   1.132
14069TIP3   OH242149   2.471   0.560   3.846
14069TIP3    H142150   2.451   0.584   3.937
14069TIP3    H242151   2.476   0.644   3.800
14070TIP3   OH242152   0.187   4.221   4.829
14070TIP3    H142153   0.257   4.285   4.837
14070TIP3    H242154   0.122   4.263   4.773
14071TIP3   OH242155   4.534   3.219   5.189
14071TIP3    H142156   4.587   3.288   5.228
14071TIP3    H242157   4.588   3.186   5.117
14072TIP3   OH242158   0.914   6.474   6.229
14072TIP3    H142159   0.967   6.413   6.177
14072TIP3    H242160   0.849   6.418   6.272
14073TIP3   OH242161   4.059   0.750   6.096
14073TIP3    H142162   4.138   0.803   6.102
14073TIP3    H242163   3.996   0.806   6.052
14074TIP3   OH242164   0.150   4.363   2.780
14074TIP3    H142165   0.128   4.287   2.834
14074TIP3    H242166   0.175   4.431   2.843
14075TIP3   OH242167   3.514   7.407   2.292
14075TIP3    H142168   3.433   7.368   2.259
14075TIP3    H242169   3.525   7.369   2.379
14076TIP3   OH242170   3.820   1.614   0.233
14076TIP3    H142171   3.852   1.590   0.146
14076TIP3    H242172   3.894   1.658   0.275
14077TIP3   OH242173   3.861   7.590   0.880
14077TIP3    H142174   3.777   7.610   0.921
14077TIP3    H242175   3.883   7.670   0.831
14078TIP3   OH242176   2.389   2.887   1.410
14078TIP3    H142177   2.295   2.903   1.415
14078TIP3    H242178   2.423   2.916   1.494
14079TIP3   OH242179   4.143   3.497   6.717
14079TIP3    H142180   4.097   3.568   6.762
14079TIP3    H242181   4.154   3.528   6.627
14080TIP3   OH242182   1.638   4.177   4.529
14080TIP3    H142183   1.644   4.216   4.616
14080TIP3    H242184   1.570   4.227   4.485
14081TIP3   OH242185   0.360   1.514   3.049
14081TIP3    H142186   0.405   1.526   2.965
14081TIP3    H242187   0.278   1.471   3.025
14082TIP3   OH242188   0.841   6.610   2.680
14082TIP3    H142189   0.891   6.534   2.651
14082TIP3    H242190   0.790   6.636   2.603
14083TIP3   OH242191   7.542   4.209   3.866
14083TIP3    H142192   7.621   4.191   3.917
14083TIP3    H242193   7.537   4.136   3.804
14084TIP3   OH242194   4.873   6.178   6.260
14084TIP3    H142195   4.944   6.197   6.321
14084TIP3    H242196   4.913   6.180   6.174
14085TIP3   OH242197   3.150   1.194   2.086
14085TIP3    H142198   3.078   1.231   2.035
14085TIP3    H242199   3.198   1.271   2.117
14086TIP3   OH242200   1.256   7.583   2.450
14086TIP3    H142201   1.194   7.597   2.378
14086TIP3    H242202   1.337   7.557   2.406
14087TIP3   OH242203   0.277   7.106   6.149
14087TIP3    H142204   0.347   7.145   6.098
14087TIP3    H242205   0.312   7.021   6.176
14088TIP3   OH242206   5.514   2.682   5.639
14088TIP3    H142207   5.588   2.680   5.699
14088TIP3    H242208   5.552   2.663   5.554
14089TIP3   OH242209   7.469   5.327   3.947
14089TIP3    H142210   7.397   5.321   4.010
14089TIP3    H242211   7.510   5.241   3.948
14090TIP3   OH242212   2.904   3.966   2.080
14090TIP3    H142213   2.843   4.035   2.056
14090TIP3    H242214   2.859   3.885   2.057
14091TIP3   OH242215   5.702   3.939   5.249
14091TIP3    H142216   5.657   3.876   5.194
14091TIP3    H242217   5.792   3.939   5.216
14092TIP3   OH242218   6.941   3.893   0.708
14092TIP3    H142219   7.009   3.880   0.774
14092TIP3    H242220   6.947   3.817   0.651
14093TIP3   OH242221   4.424   4.359   5.922
14093TIP3    H142222   4.506   4.314   5.943
14093TIP3    H242223   4.362   4.327   5.987
14094TIP3   OH242224   4.295   3.363   2.142
14094TIP3    H142225   4.272   3.319   2.060
14094TIP3    H242226   4.217   3.355   2.197
14095TIP3   OH242227   5.134   5.640   3.799
14095TIP3    H142228   5.039   5.654   3.803
14095TIP3    H242229   5.161   5.685   3.719
14096TIP3   OH242230   5.343   2.336   3.434
14096TIP3    H142231   5.435   2.348   3.407
14096TIP3    H242232   5.348   2.287   3.516
14097TIP3   OH242233   7.513   0.705   0.819
14097TIP3    H142234   7.589   0.671   0.772
14097TIP3    H242235   7.440   0.694   0.759
14098TIP3   OH242236   3.343   7.398   1.112
14098TIP3    H142237   3.248   7.409   1.105
14098TIP3    H242238   3.380   7.469   1.060
14099TIP3   OH242239   1.129   1.697   3.337
14099TIP3    H142240   1.104   1.631   3.273
14099TIP3    H242241   1.209   1.736   3.301
14100TIP3   OH242242   3.196   1.840   6.437
14100TIP3    H142243   3.285   1.838   6.473
14100TIP3    H242244   3.182   1.931   6.412
14101TIP3   OH242245   1.398   1.291   5.922
14101TIP3    H142246   1.327   1.231   5.946
14101TIP3    H242247   1.353   1.371   5.894
14102TIP3   OH242248   2.120   6.594   5.751
14102TIP3    H142249   2.163   6.569   5.669
14102TIP3    H242250   2.095   6.686   5.738
14103TIP3   OH242251   7.857   5.324   4.251
14103TIP3    H142252   7.905   5.243   4.234
14103TIP3    H242253   7.797   5.302   4.322
14104TIP3   OH242254   5.838   6.067   4.564
14104TIP3    H142255   5.825   6.092   4.473
14104TIP3    H242256   5.919   6.111   4.591
14105TIP3   OH242257   4.887   1.449   2.348
14105TIP3    H142258   4.909   1.500   2.270
14105TIP3    H242259   4.896   1.358   2.320
14106TIP3   OH242260   1.461   4.403   4.898
14106TIP3    H142261   1.526   4.332   4.897
14106TIP3    H242262   1.386   4.367   4.851
14107TIP3   OH242263   5.248   5.525   5.340
14107TIP3    H142264   5.250   5.519   5.245
14107TIP3    H242265   5.267   5.616   5.360
14108TIP3   OH242266   3.304   4.633   2.477
14108TIP3    H142267   3.256   4.565   2.525
14108TIP3    H242268   3.315   4.704   2.541
14109TIP3   OH242269   1.725   0.141   5.004
14109TIP3    H142270   1.723   0.157   4.909
14109TIP3    H242271   1.799   0.192   5.036
14110TIP3   OH242272   4.139   5.549   0.181
14110TIP3    H142273   4.224   5.588   0.161
14110TIP3    H242274   4.119   5.495   0.104
14111TIP3   OH242275   4.569   1.837   0.503
14111TIP3    H142276   4.610   1.907   0.555
14111TIP3    H242277   4.575   1.760   0.559
14112TIP3   OH242278   4.202   5.819   4.234
14112TIP3    H142279   4.210   5.913   4.249
14112TIP3    H242280   4.230   5.779   4.317
14113TIP3   OH242281   3.644   7.388   2.878
14113TIP3    H142282   3.595   7.319   2.921
14113TIP3    H242283   3.613   7.469   2.919
14114TIP3   OH242284   4.133   1.495   2.721
14114TIP3    H142285   4.145   1.401   2.713
14114TIP3    H242286   4.200   1.533   2.664
14115TIP3   OH242287   0.272   0.430   6.439
14115TIP3    H142288   0.243   0.437   6.530
14115TIP3    H242289   0.210   0.485   6.391
14116TIP3   OH242290   2.480   6.776   0.831
14116TIP3    H142291   2.432   6.794   0.750
14116TIP3    H242292   2.416   6.787   0.901
14117TIP3   OH242293   2.884   0.492   4.408
14117TIP3    H142294   2.906   0.438   4.332
14117TIP3    H242295   2.950   0.561   4.409
14118TIP3   OH242296   2.321   0.173   1.389
14118TIP3    H142297   2.287   0.253   1.348
14118TIP3    H242298   2.409   0.197   1.419
14119TIP3   OH242299   0.650   2.572   4.944
14119TIP3    H142300   0.714   2.509   4.977
14119TIP3    H242301   0.569   2.523   4.935
14120TIP3   OH242302   7.732   0.282   3.027
14120TIP3    H142303   7.728   0.355   3.089
14120TIP3    H242304   7.782   0.316   2.953
14121TIP3   OH242305   4.120   2.959   4.818
14121TIP3    H142306   4.172   2.939   4.740
14121TIP3    H242307   4.143   3.049   4.839
14122TIP3   OH242308   7.115   6.105   5.947
14122TIP3    H142309   7.198   6.129   5.906
14122TIP3    H242310   7.097   6.016   5.917
14123TIP3   OH242311   0.961   5.607   0.659
14123TIP3    H142312   1.032   5.550   0.633
14123TIP3    H242313   0.977   5.689   0.612
14124TIP3   OH242314   6.111   0.765   6.087
14124TIP3    H142315   6.046   0.771   6.157
14124TIP3    H242316   6.094   0.842   6.032
14125TIP3   OH242317   6.384   4.490   5.115
14125TIP3    H142318   6.304   4.456   5.154
14125TIP3    H242319   6.405   4.428   5.044
14126TIP3   OH242320   2.838   5.674   6.114
14126TIP3    H142321   2.792   5.628   6.043
14126TIP3    H242322   2.930   5.671   6.088
14127TIP3   OH242323   5.106   6.286   0.046
14127TIP3    H142324   5.149   6.210   0.006
14127TIP3    H242325   5.015   6.280   0.017
14128TIP3   OH242326   6.678   1.516   0.387
14128TIP3    H142327   6.659   1.428   0.353
14128TIP3    H242328   6.655   1.575   0.316
14129TIP3   OH242329   6.376   5.554   1.831
14129TIP3    H142330   6.302   5.517   1.879
14129TIP3    H242331   6.337   5.621   1.775
14130TIP3   OH242332   5.335   4.114   6.328
14130TIP3    H142333   5.375   4.198   6.351
14130TIP3    H242334   5.295   4.084   6.409
14131TIP3   OH242335   0.855   2.619   6.640
14131TIP3    H142336   0.845   2.625   6.735
14131TIP3    H242337   0.941   2.580   6.628
14132TIP3   OH242338   7.078   4.484   6.145
14132TIP3    H142339   6.985   4.489   6.120
14132TIP3    H242340   7.079   4.429   6.222
14133TIP3   OH242341   0.635   0.184   5.013
14133TIP3    H142342   0.559   0.230   4.977
14133TIP3    H242343   0.658   0.119   4.947
14134TIP3   OH242344   1.836   4.866   1.543
14134TIP3    H142345   1.777   4.907   1.605
14134TIP3    H242346   1.820   4.773   1.551
14135TIP3   OH242347   4.696   5.357   2.736
14135TIP3    H142348   4.630   5.310   2.685
14135TIP3    H242349   4.670   5.343   2.828
14136TIP3   OH242350   0.695   5.242   6.293
14136TIP3    H142351   0.629   5.308   6.318
14136TIP3    H242352   0.776   5.292   6.285
14137TIP3   OH242353   7.366   4.337   5.700
14137TIP3    H142354   7.397   4.418   5.660
14137TIP3    H242355   7.328   4.365   5.784
14138TIP3   OH242356   6.639   5.157   1.634
14138TIP3    H142357   6.637   5.129   1.726
14138TIP3    H242358   6.684   5.241   1.635
14139TIP3   OH242359   8.255   6.387   4.291
14139TIP3    H142360   8.339   6.365   4.329
14139TIP3    H242361   8.221   6.304   4.257
14140TIP3   OH242362   5.050   7.595   6.216
14140TIP3    H142363   5.071   7.503   6.200
14140TIP3    H242364   5.128   7.643   6.188
14141TIP3   OH242365   0.038   7.161   0.264
14141TIP3    H142366   0.125   7.195   0.246
14141TIP3    H242367  -0.015   7.188   0.189
14142TIP3   OH242368   2.770   7.019   2.935
14142TIP3    H142369   2.865   7.031   2.929
14142TIP3    H242370   2.741   7.014   2.844
14143TIP3   OH242371   0.814   7.419   2.672
14143TIP3    H142372   0.836   7.356   2.604
14143TIP3    H242373   0.893   7.473   2.681
14144TIP3   OH242374   0.485   4.430   1.954
14144TIP3    H142375   0.405   4.476   1.977
14144TIP3    H242376   0.551   4.466   2.013
14145TIP3   OH242377   4.682   6.782   5.332
14145TIP3    H142378   4.768   6.743   5.318
14145TIP3    H242379   4.680   6.857   5.272
14146TIP3   OH242380   1.631   7.371   3.072
14146TIP3    H142381   1.658   7.357   3.162
14146TIP3    H242382   1.543   7.408   3.079
14147TIP3   OH242383   0.635   6.075  -0.036
14147TIP3    H142384   0.638   6.029   0.048
14147TIP3    H242385   0.705   6.141  -0.029
14148TIP3   OH242386   4.301   5.370   5.878
14148TIP3    H142387   4.372   5.323   5.835
14148TIP3    H242388   4.289   5.448   5.825
14149TIP3   OH242389   3.750   4.138   5.361
14149TIP3    H142390   3.671   4.088   5.381
14149TIP3    H242391   3.738   4.165   5.270
14150TIP3   OH242392   6.624   1.022   3.115
14150TIP3    H142393   6.704   1.034   3.063
14150TIP3    H242394   6.631   0.933   3.150
14151TIP3   OH242395   3.453   5.256   0.483
14151TIP3    H142396   3.455   5.238   0.577
14151TIP3    H242397   3.379   5.204   0.450
14152TIP3   OH242398   5.139   5.462   0.641
14152TIP3    H142399   5.068   5.403   0.668
14152TIP3    H242400   5.164   5.432   0.554
14153TIP3   OH242401   7.087   6.704   4.787
14153TIP3    H142402   7.060   6.778   4.841
14153TIP3    H242403   7.040   6.629   4.824
14154TIP3   OH242404   7.074   0.361   6.080
14154TIP3    H142405   7.144   0.413   6.041
14154TIP3    H242406   6.996   0.416   6.074
14155TIP3   OH242407   5.865   6.097   4.902
14155TIP3    H142408   5.799   6.142   4.849
14155TIP3    H242409   5.825   6.013   4.923
14156TIP3   OH242410   2.468   6.312   4.215
14156TIP3    H142411   2.495   6.249   4.282
14156TIP3    H242412   2.415   6.376   4.263
14157TIP3   OH242413   5.708   7.182   0.776
14157TIP3    H142414   5.613   7.180   0.772
14157TIP3    H242415   5.730   7.137   0.858
14158TIP3   OH242416   2.873   0.207   0.934
14158TIP3    H142417   2.858   0.302   0.943
14158TIP3    H242418   2.843   0.186   0.846
14159TIP3   OH242419   2.701   3.044   0.873
14159TIP3    H142420   2.662   2.957   0.871
14159TIP3    H242421   2.734   3.054   0.962
14160TIP3   OH242422   5.246   6.202   4.607
14160TIP3    H142423   5.261   6.259   4.682
14160TIP3    H242424   5.171   6.148   4.632
14161TIP3   OH242425   5.879   1.065   1.448
14161TIP3    H142426   5.817   1.138   1.438
14161TIP3    H242427   5.949   1.100   1.502
14162TIP3   OH242428   1.333   4.676   3.953
14162TIP3    H142429   1.245   4.681   3.917
14162TIP3    H242430   1.373   4.760   3.932
14163TIP3   OH242431   7.804   0.550   5.234
14163TIP3    H142432   7.854   0.511   5.306
14163TIP3    H242433   7.775   0.635   5.269
14164TIP3   OH242434   4.858   3.857   2.622
14164TIP3    H142435   4.877   3.820   2.709
14164TIP3    H242436   4.942   3.892   2.593
14165TIP3   OH242437   0.565   6.497   3.157
14165TIP3    H142438   0.540   6.547   3.235
14165TIP3    H242439   0.615   6.558   3.104
14166TIP3   OH242440   1.573   5.458   4.665
14166TIP3    H142441   1.507   5.471   4.733
14166TIP3    H242442   1.630   5.389   4.700
14167TIP3   OH242443   2.300   6.187   2.916
14167TIP3    H142444   2.262   6.108   2.954
14167TIP3    H242445   2.250   6.259   2.954
14168TIP3   OH242446   4.910   5.690   5.628
14168TIP3    H142447   4.927   5.668   5.719
14168TIP3    H242448   4.815   5.700   5.622
14169TIP3   OH242449   6.351   5.831   2.998
14169TIP3    H142450   6.430   5.789   2.963
14169TIP3    H242451   6.381   5.918   3.024
14170TIP3   OH242452   5.434   2.072   3.550
14170TIP3    H142453   5.343   2.045   3.563
14170TIP3    H242454   5.483   1.990   3.550
14171TIP3   OH242455   3.686   4.278   4.427
14171TIP3    H142456   3.729   4.220   4.364
14171TIP3    H242457   3.746   4.352   4.437
14172TIP3   OH242458   7.975   4.932   1.695
14172TIP3    H142459   7.890   4.938   1.738
14172TIP3    H242460   8.013   5.019   1.704
14173TIP3   OH242461   7.477   0.216   3.157
14173TIP3    H142462   7.457   0.125   3.181
14173TIP3    H242463   7.561   0.211   3.112
14174TIP3   OH242464   2.636   5.754   6.795
14174TIP3    H142465   2.669   5.815   6.730
14174TIP3    H242466   2.707   5.690   6.807
14175TIP3   OH242467   5.737   2.704   5.795
14175TIP3    H142468   5.816   2.658   5.769
14175TIP3    H242469   5.759   2.797   5.786
14176TIP3   OH242470   6.023   3.637   5.983
14176TIP3    H142471   6.001   3.581   6.056
14176TIP3    H242472   6.119   3.643   5.985
14177TIP3   OH242473   8.177   6.625   5.514
14177TIP3    H142474   8.190   6.668   5.430
14177TIP3    H242475   8.255   6.647   5.566
14178TIP3   OH242476   7.822   7.639   5.121
14178TIP3    H142477   7.778   7.600   5.045
14178TIP3    H242478   7.903   7.588   5.129
14179TIP3   OH242479   4.628   7.030   0.403
14179TIP3    H142480   4.571   6.961   0.370
14179TIP3    H242481   4.672   7.064   0.325
14180TIP3   OH242482   5.982   3.317   0.118
14180TIP3    H142483   5.943   3.383   0.175
14180TIP3    H242484   5.955   3.344   0.030
14181TIP3   OH242485   5.955   2.468   0.942
14181TIP3    H142486   5.913   2.427   1.018
14181TIP3    H242487   6.013   2.400   0.908
14182TIP3   OH242488   5.454   4.175   5.945
14182TIP3    H142489   5.438   4.131   6.028
14182TIP3    H242490   5.473   4.266   5.968
14183TIP3   OH242491   4.230   1.057   6.257
14183TIP3    H142492   4.157   1.092   6.206
14183TIP3    H242493   4.220   0.962   6.252
14184TIP3   OH242494   3.851   4.513   6.450
14184TIP3    H142495   3.911   4.585   6.472
14184TIP3    H242496   3.861   4.504   6.355
14185TIP3   OH242497   4.109   4.153   6.755
14185TIP3    H142498   4.080   4.240   6.783
14185TIP3    H242499   4.056   4.135   6.677
14186TIP3   OH242500   2.268   6.619   6.493
14186TIP3    H142501   2.302   6.687   6.434
14186TIP3    H242502   2.201   6.574   6.441
14187TIP3   OH242503   2.879   0.577   3.410
14187TIP3    H142504   2.898   0.537   3.495
14187TIP3    H242505   2.785   0.565   3.399
14188TIP3   OH242506   1.438   2.087   3.581
14188TIP3    H142507   1.420   2.100   3.488
14188TIP3    H242508   1.464   1.995   3.588
14189TIP3   OH242509   0.498   6.965   1.770
14189TIP3    H142510   0.508   6.884   1.820
14189TIP3    H242511   0.433   6.944   1.703
14190TIP3   OH242512   2.098   1.587   4.047
14190TIP3    H142513   2.156   1.529   4.095
14190TIP3    H242514   2.115   1.674   4.084
14191TIP3   OH242515   6.128   7.597   1.798
14191TIP3    H142516   6.211   7.628   1.833
14191TIP3    H242517   6.138   7.502   1.793
14192TIP3   OH242518   7.318   5.283   2.170
14192TIP3    H142519   7.328   5.362   2.223
14192TIP3    H242520   7.285   5.315   2.086
14193TIP3   OH242521   4.310   1.584   5.815
14193TIP3    H142522   4.345   1.602   5.902
14193TIP3    H242523   4.224   1.626   5.814
14194TIP3   OH242524   0.683   3.915   6.559
14194TIP3    H142525   0.656   3.971   6.631
14194TIP3    H242526   0.764   3.955   6.527
14195TIP3   OH242527   0.400   2.186   5.990
14195TIP3    H142528   0.321   2.162   5.941
14195TIP3    H242529   0.443   2.252   5.936
14196TIP3   OH242530   5.819   4.417   2.307
14196TIP3    H142531   5.768   4.393   2.230
14196TIP3    H242532   5.886   4.476   2.274
14197TIP3   OH242533   3.784   3.633   5.617
14197TIP3    H142534   3.711   3.601   5.669
14197TIP3    H242535   3.744   3.664   5.535
14198TIP3   OH242536   0.515   7.679   4.177
14198TIP3    H142537   0.587   7.627   4.141
14198TIP3    H242538   0.517   7.760   4.127
14199TIP3   OH242539   6.781   1.914   6.746
14199TIP3    H142540   6.831   1.989   6.715
14199TIP3    H242541   6.705   1.952   6.791
14200TIP3   OH242542   2.272   3.810   0.777
14200TIP3    H142543   2.335   3.812   0.848
14200TIP3    H242544   2.296   3.732   0.726
14201TIP3   OH242545   6.420   4.692   1.815
14201TIP3    H142546   6.511   4.663   1.803
14201TIP3    H242547   6.376   4.617   1.854
14202TIP3   OH242548   5.201   2.558   3.827
14202TIP3    H142549   5.264   2.589   3.891
14202TIP3    H242550   5.188   2.466   3.849
14203TIP3   OH242551   6.630   1.112   5.239
14203TIP3    H142552   6.698   1.122   5.305
14203TIP3    H242553   6.667   1.153   5.160
14204TIP3   OH242554   1.627   5.180   3.845
14204TIP3    H142555   1.695   5.124   3.882
14204TIP3    H242556   1.668   5.267   3.841
14205TIP3   OH242557   0.414   7.042   5.762
14205TIP3    H142558   0.407   6.996   5.678
14205TIP3    H242559   0.427   6.972   5.827
14206TIP3   OH242560   0.564   2.349   3.566
14206TIP3    H142561   0.588   2.395   3.485
14206TIP3    H242562   0.626   2.276   3.571
14207TIP3   OH242563   2.976   3.703   0.886
14207TIP3    H142564   2.981   3.613   0.854
14207TIP3    H242565   3.030   3.703   0.965
14208TIP3   OH242566   4.639   1.533   3.018
14208TIP3    H142567   4.594   1.489   3.090
14208TIP3    H242568   4.581   1.522   2.943
14209TIP3   OH242569   3.401   0.225   4.243
14209TIP3    H142570   3.450   0.170   4.305
14209TIP3    H242571   3.323   0.251   4.292
14210TIP3   OH242572   1.471   3.337   0.042
14210TIP3    H142573   1.382   3.318   0.072
14210TIP3    H242574   1.498   3.258  -0.004
14211TIP3   OH242575   1.573   5.092   0.649
14211TIP3    H142576   1.536   5.050   0.726
14211TIP3    H242577   1.665   5.107   0.671
14212TIP3   OH242578   5.288   1.398   1.071
14212TIP3    H142579   5.290   1.366   1.161
14212TIP3    H242580   5.323   1.487   1.076
14213TIP3   OH242581   6.050   1.089   3.320
14213TIP3    H142582   6.112   1.128   3.382
14213TIP3    H242583   6.099   1.081   3.238
14214TIP3   OH242584   5.970   4.523   4.376
14214TIP3    H142585   5.895   4.488   4.328
14214TIP3    H242586   6.014   4.580   4.313
14215TIP3   OH242587   5.173   6.807   2.391
14215TIP3    H142588   5.244   6.843   2.338
14215TIP3    H242589   5.214   6.736   2.440
14216TIP3   OH242590   4.768   5.541   2.333
14216TIP3    H142591   4.721   5.553   2.416
14216TIP3    H242592   4.855   5.576   2.349
14217TIP3   OH242593   4.650   2.235   3.305
14217TIP3    H142594   4.706   2.298   3.259
14217TIP3    H242595   4.693   2.151   3.291
14218TIP3   OH242596   4.771   2.934   6.528
14218TIP3    H142597   4.819   2.857   6.557
14218TIP3    H242598   4.800   2.949   6.438
14219TIP3   OH242599   0.100   6.848   3.614
14219TIP3    H142600   0.014   6.885   3.635
14219TIP3    H242601   0.161   6.898   3.668
14220TIP3   OH242602   3.226   6.325   2.612
14220TIP3    H142603   3.164   6.258   2.641
14220TIP3    H242604   3.261   6.292   2.530
14221TIP3   OH242605   0.404   7.382   1.262
14221TIP3    H142606   0.474   7.379   1.196
14221TIP3    H242607   0.449   7.405   1.343
14222TIP3   OH242608   7.470   4.873   3.076
14222TIP3    H142609   7.377   4.883   3.056
14222TIP3    H242610   7.475   4.879   3.171
14223TIP3   OH242611   0.000   3.796   4.141
14223TIP3    H142612   0.065   3.852   4.098
14223TIP3    H242613   0.051   3.744   4.203
14224TIP3   OH242614   4.012   2.080   3.073
14224TIP3    H142615   3.965   2.039   3.145
14224TIP3    H242616   4.083   2.130   3.115
14225TIP3   OH242617   3.222   0.868   6.287
14225TIP3    H142618   3.267   0.873   6.372
14225TIP3    H242619   3.277   0.920   6.228
14226TIP3   OH242620   3.823   2.634   2.431
14226TIP3    H142621   3.821   2.567   2.499
14226TIP3    H242622   3.869   2.707   2.471
14227TIP3   OH242623   4.730   2.775   5.865
14227TIP3    H142624   4.703   2.824   5.787
14227TIP3    H242625   4.665   2.706   5.874
14228TIP3   OH242626   2.196   3.541   6.010
14228TIP3    H142627   2.242   3.463   5.978
14228TIP3    H242628   2.236   3.559   6.095
14229TIP3   OH242629   6.584   5.856   3.703
14229TIP3    H142630   6.649   5.862   3.633
14229TIP3    H242631   6.621   5.792   3.764
14230TIP3   OH242632   4.466   1.246   2.984
14230TIP3    H142633   4.371   1.234   2.984
14230TIP3    H242634   4.493   1.224   2.895
14231TIP3   OH242635   1.177   5.800   1.380
14231TIP3    H142636   1.232   5.864   1.426
14231TIP3    H242637   1.088   5.835   1.388
14232TIP3   OH242638   3.888   4.939   3.239
14232TIP3    H142639   3.816   4.991   3.202
14232TIP3    H242640   3.956   5.003   3.259
14233TIP3   OH242641   2.081   6.658   4.415
14233TIP3    H142642   2.116   6.747   4.423
14233TIP3    H242643   2.067   6.646   4.321
14234TIP3   OH242644   4.369   1.422   3.618
14234TIP3    H142645   4.387   1.515   3.606
14234TIP3    H242646   4.351   1.389   3.531
14235TIP3   OH242647   4.621   7.221   3.677
14235TIP3    H142648   4.596   7.136   3.640
14235TIP3    H242649   4.690   7.254   3.620
14236TIP3   OH242650   0.935   6.861   4.052
14236TIP3    H142651   1.020   6.902   4.073
14236TIP3    H242652   0.871   6.917   4.096
14237TIP3   OH242653   1.659   0.571   5.933
14237TIP3    H142654   1.751   0.599   5.925
14237TIP3    H242655   1.639   0.530   5.849
14238TIP3   OH242656   6.547   3.524   1.550
14238TIP3    H142657   6.591   3.511   1.466
14238TIP3    H242658   6.454   3.522   1.530
14239TIP3   OH242659   0.707   0.208   0.645
14239TIP3    H142660   0.741   0.134   0.696
14239TIP3    H242661   0.718   0.283   0.703
14240TIP3   OH242662   7.525   7.655   2.772
14240TIP3    H142663   7.476   7.592   2.720
14240TIP3    H242664   7.596   7.684   2.715
14241TIP3   OH242665   2.028   4.702   1.774
14241TIP3    H142666   2.045   4.796   1.786
14241TIP3    H242667   1.938   4.690   1.805
14242TIP3   OH242668   0.107   3.843   0.973
14242TIP3    H142669   0.121   3.847   0.878
14242TIP3    H242670   0.178   3.788   1.005
14243TIP3   OH242671   5.240   5.265   3.131
14243TIP3    H142672   5.262   5.264   3.038
14243TIP3    H242673   5.181   5.340   3.141
14244TIP3   OH242674   2.286   5.476   4.464
14244TIP3    H142675   2.293   5.546   4.399
14244TIP3    H242676   2.204   5.431   4.442
14245TIP3   OH242677   3.908   4.353   1.354
14245TIP3    H142678   3.839   4.302   1.398
14245TIP3    H242679   3.987   4.300   1.365
14246TIP3   OH242680   4.079   3.945   0.941
14246TIP3    H142681   4.051   4.035   0.923
14246TIP3    H242682   4.130   3.920   0.863
14247TIP3   OH242683   2.756   5.200   1.865
14247TIP3    H142684   2.787   5.122   1.819
14247TIP3    H242685   2.834   5.238   1.905
14248TIP3   OH242686   3.319   6.923   0.977
14248TIP3    H142687   3.267   6.870   1.037
14248TIP3    H242688   3.323   7.009   1.017
14249TIP3   OH242689   6.462   2.920   6.123
14249TIP3    H142690   6.463   2.981   6.050
14249TIP3    H242691   6.379   2.937   6.167
14250TIP3   OH242692   4.098   2.312   1.129
14250TIP3    H142693   4.027   2.345   1.073
14250TIP3    H242694   4.057   2.244   1.182
14251TIP3   OH242695   0.017   4.419   0.098
14251TIP3    H142696  -0.029   4.375   0.026
14251TIP3    H242697   0.033   4.350   0.162
14252TIP3   OH242698   5.368   6.906   2.233
14252TIP3    H142699   5.349   6.903   2.139
14252TIP3    H242700   5.463   6.921   2.238
14253TIP3   OH242701   2.167   1.623   5.146
14253TIP3    H142702   2.092   1.588   5.099
14253TIP3    H242703   2.138   1.626   5.238
14254TIP3   OH242704   7.022   3.397   6.192
14254TIP3    H142705   7.115   3.380   6.181
14254TIP3    H242706   7.018   3.475   6.248
14255TIP3   OH242707   0.743   3.942   1.492
14255TIP3    H142708   0.713   3.852   1.485
14255TIP3    H242709   0.695   3.989   1.423
14256TIP3   OH242710   5.847   0.593   3.462
14256TIP3    H142711   5.777   0.603   3.397
14256TIP3    H242712   5.906   0.528   3.423
14257TIP3   OH242713   6.269   3.503   1.144
14257TIP3    H142714   6.292   3.549   1.063
14257TIP3    H242715   6.180   3.471   1.130
14258TIP3   OH242716   6.382   5.181   3.491
14258TIP3    H142717   6.432   5.245   3.540
14258TIP3    H242718   6.321   5.233   3.438
14259TIP3   OH242719   3.199   0.626   3.545
14259TIP3    H142720   3.132   0.563   3.571
14259TIP3    H242721   3.198   0.692   3.614
14260TIP3   OH242722   2.041   4.688   3.396
14260TIP3    H142723   2.029   4.747   3.321
14260TIP3    H242724   2.018   4.742   3.472
14261TIP3   OH242725   4.636   1.351   5.059
14261TIP3    H142726   4.662   1.290   5.128
14261TIP3    H242727   4.541   1.351   5.062
14262TIP3   OH242728   2.591   4.436   3.703
14262TIP3    H142729   2.594   4.418   3.797
14262TIP3    H242730   2.683   4.434   3.675
14263TIP3   OH242731   2.213   1.643   0.096
14263TIP3    H142732   2.131   1.595   0.110
14263TIP3    H242733   2.249   1.655   0.183
14264TIP3   OH242734   2.509   2.906   3.046
14264TIP3    H142735   2.518   2.988   2.996
14264TIP3    H242736   2.587   2.856   3.024
14265TIP3   OH242737   2.289   2.606   3.847
14265TIP3    H142738   2.254   2.562   3.925
14265TIP3    H242739   2.260   2.552   3.774
14266TIP3   OH242740   6.169   4.866   4.839
14266TIP3    H142741   6.076   4.888   4.836
14266TIP3    H242742   6.172   4.771   4.845
14267TIP3   OH242743   7.139   2.119   0.071
14267TIP3    H142744   7.217   2.124   0.016
14267TIP3    H242745   7.137   2.028   0.101
14268TIP3   OH242746   1.360   1.348   6.718
14268TIP3    H142747   1.282   1.402   6.731
14268TIP3    H242748   1.395   1.375   6.634
14269TIP3   OH242749   0.359   1.223   2.690
14269TIP3    H142750   0.360   1.316   2.670
14269TIP3    H242751   0.407   1.215   2.772
14270TIP3   OH242752   6.238   6.463   0.154
14270TIP3    H142753   6.237   6.494   0.063
14270TIP3    H242754   6.236   6.368   0.147
14271TIP3   OH242755   6.518   6.061   6.601
14271TIP3    H142756   6.568   6.026   6.528
14271TIP3    H242757   6.560   6.023   6.679
14272TIP3   OH242758   2.622   6.581   5.467
14272TIP3    H142759   2.596   6.504   5.517
14272TIP3    H242760   2.579   6.571   5.383
14273TIP3   OH242761   4.680   0.396   4.783
14273TIP3    H142762   4.695   0.303   4.799
14273TIP3    H242763   4.666   0.433   4.871
14274TIP3   OH242764   6.100   4.746   6.295
14274TIP3    H142765   6.069   4.837   6.295
14274TIP3    H242766   6.046   4.702   6.229
14275TIP3   OH242767   1.104   3.180   1.669
14275TIP3    H142768   1.030   3.223   1.626
14275TIP3    H242769   1.101   3.211   1.760
14276TIP3   OH242770   2.303   4.943   4.564
14276TIP3    H142771   2.229   4.961   4.621
14276TIP3    H242772   2.270   4.959   4.476
14277TIP3   OH242773   3.713   5.713   2.859
14277TIP3    H142774   3.653   5.672   2.921
14277TIP3    H242775   3.692   5.672   2.774
14278TIP3   OH242776   5.525   3.649   4.922
14278TIP3    H142777   5.513   3.611   4.835
14278TIP3    H242778   5.557   3.577   4.976
14279TIP3   OH242779   6.590   4.397   2.923
14279TIP3    H142780   6.547   4.342   2.858
14279TIP3    H242781   6.532   4.473   2.933
14280TIP3   OH242782   0.893   4.162   0.269
14280TIP3    H142783   0.974   4.130   0.310
14280TIP3    H242784   0.823   4.113   0.312
14281TIP3   OH242785   6.485   2.210   5.960
14281TIP3    H142786   6.409   2.172   6.005
14281TIP3    H242787   6.554   2.208   6.026
14282TIP3   OH242788   0.318   0.129   1.437
14282TIP3    H142789   0.334   0.212   1.391
14282TIP3    H242790   0.240   0.093   1.394
14283TIP3   OH242791   3.118   3.589   3.687
14283TIP3    H142792   3.122   3.675   3.728
14283TIP3    H242793   3.024   3.574   3.673
14284TIP3   OH242794   0.736   3.686   5.177
14284TIP3    H142795   0.750   3.606   5.126
14284TIP3    H242796   0.815   3.737   5.162
14285TIP3   OH242797   0.365   1.287   1.971
14285TIP3    H142798   0.341   1.198   1.995
14285TIP3    H242799   0.352   1.290   1.876
14286TIP3   OH242800   3.830   4.134   3.681
14286TIP3    H142801   3.797   4.222   3.699
14286TIP3    H242802   3.752   4.079   3.675
14287TIP3   OH242803   6.904   3.361   4.318
14287TIP3    H142804   6.995   3.389   4.311
14287TIP3    H242805   6.887   3.354   4.412
14288TIP3   OH242806   8.115   1.173   2.533
14288TIP3    H142807   8.058   1.250   2.535
14288TIP3    H242808   8.199   1.206   2.566
14289TIP3   OH242809   1.747   5.436   3.846
14289TIP3    H142810   1.816   5.397   3.793
14289TIP3    H242811   1.718   5.512   3.796
14290TIP3   OH242812   1.399   1.088   4.421
14290TIP3    H142813   1.313   1.076   4.461
14290TIP3    H242814   1.455   1.119   4.492
14291TIP3   OH242815   2.154   2.639   4.805
14291TIP3    H142816   2.119   2.584   4.875
14291TIP3    H242817   2.076   2.676   4.763
14292TIP3   OH242818   4.635   4.111   5.712
14292TIP3    H142819   4.718   4.103   5.664
14292TIP3    H242820   4.633   4.203   5.740
14293TIP3   OH242821   3.425   6.875   3.860
14293TIP3    H142822   3.404   6.782   3.848
14293TIP3    H242823   3.459   6.880   3.949
14294TIP3   OH242824   2.267   6.445   5.061
14294TIP3    H142825   2.362   6.459   5.062
14294TIP3    H242826   2.242   6.454   4.970
14295TIP3   OH242827   0.458   0.854   6.368
14295TIP3    H142828   0.509   0.777   6.391
14295TIP3    H242829   0.374   0.819   6.338
14296TIP3   OH242830   2.607   3.916   2.041
14296TIP3    H142831   2.567   3.994   2.002
14296TIP3    H242832   2.617   3.855   1.968
14297TIP3   OH242833   1.094   6.374   0.067
14297TIP3    H142834   1.067   6.465   0.057
14297TIP3    H242835   1.113   6.364   0.160
14298TIP3   OH242836   4.565   3.129   6.351
14298TIP3    H142837   4.604   3.058   6.401
14298TIP3    H242838   4.478   3.097   6.327
14299TIP3   OH242839   4.543   3.360   3.644
14299TIP3    H142840   4.520   3.275   3.681
14299TIP3    H242841   4.552   3.344   3.550
14300TIP3   OH242842   4.436   0.307   0.180
14300TIP3    H142843   4.364   0.248   0.163
14300TIP3    H242844   4.403   0.394   0.157
14301TIP3   OH242845   0.794   5.944   1.723
14301TIP3    H142846   0.815   6.012   1.786
14301TIP3    H242847   0.698   5.939   1.725
14302TIP3   OH242848   1.492   0.853   0.706
14302TIP3    H142849   1.544   0.774   0.721
14302TIP3    H242850   1.403   0.820   0.691
14303TIP3   OH242851   5.565   6.280   3.744
14303TIP3    H142852   5.654   6.275   3.779
14303TIP3    H242853   5.560   6.208   3.681
14304TIP3   OH242854   6.374   2.599   5.406
14304TIP3    H142855   6.445   2.554   5.360
14304TIP3    H242856   6.307   2.614   5.339
14305TIP3   OH242857   6.115   6.634   1.609
14305TIP3    H142858   6.189   6.592   1.654
14305TIP3    H242859   6.155   6.698   1.551
14306TIP3   OH242860   3.333   3.264   6.451
14306TIP3    H142861   3.262   3.312   6.493
14306TIP3    H242862   3.318   3.274   6.357
14307TIP3   OH242863   3.042   0.579   0.727
14307TIP3    H142864   2.983   0.542   0.663
14307TIP3    H242865   3.006   0.666   0.747
14308TIP3   OH242866   1.783   3.274   6.811
14308TIP3    H142867   1.753   3.363   6.829
14308TIP3    H242868   1.718   3.239   6.750
14309TIP3   OH242869   2.539   2.085   4.712
14309TIP3    H142870   2.627   2.116   4.692
14309TIP3    H242871   2.543   2.061   4.805
14310TIP3   OH242872   3.999   1.066   3.823
14310TIP3    H142873   4.062   1.072   3.751
14310TIP3    H242874   4.051   1.081   3.902
14311TIP3   OH242875   5.683   7.666   4.805
14311TIP3    H142876   5.641   7.638   4.723
14311TIP3    H242877   5.756   7.722   4.777
14312TIP3   OH242878   1.459   5.821   2.719
14312TIP3    H142879   1.528   5.755   2.717
14312TIP3    H242880   1.405   5.797   2.793
14313TIP3   OH242881   7.252   3.546   5.200
14313TIP3    H142882   7.302   3.627   5.200
14313TIP3    H242883   7.221   3.536   5.290
14314TIP3   OH242884   4.806   0.539   1.267
14314TIP3    H142885   4.839   0.459   1.309
14314TIP3    H242886   4.876   0.565   1.207
14315TIP3   OH242887   2.605   6.106   6.694
14315TIP3    H142888   2.681   6.158   6.668
14315TIP3    H242889   2.611   6.026   6.642
14316TIP3   OH242890   5.518   4.667   3.306
14316TIP3    H142891   5.599   4.701   3.268
14316TIP3    H242892   5.457   4.740   3.302
14317TIP3   OH242893   7.076   7.293   3.934
14317TIP3    H142894   7.131   7.368   3.955
14317TIP3    H242895   7.128   7.240   3.874
14318TIP3   OH242896   7.889   2.543   3.689
14318TIP3    H142897   7.810   2.493   3.671
14318TIP3    H242898   7.888   2.614   3.625
14319TIP3   OH242899   3.595   7.455   5.922
14319TIP3    H142900   3.649   7.377   5.906
14319TIP3    H242901   3.658   7.527   5.924
14320TIP3   OH242902   0.206   4.739   2.792
14320TIP3    H142903   0.157   4.697   2.863
14320TIP3    H242904   0.147   4.809   2.762
14321TIP3   OH242905   3.450   3.592   1.756
14321TIP3    H142906   3.535   3.598   1.713
14321TIP3    H242907   3.396   3.541   1.695
14322TIP3   OH242908   0.797   5.160   5.961
14322TIP3    H142909   0.805   5.254   5.973
14322TIP3    H242910   0.888   5.129   5.952
14323TIP3   OH242911   0.905   5.074   4.360
14323TIP3    H142912   0.846   5.011   4.318
14323TIP3    H242913   0.933   5.132   4.290
14324TIP3   OH242914   7.858   4.326   1.618
14324TIP3    H142915   7.842   4.232   1.610
14324TIP3    H242916   7.842   4.361   1.531
14325TIP3   OH242917   5.144   6.373   5.590
14325TIP3    H142918   5.182   6.385   5.676
14325TIP3    H242919   5.192   6.433   5.533
14326TIP3   OH242920   5.701   7.729   0.604
14326TIP3    H142921   5.689   7.673   0.527
14326TIP3    H242922   5.750   7.805   0.572
14327TIP3   OH242923   7.569   2.511   1.701
14327TIP3    H142924   7.663   2.521   1.689
14327TIP3    H242925   7.550   2.559   1.782
14328TIP3   OH242926   7.747   7.155   5.527
14328TIP3    H142927   7.809   7.097   5.571
14328TIP3    H242928   7.782   7.243   5.541
14329TIP3   OH242929   7.655   6.063   0.888
14329TIP3    H142930   7.634   6.019   0.806
14329TIP3    H242931   7.686   5.994   0.946
14330TIP3   OH242932   5.945   2.294   3.662
14330TIP3    H142933   5.891   2.342   3.599
14330TIP3    H242934   5.946   2.205   3.629
14331TIP3   OH242935   6.100   6.322   1.974
14331TIP3    H142936   6.061   6.348   2.058
14331TIP3    H242937   6.051   6.244   1.948
14332TIP3   OH242938   2.580   3.986   3.184
14332TIP3    H142939   2.646   3.947   3.127
14332TIP3    H242940   2.609   3.966   3.273
14333TIP3   OH242941   6.003   2.201   2.812
14333TIP3    H142942   6.091   2.172   2.788
14333TIP3    H242943   5.946   2.158   2.749
14334TIP3   OH242944   4.171   6.848   2.039
14334TIP3    H142945   4.171   6.938   2.072
14334TIP3    H242946   4.101   6.847   1.974
14335TIP3   OH242947   3.352   1.013   3.362
14335TIP3    H142948   3.331   0.947   3.296
14335TIP3    H242949   3.290   1.084   3.345
14336TIP3   OH242950   2.765   0.323   6.637
14336TIP3    H142951   2.799   0.290   6.720
14336TIP3    H242952   2.682   0.366   6.661
14337TIP3   OH242953   4.607   0.431   0.855
14337TIP3    H142954   4.617   0.396   0.944
14337TIP3    H242955   4.524   0.479   0.857
14338TIP3   OH242956   2.160   0.116   1.987
14338TIP3    H142957   2.224   0.114   2.057
14338TIP3    H242958   2.076   0.102   2.030
14339TIP3   OH242959   7.197   3.069   2.608
14339TIP3    H142960   7.141   3.031   2.541
14339TIP3    H242961   7.175   3.019   2.687
14340TIP3   OH242962   4.520   0.100   4.633
14340TIP3    H142963   4.523   0.135   4.544
14340TIP3    H242964   4.501   0.007   4.621
14341TIP3   OH242965   5.826   2.018   3.940
14341TIP3    H142966   5.870   1.965   3.874
14341TIP3    H242967   5.755   1.961   3.972
14342TIP3   OH242968   6.758   4.674   5.993
14342TIP3    H142969   6.742   4.604   6.056
14342TIP3    H242970   6.741   4.633   5.907
14343TIP3   OH242971   5.695   4.029   4.458
14343TIP3    H142972   5.702   3.959   4.523
14343TIP3    H242973   5.602   4.035   4.438
14344TIP3   OH242974   3.620   1.507   0.386
14344TIP3    H142975   3.552   1.570   0.364
14344TIP3    H242976   3.693   1.530   0.329
14345TIP3   OH242977   1.630   5.040   6.165
14345TIP3    H142978   1.556   4.987   6.194
14345TIP3    H242979   1.660   5.085   6.244
14346TIP3   OH242980   5.939   4.404  -0.019
14346TIP3    H142981   5.967   4.483   0.026
14346TIP3    H242982   5.853   4.383   0.019
14347TIP3   OH242983   6.734   5.658   3.274
14347TIP3    H142984   6.784   5.582   3.303
14347TIP3    H242985   6.771   5.679   3.188
14348TIP3   OH242986   6.353   0.245   1.278
14348TIP3    H142987   6.408   0.323   1.269
14348TIP3    H242988   6.315   0.231   1.192
14349TIP3   OH242989   0.274   5.688   1.000
14349TIP3    H142990   0.222   5.610   0.981
14349TIP3    H242991   0.320   5.667   1.081
14350TIP3   OH242992   7.885   1.341   1.661
14350TIP3    H142993   7.813   1.289   1.695
14350TIP3    H242994   7.875   1.338   1.566
14351TIP3   OH242995   4.277   2.477   2.515
14351TIP3    H142996   4.294   2.565   2.548
14351TIP3    H242997   4.200   2.448   2.563
14352TIP3   OH242998   0.889   1.531   5.024
14352TIP3    H142999   0.874   1.620   4.995
14352TIP3    H243000   0.983   1.517   5.010
14353TIP3   OH243001   4.995   0.364   2.715
14353TIP3    H143002   4.936   0.428   2.755
14353TIP3    H243003   4.985   0.286   2.769
14354TIP3   OH243004   0.704   1.545   2.962
14354TIP3    H143005   0.778   1.512   2.910
14354TIP3    H243006   0.627   1.525   2.910
14355TIP3   OH243007   3.485   1.118   2.497
14355TIP3    H143008   3.500   1.206   2.531
14355TIP3    H243009   3.401   1.123   2.452
14356TIP3   OH243010   6.455   1.519   2.821
14356TIP3    H143011   6.515   1.520   2.896
14356TIP3    H243012   6.395   1.447   2.839
14357TIP3   OH243013   2.990   6.111   4.103
14357TIP3    H143014   3.046   6.087   4.030
14357TIP3    H243015   2.998   6.206   4.109
14358TIP3   OH243016   7.744   7.652   4.520
14358TIP3    H143017   7.724   7.741   4.491
14358TIP3    H243018   7.815   7.663   4.584
14359TIP3   OH243019   5.543   7.290   5.597
14359TIP3    H143020   5.597   7.211   5.598
14359TIP3    H243021   5.545   7.319   5.506
14360TIP3   OH243022   8.107   5.718   4.995
14360TIP3    H143023   8.191   5.692   4.957
14360TIP3    H243024   8.042   5.666   4.949
14361TIP3   OH243025   2.589   5.626   2.644
14361TIP3    H143026   2.513   5.675   2.611
14361TIP3    H243027   2.583   5.541   2.600
14362TIP3   OH243028   4.109   1.129   1.544
14362TIP3    H143029   4.201   1.139   1.569
14362TIP3    H243030   4.076   1.219   1.541
14363TIP3   OH243031   3.679   7.409   2.070
14363TIP3    H143032   3.757   7.447   2.110
14363TIP3    H243033   3.613   7.410   2.139
14364TIP3   OH243034   2.197   2.675   6.669
14364TIP3    H143035   2.256   2.735   6.715
14364TIP3    H243036   2.134   2.648   6.736
14365TIP3   OH243037   1.288   0.796   0.104
14365TIP3    H143038   1.270   0.882   0.067
14365TIP3    H243039   1.352   0.813   0.173
14366TIP3   OH243040   2.071   6.705   3.234
14366TIP3    H143041   1.984   6.740   3.213
14366TIP3    H243042   2.124   6.727   3.157
14367TIP3   OH243043   2.718   6.817   5.121
14367TIP3    H143044   2.739   6.834   5.029
14367TIP3    H243045   2.658   6.742   5.118
14368TIP3   OH243046   1.069   1.500   1.623
14368TIP3    H143047   1.125   1.574   1.648
14368TIP3    H243048   1.102   1.472   1.538
14369TIP3   OH243049   3.815   0.885   0.193
14369TIP3    H143050   3.733   0.884   0.144
14369TIP3    H243051   3.817   0.971   0.234
14370TIP3   OH243052   4.714   6.436   6.663
14370TIP3    H143053   4.668   6.468   6.740
14370TIP3    H243054   4.655   6.371   6.624
14371TIP3   OH243055   2.154   6.415   3.110
14371TIP3    H143056   2.122   6.430   3.021
14371TIP3    H243057   2.179   6.503   3.141
14372TIP3   OH243058   2.984   0.418   6.142
14372TIP3    H143059   2.920   0.484   6.167
14372TIP3    H243060   2.960   0.392   6.054
14373TIP3   OH243061   0.336   6.858   3.392
14373TIP3    H143062   0.293   6.776   3.364
14373TIP3    H243063   0.420   6.829   3.427
14374TIP3   OH243064   4.719   4.145   3.631
14374TIP3    H143065   4.793   4.137   3.691
14374TIP3    H243066   4.645   4.169   3.687
14375TIP3   OH243067   3.943   0.027   4.147
14375TIP3    H143068   3.984   0.097   4.097
14375TIP3    H243069   3.885  -0.017   4.085
14376TIP3   OH243070   5.840   0.815   0.863
14376TIP3    H143071   5.783   0.837   0.790
14376TIP3    H243072   5.821   0.880   0.930
14377TIP3   OH243073   7.399   3.879   2.409
14377TIP3    H143074   7.492   3.864   2.422
14377TIP3    H243075   7.358   3.793   2.419
14378TIP3   OH243076   2.580   3.575   4.439
14378TIP3    H143077   2.547   3.503   4.494
14378TIP3    H243078   2.587   3.649   4.499
14379TIP3   OH243079   5.391   1.901   1.327
14379TIP3    H143080   5.329   1.877   1.396
14379TIP3    H243081   5.473   1.860   1.353
14380TIP3   OH243082   1.874   3.679   2.557
14380TIP3    H143083   1.800   3.737   2.574
14380TIP3    H243084   1.936   3.698   2.627
14381TIP3   OH243085   5.113   3.306   3.676
14381TIP3    H143086   5.167   3.230   3.699
14381TIP3    H243087   5.029   3.288   3.719
14382TIP3   OH243088   7.886   6.992   4.841
14382TIP3    H143089   7.830   7.025   4.912
14382TIP3    H243090   7.972   6.980   4.882
14383TIP3   OH243091   0.149   2.867   3.082
14383TIP3    H143092   0.216   2.801   3.100
14383TIP3    H243093   0.130   2.906   3.167
14384TIP3   OH243094   2.908   6.039   0.303
14384TIP3    H143095   2.848   6.114   0.309
14384TIP3    H243096   2.865   5.978   0.243
14385TIP3   OH243097   2.931   6.113   5.026
14385TIP3    H143098   2.842   6.146   5.038
14385TIP3    H243099   2.920   6.031   4.979
14386TIP3   OH243100   1.429   5.351   0.403
14386TIP3    H143101   1.443   5.372   0.495
14386TIP3    H243102   1.509   5.379   0.359
14387TIP3   OH243103   1.498   4.940   1.559
14387TIP3    H143104   1.446   4.864   1.536
14387TIP3    H243105   1.460   4.971   1.642
14388TIP3   OH243106   0.437   1.459   1.375
14388TIP3    H143107   0.458   1.534   1.431
14388TIP3    H243108   0.473   1.384   1.422
14389TIP3   OH243109   6.271   6.662   2.922
14389TIP3    H143110   6.277   6.569   2.903
14389TIP3    H243111   6.242   6.667   3.013
14390TIP3   OH243112   8.087   7.718   2.393
14390TIP3    H143113   8.153   7.774   2.353
14390TIP3    H243114   8.074   7.647   2.330
14391TIP3   OH243115   6.496   3.110   0.207
14391TIP3    H143116   6.422   3.167   0.190
14391TIP3    H243117   6.457   3.027   0.235
14392TIP3   OH243118   3.518   7.171   1.704
14392TIP3    H143119   3.546   7.087   1.668
14392TIP3    H243120   3.576   7.235   1.663
14393TIP3   OH243121   2.519   3.083   2.824
14393TIP3    H143122   2.533   3.134   2.744
14393TIP3    H243123   2.510   2.992   2.793
14394TIP3   OH243124   1.096   7.699   6.162
14394TIP3    H143125   1.128   7.758   6.230
14394TIP3    H243126   1.022   7.747   6.123
14395TIP3   OH243127   4.188   7.173   1.015
14395TIP3    H143128   4.167   7.106   1.080
14395TIP3    H243129   4.126   7.244   1.033
14396TIP3   OH243130   8.027   2.141   4.839
14396TIP3    H143131   7.991   2.169   4.755
14396TIP3    H243132   7.952   2.142   4.899
14397TIP3   OH243133   3.166   2.278   1.800
14397TIP3    H143134   3.179   2.327   1.719
14397TIP3    H243135   3.195   2.338   1.869
14398TIP3   OH243136   5.495   0.324   0.053
14398TIP3    H143137   5.418   0.358   0.007
14398TIP3    H243138   5.471   0.234   0.077
14399TIP3   OH243139   4.009   4.904   0.044
14399TIP3    H143140   3.995   4.918  -0.050
14399TIP3    H243141   3.950   4.831   0.066
14400TIP3   OH243142   8.146   3.897   6.173
14400TIP3    H143143   8.235   3.888   6.139
14400TIP3    H243144   8.115   3.980   6.140
14401TIP3   OH243145   7.186   2.799   4.389
14401TIP3    H143146   7.134   2.723   4.414
14401TIP3    H243147   7.131   2.874   4.409
14402TIP3   OH243148   0.291   2.440   5.260
14402TIP3    H143149   0.200   2.431   5.231
14402TIP3    H243150   0.291   2.403   5.349
14403TIP3   OH243151   6.953   5.135   4.115
14403TIP3    H143152   6.958   5.044   4.087
14403TIP3    H243153   6.990   5.135   4.203
14404TIP3   OH243154   3.909   7.562   0.396
14404TIP3    H143155   3.827   7.612   0.397
14404TIP3    H243156   3.891   7.485   0.449
14405TIP3   OH243157   0.716   0.772   0.129
14405TIP3    H143158   0.735   0.708   0.060
14405TIP3    H243159   0.718   0.856   0.084
14406TIP3   OH243160   5.641   7.695   1.682
14406TIP3    H143161   5.707   7.630   1.657
14406TIP3    H243162   5.583   7.648   1.742
14407TIP3   OH243163   4.023   3.330   2.252
14407TIP3    H143164   3.959   3.275   2.297
14407TIP3    H243165   4.006   3.419   2.284
14408TIP3   OH243166   5.371   4.109   0.492
14408TIP3    H143167   5.438   4.061   0.540
14408TIP3    H243168   5.341   4.048   0.425
14409TIP3   OH243169   5.765   2.149   5.256
14409TIP3    H143170   5.684   2.135   5.304
14409TIP3    H243171   5.824   2.189   5.320
14410TIP3   OH243172   6.159   1.978   1.781
14410TIP3    H143173   6.189   2.060   1.819
14410TIP3    H243174   6.177   1.986   1.688
14411TIP3   OH243175   1.902   6.873   3.475
14411TIP3    H143176   1.994   6.863   3.498
14411TIP3    H243177   1.902   6.893   3.382
14412TIP3   OH243178   7.214   1.258   4.455
14412TIP3    H143179   7.199   1.164   4.452
14412TIP3    H243180   7.199   1.282   4.547
14413TIP3   OH243181   1.512   6.493   4.897
14413TIP3    H143182   1.559   6.499   4.814
14413TIP3    H243183   1.546   6.566   4.949
14414TIP3   OH243184   2.104   0.753   0.384
14414TIP3    H143185   2.101   0.842   0.349
14414TIP3    H243186   2.109   0.764   0.479
14415TIP3   OH243187   0.373   1.241   3.632
14415TIP3    H143188   0.331   1.318   3.671
14415TIP3    H243189   0.301   1.181   3.615
14416TIP3   OH243190   2.949   6.157   1.988
14416TIP3    H143191   3.035   6.131   1.956
14416TIP3    H243192   2.943   6.250   1.966
14417TIP3   OH243193   6.472   2.576   2.719
14417TIP3    H143194   6.398   2.518   2.737
14417TIP3    H243195   6.469   2.590   2.624
14418TIP3   OH243196   3.822   7.789   4.809
14418TIP3    H143197   3.817   7.696   4.787
14418TIP3    H243198   3.737   7.808   4.850
14419TIP3   OH243199   3.166   1.769   2.143
14419TIP3    H143200   3.262   1.766   2.138
14419TIP3    H243201   3.137   1.686   2.105
14420TIP3   OH243202   4.594   2.196   2.124
14420TIP3    H143203   4.614   2.103   2.121
14420TIP3    H243204   4.664   2.234   2.178
14421TIP3   OH243205   2.899   7.572   0.063
14421TIP3    H143206   2.929   7.561  -0.027
14421TIP3    H243207   2.804   7.579   0.056
14422TIP3   OH243208   4.705   1.704   6.076
14422TIP3    H143209   4.631   1.754   6.112
14422TIP3    H243210   4.758   1.770   6.032
14423TIP3   OH243211   0.059   1.804   1.387
14423TIP3    H143212   0.025   1.719   1.413
14423TIP3    H243213   0.117   1.786   1.313
14424TIP3   OH243214   4.345   7.129   5.156
14424TIP3    H143215   4.277   7.062   5.155
14424TIP3    H243216   4.308   7.202   5.106
14425TIP3   OH243217   2.842   2.669   2.307
14425TIP3    H143218   2.877   2.744   2.355
14425TIP3    H243219   2.919   2.628   2.267
14426TIP3   OH243220   4.273   5.604   0.987
14426TIP3    H143221   4.334   5.661   0.939
14426TIP3    H243222   4.199   5.593   0.927
14427TIP3   OH243223   6.726   0.085   1.743
14427TIP3    H143224   6.709   0.179   1.749
14427TIP3    H243225   6.683   0.048   1.819
14428TIP3   OH243226   6.515   3.316   2.737
14428TIP3    H143227   6.542   3.366   2.815
14428TIP3    H243228   6.593   3.316   2.681
14429TIP3   OH243229   7.139   1.073   0.452
14429TIP3    H143230   7.232   1.071   0.477
14429TIP3    H243231   7.137   1.032   0.365
14430TIP3   OH243232   5.321   1.108   4.507
14430TIP3    H143233   5.311   1.086   4.599
14430TIP3    H243234   5.258   1.053   4.461
14431TIP3   OH243235   1.929   5.745   1.547
14431TIP3    H143236   1.868   5.744   1.472
14431TIP3    H243237   1.943   5.652   1.567
14432TIP3   OH243238   5.247   4.532   0.240
14432TIP3    H143239   5.330   4.571   0.269
14432TIP3    H243240   5.270   4.444   0.212
14433TIP3   OH243241   8.233   6.773   5.248
14433TIP3    H143242   8.198   6.861   5.253
14433TIP3    H243243   8.257   6.762   5.156
14434TIP3   OH243244   4.929   3.906   6.679
14434TIP3    H143245   4.842   3.901   6.719
14434TIP3    H243246   4.953   3.815   6.660
14435TIP3   OH243247   4.789   6.197   4.905
14435TIP3    H143248   4.838   6.155   4.976
14435TIP3    H243249   4.711   6.141   4.894
14436TIP3   OH243250   4.550   3.605   5.272
14436TIP3    H143251   4.463   3.636   5.245
14436TIP3    H243252   4.586   3.677   5.324
14437TIP3   OH243253   8.061   6.102   0.057
14437TIP3    H143254   8.155   6.090   0.074
14437TIP3    H243255   8.018   6.050   0.125
14438TIP3   OH243256   2.416   3.375   4.553
14438TIP3    H143257   2.346   3.437   4.573
14438TIP3    H243258   2.376   3.311   4.494
14439TIP3   OH243259   3.111   5.031   1.481
14439TIP3    H143260   3.195   5.010   1.439
14439TIP3    H243261   3.135   5.073   1.564
14440TIP3   OH243262   0.000   6.958   6.227
14440TIP3    H143263   0.059   6.932   6.298
14440TIP3    H243264   0.009   7.053   6.222
14441TIP3   OH243265   6.043   1.956   3.336
14441TIP3    H143266   6.136   1.975   3.330
14441TIP3    H243267   6.016   1.944   3.245
14442TIP3   OH243268   7.653   0.752   1.477
14442TIP3    H143269   7.687   0.841   1.468
14442TIP3    H243270   7.730   0.695   1.468
14443TIP3   OH243271   0.980   5.659   2.296
14443TIP3    H143272   1.059   5.632   2.250
14443TIP3    H243273   0.976   5.604   2.374
14444TIP3   OH243274   3.587   3.101   3.886
14444TIP3    H143275   3.573   3.195   3.901
14444TIP3    H243276   3.541   3.083   3.804
14445TIP3   OH243277   1.946   7.801   2.029
14445TIP3    H143278   1.893   7.795   1.949
14445TIP3    H243279   2.013   7.734   2.019
14446TIP3   OH243280   1.654   1.763   2.375
14446TIP3    H143281   1.686   1.697   2.436
14446TIP3    H243282   1.578   1.723   2.334
14447TIP3   OH243283   4.594   1.134   0.090
14447TIP3    H143284   4.540   1.213   0.084
14447TIP3    H243285   4.658   1.154   0.159
14448TIP3   OH243286   0.952   6.834   1.086
14448TIP3    H143287   0.948   6.903   1.152
14448TIP3    H243288   1.034   6.850   1.039
14449TIP3   OH243289   4.242   6.590   2.008
14449TIP3    H143290   4.216   6.682   2.005
14449TIP3    H243291   4.321   6.590   2.062
14450TIP3   OH243292   0.346   0.268   1.840
14450TIP3    H143293   0.401   0.315   1.777
14450TIP3    H243294   0.272   0.236   1.788
14451TIP3   OH243295   1.528   2.493   3.536
14451TIP3    H143296   1.532   2.424   3.470
14451TIP3    H243297   1.514   2.447   3.618
14452TIP3   OH243298   5.542   0.750   0.804
14452TIP3    H143299   5.511   0.811   0.871
14452TIP3    H243300   5.533   0.797   0.722
14453TIP3   OH243301   7.368   6.754   5.609
14453TIP3    H143302   7.281   6.743   5.569
14453TIP3    H243303   7.353   6.816   5.681
14454TIP3   OH243304   5.336   4.729   0.570
14454TIP3    H143305   5.371   4.703   0.655
14454TIP3    H243306   5.377   4.669   0.508
14455TIP3   OH243307   1.071   0.305   2.053
14455TIP3    H143308   1.082   0.247   1.978
14455TIP3    H243309   1.011   0.258   2.111
14456TIP3   OH243310   5.894   5.839   4.697
14456TIP3    H143311   5.932   5.867   4.780
14456TIP3    H243312   5.889   5.918   4.644
14457TIP3   OH243313   6.825   1.672   0.047
14457TIP3    H143314   6.806   1.672  -0.047
14457TIP3    H243315   6.810   1.763   0.074
14458TIP3   OH243316   1.829   7.407   3.433
14458TIP3    H143317   1.815   7.407   3.528
14458TIP3    H243318   1.878   7.326   3.416
14459TIP3   OH243319   5.954   5.692   3.166
14459TIP3    H143320   5.946   5.782   3.200
14459TIP3    H243321   6.030   5.695   3.108
14460TIP3   OH243322   4.146   1.176   6.498
14460TIP3    H143323   4.181   1.150   6.412
14460TIP3    H243324   4.212   1.236   6.533
14461TIP3   OH243325   5.141   3.952   6.001
14461TIP3    H143326   5.150   4.038   5.962
14461TIP3    H243327   5.192   3.894   5.944
14462TIP3   OH243328   5.555   6.851   1.118
14462TIP3    H143329   5.556   6.827   1.211
14462TIP3    H243330   5.513   6.776   1.075
14463TIP3   OH243331   4.886   6.007   2.756
14463TIP3    H143332   4.972   5.982   2.788
14463TIP3    H243333   4.826   5.982   2.827
14464TIP3   OH243334   8.005   2.558   5.119
14464TIP3    H143335   7.955   2.618   5.174
14464TIP3    H243336   7.942   2.492   5.092
14465TIP3   OH243337   0.822   0.657   6.132
14465TIP3    H143338   0.775   0.595   6.076
14465TIP3    H243339   0.901   0.609   6.158
14466TIP3   OH243340   7.614   0.939   5.838
14466TIP3    H143341   7.669   1.015   5.821
14466TIP3    H243342   7.632   0.916   5.928
14467TIP3   OH243343   2.172   5.856   0.961
14467TIP3    H143344   2.099   5.794   0.961
14467TIP3    H243345   2.244   5.807   1.002
14468TIP3   OH243346   1.054   4.177   1.349
14468TIP3    H143347   1.081   4.124   1.424
14468TIP3    H243348   1.005   4.249   1.388
14469TIP3   OH243349   1.076   6.778   5.599
14469TIP3    H143350   1.096   6.784   5.692
14469TIP3    H243351   1.008   6.843   5.584
14470TIP3   OH243352   4.383   7.786   5.275
14470TIP3    H143353   4.317   7.760   5.211
14470TIP3    H243354   4.440   7.846   5.227
14471TIP3   OH243355   6.887   6.493   1.233
14471TIP3    H143356   6.881   6.559   1.164
14471TIP3    H243357   6.803   6.498   1.279
14472TIP3   OH243358   6.330   2.163   2.352
14472TIP3    H143359   6.406   2.147   2.408
14472TIP3    H243360   6.364   2.157   2.263
14473TIP3   OH243361   7.896   4.642   5.450
14473TIP3    H143362   7.975   4.644   5.504
14473TIP3    H243363   7.828   4.678   5.506
14474TIP3   OH243364   3.520   0.750   4.469
14474TIP3    H143365   3.469   0.669   4.472
14474TIP3    H243366   3.608   0.724   4.498
14475TIP3   OH243367   7.699   2.983   4.500
14475TIP3    H143368   7.793   2.972   4.481
14475TIP3    H243369   7.691   3.074   4.527
14476TIP3   OH243370   5.351   1.199   2.744
14476TIP3    H143371   5.315   1.142   2.812
14476TIP3    H243372   5.446   1.192   2.754
14477TIP3   OH243373   0.629   3.680   6.083
14477TIP3    H143374   0.667   3.737   6.150
14477TIP3    H243375   0.578   3.616   6.132
14478TIP3   OH243376   1.581   7.411   4.960
14478TIP3    H143377   1.584   7.341   5.026
14478TIP3    H243378   1.523   7.378   4.892
14479TIP3   OH243379   4.836   5.643   0.089
14479TIP3    H143380   4.751   5.632   0.131
14479TIP3    H243381   4.819   5.626  -0.004
14480TIP3   OH243382   1.430   4.564   0.775
14480TIP3    H143383   1.512   4.525   0.746
14480TIP3    H243384   1.436   4.656   0.748
14481TIP3   OH243385   3.246   0.336   0.121
14481TIP3    H143386   3.166   0.366   0.076
14481TIP3    H243387   3.280   0.267   0.066
14482TIP3   OH243388   5.004   1.908   6.122
14482TIP3    H143389   5.089   1.899   6.079
14482TIP3    H243390   4.958   1.974   6.069
14483TIP3   OH243391   6.361   0.667   6.136
14483TIP3    H143392   6.428   0.731   6.114
14483TIP3    H243393   6.278   0.713   6.120
14484TIP3   OH243394   2.464   7.026   2.592
14484TIP3    H143395   2.519   6.948   2.598
14484TIP3    H243396   2.443   7.034   2.499
14485TIP3   OH243397   3.771   6.933   3.973
14485TIP3    H143398   3.746   6.848   3.938
14485TIP3    H243399   3.689   6.971   4.006
14486TIP3   OH243400   1.275   3.794   1.804
14486TIP3    H143401   1.293   3.717   1.859
14486TIP3    H243402   1.197   3.833   1.841
14487TIP3   OH243403   4.440   2.885   6.088
14487TIP3    H143404   4.533   2.873   6.108
14487TIP3    H243405   4.439   2.944   6.013
14488TIP3   OH243406   8.127   3.544   4.449
14488TIP3    H143407   8.103   3.488   4.375
14488TIP3    H243408   8.049   3.598   4.464
14489TIP3   OH243409   3.377   3.590   0.812
14489TIP3    H143410   3.433   3.659   0.777
14489TIP3    H243411   3.384   3.519   0.749
14490TIP3   OH243412   1.631   0.664   6.785
14490TIP3    H143413   1.561   0.729   6.798
14490TIP3    H243414   1.662   0.679   6.696
14491TIP3   OH243415   2.321   3.015   4.468
14491TIP3    H143416   2.259   3.045   4.402
14491TIP3    H243417   2.290   2.928   4.492
14492TIP3   OH243418   0.257   6.600   4.974
14492TIP3    H143419   0.298   6.514   4.966
14492TIP3    H243420   0.309   6.657   4.918
14493TIP3   OH243421   7.341   6.728   6.687
14493TIP3    H143422   7.321   6.793   6.621
14493TIP3    H243423   7.412   6.676   6.650
14494TIP3   OH243424   4.494   5.100   3.215
14494TIP3    H143425   4.516   5.020   3.263
14494TIP3    H243426   4.439   5.150   3.276
14495TIP3   OH243427   2.353   6.010   4.919
14495TIP3    H143428   2.299   5.936   4.894
14495TIP3    H243429   2.309   6.086   4.879
14496TIP3   OH243430   4.961   2.913   6.311
14496TIP3    H143431   5.011   2.987   6.276
14496TIP3    H243432   5.021   2.839   6.304
14497TIP3   OH243433   7.072   6.898   0.051
14497TIP3    H143434   7.107   6.925   0.135
14497TIP3    H243435   7.078   6.802   0.052
14498TIP3   OH243436   1.532   0.897   4.272
14498TIP3    H143437   1.533   0.840   4.348
14498TIP3    H243438   1.495   0.979   4.304
14499TIP3   OH243439   0.712   7.032  -0.033
14499TIP3    H143440   0.636   7.016   0.024
14499TIP3    H243441   0.787   7.033   0.026
14500TIP3   OH243442   7.648   5.387   6.725
14500TIP3    H143443   7.706   5.357   6.795
14500TIP3    H243444   7.592   5.311   6.706
14501TIP3   OH243445   6.753   0.218   6.429
14501TIP3    H143446   6.825   0.207   6.490
14501TIP3    H243447   6.769   0.153   6.361
14502TIP3   OH243448   5.233   6.504   1.172
14502TIP3    H143449   5.145   6.481   1.200
14502TIP3    H243450   5.290   6.474   1.242
14503TIP3   OH243451   6.713   0.531   3.306
14503TIP3    H143452   6.798   0.562   3.338
14503TIP3    H243453   6.649   0.587   3.351
14504TIP3   OH243454   1.599   0.559   4.781
14504TIP3    H143455   1.627   0.542   4.691
14504TIP3    H243456   1.680   0.583   4.827
14505TIP3   OH243457   0.449   4.306   2.257
14505TIP3    H143458   0.401   4.335   2.335
14505TIP3    H243459   0.395   4.235   2.222
14506TIP3   OH243460   0.780   4.120   4.469
14506TIP3    H143461   0.688   4.115   4.443
14506TIP3    H243462   0.793   4.045   4.527
14507TIP3   OH243463   0.612   4.564   0.849
14507TIP3    H143464   0.599   4.524   0.935
14507TIP3    H243465   0.707   4.569   0.839
14508TIP3   OH243466   2.627   3.093   6.330
14508TIP3    H143467   2.628   3.134   6.244
14508TIP3    H243468   2.584   3.009   6.317
14509TIP3   OH243469   0.136   2.388   2.816
14509TIP3    H143470   0.068   2.452   2.796
14509TIP3    H243471   0.102   2.305   2.781
14510TIP3   OH243472   7.058   3.274   4.780
14510TIP3    H143473   6.970   3.286   4.816
14510TIP3    H243474   7.085   3.188   4.813
14511TIP3   OH243475   3.318   4.481   1.973
14511TIP3    H143476   3.287   4.529   2.050
14511TIP3    H243477   3.240   4.467   1.920
14512TIP3   OH243478   3.252   0.259   2.922
14512TIP3    H143479   3.342   0.279   2.897
14512TIP3    H243480   3.252   0.166   2.942
14513TIP3   OH243481   7.070   3.415   2.048
14513TIP3    H143482   7.022   3.401   2.129
14513TIP3    H243483   7.001   3.422   1.981
14514TIP3   OH243484   2.952   0.032   4.131
14514TIP3    H143485   2.958   0.034   4.226
14514TIP3    H243486   2.858   0.028   4.112
14515TIP3   OH243487   4.354   0.633   1.578
14515TIP3    H143488   4.343   0.610   1.486
14515TIP3    H243489   4.280   0.591   1.623
14516TIP3   OH243490   6.666   4.717   2.357
14516TIP3    H143491   6.654   4.649   2.423
14516TIP3    H243492   6.629   4.796   2.398
14517TIP3   OH243493   6.544   5.715   6.636
14517TIP3    H143494   6.464   5.750   6.597
14517TIP3    H243495   6.614   5.749   6.579
14518TIP3   OH243496   4.149   4.359   2.141
14518TIP3    H143497   4.077   4.345   2.203
14518TIP3    H243498   4.188   4.442   2.168
14519TIP3   OH243499   1.532   5.387   5.274
14519TIP3    H143500   1.554   5.457   5.336
14519TIP3    H243501   1.440   5.370   5.290
14520TIP3   OH243502   7.220   4.061   0.614
14520TIP3    H143503   7.141   4.022   0.651
14520TIP3    H243504   7.267   4.097   0.689
14521TIP3   OH243505   4.703   1.451   1.739
14521TIP3    H143506   4.684   1.435   1.646
14521TIP3    H243507   4.768   1.520   1.738
14522TIP3   OH243508   6.735   6.234   2.853
14522TIP3    H143509   6.820   6.206   2.818
14522TIP3    H243510   6.757   6.301   2.918
14523TIP3   OH243511   1.016   6.569   3.162
14523TIP3    H143512   1.107   6.551   3.139
14523TIP3    H243513   0.971   6.485   3.152
14524TIP3   OH243514   3.170   4.918   2.243
14524TIP3    H143515   3.201   4.832   2.216
14524TIP3    H243516   3.246   4.961   2.280
14525TIP3   OH243517   0.093   6.294   1.992
14525TIP3    H143518   0.079   6.216   2.046
14525TIP3    H243519   0.038   6.361   2.031
14526TIP3   OH243520   2.675   0.997   3.893
14526TIP3    H143521   2.601   1.012   3.951
14526TIP3    H243522   2.674   1.072   3.833
14527TIP3   OH243523   0.065   0.217   0.094
14527TIP3    H143524   0.116   0.292   0.125
14527TIP3    H243525   0.013   0.190   0.170
14528TIP3   OH243526   2.648   3.239   2.613
14528TIP3    H143527   2.699   3.166   2.577
14528TIP3    H243528   2.660   3.310   2.550
14529TIP3   OH243529   1.026   5.755   4.463
14529TIP3    H143530   1.062   5.798   4.386
14529TIP3    H243531   0.931   5.763   4.453
14530TIP3   OH243532   1.725   4.317   6.179
14530TIP3    H143533   1.713   4.268   6.260
14530TIP3    H243534   1.716   4.409   6.204
14531TIP3   OH243535   6.596   5.052   2.799
14531TIP3    H143536   6.661   4.998   2.842
14531TIP3    H243537   6.636   5.077   2.716
14532TIP3   OH243538   7.685   6.727   4.272
14532TIP3    H143539   7.737   6.648   4.288
14532TIP3    H243540   7.606   6.716   4.324
14533TIP3   OH243541   5.923   1.592   5.776
14533TIP3    H143542   5.946   1.609   5.867
14533TIP3    H243543   5.978   1.517   5.751
14534TIP3   OH243544   2.246   2.668   5.393
14534TIP3    H143545   2.330   2.647   5.352
14534TIP3    H243546   2.207   2.733   5.336
14535TIP3   OH243547   5.007   2.330   3.857
14535TIP3    H143548   5.092   2.309   3.819
14535TIP3    H243549   4.981   2.412   3.815
14536TIP3   OH243550   6.233   2.400   5.553
14536TIP3    H143551   6.150   2.423   5.511
14536TIP3    H243552   6.294   2.468   5.525
14537TIP3   OH243553   5.618   0.391   0.286
14537TIP3    H143554   5.548   0.361   0.227
14537TIP3    H243555   5.605   0.485   0.293
14538TIP3   OH243556   7.405   6.900   3.922
14538TIP3    H143557   7.478   6.926   3.865
14538TIP3    H243558   7.445   6.887   4.008
14539TIP3   OH243559   2.395   2.447   2.439
14539TIP3    H143560   2.402   2.365   2.391
14539TIP3    H243561   2.453   2.507   2.392
14540TIP3   OH243562   4.972   4.818   0.098
14540TIP3    H143563   4.900   4.870   0.132
14540TIP3    H243564   5.037   4.882   0.070
14541TIP3   OH243565   2.481   3.245   5.191
14541TIP3    H143566   2.395   3.208   5.211
14541TIP3    H243567   2.500   3.218   5.101
14542TIP3   OH243568   4.221   3.183   2.668
14542TIP3    H143569   4.140   3.232   2.659
14542TIP3    H243570   4.223   3.126   2.591
14543TIP3   OH243571   1.439   3.914   5.135
14543TIP3    H143572   1.393   3.991   5.168
14543TIP3    H243573   1.499   3.890   5.206
14544TIP3   OH243574   6.291   2.693   1.118
14544TIP3    H143575   6.318   2.762   1.179
14544TIP3    H243576   6.352   2.700   1.045
14545TIP3   OH243577   1.974   2.064   4.701
14545TIP3    H143578   1.999   2.134   4.641
14545TIP3    H243579   1.996   2.099   4.788
14546TIP3   OH243580   2.296   2.123   6.038
14546TIP3    H143581   2.270   2.215   6.037
14546TIP3    H243582   2.391   2.125   6.042
14547TIP3   OH243583   2.702   7.504   0.347
14547TIP3    H143584   2.707   7.459   0.431
14547TIP3    H243585   2.716   7.597   0.369
14548TIP3   OH243586   2.420   4.964   3.868
14548TIP3    H143587   2.356   4.963   3.939
14548TIP3    H243588   2.382   4.906   3.802
14549TIP3   OH243589   7.488   2.316   5.404
14549TIP3    H143590   7.436   2.381   5.450
14549TIP3    H243591   7.562   2.365   5.367
14550TIP3   OH243592   3.661   5.354   6.104
14550TIP3    H143593   3.615   5.272   6.121
14550TIP3    H243594   3.751   5.327   6.087
14551TIP3   OH243595   5.895   4.769   5.699
14551TIP3    H143596   5.880   4.807   5.785
14551TIP3    H243597   5.973   4.813   5.666
14552TIP3   OH243598   1.818   4.121   2.310
14552TIP3    H143599   1.738   4.070   2.320
14552TIP3    H243600   1.796   4.208   2.342
14553TIP3   OH243601   6.716   4.687   0.089
14553TIP3    H143602   6.630   4.651   0.110
14553TIP3    H243603   6.738   4.648   0.004
14554TIP3   OH243604   7.096   4.781   1.076
14554TIP3    H143605   7.162   4.821   1.133
14554TIP3    H243606   7.147   4.728   1.015
14555TIP3   OH243607   2.416   6.413   2.525
14555TIP3    H143608   2.354   6.445   2.590
14555TIP3    H243609   2.466   6.346   2.571
14556TIP3   OH243610   4.628   7.783   5.113
14556TIP3    H143611   4.618   7.697   5.073
14556TIP3    H243612   4.628   7.767   5.207
14557TIP3   OH243613   7.704   3.935   0.616
14557TIP3    H143614   7.775   3.976   0.567
14557TIP3    H243615   7.641   3.908   0.550
14558TIP3   OH243616   0.643   6.064   2.505
14558TIP3    H143617   0.637   5.970   2.487
14558TIP3    H243618   0.695   6.069   2.585
14559TIP3   OH243619   4.375   3.809   2.059
14559TIP3    H143620   4.361   3.731   2.005
14559TIP3    H243621   4.313   3.799   2.132
14560TIP3   OH243622   2.660   0.963   1.790
14560TIP3    H143623   2.697   0.944   1.877
14560TIP3    H243624   2.567   0.943   1.798
14561TIP3   OH243625   2.962   2.522   4.595
14561TIP3    H143626   2.957   2.587   4.525
14561TIP3    H243627   3.045   2.478   4.580
14562TIP3   OH243628   0.924   6.520   0.234
14562TIP3    H143629   0.831   6.536   0.218
14562TIP3    H243630   0.969   6.585   0.180
14563TIP3   OH243631   3.301   3.489   3.878
14563TIP3    H143632   3.355   3.567   3.889
14563TIP3    H243633   3.236   3.514   3.812
14564TIP3   OH243634   1.031   6.563   0.817
14564TIP3    H143635   0.940   6.570   0.789
14564TIP3    H243636   1.026   6.534   0.908
14565TIP3   OH243637   3.459   0.977   0.160
14565TIP3    H143638   3.396   0.946   0.225
14565TIP3    H243639   3.499   0.898   0.124
14566TIP3   OH243640   0.009   5.816   3.377
14566TIP3    H143641   0.082   5.848   3.325
14566TIP3    H243642  -0.051   5.891   3.384
14567TIP3   OH243643   6.696   1.610   4.775
14567TIP3    H143644   6.614   1.648   4.807
14567TIP3    H243645   6.764   1.649   4.832
14568TIP3   OH243646   4.294   4.378   1.796
14568TIP3    H143647   4.339   4.377   1.881
14568TIP3    H243648   4.272   4.287   1.779
14569TIP3   OH243649   5.211   0.691   0.122
14569TIP3    H143650   5.130   0.659   0.084
14569TIP3    H243651   5.183   0.753   0.190
14570TIP3   OH243652   2.554   3.427   0.035
14570TIP3    H143653   2.472   3.410  -0.013
14570TIP3    H243654   2.593   3.502  -0.010
14571TIP3   OH243655   1.048   1.663   3.803
14571TIP3    H143656   1.058   1.713   3.721
14571TIP3    H243657   0.954   1.649   3.811
14572TIP3   OH243658   4.632   3.457   5.541
14572TIP3    H143659   4.550   3.474   5.587
14572TIP3    H243660   4.606   3.413   5.460
14573TIP3   OH243661   8.058   7.588   2.821
14573TIP3    H143662   8.144   7.551   2.803
14573TIP3    H243663   8.005   7.567   2.743
14574TIP3   OH243664   1.137   5.297   2.839
14574TIP3    H143665   1.054   5.251   2.828
14574TIP3    H243666   1.200   5.247   2.787
14575TIP3   OH243667   2.558   2.039   0.105
14575TIP3    H143668   2.599   1.953   0.094
14575TIP3    H243669   2.628   2.101   0.088
14576TIP3   OH243670   4.235   5.254   0.892
14576TIP3    H143671   4.246   5.245   0.986
14576TIP3    H243672   4.322   5.277   0.859
14577TIP3   OH243673   3.530   7.608   0.703
14577TIP3    H143674   3.583   7.552   0.647
14577TIP3    H243675   3.446   7.615   0.657
14578TIP3   OH243676   5.516   2.967   1.818
14578TIP3    H143677   5.592   3.006   1.862
14578TIP3    H243678   5.552   2.891   1.772
14579TIP3   OH243679   4.040   4.920   5.637
14579TIP3    H143680   4.104   4.983   5.671
14579TIP3    H243681   4.019   4.952   5.549
14580TIP3   OH243682   1.931   0.253   0.364
14580TIP3    H143683   1.837   0.270   0.372
14580TIP3    H243684   1.972   0.326   0.410
14581TIP3   OH243685   5.002   2.795   0.771
14581TIP3    H143686   5.091   2.803   0.737
14581TIP3    H243687   5.002   2.844   0.853
14582TIP3   OH243688   6.658   5.869   6.131
14582TIP3    H143689   6.588   5.860   6.196
14582TIP3    H243690   6.736   5.889   6.182
14583TIP3   OH243691   6.472   1.407   0.603
14583TIP3    H143692   6.499   1.495   0.632
14583TIP3    H243693   6.461   1.416   0.508
14584TIP3   OH243694   3.947   1.656   3.828
14584TIP3    H143695   3.917   1.737   3.869
14584TIP3    H243696   3.899   1.651   3.745
14585TIP3   OH243697   3.291   3.445   1.052
14585TIP3    H143698   3.335   3.496   0.984
14585TIP3    H243699   3.357   3.434   1.121
14586TIP3   OH243700   1.731   2.787   0.338
14586TIP3    H143701   1.732   2.877   0.370
14586TIP3    H243702   1.663   2.744   0.390
14587TIP3   OH243703   6.916   0.821   4.344
14587TIP3    H143704   6.837   0.807   4.291
14587TIP3    H243705   6.989   0.810   4.283
14588TIP3   OH243706   7.826   4.316   6.321
14588TIP3    H143707   7.894   4.375   6.290
14588TIP3    H243708   7.755   4.373   6.351
14589TIP3   OH243709   1.496   6.000   3.482
14589TIP3    H143710   1.504   5.949   3.402
14589TIP3    H243711   1.538   5.946   3.549
14590TIP3   OH243712   1.604   4.730   5.268
14590TIP3    H143713   1.605   4.662   5.202
14590TIP3    H243714   1.632   4.687   5.349
14591TIP3   OH243715   0.780   3.703   2.940
14591TIP3    H143716   0.714   3.759   2.981
14591TIP3    H243717   0.832   3.763   2.887
14592TIP3   OH243718   8.091   6.885   1.646
14592TIP3    H143719   8.099   6.907   1.739
14592TIP3    H243720   8.170   6.920   1.607
14593TIP3   OH243721   2.527   2.831   2.054
14593TIP3    H143722   2.553   2.923   2.046
14593TIP3    H243723   2.579   2.785   1.989
14594TIP3   OH243724   5.316   6.147   0.723
14594TIP3    H143725   5.382   6.086   0.690
14594TIP3    H243726   5.333   6.152   0.818
14595TIP3   OH243727   3.913   5.533   1.107
14595TIP3    H143728   3.891   5.454   1.156
14595TIP3    H243729   3.859   5.602   1.145
14596TIP3   OH243730   3.180   4.355   0.703
14596TIP3    H143731   3.230   4.279   0.733
14596TIP3    H243732   3.226   4.430   0.741
14597TIP3   OH243733   8.032   6.281   3.439
14597TIP3    H143734   7.946   6.239   3.440
14597TIP3    H243735   8.094   6.209   3.428
14598TIP3   OH243736   1.711   0.456   2.324
14598TIP3    H143737   1.635   0.479   2.378
14598TIP3    H243738   1.688   0.370   2.288
14599TIP3   OH243739   8.171   1.761   6.763
14599TIP3    H143740   8.165   1.733   6.672
14599TIP3    H243741   8.109   1.834   6.769
14600TIP3   OH243742  -0.021   5.487   0.159
14600TIP3    H143743   0.005   5.499   0.068
14600TIP3    H243744   0.046   5.431   0.196
14601TIP3   OH243745   6.497   7.760   6.042
14601TIP3    H143746   6.440   7.822   5.996
14601TIP3    H243747   6.438   7.689   6.070
14602TIP3   OH243748   1.976   7.186   3.728
14602TIP3    H143749   1.981   7.100   3.686
14602TIP3    H243750   2.065   7.203   3.759
14603TIP3   OH243751   7.457   6.445   1.362
14603TIP3    H143752   7.370   6.483   1.347
14603TIP3    H243753   7.514   6.521   1.375
14604TIP3   OH243754   0.697   2.485   5.663
14604TIP3    H143755   0.668   2.426   5.733
14604TIP3    H243756   0.624   2.545   5.650
14605TIP3   OH243757   6.285   5.674   4.628
14605TIP3    H143758   6.296   5.743   4.562
14605TIP3    H243759   6.373   5.638   4.639
14606TIP3   OH243760   4.631   3.871   5.161
14606TIP3    H143761   4.631   3.960   5.126
14606TIP3    H243762   4.637   3.882   5.256
14607TIP3   OH243763   0.467   6.312   4.686
14607TIP3    H143764   0.451   6.233   4.738
14607TIP3    H243765   0.562   6.320   4.683
14608TIP3   OH243766   6.267   7.889   0.133
14608TIP3    H143767   6.331   7.823   0.160
14608TIP3    H243768   6.206   7.894   0.207
14609TIP3   OH243769   3.022   2.015   0.706
14609TIP3    H143770   3.085   1.971   0.648
14609TIP3    H243771   3.006   2.100   0.665
14610TIP3   OH243772   4.039   3.933   4.198
14610TIP3    H143773   4.075   3.979   4.123
14610TIP3    H243774   4.079   3.846   4.194
14611TIP3   OH243775   5.637   6.983   3.775
14611TIP3    H143776   5.600   7.067   3.800
14611TIP3    H243777   5.720   6.978   3.822
14612TIP3   OH243778   3.015   0.766   5.973
14612TIP3    H143779   2.997   0.735   6.062
14612TIP3    H243780   3.072   0.841   5.985
14613TIP3   OH243781   2.374   6.994   2.985
14613TIP3    H143782   2.445   6.932   2.969
14613TIP3    H243783   2.388   7.025   3.075
14614TIP3   OH243784   7.867   3.853   2.933
14614TIP3    H143785   7.962   3.865   2.939
14614TIP3    H243786   7.852   3.763   2.963
14615TIP3   OH243787   1.357   3.325   3.699
14615TIP3    H143788   1.341   3.285   3.784
14615TIP3    H243789   1.363   3.251   3.639
14616TIP3   OH243790   2.361   2.767   6.140
14616TIP3    H143791   2.283   2.731   6.098
14616TIP3    H243792   2.330   2.845   6.186
14617TIP3   OH243793   5.308   0.170   1.262
14617TIP3    H143794   5.304   0.266   1.269
14617TIP3    H243795   5.335   0.153   1.172
14618TIP3   OH243796   6.083   7.487   2.783
14618TIP3    H143797   6.080   7.397   2.817
14618TIP3    H243798   6.167   7.521   2.813
14619TIP3   OH243799   2.032   6.448   2.524
14619TIP3    H143800   2.052   6.356   2.536
14619TIP3    H243801   2.054   6.465   2.432
14620TIP3   OH243802   0.707   1.333   1.755
14620TIP3    H143803   0.651   1.337   1.832
14620TIP3    H243804   0.748   1.420   1.750
14621TIP3   OH243805   2.677   2.031   4.016
14621TIP3    H143806   2.755   2.078   4.045
14621TIP3    H243807   2.621   2.099   3.979
14622TIP3   OH243808   6.555   2.809   2.187
14622TIP3    H143809   6.587   2.886   2.233
14622TIP3    H243810   6.469   2.835   2.153
14623TIP3   OH243811   8.029   4.261   4.447
14623TIP3    H143812   7.940   4.260   4.482
14623TIP3    H243813   8.067   4.343   4.480
14624TIP3   OH243814   1.818   1.824   1.579
14624TIP3    H143815   1.846   1.915   1.573
14624TIP3    H243816   1.766   1.820   1.659
14625TIP3   OH243817   8.159   7.053   1.061
14625TIP3    H143818   8.203   7.133   1.033
14625TIP3    H243819   8.204   7.028   1.142
14626TIP3   OH243820   1.025   1.255   5.785
14626TIP3    H143821   0.940   1.292   5.762
14626TIP3    H243822   1.028   1.170   5.741
14627TIP3   OH243823   6.719   4.501   3.694
14627TIP3    H143824   6.777   4.427   3.711
14627TIP3    H243825   6.733   4.560   3.768
14628TIP3   OH243826   1.668   3.254   3.249
14628TIP3    H143827   1.698   3.330   3.200
14628TIP3    H243828   1.741   3.232   3.307
14629TIP3   OH243829   2.091   4.668   6.449
14629TIP3    H143830   2.104   4.678   6.544
14629TIP3    H243831   2.136   4.743   6.411
14630TIP3   OH243832   0.376   7.122   0.486
14630TIP3    H143833   0.454   7.103   0.538
14630TIP3    H243834   0.315   7.052   0.508
14631TIP3   OH243835   5.754   4.997   1.963
14631TIP3    H143836   5.807   5.053   1.906
14631TIP3    H243837   5.761   4.910   1.924
14632TIP3   OH243838   5.789   6.865   1.556
14632TIP3    H143839   5.704   6.874   1.513
14632TIP3    H243840   5.821   6.779   1.529
14633TIP3   OH243841   5.258   0.814   2.686
14633TIP3    H143842   5.226   0.728   2.662
14633TIP3    H243843   5.347   0.818   2.649
14634TIP3   OH243844   2.473   4.084   2.718
14634TIP3    H143845   2.527   4.158   2.745
14634TIP3    H243846   2.494   4.071   2.625
14635TIP3   OH243847   4.086   2.370   5.378
14635TIP3    H143848   3.994   2.396   5.373
14635TIP3    H243849   4.084   2.276   5.394
14636TIP3   OH243850   0.110   1.717   5.283
14636TIP3    H143851   0.201   1.706   5.254
14636TIP3    H243852   0.067   1.635   5.258
14637TIP3   OH243853   6.917   1.555   3.742
14637TIP3    H143854   6.989   1.505   3.782
14637TIP3    H243855   6.885   1.498   3.671
14638TIP3   OH243856   4.758   7.336   1.473
14638TIP3    H143857   4.721   7.424   1.467
14638TIP3    H243858   4.838   7.340   1.420
14639TIP3   OH243859   0.642   1.915   4.730
14639TIP3    H143860   0.555   1.893   4.762
14639TIP3    H243861   0.627   1.946   4.641
14640TIP3   OH243862   7.618   4.614   3.906
14640TIP3    H143863   7.523   4.605   3.903
14640TIP3    H243864   7.650   4.545   3.847
14641TIP3   OH243865   1.472   0.514   2.465
14641TIP3    H143866   1.407   0.574   2.502
14641TIP3    H243867   1.450   0.428   2.502
14642TIP3   OH243868   3.421   2.283   5.747
14642TIP3    H143869   3.406   2.257   5.656
14642TIP3    H243870   3.448   2.374   5.742
14643TIP3   OH243871   2.140   0.339   2.524
14643TIP3    H143872   2.157   0.419   2.474
14643TIP3    H243873   2.227   0.305   2.544
14644TIP3   OH243874   3.154   0.419   1.718
14644TIP3    H143875   3.120   0.401   1.631
14644TIP3    H243876   3.113   0.502   1.743
14645TIP3   OH243877   0.979   7.153   6.350
14645TIP3    H143878   0.966   7.233   6.400
14645TIP3    H243879   1.037   7.178   6.278
14646TIP3   OH243880   5.980   1.325   2.822
14646TIP3    H143881   6.011   1.383   2.892
14646TIP3    H243882   6.032   1.246   2.832
14647TIP3   OH243883   7.766   7.571   0.320
14647TIP3    H143884   7.828   7.565   0.246
14647TIP3    H243885   7.812   7.625   0.384
14648TIP3   OH243886   6.476   3.342   1.268
14648TIP3    H143887   6.409   3.407   1.249
14648TIP3    H243888   6.466   3.276   1.199
14649TIP3   OH243889   0.570   6.818   4.319
14649TIP3    H143890   0.637   6.877   4.355
14649TIP3    H243891   0.490   6.869   4.319
14650TIP3   OH243892   8.070   0.648   1.080
14650TIP3    H143893   8.114   0.711   1.022
14650TIP3    H243894   8.115   0.657   1.164
14651TIP3   OH243895   6.225   3.876   0.414
14651TIP3    H143896   6.193   3.897   0.326
14651TIP3    H243897   6.304   3.825   0.398
14652TIP3   OH243898   7.477   3.121   2.945
14652TIP3    H143899   7.388   3.087   2.950
14652TIP3    H243900   7.480   3.170   2.862
14653TIP3   OH243901   3.222   7.334   4.833
14653TIP3    H143902   3.226   7.393   4.757
14653TIP3    H243903   3.313   7.311   4.850
14654TIP3   OH243904   6.122   3.519   3.913
14654TIP3    H143905   6.120   3.615   3.921
14654TIP3    H243906   6.040   3.490   3.952
14655TIP3   OH243907   5.617   0.045   1.482
14655TIP3    H143908   5.665   0.126   1.501
14655TIP3    H243909   5.635  -0.011   1.557
14656TIP3   OH243910   3.863   1.370   4.363
14656TIP3    H143911   3.794   1.319   4.404
14656TIP3    H243912   3.942   1.317   4.372
14657TIP3   OH243913  -0.033   1.306   4.900
14657TIP3    H143914  -0.066   1.390   4.869
14657TIP3    H243915   0.062   1.318   4.905
14658TIP3   OH243916   7.845   4.564   6.568
14658TIP3    H143917   7.898   4.619   6.509
14658TIP3    H243918   7.755   4.592   6.551
14659TIP3   OH243919   0.576   5.240   2.555
14659TIP3    H143920   0.501   5.192   2.590
14659TIP3    H243921   0.622   5.271   2.633
14660TIP3   OH243922   0.477   7.697   6.439
14660TIP3    H143923   0.458   7.758   6.510
14660TIP3    H243924   0.434   7.736   6.363
14661TIP3   OH243925   1.865   0.886   5.942
14661TIP3    H143926   1.953   0.924   5.953
14661TIP3    H243927   1.881   0.799   5.906
14662TIP3   OH243928   5.503   3.828   3.183
14662TIP3    H143929   5.538   3.910   3.148
14662TIP3    H243930   5.581   3.776   3.203
14663TIP3   OH243931   4.687   5.029   5.516
14663TIP3    H143932   4.618   4.963   5.513
14663TIP3    H243933   4.645   5.109   5.482
14664TIP3   OH243934   4.824   5.042   4.731
14664TIP3    H143935   4.897   4.981   4.722
14664TIP3    H243936   4.747   4.994   4.701
14665TIP3   OH243937   0.640   1.190   4.725
14665TIP3    H143938   0.614   1.259   4.785
14665TIP3    H243939   0.564   1.130   4.723
14666TIP3   OH243940   3.339   4.106   3.377
14666TIP3    H143941   3.280   4.055   3.432
14666TIP3    H243942   3.318   4.197   3.397
14667TIP3   OH243943   5.649   1.902   4.102
14667TIP3    H143944   5.564   1.860   4.115
14667TIP3    H243945   5.699   1.879   4.180
14668TIP3   OH243946   4.446   5.037   2.465
14668TIP3    H143947   4.523   4.993   2.504
14668TIP3    H243948   4.468   5.130   2.468
14669TIP3   OH243949   1.076   6.429   5.632
14669TIP3    H143950   0.990   6.466   5.649
14669TIP3    H243951   1.137   6.486   5.679
14670TIP3   OH243952   5.363   0.336   0.769
14670TIP3    H143953   5.294   0.275   0.742
14670TIP3    H243954   5.412   0.289   0.836
14671TIP3   OH243955   0.292   2.785   1.612
14671TIP3    H143956   0.239   2.815   1.686
14671TIP3    H243957   0.301   2.691   1.626
14672TIP3   OH243958   5.521   7.434   1.928
14672TIP3    H143959   5.461   7.424   2.003
14672TIP3    H243960   5.516   7.527   1.906
14673TIP3   OH243961   7.368   6.269   6.206
14673TIP3    H143962   7.362   6.176   6.186
14673TIP3    H243963   7.324   6.312   6.132
14674TIP3   OH243964   4.111   3.637   3.908
14674TIP3    H143965   4.085   3.552   3.873
14674TIP3    H243966   4.050   3.699   3.867
14675TIP3   OH243967   8.008   3.674   2.754
14675TIP3    H143968   7.969   3.605   2.700
14675TIP3    H243969   8.015   3.750   2.697
14676TIP3   OH243970   4.538   6.708   4.885
14676TIP3    H143971   4.463   6.686   4.830
14676TIP3    H243972   4.527   6.655   4.964
14677TIP3   OH243973   6.531   6.704   2.903
14677TIP3    H143974   6.453   6.684   2.955
14677TIP3    H243975   6.526   6.647   2.827
14678TIP3   OH243976   7.377   0.064   4.557
14678TIP3    H143977   7.361   0.008   4.481
14678TIP3    H243978   7.458   0.030   4.595
14679TIP3   OH243979   2.941   2.475   2.886
14679TIP3    H143980   2.928   2.478   2.791
14679TIP3    H243981   3.024   2.521   2.900
14680TIP3   OH243982   1.437   5.398   0.056
14680TIP3    H143983   1.370   5.438   0.001
14680TIP3    H243984   1.514   5.454   0.046
14681TIP3   OH243985   0.427   3.634   1.356
14681TIP3    H143986   0.403   3.572   1.425
14681TIP3    H243987   0.343   3.662   1.319
14682TIP3   OH243988   0.028   3.122   0.418
14682TIP3    H143989   0.037   3.137   0.513
14682TIP3    H243990   0.044   3.028   0.408
14683TIP3   OH243991   2.123   3.098   4.703
14683TIP3    H143992   2.170   3.126   4.624
14683TIP3    H243993   2.174   3.024   4.736
14684TIP3   OH243994   3.531   6.988   5.480
14684TIP3    H143995   3.460   7.003   5.542
14684TIP3    H243996   3.490   6.942   5.407
14685TIP3   OH243997   5.125   1.034   0.683
14685TIP3    H143998   5.101   1.117   0.641
14685TIP3    H243999   5.072   0.968   0.638
14686TIP3   OH244000   0.333   5.159   4.065
14686TIP3    H144001   0.246   5.152   4.103
14686TIP3    H244002   0.392   5.123   4.131
14687TIP3   OH244003   2.164   5.918   6.255
14687TIP3    H144004   2.180   6.003   6.296
14687TIP3    H244005   2.121   5.866   6.324
14688TIP3   OH244006   0.839   3.472   3.087
14688TIP3    H144007   0.803   3.554   3.055
14688TIP3    H244008   0.933   3.487   3.093
14689TIP3   OH244009   0.882   1.665   2.643
14689TIP3    H144010   0.968   1.651   2.682
14689TIP3    H244011   0.866   1.587   2.591
14690TIP3   OH244012   2.586   5.733   5.747
14690TIP3    H144013   2.565   5.816   5.792
14690TIP3    H244014   2.508   5.714   5.695
14691TIP3   OH244015   8.012   3.450   3.587
14691TIP3    H144016   7.917   3.461   3.595
14691TIP3    H244017   8.023   3.365   3.544
14692TIP3   OH244018   3.360   7.133   1.196
14692TIP3    H144019   3.362   7.220   1.156
14692TIP3    H244020   3.447   7.123   1.235
14693TIP3   OH244021   4.169   4.571   5.616
14693TIP3    H144022   4.165   4.478   5.595
14693TIP3    H244023   4.263   4.591   5.619
14694TIP3   OH244024   4.532   0.853   2.489
14694TIP3    H144025   4.484   0.864   2.407
14694TIP3    H244026   4.542   0.941   2.524
14695TIP3   OH244027   6.571   3.347   6.064
14695TIP3    H144028   6.543   3.404   5.992
14695TIP3    H244029   6.641   3.396   6.108
14696TIP3   OH244030   0.647   4.763   2.328
14696TIP3    H144031   0.592   4.699   2.374
14696TIP3    H244032   0.641   4.842   2.383
14697TIP3   OH244033   6.103   3.827   4.978
14697TIP3    H144034   6.114   3.890   4.907
14697TIP3    H244035   6.187   3.780   4.981
14698TIP3   OH244036   7.330   4.895   2.431
14698TIP3    H144037   7.353   4.841   2.506
14698TIP3    H244038   7.413   4.910   2.386
14699TIP3   OH244039   1.768   4.616   2.665
14699TIP3    H144040   1.707   4.548   2.693
14699TIP3    H244041   1.752   4.689   2.724
14700TIP3   OH244042   6.910   4.713   5.664
14700TIP3    H144043   6.837   4.774   5.648
14700TIP3    H244044   6.953   4.706   5.579
14701TIP3   OH244045   0.651   4.239   2.772
14701TIP3    H144046   0.577   4.193   2.810
14701TIP3    H244047   0.727   4.185   2.794
14702TIP3   OH244048   7.488   3.679   5.644
14702TIP3    H144049   7.564   3.717   5.600
14702TIP3    H244050   7.497   3.585   5.632
14703TIP3   OH244051   0.176   3.267   4.979
14703TIP3    H144052   0.191   3.194   5.040
14703TIP3    H244053   0.228   3.339   5.015
14704TIP3   OH244054   1.380   5.112   4.656
14704TIP3    H144055   1.376   5.115   4.752
14704TIP3    H244056   1.314   5.176   4.628
14705TIP3   OH244057   7.457   7.010   0.958
14705TIP3    H144058   7.424   6.928   0.921
14705TIP3    H244059   7.525   6.983   1.020
14706TIP3   OH244060   6.293   6.206   3.841
14706TIP3    H144061   6.214   6.156   3.858
14706TIP3    H244062   6.294   6.274   3.908
14707TIP3   OH244063   5.832   2.497   4.372
14707TIP3    H144064   5.853   2.589   4.356
14707TIP3    H244065   5.914   2.450   4.361
14708TIP3   OH244066   0.473   4.650   4.161
14708TIP3    H144067   0.531   4.584   4.125
14708TIP3    H244068   0.506   4.733   4.126
14709TIP3   OH244069   5.344   7.138   0.722
14709TIP3    H144070   5.340   7.234   0.726
14709TIP3    H244071   5.369   7.112   0.811
14710TIP3   OH244072   7.376   4.760   4.359
14710TIP3    H144073   7.364   4.784   4.267
14710TIP3    H244074   7.354   4.839   4.408
14711TIP3   OH244075   2.548   3.316   6.163
14711TIP3    H144076   2.531   3.316   6.257
14711TIP3    H244077   2.575   3.406   6.144
14712TIP3   OH244078   2.747   5.401   0.082
14712TIP3    H144079   2.707   5.486   0.068
14712TIP3    H244080   2.840   5.418   0.086
14713TIP3   OH244081   5.545   1.908   6.665
14713TIP3    H144082   5.581   1.820   6.670
14713TIP3    H244083   5.593   1.950   6.594
14714TIP3   OH244084   6.742   3.901   1.136
14714TIP3    H144085   6.732   3.957   1.213
14714TIP3    H244086   6.836   3.885   1.130
14715TIP3   OH244087   3.551   3.367   3.936
14715TIP3    H144088   3.463   3.396   3.911
14715TIP3    H244089   3.564   3.404   4.023
14716TIP3   OH244090   3.162   5.784   3.156
14716TIP3    H144091   3.103   5.710   3.171
14716TIP3    H244092   3.133   5.850   3.218
14717TIP3   OH244093   2.756   6.270   5.932
14717TIP3    H144094   2.832   6.327   5.946
14717TIP3    H244095   2.710   6.270   6.016
14718TIP3   OH244096   4.907   0.411   1.837
14718TIP3    H144097   4.990   0.387   1.877
14718TIP3    H244098   4.907   0.506   1.835
14719TIP3   OH244099   5.302   2.651   3.566
14719TIP3    H144100   5.264   2.602   3.638
14719TIP3    H244101   5.396   2.630   3.569
14720TIP3   OH244102   2.157   4.158   2.264
14720TIP3    H144103   2.139   4.191   2.176
14720TIP3    H244104   2.070   4.142   2.302
14721TIP3   OH244105   6.712   7.423   1.986
14721TIP3    H144106   6.731   7.417   1.892
14721TIP3    H244107   6.654   7.499   1.994
14722TIP3   OH244108   0.416   3.104   1.126
14722TIP3    H144109   0.323   3.123   1.132
14722TIP3    H244110   0.456   3.156   1.195
14723TIP3   OH244111   6.620   5.669   0.736
14723TIP3    H144112   6.580   5.616   0.668
14723TIP3    H244113   6.612   5.759   0.705
14724TIP3   OH244114   2.234   5.299   1.867
14724TIP3    H144115   2.162   5.247   1.904
14724TIP3    H244116   2.295   5.233   1.833
14725TIP3   OH244117   4.327   0.297   6.276
14725TIP3    H144118   4.260   0.285   6.343
14725TIP3    H244119   4.291   0.253   6.198
14726TIP3   OH244120   4.972   6.108   4.665
14726TIP3    H144121   4.895   6.051   4.675
14726TIP3    H244122   4.985   6.146   4.752
14727TIP3   OH244123   3.076   1.399   0.253
14727TIP3    H144124   2.986   1.430   0.246
14727TIP3    H244125   3.111   1.442   0.331
14728TIP3   OH244126   3.205   0.525   4.931
14728TIP3    H144127   3.257   0.534   4.851
14728TIP3    H244128   3.269   0.511   5.000
14729TIP3   OH244129   0.534   3.994   4.477
14729TIP3    H144130   0.582   3.921   4.516
14729TIP3    H244131   0.471   4.021   4.545
14730TIP3   OH244132   4.827   6.558   5.555
14730TIP3    H144133   4.885   6.595   5.489
14730TIP3    H244134   4.740   6.563   5.516
14731TIP3   OH244135   8.129   2.959   3.244
14731TIP3    H144136   8.121   2.995   3.156
14731TIP3    H244137   8.044   2.977   3.285
14732TIP3   OH244138   7.956   1.570   1.065
14732TIP3    H144139   7.889   1.516   1.107
14732TIP3    H244140   8.021   1.507   1.035
14733TIP3   OH244141   4.291   0.492   0.740
14733TIP3    H144142   4.294   0.406   0.781
14733TIP3    H244143   4.198   0.515   0.739
14734TIP3   OH244144   5.922   0.526   5.979
14734TIP3    H144145   5.877   0.525   5.895
14734TIP3    H244146   6.011   0.555   5.959
14735TIP3   OH244147   2.452   0.665   6.185
14735TIP3    H144148   2.492   0.746   6.217
14735TIP3    H244149   2.508   0.640   6.111
14736TIP3   OH244150   1.030   5.214   3.919
14736TIP3    H144151   1.018   5.261   4.001
14736TIP3    H244152   1.036   5.283   3.853
14737TIP3   OH244153   3.627   1.759   1.317
14737TIP3    H144154   3.718   1.768   1.289
14737TIP3    H244155   3.602   1.671   1.290
14738TIP3   OH244156   8.055   2.373   2.573
14738TIP3    H144157   8.123   2.440   2.578
14738TIP3    H244158   7.974   2.422   2.564
14739TIP3   OH244159   1.743   6.813   6.204
14739TIP3    H144160   1.773   6.840   6.118
14739TIP3    H244161   1.727   6.895   6.251
14740TIP3   OH244162   5.975   3.018   2.562
14740TIP3    H144163   6.070   3.020   2.568
14740TIP3    H244164   5.948   2.957   2.631
14741TIP3   OH244165   1.303   0.141   0.489
14741TIP3    H144166   1.307   0.155   0.584
14741TIP3    H244167   1.389   0.108   0.465
14742TIP3   OH244168   4.051   1.720   1.675
14742TIP3    H144169   4.039   1.695   1.584
14742TIP3    H244170   3.963   1.743   1.705
14743TIP3   OH244171   7.560   2.848   3.323
14743TIP3    H144172   7.542   2.923   3.380
14743TIP3    H244173   7.481   2.839   3.269
14744TIP3   OH244174   0.192   7.480   6.180
14744TIP3    H144175   0.162   7.495   6.270
14744TIP3    H244176   0.124   7.427   6.141
14745TIP3   OH244177   6.384   7.185   1.981
14745TIP3    H144178   6.451   7.218   1.921
14745TIP3    H244179   6.336   7.120   1.930
14746TIP3   OH244180   6.137   3.596   3.374
14746TIP3    H144181   6.133   3.599   3.470
14746TIP3    H244182   6.050   3.565   3.347
14747TIP3   OH244183   7.694   0.590   0.609
14747TIP3    H144184   7.717   0.506   0.570
14747TIP3    H244185   7.747   0.654   0.563
14748TIP3   OH244186   0.504   7.749   4.456
14748TIP3    H144187   0.586   7.790   4.485
14748TIP3    H244188   0.519   7.727   4.364
14749TIP3   OH244189   3.904   6.481   6.634
14749TIP3    H144190   3.974   6.544   6.649
14749TIP3    H244191   3.827   6.535   6.617
14750TIP3   OH244192   2.535   1.681   0.199
14750TIP3    H144193   2.518   1.587   0.192
14750TIP3    H244194   2.566   1.693   0.289
14751TIP3   OH244195   0.438   6.357   6.161
14751TIP3    H144196   0.369   6.297   6.191
14751TIP3    H244197   0.440   6.426   6.227
14752TIP3   OH244198   0.879   4.484   0.833
14752TIP3    H144199   0.961   4.516   0.797
14752TIP3    H244200   0.866   4.398   0.793
14753TIP3   OH244201   4.918   7.081   1.288
14753TIP3    H144202   4.872   7.148   1.238
14753TIP3    H244203   4.852   7.014   1.307
14754TIP3   OH244204   1.784   3.281   5.654
14754TIP3    H144205   1.758   3.210   5.595
14754TIP3    H244206   1.724   3.353   5.633
14755TIP3   OH244207   4.988   4.491   1.408
14755TIP3    H144208   5.044   4.447   1.473
14755TIP3    H244209   4.899   4.480   1.442
14756TIP3   OH244210   6.897   2.842   1.266
14756TIP3    H144211   6.937   2.755   1.264
14756TIP3    H244212   6.818   2.833   1.213
14757TIP3   OH244213   2.357   6.012   4.582
14757TIP3    H144214   2.279   5.958   4.573
14757TIP3    H244215   2.414   5.985   4.511
14758TIP3   OH244216   3.194   6.192   1.370
14758TIP3    H144217   3.261   6.141   1.414
14758TIP3    H244218   3.237   6.276   1.352
14759TIP3   OH244219   1.430   0.841   6.497
14759TIP3    H144220   1.518   0.805   6.505
14759TIP3    H244221   1.438   0.931   6.527
14760TIP3   OH244222   1.427   5.917   6.638
14760TIP3    H144223   1.489   5.948   6.704
14760TIP3    H244224   1.342   5.949   6.669
14761TIP3   OH244225   6.118   0.835   4.259
14761TIP3    H144226   6.122   0.760   4.200
14761TIP3    H244227   6.206   0.840   4.297
14762TIP3   OH244228   1.691   2.492   4.440
14762TIP3    H144229   1.622   2.457   4.495
14762TIP3    H244230   1.672   2.457   4.353
14763TIP3   OH244231   5.156   2.418   6.301
14763TIP3    H144232   5.115   2.464   6.227
14763TIP3    H244233   5.107   2.336   6.308
14764TIP3   OH244234   2.379   3.278   4.799
14764TIP3    H144235   2.400   3.280   4.706
14764TIP3    H244236   2.447   3.221   4.837
14765TIP3   OH244237   3.561   0.559   3.823
14765TIP3    H144238   3.597   0.609   3.896
14765TIP3    H244239   3.583   0.611   3.746
14766TIP3   OH244240   2.473   7.335   1.473
14766TIP3    H144241   2.395   7.289   1.443
14766TIP3    H244242   2.477   7.413   1.417
14767TIP3   OH244243   4.247   4.411   0.373
14767TIP3    H144244   4.320   4.426   0.312
14767TIP3    H244245   4.279   4.445   0.457
14768TIP3   OH244246   8.224   5.710   2.971
14768TIP3    H144247   8.294   5.690   3.033
14768TIP3    H244248   8.155   5.750   3.023
14769TIP3   OH244249   2.847   5.088   1.154
14769TIP3    H144250   2.773   5.118   1.207
14769TIP3    H244251   2.920   5.144   1.180
14770TIP3   OH244252   1.065   7.159   2.537
14770TIP3    H144253   1.056   7.094   2.606
14770TIP3    H244254   1.113   7.231   2.577
14771TIP3   OH244255   3.349   5.814   2.216
14771TIP3    H144256   3.372   5.725   2.191
14771TIP3    H244257   3.255   5.811   2.233
14772TIP3   OH244258   5.758   6.006   3.782
14772TIP3    H144259   5.689   5.981   3.844
14772TIP3    H244260   5.725   5.978   3.697
14773TIP3   OH244261   1.888   5.634   5.776
14773TIP3    H144262   1.929   5.621   5.691
14773TIP3    H244263   1.930   5.570   5.834
14774TIP3   OH244264   1.254   4.140   6.487
14774TIP3    H144265   1.190   4.181   6.429
14774TIP3    H244266   1.207   4.068   6.529
14775TIP3   OH244267   4.691   4.495   2.384
14775TIP3    H144268   4.643   4.536   2.456
14775TIP3    H244269   4.783   4.513   2.404
14776TIP3   OH244270   1.220   0.400   6.772
14776TIP3    H144271   1.199   0.307   6.763
14776TIP3    H244272   1.202   0.436   6.685
14777TIP3   OH244273   5.025   2.511   2.415
14777TIP3    H144274   5.070   2.457   2.481
14777TIP3    H244275   5.080   2.505   2.337
14778TIP3   OH244276   1.057   4.134   5.312
14778TIP3    H144277   1.087   4.072   5.380
14778TIP3    H244278   1.116   4.209   5.322
14779TIP3   OH244279   5.619   2.218   1.431
14779TIP3    H144280   5.657   2.130   1.436
14779TIP3    H244281   5.532   2.210   1.469
14780TIP3   OH244282   5.688   0.739   5.382
14780TIP3    H144283   5.743   0.787   5.321
14780TIP3    H244284   5.737   0.659   5.400
14781TIP3   OH244285   6.886   4.888   5.172
14781TIP3    H144286   6.947   4.883   5.099
14781TIP3    H244287   6.933   4.847   5.245
14782TIP3   OH244288   7.299   7.398   2.205
14782TIP3    H144289   7.366   7.420   2.269
14782TIP3    H244290   7.347   7.374   2.126
14783TIP3   OH244291   4.430   2.936   4.183
14783TIP3    H144292   4.426   2.861   4.242
14783TIP3    H244293   4.522   2.940   4.155
14784TIP3   OH244294   7.665   5.604   4.936
14784TIP3    H144295   7.750   5.572   4.967
14784TIP3    H244296   7.651   5.558   4.853
14785TIP3   OH244297   3.575   4.561   6.283
14785TIP3    H144298   3.538   4.627   6.341
14785TIP3    H244299   3.642   4.517   6.336
14786TIP3   OH244300   4.864   4.309   6.379
14786TIP3    H144301   4.843   4.269   6.463
14786TIP3    H244302   4.956   4.332   6.385
14787TIP3   OH244303   4.717   5.567   3.182
14787TIP3    H144304   4.639   5.516   3.203
14787TIP3    H244305   4.725   5.629   3.254
14788TIP3   OH244306   3.264   1.727   1.370
14788TIP3    H144307   3.182   1.751   1.411
14788TIP3    H244308   3.241   1.708   1.279
14789TIP3   OH244309   3.536   4.504   2.428
14789TIP3    H144310   3.448   4.539   2.444
14789TIP3    H244311   3.540   4.492   2.333
14790TIP3   OH244312   4.011   0.070   4.399
14790TIP3    H144313   4.083   0.017   4.431
14790TIP3    H244314   3.999   0.042   4.308
14791TIP3   OH244315   6.024   6.069   3.926
14791TIP3    H144316   5.983   6.137   3.979
14791TIP3    H244317   5.953   6.031   3.875
14792TIP3   OH244318   4.141   5.021   6.368
14792TIP3    H144319   4.105   5.093   6.317
14792TIP3    H244320   4.226   5.002   6.328
14793TIP3   OH244321   3.215   5.748   0.727
14793TIP3    H144322   3.309   5.754   0.714
14793TIP3    H244323   3.179   5.736   0.639
14794TIP3   OH244324   6.465   1.922   4.330
14794TIP3    H144325   6.438   1.971   4.407
14794TIP3    H244326   6.512   1.985   4.276
14795TIP3   OH244327   0.302   5.989   5.255
14795TIP3    H144328   0.228   6.010   5.199
14795TIP3    H244329   0.266   5.935   5.324
14796TIP3   OH244330   5.489   5.224   1.701
14796TIP3    H144331   5.401   5.262   1.702
14796TIP3    H244332   5.547   5.298   1.685
14797TIP3   OH244333   7.937   0.173   0.086
14797TIP3    H144334   7.982   0.238   0.031
14797TIP3    H244335   7.856   0.154   0.039
14798TIP3   OH244336   5.029   7.097   1.736
14798TIP3    H144337   5.101   7.089   1.798
14798TIP3    H244338   5.053   7.040   1.663
14799TIP3   OH244339   1.666   2.026   2.204
14799TIP3    H144340   1.695   1.936   2.214
14799TIP3    H244341   1.588   2.033   2.259
14800TIP3   OH244342   1.241   7.686   3.603
14800TIP3    H144343   1.251   7.743   3.526
14800TIP3    H244344   1.149   7.662   3.603
14801TIP3   OH244345   0.122   7.655   6.455
14801TIP3    H144346   0.181   7.689   6.388
14801TIP3    H244347   0.040   7.637   6.408
14802TIP3   OH244348   1.895   7.758   1.117
14802TIP3    H144349   1.858   7.714   1.193
14802TIP3    H244350   1.826   7.817   1.087
14803TIP3   OH244351   2.759   2.582   1.261
14803TIP3    H144352   2.823   2.645   1.295
14803TIP3    H244353   2.681   2.634   1.244
14804TIP3   OH244354   1.425   6.744   6.179
14804TIP3    H144355   1.487   6.679   6.213
14804TIP3    H244356   1.479   6.819   6.157
14805TIP3   OH244357   4.384   6.858   0.294
14805TIP3    H144358   4.321   6.884   0.227
14805TIP3    H244359   4.414   6.771   0.266
14806TIP3   OH244360   5.486   6.165   3.305
14806TIP3    H144361   5.453   6.218   3.232
14806TIP3    H244362   5.501   6.229   3.375
14807TIP3   OH244363   0.672   0.770   4.280
14807TIP3    H144364   0.674   0.843   4.342
14807TIP3    H244365   0.702   0.694   4.330
14808TIP3   OH244366   8.122   4.768   1.061
14808TIP3    H144367   8.207   4.790   1.100
14808TIP3    H244368   8.085   4.702   1.119
14809TIP3   OH244369   4.295   6.769   5.513
14809TIP3    H144370   4.261   6.757   5.424
14809TIP3    H244371   4.216   6.778   5.567
14810TIP3   OH244372   4.631   3.070   0.371
14810TIP3    H144373   4.678   3.087   0.452
14810TIP3    H244374   4.588   3.153   0.350
14811TIP3   OH244375   6.338   4.732   0.924
14811TIP3    H144376   6.420   4.767   0.888
14811TIP3    H244377   6.339   4.639   0.898
14812TIP3   OH244378   7.161   5.887   0.509
14812TIP3    H144379   7.122   5.962   0.463
14812TIP3    H244380   7.254   5.909   0.514
14813TIP3   OH244381   4.349   1.964   2.193
14813TIP3    H144382   4.345   1.956   2.288
14813TIP3    H244383   4.441   1.953   2.171
14814TIP3   OH244384   4.478   2.511   0.223
14814TIP3    H144385   4.446   2.587   0.175
14814TIP3    H244386   4.501   2.447   0.156
14815TIP3   OH244387   5.330   0.561   2.068
14815TIP3    H144388   5.370   0.481   2.035
14815TIP3    H244389   5.376   0.580   2.150
   8.28989   7.81578   6.76866   0.00000   0.00000  -2.76330   0.00000  -2.76330  -3.90789
